/*--------------------------------*- C++ -*----------------------------------*\
  =========                 |
  \\      /  F ield         | OpenFOAM: The Open Source CFD Toolbox
   \\    /   O peration     | Website:  https://openfoam.org
    \\  /    A nd           | Version:  7
     \\/     M anipulation  |
\*---------------------------------------------------------------------------*/
FoamFile
{
    version     2.0;
    format      ascii;
    class       volVectorField;
    location    "120";
    object      U;
}
// * * * * * * * * * * * * * * * * * * * * * * * * * * * * * * * * * * * * * //

dimensions      [0 1 -1 0 0 0 0];

internalField   nonuniform List<vector> 
24789
(
(102.63942 -3.6786229e-05 -0.00014324553)
(110.05317 -2.2650399e-05 -6.9329793e-05)
(112.5885 -8.3422265e-06 7.5049279e-06)
(113.90733 4.5120484e-05 0.00012664877)
(118.7725 0.00068839234 0.0010254824)
(118.77191 0.00040946978 0.00063731461)
(113.90957 -0.00021075731 -0.00021433668)
(112.5915 -0.00020000408 -0.00027453169)
(110.05842 -0.00012899716 -0.00027130646)
(102.65068 -9.0492001e-05 -0.00028254638)
(102.66402 -0.00045462875 2.0990996e-05)
(110.06384 -0.00052168668 3.3665678e-06)
(112.59447 -0.0005938914 -4.4767487e-05)
(113.91157 -0.00059626372 -4.1854678e-05)
(118.77132 0.0001529613 0.00050975507)
(118.77106 -9.7344693e-05 0.00031025)
(113.91465 -0.00068108131 -0.00018945315)
(112.59841 -0.00064270748 -0.00017671066)
(110.07045 -0.00052863266 -0.00011215044)
(102.67825 -0.00043436471 -8.7299563e-05)
(102.69485 -0.00048375682 -7.9774106e-05)
(110.07831 -0.00060826734 -0.00011734612)
(112.60343 -0.00075220345 -0.00020510058)
(113.91848 -0.00081721483 -0.00024503474)
(118.77113 -0.0003591811 0.00012053848)
(118.77164 -0.00062475783 -8.4339934e-05)
(113.92326 -0.00091628187 -0.00034174363)
(112.60925 -0.00081996022 -0.00028010011)
(110.08709 -0.00064283127 -0.00017362119)
(102.71191 -0.00048999355 -0.00012728497)
(102.73116 -0.00049959133 -0.00016465628)
(110.09715 -0.00068197184 -0.00021997423)
(112.61626 -0.00089449534 -0.00034666124)
(113.92894 -0.001024133 -0.0004313569)
(118.7726 -0.00090871995 -0.00028935042)
(118.7741 -0.0012118531 -0.00051363975)
(113.9357 -0.001124719 -0.00054455793)
(112.62421 -0.00095836706 -0.00043747916)
(110.10827 -0.00070852488 -0.00029127384)
(102.75095 -0.00049715296 -0.00022696193)
(102.77292 -0.00049560119 -0.00030486447)
(110.12076 -0.00074491493 -0.00038459063)
(112.63348 -0.0010333614 -0.00054992251)
(113.9435 -0.001238729 -0.00067932323)
(118.77615 -0.001541013 -0.00075695493)
(118.77883 -0.0018764465 -0.00098184983)
(113.95251 -0.0013476403 -0.00077412854)
(112.64381 -0.0011001585 -0.00061845953)
(110.13439 -0.00077044665 -0.00042903735)
(102.79539 -0.00049026983 -0.00033667442)
(102.82014 -0.0004744755 -0.00040870581)
(110.14955 -0.00079000364 -0.00051679506)
(112.6556 -0.0011631941 -0.00072786454)
(113.96267 -0.0014562554 -0.00090746714)
(118.78215 -0.0022238734 -0.0012175302)
(118.78616 -0.0025660644 -0.0014438056)
(113.97418 -0.0015681833 -0.0010330162)
(112.66857 -0.0012293397 -0.0008287468)
(110.1659 -0.00081207889 -0.00059415969)
(102.84528 -0.00046171048 -0.00046986918)
(102.87268 -0.00045453269 -0.00051657539)
(110.18384 -0.00083815028 -0.00065639656)
(112.68307 -0.0012973292 -0.00091333704)
(113.9869 -0.0016803632 -0.0011415014)
(118.79084 -0.0028918525 -0.0016336767)
(118.7962 -0.0031863126 -0.001775614)
(114.00099 -0.0017890067 -0.0012218356)
(112.69875 -0.0013652301 -0.00097235652)
(110.20288 -0.00086696426 -0.00069451678)
(102.90018 -0.00045437762 -0.0005412274)
(102.92956 -0.00045384144 -0.00055181458)
(110.22331 -0.00088846468 -0.00071869398)
(112.71584 -0.0014199381 -0.0010130003)
(114.01617 -0.0018802338 -0.0012787706)
(118.80217 -0.0034337646 -0.0018560345)
(118.80875 -0.0036276208 -0.0018636378)
(114.03248 -0.0019421591 -0.0013053786)
(112.73382 -0.0014526352 -0.001031182)
(110.24446 -0.0008977834 -0.00072276834)
(102.95846 -0.00045698515 -0.00053703472)
(102.98835 -0.00048664588 -0.0004575201)
(110.26636 -0.00090647636 -0.00067295966)
(112.75269 -0.0014647704 -0.00099380093)
(114.04946 -0.0019710218 -0.0012679464)
(118.81593 -0.0037612604 -0.0017853348)
(118.82388 -0.0038123627 -0.0016351629)
(114.06695 -0.0019330393 -0.0011353178)
(112.7717 -0.0014313898 -0.00086823331)
(110.28802 -0.00089602097 -0.0005381115)
(103.01644 -0.00053284845 -0.00029412844)
(103.04339 -0.00059076889 -0.00010736724)
(110.30881 -0.00088154793 -0.00036500547)
(112.79035 -0.0013611747 -0.00068375595)
(114.08411 -0.001830479 -0.00092996007)
(118.83279 -0.0038105242 -0.0014759371)
(118.84326 -0.003762214 -0.0013411402)
(114.10031 -0.0015807368 -0.00055058938)
(112.80727 -0.0011931729 -0.0003333659)
(110.32696 -0.00082434162 -4.5777996e-05)
(103.0654 -0.00065381674 0.00020229987)
(103.08197 -0.00070512131 0.00058891)
(110.34072 -0.00067113989 0.00033770714)
(112.8211 -0.00085152649 0.00011760665)
(114.11414 -0.0011057785 -3.7838986e-05)
(118.8563 -0.0037904123 -0.0013482935)
(118.87378 -0.0042329016 -0.0016890095)
(114.12412 -0.00047925668 0.00067301081)
(112.8293 -0.00042632192 0.00076406254)
(110.34708 -0.00055089914 0.00091294328)
(103.08862 -0.00093578121 0.0012228761)
(103.08614 -0.0017066023 0.0024713015)
(110.34414 -0.00074374192 0.0018294418)
(112.83015 -0.00017020558 0.0016562338)
(114.12874 1.2887629e-05 0.0015962056)
(118.89877 -0.0058994869 -0.0028234459)
(118.93628 -0.010390427 -0.0055836775)
(114.12947 -0.00066988181 0.0029744538)
(112.82413 -0.001023131 0.0032250881)
(110.33293 -0.0021642232 0.0037125055)
(103.07657 -0.0038882937 0.0051729299)
(103.07601 -0.0081322255 0.0097573752)
(110.32431 -0.0058439329 0.0069995417)
(112.82015 -0.0043472314 0.0056798706)
(114.1343 -0.0041248898 0.0047122904)
(118.99362 -0.020019882 -0.011339088)
(119.08098 -0.037436489 -0.021903481)
(114.16449 -0.012224906 0.0063406621)
(112.84067 -0.011696869 0.0089736054)
(110.34352 -0.012905827 0.011990122)
(103.11124 -0.015215531 0.016666709)
(103.22904 -0.024605899 0.024571798)
(110.43329 -0.023653657 0.018156064)
(112.92427 -0.024008323 0.012489775)
(114.25412 -0.026230764 0.0069342444)
(119.21047 -0.064660023 -0.039180077)
(119.39613 -0.10172167 -0.064768739)
(114.45017 -0.046624173 0.0050332206)
(113.12287 -0.041480989 0.015099536)
(110.64937 -0.037941856 0.024408734)
(103.48242 -0.035265551 0.032246137)
(103.95169 -0.047222442 0.039310481)
(111.0675 -0.055694134 0.030175031)
(113.50657 -0.063682844 0.016279488)
(114.81618 -0.072664008 7.2959928e-05)
(119.66893 -0.14476078 -0.0977444)
(120.04337 -0.19608701 -0.13702328)
(115.38718 -0.10492382 -0.0096075797)
(114.11435 -0.089998514 0.014267581)
(111.73038 -0.075865234 0.0335339)
(104.70062 -0.058780771 0.044508058)
(105.68473 -0.059441336 0.042512376)
(112.64642 -0.097543108 0.017341281)
(114.96597 -0.12849887 -0.0092516684)
(116.17781 -0.16319392 -0.045318529)
(120.4786 -0.32906529 -0.21874848)
(121.37924 -0.59496129 -0.3402637)
(117.74202 -0.25104443 -0.12022448)
(116.64722 -0.17662046 -0.071168332)
(114.41899 -0.10275092 -0.033979839)
(107.24194 -0.045436365 -0.013691348)
(110.98851 -0.20211284 -0.2994635)
(118.06983 -0.053525484 0.011701283)
(120.07685 -0.18856793 -0.031770767)
(120.90474 -0.2921314 -0.082306529)
(123.01369 -1.0039887 -0.51398542)
(123.71778 -2.8605593 -1.8947584)
(121.95402 -3.3257701 -2.1123857)
(121.21684 -3.3579531 -2.1132242)
(119.39378 -3.3170893 -2.0639682)
(112.79426 -3.334718 -2.133617)
(112.05452 -3.5633112 -4.6199991)
(118.63124 -3.5277946 -4.601366)
(120.48519 -3.7243999 -4.5620251)
(121.27613 -3.8071487 -4.4046727)
(123.42877 -3.9097682 -3.1723552)
(123.35147 -5.2775293 -4.2533231)
(121.65379 -5.9300415 -5.1780188)
(120.94029 -5.9422583 -5.2607524)
(119.17344 -5.8208235 -5.229858)
(112.62768 -5.7574172 -5.2052988)
(112.32595 -7.6581664 -6.1169766)
(118.4073 -7.8340636 -6.0419312)
(120.12836 -7.9375305 -6.0263384)
(120.83268 -7.9081609 -5.9236676)
(122.56401 -6.9868427 -4.8179523)
(123.47735 -5.7131474 -3.1552948)
(121.19742 -6.2653779 -4.1572473)
(120.4428 -6.2844151 -4.3036201)
(118.64441 -6.1333106 -4.3906795)
(112.19973 -6.315702 -4.6011424)
(111.76422 -5.5787816 -2.373004)
(118.27843 -5.7045289 -2.3386436)
(120.12698 -5.7121326 -2.3230792)
(120.93048 -5.583045 -2.2691857)
(123.44491 -4.4994173 -1.9761599)
(123.60708 -2.7011638 -1.223954)
(121.40221 -2.5187952 -1.0645874)
(120.61395 -2.4544668 -1.030813)
(118.68675 -2.3202717 -0.98145465)
(111.81359 -2.7231775 -1.1847325)
(109.07635 0.036652688 -0.28929046)
(116.40994 0.083227504 -0.23406741)
(118.59347 -0.052183747 -0.26474727)
(119.56374 -0.1597835 -0.29720119)
(122.76628 -1.055295 -0.60780483)
(121.26327 -0.62239053 -0.34825441)
(116.75132 -0.21966765 -0.12150564)
(115.58844 -0.14525295 -0.079631718)
(113.25506 -0.085993271 -0.040833067)
(105.99937 -0.027157189 0.0053031155)
(104.56323 -0.038249858 0.018674675)
(111.66552 -0.071930276 0.0070583433)
(114.05894 -0.10742742 -0.013223752)
(115.31106 -0.149156 -0.03880608)
(120.4613 -0.3710366 -0.18173006)
(120.07449 -0.23506281 -0.10334693)
(114.55042 -0.096709364 -0.0076684259)
(113.24487 -0.073197319 0.0072079535)
(110.7949 -0.05176193 0.020329879)
(103.63488 -0.033550457 0.02872285)
(102.92773 -0.022373715 0.021288914)
(110.15739 -0.032647161 0.011812693)
(112.65527 -0.045530361 0.0021536834)
(113.9928 -0.060765954 -0.0070102626)
(119.72137 -0.16987847 -0.07344979)
(119.46171 -0.11709395 -0.050835854)
(113.63975 -0.031710348 -0.010308925)
(112.28836 -0.022511885 -0.0058619433)
(109.76156 -0.015897093 -0.0002992016)
(102.49028 -0.011131009 0.0076456981)
(102.25663 -0.0030006042 -0.0028934672)
(109.56143 -0.0049532941 -0.0068297534)
(112.10339 -0.0076659119 -0.0085158576)
(113.45535 -0.012396635 -0.0097381025)
(119.28227 -0.073593959 -0.03135287)
(119.15499 -0.042382835 -0.016649235)
(113.37655 -0.0024500028 -0.0058136107)
(112.03157 -0.00058141129 -0.0060771496)
(109.48427 3.7333881e-05 -0.0064810666)
(102.15245 0.00058107487 -0.0057985623)
(102.12655 0.0011478227 -0.0041679703)
(109.47532 0.0012574493 -0.0032632279)
(112.02167 0.0016590367 -0.0021549196)
(113.35682 0.0012797076 -0.0015128006)
(119.06788 -0.022978604 -0.0071394313)
(119.01014 -0.012020692 -0.0014816156)
(113.36136 0.0016056643 0.0010915623)
(112.03526 0.0014907126 0.00041235593)
(109.49349 0.00099000555 -0.00067864484)
(102.13558 0.00077689307 -0.0019947917)
(102.15098 0.00019066636 -0.00015952677)
(109.51174 0.00027141106 0.00087560677)
(112.04857 0.00056174154 0.0016014822)
(113.36783 0.00066365161 0.0020598839)
(118.97211 -0.0069786516 0.00078115424)
(118.94662 -0.0051856638 0.0013479932)
(113.36806 -0.00064348292 0.0021112387)
(112.05288 -0.00054958763 0.0019293339)
(109.52006 -0.00053894105 0.0016083455)
(102.15814 -0.00047571402 0.0010450954)
(102.15379 -0.00096093608 0.0016430672)
(109.51675 -0.0011597971 0.001874898)
(112.04779 -0.0014375602 0.0019259609)
(113.361 -0.0017322818 0.0019319048)
(118.92889 -0.0046924793 0.0012465633)
(118.91587 -0.0046217962 0.00091104631)
(113.34873 -0.0024349979 0.0016320027)
(112.03577 -0.0020012112 0.0017559862)
(109.50495 -0.0015453431 0.0018635239)
(102.13867 -0.0012096191 0.0017993339)
(102.11664 -0.0013492643 0.0018077038)
(109.48734 -0.0017592316 0.0017569247)
(112.0195 -0.0023143204 0.0015455095)
(113.33303 -0.0028257749 0.0013413339)
(118.90558 -0.0046530432 0.00049172359)
(118.89692 -0.0046646805 7.7444914e-05)
(113.31584 -0.0029780725 0.0010248312)
(112.00102 -0.0024280741 0.0012702817)
(109.46682 -0.0018259241 0.001537589)
(102.08957 -0.0013738347 0.0016651215)
(102.06027 -0.0013684599 0.0015552898)
(109.4446 -0.0018294687 0.0013748127)
(111.98166 -0.0024411473 0.0010770216)
(113.29793 -0.0029975108 0.00080750367)
(118.8893 -0.0046244784 -0.00023414716)
(118.88242 -0.0044813182 -0.00046645974)
(113.28044 -0.0029067776 0.00059562017)
(111.96248 -0.0023657333 0.00086720616)
(109.42247 -0.0017684631 0.0011733983)
(102.02981 -0.0013137148 0.001380001)
(101.99935 -0.0012417809 0.0011929076)
(109.40042 -0.0016781809 0.0009747624)
(111.94387 -0.0022481964 0.00067358731)
(113.26347 -0.0027612082 0.00041095022)
(118.87614 -0.0042629873 -0.00062342779)
(118.8704 -0.0039653375 -0.00070528051)
(113.24765 -0.0025843845 0.00025731464)
(111.9263 -0.0021076453 0.00050321573)
(109.37951 -0.0015722646 0.00078837448)
(101.96902 -0.001160455 0.0010033407)
(101.93967 -0.001080236 0.00084413098)
(109.35939 -0.0014649286 0.00064339268)
(111.90987 -0.0019604633 0.00038055952)
(113.2328 -0.0023941941 0.00015393223)
(118.86526 -0.0036019661 -0.00071450197)
(118.86076 -0.0031915666 -0.00066721593)
(113.21937 -0.0021966372 8.9518813e-05)
(111.89476 -0.0018105389 0.00029434623)
(109.3408 -0.0013583919 0.00053127219)
(101.91104 -0.0010030755 0.00070872712)
(101.88387 -0.00095170412 0.00065644377)
(109.32326 -0.0012754683 0.00049951724)
(111.88097 -0.0016815934 0.0002846335)
(113.20708 -0.0020174463 9.8425097e-05)
(118.85691 -0.0027628323 -0.00056378096)
(118.85371 -0.0023300367 -0.00044417064)
(113.19625 -0.0018328446 0.0001141286)
(111.86859 -0.0015467795 0.00028087218)
(109.30743 -0.0011874204 0.00047479965)
(101.85785 -0.00089824204 0.00061329778)
(101.83351 -0.00086817694 0.00061582547)
(109.29272 -0.0011213048 0.0004857835)
(111.85754 -0.0014345534 0.00030628843)
(113.18657 -0.0016715415 0.00015580021)
(118.85113 -0.0018921879 -0.00030210373)
(118.8492 -0.0014824775 -0.00016461848)
(113.17821 -0.0014968391 0.00015468647)
(111.84777 -0.0013027772 0.00028265866)
(109.27961 -0.0010312608 0.00044165299)
(101.81028 -0.00081049871 0.00055804551)
(101.78879 -0.0007598871 0.00050829238)
(109.26754 -0.00094919939 0.00040283506)
(111.83922 -0.00118132 0.00026288704)
(113.17089 -0.0013345035 0.00015698614)
(118.84778 -0.0011029169 -2.53701e-05)
(118.8469 -0.00073078224 0.00011864227)
(113.16478 -0.0011788482 0.00016492015)
(111.83179 -0.0010632282 0.00024992124)
(109.25693 -0.00086839881 0.00037154736)
(101.7683 -0.00070945721 0.0004668454)
(101.74959 -0.0006659937 0.00044599485)
(109.24724 -0.00079585047 0.00035965766)
(111.82541 -0.00095497425 0.00025485356)
(113.15948 -0.0010355302 0.00018938226)
(118.84646 -0.00040627875 0.00025902411)
(118.84644 -9.2970593e-05 0.00039538601)
(113.1553 -0.0008946724 0.00021025601)
(111.82006 -0.00084597065 0.0002570424)
(109.23895 -0.00072008559 0.00034628692)
(101.73194 -0.00061809666 0.00042543939)
(101.71609 -0.00057481492 0.00045641376)
(109.23141 -0.00064565322 0.00039070423)
(111.81554 -0.00073167268 0.00031786375)
(113.15172 -0.00074356365 0.00028663815)
(118.84676 0.0002052898 0.00053850156)
(118.84735 0.00044356869 0.00062810406)
(113.14959 -0.00053560899 0.00025946814)
(111.81248 -0.00052911776 0.00027449576)
(109.22582 -0.00045180728 0.00033469761)
(101.70201 -0.00041305833 0.00038874315)
(101.68824 -0.0004029311 0.00033282461)
(109.21871 -0.00042691268 0.00030980259)
(111.80799 -0.00036759521 0.0003278305)
(113.146 -0.00026095358 0.00038393376)
(118.84774 0.00078543748 0.00086440102)
(118.84663 -0.0003283167 0.001167312)
(113.14937 6.3239823e-05 3.1962839e-05)
(111.81231 9.243234e-05 -7.5017636e-05)
(109.22606 0.00010360737 -0.00012370867)
(101.70399 0.00011128644 -0.00016859048)
(101.71704 0.0001878803 -0.00030947427)
(109.23192 0.00022262009 -0.00038161415)
(111.81587 0.00026734869 -0.00046328969)
(113.15191 0.0002829357 -0.00046732324)
(118.84592 -7.4496188e-05 0.00055069498)
(118.8454 3.6929368e-05 0.00028612158)
(113.15453 0.00031938934 -0.00060459389)
(111.81923 0.00029135039 -0.00057532292)
(109.23804 0.00023319787 -0.00046326847)
(101.73101 0.00018848148 -0.00036795106)
(101.74813 0.00016422062 -0.00040904222)
(109.24599 0.00022378966 -0.00053651641)
(111.82426 0.00030282975 -0.00069297229)
(113.15836 0.00035131461 -0.00076469989)
(118.84518 0.00016737466 -5.1278193e-05)
(118.84537 0.00029354257 -0.00039524542)
(113.16315 0.00035907579 -0.0009159779)
(111.83002 0.00029018432 -0.0008065871)
(109.25489 0.00019258364 -0.00061222378)
(101.76579 0.0001220112 -0.0004562135)
(101.78595 7.2494839e-05 -0.00050933643)
(109.26525 0.00015471603 -0.00069531955)
(111.83717 0.00027176828 -0.00092934877)
(113.16895 0.00036182825 -0.0010788306)
(118.84597 0.00042689769 -0.00077388975)
(118.84711 0.00056011333 -0.0011669149)
(113.17588 0.0003677339 -0.0012492498)
(111.8452 0.00025716359 -0.001059018)
(109.27666 0.00011979215 -0.00078478527)
(101.80659 2.2152546e-05 -0.00056732967)
(101.82979 -2.0126954e-05 -0.0006176621)
(109.28961 9.5129797e-05 -0.00086449229)
(111.8547 0.0002538808 -0.0011801217)
(113.18386 0.00038517728 -0.0014139585)
(118.84877 0.00069809717 -0.0015661045)
(118.85103 0.00083766261 -0.0019806142)
(113.19309 0.00041877982 -0.00158103)
(111.86519 0.00026955076 -0.0013000723)
(109.30364 9.2430003e-05 -0.00094010758)
(101.85336 -4.0072452e-05 -0.00065716321)
(101.87933 -0.00013613551 -0.00072534026)
(109.31924 1.7007581e-05 -0.001039294)
(111.87721 0.00021988156 -0.0014425586)
(113.20348 0.00039327049 -0.0017696098)
(118.85387 0.0009521502 -0.0024023616)
(118.85736 0.0010620957 -0.002817829)
(113.21519 0.00039159294 -0.0019439839)
(111.89032 0.00019814551 -0.0015686736)
(109.33597 -2.6892738e-05 -0.0011218113)
(101.90558 -0.00019855444 -0.00077910435)
(101.93389 -0.00026860432 -0.00083227458)
(109.35417 -8.7224766e-05 -0.001210348)
(111.90497 0.00015633493 -0.001701836)
(113.22812 0.00036920494 -0.0021245634)
(118.86145 0.0011369171 -0.0032044002)
(118.86616 0.0011539397 -0.0035441912)
(113.24232 0.00031703266 -0.002292492)
(111.92064 8.8107231e-05 -0.0018272234)
(109.37341 -0.00017000637 -0.0012927546)
(101.96227 -0.00035341358 -0.00088222593)
(101.99247 -0.00043908258 -0.00092337064)
(109.39392 -0.00026388929 -0.0013626486)
(111.93768 1.0094549e-07 -0.0019345892)
(113.25753 0.00023763562 -0.0024383165)
(118.87144 0.0010910853 -0.0038236818)
(118.87728 0.0009138358 -0.0040382443)
(113.27372 0.0001311977 -0.0025506333)
(111.95536 -0.00010128904 -0.0020146356)
(109.41492 -0.00035823324 -0.001411763)
(102.02183 -0.00051562376 -0.00094970092)
(102.05202 -0.00066050465 -0.00099527244)
(109.43646 -0.00051808788 -0.0014577921)
(111.97382 -0.00027437756 -0.0020751566)
(113.29042 -5.5890689e-05 -0.0026309398)
(118.88368 0.00060709453 -0.0042002861)
(118.89083 0.00018087179 -0.004286253)
(113.30736 -0.00025868658 -0.002604296)
(111.99205 -0.00043616944 -0.0020445054)
(109.4574 -0.0006520136 -0.0014351745)
(102.07995 -0.00078682028 -0.00099146567)
(102.10646 -0.00096728121 -0.0009740663)
(109.47713 -0.00086207616 -0.0013649191)
(112.00963 -0.00069580802 -0.0019250556)
(113.32361 -0.00058763376 -0.0024583094)
(118.89891 -0.00044763864 -0.0043227793)
(118.90854 -0.0011715622 -0.0043258781)
(113.33829 -0.0011029223 -0.002150669)
(112.02475 -0.0011216417 -0.0016967632)
(109.49348 -0.0012037666 -0.001245173)
(102.1272 -0.0012138243 -0.00094439337)
(102.14166 -0.0013984578 -0.00083865186)
(109.50447 -0.001585275 -0.001003335)
(112.03587 -0.0016583453 -0.001271615)
(113.34963 -0.0017557144 -0.0015779108)
(118.92075 -0.0017906154 -0.0044209246)
(118.93751 -0.0021764411 -0.0049157896)
(113.35569 -0.0023411666 -0.0006307949)
(112.03987 -0.0020854139 -0.00054378879)
(109.50658 -0.0017274421 -0.00054466905)
(102.14481 -0.0011267542 -0.00048879343)
(102.13716 0.0003995516 0.0003198057)
(109.49737 -0.00092642805 0.00030890825)
(112.03451 -0.0018274511 0.00057743322)
(113.35432 -0.0024164333 0.00068613027)
(118.96174 -0.0019938263 -0.006696772)
(118.99822 0.00018183884 -0.011684339)
(113.34609 -0.0010005003 0.0019009742)
(112.01935 -9.2590498e-05 0.0017993274)
(109.47734 0.0014114051 0.0013867905)
(102.12079 0.0034548361 0.0014862253)
(102.11374 0.008297396 0.0029633268)
(109.45866 0.0057639371 0.0024544806)
(112.00438 0.0037938432 0.002579346)
(113.33991 0.0026558158 0.0021351533)
(119.0541 0.0056296366 -0.022519159)
(119.13923 0.014889807 -0.041610284)
(113.35978 0.0091798061 -0.00041529385)
(112.01484 0.010367413 0.0017020824)
(109.46964 0.012346517 0.002868743)
(102.14513 0.0142869 0.0040751379)
(102.26429 0.019609748 0.0043785828)
(109.5571 0.019839736 0.0013018754)
(112.09404 0.018777101 -0.0023422797)
(113.44441 0.018039914 -0.0076215521)
(119.26433 0.029075972 -0.071691171)
(119.44114 0.047637871 -0.11317439)
(113.64343 0.027549529 -0.021832844)
(112.29628 0.026591371 -0.011703248)
(109.77787 0.025525759 -0.0038934093)
(102.52167 0.02308658 0.0025376053)
(102.98641 0.024942533 -0.001694156)
(110.20281 0.029356118 -0.013086401)
(112.68934 0.033202731 -0.027121576)
(114.01841 0.036798169 -0.043730715)
(119.69492 0.06816778 -0.16288851)
(120.04857 0.092709389 -0.2223472)
(114.60899 0.049419061 -0.071381035)
(113.31603 0.042609481 -0.046460757)
(110.87817 0.035103173 -0.025036568)
(103.72101 0.024903504 -0.0081582199)
(104.67462 0.039017524 -0.0081639866)
(111.77235 0.065757137 -0.033767533)
(114.15689 0.081183583 -0.066442044)
(115.39518 0.095377972 -0.10793543)
(120.44252 0.1633942 -0.34126427)
(121.18277 0.33379932 -0.59408404)
(116.74885 0.20057932 -0.18077702)
(115.59039 0.17044979 -0.1028767)
(113.2434 0.13577399 -0.043323447)
(106.00016 0.065414894 -0.0037627532)
(108.77694 0.13610542 -0.047546384)
(116.32136 0.18827773 0.028209839)
(118.54483 0.23813951 -0.10113603)
(119.52064 0.28297464 -0.20512236)
(122.72724 0.55015301 -1.0057681)
(124.00581 1.1282112 -2.4962728)
(122.19685 0.38042409 -2.4425998)
(121.47851 0.27152988 -2.4211874)
(119.62297 0.13888844 -2.3095166)
(112.78547 0.47708276 -2.9455459)
(110.34288 4.1244106 -7.1457034)
(116.67416 4.2608277 -7.6535832)
(118.61287 4.1575481 -7.6197805)
(119.53005 3.9930016 -7.4503898)
(122.85679 2.7680763 -5.628373)
(122.58846 3.0669478 -5.6010069)
(119.38941 3.3169402 -5.4976471)
(118.48615 3.3213774 -5.442219)
(116.46515 3.2457789 -5.2236229)
(109.61228 3.2966456 -5.3934089)
(112.27764 3.6320351 -8.221359)
(118.65859 3.7786763 -8.2352754)
(120.41441 4.0187475 -8.2959644)
(121.13843 4.1518309 -8.2416257)
(122.83707 4.1313985 -7.0190794)
(122.16282 1.455701 -6.6587774)
(118.79961 2.3614115 -7.5671129)
(117.77196 2.5210044 -7.6701184)
(115.69754 2.6622347 -7.6010751)
(109.0556 2.7957286 -7.3736354)
(111.43569 0.62141896 -8.4079857)
(117.5628 0.77397141 -8.7303901)
(119.38541 0.81257721 -8.5918346)
(120.22551 0.81761789 -8.3005345)
(122.88508 0.79647712 -6.2658068)
(124.06462 0.36158465 -2.6338002)
(122.75764 0.53846407 -2.723207)
(122.11489 0.56454737 -2.7177422)
(120.37733 0.57759724 -2.6265436)
(113.73289 0.70246299 -3.2739903)
(109.95537 0.18705831 -0.17392417)
(117.26475 0.13207744 -0.034096251)
(119.35746 0.12153647 -0.1486336)
(120.24776 0.11423561 -0.23835692)
(122.72398 0.1251289 -0.92613687)
(121.0821 0.05112353 -0.55359647)
(117.33307 -0.034394145 -0.22686325)
(116.22304 -0.047452967 -0.15463021)
(113.96644 -0.054341523 -0.08794391)
(106.89274 -0.050797748 -0.04794663)
(105.44004 -0.099556083 -0.036685466)
(112.38813 -0.093284506 -0.069225813)
(114.71007 -0.081348307 -0.10236562)
(115.92114 -0.065924904 -0.14171123)
(120.29917 0.020401576 -0.3256481)
(119.92071 0.011219818 -0.21942532)
(115.15765 -0.066981494 -0.098012218)
(113.88249 -0.081203125 -0.074245214)
(111.49147 -0.094517814 -0.053228475)
(104.45206 -0.10453906 -0.035269692)
(103.72222 -0.090789453 -0.027619608)
(110.84526 -0.079839158 -0.03853423)
(113.29318 -0.067247554 -0.052163376)
(114.60717 -0.055556876 -0.067791511)
(119.57851 0.0085214546 -0.16255908)
(119.33277 0.0048614926 -0.11130441)
(114.26695 -0.039558789 -0.040008254)
(112.93546 -0.047604766 -0.031103131)
(110.45422 -0.057860674 -0.024235042)
(103.28155 -0.070339971 -0.019243749)
(103.0468 -0.046433026 -0.011495239)
(110.25708 -0.03491633 -0.01266832)
(112.75504 -0.027827283 -0.014828748)
(114.08837 -0.023419668 -0.018899191)
(119.16097 0.0013993819 -0.068093483)
(119.03967 -0.000784179 -0.037029207)
(114.01191 -0.010650075 -0.0055591068)
(112.68558 -0.012226276 -0.0043444126)
(110.18224 -0.015870343 -0.0046536874)
(102.94409 -0.023097837 -0.0051936595)
(102.91968 -0.007210713 -0.0012278547)
(110.17419 -0.0039683797 -0.00018547275)
(112.67595 -0.0029380358 0.00098480018)
(113.99213 -0.0030005809 0.0010852656)
(118.95781 -0.0018326895 -0.017916763)
(118.90454 -0.0022630091 -0.0080452258)
(113.99436 -0.00017061209 0.0027139062)
(112.68741 0.00053121019 0.002334379)
(110.19086 0.001092644 0.0013562095)
(102.92841 0.00072649054 0.00052384069)
(102.94199 0.002253658 0.00078195101)
(110.20625 0.0014016736 0.0011679361)
(112.69761 0.00073522161 0.0016459709)
(113.99785 0.00011983565 0.0018346593)
(118.87017 -0.0021723426 -0.0045380303)
(118.84756 -0.0018938674 -0.003861441)
(113.99596 -0.00020165625 0.00023400154)
(112.69953 0.00022679969 0.00036890166)
(110.21198 0.0007879808 0.0003795316)
(102.94705 0.0015748072 0.00038054519)
(102.94154 0.00061378391 -0.00011988253)
(110.20746 9.9063898e-05 -0.00036756337)
(112.69347 -0.0002160777 -0.00072595713)
(113.98822 -0.00045332741 -0.0011199775)
(118.83197 -0.0014902341 -0.0041005286)
(118.82056 -0.0010170588 -0.0044565914)
(113.97649 -0.00048225102 -0.001979755)
(112.68181 -0.0003865992 -0.001417497)
(110.19579 -0.00028209843 -0.0008476936)
(102.92645 -6.1913362e-05 -0.0004585391)
(102.90538 -0.00041079543 -0.00067141449)
(110.17922 -0.00041818016 -0.0011435325)
(112.66668 -0.00038569521 -0.0018229496)
(113.96207 -0.00038942023 -0.0024749816)
(118.81148 -0.00058063691 -0.0047090262)
(118.80375 -0.00021912094 -0.0048231589)
(113.94656 -0.00025474387 -0.0026848443)
(112.64983 -0.00029824286 -0.0019962099)
(110.16029 -0.00039313972 -0.0012675432)
(102.88001 -0.00048821865 -0.00076058586)
(102.85278 -0.00052161296 -0.00083316895)
(110.13991 -0.00037363869 -0.0013566582)
(112.63223 -0.00024142879 -0.0020903471)
(113.93048 -0.0001662567 -0.0027760498)
(118.79679 2.8450005e-05 -0.0048499184)
(118.79046 0.00019880632 -0.0047428807)
(113.91475 -0.00010692523 -0.0027654291)
(112.61476 -0.00020136289 -0.002107832)
(110.11952 -0.00035668787 -0.0013969495)
(102.82422 -0.00053835625 -0.00088589688)
(102.79583 -0.00048635668 -0.00086143173)
(110.09926 -0.00029404944 -0.001340394)
(112.59782 -0.00013275157 -0.0020145758)
(113.89948 -3.1675321e-05 -0.0026325629)
(118.7846 0.00032093816 -0.0044983532)
(118.77925 0.00039175188 -0.0041706779)
(113.88519 2.5591499e-05 -0.0024765683)
(112.58175 -7.5951861e-05 -0.0019100681)
(110.07992 -0.00023480303 -0.0012830419)
(102.76737 -0.00042828657 -0.00083376894)
(102.74002 -0.00037594923 -0.0008023157)
(110.06139 -0.00018975471 -0.0012153954)
(112.56674 -3.8572385e-05 -0.0017880342)
(113.8718 5.8902899e-05 -0.002297254)
(118.77442 0.00041313015 -0.0037760723)
(118.7702 0.00040235344 -0.0033292169)
(113.85972 7.9468429e-05 -0.0021019535)
(112.55299 -1.0885071e-05 -0.0016519605)
(110.04429 -0.00015064994 -0.0011349472)
(102.71334 -0.00032316319 -0.00076148729)
(102.68813 -0.00025087785 -0.00069474348)
(110.02823 -9.7176041e-05 -0.0010255479)
(112.54046 2.7568207e-05 -0.0014888096)
(113.8487 0.0001078297 -0.0018814698)
(118.76659 0.00038274858 -0.0028536509)
(118.76361 0.00035310281 -0.0023951349)
(113.83901 0.00011641997 -0.0017139433)
(112.52922 4.3915305e-05 -0.001380592)
(110.01365 -6.9246261e-05 -0.00097155182)
(102.6638 -0.00020853629 -0.0006727074)
(102.64107 -0.00015374185 -0.000628074)
(110.00012 -3.1831565e-05 -0.00088710736)
(112.51915 6.7383946e-05 -0.0012445162)
(113.83032 0.00013004969 -0.0015241874)
(118.76125 0.00031745659 -0.0019484443)
(118.75945 0.00027749792 -0.0015105786)
(113.82293 0.00014212082 -0.0013373775)
(112.51037 8.9645397e-05 -0.0011105432)
(109.98817 3.688454e-06 -0.00080310691)
(102.61957 -0.0001027581 -0.00058114559)
(102.59967 -5.0527276e-05 -0.00053193376)
(109.97719 4.1678782e-05 -0.0007199927)
(112.50268 0.00011473966 -0.00098107474)
(113.81647 0.00015657815 -0.0011580042)
(118.75819 0.00023586162 -0.0010767106)
(118.75746 0.00019627431 -0.00067228762)
(113.81116 0.00016967467 -0.00098267815)
(112.49611 0.00013785442 -0.00085304255)
(109.96759 7.7249087e-05 -0.00063790693)
(102.58073 -1.7423695e-06 -0.00048444502)
(102.56363 3.704483e-05 -0.00043584219)
(109.95899 0.00010374836 -0.00055595339)
(112.4906 0.00015261387 -0.00072789709)
(113.80672 0.00017482118 -0.00081474581)
(118.75719 0.00015444706 -0.00030003028)
(118.75735 0.00011672161 4.5210264e-05)
(113.80329 0.00018888111 -0.00062882502)
(112.48607 0.00017886484 -0.00058616649)
(109.95173 0.00014434903 -0.00045914454)
(102.54767 9.5164533e-05 -0.00037995672)
(102.53415 0.00012290368 -0.00030727225)
(109.9458 0.00015708457 -0.00035659447)
(112.48283 0.00018078815 -0.00045344555)
(113.80089 0.00018403842 -0.00047148861)
(118.75782 7.7996675e-05 0.00031361445)
(118.75852 -5.6435542e-05 0.00093901133)
(113.79874 0.00012509642 5.2336828e-05)
(112.47979 0.00015121824 -4.8464821e-05)
(109.94068 0.0001645534 -9.5744723e-05)
(102.5224 0.00016758943 -0.0001498426)
(102.65376 0.00063112975 0.0004746302)
(110.05928 0.00058379995 0.00048867663)
(112.59185 0.00051438914 0.00050456905)
(113.90966 0.00039526029 0.00055617804)
(118.77133 -0.00064854588 0.0010814514)
(118.77063 -0.00010626125 0.00067324375)
(113.91195 0.00071611792 0.00020044489)
(112.5949 0.00072175066 0.00021667703)
(110.06455 0.00066118528 0.00027807212)
(102.66497 0.00060454038 0.00030753015)
(102.67878 0.00061335633 0.00022125264)
(110.07036 0.00069445401 0.00019092672)
(112.59823 0.0007835448 0.00012067666)
(113.91428 0.00079996659 9.5887371e-05)
(118.77018 9.6555888e-05 0.00051964293)
(118.77004 0.0003637234 0.00031570323)
(113.91782 0.00090470702 -5.7372869e-05)
(112.60268 0.00084984394 -1.5023012e-05)
(110.07757 0.0007179026 7.4369249e-05)
(102.69378 0.00060195824 0.00011488264)
(102.7113 0.00061641463 6.2260841e-05)
(110.08614 0.0007634567 1.082449e-05)
(112.60831 0.00093029589 -9.7860842e-05)
(113.92219 0.0010178529 -0.00016078662)
(118.77028 0.00064854064 0.00011386574)
(118.77101 0.00095377345 -8.0261426e-05)
(113.92766 0.0011479744 -0.0002447011)
(112.61487 0.0010260954 -0.00015815423)
(110.09575 0.00082406654 -2.6934743e-05)
(102.72938 0.00064684162 3.8970068e-05)
(102.74988 0.00069358258 4.3064498e-05)
(110.10679 0.00090214062 -4.1004722e-05)
(112.62272 0.0011394662 -0.0001972954)