/*--------------------------------*- C++ -*----------------------------------*\
  =========                 |
  \\      /  F ield         | OpenFOAM: The Open Source CFD Toolbox
   \\    /   O peration     | Website:  https://openfoam.org
    \\  /    A nd           | Version:  7
     \\/     M anipulation  |
\*---------------------------------------------------------------------------*/
FoamFile
{
    version     2.0;
    format      ascii;
    class       volScalarField;
    location    "160";
    object      alphat;
}
// * * * * * * * * * * * * * * * * * * * * * * * * * * * * * * * * * * * * * //

dimensions      [1 -1 -1 0 0 0 0];

internalField   nonuniform List<scalar> 
25201
(
8.0431718
8.0992066
8.0431917
8.099254
8.2805257
8.1484473
8.0646202
8.0900966
8.1700405
8.3058022
8.1699723
8.148395
8.2183805
8.1366633
8.0279181
8.3078125
8.2946564
8.2751592
8.2869021
8.1447036
8.2510694
8.2225542
8.2661077
8.209513
8.2275421
8.1124633
8.145742
8.2451191
8.1952964
8.0861227
8.1353672
8.1949278
7.8619038
7.9451058
8.0435615
8.0225756
8.1574278
8.093274
7.9241901
7.8379764
8.0398288
8.0097598
8.0568318
7.8159325
7.7928783
7.800533
7.9983347
8.2149452
8.234941
8.2182997
8.2418768
8.2696045
8.3246884
8.3525371
8.344719
8.3309928
8.314987
8.3054667
8.3292
8.2181591
8.2202856
8.2955174
8.3142
8.3572889
8.3890356
8.3634797
8.3796887
8.3202737
8.2641819
8.0943755
8.0411527
8.0837711
8.2602253
8.2922501
8.2509578
7.9072966
7.9563878
8.0372324
8.085511
8.1428856
8.2195731
8.2608237
8.2179485
8.2094621
8.1559789
8.192604
8.1381781
8.1312833
8.0596387
8.092739
8.0110597
7.9496812
7.9669243
8.0054064
8.0166101
8.0717963
8.0966238
8.0440885
7.9322999
8.0080672
7.9847186
7.9157035
7.9049848
7.9783115
7.9557117
7.9001344
7.7462949
7.838335
7.8821228
7.9148893
7.8908205
7.8706708
7.7759238
7.7920335
7.6252393
7.7463868
7.7230339
7.6101382
7.5983649
7.7614613
7.8592408
7.7191019
7.7005031
7.587563
7.3995682
7.5528284
7.6557144
7.8846466
8.0967368
7.9297828
7.8439839
7.7993652
7.8045656
7.8453132
7.9345227
8.0244843
8.1411272
8.2212055
8.2966652
8.315889
8.331223
8.3143886
8.2185673
8.2214975
8.3069607
8.3296109
8.3526826
8.3447676
8.2418357
8.3635174
8.389061
8.357233
8.2643847
8.3203014
8.379743
8.3576567
8.2695962
8.2351665
8.2620033
8.2928188
8.0417998
8.0852651
8.1940753
8.2229212
8.2637705
8.1464722
8.0892661
8.0388619
7.9523327
8.0260508
8.1573714
8.2107586
8.1066823
8.1666318
8.2086345
8.1306927
8.1058471
8.1035172
7.897808
7.8943443
7.6851262
7.7665334
7.822321
7.7246881
7.6894344
7.5902245
7.6841022
7.7032738
7.5837221
7.3965854
7.5555104
7.659818
7.8989163
8.1056967
7.95207
8.0152471
8.0652319
7.6042925
7.7242224
7.8646959
7.9839013
7.9597995
7.9045612
7.971524
8.0114571
7.9108099
7.7674845
7.750441
7.8418961
7.7035032
7.5913437
7.4024578
7.5548309
7.5701037
7.5757875
7.6799724
8.0992625
8.0431361
8.2121358
8.2455147
8.1953361
8.0568784
7.9454643
8.1356552
8.0863632
8.0399535
8.0097523
7.7928065
7.8159034
7.8617991
7.8380401
7.9244214
8.0934555
8.1578015
8.1954314
8.0439306
8.0229517
8.1318763
8.2232073
8.2951609
0.0014975476
0.008741867
0.021378658
0.036450844
0.46177497
0.46895365
0.03762828
0.022031603
0.0090046126
0.0015389187
0.0015600963
0.0092270721
0.022576944
0.038532247
0.47763873
0.4827371
0.038813846
0.022754786
0.0093050864
0.0015695564
0.0015724377
0.0093277151
0.022800523
0.038868211
0.48584041
0.48769823
0.03884301
0.022795538
0.0093295302
0.0015733865
0.0015742646
0.0093355906
0.022806036
0.038849116
0.48894036
0.48989331
0.038865648
0.02281893
0.0093421215
0.0015750571
0.0015762068
0.0093551229
0.022850382
0.038915167
0.49072048
0.49152514
0.038961485
0.022878219
0.0093668216
0.0015772128
0.0015785183
0.0093832349
0.022919101
0.039029081
0.4923381
0.49319357
0.039085853
0.022952829
0.0093972369
0.0015796345
0.0015810447
0.0094156702
0.022998851
0.039162476
0.49409261
0.49504126
0.039226361
0.023036823
0.0094314067
0.001582259
0.0015837677
0.0094514231
0.023086579
0.039309068
0.49603083
0.49707555
0.039379808
0.023128747
0.0094689067
0.0015850947
0.0015867185
0.00949064
0.023182615
0.039469218
0.49817311
0.49933839
0.039548042
0.023229532
0.0095100081
0.0015881699
0.0015899013
0.0095333031
0.023287212
0.03964382
0.50055605
0.50182961
0.039729811
0.023338192
0.0095542374
0.0015914585
0.0015932699
0.0095785461
0.023398181
0.039829265
0.50314666
0.50450705
0.039919599
0.02345186
0.0096006244
0.0015949115
0.0015968016
0.0096260673
0.023514637
0.04002375
0.50592388
0.50738814
0.040118179
0.023570669
0.0096490834
0.0015985062
0.0016004491
0.009675348
0.023635563
0.040226016
0.50889421
0.51043977
0.040323086
0.023693086
0.0096989378
0.0016021878
0.0016041519
0.009725565
0.023759031
0.040432932
0.51201153
0.51360313
0.040531444
0.023817162
0.0097492798
0.0016058958
0.0016078429
0.0097755759
0.02388236
0.040640015
0.51520959
0.51682369
0.040741589
0.023941743
0.0097993583
0.001609553
0.001611282
0.0098231639
0.024000056
0.0408384
0.51842416
0.51992514
0.040930379
0.024052285
0.0098436452
0.0016127061
0.58218631
0.036990346
0.021939995
0.0090573444
0.0015389952
0.0015377513
0.0090393196
0.021894586
0.036911563
0.58045368
0.57856942
0.03681871
0.02183877
0.0090164938
0.0015361611
0.0015345439
0.0089932165
0.021780917
0.036722144
0.57666697
0.57478365
0.036622332
0.021720575
0.008968544
0.0015327495
0.0015310989
0.008945541
0.021663859
0.03652797
0.57295509
0.57115459
0.036429978
0.021604485
0.0089211253
0.0015293139
0.0015276825
0.0088984563
0.021548806
0.036337634
0.5693985
0.56768575
0.036242269
0.021490942
0.0088746271
0.0015259314
0.0015243491
0.0088527959
0.021437366
0.036153473
0.56603343
0.56442552
0.0360626
0.02138217
0.0088300188
0.0015226648
0.0015211454
0.0088090013
0.021330551
0.035976991
0.56286229
0.56134154
0.035888724
0.021276914
0.0087868869
0.0015195188
0.0015180688
0.0087668087
0.021227592
0.035807005
0.55988844
0.55848178
0.035723715
0.021176922
0.0087458941
0.0015165246
0.0015151651
0.0087271054
0.021130666
0.035646922
0.55715362
0.55593652
0.03557417
0.021085944
0.0087084335
0.0015137603
0.0015125264
0.0086914357
0.021043859
0.035503875
0.55475314
0.55362338
0.035434044
0.021001274
0.0086738096
0.0015112017
0.0015100466
0.0086580841
0.020962209
0.035368699
0.55252018
0.5514728
0.035302439
0.020921918
0.0086414744
0.0015087814
0.0015077035
0.0086273215
0.02088691
0.03524422
0.55049298
0.54955229
0.035185832
0.020851196
0.0086125189
0.0015065249
0.0015055499
0.0086006475
0.020822155
0.035138327
0.54864992
0.54772357
0.035096571
0.020795238
0.0085890372
0.0015045108
0.001503715
0.0085818649
0.020779626
0.035075351
0.54669
0.54544346
0.035076509
0.020773638
0.0085771173
0.0015029169
0.0015019151
0.0085742633
0.02077397
0.035092014
0.54359139
0.54056018
0.035050223
0.020735776
0.0085538621
0.0014990304
0.0014904757
0.0084842754
0.020575588
0.034800327
0.53550242
0.52795089
0.034138365
0.020177439
0.0083183782
0.001471365
0.0014420593
0.0080544273
0.019549931
0.033077613
0.51906941
0.49167323
0.02996188
0.017544401
0.0072035064
0.001381146
0.0014407913
0.0080743136
0.019598743
0.033146228
0.52015163
0.52886108
0.034176672
0.0202021
0.0083288685
0.0014704705
0.0014901745
0.0084940793
0.020598909
0.034836733
0.53615235
0.54098184
0.035070194
0.02074863
0.0085596819
0.0014987737
0.0015017767
0.0085790034
0.020785424
0.035110225
0.54391611
0.54568206
0.03508324
0.020778107
0.0085794107
0.0015027595
0.0015036292
0.0085844529
0.020786298
0.035086428
0.54690415
0.54786909
0.035099954
0.020797001
0.0085899224
0.0015043786
0.0015054301
0.0086013696
0.020824461
0.035142639
0.5487523
0.54961865
0.035182794
0.020848957
0.0086117553
0.0015063497
0.001507544
0.0086267376
0.020886086
0.035243566
0.55050737
0.55144784
0.035294458
0.020916705
0.0086395227
0.0015085662
0.0015098555
0.0086564707
0.020958685
0.035363435
0.55244599
0.55351146
0.035421781
0.020993834
0.0086711204
0.0015109768
0.0015123665
0.0086898319
0.021040092
0.035497813
0.55463897
0.55583259
0.035563035
0.021079433
0.0087062073
0.0015135915
0.0015150823
0.0087265232
0.021129533
0.035645342
0.55709248
0.55841987
0.035717086
0.021172857
0.0087445408
0.0015164132
0.0015180072
0.0087664197
0.021226771
0.035805682
0.5598183
0.56128453
0.035883773
0.021273885
0.0087859595
0.0015194374
0.0015211154
0.0088091001
0.0213309
0.035977497
0.56281004
0.56439078
0.036061145
0.021381063
0.008829788
0.0015226177
0.0015243381
0.0088534001
0.021439062
0.03615638
0.56602954
0.56770825
0.036241636
0.021490396
0.0088746515
0.0015258942
0.0015276897
0.0088993213
0.021551162
0.036341675
0.56944612
0.57123683
0.036430655
0.0216047
0.0089214433
0.0015293038
0.0015311404
0.0089466923
0.021666876
0.036533101
0.57307369
0.57495294
0.036624672
0.021721695
0.008969235
0.0015327862
0.0015346411
0.0089945279
0.021783967
0.036727213
0.57686928
0.57881391
0.036820474
0.021840197
0.0090177302
0.0015363147
0.0015381551
0.00904352
0.021903131
0.036923174
0.58074674
0.58264801
0.037022013
0.021961035
0.0090663654
0.0015397246
0.0015409452
0.0090837795
0.022004755
0.03709717
0.58453702
0.0016006661
0.0097067967
0.023672625
0.040216038
0.52095108
0.5192679
0.04012581
0.023621832
0.0096870813
0.0015993167
0.0015976075
0.0096624704
0.023559914
0.040020227
0.51754205
0.51581435
0.039911617
0.023495032
0.0096360648
0.0015956737
0.0015938477
0.0096109312
0.023432896
0.03980744
0.51412817
0.51246045
0.039699286
0.02336809
0.0095844402
0.0015918619
0.0015900386
0.0095597002
0.023307027
0.039596868
0.51083435
0.50922553
0.039490364
0.023243111
0.0095334961
0.0015880735
0.0015862753
0.0095090503
0.023182778
0.039389202
0.50766313
0.50617361
0.039289019
0.02312229
0.0094840931
0.0015843896
0.0015826662
0.0094605284
0.023063969
0.039190978
0.50469818
0.50325774
0.03909073
0.023003685
0.0094357963
0.0015808206
0.0015791594
0.009413078
0.022947628
0.038996841
0.50186977
0.50051339
0.038900347
0.022889594
0.0093892679
0.0015773831
0.0015758053
0.0093677462
0.022836536
0.038811618
0.49923751
0.49801279
0.038722298
0.022782644
0.0093455502
0.0015741357
0.0015726676
0.0093256116
0.022733424
0.038639888
0.49685188
0.49573338
0.038556386
0.022683085
0.0093049
0.0015711006
0.001569743
0.0092866608
0.02263804
0.038480971
0.49469172
0.49368418
0.038404271
0.022591824
0.00926765
0.0015682852
0.0015670387
0.0092512148
0.02255115
0.038336076
0.49275388
0.49185432
0.038266631
0.022509321
0.009234015
0.0015656873
0.001564548
0.0092195317
0.02247341
0.038206392
0.4910315
0.49023613
0.038146723
0.022437247
0.0092045792
0.0015633095
0.0015622917
0.0091927117
0.022408003
0.038098285
0.48947332
0.48868233
0.038057439
0.022381761
0.0091813931
0.0015612116
0.0015604154
0.0091751949
0.022368666
0.038040732
0.48779037
0.48667608
0.038050824
0.022367387
0.0091722126
0.0015596416
0.0015586661
0.0091717196
0.022374205
0.038079071
0.48498869
0.4821343
0.038036338
0.022334934
0.0091510371
0.0015554598
0.0015456692
0.0090783188
0.022163886
0.037762754
0.47753681
0.47097675
0.037024651
0.021731685
0.0089032077
0.0015235029
0.0014875513
0.0086526935
0.021110299
0.035917422
0.46396328
0.46323368
0.036503508
0.021433485
0.0087781269
0.0014933756
0.0015389781
0.008990346
0.021993632
0.037574068
0.46855919
0.47764297
0.038533637
0.022578423
0.0092280515
0.0015598481
0.0015696288
0.0093064612
0.022757766
0.03881749
0.48259628
0.48570751
0.038857369
0.022794015
0.0093254412
0.0015721695
0.0015733364
0.0093299237
0.022796694
0.038843719
0.48756072
0.48881352
0.038835272
0.022797453
0.0093323696
0.0015739562
0.0015749893
0.0093419999
0.022818932
0.038864632
0.4897724
0.4905942
0.038900477
0.022841378
0.0093517456
0.0015759116
0.0015771612
0.0093667316
0.02287838
0.038960756
0.49139745
0.49220782
0.03901503
0.022910345
0.0093798955
0.0015782348
0.0015795799
0.0093969727
0.022952659
0.039084771
0.49305357
0.49394342
0.039147226
0.022989415
0.0094120792
0.0015807553
0.0015822005
0.0094309744
0.023036224
0.039224623
0.49489069
0.49587482
0.039292908
0.023076722
0.0094477052
0.0015834793
0.0015850442
0.00946847
0.023128077
0.039377899
0.49692152
0.49801195
0.039453619
0.023173117
0.0094870737
0.0015864463
0.0015881323
0.0095096355
0.023228831
0.039545818
0.49917691
0.50039405
0.039629895
0.023278649
0.0095301055
0.0015896569
0.0015914465
0.0095541086
0.023337831
0.039727803
0.50167928
0.50301235
0.039817676
0.023391204
0.009576045
0.0015930762
0.0015949674
0.0096015224
0.023454196
0.039922281
0.50440703
0.50583885
0.040017722
0.023510637
0.0096246245
0.0015966788
0.0015986261
0.0096507414
0.0235751
0.040124717
0.50731899
0.50882293
0.040222482
0.023632933
0.0096744404
0.0016003912
0.0016023901
0.0097011266
0.023698777
0.040331839
0.51036624
0.5119461
0.040430761
0.023757468
0.009725252
0.001604196
0.0016062363
0.0097526353
0.023825283
0.040543759
0.51357792
0.51524364
0.040644359
0.023884717
0.0097769254
0.0016080371
0.0016100323
0.0098040474
0.02395217
0.040756957
0.51694992
0.51864999
0.040860259
0.024012351
0.0098280493
0.0016117384
0.0016134281
0.0098515711
0.02407046
0.040957424
0.5203253
0.52188809
0.041048448
0.02412164
0.0098714485
0.0016147823
0.0016005913
0.0097057979
0.023669917
0.04021116
0.52090051
0.51928653
0.040125487
0.023621316
0.0096867452
0.0015992659
0.0015975725
0.0096623777
0.023559945
0.040020633
0.51757623
0.5158592
0.039912278
0.023495222
0.0096360496
0.0015956475
0.001593826
0.0096109175
0.023432985
0.039807704
0.51415297
0.5124783
0.039698036
0.023367323
0.0095841364
0.0015918289
0.0015900077
0.0095593988
0.023306331
0.039595758
0.51083685
0.5092345
0.039488621
0.023242031
0.0095330654
0.0015880392
0.0015862591
0.0095089038
0.023182578
0.039389138
0.50767631
0.50615777
0.039284985
0.023120033
0.0094832827
0.0015843433
0.0015826259
0.0094599454
0.023062581
0.03918883
0.50468071
0.50324913
0.039088488
0.023002276
0.0094352231
0.001580782
0.001579135
0.0094127687
0.022946989
0.038995988
0.50186419
0.50052838
0.038900627
0.022889545
0.0093891747
0.0015773727
0.0015758144
0.0093679584
0.022837264
0.038813119
0.49926296
0.49806378
0.038725319
0.022784172
0.0093460631
0.0015741657
0.0015727192
0.0093264058
0.022735599
0.038643804
0.49690458
0.49579938
0.038560976
0.022685589
0.0093058262
0.0015711649
0.0015698231
0.0092877956
0.022640989
0.038486089
0.49475707
0.49377002
0.038411346
0.022595767
0.0092691336
0.0015683882
0.0015671525
0.0092527604
0.022555035
0.03834259
0.49282771
0.49192885
0.03827419
0.022513639
0.0092356926
0.0015658108
0.0015646758
0.0092212053
0.022477552
0.038213249
0.49110381
0.49029454
0.038152381
0.022440637
0.009205982
0.0015634248
0.0015623983
0.0091939744
0.02241101
0.038103119
0.48951593
0.488711
0.038060693
0.022383788
0.0091822851
0.0015612956
0.0015605004
0.0091762297
0.022371207
0.038045003
0.48783526
0.48671514
0.038053428
0.022368989
0.0091729186
0.0015597051
0.0015587246
0.0091726651
0.022376463
0.038082746
0.48503779
0.48220702
0.038039989
0.022337181
0.0091519692
0.0015555048
0.0015455952
0.0090782138
0.022163747
0.037762333
0.47759722
0.47106814
0.037019907
0.021729618
0.0089025308
0.0015233694
0.0014866157
0.008647229
0.021097854
0.035895926
0.46419986
0.52150467
0.033194088
0.019653064
0.0081074122
0.0014369424
0.0014706294
0.0083244288
0.020186341
0.034151196
0.52864109
0.53631018
0.034845159
0.020603974
0.0084962446
0.001490268
0.0014992897
0.0085648309
0.020760953
0.035089388
0.54116127
0.5440678
0.035115874
0.020788349
0.0085803234
0.0015019404
0.0015030894
0.0085832705
0.020788059
0.03509914
0.5458079
0.54700387
0.035088344
0.020786916
0.0085848349
0.0015037001
0.0015046505
0.0085931258
0.020805143
0.035112664
0.54797467
0.5488453
0.035143038
0.02082464
0.008601746
0.0015055004
0.001506657
0.0086156533
0.020858824
0.035198203
0.54971975
0.55062495
0.035247711
0.020888323
0.0086278392
0.0015076465
0.0015088759
0.0086436236
0.020927226
0.035311195
0.55158617
0.55259079
0.035368298
0.020961209
0.0086576261
0.0015099509
0.0015112629
0.0086750171
0.021003948
0.035438004
0.55365293
0.55477269
0.035501987
0.02104207
0.0086907052
0.0015124315
0.0015138321
0.0087095669
0.021088301
0.035577356
0.55596168
0.55721156
0.035647333
0.021130138
0.0087268121
0.0015150991
0.0015165982
0.0087472392
0.0211802
0.035729069
0.55852818
0.55990285
0.03580465
0.021225474
0.0087659071
0.0015179595
0.0015195527
0.0087877271
0.021279005
0.035892309
0.56135625
0.56286019
0.035971388
0.021326717
0.0088075188
0.0015210008
0.001522699
0.0088308856
0.021384233
0.03606598
0.56443006
0.56605236
0.036149418
0.021434522
0.0088517281
0.0015242275
0.0015260032
0.0088759987
0.021494334
0.03624796
0.56773402
0.56946919
0.036335303
0.02154697
0.0088977869
0.0015276095
0.0015294533
0.0089230408
0.02160928
0.036438118
0.57126203
0.57309681
0.036528464
0.021663565
0.0089454464
0.0015310967
0.0015329515
0.0089708704
0.021726347
0.036632156
0.57497168
0.57686535
0.036723446
0.021781051
0.0089933162
0.0015345854
0.0015363982
0.0090186721
0.021843516
0.036825998
0.57877107
0.58063592
0.036918842
0.021898487
0.0090408729
0.001537925
0.0015393911
0.0090609341
0.021946818
0.036997695
0.58244454
0.58418561
0.037080051
0.021993913
0.0090794341
0.0015406771
0.52161192
0.0410278
0.024110204
0.0098671738
0.0016144958
0.0016131288
0.009847827
0.024061203
0.040942079
0.52006733
0.51852023
0.040853422
0.024008273
0.0098261272
0.0016115328
0.0016098487
0.0098021661
0.023947794
0.040749933
0.51686193
0.51518874
0.040643715
0.023884379
0.0097763791
0.001607931
0.0016061157
0.009751539
0.023822314
0.040538385
0.51358248
0.51196931
0.040431724
0.023758367
0.0097253396
0.001604141
0.0016023065
0.0097003693
0.023696368
0.040327033
0.51040771
0.50885663
0.040222097
0.023633279
0.0096744437
0.0016003491
0.0015985548
0.0096500095
0.023572757
0.040120178
0.50737532
0.50591554
0.040020327
0.023512492
0.0096251449
0.001596675
0.0015949652
0.009601715
0.023454396
0.039922426
0.50452422
0.50314913
0.039826762
0.023396589
0.0095778522
0.0015931689
0.0015915463
0.0095555785
0.023341305
0.039733559
0.50184483
0.50056118
0.039641991
0.02328602
0.009532782
0.0015898304
0.0015882948
0.0095117626
0.02323382
0.03955399
0.49935308
0.4981712
0.03946672
0.02318118
0.0094900859
0.001586658
0.0015852233
0.0094706635
0.023133042
0.039385757
0.49707551
0.49601373
0.039305736
0.023084736
0.0094507349
0.0015836987
0.0015823804
0.0094331329
0.023041052
0.039232184
0.49503538
0.49408145
0.039159258
0.022997064
0.0094149938
0.0015809681
0.0015797591
0.0093991835
0.022957678
0.039092777
0.49320593
0.4923457
0.039026913
0.022917944
0.0093828029
0.0015784456
0.0015773397
0.0093689765
0.022883474
0.03896886
0.49155434
0.49075349
0.03891658
0.022851169
0.0093553889
0.0015761573
0.0015752128
0.0093450272
0.022826006
0.038875983
0.48996707
0.48901587
0.038852312
0.022808088
0.0093364497
0.0015742309
0.0015735917
0.0093336775
0.022805523
0.038857973
0.48779483
0.48594273
0.038877112
0.02280634
0.0093302542
0.0015724747
0.0015698959
0.0093117469
0.022770264
0.038837629
0.48287007
0.47786404
0.038555048
0.022590668
0.0092325587
0.0015600395
0.0015386253
0.0090001142
0.022015731
0.037606247
0.46886218
0.46311369
0.036507244
0.021437593
0.0087798736
0.0014927374
0.0014979327
0.0087593225
0.021416502
0.0365069
0.46236423
0.46932565
0.037646476
0.022043906
0.0090102421
0.0015386087
0.0015596648
0.0092287105
0.022579529
0.038534632
0.47783924
0.48282075
0.038818939
0.022758278
0.0093065611
0.0015692923
0.0015722052
0.0093279447
0.022800226
0.038866225
0.48586489
0.48767288
0.038845743
0.022797482
0.0093302864
0.0015732404
0.0015740896
0.0093350026
0.022803994
0.038844653
0.4889049
0.48983879
0.038864029
0.022818315
0.00934189
0.0015749232
0.0015760507
0.0093540553
0.022847236
0.038908956
0.49065236
0.49142893
0.038959218
0.02287705
0.0093662691
0.0015770853
0.0015783415
0.009381509
0.02291438
0.039020354
0.49223299
0.49305978
0.039081233
0.022950186
0.0093960722
0.001579486
0.0015808511
0.0094133751
0.022992604
0.039151096
0.49394578
0.49488067
0.039219514
0.023033013
0.0094298688
0.0015821074
0.0015835955
0.009449221
0.023080503
0.039297859
0.49587368
0.49691923
0.039373965
0.023125545
0.009467623
0.0015849729
0.0015865782
0.0094887713
0.023177344
0.039459347
0.49802635
0.4991893
0.03954353
0.023227124
0.0095090509
0.0015880767
0.0015897845
0.0095316804
0.023282505
0.039634933
0.50042387
0.50171319
0.039725007
0.023335913
0.0095534829
0.0015913896
0.001593205
0.0095777832
0.023395588
0.039823809
0.50306569
0.50446753
0.039920078
0.023452415
0.009600863
0.0015948892
0.0015967483
0.0096257301
0.023513347
0.040020921
0.50591059
0.50739092
0.040119581
0.023571634
0.0096494343
0.0015984804
0.0016003884
0.0096749662
0.023634241
0.040223342
0.5089122
0.51046063
0.040323447
0.023693529
0.0096991507
0.0016021612
0.0016041228
0.0097253834
0.023757965
0.040430419
0.51204526
0.51365826
0.040532226
0.023818271
0.0097499937
0.0016059367
0.001607944
0.0097767588
0.023884214
0.040641958
0.51530746
0.51698834
0.040746887
0.023946193
0.0098018976
0.0016097877
0.00161179
0.0098292043
0.024013481
0.040858492
0.5186944
0.5203634
0.040970609
0.024077794
0.0098541578
0.0016135194
0.0016148234
0.009872414
0.024123478
0.041049672
0.52194815
8.1055766
8.1461714
8.1055593
8.1460967
8.248509
8.1785509
8.1113883
8.140608
8.1980522
8.1786268
8.3230175
8.3301748
8.1980562
8.2621359
8.3838563
8.3838085
8.3701598
8.4270034
8.4578047
8.4334012
8.421302
8.3973978
8.3767477
8.2375913
8.3856999
8.2838113
8.3045526
8.4359386
8.4303937
8.4442693
8.3898003
8.5038508
8.4831392
8.4832527
8.5273002
8.4522991
8.4563551
8.4495929
8.4243795
8.3973937
8.4169406
8.3136982
8.2086897
8.1226394
8.3619089
8.3260096
8.2906754
8.3249002
8.0946106
8.1637981
8.0403829
7.9648255
7.9079586
7.9581271
8.2168885
8.251664
8.2517943
8.2353583
8.0992611
8.0431444
8.1489005
8.2188748
0.46483031
0.035842824
0.021069004
0.0086358427
0.0014914067
0.0015244028
0.0088816271
0.021677292
0.036931114
0.47065943
0.47684126
0.037667358
0.022105838
0.0090546721
0.0015452397
0.0015551629
0.0091352835
0.022296902
0.037974789
0.4814155
0.48434363
0.038022049
0.022338462
0.0091570396
0.0015581563
0.0015593982
0.0091630062
0.022344991
0.038014683
0.48612112
0.48735368
0.038003877
0.022345456
0.0091657688
0.0015600287
0.0015610815
0.0091763589
0.022369508
0.038037684
0.48831248
0.48916932
0.038074192
0.022392519
0.00918641
0.0015619983
0.0015632437
0.009201751
0.022430414
0.038135838
0.48999492
0.49083334
0.038188885
0.022462074
0.0092149301
0.0015643066
0.0015656551
0.0092324673
0.022505826
0.038261517
0.49170495
0.49260783
0.038321054
0.022541421
0.0092472939
0.0015668087
0.001568257
0.0092665543
0.022589404
0.038400858
0.4935639
0.49457215
0.038466981
0.022629038
0.0092830776
0.0015695179
0.0015710832
0.0093041957
0.022681586
0.038554329
0.49562964
0.49674262
0.038628208
0.022725704
0.009322477
0.0015724545
0.0015741099
0.0093448446
0.022781133
0.038720215
0.49790943
0.49912755
0.038799611
0.022828748
0.0093646298
0.0015755906
0.0015773658
0.0093887824
0.02288866
0.03889919
0.5004082
0.50174087
0.038986014
0.022940395
0.0094101163
0.0015789465
0.0015807902
0.009435137
0.023002279
0.039088661
0.5031179
0.50454697
0.039180404
0.023056767
0.0094575418
0.0015824465
0.0015843474
0.0094832762
0.023120337
0.039285839
0.50601144
0.50750964
0.039379755
0.023176215
0.0095063039
0.0015860572
0.0015880166
0.0095327837
0.023241665
0.039488494
0.50905769
0.51064173
0.039583737
0.023298539
0.0095562886
0.0015897695
0.0015917772
0.0095834767
0.023365923
0.039695981
0.51226598
0.51392507
0.039794193
0.023424181
0.0096073801
0.0015935478
0.0015955327
0.0096342704
0.0234907
0.039904586
0.51561348
0.51731969
0.040006504
0.023550653
0.0096584109
0.0015972689
0.0015990301
0.0096827873
0.023610922
0.040107072
0.51903073
0.52071512
0.040203131
0.023665129
0.0097037887
0.0016004571
0.0015985563
0.0096776914
0.023599147
0.04009004
0.51880278
0.51727161
0.040006917
0.02355072
0.0096581277
0.0015971714
0.0015954688
0.0096339
0.023490099
0.039903935
0.5156336
0.51396533
0.039796669
0.023425655
0.009607527
0.0015935307
0.0015917439
0.0095831012
0.023365126
0.03969494
0.51236323
0.51076737
0.039591464
0.023302807
0.0095574899
0.0015898201
0.0015880544
0.0095333657
0.023243074
0.039490854
0.50923612
0.50769543
0.039387322
0.023180795
0.0095078179
0.0015861463
0.001584413
0.0094841002
0.023122053
0.039288426
0.5061982
0.50473796
0.039189606
0.02306248
0.0094596028
0.0015825756
0.0015809144
0.0094368808
0.023006141
0.039094628
0.50332091
0.50192122
0.038997721
0.022947699
0.0094128568
0.0015791261
0.0015775215
0.0093907527
0.022893069
0.038906023
0.50058806
0.4992885
0.038813901
0.02283737
0.0093678115
0.0015758097
0.0015742987
0.0093471419
0.022786267
0.038728131
0.49807285
0.49688991
0.038644032
0.022735185
0.0093259945
0.001572703
0.0015713127
0.0093070993
0.022688398
0.038565333
0.4958231
0.49474113
0.038483837
0.022639281
0.009286941
0.001569796
0.0015684908
0.0092693666
0.022595735
0.038410612
0.49372162
0.49274584
0.038336258
0.022550806
0.0092508738
0.0015670742
0.0015658651
0.0092348709
0.022511041
0.03826929
0.49183641
0.49097847
0.038204423
0.022471528
0.0092184769
0.0015645647
0.0015634672
0.0092044407
0.022436547
0.03814549
0.49015808
0.48932023
0.038087831
0.022401095
0.0091896935
0.0015622485
0.0015612993
0.0091789121
0.022375386
0.038047147
0.48848811
0.48753072
0.03802149
0.022355954
0.0091696434
0.001560316
0.0015596687
0.0091661875
0.022352603
0.038027175
0.48633064
0.48453379
0.038042709
0.02235058
0.0091614958
0.0015585219
0.0015555449
0.0091394232
0.022307824
0.037994277
0.48157076
0.47672196
0.037698231
0.022120982
0.0090591984
0.0015457964
0.0015248226
0.0088858012
0.021694687
0.036972223
0.47001931
0.46245232
0.035836552
0.021040007
0.0086183697
0.0014910095
0.0014377117
0.0081092707
0.01979904
0.03378511
0.44724313
0.4657947
0.038238387
0.02235986
0.0090811359
0.0015288952
0.0014972223
0.0087997046
0.021474698
0.036562397
0.46465065
0.46842513
0.037530944
0.021971648
0.0089832121
0.0015399264
0.0015599856
0.0092199919
0.022558076
0.038496756
0.47731621
0.48217205
0.038768573
0.022728009
0.009294648
0.001569378
0.001572168
0.0093194047
0.022779755
0.038833246
0.48533393
0.48722685
0.038811771
0.0227767
0.0093218894
0.0015731035
0.001573972
0.0093289318
0.022789712
0.038822083
0.48853297
0.4895207
0.038842248
0.022804542
0.0093361468
0.0015747642
0.0015758944
0.009349256
0.022835964
0.03889119
0.49036381
0.49116499
0.038940926
0.022865515
0.0093615103
0.0015769049
0.0015781821
0.0093776283
0.022905285
0.039006148
0.49200049
0.49287247
0.039064331
0.022939846
0.0093919671
0.0015793087
0.0015807295
0.0094106776
0.022986421
0.039141615
0.49377754
0.49472482
0.039207121
0.023025379
0.0094268005
0.0015819613
0.0015834806
0.009447003
0.023075461
0.039290204
0.49573056
0.49680334
0.039362786
0.023118685
0.0094649085
0.0015848317
0.0015864775
0.0094870478
0.023173619
0.039454043
0.49792196
0.49909406
0.039533161
0.023220819
0.0095065953
0.001587942
0.0015896977
0.0095303271
0.023279625
0.039630898
0.50033018
0.50162258
0.03971659
0.023330735
0.0095514505
0.0015912703
0.0015931271
0.0095766677
0.023393337
0.039820884
0.50297312
0.50436448
0.039912212
0.023447651
0.0095990162
0.0015947829
0.0015966961
0.0096249184
0.023511838
0.040019203
0.50580387
0.50727916
0.040113551
0.023567953
0.0096480224
0.0015984122
0.0016003875
0.0096746794
0.023633946
0.040223401
0.50878894
0.51034663
0.040321772
0.023692175
0.0096985538
0.0016021578
0.0016041574
0.009725488
0.023758842
0.040432855
0.51195221
0.51358591
0.040530869
0.023817052
0.0097494196
0.0016059396
0.0016079596
0.0097766692
0.023884664
0.040643748
0.51523878
0.51690088
0.040743634
0.023943734
0.0098007576
0.0016097358
0.0016117116
0.0098274999
0.024009496
0.04085198
0.51854639
0.52012733
0.040967216
0.024076224
0.0098537204
0.0016134773
0.0016147734
0.009875127
0.02412063
0.041036678
0.52162111
0.0015984533
0.0096759627
0.023595076
0.040083418
0.51874007
0.5172275
0.039999604
0.023545991
0.0096561096
0.0015970403
0.0015953261
0.0096319347
0.023485315
0.039896291
0.51560339
0.51396319
0.039793488
0.023423646
0.0096067203
0.0015934433
0.001591717
0.0095831409
0.023365236
0.039695083
0.51239185
0.51081423
0.039593879
0.023304329
0.0095581237
0.0015898459
0.0015881363
0.0095346673
0.023246308
0.03949619
0.50928174
0.50773291
0.039392377
0.023184106
0.0095092542
0.0015862557
0.0015845522
0.0094857717
0.023126264
0.039295451
0.50622553
0.50472905
0.039190832
0.023063273
0.0094599327
0.0015826568
0.0015809482
0.0094365924
0.023005705
0.039094522
0.50328391
0.50187872
0.038993188
0.022944903
0.0094117554
0.0015790956
0.0015774858
0.0093900777
0.022891446
0.038903649
0.50054761
0.49924939
0.038812224
0.02283625
0.0093673242
0.0015757782
0.0015742775
0.0093468582
0.022785761
0.038727595
0.49805663
0.49689317
0.038643006
0.022734526
0.0093257076
0.0015726856
0.0015712954
0.0093067598
0.0226876
0.038564041
0.495789
0.49469908
0.038480461
0.022637428
0.0092862606
0.0015697636
0.0015684486
0.0092685312
0.022593608
0.038407017
0.49365909
0.49267598
0.038330275
0.022547415
0.0092495965
0.0015670093
0.0015657983
0.0092336398
0.02250804
0.038264427
0.49176386
0.49089745
0.038197135
0.022467342
0.0092168579
0.0015644817
0.0015633871
0.0092028796
0.02243278
0.038139398
0.49006637
0.48923824
0.038080962
0.022396986
0.0091880244
0.00156217
0.001561232
0.0091773229
0.022371615
0.038041103
0.48839461
0.48745337
0.038015642
0.022352365
0.009168135
0.0015602657
0.0015596312
0.0091646717
0.022348963
0.038021225
0.48623213
0.4844379
0.03803495
0.022345984
0.0091596322
0.0015584817
0.0015555172
0.0091377194
0.022303584
0.037987106
0.48148926
0.47669419
0.037694351
0.02211884
0.0090583754
0.001545824
0.0015249741
0.0088867245
0.021696787
0.036975433
0.47013149
0.46278041
0.035857874
0.021052198
0.0086233604
0.001491573
0.0014396849
0.0081505587
0.019901958
0.033947217
0.44874912
0.49709711
0.030609331
0.017958719
0.0073745483
0.0013947257
0.0014897069
0.0086190445
0.021064949
0.035816717
0.45792189
0.4638285
0.036013661
0.021187468
0.0086658695
0.0014895324
0.0014901319
0.0086317807
0.021060447
0.035832497
0.46462437
0.47070988
0.036934149
0.021679175
0.008882919
0.0015240446
0.0015451841
0.0090573648
0.022113627
0.03768078
0.47692634
0.48156182
0.03797588
0.022297404