/*--------------------------------*- C++ -*----------------------------------*\
  =========                 |
  \\      /  F ield         | OpenFOAM: The Open Source CFD Toolbox
   \\    /   O peration     | Website:  https://openfoam.org
    \\  /    A nd           | Version:  7
     \\/     M anipulation  |
\*---------------------------------------------------------------------------*/
FoamFile
{
    version     2.0;
    format      ascii;
    class       surfaceScalarField;
    location    "160";
    object      phi;
}
// * * * * * * * * * * * * * * * * * * * * * * * * * * * * * * * * * * * * * //

dimensions      [1 0 -1 0 0 0 0];

internalField   nonuniform List<scalar> 
76009
(
0.0020469747
1.4789085
-1.4800056
-2.0323548
2.0333022
-36.229122
2.0784068
-2.0794379
-2.0788337
2.0770923
-34.811081
-3.2968677e-05
0.0019931397
2.0333193
1.4789478
-1.4799803
-2.0323347
-36.22907
2.0771795
2.078443
-2.0793903
-2.0787329
2.9487444e-05
-34.810929
-0.0029933988
-9.3254574
-0.002956947
-0.3831149
0.37477082
0.36801518
-0.39126024
0.36801851
0.37478426
-0.38311422
-0.39126613
-0.012707658
-7.6964901
0.066503048
-7.407051
0.012743438
-0.012411577
-0.012399575
-10.342226
0.005945828
-0.05460555
-9.6925767
-0.0059331228
0.38352318
0.37883441
-0.37522757
-0.38002852
0.38351975
-0.38003359
-0.37523469
0.37882685
-9.3277583
7.6965111
-0.054611867
-9.6925868
0.066530232
0.37065681
-0.37683191
0.52397245
-0.53754151
-8.256969
-0.0018018332
-0.0001836564
-0.57876764
-0.020100563
0.023891652
-0.02499282
0.03251596
-0.00037970036
-0.56510668
0.032712362
-0.025233943
-0.025364605
0.032589807
-0.011137887
-0.0079020109
-2.4812444
0.098739597
0.13263984
-0.12927506
-0.096216624
0.0034573522
-2.6371227
0.094963205
-0.092246635
-0.12673044
0.12819506
-0.13062987
-2.3431504
0.0024044448
-0.47572568
0.001949509
-0.0015139474
-0.0013251067
0.00057942673
-0.57563978
-0.031949131
-0.023531155
0.02374865
0.032302947
-0.52715174
0.0015536413
-0.00061502875
0.00037042866
-0.65455255
-0.0016296509
-0.00049533431
-0.66430863
0.4807543
-0.62382014
0.0096623332
0.006177731
0.0046129153
-0.13144451
-0.51115756
-0.023289897
0.023544975
0.032669213
-0.032797161
-0.0018502201
-0.1325892
-0.10193455
0.097917626
-0.10193405
-0.13258574
-2.3811212
0.0019745306
0.13642427
0.13353634
-0.13115037
-0.13384306
-2.5355057
0.13596019
-0.13349418
-0.12918406
0.13143066
-2.476356
1.948355e-06
-1.915228e-05
0.0014473272
-0.53369851
-0.00069253492
-0.0007471189
0.0015070507
-0.53508454
0.0014916363
-0.5318063
0.00015291083
-0.54570524
-9.2344342e-05
0.032256404
0.032310163
-0.031994319
-0.031997446
7.9762244e-05
-0.54649482
0.032352397
-0.031977794
-0.032007221
0.032303785
-0.54762267
-0.03214636
0.032516487
0.032346366
-0.031982086
0.0029371767
-0.00036950645
0.00017873305
0.032715507
0.032594534
-0.02535764
-0.025228809
-0.56509267
-0.00060892411
-0.65904014
-0.0030806045
-0.00017278619
-0.66628314
-0.00018780138
0.032600106
0.032551753
-0.025445538
-0.02536511
-0.56409834
0.0031643053
-4.8487065e-05
-0.025441002
0.032556815
0.032509495
-0.025444276
-0.5631899
0.00054251395
-0.66474368
0.52534336
-0.0031948996
-0.65079115
1.1443545e-06
0.0013987644
1.110931e-07
-0.54387432
7.9902291e-07
-0.03197544
0.032246152
0.032217149
-0.031966094
-0.56126151
1.7881194e-06
-0.025421342
0.032498877
0.032472882
-0.025408405
0.0047840317
5.9096311e-05
-0.57256286
2.1944842e-06
0.006456024
-0.1286443
0.00067198913
-0.51803651
1.7075035e-06
-0.50009193
0.0024879537
-2.0271056
-0.10841627
0.13305611
-0.10493595
5.433714e-06
0.0017862069
-7.7911326
0.51961229
-0.54582664
-0.52581854
9.1590494e-06
-8.2569196
-0.37681472
0.37067322
0.52399201
-0.53751251
0.012522762
0.54789782
0.38626861
-0.37546021
-0.52867979
-10.433465
0.55332192
1.8235182e-05
-0.5316908
-0.51379066
0.53656216
-9.9017636
-0.0069076284
0.020370602
2.6816711
-2.1402806
-0.0015316038
-0.013414681
2.6567126
-2.1177736
0.015465936
2.6261011
0.0065229521
-1.8762469
1.8142892
0.021734842
0.030147452
0.042667085
0.035821706
-2.1039265
-0.085024472
-0.0030575832
0.12974587
0.096554078
-0.10475494
0.040344897
-0.0033365499
0.63396494
0.021537684
-2.3270268
-0.0074973675
0.6158355
0.53955653
0.62219737
0.077637633
-0.098095302
-0.13422527
0.096459941
0.084363071
0.47532829
-0.0045363265
-0.0062145653
-2.0378987
0.094755044
0.12573365
-0.11885402
0.081313613
-2.1869935
-0.19048031
-1.9495297
0.0027968347
0.14509676
-0.004979002
0.0011303578
-0.1427327
-2.178176
-0.0065555333
-2.6301591
0.0052156124
-0.0023715128
-2.6558531
2.3145092
0.095952498
0.13061676
-0.12955585
-0.095126727
0.00050611535
-2.310556
0.0015461075
0.13182321
0.096410704
-0.094780156
-0.12925466
2.2166559
-2.2006778
2.5880624e-05
-0.12991888
0.13279643
0.13216502
-0.12912984
0.62868366
-0.064420204
-0.0018573758
0.6334558
0.54559384
0.54235918
0.098740596
-0.13606959
-0.13525562
0.097928281
0.10545667
-0.0018871776
0.52335237
0.0054852645
-0.0037234641
-2.0662785
-0.10886545
0.13346265
0.13067485
0.0018092742
0.061813169
6.2966872e-06
-2.6129344
0.6325694
0.54169088
0.53935549
0.61788969
8.8747005e-06
0.097931611
-0.13495096
-0.13477874
0.09762692
-2.1973874
0.0011010159
-0.0040811982
0.52639877
0.0007345449
0.5278046
-0.0040004105
-0.00027863898
-0.0046110055
-0.00012624926
-0.00084611698
-0.0044454409
-0.0023559564
-0.52001826
-0.0032785701
-2.7180307e-05
-0.51586881
0.0098457519
0.0079093935
-0.0031073503
-0.020316311
0.0033051384
0.57488969
-0.037923744
-0.0038219068
0.57875623
0.0033155242
-0.00061488103
0.023894424
-0.020097014
-0.024988333
0.032518786
-0.023743973
-0.11766708
0.0005564956
0.16443218
0.0003168098
-0.020348344
0.032728502
-0.029859594
-0.010877232
-0.63295634
-0.1557325
-0.0011235853
-0.0012563606
0.15378173
0.15587016
0.13481972
-0.0070069284
-0.022815876
0.018929302
0.02314793
-0.028252256
-0.0031338102
-0.57775695
0.12949252
-0.00068254481
-0.0011401618
0.16277446
-0.00025689968
5.0241952e-05
0.00014680514
0.13083207
-0.00014371376
-9.8386275e-06
0.11839259
-0.00063466645
0.00017743335
0.00037981479
-0.00014879958
7.2536948e-05
0.0001472272
-0.14570913
-0.0002308876
-8.9591681e-05
-0.13148776
3.2503228e-05
-4.7750602e-05
-0.16411897
-0.00075286566
-0.14545835
-0.00039609511
-4.6141361e-05
-0.00033876079
-0.14393052
-0.0012960573
-0.00014991798
-0.13070047
-0.00071194702
-0.00065711761
-0.0052891466
-0.0094568834
-0.00099357637
0.00014091654
0.14499742
0.0002623842
-0.15429422
-0.00056338094
0.028536614
0.13143983
-2.7364859e-05
-0.16509731
0.49544305
0.032996988
0.032199656
-0.03239596
-0.035251801
-0.57726709
0.032564851
-0.032464094
0.031882275
-0.032339369
0.031316026
-0.13152587
-0.0001746701
-0.00015642074
-7.0100585e-05
-0.00058697569
-0.16408576
0.14546333
-0.00048476751
-0.14536783
-7.6937589e-05
-0.00027405962
-0.00012361533
0.00019585596
-0.14483068
-0.0002735215
-0.00014890138
-0.13003384
-0.00013729192
-0.00011419228
-0.16220043
-0.00064555686
-0.14495684
-0.00036660234
-0.00010619918
0.0012048017
-0.00016939555
-0.14557749
-0.00035495971
-5.9798807e-05
-0.0003666157
-9.5049278e-05
-0.00072750186
-0.13059414
-0.00030353239
0.00010148
-0.00075706903
-0.16236188
-0.00034550538
-0.14478218
-8.5938735e-05
3.7700849e-06
-0.14380812
0.14396258
-6.4602383e-05
-0.00043912552
0.032675034
-0.16283594
-0.00042017393
0.12982778
0.03525583
-0.5959099
-0.032676379
0.03252116
0.52699799
0.024203618
-0.024848316
-0.024846892
0.024204566
0.032521558
0.010884109
-0.57727051
0.032198735
0.032997453
-0.0285377
-0.03239798
-0.63296288
-0.020348982
0.023744944
0.032728206
-0.029861422
-0.00020336825
-0.56411512
0.032595316
-0.025372615
-0.025455864
0.032544166
-6.8299456e-05
-0.5632081
0.032549302
-0.025451836
-0.025458769
0.032498057
-0.56128037
0.03248777
-0.025436175
-0.025427301
0.032457197
-1.9784709e-05
7.9180134e-05
0.0064050705
-1.8422122e-05
0.0048254395
-0.57257164
0.00029683263
0.0065501095
0.0047749741
-0.57475083
0.00075851563
0.0046345001
-0.5760824
0.0068711017
0.00062348979
0.0044619073
-0.57674992
0.0073163576
-0.0098408695
0.0032897894
-0.57489722
0.0033041493
-0.12573141
3.4224579e-05
-0.51587385
0.0079016071
-0.035805294
-2.0379072
-0.084365893
0.094756579
-0.11885987
0.081300153
-1.8142999
0.042667185
0.030137772
0.021725465
-2.6261093
-0.021556727
-2.186997
-0.19048185
0.63397162
-0.040321583
-2.3270319
-0.0075355374
0.6222038
0.5395581
0.6158395
0.077635196
-0.098096907
-0.13423205
0.096453081
0.085032632
-0.0062190474
0.47533386
-0.0045417218
-2.1039482
-0.0030739553
-0.10476699
0.12973781
0.096547693
-2.6567257
-0.0033601127
-0.013403074
-0.54787967
0.015450949
-2.1177771
0.0068832351
-0.38626005
-1.8762498
0.0065172709
-0.37546749
-0.52869522
0.012489015
-10.433485
0.0049761417
-0.0065662788
-2.6301608
1.9495306
0.0011146731
-2.1781757
-0.14272812
0.0027780772
0.14509968
-2.3145084
0.0015146076
0.096410565
-0.094779821
-0.12925824
0.13181835
-0.0052065284
-2.3105532
0.00048208263
0.09595326
-0.095125656
-0.12955758
0.13061395
-0.0023915942
-2.6558536
0.5317085
-2.6830781
0.0024589165
2.1402824
0.0062367546
7.7912034
-9.9017807
-0.51382464
0.53651431
0.55329868
-4.7238303e-05
0.5195798
-0.54586729
0.50002771
-0.52588919
-6.8743029e-05
-2.0663048
-0.10547143
0.13066514
0.13344487
-0.10888853
-0.0025173474
0.064373829
-2.6816852
0.0017791706
0.6286945
0.6334641
0.54235804
0.54559798
-2.2166571
-0.0019135123
-0.13607577
0.098732355
0.097909673
-0.13527201
0.005494394
0.52336159
-0.0018961832
-0.0037367339
0.52002626
-0.0033140952
-0.0023532392
0.00083981776
0.00027050896
-0.52781527
-0.00013985987
-0.0040194183
-0.0011164601
0.00094332651
-0.00088690872
-0.037800197
0.0038326729
-0.037778016
0.0031137486
-0.037934288
-0.020322201
0.11758003
0.50189758
0.0071863497
0.0086622727
-0.65564843
-2.2130751
-0.11757634
0.12602006
0.091408659
-0.10256347
0.091406358
0.12602017
-0.10256768
0.10985127
0.096414834
0.10984661
-0.096311124
-0.098045161
0.096419642
-0.098040512
-0.096305749
-2.6178671
0.65564589
0.0029949305
-0.4715203
0.00036838403
0.50189432
0.0086645007
0.0071944151
-0.0041394955
-0.51563034
-0.02097922
0.027460046
-0.030644912
0.031581465
0.018215036
-0.0050934637
-0.050172778
-0.55426308
0.1589154
0.15614933
0.13522075
0.15527887
-0.011937036
-0.0021975122
0.023136996
0.01880926
-0.024704515
-0.033593693
-0.58017131
0.11864987
-0.0013351263
-0.0021944349
-0.00015586972
9.7776717e-05
-0.13047647
-0.0001895076
-0.00063617848
-0.0022610121
-0.0016535154
0.0012380916
0.1432431
-0.0013710503
-0.010150399
0.12969703
-0.0060194229
5.7949379e-06
-0.00099139616
-0.0013744963
-0.00034829496
-4.2839708e-05
-0.14374001
-0.0012000108
-0.00019976335
-0.032525379
-0.1305176
-0.00082720061
-0.018214582
0.032523666
-0.029860314
-0.025309207
0.02417786
-0.56255193
-0.02985799
-0.025307321
0.024179572
0.0041439751
-0.020981397
0.027458837
0.031579477
-0.030647477
-0.51563215
0.0070004501
0.15573575
0.15587244
0.13482122
0.15378497
-0.0031467072
-0.57776226
-0.022817829
0.018927553
-0.028255726
0.023145186
0.11766955
-0.0012586849
-0.0011246588
0.00031406583
0.00055601998
-0.00016753941
0.0012080263
-0.14557976
-0.00035751925
-6.2993748e-05
0.00072971982
-0.13059563
-0.00030558306
0.0007150869
0.00036522467
-0.13144172
-0.13070288
0.00033780088
-0.00065862905
-0.0052919189
0.00068572502
0.1439337
-0.0094606532
-0.00099617837
0.12949574
-0.001142523
-0.00026052556
4.8904819e-05
-0.0012996058
-0.00015173223
-0.14500014
-9.7503529e-05
0.00014299236
0.00025959034
-0.00056691538
-0.15429646
-2.9159068e-05
-0.16509919
9.8993545e-05
-0.00075854564
-0.16236321
-0.00034758693
-8.9751686e-05
-0.14478384
6.5362291e-06
0.14396429
-0.00044005072
-6.9051063e-05
-0.14380931
0.12982879
-0.0004204052
-0.16283678
0.16233683
-4.5530385e-05
-0.00024693137
0.032549471
0.12955804
-0.00023600395
-0.00018296786
0.032247298
0.02410046
-0.024677631
-0.0325498
0.032245308
-0.02467729
0.024099821
-0.001939382
2.0771929
-2.078725
-2.0793562
2.0784869
-34.810844
1.4790002
2.0333641
-2.032298
-1.4799426
-36.228863
-0.53059618
-10.423297
-0.36964254
0.37468983
0.058468696
0.0019715355
0.13642866
-0.13383758
-0.13114335
0.13354126
-0.0034533247
-2.5354973
0.13143174
0.13596304
-0.13349031
-0.12918307
-2.4763535
0.00069253953
-0.52534288
0.0014005915
-0.0015142505
-0.00015291481
-0.54649159
7.8930567e-05
0.032354711
0.032306148
-0.032004485
-0.031974847
1.9608063e-05
-0.53508166
-0.00074758488
-0.53369667
0.0014523343
0.00054075517
-0.0031596083
0.00017435325
-0.66474248
-0.0031932156
-0.65079084
0.54387377
5.1617198e-05
-0.56126136
0.032473016
0.032499972
-0.025420222
-0.025408218
9.3415981e-05
-0.031965836
0.032217433
0.032247219
-0.031974245
-0.54570339
0.032257971
-0.031995768
-0.031992035
0.032312101
0.00018989796
-0.56318924
0.032510819
0.032558802
-0.025438835
-0.02544282
0.0030736093
0.00037056123
-0.56409711
0.032602601
0.032553951
-0.025443076
-0.025362234
0.00060993804
-0.66628121
0.53180232
-0.0029286766
-0.00036959592
-0.65903746
0.001500163
-0.0015541283
-0.54761818
0.032518927
0.032349037
-0.031978745
-0.032143046
-0.00058047938
0.00017909574
-0.56509079
0.032718237
0.03259721
-0.025354534
-0.025225517
0.00162004
0.032521721
0.57563436
-0.024984851
-0.020093472
0.023897726
-0.57875385
-0.0096625788
0.12926717
0.52714735
-0.65454957
-0.00061450416
-2.6371117
0.13264577
-0.096207179
0.098747578
0.011141836
5.9552901e-05
-0.0022247715
1.4750649e-05
-3.7312157e-05
0.00012029264
-0.0026575191
1.888077e-05
-4.144901e-05
0.0001876095
-0.0030173228
2.2024349e-05
-4.5272896e-05
0.0002663755
-0.0033858789
2.4783439e-05
-4.9445957e-05
-0.055236307
0.00050806138
-0.00047684753
-0.00017252708
-0.00023724732
-0.055301188
0.00032161424
-0.00020900141
0.0001895172
-0.00016742676
-0.0034512291
1.968025e-05
-2.415024e-05
-0.00010379033
-0.0030767426
1.8290015e-05
-2.2506349e-05
-4.7004703e-05
-0.002710394
1.7029649e-05
-2.0939531e-05
-0.0022684241
1.5706661e-05
-1.9058792e-05
1.9802093e-05
-0.002285677
3.6238873e-06
-6.1723732e-06
4.0916642e-05
-0.0027290526
4.4020578e-06
-6.8571624e-06
6.4303812e-05
-0.0030976147
4.8548739e-06
-7.3693158e-06
9.0786583e-05
-0.0034750807
5.266471e-06
-7.8971879e-06
-0.05557409
0.00011911295
-6.9820019e-05
0.00031439656
-3.5970626e-05
-0.055917052
7.8819948e-05
-2.7093059e-05
0.000327208
-2.5323967e-05
-0.0034860165
3.7985495e-06
-3.5061383e-06
-1.5725698e-05
-0.0031074155
3.5477521e-06
-3.3417005e-06
-7.1964139e-06
-0.002737721
3.3599792e-06
-3.2126002e-06
-0.0022929972
3.2486166e-06
-3.1247636e-06
2.5179345e-06
-0.0022954941
1.8193193e-06
-1.8365765e-06
5.1417649e-06
-0.00274044
1.9955001e-06
-1.8985352e-06
7.9889868e-06
-0.0031104505
2.1581994e-06
-1.9690189e-06
1.1134999e-05
-0.0034894582
2.3485412e-06
-2.0525743e-06
-0.056207972
5.4788645e-05
-1.507549e-05
0.00026234238
-5.0621225e-06
-0.056407608
4.3851981e-05
-1.2848876e-05
0.00017369664
-3.6379714e-06
-0.0034912523
2.131902e-06
-1.7614162e-06
-2.3026508e-06
-0.0031120746
1.9776521e-06
-1.6883891e-06
-1.0787428e-06
-0.0027418886
1.848879e-06
-1.6229438e-06
-0.0022967554
1.7440008e-06
-1.561436e-06
7.5893702e-07
-0.0022976087
1.4240376e-06
-1.3319824e-06
1.5288626e-06
-0.0027427953
1.5483168e-06
-1.4122943e-06
2.3374933e-06
-0.0031130636
1.6634625e-06
-1.4834845e-06
3.1971322e-06
-0.0034923441
1.7903729e-06
-1.5581456e-06
-0.056524827
3.4042705e-05
-1.1849323e-05
9.8222672e-05
-2.6783038e-06
-0.056586371
2.6391092e-05
-1.0524716e-05
4.8356834e-05
-1.9602749e-06
-0.0034932223
1.5073683e-06
-1.3456028e-06
-1.2835291e-06
-0.00311387
1.4069985e-06
-1.2756437e-06
-6.3599087e-07
-0.0027435447
1.314651e-06
-1.2089079e-06
-0.0022983277
1.2166686e-06
-1.133632e-06
5.5898158e-07
-0.0022989442
9.9324141e-07
-9.3389995e-07
1.0887691e-06
-0.002744149
1.07642e-06
-1.0009981e-06
1.6339951e-06
-0.003114506
1.1509266e-06
-1.059519e-06
2.2084144e-06
-0.0034939058
1.2299035e-06
-1.1207128e-06
-0.056616748
2.0460631e-05
-8.9388316e-06
2.1064176e-05
-1.8649474e-06
-0.056631856
1.6121479e-05
-7.4188805e-06
8.2704607e-06
-1.3893159e-06
-0.0034944621
9.9997608e-07
-9.1919821e-07
-9.3800149e-07
-0.0031150269
9.3726321e-07
-8.6754591e-07
-4.9403712e-07
-0.0027446518
8.778411e-07
-8.1870917e-07
-0.0022994862
8.1111693e-07
-7.6314624e-07
4.3992894e-07
-0.0022999635
6.6049108e-07
-6.2267109e-07
8.1275893e-07
-0.0027450708
7.1451113e-07
-6.6812061e-07
1.1777754e-06
-0.0031154459
7.6247226e-07
-7.082853e-07
1.5576484e-06
-0.0034949038
8.1308871e-07
-7.5117331e-07
-0.056640074
1.2921241e-05
-6.1123524e-06
2.9672108e-06
-1.3220095e-06
-0.05664515
1.0501768e-05
-5.0427367e-06
9.3897037e-07
-1.0145267e-06
-0.0034952598
6.6424347e-07
-6.1562369e-07
-7.1629951e-07
-0.0031157871
6.2299316e-07
-5.7990997e-07
-3.9897016e-07
-0.0027454247
5.8398767e-07
-5.4708981e-07
-0.0023003925
5.4046335e-07
-5.1041479e-07
3.685783e-07
-0.0023007833
4.4273906e-07
-4.1927394e-07
6.3846792e-07
-0.0027457231
4.7759976e-07
-4.4859007e-07
8.8486927e-07
-0.003116067
5.0919163e-07
-4.7526651e-07
1.1314487e-06
-0.0034955449
5.43131e-07
-5.0460784e-07
-0.056648621
8.5770457e-06
-4.1508658e-06
1.7713913e-07
-9.8140296e-07
-0.056651096
6.947109e-06
-3.3879045e-06
-1.0377454e-07
-7.8110064e-07
-0.0034957748
4.4111201e-07
-4.1135096e-07
-5.790213e-07
-0.0031162953
4.1370024e-07
-3.8738415e-07
-3.4482826e-07
-0.0027459793
3.8867539e-07
-3.6634465e-07
-0.0023011461
3.617794e-07
-3.4377712e-07
3.3005349e-07
-0.002301486
2.8626325e-07
-2.7663527e-07
5.3692085e-07
-0.0027461989
3.0534115e-07
-2.9273695e-07
7.0446698e-07
-0.0031164783
3.2387758e-07
-3.0852422e-07
8.6317704e-07
-0.0034959511
3.4466245e-07
-3.2707227e-07
-0.056652774
5.3913745e-06
-2.6796428e-06
-1.7020139e-07
-7.8003952e-07
-0.056653731
3.6980259e-06
-1.9351773e-06
-2.5538832e-08
-6.4876378e-07
-0.0034960811
2.3957706e-07
-2.4109383e-07
-5.0755327e-07
-0.003116618
2.2654213e-07
-2.2823864e-07
-3.1877586e-07
-0.0027463855
2.1579731e-07
-2.1838388e-07
-0.0023018014
2.0606648e-07
-2.094703e-07
3.1651409e-07
-0.0023020967
1.1510771e-07
-1.3733293e-07
4.8844184e-07
-0.0027465332
1.1300926e-07
-1.3766925e-07
6.1324784e-07
-0.0031167169
1.144897e-07
-1.4067635e-07
7.209166e-07
-0.0034961604
1.1821887e-07
-1.4658376e-07
-0.056654018
1.759586e-06
-1.1027318e-06
3.5012861e-07
-6.8809035e-07
-0.056653467
-4.0384138e-07
-2.937333e-07
8.3562805e-07
-5.9424529e-07
-0.0034961733
-1.9265323e-08
-6.1432211e-08
-4.8321192e-07
-0.0031167531
-1.2178104e-08
-6.2381004e-08
-3.165089e-07
-0.0027466302
-2.8514034e-09
-6.6345642e-08
-0.0023023512
1.2692236e-08
-7.4755987e-08
3.2201886e-07
-0.002302597
-8.5498356e-08
9.5027649e-09
4.8620443e-07
-0.0027467075
-1.1480645e-07
2.7942111e-08
5.8696294e-07
-0.0031167587
-1.3456745e-07
3.9439262e-08
6.7377844e-07
-0.0034961557
-1.5211169e-07
4.7634356e-08
-0.056652259
-2.47255e-06
6.0912081e-07
1.3285229e-06
-6.6728622e-07
-0.056650468
-3.760294e-06
1.0655435e-06
1.5714224e-06
-5.8859495e-07
-0.0034960989
-2.3688445e-07
1.0138824e-07
-4.8486045e-07
-0.003116739
-2.1302915e-07
8.9554903e-08
-3.2602473e-07
-0.0027467543
-1.865272e-07
7.4421189e-08
-0.0023028257
-1.4866981e-07
5.1294971e-08
3.2609044e-07
-0.0023030511
-1.421737e-07
4.1260644e-08
4.8521151e-07
-0.0027467968
-1.7805966e-07
6.1333119e-08
5.7828282e-07
-0.0031167032
-2.0326602e-07
7.4299798e-08
6.4942046e-07
-0.0034960281
-2.2604099e-07
8.4081259e-08
-0.056648403
-3.5845434e-06
8.7346607e-07
1.2953354e-06
-6.2168097e-07
-0.056646488
-1.6475291e-06
-7.7241018e-08
4.3080484e-07
-5.6187722e-07
-0.0034959686
-1.0434541e-07
-1.5059525e-08
-4.7876443e-07
-0.003116678
-9.2266819e-08
-1.6157168e-08
-3.2765145e-07
-0.0027468497
-7.8692148e-08
-1.9704259e-08
-0.0023032928
-5.8430872e-08
-2.748461e-08
3.2247382e-07
-0.0023035681
1.0007376e-07
-1.4757747e-07
4.6778377e-07
-0.0027469409
1.0720029e-07
-1.615141e-07
5.4368622e-07
-0.0031166944
1.1430086e-07
-1.7386517e-07
5.9144107e-07
-0.0034959508
1.2201211e-07
-1.8751444e-07
-0.056645146
1.9103123e-06
-1.6880759e-06
-9.720815e-07
-5.8523282e-07
-0.056644583
6.3327916e-06
-3.6052166e-06
-2.7061992e-06
-5.4168683e-07
-0.0034960052
4.0855578e-07
-3.9780751e-07
-4.6980545e-07
-0.0031167761
3.7656294e-07
-3.6686627e-07
-3.2694416e-07
-0.0027470918
3.4328064e-07
-3.3546722e-07
-0.0023039009
3.0090756e-07
-2.9503169e-07
3.1761322e-07
-0.002304283
4.9169783e-07
-4.276075e-07
4.5298058e-07
-0.0027473008
5.6488131e-07
-4.9144354e-07
5.1536497e-07
-0.0031169208
6.2121946e-07
-5.3901232e-07
5.47843e-07
-0.0034961284
6.7536918e-07
-5.8465879e-07
-0.056644884
1.0394938e-05
-5.2871731e-06
-4.2591534e-06
-5.4436617e-07
-0.056645764
1.2802509e-05
-6.1804755e-06
-5.1974814e-06
-5.1580571e-07
-0.0034963028
8.3080468e-07
-6.8506716e-07
-4.5590389e-07
-0.0031171125
7.6328486e-07
-6.3162169e-07
-3.2029816e-07
-0.0027475542
6.926333e-07
-5.7505199e-07
-0.0023047048
6.0023207e-07
-4.9873555e-07
3.2946811e-07
-0.0023051644
6.0040232e-07
-4.7044545e-07
4.7742454e-07
-0.0027478537
6.9497502e-07
-5.4355518e-07
5.49263e-07
-0.0031173534
7.6728177e-07
-5.9827492e-07
5.8877551e-07
-0.0034965287
8.3593964e-07
-6.4961545e-07
-0.056646885
1.2916176e-05
-5.9077344e-06
-5.2983176e-06
-6.9488929e-07
-0.056647618
1.0762318e-05
-4.7584123e-06
-4.5763235e-06
-6.2788148e-07
-0.0034967582
6.9305877e-07
-5.3058714e-07
-5.2720966e-07
-0.0031175993
6.3501409e-07
-4.8983636e-07
-3.5288086e-07
-0.0027481563
5.7491426e-07
-4.4672788e-07
-0.0023056261
4.9792477e-07
-3.8916135e-07
3.9090405e-07
-0.0023060931
3.1195148e-07
-2.3575109e-07
6.056164e-07
-0.0027484569
3.558021e-07
-2.6996928e-07
7.4785138e-07
-0.0031178419
3.9527699e-07
-2.9494312e-07
8.560996e-07
-0.0034969825
4.3484931e-07
-3.1882602e-07
-0.056647621
6.9582386e-06
-2.8209017e-06
-3.2788085e-06
-8.8927785e-07
-0.056646729
2.3408238e-06
-7.4040479e-07
-1.6025263e-06
-7.7937284e-07
-0.0034971347
1.3298185e-07
-9.0811715e-08
-6.3655986e-07
-0.0031180164
1.1733639e-07
-8.5797228e-08
-4.1045108e-07
-0.0027487037
1.0050391e-07
-8.0046532e-08
-0.0023065147
8.3820555e-08
-7.2693795e-08
3.0511125e-07
-0.0023067875
-9.0714871e-08
5.8370612e-08
4.5594426e-07
-0.0027488377
-9.0776293e-08
7.3962079e-08
5.3690803e-07
-0.0031180891
-9.318804e-08
8.4985817e-08
5.7986791e-07
-0.0034971736
-9.8881681e-08
9.4818589e-08
-0.056645653
-1.3964824e-06
9.6455715e-07
-6.4084082e-08
-7.3830908e-07
-3.5708586e-06
2.0863755e-06
2.1485596e-07
-6.4727322e-07
-2.480474e-07
2.2461309e-07
-5.3315682e-07
-2.3126487e-07
2.0573304e-07
-3.5226168e-07
-2.1802827e-07
1.8397411e-07
-2.045872e-07
1.5183762e-07
-8.7860942e-08
0.082746945
-2.0147392e-06
-1.7673053e-06
-1.4481434e-07
0.0036120854
-1.4470684e-07
-1.7761399e-07
0.0031594142
-1.3106711e-07
-1.5636529e-07
0.0027343972
-1.1453296e-07
0.0022526707
-8.8975967e-08
6.7373972e-08
0.0022523919
1.2062338e-07
2.5581324e-09
0.0027342596
1.1162099e-07
-1.2362217e-07
0.0031593384
1.0876315e-07
-2.904975e-07
0.003612044
1.094377e-07
0.082745582
8.1081329e-07
-1.1353229e-06
-2.7567511e-07
0.082745597
3.9956132e-06
-1.3942558e-06
-3.2274767e-07
0.0036119018
3.2225272e-07
-3.4092581e-07
0.0031591725
3.0140148e-07
-2.7533424e-07
0.002734017
2.7749988e-07
0.0022519603
2.4006519e-07
4.3107865e-07
0.0022514349
4.0633591e-07
6.6247492e-07
0.0027336694
4.7199963e-07
8.2075106e-07
0.0031588883
5.2119203e-07
9.5642384e-07
0.003611633
5.6792354e-07
0.082747343
7.7340907e-06
-1.5652363e-06
-1.0443754e-06
0.082748951
1.1171832e-05
-9.7328372e-07
-8.7978617e-07
0.0036113483
8.1312432e-07
-6.9385974e-07
0.0031585933
7.4403492e-07
-4.3741095e-07
0.0027333159
6.7187229e-07
0.0022509191
5.7627639e-07
4.3440936e-07
0.0022504228
6.6229213e-07
6.8818371e-07
0.002732983
7.7416051e-07
8.6815618e-07
0.0031583216
8.5898047e-07
1.0230586e-06
0.0036110892
9.4013385e-07
0.082750322
1.3009483e-05
-4.4081031e-07
-1.0416502e-06
0.082751805
1.2429609e-05
-6.9132184e-08
-8.8460158e-07
0.00361087
8.9301424e-07
-7.0147933e-07
0.0031580866
8.1520706e-07
-4.4512164e-07
0.0027326849
7.3428418e-07
0.0022499502
6.2773045e-07
4.5130271e-07
0.0022495218
4.6865552e-07
7.1999586e-07
0.0027324336
5.4745856e-07
9.1627232e-07
0.0031579032
6.0822232e-07
1.0896608e-06
0.0036107044
6.6749546e-07
0.082753647
9.4138033e-06
2.2878919e-07
-1.0641922e-06
0.08275571
4.8088308e-06
5.2534057e-07
-8.9498813e-07
0.003610618
3.2571646e-07
-6.9931688e-07
0.0031577885
2.9557907e-07
-4.3746984e-07
0.0027322491
2.658986e-07
0.0022491564
2.28907e-07
3.9357954e-07
0.0022488515
1.1257573e-08
6.1415235e-07
0.0027321304
5.2670767e-09
7.6708878e-07
0.0031577473
2.5511682e-09
8.9971151e-07
0.003610606
1.3588917e-09
0.082757693
1.0489632e-07
7.2196386e-07
-7.7163785e-07
0.082759619
-3.620996e-06
8.1903904e-07
-6.6632354e-07
0.0036106464
-2.5006657e-07
-5.4019267e-07
0.0031577526
-2.2376063e-07
-3.548062e-07
0.0027320601
-1.9384382e-07
0.0022485887
-1.5037678e-07
3.5330032e-07
0.0022483412
-2.4806286e-07
5.3943597e-07
0.0027320014
-3.0545407e-07
6.6314678e-07
0.0031577744
-3.487964e-07
7.7263564e-07
0.0036106994
-3.8851176e-07
0.082761525
-5.6664106e-06
9.4872737e-07
-8.2838007e-07
0.08276316
-5.8403746e-06
1.2733101e-06
-7.020862e-07
0.0036107452
-4.090323e-07
-5.5729382e-07
0.0031577858
-3.6915701e-07
-3.5765406e-07
0.0027319396
-3.2446248e-07
0.0022480981
-2.6324534e-07
3.5671043e-07
0.0022478369
-1.8106404e-07
5.589367e-07
0.0027318537
-2.3116004e-07
7.0635774e-07
0.0031577704
-2.6666417e-07
8.4019006e-07
0.0036107572
-2.9791495e-07
0.082764198
-4.3666275e-06
1.6967048e-06
-8.4495654e-07
0.082764479
-2.060206e-06
2.2203521e-06
-7.0267323e-07
0.0036107186
-1.2297008e-07
-5.5022554e-07
0.0031577112
-1.0542016e-07
-3.4834407e-07
0.0027317333
-8.4249178e-08
0.0022475549
-5.361196e-08
3.4314824e-07
0.002247251
7.4643218e-08
5.4806716e-07
0.0027315774
6.3512621e-08
7.0997134e-07
0.0031576066
5.6905289e-08
8.6231184e-07
0.0036106312
5.3236944e-08
0.082763932
2.8841435e-07
2.8804506e-06
-9.1125099e-07
0.082762565
2.2952674e-06
3.6803258e-06
-7.3679588e-07
0.0036104934
2.028969e-07
-5.6063e-07
0.0031574619
1.9495851e-07
-3.4317884e-07
0.0027313862
1.8941421e-07
0.0022469291
1.8479823e-07
3.5364875e-07
0.0022465852
2.7642723e-07
5.9119067e-07
0.0027311611
2.9285273e-07
7.9364811e-07
0.0031572757
3.075374e-07
9.9819289e-07
0.003610309
3.2454018e-07
0.082760291
3.9194194e-06
4.7443833e-06
-1.1280496e-06
0.082756911
5.2858707e-06
6.1690468e-06
-8.7998243e-07
0.0036100731
4.2890663e-07
-6.3772817e-07
0.0031570424
4.0476644e-07
-3.7361724e-07
0.0027309028
3.8280914e-07
0.0022462161
3.5732851e-07
3.9836465e-07
0.002245822
4.3889596e-07
7.0817627e-07
0.0027305985
4.7226387e-07
9.9906436e-07
0.0031567603
5.0054599e-07
1.3049242e-06
0.0036097794
5.3096375e-07
0.082752141
6.5716286e-06
8.0810395e-06
-1.5303713e-06
0.08274514
8.0042302e-06
1.1028503e-05
-1.1536891e-06
0.0036094187
6.4834471e-07
-7.9947675e-07
0.0031564178
6.1130399e-07
-4.3936081e-07
0.0027302464
5.761795e-07
0.0022453888
5.3428165e-07
4.8549798e-07
0.0022449123
6.5136304e-07
9.115029e-07
0.0027298308
7.0401199e-07
1.3445477e-06
0.0031559998
7.4743915e-07
1.8089093e-06
0.0036089752
7.9227634e-07
0.082733797
9.7328076e-06
1.6341142e-05
-2.1737367e-06
0.08271297
1.1841101e-05
2.7281237e-05
-1.5938976e-06
0.0036084265
9.6873139e-07
-1.0612101e-06
0.0031554899
9.1433241e-07
-5.5120839e-07
0.002729337
8.6124549e-07
0.0022443759
7.9630809e-07
6.2812946e-07
0.0022437705
9.7075611e-07
1.242844e-06
0.0027287487
1.0500319e-06
1.8924991e-06
0.0031548768
1.1144519e-06
2.5994894e-06
0.0036077697
1.1797403e-06
0.082671248
1.4331082e-05
5.0450984e-05
-3.22832e-06
0.082586946
1.7044104e-05
9.6877765e-05
-2.3302341e-06
0.0036069601
1.4190609e-06
-1.5077699e-06
0.0031541184
1.3430547e-06
-7.4346363e-07
0.0027280312
1.268202e-06
0.0022430666
1.177116e-06
8.9974227e-07
0.002242214
1.3735214e-06
1.8511215e-06
0.0027271502
1.4764396e-06
2.8793015e-06
0.0031531933
1.559435e-06
4.005594e-06
0.0036059813
1.6430179e-06
0.082426219
1.9481321e-05
0.00017929412
-6.5804186e-06
0.082152019
2.1031844e-05
0.00030360209
-4.6929246e-06
0.0036043876
1.8382585e-06
-2.966049e-06
0.0031516863
1.7579884e-06
-1.4061195e-06
0.0027257584
1.6811781e-06
0.0022409551
1.5968131e-06
2.8752563e-06
0.0022382705
1.6295642e-06
6.122024e-06
0.0027227917
1.715683e-06
9.7696964e-06
0.0031484165
1.7807155e-06
1.391141e-05
0.0036007475
1.8471299e-06
0.081749046
2.0628422e-05
0.00045104451
-4.0431243e-05
0.081270706
2.2512767e-05
0.00057508031
-2.8152494e-05
0.003590024
2.2451653e-06
-1.7424405e-05
0.0031390337
2.2043287e-06
-8.0691635e-06
0.002714631
2.1697674e-06
0.0022313276
2.1223881e-06
1.9312648e-05
0.00221387
1.769761e-06
4.2339831e-05
0.0026940064
1.9995942e-06
6.8931009e-05
0.0031152164
2.0813367e-06
9.9698729e-05
0.0035624052
2.1178092e-06
0.080862435
2.6789906e-05
0.00060029291
-0.0002000461
0.080742303
8.8749197e-05
0.00055304461
-0.00013783729
0.0035132316
6.6453797e-06
-8.4444863e-05
0.0030739039
6.2103566e-06
-3.8610899e-05
0.0026596262
5.5765392e-06
0.0021864022
4.5635262e-06
5.4678759e-05
0.0021445777
1.9088384e-06
0.00011720322
0.0026124972
3.4900866e-06
0.0001890834
0.003019391
4.660891e-06
0.00027252848
0.0034488473
5.723029e-06
0.080786071
0.00013119908
0.00060562414
-0.0010417326
0.00040977914
0.0017558709
-0.00075989961
4.4582164e-05
-0.00049762577
4.4124279e-05
-0.00024798778
4.0294382e-05
2.9628816e-05
5.4499717e-05
-0.0021795695
-5.9411628e-06
2.309266e-06
0.00011784486
-0.0026517372
-2.718232e-06
-1.7330743e-06
0.00019100408
-0.0030648818
-5.1914239e-07
-4.7269282e-06
0.00027619127
-0.0035029852
1.2845384e-06
-7.5484834e-06
-0.080561706
0.00015120885
-0.00034580579
0.00054531108
-0.00019424088
-0.080752783
4.4599081e-05
-0.00017758916
0.00051831045
-0.00013350771
-0.0035565147
3.9753577e-08
-7.2410789e-06
-8.1818324e-05
-0.0031100194
-3.915298e-07
-6.1576166e-06
-3.7621078e-05
-0.0026895014
-1.1384884e-06
-5.2886457e-06
-0.0022101633
-2.4330585e-06
-4.5942378e-06
1.8192264e-05
-0.0022294164
-4.5647169e-06
5.6255303e-06
3.99296e-05
-0.0027123232
-4.6946733e-06
5.7795336e-06
6.525247e-05
-0.0031363686
-4.8222701e-06
5.8493165e-06
9.4828775e-05
-0.0035869799
-4.9653202e-06
5.854764e-06
-0.081204876
-4.0745583e-05
2.5851901e-05
0.00056181754
-3.720904e-05
-0.081706154
-4.6659529e-05
3.7728643e-05
0.00054741916
-2.5732368e-05
-0.0035988299
-4.0058639e-06
4.3789111e-06
-1.58201e-05
-0.0031467266
-3.7409279e-06