/*--------------------------------*- C++ -*----------------------------------*\
  =========                 |
  \\      /  F ield         | OpenFOAM: The Open Source CFD Toolbox
   \\    /   O peration     | Website:  https://openfoam.org
    \\  /    A nd           | Version:  7
     \\/     M anipulation  |
\*---------------------------------------------------------------------------*/
FoamFile
{
    version     2.0;
    format      ascii;
    class       volScalarField;
    location    "160";
    object      rho;
}
// * * * * * * * * * * * * * * * * * * * * * * * * * * * * * * * * * * * * * //

dimensions      [1 -3 0 0 0 0 0];

internalField   nonuniform List<scalar> 
25201
(
1.1738981
1.1738915
1.1738983
1.1738921
1.1738711
1.1738777
1.1738839
1.173889
1.1738814
1.1738705
1.1738813
1.1738773
1.1738715
1.1739038
1.1739169
1.1738636
1.173871
1.1738761
1.1738457
1.1738993
1.1738701
1.1738799
1.1738582
1.1739019
1.1738994
1.1738886
1.1738777
1.1738702
1.1738796
1.1738877
1.1738898
1.173867
1.1739482
1.1739328
1.173915
1.1739199
1.1738749
1.1738924
1.1739352
1.1739474
1.173889
1.1738974
1.1738997
1.1739576
1.1739549
1.1739492
1.1739116
1.1738902
1.1738717
1.1738724
1.1738745
1.1738714
1.1738731
1.1738732
1.1738713
1.1738666
1.1738686
1.1738793
1.1738723
1.1738854
1.1738593
1.1738867
1.1738758
1.1738759
1.1738548
1.1738606
1.1738565
1.1738565
1.1738734
1.1738764
1.1738933
1.1738698
1.1738812
1.1738726
1.1738769
1.1738996
1.1738781
1.1738836
1.1739051
1.1738873
1.173891
1.1738706
1.1739101
1.1738947
1.1739159
1.1738793
1.1739109
1.1739062
1.1738829
1.1738934
1.1738722
1.1739313
1.1739151
1.1739317
1.1739208
1.1738643
1.1738656
1.1739263
1.1739628
1.1739509
1.1739422
1.1739617
1.1739626
1.1739522
1.1739318
1.1739692
1.1739722
1.1739194
1.1739478
1.1739623
1.1739416
1.1739319
1.1739913
1.1739952
1.1740452
1.1740306
1.1740065
1.174037
1.1740274
1.1739851
1.1739438
1.1740193
1.1739837
1.1740126
1.1740433
1.1739792
1.1739668
1.1739473
1.1738927
1.1739321
1.1739445
1.1739528
1.1739508
1.1739431
1.1739341
1.1739193
1.1739097
1.1739086
1.1738858
1.1738674
1.1738663
1.1738756
1.1738855
1.1738585
1.1738778
1.1738721
1.1738734
1.173871
1.1738742
1.1738604
1.1738548
1.1738758
1.1738738
1.173857
1.1738568
1.1738548
1.1738713
1.17387
1.1738791
1.173872
1.1738941
1.1738687
1.1738787
1.1738893
1.1738683
1.1738848
1.1739032
1.1738835
1.173935
1.1739134
1.1739161
1.1738947
1.1738894
1.1738893
1.1738826
1.1738964
1.1738894
1.1739069
1.1739577
1.1739276
1.1739498
1.1738989
1.1739337
1.1739785
1.1739421
1.1739966
1.1739545
1.1739973
1.1740037
1.1740269
1.173989
1.1739613
1.1739569
1.1739056
1.1739309
1.1738713
1.1738793
1.1740266
1.1740175
1.1739408
1.1739495
1.173932
1.1739685
1.1739136
1.1739291
1.1739606
1.1739837
1.1739717
1.1739187
1.1739836
1.1740126
1.1740439
1.1739794
1.1740081
1.1739986
1.1739766
1.1738922
1.1738983
1.1738691
1.1738706
1.1738797
1.1738999
1.1739331
1.1738906
1.1738882
1.1738889
1.1738975
1.1739548
1.1739576
1.1739483
1.1739473
1.1739351
1.1738926
1.173875
1.173868
1.1739156
1.1739198
1.1739063
1.1738802
1.1738715
1.173324
1.173468
1.1736749
1.1738151
1.1741564
1.1748021
1.1748064
1.174767
1.1747019
1.1746569
1.1744101
1.1744214
1.1744317
1.1744383
1.1744563
1.174434
1.1744301
1.1744293
1.1744279
1.174428
1.1742881
1.174289
1.1742896
1.1742901
1.1743006
1.17423
1.1742225
1.1742222
1.1742216
1.174221
1.1741465
1.1741477
1.1741485
1.174149
1.1741564
1.1741012
1.1740951
1.1740946
1.1740937
1.1740924
1.1740438
1.1740454
1.1740463
1.1740469
1.1740522
1.1740114
1.1740066
1.174006
1.1740049
1.1740032
1.1739675
1.1739694
1.1739705
1.1739711
1.1739756
1.1739445
1.17394
1.1739393
1.1739381
1.173936
1.1739079
1.1739102
1.1739115
1.1739122
1.1739168
1.1738919
1.1738871
1.1738862
1.1738848
1.1738824
1.1738592
1.1738618
1.1738633
1.1738642
1.1738694
1.1738487
1.1738431
1.173842
1.1738403
1.1738376
1.1738178
1.1738206
1.1738224
1.1738236
1.1738297
1.173812
1.1738051
1.1738038
1.1738018
1.1737989
1.1737815
1.1737846
1.1737866
1.1737881
1.1737955
1.17378
1.1737718
1.1737702
1.173768
1.1737649
1.1737493
1.1737524
1.1737546
1.1737565
1.1737654
1.1737517
1.1737419
1.17374
1.1737377
1.1737346
1.1737212
1.1737242
1.1737265
1.1737285
1.1737389
1.1737264
1.1737152
1.173713
1.1737105
1.1737076
1.1736957
1.1736984
1.1737009
1.1737032
1.1737149
1.1737044
1.1736921
1.1736896
1.1736873
1.1736848
1.1736751
1.1736773
1.1736795
1.173682
1.1736946
1.1736851
1.1736722
1.1736696
1.1736674
1.1736656
1.1736561
1.1736578
1.1736599
1.1736626
1.173676
1.1736707
1.173656
1.1736535
1.173652
1.1736511
1.1736552
1.1736542
1.1736537
1.173655
1.173668
1.1736566
1.1736425
1.1736404
1.1736397
1.1736399
1.1736575
1.1736417
1.1736408
1.173642
1.1736437
1.1736582
1.1736558
1.1736533
1.1736534
1.1736685
1.1736711
1.1736539
1.1736521
1.1736519
1.173652
1.1736492
1.1736514
1.1736544
1.1736577
1.1736744
1.1736839
1.1736686
1.1736654
1.1736623
1.1736598
1.1736687
1.1736718
1.1736751
1.1736783
1.1736937
1.1737036
1.1736884
1.1736853
1.173682
1.1736786
1.1736893
1.173693
1.1736965
1.1736996
1.1737142
1.173726
1.1737121
1.1737094
1.1737062
1.1737027
1.1737168
1.1737203
1.173723
1.1737254
1.1737385
1.1737513
1.1737391
1.173737
1.1737345
1.1737313
1.1737457
1.1737491
1.1737516
1.1737536
1.1737649
1.1737797
1.1737693
1.1737676
1.1737653
1.173762
1.1737784
1.1737817
1.1737839
1.1737855
1.1737951
1.1738115
1.1738026
1.1738012
1.1737991
1.1737961
1.1738144
1.1738175
1.1738195
1.1738208
1.173829
1.1738479
1.1738403
1.1738391
1.1738374
1.1738345
1.1738557
1.1738585
1.1738602
1.1738612
1.1738683
1.1738906
1.1738838
1.1738829
1.1738814
1.1738789
1.1739037
1.1739062
1.1739076
1.1739084
1.173915
1.1739422
1.1739356
1.1739349
1.1739336
1.1739314
1.1739617
1.1739639
1.1739652
1.1739658
1.1739726
1.1740076
1.1740002
1.1739996
1.1739985
1.1739966
1.1740354
1.1740371
1.1740382
1.1740389
1.1740472
1.1740947
1.1740851
1.1740845
1.1740836
1.1740821
1.1741331
1.1741345
1.1741354
1.174136
1.1741479
1.1742181
1.1742051
1.1742047
1.1742041
1.1742032
1.1742673
1.1742681
1.1742688
1.1742693
1.1742858
1.1744069
1.1743924
1.1743917
1.174391
1.1743905
1.1744226
1.1744262
1.1744314
1.1744349
1.1744492
1.1747081
1.1746373
1.174617
1.174587
1.1745624
1.1744352
1.1744992
1.1745329
1.1745446
1.1744617
1.1748376
1.1719151
1.1718764
1.1717884
1.1716777
1.1748479
1.1749023
1.1749356
1.174946
1.1748272
1.1749249
1.1748583
1.1748394
1.1748116
1.1747897
1.1745845
1.1745854
1.1745895
1.1745916
1.1745927
1.1745045
1.1744978
1.174498
1.1744978
1.1744984
1.1743435
1.1743434
1.1743435
1.1743435
1.1743534
1.1742674
1.1742593
1.1742593
1.1742589
1.1742586
1.1741748
1.1741757
1.1741763
1.1741765
1.1741845
1.1741229
1.1741163
1.174116
1.1741152
1.1741141
1.1740604
1.1740618
1.1740627
1.1740631
1.1740689
1.1740249
1.1740194
1.1740189
1.1740179
1.1740162
1.1739777
1.1739796
1.1739807
1.1739812
1.1739864
1.1739535
1.1739481
1.1739475
1.1739462
1.1739441
1.1739143
1.1739166
1.173918
1.1739187
1.1739242
1.1738983
1.1738924
1.1738915
1.17389
1.1738875
1.1738632
1.1738659
1.1738675
1.1738684
1.1738748
1.1738536
1.1738465
1.1738454
1.1738437
1.1738409
1.1738203
1.1738232
1.1738251
1.1738263
1.1738339
1.1738159
1.1738074
1.173806
1.1738041
1.1738011
1.1737831
1.1737863
1.1737883
1.1737899
1.1737991
1.1737835
1.1737733
1.1737716
1.1737694
1.1737662
1.1737503
1.1737536
1.1737558
1.1737577
1.1737688
1.1737552
1.1737431
1.1737411
1.1737387
1.1737355
1.1737207
1.1737241
1.1737268
1.1737291
1.1737418
1.1737288
1.1737152
1.1737124
1.1737092
1.1737055
1.1736918
1.1736956
1.1736992
1.1737023
1.1737167
1.1737059
1.1736909
1.1736877
1.1736841
1.1736806
1.1736708
1.173674
1.1736774
1.1736807
1.1736959
1.1736861
1.173671
1.1736677
1.1736643
1.1736615
1.1736513
1.1736537
1.1736568
1.1736602
1.1736767
1.1736734
1.1736562
1.1736544
1.173654
1.1736539
1.1736617
1.1736594
1.1736568
1.1736569
1.1736716
1.1736626
1.1736489
1.173648
1.1736493
1.1736513
1.1736335
1.173633
1.1736337
1.1736359
1.1736511
1.1736344
1.1736338
1.1736345
1.1736366
1.1736499
1.1736617
1.1736491
1.173648
1.1736489
1.1736506
1.173655
1.1736541
1.1736535
1.1736547
1.173669
1.173673
1.1736584
1.1736567
1.1736563
1.1736563
1.1736538
1.173656
1.1736587
1.1736617
1.1736762
1.1736853
1.1736723
1.1736693
1.1736664
1.1736641
1.1736733
1.1736761
1.1736791
1.1736821
1.173695
1.173705
1.1736926
1.1736897
1.1736866
1.1736835
1.1736946
1.173698
1.1737012
1.173704
1.1737158
1.173728
1.1737168
1.1737144
1.1737116
1.1737084
1.1737225
1.1737257
1.1737282
1.1737304
1.1737408
1.1737543
1.1737445
1.1737426
1.1737405
1.1737375
1.173752
1.1737551
1.1737572
1.173759
1.173768
1.1737828
1.1737745
1.173773
1.1737709
1.173768
1.1737846
1.1737876
1.1737896
1.173791
1.1737985
1.1738154
1.1738086
1.1738073
1.1738055
1.1738027
1.1738216
1.1738244
1.1738262
1.1738273
1.1738335
1.1738532
1.1738476
1.1738467
1.1738451
1.1738425
1.1738644
1.173867
1.1738685
1.1738694
1.1738745
1.1738981
1.1738934
1.1738927
1.1738913
1.1738889
1.1739154
1.1739177
1.173919
1.1739196
1.173924
1.1739536
1.1739493
1.1739487
1.1739475
1.1739455
1.1739789
1.1739808
1.1739818
1.1739823
1.1739866
1.1740254
1.1740208
1.1740204
1.1740195
1.1740179
1.174062
1.1740635
1.1740644
1.1740648
1.1740698
1.1741245
1.1741186
1.1741183
1.1741176
1.1741165
1.1741778
1.1741788
1.1741794
1.1741797
1.174187
1.1742721
1.1742645
1.1742644
1.1742639
1.1742635
1.1743525
1.1743526
1.1743529
1.174353
1.1743628
1.1745243
1.1745197
1.1745204
1.1745211
1.174523
1.1746699
1.1746601
1.1746532
1.1746488
1.174653
1.1750813
1.1751005
1.1751237
1.1751618
1.1751983
1.1756037
1.1755226
1.175414
1.1753443
1.1752457
1.1740445
1.1735995
1.1734391
1.1732005
1.1730379
1.1748516
1.1748896
1.1749533
1.1749927
1.1749601
1.1744926
1.1744717
1.1744657
1.1744553
1.1744428
1.1744677
1.1744672
1.1744686
1.1744693
1.1744716
1.1743236
1.1743127
1.1743123
1.1743115
1.1743105
1.1742399
1.1742404
1.174241
1.1742413
1.1742484
1.1741703
1.1741629
1.1741624
1.1741616
1.1741604
1.1741041
1.1741054
1.1741062
1.1741067
1.1741123
1.1740611
1.174056
1.1740555
1.1740546
1.1740531
1.1740111
1.1740128
1.1740138
1.1740143
1.1740187
1.1739818
1.1739775
1.173977
1.1739759
1.1739741
1.1739417
1.1739438
1.1739449
1.1739455
1.1739497
1.1739212
1.1739168
1.1739161
1.1739148
1.1739126
1.1738869
1.1738892
1.1738906
1.1738913
1.1738959
1.1738728
1.1738678
1.173867
1.1738655
1.173863
1.1738413
1.1738439
1.1738455
1.1738465
1.1738519
1.1738327
1.1738266
1.1738255
1.1738238
1.173821
1.1738024
1.1738052
1.173807
1.1738083
1.1738148
1.1737983
1.173791
1.1737896
1.1737877
1.1737848
1.1737684
1.1737714
1.1737733
1.1737748
1.1737828
1.1737683
1.1737595
1.1737578
1.1737558
1.1737529
1.1737385
1.1737413
1.1737434
1.1737452
1.1737547
1.1737418
1.1737316
1.1737296
1.1737275
1.1737247
1.1737118
1.1737145
1.1737167
1.1737188
1.1737297
1.1737183
1.1737065
1.1737043
1.1737021
1.1736995
1.1736883
1.1736908
1.173693
1.1736953
1.1737076
1.1736977
1.1736848
1.1736824
1.1736802
1.173678
1.1736688
1.1736707
1.1736728
1.1736753
1.1736886
1.1736799
1.1736662
1.1736637
1.1736617
1.1736602
1.173654
1.173655
1.1736566
1.1736591
1.1736728
1.1736671
1.1736537
1.1736513
1.17365
1.1736497
1.1736443
1.1736441
1.1736453
1.1736476
1.17366
1.1736516
1.1736383
1.173636
1.1736352
1.1736357
1.1736344
1.1736337
1.1736342
1.1736361
1.1736495
1.1736615
1.1736489
1.1736479
1.1736491
1.173651
1.1736555
1.1736544
1.1736534
1.1736545
1.1736688
1.1736727
1.173658
1.1736564
1.1736562
1.1736563
1.1736533
1.1736554
1.173658
1.173661
1.1736756
1.1736845
1.1736715
1.1736684
1.1736654
1.173663
1.1736718
1.1736748
1.173678
1.1736811
1.1736941
1.1737042
1.1736916
1.1736886
1.1736853
1.173682
1.1736929
1.1736965
1.1737
1.1737029
1.173715
1.1737272
1.1737159
1.1737133
1.1737102
1.1737067
1.173721
1.1737244
1.1737272
1.1737295
1.1737401
1.1737537
1.1737437
1.1737418
1.1737394
1.1737363
1.1737509
1.1737541
1.1737564
1.1737582
1.1737674
1.1737823
1.1737739
1.1737723
1.1737702
1.1737672
1.1737839
1.1737869
1.173789
1.1737904
1.173798
1.1738149
1.1738081
1.1738068
1.173805
1.1738021
1.1738211
1.1738239
1.1738257
1.1738268
1.1738329
1.1738526
1.173847
1.173846
1.1738444
1.1738417
1.1738639
1.1738664
1.173868
1.1738688
1.1738739
1.1738975
1.1738927
1.173892
1.1738906
1.1738883
1.1739146
1.1739169
1.1739182
1.1739189
1.1739233
1.1739527
1.1739483
1.1739478
1.1739466
1.1739446
1.1739778
1.1739797
1.1739807
1.1739812
1.1739856
1.1740242
1.1740195
1.1740191
1.1740181
1.1740165
1.1740604
1.1740619
1.1740628
1.1740632
1.1740683
1.1741227
1.1741168
1.1741165
1.1741158
1.1741147
1.1741761
1.174177
1.1741775
1.1741777
1.174185
1.17427
1.1742625
1.1742626
1.1742626
1.1742625
1.1743523
1.1743517
1.1743511
1.1743507
1.1743604
1.1745227
1.1745183
1.1745199
1.1745222
1.1745253
1.1746657
1.1746551
1.1746466
1.1746414
1.1746466
1.1750905
1.1751074
1.175132
1.1751724
1.1752121
1.1755856
1.1754873
1.1753637
1.1752881
1.1752067
1.1746659
1.174704
1.1747
1.1746866
1.1746726
1.1749352
1.1749426
1.1749621
1.1749747
1.1749902
1.1745763
1.1745703
1.174569
1.1745661
1.1745648
1.1744962
1.1744943
1.1744936
1.1744929
1.1744962
1.1743433
1.1743329
1.1743329
1.1743328
1.1743328
1.1742507
1.174251
1.1742513
1.1742513
1.1742589
1.1741778
1.1741697
1.1741693
1.1741687
1.1741677
1.1741084
1.1741096
1.1741103
1.1741107
1.1741171
1.1740645
1.1740585
1.1740581
1.1740571
1.1740557
1.1740125
1.1740142
1.1740152
1.1740157
1.174021
1.1739834
1.1739781
1.1739775
1.1739764
1.1739745
1.1739415
1.1739437
1.1739449
1.1739455
1.1739507
1.1739219
1.1739164
1.1739157
1.1739143
1.173912
1.1738856
1.1738881
1.1738896
1.1738904
1.1738962
1.173873
1.1738666
1.1738657
1.1738641
1.1738614
1.1738394
1.1738422
1.1738439
1.173845
1.1738519
1.1738324
1.1738247
1.1738235
1.1738216
1.1738187
1.1737996
1.1738026
1.1738046
1.173806
1.1738144
1.1737977
1.1737884
1.1737868
1.1737846
1.1737815
1.1737646
1.1737678
1.1737701
1.1737718
1.173782
1.1737673
1.1737561
1.1737542
1.1737518
1.1737485
1.1737339
1.1737372
1.1737396
1.1737417
1.1737536
1.1737403
1.1737276
1.1737252
1.1737225
1.1737191
1.1737041
1.1737078
1.173711
1.1737138
1.1737273
1.1737152
1.1737009
1.1736978
1.1736942
1.1736904
1.1736793
1.1736829
1.1736864
1.1736896
1.1737044
1.1736944
1.1736793
1.1736761
1.1736727
1.1736695
1.1736602
1.1736629
1.1736662
1.1736695
1.1736846
1.1736752
1.1736585
1.1736552
1.1736521
1.1736499
1.1736525
1.1736526
1.1736529
1.1736547
1.1736721
1.1736705
1.1736549
1.1736548
1.1736573
1.1736598
1.1736485
1.1736467
1.1736455
1.1736465
1.1736608
1.1736492
1.1736331
1.1736308
1.17363
1.1736304
1.1736483
1.1736341
1.1736316
1.1736305
1.1736306
1.1736415
1.1736413
1.1736421
1.1736443
1.1736581
1.1736687
1.1736548
1.1736535
1.173654
1.173655
1.1736503
1.1736515
1.1736531
1.1736557
1.1736708
1.1736762
1.1736625
1.1736598
1.1736576
1.173656
1.1736655
1.1736674
1.1736697
1.1736724
1.1736853
1.1736947
1.1736821
1.1736795
1.1736773
1.1736751
1.173685
1.1736876
1.17369
1.1736925
1.1737047
1.1737153
1.1737037
1.1737013
1.1736989
1.1736962
1.1737082
1.1737112
1.1737136
1.1737159
1.173727
1.1737396
1.1737293
1.1737273
1.173725
1.1737222
1.1737356
1.1737387
1.173741
1.1737429
1.1737527
1.1737664
1.1737574
1.1737556
1.1737534
1.1737504
1.173766
1.1737691
1.1737712
1.1737729
1.1737811
1.1737967
1.1737892
1.1737877
1.1737858
1.1737828
1.1738004
1.1738034
1.1738053
1.1738066
1.1738134
1.1738312
1.173825
1.1738238
1.1738221
1.1738193
1.1738394
1.1738421
1.1738438
1.1738448
1.1738505
1.1738715
1.1738662
1.1738653
1.1738638
1.1738613
1.1738849
1.1738873
1.1738887
1.1738895
1.1738945
1.1739199
1.1739151
1.1739144
1.1739131
1.1739109
1.1739397
1.1739418
1.173943
1.1739436
1.1739483
1.1739804
1.1739755
1.173975
1.1739739
1.1739721
1.1740089
1.1740106
1.1740116
1.1740121
1.1740174
1.17406
1.1740538
1.1740534
1.1740526
1.1740512
1.174102
1.1741032
1.1741039
1.1741043
1.1741113
1.1741699
1.1741609
1.1741606
1.1741599
1.174159
1.1742383
1.1742386
1.174239
1.174239
1.1742485
1.1743266
1.1743128
1.1743127
1.1743125
1.1743119
1.1744688
1.1744675
1.1744679
1.1744679
1.1744752
1.1745133
1.1744881
1.1744827
1.1744729
1.1744616
1.174859
1.1748949
1.1749571
1.1749942
1.1749654
1.1741619
1.17376
1.1736152
1.1733993
1.1732534
1.1735251
1.1736715
1.1738822
1.1740231
1.1743614
1.174947
1.1749524
1.1749139
1.1748503
1.1748056
1.1744905
1.1744997
1.17451
1.1745163
1.1745405
1.174494
1.1744876
1.1744871
1.1744858
1.1744863
1.174328
1.1743287
1.1743291
1.1743293
1.174342
1.174261
1.1742524
1.1742523
1.1742519
1.1742517
1.1741695
1.1741705
1.1741711
1.1741714
1.1741797
1.1741194
1.1741129
1.1741126
1.1741119
1.1741108
1.1740582
1.1740596
1.1740605
1.1740608
1.1740665
1.1740229
1.1740179
1.1740175
1.1740166
1.174015
1.1739769
1.1739788
1.1739798
1.1739803
1.1739849
1.1739522
1.1739477
1.1739471
1.1739459
1.173944
1.1739147
1.1739168
1.1739181
1.1739187
1.1739232
1.1738974
1.1738925
1.1738918
1.1738904
1.173888
1.1738641
1.1738667
1.1738681
1.173869
1.1738741
1.1738529
1.1738473
1.1738463
1.1738447
1.1738421
1.1738218
1.1738245
1.1738262
1.1738273
1.1738334
1.1738155
1.1738087
1.1738074
1.1738056
1.1738028
1.1737851
1.1737881
1.17379
1.1737914
1.1737987
1.1737832
1.173775
1.1737735
1.1737715
1.1737685
1.173753
1.1737559
1.173758
1.1737597
1.1737686
1.1737549
1.1737452
1.1737434
1.1737412
1.1737384
1.1737246
1.1737275
1.1737297
1.1737317
1.1737419
1.1737293
1.1737182
1.173716
1.1737135
1.1737107
1.1736982
1.1737011
1.1737035
1.173706
1.1737176
1.1737069
1.1736946
1.1736921
1.1736896
1.173687
1.1736769
1.1736793
1.1736817
1.1736843
1.1736969
1.1736874
1.1736746
1.1736719
1.1736695
1.1736675
1.1736582
1.1736601
1.1736624
1.1736652
1.1736785
1.173673
1.1736585
1.173656
1.1736543
1.1736532
1.1736579
1.173657
1.1736564
1.1736577
1.1736705
1.1736608
1.1736478
1.1736458
1.1736451
1.1736456
1.1736351
1.1736347
1.1736357
1.173638
1.1736514
1.1738918
1.1738816
1.1738917
1.1738814
1.1738654
1.1738741
1.1738791
1.1738802
1.1738753
1.1738741
1.1738608
1.1738531
1.1738753
1.1738617
1.1738429
1.1738477
1.173859
1.1738498
1.1738286
1.1738236
1.1738376
1.173854
1.1738404
1.1738361
1.1738513
1.1738616
1.1738554
1.1738269
1.1738332
1.1738235
1.1738364
1.1738064
1.1738234
1.1738078
1.1737936
1.1737796
1.1738146
1.1738113
1.1738242
1.1738296
1.1738327
1.1738161
1.1738128
1.1738346
1.1738505
1.1738546
1.173877
1.1738733
1.1738776
1.1738568
1.1738576
1.1738815
1.1739019
1.1738773
1.1738886
1.1738775
1.1738776
1.1738701
1.1738916
1.1738982
1.1738778
1.173872
1.1747589
1.1748331
1.1749207
1.1750637
1.1751651
1.174947
1.174906
1.1748606
1.1748344
1.1748251
1.1744718
1.1744589
1.1744635
1.1744722
1.1744825
1.1744026
1.1744011
1.1744003
1.1743998
1.1744078
1.1742789
1.1742654
1.1742648
1.1742641
1.1742635
1.1741998
1.1742006
1.1742014
1.1742019
1.1742117
1.1741425
1.1741329
1.1741323
1.1741313
1.17413
1.1740804
1.1740818
1.1740827
1.1740832
1.1740905
1.1740442
1.1740377
1.1740371
1.1740361
1.1740345
1.1739964
1.1739981
1.1739991
1.1739997
1.1740052
1.1739712
1.1739659
1.1739653
1.1739642
1.1739623
1.1739323
1.1739344
1.1739356
1.1739362
1.1739411
1.1739145
1.1739094
1.1739087
1.1739074
1.1739051
1.1738806
1.173883
1.1738843
1.1738851
1.1738903
1.1738684
1.1738628
1.1738619
1.1738604
1.1738579
1.1738372
1.1738398
1.1738414
1.1738424
1.1738482
1.1738297
1.1738232
1.1738221
1.1738204
1.1738176
1.1737996
1.1738024
1.1738042
1.1738054
1.1738123
1.1737963
1.1737886
1.1737872
1.1737853
1.1737825
1.1737666
1.1737694
1.1737713
1.1737728
1.1737811
1.1737669
1.1737578
1.1737562
1.1737542
1.1737514
1.1737373
1.1737401
1.173742
1.1737438
1.1737536
1.173741
1.1737304
1.1737285
1.1737265
1.1737239
1.1737113
1.1737138
1.1737158
1.1737178
1.1737291
1.1737179
1.1737058
1.1737037
1.1737017
1.1736993
1.1736882
1.1736905
1.1736925
1.1736947
1.1737074
1.1736975
1.1736842
1.1736818
1.1736798
1.1736776
1.1736683
1.1736702
1.1736722
1.1736746
1.1736883
1.1736797
1.1736658
1.1736632
1.1736612
1.1736596
1.1736522
1.1736535
1.1736554
1.1736581
1.1736719
1.1736653
1.1736517
1.1736491
1.1736474
1.1736467
1.1736414
1.1736415
1.173643
1.1736455
1.1736583
1.17365
1.1736367
1.1736344
1.1736333
1.1736337
1.1736432
1.173642
1.1736412
1.1736424
1.1736563
1.1736657
1.1736516
1.1736504
1.1736512
1.1736522
1.1736551
1.1736551
1.1736553
1.173657
1.1736712
1.1736749
1.1736603
1.1736574
1.1736551
1.1736534
1.1736628
1.1736649
1.1736675
1.1736704
1.1736838
1.1736934
1.1736801
1.1736774
1.1736749
1.1736726
1.1736819
1.1736848
1.1736875
1.1736903
1.1737032
1.1737136
1.1737013
1.1736986
1.1736958
1.1736927
1.1737049
1.1737082
1.173711
1.1737135
1.1737251
1.1737369
1.1737262
1.173724
1.1737214
1.1737182
1.1737319
1.1737352
1.1737377
1.1737398
1.1737495
1.1737634
1.1737545
1.1737526
1.1737501
1.1737469
1.1737625
1.1737658
1.1737682
1.1737699
1.1737783
1.1737935
1.1737856
1.173784
1.1737818
1.1737787
1.1737959
1.173799
1.173801
1.1738025
1.1738097
1.1738271
1.1738205
1.1738193
1.1738174
1.1738145
1.173834
1.1738369
1.1738386
1.1738397
1.1738458
1.1738659
1.1738602
1.1738593
1.1738577
1.1738551
1.1738774
1.17388
1.1738815
1.1738823
1.1738876
1.1739116
1.1739064
1.1739056
1.1739043
1.173902
1.1739285
1.1739307
1.173932
1.1739327
1.1739379
1.1739678
1.1739624
1.1739618
1.1739606
1.1739587
1.1739921
1.173994
1.173995
1.1739956
1.1740013
1.1740397
1.1740331
1.1740326
1.1740316
1.17403
1.1740744
1.1740759
1.1740768
1.1740773
1.1740847
1.1741355
1.1741261
1.1741255
1.1741247
1.1741235
1.1741896
1.1741905
1.1741911
1.1741916
1.1742014
1.1742653
1.1742523
1.1742517
1.174251
1.1742503
1.1743702
1.1743702
1.1743707
1.174371
1.1743798
1.1744349
1.1744245
1.174426
1.1744291
1.1744338
1.1747731
1.1747497
1.1747228
1.1747076
1.1747102
1.1746358
1.1747252
1.174788
1.1748823
1.1749451
1.1733156
1.1732537
1.1736388
1.1742333
1.1746658
1.1791222
1.1831732
1.1832352
1.1833245
1.1833682
1.1727206
1.1728809
1.1731146
1.1732736
1.1737644
1.1748018
1.1748383
1.1748021
1.1747452
1.1747114
1.1742962
1.1743074
1.1743158
1.1743208
1.174344
1.1743662
1.1743613
1.1743604
1.1743592
1.1743595
1.1742229
1.1742243
1.1742252
1.1742259
1.1742387
1.1741844
1.1741756
1.174175
1.1741742
1.1741734
1.1741076
1.174109
1.1741099
1.1741106
1.1741193
1.1740726
1.1740656
1.174065
1.174064
1.1740626
1.17402
1.1740216
1.1740226
1.1740232
1.1740293
1.1739937
1.1739881
1.1739875
1.1739864
1.1739847
1.1739525
1.1739544
1.1739555
1.1739562
1.1739612
1.1739331
1.1739281
1.1739274
1.1739262
1.1739241
1.1738984
1.1739007
1.173902
1.1739027
1.1739076
1.1738848
1.1738796
1.1738787
1.1738773
1.1738749
1.1738533
1.1738558
1.1738573
1.1738583
1.1738636
1.1738444
1.1738385
1.1738374
1.1738358
1.1738332
1.1738146
1.1738173
1.1738189
1.1738201
1.1738263
1.1738097
1.1738027
1.1738015
1.1737997
1.1737969
1.1737806
1.1737834
1.1737852
1.1737866
1.173794
1.1737794
1.1737711
1.1737696
1.1737677
1.1737649
1.1737502
1.173753
1.1737549
1.1737566
1.1737654
1.1737523
1.1737426
1.1737408
1.1737388
1.173736
1.1737227
1.1737255
1.1737275
1.1737295
1.1737398
1.1737281
1.1737169
1.1737148
1.1737127
1.17371
1.1736982
1.1737008
1.1737029
1.1737051
1.1737169
1.1737065
1.173694
1.1736916
1.1736895
1.1736871
1.1736772
1.1736794
1.1736815
1.1736839
1.1736968
1.1736878
1.1736745
1.173672
1.1736699
1.173668
1.17366
1.1736616
1.1736636
1.1736661
1.1736795
1.1736721
1.1736586
1.173656
1.1736542
1.1736531
1.1736476
1.1736483
1.1736499
1.1736524
1.1736654
1.1736582
1.1736453
1.1736429
1.1736418
1.1736418
1.1736339
1.1736334
1.1736344
1.1736367
1.1736503
1.1736349
1.1736352
1.1736363
1.1736387
1.1736534
1.1736625
1.1736485
1.1736461
1.1736447
1.1736442
1.1736504
1.1736514
1.1736529
1.1736554
1.1736698
1.1736768
1.1736626
1.1736603
1.1736589
1.1736579
1.1736672
1.1736685
1.1736699
1.1736721
1.1736857
1.173695
1.1736817
1.1736797
1.1736784
1.1736769
1.173687
1.1736888
1.1736903
1.1736922
1.1737048
1.1737153
1.1737033
1.1737016
1.1737003
1.1736985
1.1737096
1.1737119
1.1737134
1.1737151
1.1737263
1.1737349
1.1737236
1.1737208
1.1737173
1.1737135
1.1737254
1.1737297
1.1737338
1.1737368
1.1737465
1.1737612
1.1737522
1.1737495
1.1737457
1.1737416
1.1737635
1.1737665
1.1737687
1.1737703
1.1737783
1.1737933
1.1737851
1.1737837
1.1737818
1.1737787
1.1737953
1.1737984
1.1738003
1.1738016
1.173809
1.1738261
1.1738194
1.1738183
1.1738165
1.1738137
1.1738328
1.1738356
1.1738372
1.1738383
1.1738444
1.1738642
1.1738585
1.1738575
1.173856
1.1738534
1.1738752
1.1738777
1.1738792
1.17388
1.1738854
1.173909
1.1739036
1.1739029
1.1739015
1.1738992
1.1739252
1.1739274
1.1739287
1.1739294
1.1739347
1.173964
1.1739583
1.1739576
1.1739564
1.1739544
1.1739868
1.1739887
1.1739898
1.1739905
1.1739964
1.1740336
1.1740267
1.174026
1.174025
1.1740233
1.1740663
1.1740678
1.1740687
1.1740693
1.1740769
1.1741259
1.1741162
1.1741156
1.1741148
1.1741136
1.1741773
1.1741781
1.1741786
1.174179
1.1741889
1.1742499
1.1742369
1.1742365
1.1742362
1.1742357
1.1743523
1.1743516
1.1743514
1.1743513
1.1743599
1.1744099
1.1744001
1.1744024
1.1744069
1.1744128
1.1747473
1.1747217
1.1746927
1.1746761
1.1746751
1.1746143
1.1747006
1.1747656
1.1748658
1.1749322
1.1732594
1.1731826
1.1736864
1.1742186
1.174625
1.1747863
1.1727242
1.1723608
1.1723493
1.1722429
1.1787443
1.1789413
1.1783791
1.177729
1.1770089
1.1777512
1.1804015
1.1808619
1.1807784
1.1807371
1.1751717
1.1750708
1.1749369
1.1748562
1.1747852
1.1748774
1.1748796
1.1749046
1.1749476
1.1749875
1.1745139
1.1745036
1.1744942
1.174489
1.174499
1.1744322
1.1744246
1.174426
1.1744283
1.174431
1.1742854
1.1742852
1.1742847
1.1742846
1.1742967
1.1742256
1.1742164
1.1742163
1.1742161
1.1742158
1.174142
1.174143
1.1741436
1.174144
1.1741528
1.1740987
1.1740916
1.1740912
1.1740904
1.1740892
1.1740414
1.174043
1.1740439
1.1740443
1.1740504
1.1740103
1.1740049
1.1740044
1.1740034
1.1740017
1.1739667
1.1739686
1.1739697
1.1739702
1.1739751
1.1739444
1.1739396
1.173939
1.1739378
1.1739358
1.173908
1.1739102
1.1739115
1.1739122
1.173917
1.1738925
1.1738874
1.1738866
1.1738853
1.1738829
1.1738599
1.1738624
1.1738639
1.1738648
1.1738701
1.1738497
1.1738439
1.1738428
1.1738412
1.1738386
1.173819
1.1738217
1.1738234
1.1738245
1.1738308
1.1738134
1.1738063
1.1738051
1.1738033
1.1738005
1.1737832
1.1737861
1.173788
1.1737894
1.173797
1.1737817
1.1737733
1.1737718
1.1737698
1.1737669
1.1737516
1.1737545
1.1737566
1.1737583
1.1737674
1.1737539
1.1737439
1.1737421
1.17374
1.1737371
1.1737235
1.1737263
1.1737285
1.1737305
1.1737411
1.1737291
1.1737176
1.1737155
1.1737133
1.1737105
1.1736985
1.1737012
1.1737034
1.1737056
1.1737178
1.1737072
1.1736943
1.1736919
1.1736897
1.1736873
1.1736772
1.1736794
1.1736816
1.173684
1.1736974
1.1736882
1.1736744
1.1736718
1.1736698
1.1736678
1.1736596
1.1736613
1.1736632
1.1736658
1.1736797
1.1736722
1.1736582
1.1736557
1.1736539
1.1736528
1.1736476
1.1736482
1.1736497
1.1736522
1.1736656
1.1736587
1.173646
1.1736437
1.1736426
1.1736427
1.1736347
1.1736342
1.173635
1.1736372
1.1736504
1.1736507
1.1736355
1.1736333
1.1736325
1.1736329
1.1736412
1.1736412
1.1736424
1.1736448
1.1736592
1.1736665
1.1736512
1.1736487
1.1736474
1.1736469
1.1736513
1.1736525
1.1736543
1.1736569
1.1736729
1.1736802
1.1736641
1.1736616
1.1736596
1.1736581
1.173666
1.1736681
1.1736702
1.1736729
1.1736887
1.1736979
1.1736824
1.1736798
1.1736777
1.1736754
1.1736854
1.1736881
1.1736904
1.1736928
1.1737078
1.1737185
1.1737041
1.1737018
1.1736996
1.1736969
1.1737088
1.1737117
1.173714
1.1737163
1.1737298
1.1737419
1.1737292
1.1737271
1.1737249
1.173722
1.1737355
1.1737386
1.1737408
1.1737428
1.1737547
1.1737683
1.1737572
1.1737554
1.1737533
1.1737502
1.1737655
1.1737687
1.1737708
1.1737725
1.1737828
1.1737982
1.1737887
1.1737872
1.1737852
1.1737822
1.1737996
1.1738026
1.1738046
1.173806
1.1738146
1.1738323
1.1738244
1.1738232
1.1738214
1.1738185
1.1738384
1.1738413
1.173843
1.1738441
1.1738514
1.1738722
1.1738654
1.1738645
1.1738629
1.1738603
1.1738837
1.1738862
1.1738877
1.1738886
1.1738949
1.17392
1.1739139
1.1739131
1.1739118
1.1739095
1.1739377
1.1739399
1.1739412
1.1739419
1.1739479
1.1739795
1.1739732
1.1739726
1.1739714
1.1739695
1.1740053
1.1740072
1.1740083
1.1740089
1.1740157
1.1740573
1.1740495
1.1740489
1.1740479
1.1740463
1.1740954
1.1740968
1.1740977
1.1740982
1.1741071
1.1741636
1.1741522
1.1741517
1.1741509
1.1741496
1.1742252
1.174226
1.1742266
1.174227
1.1742389
1.1743124
1.1742958
1.1742953
1.1742948
1.1742941
1.1744418
1.1744411
1.1744411
1.1744412
1.1744525
1.1744955
1.1744744
1.1744723
1.1744696
1.174467
1.1748254
1.174831
1.1748488
1.174862
1.1748992
1.1744106
1.1743231
1.174305
1.1742778
1.174245
1.1747457
1.1717682
1.1717275
1.171639
1.1715354
1.1745678
1.1745992
1.1746026
1.1745966
1.174477
1.1746924
1.1746273
1.1746144
1.1745968
1.1745822
1.1744102
1.1744096
1.1744108
1.1744117
1.1744184
1.174383
1.1743732
1.1743733
1.1743737
1.1743742
1.1742486
1.174249
1.1742493
1.1742496
1.1742621
1.1742
1.1741901
1.1741897
1.1741891
1.1741884
1.1741209
1.1741221
1.1741229
1.1741235
1.174133
1.1740834
1.1740756
1.174075
1.1740741
1.1740727
1.1740282
1.1740298
1.1740309
1.1740314
1.1740383
1.1740008
1.1739945
1.1739939
1.1739928
1.173991
1.1739578
1.1739598
1.1739609
1.1739616
1.1739674
1.1739383
1.1739324
1.1739317
1.1739304
1.1739283
1.1739016
1.173904
1.1739053
1.1739061
1.173912
1.1738885
1.1738822
1.1738813
1.1738798
1.1738774
1.1738551
1.1738577
1.1738593
1.1738603
1.1738668
1.1738471
1.1738399
1.1738388
1.1738371
1.1738344
1.1738152
1.1738181
1.1738198
1.173821
1.1738287
1.1738117
1.1738032
1.1738019
1.1738
1.1737971
1.1737801
1.1737831
1.1737851
1.1737865
1.1737958
1.1737808
1.1737707
1.1737691
1.1737671
1.1737641
1.1737489
1.1737519
1.173754
1.1737558
1.1737667
1.1737535
1.1737415
1.1737396
1.1737375
1.1737345
1.1737211
1.173724
1.1737262
1.1737282
1.1737409
1.1737291
1.1737154
1.1737132
1.173711
1.1737082
1.1736963
1.173699
1.1737012
1.1737035
1.1737179
1.1737075
1.1736923
1.1736899
1.1736877
1.1736853
1.1736752
1.1736775
1.1736797
1.1736822
1.1736977
1.1736886
1.1736726
1.1736701
1.173668
1.173666
1.1736578
1.1736596
1.1736616
1.1736642
1.1736801
1.1736724
1.1736566
1.173654
1.1736521
1.1736509
1.1736455
1.1736463
1.1736479
1.1736505
1.1736656
1.1736585
1.1736442
1.1736418
1.1736405
1.1736405
1.1736324
1.1736321
1.1736331
1.1736354
1.1736504
1.1736341