/*--------------------------------*- C++ -*----------------------------------*\
  =========                 |
  \\      /  F ield         | OpenFOAM: The Open Source CFD Toolbox
   \\    /   O peration     | Website:  https://openfoam.org
    \\  /    A nd           | Version:  7
     \\/     M anipulation  |
\*---------------------------------------------------------------------------*/
FoamFile
{
    version     2.0;
    format      ascii;
    class       volScalarField;
    location    "160";
    object      T;
}
// * * * * * * * * * * * * * * * * * * * * * * * * * * * * * * * * * * * * * //

dimensions      [0 0 0 1 0 0 0];

internalField   nonuniform List<scalar> 
25201
(
299.99521
299.99406
299.99524
299.99414
299.9936
299.99337
299.994
299.99355
299.99248
299.99226
299.99246
299.99332
299.99317
299.99846
299.99968
299.99361
299.99419
299.99482
299.99412
299.99617
299.99476
299.9971
299.99626
299.99779
299.99514
299.99672
299.99702
299.99499
299.9957
299.99696
299.9963
299.99546
299.99991
299.99872
299.99737
300.00026
299.99795
299.99896
300.00171
300.00289
299.99966
300.00016
299.99744
300.00066
300.00361
300.00518
300.00119
299.99731
299.99377
299.99329
299.99196
299.99194
299.99586
299.99499
299.99372
299.99461
299.99438
299.99551
299.99597
299.99957
299.99799
299.99657
299.99718
299.99621
299.99459
299.99227
299.99327
299.99676
299.99868
300.00089
300.00192
300.00015
299.99651
299.99697
299.99778
300.00342
300.00182
300.00116
300.00001
299.99899
299.99807
299.99697
299.99896
300.00003
300.00145
299.99916
300.0005
299.99888
299.99969
299.9998
300.00129
300.00353
300.00221
300.00065
299.9993
299.99849
299.99623
299.99699
299.99847
299.99745
299.99983
300.00083
300.00258
300.00133
300.00276
300.0039
300.00615
300.00467
300.00301
299.99933
299.99889
300.00144
300.00282
300.00029
300.00256
300.00079
300.00361
300.00526
300.00718
300.0047
300.00311
300.00531
300.00689
300.00859
300.01132
300.00906
300.00635
300.00286
299.99956
300.00098
300.00201
300.00264
300.00469
300.00404
300.00298
300.00161
300.00021
299.99877
299.99648
299.99426
299.99454
299.99714
299.99949
299.99784
299.99527
299.99585
299.99493
299.99368
299.99192
299.99225
299.99458
299.99619
299.99865
299.99675
299.99325
299.9939
299.99189
299.99355
299.99617
299.99683
300.00183
299.99991
299.99895
299.99777
299.99676
299.99861
299.99954
300.00087
300.00407
300.00273
300.00126
299.9999
300.00235
299.99978
300.00054
300.00272
300.00244
300.0012
300.00445
300.0055
300.00828
300.00623
300.00535
300.00695
300.00773
300.00995
300.00826
300.00753
300.00941
300.01203
300.00972
300.00795
300.00436
300.00105
300.0033
300.00097
299.99929
300.00675
300.005
300.00276
300.00094
300.00246
300.00352
300.00181
300.00014
300.00209
300.00424
300.00581
300.0044
300.00668
300.0083
300.01109
300.00891
300.00733
300.00549
300.00241
299.99415
299.99525
299.99278
299.99515
299.99575
299.99749
299.99905
299.99655
299.99713
299.99978
300.0002
300.00366
300.00073
300.00012
300.00303
300.00194
299.99914
299.99818
299.99578
299.99778
300.00055
299.9992
299.99736
299.99441
300.18157
300.19169
300.19147
300.18782
300.15843
300.10959
300.10111
300.09811
300.0934
300.08697
300.10166
300.10158
300.10197
300.10223
300.10219
300.08744
300.08699
300.08684
300.0867
300.08638
300.082
300.08159
300.08122
300.08096
300.07948
300.07175
300.07386
300.07425
300.07476
300.07534
300.07138
300.07055
300.06988
300.06933
300.06628
300.06171
300.06532
300.06598
300.06676
300.06772
300.065
300.06393
300.06307
300.06231
300.05812
300.05511
300.05981
300.06066
300.06159
300.06274
300.06084
300.05966
300.0587
300.05777
300.05268
300.05049
300.05597
300.05697
300.05798
300.05916
300.05749
300.05634
300.05533
300.05426
300.04842
300.0463
300.05251
300.05364
300.05466
300.05575
300.05371
300.05273
300.05173
300.05054
300.04396
300.04126
300.04822
300.04947
300.05045
300.05131
300.04838
300.04768
300.04675
300.04546
300.03821
300.03486
300.04224
300.04355
300.04442
300.04493
300.04091
300.04059
300.03981
300.0385
300.03111
300.02689
300.03423
300.03552
300.03619
300.03628
300.03098
300.03112
300.03057
300.02932
300.02214
300.01688
300.0238
300.025
300.02541
300.02499
300.01831
300.01899
300.01874
300.01762
300.0111
300.00479
300.0108
300.01181
300.01188
300.01089
300.00285
300.00412
300.00423
300.00333
299.99797
299.99069
299.99533
299.99609
299.99578
299.9942
299.98501
299.98687
299.98737
299.98677
299.98295
299.97481
299.97772
299.97816
299.97744
299.97527
299.96514
299.96757
299.96849
299.96824
299.96632
299.95767
299.95864
299.9587
299.95756
299.95492
299.94491
299.94765
299.94885
299.9489
299.94887
299.93966
299.93859
299.93829
299.93687
299.9339
299.9406
299.93878
299.93847
299.93707
299.93421
299.94522
299.94787
299.9491
299.94921
299.94981
299.95854
299.95893
299.95891
299.95769
299.95502
299.9651
299.96767
299.96871
299.96855
299.96714
299.9756
299.97825
299.9786
299.97777
299.97545
299.98555
299.98749
299.98805
299.98748
299.9837
299.99138
299.99624
299.99694
299.99656
299.99491
300.00385
300.00516
300.00529
300.0044
299.99861
300.00536
300.01202
300.01302
300.01306
300.01204
300.0197
300.02036
300.02009
300.01895
300.01161
300.01733
300.02522
300.02642
300.02682
300.02642
300.03253
300.03264
300.03206
300.03077
300.02253
300.02721
300.03571
300.03701
300.0377
300.03781
300.04252
300.04214
300.04132
300.03997
300.03137
300.03504
300.04368
300.04501
300.04591
300.04647
300.04993
300.04916
300.04817
300.04683
300.03832
300.04132
300.04953
300.05081
300.05182
300.05272
300.0551
300.05403
300.05296
300.05173
300.04393
300.04617
300.05359
300.05475
300.05582
300.05697
300.05865
300.05741
300.05632
300.05519
300.04814
300.0501
300.05677
300.05782
300.05889
300.06015
300.06173
300.06045
300.0594
300.05841
300.05221
300.05461
300.06028
300.06117
300.06216
300.0634
300.06545
300.06425
300.06332
300.0625
300.0574
300.06073
300.06517
300.06587
300.06672
300.0678
300.07103
300.07007
300.06931
300.0687
300.06494
300.06998
300.07266
300.07311
300.07371
300.07446
300.07994
300.07945
300.07901
300.0787
300.07693
300.08425
300.08435
300.08437
300.08449
300.08463
300.09345
300.09436
300.09491
300.09526
300.09632
300.10417
300.10348
300.1028
300.1014
300.09954
300.08434
300.08161
300.08478
300.08935
300.12884
300.11064
299.96459
299.94543
299.92792
299.91056
300.11992
300.12022
300.12426
300.12905
300.16628
300.12869
300.12995
300.12935
300.12784
300.12532
300.10863
300.11017
300.11094
300.11136
300.11205
300.09468
300.09511
300.09512
300.09516
300.095
300.08676
300.08652
300.08618
300.08591
300.08408
300.075
300.07768
300.0781
300.07864
300.07923
300.07432
300.07348
300.07279
300.07221
300.06852
300.06331
300.06769
300.06837
300.06918
300.07018
300.06708
300.06596
300.06506
300.06428
300.05924
300.05591
300.06154
300.06242
300.06339
300.0646
300.06252
300.06127
300.06025
300.05928
300.05311
300.05074
300.05737
300.05841
300.05948
300.06075
300.059
300.05776
300.05668
300.05557
300.04855
300.04637
300.05379
300.05496
300.05604
300.05722
300.05514
300.05406
300.053
300.05177
300.04395
300.04122
300.04945
300.05074
300.05177
300.05271
300.04976
300.04898
300.04799
300.04666
300.03815
300.0348
300.04344
300.04479
300.04571
300.04631
300.04226
300.04185
300.04103
300.03968
300.03106
300.02686
300.03539
300.03671
300.03743
300.03761
300.03226
300.03232
300.03173
300.03045
300.02215
300.01695
300.02489
300.0261
300.02655
300.02622
300.01938
300.02
300.01972
300.01858
300.0112
300.00492
300.0116
300.01261
300.0127
300.01174
300.00339
300.00467
300.0048
300.00393
299.99812
299.99088
299.99572
299.99643
299.99608
299.99447
299.98497
299.9869
299.98747
299.98693
299.98319
299.97508
299.97766
299.978
299.97719
299.97491
299.96444
299.96699
299.96805
299.96791
299.96662
299.95803
299.95823
299.9582
299.95699
299.95437
299.94441
299.9471
299.94837
299.94852
299.94937
299.94043
299.9383
299.93792
299.93642
299.93341
299.9219
299.92512
299.92683
299.92744
299.93115
299.92285
299.92602
299.92768
299.92823
299.93102
299.94035
299.9389
299.93858
299.93712
299.93415
299.94493
299.94769
299.94895
299.94904
299.9493
299.958
299.95885
299.9589
299.95777
299.95515
299.96526
299.96772
299.96867
299.96842
299.9666
299.97512
299.97798
299.97839
299.97764
299.97541
299.98535
299.98722
299.98771
299.9871
299.98328
299.99103
299.99574
299.99649
299.99617
299.99457
300.00338
300.00463
300.00472
300.00379
299.99833
300.0052
300.01133
300.01235
300.01242
300.01143
300.01895
300.01961
300.01932
300.01817
300.01152
300.01731
300.02438
300.02558
300.02599
300.0256
300.03161
300.03172
300.03114
300.02986
300.02253
300.02726
300.03475
300.03604
300.03671
300.03682
300.04149
300.04113
300.04033
300.03901
300.03148
300.03525
300.04275
300.04406
300.04492
300.04544
300.04893
300.04821
300.04726
300.04596
300.03859
300.04164
300.04874
300.04999
300.05097
300.05183
300.05431
300.0533
300.05228
300.05108
300.04439
300.04682
300.05312
300.05425
300.05527
300.05636
300.05822
300.05704
300.05601
300.05494
300.04899
300.05118
300.05678
300.05778
300.05879
300.05997
300.06186
300.06066
300.05968
300.05875
300.05355
300.05639
300.06108
300.06192
300.06284
300.06397
300.06659
300.06553
300.06467
300.06392
300.05973
300.06385
300.06745
300.06809
300.06885
300.06978
300.07413
300.07335
300.07269
300.07215
300.06914
300.07583
300.07792
300.0783
300.07878
300.07928
300.08745
300.08729
300.08698
300.08673
300.08527
300.09687
300.09737
300.09741
300.09745
300.09707
300.11793
300.11914
300.1191
300.11882
300.11625
300.13895
300.14745
300.1488
300.15002
300.14996
300.19604
300.19238
300.19188
300.19149
300.18293
300.18416
300.26124
300.27086
300.27473
300.26532
300.09676
300.1045
300.10906
300.11145
300.1155
300.10687
300.10787
300.10775
300.10752
300.10801
300.08881
300.08928
300.08943
300.08958
300.09001
300.08137
300.08286
300.08312
300.08349
300.08387
300.07637
300.07585
300.07537
300.07501
300.07297
300.06711
300.0701
300.07064
300.0713
300.0721
300.06808
300.06715
300.06641
300.06577
300.06222
300.05841
300.06253
300.06328
300.06413
300.06518
300.06269
300.06158
300.06067
300.05984
300.05523
300.05264
300.05768
300.05859
300.05956
300.06071
300.05889
300.05773
300.05674
300.05576
300.05035
300.04819
300.05398
300.05503
300.05604
300.05717
300.05533
300.05426
300.05325
300.05214
300.04598
300.04355
300.05011
300.05129
300.05229
300.05326
300.05077
300.04993
300.04896
300.04771
300.04077
300.03769
300.04492
300.04621
300.04713
300.04783
300.04434
300.04381
300.04295
300.04165
300.03431
300.03052
300.0379
300.0392
300.03998
300.04029
300.03564
300.03553
300.03486
300.03357
300.02626
300.0215
300.02867
300.02992
300.03047
300.03033
300.02435
300.02474
300.02433
300.02313
300.01623
300.01044
300.01698
300.0181
300.01835
300.01768
300.01033
300.01128
300.01118
300.01015
300.00412
299.9973
300.00275
300.00366
300.00357
300.00232
299.99372
299.99523
299.99551
299.99473
299.99001
299.9823
299.98621
299.98683
299.98635
299.98453
299.97485
299.97695
299.97764
299.97718
299.97422
299.96583
299.96777
299.96802
299.96711
299.96472
299.95432
299.95696
299.95808
299.95802
299.95719
299.94839
299.94812
299.94796
299.94664
299.94375
299.93308
299.93616
299.93763
299.93796
299.93936
299.93006
299.92757
299.92702
299.92537
299.9222
299.92306
299.9262
299.92783
299.92836
299.93108
299.94045
299.93904
299.93873
299.93728
299.93433
299.94507
299.94782
299.94908
299.94917
299.94943
299.95814
299.95895
299.959
299.95786
299.95524
299.96531
299.96779
299.96875
299.96852
299.96674
299.97524
299.97806
299.97847
299.97771
299.97547
299.98541
299.98731
299.98781
299.9872
299.9834
299.99116
299.99585
299.9966
299.99628
299.99467
300.0035
300.00476
300.00485
300.00393
299.99846
300.00531
300.01146
300.01249
300.01257
300.01159
300.01913
300.01977
300.01948
300.01832
300.01162
300.0174
300.02452
300.02573
300.02616
300.02578
300.0318
300.03189
300.0313
300.03001
300.02263
300.02736
300.03489
300.03619
300.03687
300.03699
300.04164
300.04128
300.04047
300.03914
300.03158
300.03535
300.04286
300.04417
300.04504
300.04556
300.04903
300.04831
300.04736
300.04605
300.03869
300.04173
300.04882
300.05007
300.05104
300.05189
300.05437
300.05337
300.05235
300.05115
300.04447
300.04689
300.05317
300.05429
300.05531
300.05639
300.05824
300.05707
300.05604
300.05497
300.04904
300.05121
300.0568
300.0578
300.0588
300.05998
300.06185
300.06067
300.05969
300.05875
300.05357
300.05638
300.06107
300.06191
300.06283
300.06396
300.06657
300.0655
300.06464
300.06389
300.05969
300.06377
300.0674
300.06804
300.06881
300.06975
300.0741
300.0733
300.07263
300.07208
300.06903
300.07565
300.07782
300.07821
300.07872
300.07925
300.08749
300.08727
300.08691
300.08664
300.08506
300.09655
300.09709
300.09715
300.09722
300.0969
300.11835
300.11944
300.11932
300.119
300.11619
300.13812
300.14562
300.1468
300.1479
300.14762
300.20893
300.20639
300.20541
300.20332
300.1886
300.18764
300.19218
300.19217
300.19087
300.18899
300.11996
300.12432
300.12662
300.12772
300.12779
300.11185
300.11314
300.11309
300.11281
300.11197
300.09385
300.09415
300.09416
300.09416
300.09374
300.08341
300.08546
300.08576
300.08616
300.08646
300.07875
300.07815
300.0776
300.07718
300.07444
300.06815
300.07193
300.07252
300.07324
300.0741
300.06999
300.06897
300.06816
300.06747
300.06305
300.05912
300.06419
300.06499
300.0659
300.06704
300.06456
300.06335
300.06238
300.06149
300.05586
300.05314
300.05933
300.0603
300.06133
300.06258
300.0608
300.05954
300.05848
300.05743
300.05082
300.04869
300.0557
300.05681
300.05789
300.05912
300.05733
300.05616
300.05509
300.05393
300.04655
300.04418
300.05197
300.0532
300.05425
300.05531
300.05288
300.05195
300.05093
300.04965
300.04147
300.03843
300.04692
300.04824
300.04921
300.04998
300.04653
300.04593
300.04503
300.04368
300.03509
300.03136
300.03997
300.0413
300.04212
300.04251
300.03785
300.03768
300.03697
300.03565
300.02716
300.02246
300.03074
300.03202
300.03261
300.03253
300.02649
300.02682
300.02638
300.02516
300.01726
300.01153
300.0189
300.02003
300.02031
300.01966
300.01202
300.01298
300.01291
300.0119
300.00525
299.99848
300.00427
300.00514
300.005
300.0037
299.99478
299.99639
299.99675
299.99604
299.99124
299.98356
299.98729
299.98783
299.98725
299.98529
299.97525
299.97753
299.97834
299.97799
299.97544
299.96698
299.96831
299.96845
299.96739
299.96481
299.9548
299.95743
299.95864
299.95865
299.95837
299.94968
299.94898
299.94883
299.94756
299.94487
299.93403
299.93696
299.93837
299.93867
299.94062
299.93126
299.92787
299.92729
299.92563
299.92246
299.93045
299.92814
299.92764
299.92606
299.92299
299.93401
299.93698
299.9384
299.93868
299.93982
299.94896
299.94895
299.94885
299.94758
299.94481
299.95494
299.95758
299.95869
299.95861
299.95767
299.96628
299.96827
299.96851
299.96756
299.96508
299.97532
299.97747
299.97816
299.9777
299.97475
299.9829
299.98678
299.98738
299.98685
299.98495
299.99424
299.9958
299.99609
299.99531
299.99062
299.99791
300.00334
300.00423
300.0041
300.00279
300.01091
300.01189
300.01179
300.01076
300.00473
300.01106
300.01762
300.01873
300.01896
300.01823
300.02497
300.02539
300.02497
300.02376
300.01685
300.02212
300.02931
300.03055
300.03107
300.03088
300.03625
300.03616
300.03549
300.03419
300.02686
300.03111
300.03851
300.0398
300.04056
300.04083
300.04493
300.04442
300.04355
300.04223
300.03487
300.03824
300.04548
300.04677
300.04768
300.04835
300.05134
300.05049
300.04951
300.04825
300.0413
300.04404
300.05062
300.0518
300.05279
300.05375
300.05585
300.05477
300.05374
300.05261
300.04643
300.04861
300.05442
300.05548
300.05648
300.05762
300.05935
300.05817
300.05716
300.05616
300.05073
300.05299
300.05804
300.05896
300.05993
300.06109
300.06308
300.06195
300.06102
300.06017
300.05554
300.05872
300.06283
300.06358
300.06443
300.06548
300.06838
300.06743
300.06667
300.06602
300.06252
300.06739
300.07031
300.07085
300.07151
300.07232
300.07667
300.07613
300.07564
300.07526
300.0733
300.08175
300.0831
300.08337
300.08373
300.08411
300.08953
300.08998
300.09012
300.09025
300.09078
300.10775
300.10874
300.10872
300.10857
300.10898
300.09692
300.10527
300.1096
300.112
300.118
300.18625
300.25723
300.26602
300.26951
300.26137
300.19655
300.20618
300.20591
300.20239
300.17486
300.121
300.1138
300.11104
300.10653
300.09983
300.11124
300.1117
300.1121
300.11202
300.1099
300.09252
300.09165
300.09146
300.0913
300.09087
300.08523
300.08493
300.08459
300.08434
300.08302
300.0742
300.07613
300.0765
300.07698
300.07748
300.07288
300.07209
300.07144
300.0709
300.06801
300.06291
300.0664
300.06704
300.0678
300.06872
300.06564
300.0646
300.06376
300.06301
300.05894
300.05564
300.06024
300.06108
300.06199
300.0631
300.06102
300.05986
300.0589
300.05798
300.05296
300.05062
300.05604
300.05703
300.05803
300.05919
300.05743
300.05628
300.05526
300.0542
300.04841
300.04617
300.05236
300.05349
300.0545
300.05558
300.05348
300.05249
300.05148
300.05029
300.04372
300.04093
300.04792
300.04917
300.05015
300.051
300.04803
300.04732
300.04638
300.04508
300.03783
300.03444
300.04184
300.04315
300.04402
300.04454
300.04049
300.04015
300.03936
300.03804
300.03064
300.02638
300.03376
300.03505
300.03573
300.03583
300.03051
300.03064
300.03008
300.02882
300.02163
300.01636
300.02332
300.02451
300.02492
300.02452
300.01783
300.01849
300.01822
300.01709
300.01055
300.00422
300.01028
300.0113
300.01138
300.0104
300.00234
300.00358
300.00368
300.00277
299.99738
299.99008
299.99478
299.99554
299.99524
299.99367
299.98445
299.98628
299.98678
299.98616
299.98235
299.97422
299.97713
299.97756
299.97685
299.9747
299.96455
299.96695
299.96788
299.96763
299.96577
299.95718
299.95803
299.95808
299.95694
299.95431
299.94421
299.94697
299.94822
299.94832
299.94851
299.93952
299.93817
299.93781
299.9363
299.93321
299.9222
299.92538
299.92703
299.92757
299.93016
299.99503
299.99335
299.99502
299.99334
299.98995
299.99135
299.99325
299.99286
299.98995
299.99136
299.98932
299.98602
299.98995
299.98745
299.98579
299.9879
299.99045
299.99199
299.98866
299.98967
299.98773
299.99093
299.99371
299.99521
299.9912
299.9891
299.98533
299.98395
299.98478
299.9811
299.98308
299.98089
299.98511
299.98487
299.9795
299.97819
299.97965
299.97862
299.98341
299.98741
299.98753
299.99053
299.99084
299.99599
299.99143
299.99441
299.99649
299.99581
300.00087
299.9987
299.99981
300.00222
300.00336
300.00153
299.99689
299.99763
299.99767
299.99356
299.99406
299.99521
299.99333
299.99319
300.1346
300.13988
300.14019
300.14089
300.14741
300.11918
300.1182
300.11659
300.11516
300.10762
300.09689
300.09925
300.09959
300.09986
300.09932
300.08386
300.0839
300.08376
300.0837
300.08336
300.0759
300.07739
300.07767
300.07807
300.07845
300.07255
300.0719
300.07138
300.07099
300.06889
300.06401
300.06705
300.0676
300.06829
300.06917
300.06591
300.06492
300.06415
300.0635
300.05989
300.05669
300.06087
300.06163
300.06249
300.06359
300.06154
300.06038
300.05946
300.05863
300.05396
300.05162
300.05679
300.05772
300.05869
300.05989
300.05831
300.05712
300.05611
300.05512
300.04955
300.04763
300.05355
300.05462
300.05565
300.05682
300.05514
300.05404
300.05302
300.05191
300.04566
300.04341
300.05004
300.05122
300.05223
300.05323
300.05087
300.05
300.04903
300.04779
300.04078
300.03781
300.0451
300.04639
300.04732
300.04803
300.04464
300.0441
300.04324
300.04194
300.03452
300.03081
300.03825
300.03955
300.04034
300.04068
300.03608
300.03596
300.03529
300.034
300.02662
300.02192
300.02915
300.03039
300.03095
300.03082
300.02487
300.02525
300.02484
300.02365
300.01668
300.01092
300.01751
300.01862
300.01889
300.01823
300.01091
300.01184
300.01174
300.01071
300.00462
299.99783
300.00331
300.00422
300.00415
300.00293
299.99435
299.99583
299.9961
299.99532
299.99056
299.98288
299.98678
299.98741
299.98695
299.98516
299.97549
299.97755
299.97822
299.97776
299.97481
299.96641
299.96833
299.96859
299.96771
299.96536
299.95491
299.95751
299.95861
299.95854
299.95774
299.94889
299.94855
299.94841
299.94709
299.94422
299.93343
299.93652
299.93801
299.93835
299.93987
299.93068
299.92792
299.92735
299.92566
299.92244
299.93483
299.93761
299.93894
299.93917
299.94025
299.94952
299.94952
299.94945
299.94822
299.94555
299.95587
299.95838
299.95944
299.95932
299.95837
299.96702
299.9689
299.96913
299.96816
299.96569
299.97591
299.9781
299.97881
299.97837
299.97553
299.9837
299.9875
299.98808
299.98754
299.98561
299.99492
299.99651
299.99682
299.99606
299.99145
299.99873
300.00411
300.00498
300.00483
300.00349
300.01163
300.01263
300.01255
300.01153
300.00551
300.01178
300.01836
300.01946
300.01968
300.01894
300.02572
300.02613
300.02571
300.02451
300.01753
300.02278
300.03005
300.03129
300.03181
300.03163
300.03698
300.03688
300.0362
300.0349
300.02748
300.03164
300.03915
300.04045
300.04122
300.04152
300.04555
300.04501
300.04412
300.0428
300.0353
300.03857
300.04597
300.04726
300.04818
300.04888
300.05174
300.05087
300.04987
300.04861
300.04153
300.04411
300.05081
300.052
300.05301
300.05401
300.05592
300.05479
300.05374
300.05261
300.04628
300.04818
300.0542
300.05527
300.05631
300.05749
300.05897
300.05775
300.05671
300.0557
300.05004
300.05209
300.05732
300.05825
300.05924
300.06044
300.06205
300.06087
300.05992
300.05907
300.05435
300.05699
300.06121
300.06197
300.06284
300.06397
300.06617
300.06514
300.06434
300.06369
300.06006
300.06401
300.06702
300.06757
300.06827
300.06916
300.07231
300.07161
300.07107
300.07068
300.06861
300.07509
300.07636
300.0766
300.07697
300.07739
300.08218
300.08214
300.08203
300.08201
300.08193
300.09344
300.09399
300.09398
300.09386
300.09308
300.11402
300.11241
300.11087
300.10943
300.1025
300.12161
300.11361
300.11079
300.10857
300.11147
300.00052
300.02142
300.04267
300.05849
300.1102
300.07049
300.06204
300.05636
300.05753
300.07314
300.24778
300.25424
300.25
300.23991
300.15921
300.09502
300.08957
300.08707
300.08271
300.07548
300.09513
300.09446
300.0946
300.09457
300.09295
300.07851
300.07843
300.0784
300.07843
300.07825
300.07534
300.07479
300.07438
300.0741
300.07267
300.06627
300.06829
300.06868
300.0692
300.06985
300.06701
300.06612
300.06543
300.06488
300.0619
300.05816
300.06172
300.06238
300.06316
300.06416
300.06209
300.06099
300.06013
300.05937
300.0552
300.05277
300.0574
300.05825
300.05917
300.06033
300.05879
300.0576
300.05663
300.0557
300.05064
300.04875
300.05419
300.05519
300.0562
300.05739
300.05594
300.05478
300.05376
300.0527
300.04689
300.04496
300.05113
300.05226
300.05328
300.05437
300.05246
300.05147
300.05047
300.04928
300.04274
300.04015
300.04707
300.04832
300.0493
300.05015
300.0473
300.04659
300.04567
300.04437
300.03716
300.03386
300.04122
300.04253
300.0434
300.04392
300.03995
300.03962
300.03884
300.03753
300.03015
300.02596
300.03329
300.03458
300.03526
300.03536
300.0301
300.03023
300.02968
300.02842
300.02126
300.01604
300.02294
300.02413
300.02455
300.02415
300.0175
300.01816
300.01791
300.01678
300.01028
300.00401
300.01002
300.01103
300.01112
300.01016
300.00217
300.00342
300.00351
300.00261
299.99722
299.98998
299.99465
299.99541
299.99511
299.99356
299.98442
299.98624
299.98673
299.98612
299.98232
299.97428
299.97716
299.97759
299.97689
299.97479
299.96476
299.96711
299.96801
299.96776
299.96591
299.95726
299.95805
299.9581
299.957
299.9544
299.94385
299.94666
299.94796
299.94809
299.94837
299.93925
299.93801
299.93765
299.93612
299.93305
299.92224
299.92542
299.92705
299.92756
299.92995
299.93431
299.93719
299.93859
299.93887
299.9401
299.94942
299.94929
299.94919
299.94792
299.94514
299.9558
299.95836
299.95942
299.9593
299.95836
299.96707
299.9691
299.96937
299.96847
299.9661
299.97629
299.97837
299.97903
299.97855
299.97555
299.98369
299.9876
299.98821
299.9877
299.98584
299.99507
299.99662
299.9969
299.99612
299.99142
299.99868
300.00411
300.00501
300.00488
300.00359
300.01153
300.0125
300.01242
300.01141
300.00541
300.01162
300.01802
300.01907
300.01922
300.0184
300.02513
300.02567
300.02532
300.02416
300.01738
300.02269
300.02986
300.03108
300.03159
300.03133
300.03707
300.03693
300.03621
300.03489
300.02743
300.03156
300.03914
300.04045
300.04124
300.0416
300.04554
300.04497
300.04407
300.04274
300.0352
300.03846
300.04586
300.04716
300.04809
300.0488
300.0516
300.05073
300.04973
300.04847
300.04139
300.04394
300.05063
300.05182
300.05283
300.05383
300.05571
300.05458
300.05353
300.05239
300.04606
300.0479
300.05395
300.05503
300.05607
300.05726
300.0587
300.05747
300.05643
300.05541
300.04972
300.0517
300.05697
300.05792
300.05891
300.06013
300.06165
300.06045
300.0595
300.05864
300.05386
300.05638
300.06067
300.06144
300.06232
300.06346
300.06553
300.06448
300.06366
300.06299
300.05927
300.06301
300.06614
300.06671
300.06742
300.06835
300.07126
300.07052
300.06994
300.06952
300.06731
300.07343
300.07488
300.07517
300.07558
300.07607
300.08046
300.08032
300.08014
300.08008
300.07978
300.09071
300.09166
300.09174
300.09175
300.09118
300.10985
300.10854
300.10699
300.10563
300.09905
300.11846
300.11164
300.10913
300.10681
300.10999
300.00419
300.02465
300.04564
300.06051
300.10671
300.08614
299.94713
299.92603
299.90788
299.89108
300.05325
300.03429
300.02532
300.02669
300.08614
300.08402
300.09345
300.09917
300.1084
300.12797
300.16226
300.15741
300.15627
300.15518
300.14636
300.11157
300.11809
300.11928
300.1206
300.12114
300.10203
300.10262
300.10243
300.10216
300.10011
300.08562
300.0858
300.08584
300.08597
300.08594
300.08009
300.0797
300.07931
300.07904
300.07764
300.07024
300.07227
300.07266
300.07318
300.07382
300.07008
300.06923
300.06855
300.06801
300.06505
300.06071
300.06426
300.0649
300.06567
300.06665
300.06413
300.06304
300.06219
300.06145
300.05732
300.05446
300.05909
300.05992
300.06084
300.06199
300.06021
300.05902
300.05805
300.05713
300.05201
300.04987
300.05541
300.05641
300.05741
300.0586
300.05701
300.05585
300.05483
300.05378
300.04789
300.04588
300.05212
300.05323
300.05425
300.05534
300.05339
300.05239
300.05138
300.0502
300.04358
300.04091
300.04795
300.04919
300.05017
300.05104
300.04819
300.04746
300.04653
300.04524
300.03792
300.03461
300.04209
300.04339
300.04426
300.0448
300.04084
300.04048
300.03969
300.03838
300.03088
300.02668
300.03414
300.03543
300.03612
300.03625
300.03099
300.03109
300.03052
300.02926
300.02197
300.01674
300.02378
300.02498
300.02541
300.02503
300.01837
300.01901
300.01874
300.01761
300.01097
300.00468
300.01083
300.01186
300.01195
300.01101
300.003
300.00422
300.0043
300.00338
299.99787
299.9906
299.9954
299.99617
299.99589
299.99437
299.98519
299.98697
299.98744
299.98681
299.9829
299.97483
299.9778
299.97825
299.97757
299.97549
299.96538
299.96771
299.9686
299.96833
299.96643
299.95778
299.95858
299.95864
299.95754
299.95493
299.94427
299.94712
299.94842
299.94856
299.94895
299.93995
299.93844
299.93807
299.93653
299.93344
299.92254
299.92572
299.9274
299.92795
299.93074
299.93118
299.92735
299.92671
299.92498
299.92177
299.93282
299.93593
299.93749
299.93791
299.94036
299.94929
299.94821
299.94799
299.94658
299.94363
299.95449
299.95716
299.95831
299.95829
299.95803
299.9666
299.96821
299.96841
299.96743
299.96499
299.97535
299.97747
299.97819
299.97777
299.97494
299.98296
299.98696
299.98753
299.98698
299.9851
299.99454
299.99608
299.99638
299.99561
299.99061
299.99786
300.00378
300.00465
300.00452
300.00323
300.01147
300.01242
300.01233
300.0113
300.00461
300.01086
300.01822
300.01934
300.01958
300.01889
300.02575
300.02612
300.02567
300.02445
300.01658
300.02179
300.03005
300.03131
300.03187
300.03175
300.03717
300.03701
300.03629
300.03496
300.02648
300.03069
300.03929
300.04062
300.04142
300.04178
300.04586
300.04527
300.04435
300.043
300.03441
300.03774
300.04624
300.04755
300.04851
300.04925
300.05219
300.05126
300.05023
300.04894
300.04078
300.04347
300.05123
300.05245
300.05349
300.05452
300.05654
300.05538
300.0543
300.05314
300.04581
300.04789
300.05485
300.05595
300.05701
300.05822
300.05986
300.0586
300.05754
300.05649
300.04994
300.05217
300.05828
300.05924
300.06026
300.06151
300.06336
300.06214
300.06116
300.06027
300.05472
300.05774
300.06274
300.06352
300.06443
300.06557
300.0682
300.06716
300.06633
300.06565
300.06132
300.06594
300.0696
300.07018
300.0709
300.0718
300.07567
300.075
300.07443
300.07401
300.07144
300.07929
300.08115
300.08146
300.08188
300.08232
300.08743
300.08758
300.08754
300.08755
300.08751
300.10272
300.10327
300.10319
300.10298
300.10261
300.10552
300.10952
300.11121
300.11203
300.1128
300.16339
300.17513
300.1763
300.17604
300.17552
300.12305
299.99564
299.97732
299.96029
299.94261
300.08611
300.08334
300.08597
300.09004
300.12552
300.10069
300.10245
300.10218
300.10134
300.10015
300.09141
300.09221
300.09262
300.09284
300.09291
300.08082
300.08135
300.08142
300.08162
300.08186
300.07734
300.07683
300.07638
300.07605
300.07406
300.06748
300.07025
300.0707
300.07131
300.07208
300.06895
300.06798
300.06723
300.06664
300.06284
300.05893
300.06337
300.06407
300.06491
300.066
300.06382
300.06264
300.06172
300.06092
300.05585
300.05324
300.05887
300.05975
300.06074
300.06198
300.06041
300.05913
300.0581
300.05713
300.05097
300.04898
300.0556
300.05664
300.05771
300.05898
300.05752
300.05628
300.0552
300.05409
300.04709
300.04517
300.05254
300.0537
300.05477
300.05594
300.05404
300.05297
300.05192
300.0507
300.04295
300.04037
300.04852
300.04979
300.05081
300.05173
300.04888
300.04811
300.04715
300.04583
300.0374
300.03414
300.04269
300.04401
300.04491
300.04548
300.04147
300.04109
300.04029
300.03896
300.03044
300.02629
300.03471
300.036
300.03669
300.03683
300.0315
300.0316
300.03103
300.02977
300.02162
300.01642
300.02424
300.02543
300.02584
300.02546
300.0187
300.01935
300.0191
300.01798
300.0107
300.00446
300.01112
300.01212
300.0122
300.01124
300.00312
300.00435
300.00446
300.00357
299.99771
299.99051
299.99549
299.99622
299.99591
299.99436
299.98506
299.98687
299.98739
299.98681
299.98288
299.97488
299.9777
299.97809
299.97735
299.97524
299.96502
299.96738
299.96832
299.96811
299.96654
299.95796
299.95824
299.95824
299.95708
299.95444
299.94367
299.94655
299.94791
299.9481
299.94917
299.94022
299.93787
299.93744
299.93585
299.93274
299.92176
299.92496
299.92668
299.92729
299.93107
299.92233