/*--------------------------------*- C++ -*----------------------------------*\
  =========                 |
  \\      /  F ield         | OpenFOAM: The Open Source CFD Toolbox
   \\    /   O peration     | Website:  https://openfoam.org
    \\  /    A nd           | Version:  7
     \\/     M anipulation  |
\*---------------------------------------------------------------------------*/
FoamFile
{
    version     2.0;
    format      ascii;
    class       volScalarField;
    location    "210";
    object      omega;
}
// * * * * * * * * * * * * * * * * * * * * * * * * * * * * * * * * * * * * * //

dimensions      [0 0 -1 0 0 0 0];

internalField   nonuniform List<scalar> 
24866
(
434.2072
442.17438
443.51241
505.56772
565.84453
564.66482
560.06415
566.03452
566.72818
559.48512
562.59959
562.6378
559.58489
566.79204
565.96694
560.29262
564.13953
566.09635
564.31665
562.74008
555.39845
567.91585
581.73025
575.30954
561.73229
551.89268
563.17228
576.25423
575.04446
557.21447
565.05176
564.6097
564.60879
565.05189
557.23628
575.05179
576.31316
563.23002
551.8327
561.66321
575.29211
581.73149
567.92267
555.39972
562.80242
564.27881
566.18356
564.06176
560.34662
565.82941
566.89905
559.54703
562.60064
562.63097
559.62711
566.67695
566.10136
559.95554
564.81559
565.71432
569.42397
566.27559
569.48325
569.94375
561.60869
565.43059
572.32047
571.15238
561.83264
562.14221
562.16778
561.87949
571.17229
572.32299
565.45646
561.51732
569.49894
569.26298
565.25685
567.58815
567.18247
555.7115
557.48595
563.75533
565.82118
573.04391
565.90129
558.90124
567.05243
574.0208
565.85374
559.24787
564.18105
564.59329
563.87379
562.01271
560.41776
562.89272
562.02094
563.34169
563.04232
563.4554
562.95417
563.67616
564.13956
564.14619
563.89682
564.29899
563.60857
562.73161
557.07876
568.82917
568.1697
565.10465
561.2221
563.13202
563.39946
563.73323
564.15976
564.40813
564.35683
563.99566
564.35465
563.78899
563.14695
562.7453
560.97007
561.89412
562.28837
563.12588
563.93707
564.52582
564.84598
564.68593
564.74778
564.54369
564.16195
563.90009
563.40092
563.61161
561.22544
557.08312
568.82813
568.1679
550.79379
551.16058
510.68086
503.39789
504.39011
504.39032
503.39756
496.19251
499.75578
555.68978
555.36827
501.5654
502.18448
491.077
500.06222
499.26483
487.5528
483.11718
493.51225
501.39163
504.11797
505.58837
502.86302
498.15936
503.98402
504.41254
495.64831
496.10193
496.04849
495.52151
504.31899
504.00666
498.02864
503.25206
511.76482
512.62923
552.01909
552.37717
510.07649
495.50651
510.97812
504.26463
498.68556
562.24365
563.28354
562.24457
563.3411
562.69047
560.91054
561.87373
562.26374
563.09447
563.89343
564.46725
564.77701
564.8491
564.91789
564.75068
564.41295
564.15187
564.18633
564.3024
565.85872
562.73361
501.68239
504.26841
542.84347
555.70229
499.73171
496.19622
439.73718
441.98276
442.57116
442.57099
441.98111
439.73173
438.55187
439.85766
439.84048
435.85593
439.07135
438.71023
433.93817
430.9418
437.82421
440.91834
442.5852
443.42009
441.95833
441.4529
442.21842
442.70417
439.62924
439.60928
439.59514
439.5441
442.59919
442.17578
441.34441
392.59122
392.81287
393.31503
393.29375
392.85634
442.23647
503.35299
497.99558
504.0736
504.2783
495.68417
496.09225
496.05311
495.59525
504.41172
503.8781
498.22408
502.81128
505.65735
504.10322
501.44211
493.52533
483.13113
539.47566
560.30054
552.86152
499.29721
500.09292
491.09048
502.16395
501.52052
555.41512
544.09755
511.05706
506.22947
492.75985
508.86636
513.24667
512.41194
555.92958
574.04007
567.06412
558.89895
559.2514
565.8192
564.60039
564.14798
564.36459
564.69169
564.36268
564.53104
564.46954
564.18174
563.67629
563.07765
563.03358
563.33084
563.67826
563.89789
563.94379
563.79836
563.46729
564.00586
563.68707
563.88388
563.7579
557.49732
562.02773
562.96788
562.90914
563.05545
563.15667
563.13324
563.10149
563.08171
563.0347
563.34191
562.69753
562.27411
562.29627
562.75403
563.35564
562.03998
565.27429
560.43768
555.7304
567.22183
567.58238
550.16315
511.0732
509.15276
549.69523
506.84734
508.91709
493.12146
432.49851
440.95766
437.84044
430.95251
433.95699
487.60549
487.14663
503.39254
503.71941
544.01711
541.10881
504.89414
490.62348
508.61084
429.59183
438.72098
439.06898
435.84998
439.85379
439.86809
438.55198
389.88395
391.19131
392.4603
392.60327
392.60316
392.45907
391.18791
389.88444
390.39583
390.4868
388.40935
390.18176
389.83716
387.28176
385.68434
390.06303
391.84428
392.71153
393.24267
392.71946
392.6907
392.91774
393.27319
391.79747
391.91528
391.87186
391.69733
393.17832
392.85721
352.33615
352.29919
352.2842
352.50972
352.49993
352.31605
352.31377
392.59824
441.33388
442.23459
442.62572
439.64641
439.60661
439.60771
439.60992
442.68277
442.1422
441.47885
441.93087
443.46432
442.58747
392.7174
391.87253
390.07816
385.69505
387.29801
389.84759
390.18346
388.40721
390.4933
390.399
350.27903
350.00296
351.11498
351.88031
351.95203
351.95211
351.87941
351.11263
350.00278
350.27643
350.37482
349.19424
350.3043
350.02746
348.41648
347.44989
350.3587
351.53823
352.1063
352.46408
352.25666
352.38942
352.40202
352.64572
351.88413
351.9878
351.95588
351.80505
352.56207
318.97393
318.82912
318.89072
318.76298
318.86069
318.857
318.78713
318.90785
318.86818
319.01333
352.60406
393.21652
391.80334
391.91512
391.88585
391.74987
393.24282
392.85836
392.69638
392.70039
393.26792
352.47751
352.11178
351.55806
350.3713
347.45933
348.42922
350.03593
350.30626
349.1934
350.37959
317.25116
317.13601
317.0011
317.90468
318.35885
318.40983
318.40987
318.35815
317.90298
317.00058
317.13386
317.24754
316.57058
317.28683
317.03974
315.93998
315.34945
317.35394
318.16126
318.57422
318.83
318.76689
318.97063
318.89295
319.04543
318.6624
318.74484
318.71943
318.59857
290.90349
291.06903
290.98545
291.08782
290.9134
290.9453
290.94464
290.93216
291.10496
291.01858
291.10438
290.95306
318.66128
351.88527
351.98969
351.96935
351.84638
352.61235
352.35247
352.38394
352.24121
318.75372
318.8365
318.57845
318.17521
317.36411
315.35748
315.95002
317.04665
317.28882
316.57048
289.30258
289.69113
289.57293
289.53198
290.26298
290.52935
290.56974
290.56972
290.52878
290.26169
289.5313
289.57111
289.68835
289.30229
289.76653
289.53957
288.75544
288.40518
289.83576
290.40461
290.72322
290.91869
290.92909
291.15679
291.04415
291.1299
290.95559
291.02699
291.00645
267.72634
267.63669
267.6914
267.64875
267.76159
267.58089
267.5786
267.57939
267.59575
267.77757
267.67672
267.7224
267.67641
267.74451
291.02865
318.74707
318.73121
318.63131
319.01431
318.85196
318.96001
291.14449
290.91786
290.9214
290.72635
290.41464
289.84397
288.41198
288.76345
289.54525
289.76845
266.64153
266.33975
266.56056
266.45308
266.47153
267.06403
267.22369
267.25759
267.25755
267.22321
267.06301
266.4708
266.45153
266.55834
266.33923
266.63972
266.43338
265.85923
265.6623
266.71557
267.13385
267.39141
267.54983
267.59827
267.81976
267.70111
267.74323
267.67976
267.74317
247.95418
247.94005
247.86241
247.8627
247.8451
247.95269
247.78734
247.76801
247.76945
247.79933
247.96711
247.86876
247.88966
247.89477
247.95535
247.94784
267.73492
291.01632
290.92997
291.1022
291.01051
267.67355
267.80754
267.58877
267.5506
267.39379
267.14131
266.7223
265.66809
265.86573
266.43811
246.80022
246.98213
246.78756
246.9125
246.82315
246.87584
247.35683
247.45895
247.48847
247.48841
247.45854
247.35601
246.87512
246.82181
246.91068
246.7869
246.98044
246.79624
246.36871
246.26767
247.06288
247.38569
247.60115
247.73494
247.80195
248.001
247.89097
247.90698
247.89861
230.86765
230.91562
230.9037
230.83703
230.81325
230.80966
230.90492
230.76338
230.73643
230.73809
230.77322
230.91775
230.82979
230.83658
230.8637
230.91663
230.91072
230.85295
247.88101
267.65863
267.71915
247.88625
247.86831
247.98964
247.79396
247.73476
247.60304
247.39143
247.0685
246.27266
246.37408
229.57424
229.89511
230.05518
229.93102
230.00109
229.93136
230.00119
230.39208
230.46386
230.4901
230.49004
230.46351
230.39141
230.0005
229.93019
229.99957
229.9303
230.05362
229.89171
229.56972
229.52728
230.13941
230.39928
230.58351
230.6993
230.77385
230.94472
230.84946
230.85116
216.00028
216.02615
216.06708
216.05696
216.00007
215.96766
215.97113
216.05194
215.93512
215.90573
215.90742
215.94332
216.06329
215.98837
215.98788
216.02228
216.06796
216.06327
216.0138
215.98506
230.8334
230.8307
230.93449
230.76713
230.69869
230.58508
230.40385
230.14419
229.53162
214.91403
214.92162
215.1654
215.3047
215.22702
215.26562
215.21369
215.28982
215.60796
215.66341
215.68699
215.68693
215.66311
215.60739
215.28918
215.21267
215.26434
215.22628
215.30324
215.16245
214.91776
214.9102
215.38872
215.60444
215.76411
215.86572
215.94148
216.08465
216.00555
202.9391
202.93108
202.95886
202.99355
202.98489
202.93647
202.90286
202.90933
202.97612
202.8815
202.8525
202.85412
202.88843
202.98615
202.92422
202.92043
202.95516
202.99433
202.99059
202.94843
202.91802
202.92592
215.9899
216.07555
215.93579
215.86494
215.76544
215.60818
215.39283
202.40214
202.02299
202.01038
202.1971
202.31752
202.27068
202.2913
202.25408
202.33015
202.58975
202.63577
202.65712
202.65707
202.63551
202.58928
202.32956
202.25319
202.29019
202.26994
202.31617
202.19453
202.00704
202.01961
202.39857
202.58131
202.72093
202.81088
202.8843
203.00304
191.38859
191.33785
191.32932
191.35566
191.38498
191.37751
191.3363
191.30477
191.31203
191.36639
191.29037
191.26327
191.26479
191.29632
191.37529
191.32499
191.32009
191.35218
191.38566
191.38265
191.3468
191.31806
191.32664
191.38148
202.99499
202.87943
202.81005
202.72208
202.58443
191.02065
190.86432
190.56051
190.53678
190.68095
190.78466
190.75832
190.76885
190.74321
190.81579
191.02847
191.06837
191.08787
191.08782
191.06814
191.02807
190.81525
190.74243
190.76789
190.7576
190.78342
190.67868
190.53387
190.55751
190.86119
191.01801
191.14096
191.22108
191.29026
180.92215
181.00388
180.96411
180.95617
180.97974
181.00449
180.99801
180.96289
180.93469
180.94167
180.98554
180.9246
180.90011
180.9015
180.92975
180.99345
180.95303
180.94812
180.97651
181.0051
181.00267
180.97217
180.94642
180.95449
180.99759
180.91846
191.28604
191.22024
191.14194
180.78721
180.67975
180.54446
180.29831
180.26896
180.38112
180.47031
180.4576
180.46268
180.4459
180.51336
180.68852
180.72396
180.74191
180.74186
180.72377
180.68818
180.51289
180.44522
180.46186
180.45692
180.46918
180.37913
180.26642
180.29565
180.54172
180.6775
180.78639
180.85809
171.53592
171.59457
171.66292
171.63204
171.62511
171.64557
171.66645
171.66079
171.63081
171.60622
171.61245
171.64774
171.59884
171.57723
171.57847
171.60334
171.65481
171.62249
171.61805
171.64259
171.667
171.66502
171.63906
171.61662
171.62371
171.65732
171.5913
171.5351
180.85727
180.91745
180.98996
180.79275
180.83988
180.94059
180.44697
180.54855
180.69146
180.75128
180.67664
180.60245
171.32577
171.17848
171.24027
171.38541
171.41731
171.43394
171.43388
171.41716
171.38515
171.23991
171.17796
171.18796
171.18565
171.18895
171.11155
171.02316
171.05471
171.2562
171.37454
171.47147
163.0474
163.1055
163.15885
163.21644
163.19265
163.18681
163.20425
163.22183
163.21683
163.19119
163.17003
163.17541
163.20379
163.16446
163.14568
163.14686
163.16847
163.21016
163.18437
163.18053
163.20146
163.22231
163.2207
163.19861
163.17937
163.18536
163.21143
163.15592
163.1047
163.04793
171.47215
171.37645
171.25858
171.05703
171.02535
171.11325
171.18991
171.18621
171.1886
162.79904
162.79389
162.85001
162.97108
162.99999
163.01548
163.01548
162.99995
162.971
162.84989
162.79368
162.79875
162.7975
162.79493
162.72835
162.65856
162.69045
162.85708
162.96076
155.31467
155.39238
155.44487
155.49318
155.54213
155.52389
155.51904
155.53377
155.54856
155.5441
155.52209
155.504
155.50859
155.53148
155.49971
155.48363
155.48471
155.50333
155.53728
155.51666
155.51339
155.53114
155.54897
155.54766
155.52882
155.51244
155.51741
155.53756
155.49047
155.444
155.39265
155.3158
162.96234
162.85907
162.69236
162.66029
162.72962
162.79555
162.79776
155.17205
155.17312
155.17164
155.22242
155.32417
155.35047
155.36499
155.36508
155.35068
155.3245
155.2229
155.17217
155.17366
155.17263
155.16629
155.10889
155.05337
155.08445
155.22349
148.25459
148.33482
148.40465
148.45213
148.4957
148.53774
148.52376
148.5197
148.53215
148.54462
148.54059
148.52156
148.50602
148.51
148.52862
148.50273
148.48911
148.49013
148.50606
148.53397
148.51737
148.51453
148.52963
148.54495
148.54388
148.52774
148.51376
148.51791
148.53347
148.49305
148.45101
148.40442
148.33514
148.2549
155.22491
155.08566
155.05427
155.10929
155.16605
148.20017
148.20851
148.20979
148.2109
148.25692
148.34317
148.3671
148.38086
148.38115
148.36792
148.34452
148.25885
148.21327
148.21235
148.21117
148.20248
148.15277
148.10812
148.13768
141.76569
141.86447
141.93456
141.99723
142.04006
142.07915
142.11587
142.10502
142.10143
142.11221
142.12285
142.11915
142.10245
142.08879
142.09241
142.10782
142.08623
142.07485
142.07581
142.08934
142.11284
142.09925
142.0966
142.10974
142.1231
142.12223
142.10821
142.09599
142.09961
142.11175
142.07635
142.03839
141.99598
141.93327
141.8625
141.76229
148.13744
148.10723
148.15119
141.76886
141.8113
141.82098
141.82255
141.82529
141.86726
141.94122
141.96281
141.97615
141.97691
141.96508
141.94493
141.87259
141.83193
141.82982
141.82852
141.81841
141.77493
141.73821
135.87058
135.89518
135.97847
136.03821
136.09395
136.1322
136.16691
136.19997
136.1912
136.1877
136.19769
136.20711
136.20366
136.18857
136.17583
136.17941
136.19252
136.17348
136.16411
136.16504
136.17646
136.19731
136.18585
136.1831
136.19524
136.20728
136.20657
136.19403
136.18264
136.1861
136.19582
136.16364
136.12939
136.09065
136.03363
135.97177
135.88516
135.85725
141.73335
141.83939
141.89437
141.95952
141.98338
141.95915
141.92854
136.03723
135.93886
135.97767
136.04212
136.06111
136.07458
136.07635
136.06654
136.05095
135.99031
135.95478
135.95302
135.95205
135.94113
135.90227
130.472
130.44196
130.46215
130.53106
130.57873
130.62702
130.66034
130.69049
130.72185
130.71418
130.71039
130.72093
130.72991
130.72667
130.7123
130.69909
130.70295
130.71457
130.69588
130.6883
130.68921
130.69878
130.7192
130.70909
130.70594
130.71848
130.73001
130.72945
130.71755
130.70566
130.70931
130.71746
130.68629
130.6554
130.61986
130.56778
130.5151
130.43906
130.41177
130.43721
135.8866
135.92365
135.93395
135.93558
130.48152
130.48394
130.52053
130.57796
130.59362
130.60811
130.61185
130.60537
130.59698
130.54771
130.51834
130.51922
130.51957
130.5082
125.46806
125.43206
125.39938
125.41225
125.46597
125.49788
125.53708
125.56449
125.58954
125.62159
125.61417
125.60981
125.62283
125.63234
125.62921
125.61454
125.59899
125.60335
125.61412
125.59299
125.58691
125.5878
125.59583
125.61863
125.60924
125.6055
125.62035
125.63241
125.63198
125.61969
125.60541
125.6095
125.61677
125.58377
125.55587
125.52314
125.47545
125.43315
125.36527
125.3382
125.36218
125.39199
130.47003
130.48038
125.40191
125.40165
125.40131
125.43652
125.48911
125.50015
125.51691
125.52419
125.52341
125.52669
125.49019
125.46953
125.47641
125.47969
120.79481
120.78302
120.74431
120.70375
120.70423
120.73948
120.74979
120.77667
120.79656
120.81568
120.85112
120.84342
120.83856
120.85633
120.86752
120.86452
120.84845
120.82833
120.83312
120.84338
120.81664
120.81165
120.81253
120.8194
120.84773
120.8387
120.83449
120.8539
120.86761
120.86731
120.8535
120.83458
120.83902
120.84578
120.80773
120.78232
120.75207
120.70852
120.67857
120.61722
120.5903
120.61543
120.64344
120.65252
120.64979
120.64442
120.67867
120.72802
120.73267
120.75315
120.76609
120.77485
120.79626
120.77627
120.76904
120.78639
116.43131
116.44719
116.43532
116.39106
116.33721
116.31745
116.32747
116.30879
116.31861
116.32896
116.34152
116.3826
116.37495
116.37045
116.3949
116.40883
116.40605
116.38769
116.36127
116.36571
116.37521
116.3404
116.33592
116.33674
116.343
116.37925
116.37082
116.3669
116.39267
116.40887
116.40868
116.39247
116.36708
116.37106
116.37699
116.33124
116.30759
116.27956
116.24029
116.22448
116.16942
116.1434
116.17174
116.1988
116.2067
116.20066
116.18847
116.22122
116.26775
116.2644
116.28955
116.3105
116.33393
116.38132
116.38491
116.39866
112.37236
112.42369
112.44794
112.43613
112.38512
112.31424
112.26229
112.23465
112.17967
112.1671
112.16658
112.17311
112.21988
112.21488
112.2132
112.24411
112.26074
112.25832
112.23802
112.20582
112.20789
112.21464
112.17244
112.16784
112.16856
112.17472
112.21817
112.21229
112.21068
112.24232
112.26069
112.26058
112.24222
112.21074
112.21206
112.21494
112.16181
112.13884
112.11274
112.07827
112.0763
112.03027
112.00802
112.03885
112.06382
112.06994
112.06111
112.04272
112.07175
112.11314
112.102
112.13122
112.16154
112.20514
112.28606
112.32585
108.645
108.74532
108.81475
108.84307
108.83121
108.77768
108.69091
108.58551
108.49494
108.39685
108.35907
108.34914
108.35152
108.39974
108.40525
108.4115
108.44433
108.46175
108.45976
108.43989
108.40698
108.40222
108.39969
108.35644
108.35256
108.35315
108.35823
108.40245
108.40559
108.41061
108.44327
108.46171
108.46153
108.44315
108.41049
108.40444
108.39744
108.34279
108.32061
108.29608
108.26587
108.27376
108.24769
108.2365
108.26147
108.27737
108.28018
108.27211
108.25336
108.27354
108.30161
108.28654
108.31754
108.35546
108.4222
108.54384
105.18635
105.40813
105.59906
105.67971
105.69867
105.68658
105.6441
105.54846
105.35355
105.14114
104.98473
104.92907
104.91708
104.91431
104.95127
104.98808
105.00801
105.03214
105.05765
105.05838
105.03173
105.00687
104.99029
104.95945
104.93084
104.93553
104.93587
104.93195
104.96121
104.99255
105.00909
105.03195
105.05767
105.05958
105.03388
105.00872
104.99017
104.95418
104.91354
104.89964
104.87629
104.84353
104.85112
104.87957
104.8939
104.8879
104.87758
104.88063
104.87731
104.87057
104.87082
104.86147
104.85499
104.88801
104.92579
105.00861
101.87341
102.13075
102.69646
103.07274
103.09358
103.0714
103.06083
103.0615
103.02606
102.64697
102.08979
101.85205
101.75003
101.74774
101.80826
101.73023
101.94131
101.94686
101.94271
102.08069
102.07977
101.94287
101.94934
101.94895
101.74794
101.83964
101.79451
101.79463
101.84002
101.74881
101.94989
101.9491
101.94297
102.08058
102.08034
101.94388
101.9494
101.94688
101.7407
101.82151
101.75801
101.73547
101.75537
101.68789
101.96363
101.88632
101.81245
101.79794
101.92076
101.81325
101.8253
101.83216
101.64963
101.75436
101.72048
101.74705
99.355041
99.393412
99.660463
100.62747
101.38226
101.199
101.13635
101.1247
101.16954
101.341
100.58292
99.625594
99.370973
99.363298
99.357841
99.392807
99.373201
99.46494
99.480282
99.48791
99.492948
99.493673
99.491442
99.485781
99.475574
99.397375
99.432467
99.429781
99.430425
99.431432
99.395964
99.474722
99.485668
99.48738
99.492823
99.494263
99.491192
99.487126
99.474198
99.387008
99.418285
99.389961
99.38899
99.349268
99.400833
99.915524
99.874667
99.484632
99.389797
99.381221
99.381585
99.378369
99.363532
99.302597
99.335921
99.335288
97.092085
97.077875
97.156477
97.425614
97.346933
97.206249
97.203502
97.167656
97.198623
97.295296
97.419782
97.11417
97.117071
97.08822
97.204494
97.282645
97.1863
97.164801
97.382593
97.274188
97.276268
97.389038
97.170233
97.199992
97.316755
97.243645
97.199104
97.203821
97.23672
97.318271
97.194982
97.169581
97.38
97.273222
97.277158
97.387544
97.166466
97.206612
97.294561
97.259902
97.132338
97.231547
97.138664
97.39021
97.002811
96.925526
97.30834
97.349993
97.195364
97.300029
97.096072
97.077733
97.241456
97.110731
97.05828
97.099436
97.220067
97.119303
97.088308
97.158846
97.241319
97.188368
97.097348
97.089944
97.169857
97.269937
97.147541
97.147663
97.309504
97.159802
96.982529
96.922384
97.209813
97.588834
97.631012
97.262651
96.93956
96.976141
97.164044
97.348159
97.091406
97.108261
99.371022
99.320293
99.760311
99.836391
101.25927
99.950526
99.862402
99.48962
99.880401
101.18903
99.816102
99.298832
99.326743
99.799859
99.759267
99.364228
97.251105
97.158247
97.215416
97.208701
97.207417
97.118578
97.250828
97.376402
97.116881
97.186734
99.358665
99.322438
99.765334
101.19723
99.83134
99.914378
99.840401
99.411121
99.484778
100.23581
101.38871
100.10404
100.09498
100.2396
99.882298
99.237473
99.249786
99.8545
100.13339
100.08701
101.35038
99.817345
99.898127
99.438214
97.24074
97.308379
97.217554
97.291606
97.058417
96.9813
99.373078
99.874263
99.958225
101.35269
99.8965
99.373273
99.840384
99.469183
101.90255
102.11163
101.90473
101.69084
101.92923
101.79916
102.01379
105.0514
108.52975
108.59546
108.45769
104.9597
105.04923
105.07541
104.98478
108.52096
108.60454
108.4373
104.99199
105.02848
108.49491
108.52303
105.04325
101.98696
99.410706
99.39322
99.302616
99.439842
99.251956
99.179564
101.74452
101.92396
102.02081
101.88383
102.03039
102.11972
99.413707
99.317807
99.301255
98.945347
99.0408
99.260085
99.554547
102.03719
101.85115
102.08603
102.38051
102.76004
100.70482
99.735233
99.388089
99.323303
99.303802
99.363475
99.693146
100.66418
100.59943
100.582
100.59367
100.6291
102.83142
102.83446
102.48095
102.46188
99.665871
97.244568
97.144723
97.214559
97.47805
98.353935
98.478696
98.465495
98.330491
97.445045
97.26375
96.589249
96.583739
96.590429
96.593406
97.286169
97.461727
98.372119
98.50077
98.499695
98.37076
97.464279
97.28803
96.601905
96.598754
96.598772
96.939473
97.11804
97.218541
97.066387
97.127249
97.358447
97.275109
97.277086
97.362486
97.127206
97.071007
97.217766
97.117431
96.941114
96.609703
96.604781
96.609921
97.309572
97.500951
98.449774
98.592175
98.622578
98.487853
97.543454
97.351377
96.628183
96.621394
96.615859
96.623738
97.300591
98.209069
98.589243
99.536183
101.80957
104.68599
106.42065
106.39549
104.63362
101.74623
99.498392
98.580514
98.202727
97.303157
97.249894
97.171996
97.259019
97.248021
97.256726
97.612824
98.371244
97.474957
98.496787
99.172271
101.69448
103.98561
105.72536
108.41952
110.05904
111.85031
112.50216
112.51383
111.87573
110.1092
108.48334
105.80717
104.05565
101.77122
105.79032
107.85715
110.9113
112.80238
114.96738
115.75771
115.74835
114.94191
112.75539
110.84219
107.76631
105.71203
108.35828
104.49563
101.0652
100.04358
100.24782
98.494101
98.488525
97.608585
97.254974
97.246901
97.256735
97.169272
97.242393
97.45988
98.358063
100.0258
100.24141
101.46802
101.47677
106.17117
111.70065
109.95331
112.65372
110.78797
113.42356
115.97904
118.31648
119.50738
119.51495
118.3415
116.02792
113.49431
110.88807
108.44441
104.59067
110.05294
112.76858
116.00926
119.51317
122.43039
124.02055
124.02109
122.4088
119.45904
115.92657
118.22358
114.79343
115.57601
112.32787
112.32829
106.1614
111.69418
114.79103
115.57966
119.39096
119.38908
123.94743
122.3604
125.85013
127.80423
127.80569
125.87573
122.41955
118.31194
114.92095
111.81063
106.29551
112.44061
115.70714
119.48282
124.0071
127.80793
129.94265
129.93839
127.78449
127.78787
123.95528
122.36907
118.22086
115.91572
112.64055
109.93671
104.46224
101.04229
99.143427
98.477156
98.178063
97.284768
96.601435
97.031135
97.278024
98.54969
99.455716
101.63695
105.64834
108.32011
110.75061
113.38704
115.94297
119.4511
122.40245
125.86298
127.81873
129.94546
129.95145
127.81436
124.01529
119.48025
115.69998
112.43239
106.27573
111.78909
114.90124
118.3078
122.42598
125.88272
127.82062
124.01762
124.01353
119.46499
118.27842
114.85907
112.67969
110.77157
107.69319
105.65508
103.92781
101.64732
104.49585
108.34623
109.97834
111.7593
112.40023
115.65731
115.65931
119.4655
118.29143
122.42097
119.49828
115.9866
112.73462
110.01842
104.54102
108.38831
110.83179
113.44603
115.98015
112.70818
114.86789
111.76852
112.40272
106.21993
106.21282
101.49694
101.06994
99.152919
98.555994
98.184521
97.032238
96.927281
97.972573
97.975432
99.464156
99.696615
101.64411
101.80106
101.80665
101.657
99.712391
99.480618
97.998472
96.613794
97.055109
96.944661
97.053663
98.22005
98.534394
100.13751
100.36607
100.39579
100.17936
98.573515
98.261287
97.074061
96.962503
97.075232
97.336024
98.64225
99.268302
101.22865
101.66891
101.63722
101.1804
99.223744
98.596689
97.310736
98.054389
97.995476
99.499708
99.740128
101.73639
101.89979
101.93123
101.77614
99.77684
99.537044
98.01757
98.009228
98.881088
98.019194
98.079343
99.551734
100.75695
100.02733
102.14887
103.1768
102.47162
107.08484
105.40046
102.59684
100.34127
99.494715
99.481246
100.69209
99.713847
98.507312
99.194579
101.06536
100.0289
100.23475
101.48685
101.46955
100.21912
100.00034
101.02966
99.145983
101.69126
103.96955
105.70967
108.38741
110.00418
104.51883
101.67647
99.465417
98.538528
98.166231
98.468716
99.678804
101.59449
101.75183
101.76826
101.61876
103.00262
101.98224
99.956334
102.55509
104.95101
107.04543
108.64408
108.09488
106.43731
108.50011
106.42068
108.08968
109.169
113.20667
112.20921
109.59443
110.9133
113.28046
114.47848
114.43166
113.56958
111.90291
114.34184
111.87868
109.55068
105.29814
112.1747
114.43516
113.17524
114.39822
113.2405
110.85417
113.53644
115.93564
112.92167
106.94962
102.2911
102.27398
102.98372
101.95312
99.914006
100.65848
99.445989
99.455757
100.28781
102.49437
105.26188
106.9336
113.42293
113.43166
116.37174
115.95554
118.2239
117.22807
117.74453
116.62822
120.41592
119.23553
116.86579
117.90313
115.34742
117.92188
116.88424
120.54974
121.83271
124.99215
120.37119
117.27758
116.01182
112.99305
113.51169
116.43024
118.29217
117.79071
116.67888
115.98185
119.26531
120.44857
121.56937
126.68184
125.20772
123.57192
127.1457
123.56259
124.98331
120.34085
121.53817
126.67296
125.19523
129.14474
130.8114
128.73731
130.80881
129.13971
131.35509
133.10729
135.04696
132.65365
128.32955
122.70753
121.49233
118.96053
116.27328
117.63937
120.50786
124.82852
120.48435
118.93881
123.27793
126.57692
128.25106
123.05235
124.38048
130.07755
131.78876
125.3541
120.95358
109.74955
107.99934
105.24736
102.94808
101.40686
103.53104
106.21001
107.77875
107.75402
103.13994
102.437
102.10425
99.98647
100.71847
99.512282
100.31399
102.54373
105.35484
107.06018
113.49653
116.41831
118.27767
115.98995
112.96975
115.96067
116.67027
117.7823
117.25719
114.39867
113.24422
110.86545
109.54203
112.16856
114.44186
113.1628
111.84694
113.52856
116.84166
119.24406
120.44168
121.56294
120.35308
124.97847
126.68184
125.212
123.55543
120.5036
121.79663
117.88626
115.30127
114.28546
116.79657
117.8491
120.28415
124.94453
128.72099
130.80644
129.14141
127.12376
129.12587
131.35276
133.10824
130.80133
126.63566
125.14554
123.51001
119.16508
120.33858
121.47861
117.6412
117.12832
114.31282
113.09971
109.09943
108.03005
106.36403
104.88547
102.51754
106.98604
108.5837
108.02854
106.34641
108.41992
111.78908
109.46839
105.26547
112.10518
114.36436
113.1626
110.76065
113.4347
115.82169
112.81749
106.90915
115.86893
118.13661
116.2814
113.32446
116.51198
116.51853
120.34377
125.15569
129.13113
131.36238
131.36769
129.15417
125.20519
120.41399
116.62056
117.73564
116.36793
118.22123
115.94584
112.90369
115.9178
117.214
114.38171
113.22399
110.82354
113.50947
111.83869
109.50911
112.15604
114.42251
113.1582
115.32992
117.89965
120.34162
121.53705
126.67993
124.9978
123.57437
119.23659
116.85186
120.54475
121.84239
117.91233
116.8558
114.31153
111.83056
110.82228
107.76146
105.7021
106.34175
108.02437
108.58079
109.10189
108.41952
106.34523
102.50729
104.87075
106.98513
108.03548
112.15661
113.14899
114.42291
114.37118
113.49305
110.81027
105.29626
109.50268
113.22331
115.96088
117.21827
120.36536
125.01227
128.76522
130.82487
133.12502
130.84329
129.163
127.15913
123.57422
125.2202
126.71063
121.56867
120.42096
119.23401
115.90166
116.6025
117.73603
118.23857
116.37434
106.96378
112.88871
113.40208
113.40026
116.60135
120.42176
125.21867
129.16386
130.8439
133.12085
130.80712
128.75111
127.14733
123.52666
124.96752
126.64301
121.48782
120.29523
119.1656
116.79607
120.50874
123.56207
125.00587
126.71177
121.57053
120.36215
119.22698
116.82556
117.89389
121.81855
117.86109
115.29959
114.26631
111.77078
113.43308
115.82501
117.13417
117.64817
118.14531
116.29051
106.90388
113.32579
112.81478
115.87457
113.16922
114.31787
114.3714
113.09941
112.10474
105.24538
110.74966
109.44627
106.29508
108.36292
111.79403
113.47278
115.89785
117.21439
117.73492
118.23723
116.37528
106.95923
112.88328
115.95366
113.21222
114.35806
114.40977
113.12647
112.13639
105.28167
110.79066
109.47453
106.30007
102.48983
107.99075
109.05218
108.54294
107.99033
102.47807
104.83447
106.95423
100.28725
101.36226
103.43619
106.08728
107.6271
107.6292
106.0966
103.46352
101.38303
103.48545
106.17133
107.96113
109.72986
120.9386
116.71489
119.00738
109.39267
106.77901
102.74423
102.06527
101.84575
101.87877
99.454077
99.265574
99.346547
101.77011
102.06594
102.08804
101.78307
101.67848
101.7182
101.86521
101.94512
99.254441
99.348919
99.736799
99.774916
102.77235
102.23751
101.88643
101.85957
101.92302
98.970055
96.940448
97.148226
97.370257
99.76195
99.371646
99.411351
102.19145
102.27003
99.455445
97.159731
97.515822
97.504932
97.150088
97.195357
97.209849
99.643098
99.632541
102.47066
102.82303
102.79952
102.43411
99.639794
97.224185
97.125009
97.192578
96.922221
97.127065
97.339387
97.333807
97.156431
96.97362
96.931692
97.242135
97.613444
97.613059
97.243764
96.939714
96.991814
97.166456
97.318856
97.148104
97.185531
97.280366
97.166667
97.118276
97.169556
97.254925
97.254062
97.164534
97.103207
97.138141
97.234209
97.124448
97.071653
99.309806
99.366203
99.855822
99.944195
99.827623
101.24874
99.74812
102.00372
102.00835
102.34361
102.71564
105.4722
105.58302
105.63982
105.65204
105.61753
105.5206
108.79155
112.47004
116.50483
116.63267
116.5427
116.44413
112.33055
112.42438
112.27759
116.40841
116.53857
116.63546
116.47383
112.34924
112.43229
112.23626
116.35602
116.40853
112.29632
112.32682
116.43571
116.67861
116.63398
116.54642
116.68247
112.58594
112.52598
108.67683
108.74133
105.14745
105.07321
105.15054
108.69718
108.74463
105.18744
105.34843
105.25068
108.83143
108.92903
112.74877
112.57729
112.52829
112.6619
116.73987
116.81028
117.34378
116.87721
116.6489
116.68154
116.66007
112.5648
112.45481
108.67451
105.2055
105.16493
108.73635
108.83574
108.81573
105.39391
105.28984