/*--------------------------------*- C++ -*----------------------------------*\
  =========                 |
  \\      /  F ield         | OpenFOAM: The Open Source CFD Toolbox
   \\    /   O peration     | Website:  https://openfoam.org
    \\  /    A nd           | Version:  7
     \\/     M anipulation  |
\*---------------------------------------------------------------------------*/
FoamFile
{
    version     2.0;
    format      ascii;
    class       surfaceScalarField;
    location    "210";
    object      phi;
}
// * * * * * * * * * * * * * * * * * * * * * * * * * * * * * * * * * * * * * //

dimensions      [1 0 -1 0 0 0 0];

internalField   nonuniform List<scalar> 
74922
(
-0.16877185
0.324414
-16.374163
21.541216
-2.5336228
-2.7890723
0.10482349
-16.282336
-1.2115932
17.023134
-17.608456
17.974785
-0.0031956506
-18.152315
0.22770204
0.29987683
-0.00033937112
0.62099656
0.024482238
-0.42242576
0.68732305
-0.63340214
16.347266
-1.9076673
-2.0910636
29.52347
-0.32732387
-0.83789474
21.547755
1.7766027
-0.62125495
17.641112
-0.49265148
-2.1457602
24.773635
-0.083306884
-1.6720332
27.796707
0.35615036
-1.6743614
27.854871
-1.844195
-2.1531747
24.915602
0.33653694
-0.61021008
17.773231
1.8325765
-0.82975298
21.696345
-0.46548262
-2.0874371
29.812504
-0.74562458
-0.65227462
16.493763
0.46973633
-0.48618595
18.423068
0.40253022
-0.51026688
18.294444
0.26306661
-0.77013471
16.693004
-6.5418457
-0.69844152
29.908776
-7.2598211
1.6403121
27.550703
3.6773615
-0.13930604
28.553319
7.1014411
1.5483936
19.843156
4.5902401
-1.9581578
25.435022
-2.6570154
-3.9658245
26.015706
-3.3978565
-1.3276995
22.480018
0.85305093
1.3414607
17.491292
7.6449821
2.1683095
24.759641
-0.74004738
-0.22297072
28.386775
0.042649651
-0.68467022
16.418056
0.00042637983
-0.62352932
17.932715
-0.042350278
-0.62372378
17.932743
0.7395741
-0.68542501
16.418708
-7.6301646
-0.22541166
28.378499
-0.85282658
2.1626674
24.751904
3.4072661
17.464278
1.3369624
2.6602404
22.440411
-1.3322268
-4.6054602
26.056334
-3.9594123
-7.0969294
25.496445
-1.9439222
-3.6748319
19.859595
1.5667248
7.2699997
28.578656
-0.11172485
6.5569204
27.576453
1.6594432
-0.27134454
29.926364
-0.68727169
-0.37629477
16.706286
-0.76450494
-0.49377069
18.293039
-0.50802453
0.78759812
18.424666
-0.48366745
0.41953603
16.462484
-0.65221204
-1.7985621
29.796443
-2.0810391
-0.41583755
21.628425
-0.83394514
1.7883501
17.687673
-0.60186081
-0.50470387
24.84759
-2.1444647
-0.094063788
27.820161
-1.6635788
0.35359179
27.846502
-1.6709208
-1.804066
24.901039
-2.1662958
0.25814506
17.679883
-0.6163825
1.977458
21.629201
-0.80907452
-0.7362667
29.616173
-2.0748919
-0.5514345
16.380707
-0.6259327
-0.42365166
18.147753
-0.3976468
0.8085095
7.5351408
0.39971253
31.278137
-0.18857531
-0.16751361
0.83377818
7.5330303
1.4033155
5.8001442
-3.880284
-1.1922252
33.054983
-0.51145779
-3.4946299
1.5315275
35.999232
1.3807331
7.9750322
2.5994633
5.9190399
-0.18843736
-1.6743496
25.935568
-0.051173546
-3.1562469
29.025563
0.10603478
-3.1558924
29.068356
-2.6458329
-1.6888842
26.041978
-1.3989545
5.9495481
0.52602425
8.0249938
3.9654236
-3.5101745
1.5484971
36.144319
-1.244486
-1.2742181
33.179005
-0.80324664
5.8262679
-0.37210967
7.5759492
0.66138667
-0.73791512
-0.38745066
30.997811
0.68928848
7.4409002
0.80099617
5.7528306
-5.9262042
-1.0619775
31.555794
-7.1496796
-3.5012303
38.343433
-1.3464524
-5.1813053
40.891531
1.3771249
4.4510205
-6.0319292
44.686406
7.0937701
8.4628746
4.9151163
8.9891669
-3.4711837
-0.56724404
25.330511
-4.654387
8.2507001
0.55359658
7.8796649
2.8205867
-4.9124459
3.223762
42.34623
-5.792809
47.731783
0.02037318
-6.9506793
1.3099574
42.820115
2.0452952
-7.0335011
42.418651
3.9927419
-6.4068959
40.545949
3.9006112
-5.1107278
38.070569
-3.5994987
38.400725
3.6416325
-3.8635684
-4.2658078
38.118849
-2.6701205
38.874494
-4.8272051
-1.9686419
37.597968
-5.0852131
-3.0635497
39.688197
5.0980563
-4.2077946
-3.8840051
41.553081
-3.8276548
40.037777
-2.3001505
-5.9553043
41.794211
-0.28920452
-6.3814048
43.06497
1.7036278
-6.3664149
43.263988
6.2878266
3.3790329
-5.9377033
42.280547
2.8771364
41.254376
3.3714102
3.6985515
-5.0756623
38.644963
6.8874687
38.195753
-0.80497012
-0.78584905
32.883428
-0.42561264
5.7042066
-0.49242475
7.3716214
-0.75180709
-0.75190858
0.49389289
30.685929
-3.6577898
38.72072
-4.1356736
-4.1385849
3.6571719
38.422697
-5.1476757
40.569009
-3.9446432
-3.9568837
5.1392242
42.298886
-1.9784212
-4.4091406
43.725155
0.29375287
-4.6473257
44.432599
2.4826178
-4.65392
44.244713
-4.4096271
43.205405
4.5446738
-2.2430093
-2.6237101
44.209892
5.6769028
-2.0033927
42.601223
5.6798327
-1.5764572
40.478152
4.4141561
-0.90255734
38.1267
-0.34025844
37.382557
-4.934421
0.044271227
33.540268
-6.0774909
0.053894896
37.834346
-5.9598921
0.075645032
40.788932
-4.700983
0.105175
43.049812
-2.6794427
0.13864881
44.644478
2.339723
0.17389855
-0.25202655
45.553138
-0.27318283
45.164651
2.1795322
-2.3230966
45.381733
4.3868179
-2.2058142
44.863813
5.9210237
-1.9929917
43.730998
3.3840789
-1.7101895
6.2770896
42.289258
5.0710731
40.572425
3.6982151
-2.8778767
3.3716865
38.648939
0.78872146
38.722369
-0.80437059
-6.8834631
32.884014
-0.42617201
5.7044019
7.3717706
0.40007965
4.3916525
2.5800385
2.2012646
3.903217
0.13705136
2.4271379
-0.30315598
-0.059768733
-0.13564155
0.52837838
16.270856
-8.9868858e-05
17.656529
0.14033224
0.1351412
17.656843
0.14018075
0.52684946
16.270164
-0.13701325
0.83545827
30.987835
-2.6864901
-16.823774
0.12822191
19.125601
-1.5552829
1.5310742
6.371891
14.351922
4.6191622
-0.55791104
16.014593
-1.1441695
0.11022466
23.826051
-1.9870128
-1.3181738
30.994785
-3.4518616
-0.36995837
27.869884
-2.5638292
2.5540711
23.613529
-22.904541
-2.5093413
-0.24170805
16.020218
-11.401656
-1.7454377
-3.9935646
19.393279
-14.045846
-1.7534835
-1.0245428
30.12158
-2.7583635
-0.43707876
16.482095
-0.20608405
-0.23828716
17.877747
0.23384279
0.14184919
17.795724
0.21510695
0.34057601
16.43002
-0.04860282
-0.26647461
32.043556
-1.4830738
0.18652509
20.945775
0.24073633
0.6310386
17.271401
-0.0306027
0.015502728
26.82342
-1.3789391
0.057880637
29.011568
-1.2233055
0.076020133
28.986276
-1.2224991
-0.58630008
26.739202
-1.3775234
-0.17979141
17.186552
-0.033573736
0.25013683
20.820298
0.24051513
-0.43915502
31.808177
-1.4665712
-0.045771393
-0.081068657
-2.201621
-0.21242582
2.4493441
-2.5673305
3.0833283
-0.29718961
0.4355304
4.5301693
4.0340536
4.8222015
-0.17015162
-0.83042213
-6.0192889
-1.9564608
-2.489249
32.336507
-2.4756438
1.9500615
-38.982184
37.993129
-1.9151138
-2.6786792
3.093599
-3.3902571
-2.5675989
1.1748147
3.4176141
-3.687725
-3.7281687
38.164138
-2.5402912
38.964046
-1.9516894
-4.7304888
37.513735
4.4072357
-0.97731357
-5.6436655
38.025808
-0.40813314
37.273799
-4.9326586
33.502317
-6.0679378
37.793401
-5.9354621
1.6783432
40.729186
-4.6639047
2.1459814
42.94744
-2.6427762
2.4348209
44.48321
-0.23027661
2.5893684
45.341619
-0.21004585
2.2858502
2.6398593
45.561809
2.2829007
45.789973
4.6127023
0.24591622
45.389703
6.3395417
0.27861712
44.445948
6.9317918
0.28246828
43.279464
1.3120269
5.7803029
0.018201435
42.835237
4.9071231
41.262929
3.2223901
-0.55119145
2.8207637
42.350673
38.195758
4.8950522
3.0687768
-3.5502731
38.838132
-5.0559309
-2.7170929
1.0377399
6.2130646
0.36134055
-6.3702269
0.49356043
3.1595735
16.805926
1.5331626
-0.83681099
0.1280455
-1.5512974
19.135676
30.99246
-2.6846463
1.0299045
2.2136336
29.788978
-2.1755375
0.049160749
17.035906
0.029051904
-0.00051523876
18.060291
-0.4181119
-0.04994109
18.060759
-0.41846904
-1.0311547
17.036035
0.029136382
2.2113486
29.789405
-2.1768773
0.039245748
21.754207
-0.57137399
-0.98949347
17.363048
-0.3876223
-1.7506035
25.613358
-0.9680949
1.2537626
29.468744
-1.4935265
1.2094645
29.119332
-1.3232304
0.39608375
25.267938
-1.1332775
-0.16161258
17.342594
-1.0613899
-1.3170308
21.758218
-1.328658
0.47174904
29.845329
-1.6453285
-0.25019986
17.020986
-0.0419557
-0.28956858
18.104021
-0.27797315
-0.23166349
18.096891
-0.41508736
-1.3230058
17.133446
0.20121099
1.6659403
30.200514
-1.2819349
0.037293166
22.415029
0.15826026
-0.99917453
18.148338
0.19287427
-0.075800269
26.499323
-0.54904932
0.037617285
29.99691
-1.0812134
0.14051704
29.938537
-1.0824668
1.023212
26.416451
-0.55393859
-0.037499009
18.093131
0.18756416
-1.7083113
22.329064
0.16100334
30.053097
-1.3006422
0.13417331
0.11790471
30.79984
-0.9779993
0.067822347
17.513591
-0.39479573
-0.0022769802
18.693954
-0.62884896
-0.068810338
18.695688
-17.978927
-0.62989144
-17.033615
17.518507
-0.13049791
-0.39381809
-16.298865
-1.2093331
0.10738401
0.1713417
0.445131
-0.21761871
-0.042846472
-0.2379912
31.85196
-1.4618197
0.20859329
20.864615
0.25383923
0.63978171
17.234643
-0.033092165
0.021345926
26.790509
-1.3820886
0.075500347
29.008355
-1.2216476
0.10127483
29.010328
-1.2158215
-0.57383413
26.789749
-1.3701693
-0.14618155
17.243778
-0.023599521
0.28025912
20.908987
0.23240507
-0.33158628
31.99338
-1.4766753
-0.14539505
16.415956
-0.047629511
0.23856934
17.791538
0.21734792
0.4319659
0.23556785
17.879854
1.023345
-0.20274168
16.488278
3.9919659
30.131935
-2.7534241
-14.049505
19.394967
0.24152123
-1.7542034
-12.006119
11.417286
14.233755
9.7696694
6.8440025
22.947215
6.3553261
0.36951023
2.5507724
-2.5132631
23.604818
1.3139204
27.843894
-2.5656923
-0.11444934
30.971063
-3.4526315
0.54912783
23.850518
-1.9844806
-14.317535
-1.1403176
16.037738
4.6186299
2.7622203
2.34997
-0.090566055
1.9736439
-0.26117512
2.55545
-4.5993417
15.3415
-2.1492062
-3.164648
-3.5386528
3.9642503
0.58984432
-4.2172475
6.8407975
0.69343258
-6.4816306
-7.8790844
0.12318414
4.6589867
3.4720746
8.2518936
-0.55843509
25.337854
-4.9193711
-4.452852
47.747081
-6.0120059
1.3455771
44.711254
1.3517145
-7.0062605
2.0439175
42.439899
-6.3441677
2.2941937
43.086895
-4.6069193
2.468593
44.265377
2.5980966
45.18075
-2.17912
4.5224763
4.3534616
44.23166
0.20519843
4.6668563
44.660124
2.4985128
4.6176883
44.491211
4.4133846
4.3579114
43.711549
5.5882055
3.842371
42.308211
3.0353716
40.326143
-4.8665354
39.541224
-3.9005665
4.8212902
41.121257
-2.2122126
5.5454855
42.316147
-0.17353163
5.8997447
42.961576
1.937538
5.932739
43.068679
3.8255351
5.6581097
42.623599
-4.1954701
5.0508562
5.0736179
41.577577
5.910325
43.230651
6.3734775
3.8221923
41.820001
5.1571549
3.9918089
40.570707
7.1529921
40.920033
-3.4791841
5.9283758
38.370532
-5.0758033
3.898245
38.095264
4.2601435
40.062907
-3.8220566
3.6340703
3.5694952
38.136635
-3.0130569
4.8143026
39.704469
-1.5208141
5.6624329
40.49413
0.13259696
6.0566738
40.806248
1.7351072
6.0442664
40.747735
3.0865048
5.6164035
40.342855
4.7010096
39.551911
-1.9836571
3.4800498
37.539975
-1.0095798
4.3959851
38.054891
-0.083343254
4.9209373
37.816399
0.87288303
4.9179528
37.845456
1.9391802
4.3951555
38.128116
2.6438188
3.4934259
37.597131
0.37083927
1.2607607
38.876891
-0.7368076
0.65401587
31.006032
0.3629731
1.04221
38.42169
-0.80315462
31.577131
-0.67667206
5.7561239
7.4429992
2.5915818
0.4472783
4.4041392
0.103788
-0.34027843
3.06364
-2.2355825
-0.27718839
2.4138172
3.9678197
-0.16291893
4.8014819
-0.94793167
6.0491427
-2.1482009
16.328082
0.038893697
0.27723672
-2.724816
21.509747
-2.7729799
-0.47443399
-0.24797716
17.024033
1.3147738
29.851328
-1.6408145
0.16064177
21.761949
-1.3287171
-16.0075
-0.40226869
17.345116
-1.0623886
-1.7492375
-3.1752796
20.109467
-6.203873
-3.4264776
-4.0462697
3.8920327
0.40543498
-2.3609901
0.92448301
6.9936928
-8.9836633
0.43674262
2.5240505
4.2680182
5.2920309
0.37943323
-2.2229306
-2.5396233
18.71738
1.1365672
27.34079
-1.4563095
-8.2229527
-0.080715082
-1.2103477
25.270585
-1.2539014
29.122364
-1.3268855
1.7477873
29.469823
-1.4951668
0.99255327
25.60993
-0.96651824
-0.040680939
17.359526
-0.3856251
21.75273
-0.56875478
-0.35673161
0.032117406
22.832212
-0.75176494
0.004457646
30.724258
-1.2884544
0.011047604
17.535251
-0.47525392
-0.0006074738
18.752602
-0.65877615
-0.011827089
18.752985
-0.65912287
-0.0056306276
17.535414
-0.47493011
0.35515555
30.724521
-1.2880864
0.031053956
22.832438
-0.75177786
-0.34783942
18.467832
-0.69324472
-0.34610757
26.818546
-1.1639184
0.18338884
30.324802
-1.3479306
0.47202877
30.2941
-1.4116617
0.25551438
26.788664
-1.2337547
-0.132871
18.469499
-0.69435533
-0.597776
22.841534
-0.61866649
-0.24867574
30.713178
-1.2020729
-0.19167431
17.512454
-0.50976958
-0.24298595
18.746987
-0.56495825
-0.17709135
18.748908
-0.69491204
-0.22761438
17.573212
-0.35885993
0.064545604
30.883995
-0.95428287
0.0020227597
23.043462
-0.60038085
-0.17446499
18.668368
-0.41483656
-0.12936957
27.039095
-0.62721724
0.019983793
30.490121
-0.64776193
0.15607437
30.483017
-0.64711157
0.18595266
27.010744
-0.62746257
-0.0099656711
18.632438
-0.41823452
22.98961
-0.59187118
-0.04239143
0.014010762
23.235875
-0.21788002
0.0209271
31.090354
-0.3506631
0.0033560592
17.685288
-0.15320362
-0.0012805409
18.910398
-0.21230044
-0.0043186547
18.911083
-0.2128275
-0.018559142
17.686589
-0.15278787
-30.813414
31.094447
-0.35034735
0.054323615
-30.081658
-0.97684363
0.13536686
1.7288967
-1.2975105
0.063585181
0.17508136
22.355361
-0.97504836
18.114514
0.1852873
-0.054710318
26.471936
-0.55438254
0.061058255
29.990421
-1.0810105
0.1669799
29.954151
-1.0775356
1.0553628
26.449655
-0.54379755
-0.0048968717
18.12998
0.20057862
-1.6339833
22.393094
0.14455315
1.3303009
30.177116
-1.2793316
0.2331315
17.124841
0.20173019
0.28739214
18.093407
-0.41325851
18.104832
0.19027374
-0.24209694
18.748116
-0.56472996
0.24671198
17.514452
-0.5081137
0.59566452
30.716697
-1.1994797
0.13189779
22.843753
-0.6185644
-0.25665831
18.470655
-0.69353444
-0.4732191
26.789494
-1.2330244
-0.18444433
30.294376
-1.4107862
0.34511425
30.324757
-1.3474388
0.34656338
26.818319
-1.1647005
18.467576
-0.69449844
-0.0092695842
-0.095865292
18.802266
-0.2270812
-0.11691331
23.204563
-0.26277501
-0.040445685
31.086757
-0.43539298
-0.026559003
17.703417
-0.18075589
-0.00062909022
18.943873
-0.21618297
0.025933718
18.943926
-0.21647038
0.039625922
17.703523
-0.18050209
0.11592038
31.086929
-0.43512563
0.0086893165
23.204678
-0.26306357
-0.096505789
18.802412
-0.22689455
-0.099248015
27.218791
-0.39475488
0.019551759
30.672966
-0.46062532
0.10862649
30.682469
-0.4683146
0.059694295
27.240397
-0.39835257
-0.065956385
18.818038
-0.22281015
-0.25186865
23.213048
-0.18676254
-0.17586334
31.064623
-0.42417259
-0.13356282
17.679048
-0.20768415
-0.14781031
18.929055
-0.16650079
-0.076905413
18.928988
-0.25004813
-0.087623189
17.712786
-0.12676351
-0.002218706
31.134261
-0.33170045
0.0020763296
23.266827
-0.2264914
-0.033741176
18.857883
-0.15166852
-0.028441921
27.274449
-0.23470751
0.0066748798
30.701993
-0.23976502
0.038000524
30.694308
-0.23909049
0.032195453
27.254282
-0.23516583
18.836031
-0.1555215
-0.025923081
0.018219921
18.878958
-0.03658019
-0.044357364
23.286969
-0.033535632
-0.018078661
31.142652
-0.078459798
-0.0094647263
17.711079
-0.034432855
-0.0014572833
18.941684
-0.039436692
0.0079753523
18.941526
-0.039994754
0.018189759
17.710416
-0.033988756
0.049577359
31.141538
-0.078190037
0.032836229
23.287195
-23.24158
-0.02956075
-18.839037
18.878116
0.031487062
-0.038178997
-18.643984
-0.0061394449
-0.028230804
-0.15928982
-0.14625177
-0.42341379
-0.031058293
-0.10211321
27.018289
-0.63291774
0.048058439
30.48346
-0.64907368
0.18604081
30.493316
-0.64400106
0.21810867
27.035163
-0.61986334
0.022819714
18.658981
-0.40796844
-0.040387553
23.030279
-0.61239047
0.23608608
30.87308
-0.95160377
0.17904435
17.56963
-0.35761233
18.747626
-0.69430833
0.14704378
-0.078128741
18.929629
-0.25005633
0.13241648
18.9306
-0.16656726
0.17427333
17.68063
-0.20682585
0.25019212
31.06698
-0.42292254
0.065298192
23.214431
-0.18692764
-0.060301204
18.81882
-0.2224672
-0.10920408
27.241001
-0.39812305
-0.02013866
30.682706
-0.468239
0.098628741
30.672954
-0.46063054
27.218652
-0.39485758
0.014133089
-0.032684887
27.316406
-0.08078589
-0.017338838
18.879022
-0.047247013
-0.060124485
23.29092
-0.045320046
-0.038199416
31.158914
-0.094171168
-0.020181706
17.726512
-0.04094053
-0.00035769464
18.9627
-0.038273652
0.019776424
18.962636
-0.038460801
0.037706751
17.726546
-0.040782527
0.059567438
31.158995
-0.094022277
0.017025621
23.290961
-0.04548971
-0.014472901
18.879084
-0.047140006
-0.033015997
27.316467
-0.080718331
-0.025120439
30.758252
-0.093787681
-0.013457226
30.764026
-0.093115814
-0.024133698
27.329002
-0.078748022
-0.047307529
18.887293
-0.047758944
-0.1149451
23.29289
-0.014645693
-0.093641899
31.138254
-0.095116374
-0.066670691
17.707114
-0.055095416
-0.069898888
18.947594
-0.015010892
-0.030159849
18.947917
-0.05835086
-0.022173009
17.724709
-0.019482709
0.011252708
31.168609
-0.067431302
0.012396513
23.307677
-0.042252892
0.0075990553
18.895268
-0.032499506
0.0026837381
27.331211
-0.051327355
-0.0028089603
30.761433
-0.054260151
-0.0096781823
30.754273
-0.055078547
27.314314
-0.053932619
-0.029749344
0.022351687
27.345567
-0.026805207
-0.029484026
18.89715
-0.020313928
-0.046423701
23.304672
-0.0021727501
-0.024502458
31.153079
-0.032847001
-0.011053307
17.713342
-0.016337218
-0.0015682967
18.942723
-0.011075213
0.009071954
18.942203
-0.011864772
0.022662805
17.711946
-0.015715999
0.046198737
31.149947
-0.032386363
0.030864395
23.302499
-0.0012476215
0.033419988
18.894878
-0.020528985
-27.312895
27.343078
0.02833214
-0.026712743
-27.2563
0.029108274
-0.055014114
7.9482745e-05
-0.23968857
0.03618985
30.693593
-0.24130963
0.067900697
30.701389
-0.23728477
0.062047635
27.27429
-0.22947097
0.014431254
18.856081
-0.14698184
0.018379777
23.262406
-0.23522855
0.09331247
31.132151
-0.33044003
17.71279
-0.12602349
0.030272473
-0.024495847
17.72663
-0.019266855
0.068820358
18.949699
-0.058334386
0.065638408
18.949354
-0.015279614
0.092356063
17.708492
-0.054626799
0.11372884
31.140006
-0.094567303
0.046822451
23.293785
-0.014862309
0.023739557
18.887792
-0.047558292
0.013139802
27.329391
-0.078604824
0.024816854
30.764189
-0.093054127
30.758274
-0.093790112
0.012508966
-0.027551493
30.799892
-0.028663092
-0.0059984132
27.359114
-0.026324665
-0.018966648
18.908623
-0.018573277
-0.041705445
23.320594
-0.0087337701
-0.026692788
31.177377
-0.03421053
-0.012741793
17.729167
-0.017230603
-0.00016145904
18.960683
-0.011000577
0.012517963
18.960626
-0.011106061
0.026419279
17.729164
-0.017144238
0.041419111
31.177396
-0.034137295
0.01880811
23.320614
-0.0088347608
0.0058293656
18.908651
-0.018529244
-0.012663976
27.359133
-0.026300025
-0.027709998
30.799873
-0.028668014
-0.035275334
30.79782
-0.027751202
-0.037565862
27.354728
-0.024958614
-0.036085178
18.903725
-0.019311116
-0.062684748
23.311116
0.0066535774
-0.045091036
31.153496
-0.033486719
-0.028916736
17.712311
-0.022120609
-0.026433039
18.946154
-0.0016019829
-0.0075253303
18.948033
-0.019552157
0.0019525364
17.72374
-0.0090707152
0.02231343
31.174967
-0.027270555
0.016040799
23.323271
-0.010418684
0.014319292
18.912831
-0.016628643
0.0058683982
27.363251
-0.02424344
-0.0084615906
30.799882
-0.027050554
30.791923
-0.027904404
-0.022170187
0.010493192
30.834559
-0.034686406
-0.026960698
27.380056
-0.032603344
-0.026307184
18.918638
-0.024196964
-0.040896895
23.325432
-0.0079839904
-0.020080275
31.169509
-0.0382966
-0.0093283236
17.721629
-0.020215852
-0.0015556719
18.949466
-0.015607997
0.007205261
18.948872
-0.016523589
0.017235636
17.720242
-0.019503195
0.03760317
31.166245
-0.037730712
0.024547884
23.322731
-0.0089302563
0.025102125
18.916298
-0.023730514
0.020425007
27.377771
-0.032099366
-30.79037
30.833831
0.0089081345
-0.034226201
-30.75191
0.015570831
-0.027543853
0.02506995
-0.05534375
0.017511305
30.761214
-0.05379124
0.0069021925
27.333588
-0.049928027
-0.0041672492
18.896811
-0.030475985
-0.0035023655
23.308273
-0.046948136
31.171313
-0.066994249
-0.0023086375
0.021024919
31.179322
-0.027326228
0.0067585302
17.726217
-0.009233768
0.025057576
18.950114
-0.019239789
0.027992497
18.947807
-0.0019367786
0.044060944
17.713454
-0.021770025
0.061796832
31.154798
-0.033176359
0.035735067
23.311692
0.0064540423
0.037295667
18.904035
-0.019188201
0.035084534
27.354962
-0.02487533
30.797917
-0.027714373
0.01852298
-0.027517281
30.83688
-0.032104067
0.0042193077
30.84425
-0.032557159
-0.0084825897
27.399604
-0.030144203
-0.016184547
18.935859
-0.021625668
-0.031068281
23.347349
-0.01382233
-0.016411479
31.19943
-0.037955781
-0.0079506613
17.73934
-0.019878856
-8.4208806e-05
18.968068
-0.016369781
0.0078378068
18.968006
-0.016420699
0.016264215
17.739327
-0.019835506
0.030916543
31.199419
-0.037924793
0.01610409
23.347346
-0.013875296
0.0083991441
18.935864
-0.021604027
-0.0043002615
27.399608
-0.030135393
-0.018609319
30.844236
-0.032561567
-0.027635324
30.836827
-0.032123988
-0.02862248
27.383295
-0.029551179
-0.025643856
18.921074
-0.022029843
-0.039234205
23.32818
-0.0052625341
-0.021467047
31.17058
-0.036008637
-0.012364115
17.722637
-0.020717025
-0.0082090145
18.953749
-0.012933522
0.0009186771
18.956963
-0.019234743
0.0071967389
17.733034
-0.016823865
0.023056363
31.193377
-0.035482081
0.014197628
23.345664
-0.015235672
0.010595049
18.935959
-0.021122215
0.0025286749
27.40023
-0.030469735
30.843933
-0.033985041
-0.0099113475
0.00046110092
30.883109
-0.032664873
-0.017883558
30.872934
-0.033154256
-0.02039654
27.411031
-0.031072077
-0.020019824
18.93863
-0.02273139
-0.030936552
23.344745
-0.010702906
-0.014016695
31.187249
-0.03640195
-0.0067871351
17.731967
-0.019417743
-0.0013446704
18.958562
-0.016302245
0.0048668077
18.958048
-0.017155908
0.011091258
17.730894
-0.018738995
0.026727778
31.184678
-0.035849836
0.01711052
23.342425
-0.012364925
0.016338274
18.936741
-0.022051107
0.01295602
27.409099
-0.030565688
0.004716079
30.872183
-0.032887434
-30.845115
30.883984
-0.0043278742
-0.032669075
-30.800841
-0.0039820739
-0.03379873
0.00060292205
-0.026736557
-0.0099519995
27.366295
-0.0239404
-0.013910125
18.915509
-0.016155034
23.32597
-0.011789866
-0.02542385
0.015520285
23.348689
-0.014562872
-0.0090380316
31.197502
-0.035758779
-0.0021172998
17.735238
-0.017180316
0.0067509024
18.958795
-0.018712552
0.011579347
18.955058
-0.013251286
0.020679949
17.723496
-0.020411277
0.038610819
31.171498
-0.035770411
0.025403815
23.328539
-0.0054125331
0.028442126
18.921255
-0.021953397
27.383428
-0.029503536
0.016632071
-0.017592491
27.411206
-0.029356925
0.0098739405
30.872921
-0.031984221
0.00025244109
30.883144
-0.032160239
-0.0071325116
27.43385
-0.029604216
-0.012048966
18.959117
-0.020874259
-0.022028008
23.370373
-0.015415636
-0.0097154328
31.221246
-0.036017619
-0.0049461602
17.751543
-0.018888964
-4.596342e-05
18.978543
-0.017182952
0.0048830626
18.978481
-0.017213016
0.0096487257
17.751507
-0.018865826
0.02196175
31.221211
-0.035997323
0.012015029
23.370359
-0.015439527
0.007094729
18.959112
-0.020866743
-0.0002899674
27.433852
-0.029603911
-0.0099195386
30.883145
-0.032168555
-0.016701026
30.872899
-0.031996777
-0.017703828
27.411139
-0.029387058
-0.016711677
18.938817
-0.021065357
-0.025133864
23.34535
-0.011012102
-0.01073915
31.188778
-0.034421918
-0.0057480859
17.734351
-0.018637169
-0.0021363932
18.964288
-0.016001803
0.0026497887
18.968296
-0.017971537
0.0061335539
17.745326
-0.017721003
0.01780236
31.214648
-0.03484989
0.010066812
23.367685
-0.016592079
0.005837154
18.958052
-0.02034461
27.433275
-0.029489035
-0.0019639877
-0.0022694786
27.457177
-0.023024533
-0.0079095058
30.910976
-0.025413764
-0.012564357
30.899987
-0.025756512
-0.013555291
27.432948
-0.024162352
-0.013454034
18.953053
-0.017596294
-0.020714798
23.358474
-0.0094064838
-0.0086740523
31.200691
-0.028014544
-0.0043848258
17.740143
-0.015081503
-0.0010337763
18.96582
-0.013123341
0.002880369
18.965427
-0.013814305
0.006240468
17.739431
-0.014530629
0.016920883
31.19896
-0.027539343
0.010628465
23.356818
-0.011039088
0.0094210858
18.951786
-0.01695113
0.0073614804
27.431623
-0.023738524
0.0023099199
30.899443
-0.025610852
-0.0031801429
30.911546
-0.025506685
-27.435326
27.458543
-0.0062994546
-0.023395932
-27.402816
-0.0096824205
-0.029825788
-0.012056563
-0.030628669
18.938516
-0.021419377
-0.012737024
18.960044
-0.020921155
-0.021462004
23.370188
-0.015081027
-0.0083856531
31.217767
-0.035200888
-0.0038860607
17.746945
-0.018125131
0.00084142312
18.969656
-0.017414932
0.0051327543
18.965206
-0.016269813
0.010168516
17.734934
-0.018392624
0.024716985
31.189371
-0.0342428
0.016560986
23.345558
-0.011111685
18.93892
-0.021014172
0.0096029342
-0.0099630326
18.952704
-0.016508757
0.0087377575
27.432234
-0.023395703
0.0044774042
30.899316
-0.025499627
-0.0011037323
30.910852
-0.025574723
-0.0049378527
27.457867
-0.023507843
-0.0080659532
18.975542
-0.016479613
-0.014446353
23.386515
-0.012738022
-0.0054491939
31.237384
-0.027767743
-0.0029479258
17.761041
-0.014668087
-2.3950826e-05
18.98691
-0.013842926
0.0029232554
18.986836
-0.013854484
0.0054192621
17.761005
-0.014663077
0.014419148
31.237344
-0.027768562
0.008051751
23.3865
-0.012749373
0.0049246948
18.975538
-0.016482287
0.0010895547
27.457869
-0.023514232
-0.0044973936
30.910855
-0.025580914
-0.0087726991
30.899309
-0.025511397
-0.0096646121
27.432202
-0.02341725
-0.010053894
18.952654
-0.016541361
-0.015480004
23.358575
-0.010724347
-0.005457837
31.202984
-0.026840604
-0.0029288378
17.743493
-0.014347331
-0.00052930933
18.972751
-0.013433225
0.0020615506
18.977175
-0.014046146
0.0036292952
17.755196
-0.014130029
0.011433401
31.231246
-0.027069886
0.0060007834
23.383933
-0.013784875
18.974423
-0.015847162
0.00012206403
-0.0030765101
18.98471
-0.011321791
-0.0023418033
27.472016
-0.016456389
-0.0055274894
30.928093
-0.018131891
-0.0077765966
30.916489
-0.018367591
-0.0079046768
27.446311
-0.017243173
-0.008137389
18.961918
-0.012526688
-0.01255407
23.366669
-0.0074495277
-0.0046435278
31.209008
-0.019591309
-0.0025233915
17.745307
-0.010709286
-0.00070970196
18.970363
-0.0096577209
0.0014762939
18.97008
-0.010146757
0.0029027827
17.744877
-0.010308386
0.009725144
31.207988
-0.019243468
0.0059606117
23.365625
-0.008715365
0.0046593562
18.961176
-0.01201461
0.003635044
27.445532
-0.016913759
0.0010386538
30.916162
-0.018266185
-0.001776818
30.928416
-0.018215922
-0.0033214105
27.472805
-0.016762267
-18.975736
18.985464
-0.0051908641
-0.011805138
-0.008695844
-0.016443875
-0.01490634
23.385681
-0.01223706
-0.0056372247
31.233278
-0.027397281
-0.0030956661
17.756229
-0.01448942
-0.00048014418
18.97806
-0.01357217
0.0024886555
18.973316
-0.013630605
0.0050750482
17.743854
-0.01416231
0.015217686
31.203336
-0.026706545
23.358685
-0.010787525
0.0055422825
-0.0088021143
23.367065
-0.0087808284
0.0045514206
18.961685
-0.011908336
0.0040150338
27.445707
-0.01695706
0.0017670818
30.915903
-0.018471734
-0.0010208562
30.927982
-0.018508523
-0.0027659246
27.472578
-0.017021864
-0.0048792059
18.985623
-0.011925449
-0.0087187155
23.39622
-0.0095570746
-0.0026229687
31.247349
-0.019482579
-0.0016001964
17.767018
-0.010452428
-7.8525828e-06
18.99215
-0.010155891
0.001590379
18.992075
-0.010157557
0.0026176875
17.766974
-0.010449277
0.0087206648
31.247306
-0.019485286
0.0048822992
23.396204
-0.0095610017
0.0027666107
18.98562
-0.011933914
0.0010205694
27.472579
-0.01702922
-0.0017709036
30.927988
-0.01851626
-0.0040278665
30.91591
-0.018485992
-0.0045806164
27.445702
-0.016975857
-0.005589274
18.961664
-0.011929419
-0.0089570329
23.367019
-0.0087517971
-0.0024745345
31.21212
-0.019034359
-0.001495295
17.749314
-0.010260932
-0.00019964654
18.978115
-0.0099986873
0.0011182016
18.982757
-0.010243443
0.0014469646
17.761528
-0.010138119
0.0064212058
31.241813
-0.018998074
23.393988
-0.010407817
0.0013720544
-0.0033110683
23.399406
-0.007899041
-0.00091954305
18.990359
-0.0081145117
-0.0021036062
27.480132
-0.01174233
-0.0034242895
30.937397
-0.01290335
-0.0041550873
30.925408
-0.013056899
-0.0038745129
27.453506
-0.012246087
-0.0044724554
18.966685
-0.008871144
-0.0070058178
23.370889
-0.006090819
-0.0019264338
31.21344
-0.013636562
-0.0012580519
17.748071
-0.0076072092
-0.00043279775
18.972772
-0.0072701901
0.00061269426
18.972572
-0.0075770287
0.00082447627
17.747836
-0.0073514224
0.0051881026
31.212883
-0.013401363
0.0030425229
23.370291
-0.0069205183
0.0017258149
18.9663
-0.0085251742
0.0013933873
27.4531
-0.012018532
0.00042033108
30.925232
-0.012981101
-0.00065189032
30.937559
-0.012961721
-0.0012141016
27.480535
-0.011955635
-0.0027722254
18.990741
-0.0084443458
-23.39506
23.400002
-0.0050354576
-0.0070842374
-0.009072197
-0.0091816415
-0.0029344432
31.242981
-0.019247432
-0.0018581056
17.762111
-0.010403983
-0.00049280644
18.983274
-0.0098983204
0.001207164
18.978426
-0.010131315
0.0022364628
17.749512
-0.010134275
31.212311
-0.018944559
0.004785575
-0.00053208917
31.217243
-0.01333147
0.0028347606
23.371644
-0.0070254427
0.001612189
18.966728
-0.0085361831
0.0014507838
27.45324
-0.012149631
0.00060618666
30.92508
-0.01321564
-0.00043663444
30.937363
-0.013230236
-0.0010372104
27.480575
-0.012188456
-0.0026679478
18.991092
-0.0085708188
-0.0048775175
23.401317
-0.007297203
-0.00078554336
31.252692
-0.013588697
-0.0007255162
17.770231
-0.0074633758
-1.6391514e-06
18.994949
-0.0075703252
0.00073167896
18.994862
-0.007566617
0.00079480714
17.770187
-0.007467968
0.004892875
31.252645
-0.013597894
0.0026739513
23.401302
-0.0072948321
0.001046922
18.991089
-0.0085779494
0.0004466272
27.480585
-0.012203178
-0.00059923163
30.937377
-0.013245989
-0.0014502124
30.925096
-0.013228558
-0.0016216747
27.453249
-0.012164797
-0.0028594246
18.966732
-0.008554522
-0.0048679934
23.371634
-0.007013541
-0.0006681628
31.217155
-0.013394338
-0.00067038909
17.752495
-0.0073757713
-0.00013261833
18.981014
-0.0074977051
0.00042599595
18.98577
-0.0076365715
1.8206607e-05
17.764994
-0.0072687707
31.2476
-0.013263211
0.0016969447
0.00074825586
31.250271
-0.0098452182
0.00055083231
23.401877
-0.0063144632
-0.0012757452
18.99301
-0.0061708635
-0.0016403713
27.483943
-0.0088058914
-0.0018551653
30.941744
-0.0095762763
-0.0017490794
30.929554
-0.0096633783
-0.0013178204
27.45683
-0.0090876964
-0.0022250217
18.96887
-0.0065896599
-0.0036783775
23.372702
-0.0053293642