/*--------------------------------*- C++ -*----------------------------------*\
  =========                 |
  \\      /  F ield         | OpenFOAM: The Open Source CFD Toolbox
   \\    /   O peration     | Website:  https://openfoam.org
    \\  /    A nd           | Version:  7
     \\/     M anipulation  |
\*---------------------------------------------------------------------------*/
FoamFile
{
    version     2.0;
    format      ascii;
    class       volScalarField;
    location    "210";
    object      rho;
}
// * * * * * * * * * * * * * * * * * * * * * * * * * * * * * * * * * * * * * //

dimensions      [1 -3 0 0 0 0 0];

internalField   nonuniform List<scalar> 
24866
(
1.1739234
1.1739228
1.1739229
1.1739231
1.1739232
1.1739232
1.1739233
1.1739232
1.1739232
1.1739232
1.1739233
1.1739232
1.1739232
1.1739232
1.1739232
1.1739232
1.1739231
1.1739232
1.1739232
1.1739231
1.1739231
1.1739232
1.1739232
1.1739232
1.1739231
1.1739231
1.1739231
1.1739232
1.1739232
1.1739232
1.1739231
1.1739232
1.1739232
1.1739231
1.1739232
1.1739232
1.1739232
1.1739231
1.1739231
1.1739231
1.1739232
1.1739232
1.1739232
1.1739232
1.1739231
1.1739232
1.1739232
1.1739232
1.1739233
1.1739232
1.1739232
1.1739232
1.1739233
1.1739233
1.1739232
1.1739232
1.1739232
1.1739233
1.1739232
1.1739232
1.1739235
1.1739237
1.1739235
1.1739235
1.1739237
1.1739239
1.1739236
1.1739235
1.1739237
1.1739238
1.1739238
1.1739237
1.1739235
1.1739236
1.1739239
1.1739237
1.1739235
1.1739235
1.1739237
1.1739235
1.1739234
1.1739236
1.1739238
1.1739239
1.173924
1.1739236
1.1739235
1.1739236
1.1739235
1.1739236
1.173924
1.1739241
1.173925
1.173925
1.1739248
1.1739245
1.1739241
1.1739247
1.1739241
1.1739246
1.1739253
1.173926
1.1739252
1.1739257
1.1739259
1.1739259
1.1739257
1.1739248
1.1739245
1.1739238
1.1739236
1.1739234
1.1739235
1.1739237
1.1739241
1.1739247
1.1739252
1.173926
1.1739266
1.1739269
1.1739269
1.1739265
1.1739273
1.1739266
1.1739257
1.1739249
1.1739242
1.1739243
1.1739251
1.173926
1.1739269
1.1739277
1.1739281
1.1739277
1.1739277
1.1739273
1.1739266
1.1739257
1.1739252
1.1739245
1.1739241
1.1739236
1.1739234
1.1739235
1.1739233
1.1739233
1.1739234
1.173923
1.1739231
1.1739231
1.173923
1.1739231
1.173923
1.173923
1.173923
1.1739229
1.173923
1.1739231
1.173923
1.1739229
1.1739228
1.1739229
1.1739231
1.173923
1.1739231
1.1739231
1.173923
1.1739232
1.1739231
1.1739231
1.1739232
1.1739232
1.1739232
1.1739232
1.1739231
1.1739232
1.1739232
1.1739231
1.1739234
1.1739235
1.1739234
1.1739233
1.1739237
1.1739234
1.1739236
1.1739237
1.1739242
1.1739241
1.1739247
1.1739241
1.1739246
1.1739249
1.1739242
1.1739243
1.1739251
1.173926
1.1739269
1.1739277
1.1739281
1.1739282
1.1739282
1.1739277
1.1739269
1.1739259
1.173925
1.1739248
1.173924
1.1739238
1.1739238
1.1739236
1.1739236
1.173923
1.173923
1.1739231
1.173923
1.1739228
1.1739229
1.1739229
1.1739228
1.173923
1.1739228
1.1739228
1.1739229
1.1739229
1.1739229
1.1739229
1.1739227
1.1739228
1.1739229
1.1739227
1.1739229
1.1739229
1.1739228
1.173923
1.1739229
1.1739228
1.1739229
1.1739229
1.1739229
1.1739229
1.1739228
1.1739229
1.173923
1.1739226
1.1739223
1.1739225
1.1739225
1.1739223
1.1739228
1.1739231
1.1739232
1.1739232
1.1739231
1.1739232
1.1739232
1.1739232
1.1739232
1.1739231
1.1739232
1.1739232
1.1739231
1.1739231
1.1739231
1.173923
1.1739231
1.1739229
1.173923
1.1739231
1.173923
1.1739229
1.1739231
1.1739231
1.1739231
1.1739229
1.173923
1.1739234
1.1739234
1.1739234
1.1739234
1.1739236
1.1739235
1.1739238
1.1739237
1.1739236
1.1739235
1.1739236
1.1739241
1.173924
1.173925
1.1739259
1.1739269
1.1739277
1.1739273
1.1739277
1.1739277
1.1739273
1.1739266
1.1739257
1.1739253
1.173926
1.1739266
1.1739269
1.1739269
1.1739266
1.173926
1.1739266
1.1739257
1.1739248
1.173924
1.1739238
1.1739245
1.1739252
1.1739247
1.1739253
1.1739257
1.173926
1.173926
1.1739258
1.1739253
1.1739246
1.1739249
1.1739251
1.1739251
1.1739249
1.1739246
1.1739241
1.1739237
1.1739241
1.1739236
1.1739235
1.1739235
1.1739233
1.1739235
1.1739234
1.1739233
1.1739236
1.1739236
1.1739234
1.1739234
1.1739228
1.1739229
1.1739228
1.1739227
1.1739228
1.1739236
1.1739235
1.1739238
1.1739238
1.1739234
1.1739236
1.1739235
1.1739235
1.1739235
1.1739229
1.1739229
1.173923
1.1739229
1.1739228
1.1739228
1.1739225
1.1739226
1.1739223
1.1739224
1.1739224
1.1739223
1.1739226
1.1739225
1.1739224
1.1739225
1.1739225
1.1739225
1.1739225
1.1739223
1.1739224
1.1739225
1.1739223
1.1739224
1.1739224
1.1739223
1.1739226
1.1739225
1.1739224
1.1739225
1.1739226
1.1739226
1.1739225
1.1739224
1.1739225
1.173922
1.1739221
1.1739217
1.1739219
1.1739219
1.1739217
1.1739221
1.1739226
1.173923
1.1739229
1.1739229
1.1739229
1.1739229
1.1739229
1.1739229
1.1739229
1.1739229
1.173923
1.1739228
1.1739229
1.1739229
1.1739224
1.1739223
1.1739226
1.1739225
1.1739223
1.1739225
1.1739225
1.1739225
1.1739225
1.1739224
1.1739218
1.173922
1.1739221
1.1739217
1.1739219
1.1739219
1.1739217
1.1739221
1.1739219
1.1739218
1.173922
1.173922
1.173922
1.173922
1.1739218
1.1739219
1.1739221
1.1739217
1.1739219
1.1739219
1.1739217
1.1739221
1.1739219
1.1739218
1.173922
1.1739221
1.1739221
1.173922
1.1739218
1.173921
1.1739212
1.1739214
1.1739209
1.1739211
1.1739211
1.1739209
1.1739214
1.1739212
1.173921
1.1739218
1.1739224
1.1739225
1.1739226
1.1739226
1.1739225
1.1739224
1.1739225
1.1739226
1.1739223
1.1739224
1.1739219
1.1739219
1.1739217
1.1739221
1.173922
1.1739218
1.173922
1.1739221
1.1739221
1.173922
1.1739214
1.1739211
1.1739212
1.1739215
1.1739209
1.1739212
1.1739212
1.1739209
1.1739214
1.1739212
1.173921
1.1739213
1.1739214
1.1739214
1.1739213
1.173921
1.1739212
1.1739214
1.1739209
1.1739211
1.1739211
1.1739209
1.1739214
1.1739212
1.173921
1.1739213
1.1739214
1.1739214
1.1739213
1.1739203
1.1739199
1.1739202
1.1739205
1.1739197
1.1739201
1.1739201
1.1739197
1.1739205
1.1739202
1.1739199
1.1739203
1.1739213
1.173922
1.1739221
1.1739221
1.173922
1.1739218
1.173922
1.1739221
1.1739217
1.1739209
1.1739212
1.1739212
1.1739209
1.1739214
1.1739212
1.1739211
1.1739214
1.1739214
1.1739214
1.1739205
1.1739204
1.17392
1.1739202
1.1739205
1.1739198
1.1739201
1.1739201
1.1739198
1.1739205
1.1739202
1.17392
1.1739204
1.1739204
1.1739204
1.1739204
1.1739199
1.1739202
1.1739205
1.1739197
1.1739201
1.1739201
1.1739197
1.1739205
1.1739202
1.1739199
1.1739203
1.1739204
1.1739204
1.1739191
1.173919
1.1739184
1.1739187
1.1739191
1.1739182
1.1739186
1.1739186
1.1739182
1.1739191
1.1739187
1.1739184
1.173919
1.1739191
1.1739204
1.1739214
1.1739214
1.1739214
1.1739211
1.1739212
1.1739215
1.1739205
1.1739198
1.1739201
1.1739201
1.1739198
1.1739205
1.1739202
1.17392
1.1739204
1.1739205
1.1739191
1.1739191
1.173919
1.1739185
1.1739188
1.1739192
1.1739182
1.1739187
1.1739187
1.1739182
1.1739192
1.1739188
1.1739185
1.173919
1.1739191
1.1739191
1.173919
1.1739184
1.1739188
1.1739191
1.1739182
1.1739186
1.1739186
1.1739182
1.1739191
1.1739187
1.1739184
1.173919
1.1739191
1.1739173
1.1739173
1.1739171
1.1739164
1.1739169
1.1739174
1.1739161
1.1739167
1.1739167
1.1739162
1.1739174
1.1739169
1.1739165
1.1739172
1.1739173
1.1739173
1.1739191
1.1739204
1.1739204
1.17392
1.1739202
1.1739188
1.1739192
1.1739182
1.1739186
1.1739187
1.1739182
1.1739192
1.1739188
1.1739185
1.173919
1.1739172
1.1739174
1.1739174
1.1739172
1.1739165
1.173917
1.1739174
1.1739162
1.1739168
1.1739168
1.1739162
1.1739174
1.1739169
1.1739165
1.1739172
1.1739173
1.1739173
1.1739172
1.1739165
1.1739169
1.1739174
1.1739162
1.1739167
1.1739167
1.1739162
1.1739174
1.1739169
1.1739164
1.1739171
1.1739149
1.1739151
1.1739151
1.1739149
1.173914
1.1739146
1.1739152
1.1739137
1.1739144
1.1739144
1.1739137
1.1739152
1.1739146
1.1739141
1.1739149
1.1739151
1.1739151
1.1739149
1.1739172
1.173919
1.1739184
1.1739165
1.1739169
1.1739174
1.1739162
1.1739168
1.1739168
1.1739162
1.1739174
1.1739169
1.1739165
1.1739142
1.173915
1.1739152
1.1739152
1.173915
1.1739142
1.1739147
1.1739153
1.1739138
1.1739145
1.1739145
1.1739138
1.1739153
1.1739147
1.1739141
1.173915
1.1739151
1.1739151
1.1739149
1.1739141
1.1739146
1.1739152
1.1739138
1.1739145
1.1739144
1.1739138
1.1739152
1.1739146
1.1739141
1.1739114
1.1739124
1.1739126
1.1739125
1.1739123
1.1739114
1.173912
1.1739127
1.1739112
1.1739119
1.1739119
1.1739112
1.1739127
1.173912
1.1739114
1.1739124
1.1739126
1.1739126
1.1739124
1.1739115
1.1739141
1.1739146
1.1739152
1.1739138
1.1739145
1.1739145
1.1739138
1.1739153
1.1739147
1.1739122
1.1739115
1.1739125
1.1739127
1.1739127
1.1739125
1.1739115
1.1739122
1.1739128
1.1739113
1.173912
1.173912
1.1739113
1.1739128
1.1739121
1.1739115
1.1739124
1.1739126
1.1739126
1.1739124
1.1739115
1.1739121
1.1739128
1.1739112
1.173912
1.173912
1.1739112
1.1739127
1.1739121
1.1739097
1.1739091
1.1739099
1.1739101
1.1739101
1.1739099
1.1739091
1.1739097
1.1739104
1.1739089
1.1739097
1.1739097
1.1739089
1.1739104
1.1739097
1.1739091
1.1739099
1.1739101
1.1739101
1.17391
1.1739091
1.1739098
1.1739121
1.1739128
1.1739112
1.173912
1.173912
1.1739113
1.1739128
1.1739105
1.1739099
1.1739092
1.1739101
1.1739103
1.1739103
1.1739101
1.1739092
1.1739099
1.1739105
1.1739091
1.1739098
1.1739098
1.1739091
1.1739105
1.1739098
1.1739092
1.17391
1.1739102
1.1739102
1.17391
1.1739091
1.1739098
1.1739104
1.173909
1.1739098
1.1739097
1.173909
1.1739104
1.1739088
1.1739083
1.1739077
1.1739083
1.1739083
1.1739083
1.1739083
1.1739077
1.1739083
1.1739088
1.1739077
1.1739084
1.1739084
1.1739077
1.1739088
1.1739083
1.1739077
1.1739083
1.1739083
1.1739084
1.1739083
1.1739078
1.1739084
1.1739089
1.1739105
1.173909
1.1739098
1.1739098
1.1739091
1.1739079
1.173909
1.1739084
1.1739079
1.1739085
1.1739085
1.1739085
1.1739085
1.1739079
1.1739084
1.173909
1.1739079
1.1739086
1.1739086
1.1739079
1.1739089
1.1739084
1.1739078
1.1739084
1.1739084
1.1739084
1.1739084
1.1739077
1.1739083
1.1739089
1.1739078
1.1739085
1.1739085
1.1739078
1.1739085
1.173909
1.1739087
1.1739083
1.1739086
1.1739085
1.1739085
1.1739086
1.1739083
1.1739087
1.173909
1.1739085
1.173909
1.173909
1.1739085
1.173909
1.1739087
1.1739083
1.1739086
1.1739085
1.1739086
1.1739087
1.1739084
1.1739088
1.1739091
1.1739087
1.1739079
1.1739086
1.1739086
1.1739091
1.1739087
1.1739092
1.1739089
1.1739085
1.1739088
1.1739087
1.1739087
1.1739088
1.1739085
1.1739089
1.1739092
1.1739087
1.1739091
1.1739091
1.1739087
1.1739092
1.1739088
1.1739084
1.1739087
1.1739086
1.1739086
1.1739087
1.1739084
1.1739088
1.1739091
1.1739086
1.173909
1.173909
1.1739118
1.1739116
1.1739116
1.1739116
1.1739115
1.1739114
1.1739113
1.1739113
1.1739114
1.1739115
1.1739116
1.1739116
1.1739116
1.1739118
1.1739118
1.1739116
1.1739116
1.1739116
1.1739115
1.1739115
1.1739114
1.1739114
1.1739115
1.1739116
1.1739117
1.1739117
1.1739118
1.173912
1.1739091
1.1739098
1.1739086
1.1739098
1.1739095
1.173908
1.1739097
1.1739089
1.1739086
1.1739086
1.1739089
1.1739097
1.1739111
1.1739117
1.1739118
1.1739118
1.1739118
1.173912
1.173912
1.1739118
1.1739118
1.1739117
1.1739116
1.1739115
1.1739114
1.1739114
1.1739115
1.1739115
1.1739116
1.1739117
1.1739117
1.1739118
1.1739164
1.1739164
1.1739165
1.173916
1.1739162
1.1739164
1.1739161
1.173916
1.1739159
1.1739161
1.1739163
1.1739162
1.173916
1.1739165
1.1739164
1.1739164
1.1739165
1.173916
1.1739162
1.1739164
1.1739161
1.173916
1.173916
1.1739162
1.1739165
1.1739163
1.1739162
1.1739167
1.1739166
1.1739166
1.173912
1.1739118
1.1739118
1.1739118
1.1739117
1.1739117
1.1739116
1.1739116
1.1739117
1.1739163
1.1739166
1.1739164
1.1739162
1.1739167
1.1739166
1.1739166
1.1739167
1.1739162
1.1739163
1.1739165
1.1739162
1.1739161
1.173916
1.1739162
1.1739164
1.1739162
1.1739161
1.1739165
1.1739224
1.1739221
1.1739221
1.1739224
1.1739215
1.1739219
1.1739223
1.1739218
1.1739216
1.1739216
1.1739218
1.1739223
1.1739219
1.1739215
1.1739224
1.1739221
1.1739221
1.1739225
1.1739216
1.1739219
1.1739224
1.1739218
1.1739217
1.1739217
1.1739219
1.1739224
1.173922
1.1739217
1.1739226
1.1739222
1.1739223
1.1739226
1.1739167
1.1739162
1.1739164
1.1739166
1.1739163
1.1739162
1.1739162
1.1739218
1.173922
1.1739225
1.1739221
1.1739217
1.1739226
1.1739222
1.1739222
1.1739226
1.1739217
1.173922
1.1739224
1.1739219
1.1739217
1.1739217
1.1739218
1.1739224
1.1739219
1.1739216
1.1739278
1.1739289
1.1739284
1.1739284
1.1739289
1.1739277
1.1739282
1.1739288
1.1739281
1.1739279
1.1739279
1.1739281
1.1739288
1.1739282
1.1739277
1.173929
1.1739284
1.1739284
1.173929
1.1739278
1.1739283
1.1739289
1.1739282
1.173928
1.173928
1.1739282
1.173929
1.1739283
1.1739279
1.1739291
1.1739285
1.1739285
1.173929
1.1739279
1.1739217
1.1739221
1.1739225
1.173922
1.1739219
1.1739281
1.1739281
1.1739282
1.1739289
1.1739284
1.1739279
1.173929
1.1739285
1.1739285
1.173929
1.1739279
1.1739283
1.1739289
1.1739282
1.173928
1.173928
1.1739281
1.1739289
1.1739283
1.173935
1.1739345
1.1739358
1.1739351
1.1739351
1.1739358
1.1739345
1.173935
1.1739358
1.173935
1.1739348
1.1739348
1.173935
1.1739358
1.1739351
1.1739345
1.1739359
1.1739352
1.1739352
1.1739359
1.1739346
1.1739351
1.1739359
1.1739351
1.1739349
1.173935
1.1739351
1.1739359
1.1739351
1.1739346
1.1739358
1.1739352
1.1739352
1.1739358
1.1739345
1.1739351
1.1739284
1.173929
1.1739283
1.173935
1.1739349
1.1739349
1.173935
1.1739358
1.173935
1.1739345
1.1739358
1.1739351
1.1739351
1.1739358
1.1739345
1.173935
1.1739358
1.173935
1.1739349
1.1739349
1.173935
1.1739358
1.1739424
1.1739416
1.173941
1.1739423
1.1739416
1.1739416
1.1739423
1.173941
1.1739415
1.1739424
1.1739416
1.1739416
1.1739416
1.1739417
1.1739424
1.1739416
1.1739411
1.1739424
1.1739417
1.1739417
1.1739424
1.1739411
1.1739417
1.1739425
1.1739417
1.1739416
1.1739416
1.1739417
1.1739424
1.1739415
1.173941
1.1739423
1.1739415
1.1739416
1.1739422
1.1739409
1.1739415
1.1739422
1.1739358
1.1739314
1.1739309
1.1739303
1.1739303
1.1739309
1.1739314
1.173938
1.1739422
1.1739414
1.1739409
1.1739422
1.1739415
1.1739415
1.1739422
1.173941
1.1739415
1.1739424
1.1739416
1.1739415
1.1739415
1.1739416
1.1739472
1.1739479
1.1739471
1.1739466
1.1739478
1.1739472
1.1739472
1.1739478
1.1739466
1.1739471
1.1739479
1.1739472
1.1739472
1.1739472
1.1739473
1.173948
1.1739472
1.1739467
1.1739479
1.1739473
1.1739473
1.1739479
1.1739467
1.1739472
1.173948
1.1739473
1.1739472
1.1739472
1.1739472
1.1739479
1.173947
1.1739466
1.1739477
1.173947
1.173947
1.1739476
1.1739464
1.1739469
1.1739477
1.173947
1.1739415
1.1739414
1.1739414
1.1739415
1.173947
1.1739477
1.1739469
1.1739464
1.1739476
1.173947
1.173947
1.1739477
1.1739465
1.173947
1.1739479
1.1739471
1.1739471
1.1739471
1.1739517
1.1739518
1.1739525
1.1739517
1.1739513
1.1739524
1.1739518
1.1739518
1.1739524
1.1739513
1.1739517
1.1739525
1.1739518
1.1739518
1.1739518
1.1739519
1.1739526
1.1739518
1.1739514
1.1739525
1.1739519
1.1739519
1.1739525
1.1739514
1.1739518
1.1739526
1.1739519
1.1739518
1.1739518
1.1739518
1.1739525
1.1739516
1.1739512
1.1739522
1.1739516
1.1739516
1.1739521
1.173951
1.1739514
1.1739521
1.1739515
1.1739514
1.1739469
1.1739469
1.1739514
1.1739515
1.1739521
1.1739514
1.173951
1.1739521
1.1739516
1.1739516
1.1739522
1.1739512
1.1739515
1.1739524
1.1739517
1.1739517
1.1739555
1.1739556
1.1739556
1.1739562
1.1739555
1.1739552
1.1739562
1.1739556
1.1739557
1.1739562
1.1739552
1.1739556
1.1739563
1.1739557
1.1739557
1.1739557
1.1739557
1.1739563
1.1739557
1.1739553
1.1739563
1.1739558
1.1739558
1.1739563
1.1739553
1.1739557
1.1739564
1.1739557
1.1739557
1.1739556
1.1739556
1.1739562
1.1739554
1.1739551
1.173956
1.1739554
1.1739554
1.1739558
1.1739549
1.1739552
1.1739559
1.1739553
1.1739552
1.1739552
1.1739553
1.1739559
1.1739552
1.1739549
1.1739558
1.1739554
1.1739554
1.1739559
1.173955
1.1739554
1.1739561
1.1739555
1.1739586
1.1739586
1.1739587
1.1739587
1.1739593
1.1739587
1.1739584
1.1739592
1.1739588
1.1739588
1.1739592
1.1739584
1.1739587
1.1739593
1.1739588
1.1739588
1.1739588
1.1739588
1.1739594
1.1739588
1.1739585
1.1739593
1.1739589
1.1739589
1.1739593
1.1739585
1.1739588
1.1739594
1.1739588
1.1739588
1.1739588
1.1739587
1.1739592
1.1739585
1.1739583
1.173959
1.1739585
1.1739585
1.1739589
1.1739581
1.1739583
1.1739589
1.1739584
1.1739584
1.1739584
1.1739584
1.1739589
1.1739584
1.1739581
1.1739589
1.1739585
1.1739585
1.173959
1.1739582
1.1739585
1.1739592
1.1739615
1.173961
1.173961
1.1739611
1.1739611
1.1739616
1.1739611
1.1739609
1.1739616
1.1739612
1.1739613
1.1739616
1.1739609
1.1739612
1.1739617
1.1739612
1.1739612
1.1739612
1.1739613
1.1739617
1.1739612
1.173961
1.1739617
1.1739614
1.1739613
1.1739617
1.173961
1.1739612
1.1739617
1.1739612
1.1739612
1.1739612
1.1739611
1.1739616
1.173961
1.1739608
1.1739614
1.173961
1.173961
1.1739613
1.1739606
1.1739608
1.1739613
1.1739608
1.1739608
1.1739608
1.1739608
1.1739613
1.1739608
1.1739606
1.1739613
1.173961
1.173961
1.1739614
1.1739607
1.1739609
1.1739628
1.1739632
1.1739628
1.1739628
1.1739628
1.1739629
1.1739633
1.1739629
1.1739628
1.1739634
1.1739631
1.1739631
1.1739635
1.1739628
1.173963
1.1739635
1.1739631
1.173963
1.173963
1.1739631
1.1739635
1.1739631
1.1739629
1.1739635
1.1739632
1.1739632
1.1739635
1.1739629
1.1739631
1.1739635
1.1739631
1.173963
1.173963
1.173963
1.1739634
1.1739629
1.1739627
1.1739633
1.1739629
1.1739629
1.1739631
1.1739625
1.1739627
1.1739631
1.1739627
1.1739627
1.1739627
1.1739627
1.1739631
1.1739627
1.1739625
1.1739632
1.1739629
1.1739629
1.1739632
1.1739626
1.173964
1.1739641
1.1739645
1.1739641
1.1739641
1.1739641
1.1739642
1.1739646
1.1739643
1.1739641
1.1739648
1.1739645
1.1739645
1.1739648
1.1739642
1.1739644
1.1739647
1.1739643
1.1739643
1.1739643
1.1739643
1.1739648
1.1739644
1.1739642
1.1739648
1.1739646
1.1739646
1.1739648
1.1739642
1.1739644
1.1739648
1.1739643
1.1739643
1.1739643
1.1739643
1.1739647
1.1739642
1.1739641
1.1739646
1.1739643
1.1739643
1.1739645
1.1739639
1.173964
1.1739644
1.173964
1.173964
1.173964
1.173964
1.1739644
1.1739641
1.1739639
1.1739645
1.1739643
1.1739643
1.1739646
1.1739656
1.1739651
1.173965
1.1739653
1.173965
1.173965
1.173965
1.173965
1.1739653
1.1739651
1.1739652
1.1739658
1.1739655
1.1739655
1.1739659
1.1739653
1.1739654
1.1739657
1.1739653
1.1739653
1.1739653
1.1739653
1.1739657
1.1739655
1.1739654
1.1739659
1.1739656
1.1739656
1.1739659
1.1739654
1.1739655
1.1739657
1.1739653
1.1739653
1.1739653
1.1739653
1.1739656
1.1739653
1.1739652
1.1739657
1.1739653
1.1739653
1.1739656
1.1739651
1.1739651
1.1739653
1.1739651
1.1739651
1.173965
1.1739651
1.1739655
1.1739652
1.1739651
1.1739657
1.1739654
1.1739653
1.1739659
1.1739661
1.1739656
1.1739658
1.173966
1.1739657
1.1739657
1.1739658
1.1739657
1.173966
1.1739659
1.1739656
1.1739662
1.173966
1.173966
1.1739662
1.1739656
1.1739659
1.173966
1.1739656
1.1739655
1.1739655
1.1739656
1.173966
1.1739659
1.1739657
1.1739662
1.173966
1.173966
1.1739662
1.1739657
1.1739659
1.173966
1.1739656
1.1739655
1.1739655
1.1739656
1.173966
1.1739658
1.1739656
1.1739661
1.1739658
1.1739658
1.173966
1.1739654
1.1739654
1.1739656
1.1739655
1.1739654
1.1739654
1.1739655
1.1739658
1.1739657
1.1739655
1.1739661
1.1739659
1.1739669
1.1739669
1.1739668
1.1739662
1.1739665
1.1739664
1.1739663
1.1739663
1.1739664
1.1739665
1.1739662
1.1739669
1.173967
1.173967
1.1739669
1.1739663
1.1739667
1.1739667
1.1739663
1.1739663
1.1739663
1.1739663
1.1739667
1.1739667
1.1739664
1.1739669
1.173967
1.173967
1.1739669
1.1739664
1.1739667
1.1739667
1.1739663
1.1739663
1.1739663
1.1739663
1.1739666
1.1739667
1.1739663
1.1739668
1.1739669
1.1739668
1.1739667
1.1739662
1.1739669
1.1739671
1.1739664
1.1739661
1.1739662
1.1739662
1.1739666
1.1739666
1.1739662
1.1739668
1.1739667
1.1739666
1.1739656
1.1739645
1.173963
1.1739616
1.1739608
1.173961
1.173962
1.1739632
1.1739646
1.1739656
1.1739666
1.1739667
1.1739655
1.1739646
1.1739624
1.1739592
1.1739573
1.1739559
1.1739558
1.173957
1.1739589
1.1739624
1.1739646
1.1739654
1.1739667
1.1739666
1.1739655
1.1739656
1.1739654
1.1739656
1.1739642
1.1739652
1.1739651
1.1739646
1.1739651
1.1739642
1.1739657
1.1739656
1.1739654
1.1739651
1.1739654
1.1739643
1.1739654
1.1739652
1.1739644
1.173964
1.1739641
1.1739649
1.1739653
1.1739655
1.1739667
1.1739666
1.1739654
1.1739656
1.1739654
1.1739641
1.1739651
1.173965
1.1739657
1.1739643
1.1739641
1.1739646
1.1739631
1.1739643
1.1739647
1.1739651
1.1739657
1.1739662
1.1739661
1.1739654
1.173965
1.173964
1.1739629
1.1739643
1.1739651
1.1739647
1.1739663
1.1739653
1.1739654
1.1739654
1.1739664
1.1739662
1.173965
1.1739646
1.1739645
1.1739638
1.1739653
1.1739653
1.1739651
1.1739642
1.1739637
1.1739638
1.1739635
1.1739638
1.1739642
1.173964
1.1739642
1.173963
1.1739614
1.1739611
1.1739614
1.1739629
1.1739626
1.173961
1.1739624
1.1739608
1.1739606
1.173961
1.1739625
1.1739624
1.1739608
1.1739605
1.1739621
1.1739634
1.1739641
1.1739623
1.173963
1.1739639
1.1739609
1.1739631
1.1739624
1.1739605
1.1739585
1.1739624
1.1739618
1.173957
1.1739576
1.1739589
1.1739496
1.173955
1.17396
1.1739632
1.1739643
1.1739637
1.1739625
1.1739605
1.1739634
1.1739637
1.1739645
1.1739658
1.1739659
1.173966
1.173966
1.173966
1.1739658
1.1739645
1.1739646
1.1739644
1.1739644
1.1739646
1.1739635
1.1739633
1.1739619
1.1739623
1.1739634
1.1739649
1.1739623
1.1739575
1.1739484
1.1739474
1.1739472
1.1739471
1.1739473
1.1739483
1.1739499
1.1739522
1.1739556
1.1739555
1.1739523
1.1739499
1.1739485
1.1739475
1.1739474
1.1739474
1.1739475
1.1739485
1.17395
1.1739522
1.1739555
1.1739555
1.1739589
1.1739631
1.1739653
1.1739663
1.1739665
1.1739655
1.1739655
1.1739654
1.1739655
1.1739665
1.1739663
1.1739652
1.1739631
1.173959
1.1739556
1.1739555
1.1739523
1.17395
1.1739486
1.1739476
1.1739475
1.1739475
1.1739476
1.1739485
1.1739499
1.1739522
1.1739554
1.1739555
1.1739522
1.17395
1.1739485
1.1739493
1.1739544
1.1739663
1.1739784
1.1739863
1.1739861
1.173978
1.1739658
1.173954
1.1739492
1.1739486
1.1739501
1.173957
1.1739617
1.1739644
1.173964
1.1739608
1.1739558
1.1739476
1.1739486
1.1739486
1.1739527
1.1739656
1.1739784
1.1739888
1.1739977
1.1740063
1.174012
1.1740156
1.1740157
1.1740122
1.1740067
1.1739982
1.1739895
1.173979
1.1739662
1.1739894
1.1740017
1.1740129
1.1740224
1.1740295
1.1740334
1.1740333
1.1740293
1.174022
1.1740123
1.174001
1.1739886
1.1739974
1.1739774
1.1739571
1.1739486
1.1739493
1.1739475
1.1739475
1.1739557
1.1739608
1.173964
1.1739645
1.1739617
1.173957
1.1739485
1.1739476
1.1739485
1.1739493
1.17396
1.17396
1.1739852
1.1740115
1.1740058
1.1740217
1.1740122
1.1740248
1.1740353
1.1740437
1.1740482
1.1740483
1.1740439
1.1740357
1.1740254
1.174013
1.1739983
1.1739782
1.1740068
1.1740226
1.1740359
1.1740472
1.1740564
1.1740613
1.1740611
1.1740561
1.1740467
1.1740352
1.1740435
1.174029
1.174033
1.1740151
1.1740151
1.1739852
1.1740116
1.1740292
1.174033
1.1740482
1.1740481
1.1740611
1.174056
1.1740663
1.1740719
1.174072
1.1740666
1.1740565
1.1740442
1.1740299
1.1740125
1.1739862
1.1740161
1.1740339
1.1740487
1.1740616
1.1740723
1.174078
1.1740779
1.174072
1.1740721
1.1740612
1.1740563
1.1740438
1.1740355
1.174022
1.174006
1.1739774
1.173957
1.1739526
1.1739485
1.1739484
1.17395
1.1739522
1.1739507
1.1739487
1.173949
1.1739537
1.1739654
1.1739887
1.1739975
1.1740124
1.174025
1.1740356
1.1740471
1.1740564
1.1740665
1.1740722
1.174078
1.1740781
1.1740723
1.1740617
1.1740488
1.1740339
1.1740161
1.1739861
1.1740125
1.17403
1.1740443
1.1740567
1.1740668
1.1740723
1.1740616
1.1740615
1.1740485
1.174044
1.1740294
1.1740221
1.1740124
1.1740011
1.1739887
1.1739782
1.1739654
1.1739774
1.1739976
1.1740061
1.1740118
1.1740154
1.1740334
1.1740334
1.1740485
1.1740441
1.1740566
1.1740474
1.174036
1.1740226
1.1740068
1.173978
1.1739981
1.1740129
1.1740254
1.1740358
1.1740223
1.1740295
1.1740119
1.1740154
1.1739853
1.1739853
1.1739599
1.1739569
1.1739525
1.173949
1.1739484
1.1739507
1.1739536
1.173943
1.1739432
1.1739329
1.173935
1.1739297
1.1739313
1.1739314
1.1739299
1.1739354
1.1739334
1.1739436
1.1739523
1.1739508
1.1739537
1.1739509
1.1739487
1.1739488
1.1739488
1.1739497
1.1739497
1.1739489
1.1739488
1.1739486
1.1739508
1.1739535
1.1739508
1.1739489
1.1739494
1.1739532
1.1739579
1.1739609
1.1739608
1.1739577
1.173953
1.1739493
1.1739489
1.1739478
1.1739437
1.1739337
1.1739358
1.1739305
1.1739323
1.1739322
1.1739307
1.1739358
1.1739337
1.1739437
1.1739436
1.1739488
1.1739435
1.1739479
1.1739446
1.1739417
1.1739507
1.173953
1.1739431
1.1739568
1.1739764
1.1739688
1.1739582
1.1739474
1.1739446
1.1739334
1.1739416
1.1739352
1.1739486
1.173953
1.1739575
1.1739485
1.1739492
1.1739604
1.1739604
1.1739491
1.1739484
1.1739573
1.1739527
1.1739657
1.1739785
1.173989
1.1739977
1.1740063
1.1739774
1.1739655
1.1739538
1.173949
1.1739484
1.1739484
1.1739349
1.1739295
1.1739311
1.1739312
1.1739297
1.1739428
1.1739528
1.1739507
1.1739581
1.1739713
1.1739686
1.1739709
1.1739793
1.1739799
1.1739925
1.1739799
1.1739794
1.1739901
1.1740033
1.1739917
1.1739882
1.1739959
1.1740001
1.1739959
1.1740112
1.1740141
1.1740047
1.1740192
1.1740048
1.1739883
1.1739686
1.1739918
1.173996
1.1740034
1.1740114
1.1740003
1.1739959
1.1740143
1.1740223
1.1740015
1.1739763
1.1739567
1.1739566
1.1739427
1.1739526
1.1739504
1.1739414
1.173933
1.1739443
1.1739469
1.1739578
1.1739685
1.1739762
1.1740052
1.1740052
1.1740126
1.1740084
1.1740121
1.1740201
1.1740241
1.1740264
1.1740456
1.1740405
1.1740311
1.1740344
1.1740209
1.1740342
1.174031
1.1740443
1.1740478
1.1740593
1.1740439
1.1740198
1.174008
1.1740014
1.1740049
1.1740121
1.1740117
1.1740236
1.174026
1.174022
1.1740402
1.1740452
1.1740495
1.1740655
1.1740607
1.174055
1.1740672
1.1740552
1.1740595
1.1740443
1.1740501
1.1740659
1.1740611
1.1740738
1.1740797
1.1740724
1.1740795
1.1740736
1.1740804
1.1740872
1.1740933
1.1740846
1.1740693
1.1740483
1.1740423
1.1740324
1.1740174
1.1740219
1.1740384
1.1740536
1.1740385
1.1740326
1.1740501
1.1740625
1.1740669
1.1740491
1.1740562
1.1740744
1.1740776
1.1740505
1.1740141
1.1739678
1.1739602
1.1739486
1.1739421
1.1739486
1.1739561
1.1739672
1.1739746
1.1739744
1.173943
1.1739568
1.1739527
1.1739505
1.1739417
1.1739445
1.1739472
1.1739579
1.1739685
1.1739763
1.1740048
1.1740121
1.1740116
1.1740078
1.1740012
1.1740218
1.1740259
1.1740235
1.1740196
1.1740108
1.1739997
1.1739955
1.1739878
1.1739913
1.1739955
1.1740029
1.1740042
1.1740137
1.1740306
1.1740399
1.1740451
1.1740495
1.1740436
1.174059
1.1740654
1.1740606
1.1740548
1.1740439
1.1740474
1.1740338
1.1740204
1.1740187
1.1740306
1.1740339
1.1740437
1.1740591
1.1740722
1.1740794
1.1740735
1.1740669
1.1740735
1.1740803
1.1740871
1.1740794
1.1740655
1.1740607
1.1740548
1.1740399
1.1740451
1.1740496
1.1740234
1.1740195
1.1740108
1.1740028
1.1739896
1.1739788
1.1739794
1.1739708
1.1739577
1.1739681
1.1739705
1.1739788
1.1739793
1.1739919
1.1740042
1.1739876
1.1739682
1.1739912
1.1739955
1.1739996
1.1739952
1.1740136
1.1740216
1.1740008
1.1739758
1.1740077
1.1740116
1.1740119
1.1740044
1.1740257
1.1740258
1.1740452
1.1740608
1.1740736
1.1740804
1.1740805
1.1740739
1.1740612
1.1740457
1.1740265
1.1740241
1.1740126
1.1740122
1.1740084
1.1740015
1.1740224
1.1740202
1.1740115
1.1740003
1.1739959
1.1740144
1.1740048
1.1739882
1.1739918
1.1739961
1.1740035
1.1740212
1.1740347
1.1740444
1.1740502
1.174066
1.1740597
1.1740554
1.1740406
1.1740313
1.1740445
1.1740481
1.1740346
1.1740312
1.1740193
1.1740047
1.1740127
1.1740015
1.1739891
1.1739797
1.1739792
1.1739708
1.1739901
1.1739923
1.1739796
1.1739576
1.1739709
1.1739683
1.1739791
1.1739916
1.1740034
1.173996
1.1740113
1.1740141
1.1739956
1.1739682
1.1739879
1.1740001
1.1740082
1.17402
1.1740444
1.1740597
1.1740728
1.1740798
1.1740873
1.1740798
1.1740739
1.1740674
1.1740554
1.1740611
1.174066
1.1740501
1.1740455
1.1740405
1.1740221
1.1740262
1.1740239
1.1740121
1.1740124
1.1739759
1.1740012
1.1740048
1.1740048
1.1740262
1.1740455
1.1740611
1.1740738
1.1740798
1.1740873
1.1740796
1.1740725
1.1740672
1.1740551
1.1740595
1.1740657
1.1740497
1.1740441
1.1740402
1.1740309
1.1740443
1.1740552
1.1740596
1.174066
1.1740501
1.1740443
1.1740404
1.174031
1.1740345
1.1740479
1.1740344
1.174021
1.1740191
1.1740045
1.1740139
1.1740218
1.1740198
1.1740235
1.1740118
1.174012
1.1739759
1.1740045
1.1740009
1.1740079
1.1739999
1.1740111
1.1739959
1.1740032
1.1739915
1.1739683
1.1739954
1.1739878
1.1739795
1.1739921
1.1740045
1.174014
1.174022
1.17402
1.1740239
1.1740121
1.1740124
1.1739759
1.1740011
1.1740081
1.1740001
1.1740112
1.173996
1.1740032
1.1739915
1.1739682
1.1739955
1.1739878
1.1739795
1.1739576
1.1739791
1.1739899
1.1739707
1.173979
1.1739577
1.1739708
1.1739682
1.173947
1.1739483
1.1739558
1.173967
1.1739743
1.1739742
1.1739668
1.1739557
1.1739484
1.1739558
1.1739669
1.17396
1.1739677
1.1740139
1.1739958
1.1739923
1.173959
1.1739359
1.1739471
1.1739571
1.173962
1.1739635
1.173964
1.1739626
1.1739635
1.1739626
1.1739638
1.1739638
1.1739635
1.1739637
1.1739625
1.1739606
1.1739586
1.1739591
1.1739577
1.1739466
1.1739465
1.173947
1.1739504
1.1739554
1.17396
1.1739554
1.1739551
1.1739592
1.1739633
1.1739653
1.1739643
1.1739612
1.1739593
1.1739586
1.1739573
1.1739582
1.1739617
1.1739564
1.1739564
1.1739617
1.1739648
1.1739648
1.1739631
1.1739631
1.1739619
1.1739633
1.1739636
1.1739623
1.1739634
1.173965
1.1739623
1.1739575
1.1739592
1.1739633
1.1739653
1.1739655
1.1739646
1.1739624
1.173959
1.1739569
1.1739557
1.1739557
1.1739569
1.1739589
1.1739624
1.1739646
1.1739655
1.1739668
1.1739667
1.1739657
1.1739646
1.1739631
1.1739617
1.1739608
1.1739608
1.1739617
1.1739631
1.1739646
1.1739657
1.1739667
1.1739667
1.1739656
1.1739655
1.1739652
1.1739652
1.1739657
1.1739642
1.1739655
1.1739643
1.1739638
1.1739635
1.1739638
1.1739626
1.1739624
1.1739621
1.1739621
1.1739624
1.1739626
1.173961
1.1739589
1.1739562
1.173956
1.173956
1.1739566
1.1739593
1.1739589
1.1739593
1.1739566
1.1739562
1.1739547
1.1739559
1.1739587
1.1739585
1.1739588
1.1739561
1.1739559
1.1739586
1.1739583
1.1739555
1.1739547
1.173955
1.1739559
1.1739535
1.173956
1.1739574
1.1739595
1.1739579
1.1739593
1.1739621
1.173961
1.1739596
1.1739591
1.1739605
1.1739558
1.1739573
1.173956
1.1739546
1.173953
1.1739572
1.1739576
1.1739544
1.1739522
1.173951
1.1739423
1.1739471
1.1739511
1.1739539
1.1739547
1.1739574
1.1739587
1.1739608
1.1739624
1.1739611
1.1739595
1.1739579
1.1739607
1.1739622
1.1739593
1.1739573