/*--------------------------------*- C++ -*----------------------------------*\
  =========                 |
  \\      /  F ield         | OpenFOAM: The Open Source CFD Toolbox
   \\    /   O peration     | Website:  https://openfoam.org
    \\  /    A nd           | Version:  7
     \\/     M anipulation  |
\*---------------------------------------------------------------------------*/
FoamFile
{
    version     2.0;
    format      ascii;
    class       volScalarField;
    location    "220";
    object      alphat;
}
// * * * * * * * * * * * * * * * * * * * * * * * * * * * * * * * * * * * * * //

dimensions      [1 -1 -1 0 0 0 0];

internalField   nonuniform List<scalar> 
24866
(
9.3762732
9.3842836
9.3805545
9.6001869
9.7933715
9.7908148
9.7860478
9.7910527
9.7901945
9.7844855
9.7847912
9.7848342
9.784513
9.7902342
9.7911499
9.7860302
9.7906094
9.7921286
9.791117
9.7858035
9.7740095
9.7909282
9.8267044
9.811903
9.7817014
9.7770649
9.7862789
9.8144712
9.8088998
9.7777647
9.7885396
9.792141
9.7921422
9.7885494
9.7778206
9.8089556
9.8145974
9.7863874
9.7769382
9.781498
9.8118243
9.8266516
9.790917
9.7740127
9.7858328
9.7911759
9.7921522
9.7906978
9.7860413
9.7910601
9.790332
9.7846264
9.7847883
9.7848054
9.784583
9.7901927
9.7909132
9.7859113
9.7907726
9.7934272
9.7979595
9.7941653
9.7979494
9.7940944
9.7867838
9.7900024
9.7968461
9.7928755
9.7839688
9.7839551
9.7839837
9.7839732
9.7929361
9.7969036
9.790011
9.7866302
9.7934974
9.7967325
9.7926061
9.7939277
9.7877715
9.7787584
9.7768224
9.789445
9.7937703
9.7999449
9.7818679
9.7772486
9.7862961
9.8004997
9.793675
9.7881652
9.7869794
9.7879147
9.7859827
9.7829003
9.7858775
9.784654
9.7888681
9.7860299
9.7834572
9.7830696
9.7831239
9.7838703
9.7847073
9.78471
9.7844974
9.7878486
9.7867532
9.7863958
9.782425
9.790682
9.7953747
9.7927763
9.7879497
9.7852136
9.7842134
9.783625
9.7840404
9.7844142
9.784332
9.7837233
9.7841931
9.7832967
9.7827406
9.7834797
9.7858251
9.7829459
9.7821215
9.7823997
9.7834549
9.7844854
9.7850986
9.7847984
9.7849025
9.7845376
9.7840445
9.7845033
9.7842161
9.7867577
9.7879532
9.7824345
9.7906859
9.7953769
9.6716989
9.6677946
9.5851389
9.5913788
9.5993057
9.599302
9.591369
9.5886416
9.5518288
9.6982813
9.7014382
9.5593511
9.588551
9.590813
9.5838836
9.5533778
9.5048226
9.522646
9.5764941
9.5895722
9.5979592
9.5974567
9.5964848
9.5941192
9.593119
9.5899737
9.5875055
9.5782038
9.5781574
9.5874913
9.589862
9.5928093
9.5945929
9.5961659
9.5880949
9.5970726
9.6736347
9.6716146
9.5882949
9.5126358
9.5984178
9.6004019
9.5908604
9.7894741
9.785576
9.7894823
9.7860871
9.7834154
9.7857711
9.782919
9.7820876
9.782351
9.78338
9.7843796
9.7849735
9.7851041
9.7852251
9.7849081
9.7844236
9.7847206
9.7869887
9.7878546
9.7936877
9.7864081
9.591199
9.6024481
9.6284989
9.6983487
9.5517746
9.588618
9.3923751
9.3780417
9.3800494
9.380045
9.3780323
9.3923862
9.3520851
9.3512933
9.3739399
9.3986017
9.3731447
9.3462708
9.3301266
9.349498
9.3795803
9.3774573
9.3788869
9.3775181
9.3845569
9.3979825
9.3779087
9.3749616
9.3924876
9.3821008
9.3821699
9.3925955
9.3749335
9.3776128
9.3985154
9.2052044
9.1937286
9.1864496
9.1867244
9.1934186
9.3839415
9.5958668
9.5947232
9.5926163
9.5899571
9.5874835
9.5781772
9.5781818
9.5876461
9.5896918
9.5932802
9.5941354
9.5967441
9.5973814
9.59813
9.5895447
9.576541
9.5227022
9.6617449
9.7154686
9.7004764
9.5534936
9.5840419
9.59093
9.5883921
9.5590966
9.7014771
9.6363005
9.5594332
9.5558676
9.5108185
9.5887826
9.5836343
9.621139
9.6666492
9.8005536
9.786337
9.7772246
9.7881714
9.7937583
9.7879253
9.7847229
9.7843471
9.7848096
9.784209
9.7844954
9.784384
9.7838686
9.7831036
9.7826416
9.7835286
9.7829038
9.7831067
9.783388
9.7834679
9.7833157
9.7830943
9.7837438
9.783892
9.786
9.7894397
9.7768339
9.7829298
9.7831526
9.7846877
9.7834859
9.7827611
9.7824147
9.7823625
9.7826474
9.7835284
9.7860805
9.7834247
9.7821023
9.7821395
9.7834999
9.7860629
9.7889129
9.7926389
9.7859145
9.7787966
9.7878209
9.7939726
9.6698943
9.5937576
9.5816818
9.6653611
9.5839358
9.5945484
9.5081049
9.3739873
9.3774153
9.3796357
9.3495469
9.3301613
9.5049993
9.5356228
9.5475428
9.607134
9.6166292
9.6286375
9.5865821
9.5082488
9.5509996
9.3545374
9.3463015
9.3731639
9.3986263
9.3739203
9.3512892
9.3521067
9.1710922
9.1991482
9.1872284
9.186108
9.1861042
9.1872226
9.1991605
9.1710795
9.1651954
9.1816903
9.2081686
9.1811651
9.1586194
9.1562887
9.1784168
9.1902866
9.1863344
9.1846894
9.1837655
9.1939125
9.2046961
9.187812
9.1846048
9.2038327
9.1975631
9.1975236
9.2038549
9.1846403
9.1876042
9.0162851
9.0290831
9.0217772
9.0144272
9.0146375
9.0215206
9.0292168
9.205363
9.3986668
9.3774345
9.3751059
9.3923827
9.3821122
9.3822382
9.3926767
9.3748381
9.3781473
9.3978873
9.3848546
9.3774261
9.3790828
9.1848499
9.1862852
9.1903356
9.1784694
9.1563112
9.1586497
9.1812047
9.2082075
9.1816497
9.1651658
8.9989045
9.0055705
9.0236174
9.0156576
9.0139905
9.0139869
9.0156535
9.0236277
9.0055601
8.9989299
9.0102453
9.0339705
9.0091471
8.9908809
8.9947487
9.0153098
9.0176122
9.014586
9.0124302
9.0120168
9.0217415
9.0285811
9.0164015
9.013689
9.0297746
9.025896
9.0259216
9.0298864
9.0137691
8.8583919
8.8602726
8.8687987
8.864887
8.8584975
8.8586492
8.8646854
8.8688989
8.8601395
8.858405
9.0138386
9.1847619
9.2037017
9.1975869
9.1976018
9.2038758
9.1845517
9.1880827
9.2045823
9.1941787
9.1836803
9.0119479
9.0125487
9.0145366
9.0176489
9.0153576
8.9947588
8.9909039
9.0091875
9.0340106
9.0102076
8.8548975
8.8472165
8.8534437
8.8642317
8.8594628
8.8579102
8.8579062
8.8594595
8.8642391
8.8534361
8.8472387
8.8549306
8.8746222
8.8530301
8.8384313
8.8450439
8.8629623
8.8604664
8.8583035
8.8563278
8.8562691
8.8646136
8.8682913
8.8602959
8.8582646
8.8705403
8.8682556
8.868313
8.8707036
8.725941
8.7169579
8.7182326
8.7235226
8.7219129
8.7168124
8.7169174
8.7217578
8.7235899
8.7181096
8.7169175
8.7256475
8.8704266
9.0296519
9.0259256
9.0259957
9.0298653
9.0136896
9.0166709
9.0284784
9.0219568
8.8647798
8.8562166
8.8564091
8.8582572
8.8604911
8.8630025
8.8450474
8.8384487
8.8530697
8.8746612
8.729542
8.7139187
8.7087206
8.7140303
8.7198959
8.7173017
8.7161081
8.716104
8.7172986
8.7199005
8.7140251
8.7087401
8.7139468
8.7295056
8.7113001
8.6998354
8.7073097
8.7223977
8.7178098
8.7161655
8.7145607
8.7147118
8.7214302
8.7229985
8.7181695
8.716793
8.7257459
8.7245015
8.7245791
8.5936728
8.5944211
8.5880356
8.588804
8.5918246
8.5916428
8.587821
8.5878916
8.5915235
8.5918634
8.5886867
8.587951
8.5941252
8.5935938
8.7245185
8.8682816
8.8683736
8.8706628
8.8583133
8.8605516
8.8682182
8.7229573
8.7215567
8.7146729
8.7146128
8.7161234
8.717824
8.7224294
8.7073095
8.6998489
8.7113376
8.5824865
8.5975706
8.585646
8.5821481
8.5864031
8.5890586
8.5878317
8.5870503
8.5870463
8.5878284
8.5890606
8.5863999
8.5821651
8.5856693
8.5975372
8.5824518
8.5735821
8.5809777
8.5934192
8.5881609
8.586787
8.5855602
8.5858165
8.5909887
8.5912751
8.5886621
8.5878404
8.5942067
8.5935835
8.47391
8.474005
8.4744217
8.4699594
8.4703289
8.4718315
8.4724752
8.4697731
8.4698192
8.4723821
8.471847
8.4702141
8.4698411
8.4741313
8.4739155
8.4740271
8.5937045
8.7246233
8.7258896
8.7168815
8.7184087
8.5888857
8.5912629
8.5910858
8.5857884
8.5855911
8.5867489
8.5881669
8.5934428
8.5809756
8.5735929
8.4579573
8.4647491
8.4771382
8.4682892
8.4659572
8.4691909
8.4698118
8.4693919
8.4689827
8.4689789
8.4693883
8.4698118
8.469189
8.465972
8.468308
8.4771079
8.4647171
8.4579485
8.4648419
8.4749605
8.4697237
8.4684739
8.4675593
8.4678488
8.4716867
8.4712518
8.4701165
8.4697385
8.4741962
8.3639443
8.3638207
8.3639192
8.3641781
8.3610963
8.3611614
8.3616859
8.3627601
8.3609724
8.3610013
8.3626856
8.3616825
8.3610466
8.3609529
8.3638961
8.3638227
8.3639319
8.3641128
8.47436
8.5943632
8.5879605
8.4698819
8.4703266
8.4712638
8.4717635
8.4678289
8.4675754
8.4684395
8.4697233
8.4749769
8.4648387
8.3575069
8.3512906
8.3564032
8.3665372
8.3601433
8.3586087
8.3609302
8.3602994
8.3603156
8.3602021
8.3601984
8.3603116
8.3602978
8.3609291
8.3586214
8.3601583
8.3665099
8.3563741
8.3512832
8.3575108
8.3656557
8.3607495
8.3595404
8.358851
8.3591246
8.3618714
8.3610748
8.3608866
8.3608516
8.2597927
8.2619329
8.2618728
8.2619731
8.2621728
8.2600592
8.2598992
8.2598198
8.2610711
8.2599953
8.2600124
8.2610094
8.2598013
8.2597829
8.2598979
8.2619006
8.2618723
8.261977
8.2621037
8.259964
8.3610116
8.3610857
8.3611063
8.3619346
8.3591108
8.358857
8.3595089
8.3607441
8.3656661
8.2642273
8.257718
8.2522058
8.2559903
8.2642666
8.2597808
8.2587859
8.2603319
8.2589646
8.2591769
8.259276
8.2592725
8.2591726
8.2589617
8.2603313
8.2587968
8.2597926
8.264242
8.2559638
8.2521995
8.2577224
8.264222
8.2597638
8.2585477
8.2580015
8.2582272
8.2601122
8.2591791
8.2595704
8.165062
8.1654709
8.1669619
8.1669145
8.1670155
8.1672065
8.1657575
8.1654372
8.1650078
8.1662774
8.1657342
8.1657431
8.1662243
8.1649772
8.1653185
8.1655839
8.1669446
8.1669126
8.1670115
8.1671333
8.1656493
8.1652448
8.2597605
8.2592259
8.2601665
8.2582182
8.2580007
8.2585186
8.2597547
8.165599
8.1695979
8.1644464
8.1596177
8.1623609
8.1691191
8.1660865
8.1654501
8.1663606
8.1645937
8.1648514
8.1650876
8.1650843
8.1648469
8.1645899
8.1663602
8.1654593
8.1660955
8.1690969
8.162337
8.1596123
8.1644512
8.1695969
8.1656111
8.1643623
8.1638919
8.1640514
8.165273
8.1643409
8.0756229
8.076508
8.0770463
8.0781063
8.0780497
8.0781506
8.0783543
8.0773513
8.0769224
8.0763118
8.0775047
8.077345
8.0773481
8.0774572
8.0762714
8.076801
8.0771698
8.078103
8.0780472
8.0781395
8.0782765
8.0772286
8.0766847
8.0756904
8.1643995
8.1653218
8.1640457
8.1638866
8.1643349
8.0760859
8.0773907
8.080935
8.0768898
8.0726962
8.07463
8.0801524
8.0782074
8.0778026
8.0782085
8.0762601
8.0764732
8.0767844
8.0767813
8.0764686
8.0762557
8.0782082
8.0778102
8.078214
8.0801325
8.0746084
8.0726916
8.0768951
8.0809377
8.0774052
8.0761122
8.0756676
8.0757521
8.0764746
7.9930285
7.9922994
7.9932411
7.993864
7.9946474
7.9945768
7.9946772
7.9948979
7.9941856
7.9936885
7.9930062
7.9940689
7.9941736
7.9941727
7.9940249
7.9929578
7.9935645
7.9939995
7.9946572
7.9945744
7.9946597
7.9948153
7.9940478
7.9934126
7.9923737
7.9930723
8.0765202
8.075749
8.0756592
7.9926557
7.9930938
7.9944433
7.9975709
7.9944198
7.9908023
7.9921133
7.9966315
7.9954852
7.9952231
7.9952399
7.9932491
7.9933674
7.9937059
7.993703
7.9933627
7.9932444
7.9952396
7.9952294
7.9954902
7.9966137
7.992094
7.9907986
7.9944258
7.9975766
7.9944598
7.9931192
7.992666
7.9926737
7.9142848
7.9143741
7.9137863
7.9147167
7.9153895
7.9160035
7.9159231
7.9160228
7.916256
7.915726
7.9151915
7.9145067
7.9154127
7.9156905
7.9156866
7.9153706
7.9144518
7.9150653
7.9155379
7.9160257
7.9159215
7.9159997
7.9161681
7.915573
7.9148835
7.9138656
7.9144169
7.9142851
7.9926726
7.9968228
8.0004599
7.996925
7.9979018
7.9998905
7.9986918
7.9993169
7.9998438
8.0006813
8.0007678
7.9991763
7.9204822
7.9172073
7.9169333
7.9149867
7.9149856
7.9153177
7.9153149
7.9149811
7.9149821
7.9169333
7.9172131
7.9173926
7.9179448
7.9142415
7.9134184
7.916531
7.9189656
7.916221
7.9148342
7.9143513
7.8402677
7.8401323
7.8400337
7.8395909
7.840469
7.8411653
7.8416821
7.8415987
7.8416973
7.8419358
7.8415143
7.8409658
7.8403205
7.841061
7.8414437
7.841438
7.8410201
7.8402605
7.8408381
7.8413264
7.8417157
7.8415981
7.8416694
7.8418427
7.8413468
7.8406313
7.8396737
7.840076
7.8401336
7.8402546
7.9143395
7.9148091
7.9162026
7.9189569
7.9165239
7.9134206
7.914258
7.91796
7.9173885
7.8434652
7.8433236
7.8428399
7.8409894
7.8408613
7.8411649
7.8411627
7.8408577
7.8409861
7.8428416
7.8433307
7.8434706
7.8436217
7.8405829
7.8401149
7.8427734
7.8446361
7.8422204
7.8407917
7.7705878
7.7700183
7.7698206
7.769592
7.7692888
7.7700918
7.7707922
7.7712595
7.7711801
7.7712774
7.7715136
7.7711516
7.7706057
7.7700233
7.7706002
7.7710388
7.7710316
7.7705601
7.7699594
7.7704772
7.7709654
7.7713034
7.7711808
7.7712453
7.7714151
7.7709704
7.7702494
7.7693735
7.7696334
7.7698219
7.7700031
7.7705599
7.8407661
7.8421994
7.8446235
7.8427634
7.8401139
7.8405948
7.8436327
7.7732153
7.7733235
7.7731945
7.7725664
7.7708407
7.7705884
7.7708508
7.7708494
7.7705873
7.7708413
7.7725733
7.7732077
7.7733357
7.7732138
7.7707169
7.7705126
7.7727733
7.7741805
7.7720529
7.7053597
7.7038626
7.7032472
7.702994
7.7026771
7.7025042
7.7032208
7.7039113
7.7043604
7.7042923
7.7043881
7.7046142
7.7042786
7.7037474
7.7032395
7.7036598
7.7041197
7.7041114
7.7036203
7.7031727
7.7036188
7.7040957
7.7044138
7.7042945
7.7043523
7.7045104
7.7040848
7.7033733
7.702589
7.7027165
7.702993
7.7032272
7.703828
7.7053234
7.7720271
7.7741612
7.7727561
7.7705035
7.7707193
7.7042728
7.7063254
7.7066132
7.7064786
7.7057578
7.7041714
7.703803
7.7040186
7.7040192
7.7038081
7.7041821
7.7057787
7.7065092
7.7066448
7.7063464
7.7042927
7.7042799
7.7061921
7.7072369
7.6434721
7.6418105
7.6402806
7.6396204
7.6393174
7.6389417
7.6388901
7.6395153
7.6401854
7.6406389
7.6405895
7.6406837
7.6408917
7.6405583
7.6400499
7.6396217
7.6398926
7.6403501
7.6403412
7.6398534
7.6395529
7.6399222
7.6403796
7.6407007
7.6405931
7.6406444
7.6407824
7.6403529
7.6396615
7.638973
7.6389767
7.6393103
7.6395899
7.6402301
7.6417507
7.6434048
7.7072028
7.7061573
7.7042509
7.6410384
7.6409228
7.6426109
7.6430056
7.6428517
7.6420791
7.6406389
7.6401634
7.6403327
7.6403381
7.6401834
7.6406739
7.6421344
7.6429256
7.6430853
7.6426839
7.6409939
7.6411141
7.6427174
7.5820471
7.5825643
7.581084
7.579512
7.5788063
7.5784564
7.5780407
7.5781044
7.578636
7.5792773
7.579753
7.5797299
7.5798223
7.5800039
7.5796537
7.5791743
7.5788274
7.5789528
7.5793928
7.5793834
7.5789141
7.5787575
7.5790482
7.5794798
7.579822
7.5797346
7.5797797
7.5798895
7.579438
7.5787753
7.5781831
7.5780679
7.5784363
7.5787539
7.5794272
7.580974
7.5824261
7.5818801
7.6426411
7.6455229
7.6462982
7.6467055
7.6473028
7.6470302
7.6452588
7.5844712
7.581986
7.5811951
7.5799046
7.5793297
7.5794588
7.5794748
7.5793825
7.5799933
7.581327
7.582157
7.5823585
7.5819111
7.5805205
7.5807248
7.5228423
7.5238958
7.5242064
7.5228682
7.5212303
7.5204718
7.5200728
7.5196277
7.5198058
7.5202423
7.5208484
7.5213642
7.5213758
7.5214664
7.5216129
7.5212266
7.5207808
7.520515
7.5204927
7.5209045
7.5208949
7.5204545
7.5204446
7.5206568
7.5210582
7.5214399
7.5213821
7.5214212
7.521494
7.5210024
7.5203745
7.5198778
7.5196417
7.5200282
7.5203769
7.521077
7.5226576
7.5239254
7.523544
7.5224551
7.5805466
7.5803379
7.5817244
7.5821714
7.5237806
7.5235493
7.5227673
7.5216296
7.5209589
7.5210588
7.5210963
7.5210788
7.521828
7.5230563
7.5239201
7.524188
7.5237421
7.5225981
7.4670059
7.4672446
7.4680208
7.4681291
7.4668817
7.4651316
7.4643001
7.4638423
7.4633711
7.4636707
7.4640105
7.4645777
7.4651562
7.4652133
7.4653018
7.4654021
7.4649565
7.4645467
7.4643616
7.4641794
7.4645545
7.4645447
7.4641415
7.464291
7.4644252
7.4647941
7.4652383
7.465222
7.4652556
7.4652798
7.4647252
7.4641356
7.4637336
7.463364
7.4637548
7.4641288
7.4648515
7.4664834
7.4675797
7.4673199
7.4664629
7.4661715
7.5221894
7.5233242
7.467094
7.4675231
7.4672254
7.4664731
7.4654923
7.4647226
7.4648086
7.4648865
7.4649682
7.4658966
7.4670585
7.4679734
7.468346
7.4679463
7.4143936
7.413621
7.413806
7.4142738
7.4141512
7.4129208
7.4109845
7.4100412
7.4095045
7.4090055
7.4094412
7.4096833
7.4102118
7.4108811
7.4109981
7.4110852
7.4111258
7.4105926
7.4102175
7.4101118
7.4097485
7.4100783
7.4100683
7.4097106
7.4100406
7.410098
7.4104357
7.4109704
7.4110097
7.4110379
7.4109997
7.4103542
7.4098024
7.4094932
7.4089683
7.4093501
7.4097447
7.4104901
7.4122006
7.4131376
7.4129662
7.4123393
7.4120502
7.4127914
7.4131607
7.4127693
7.4120599
7.4112391
7.4103597
7.410449
7.4105957
7.4108187
7.4119953
7.4131559
7.414169
7.4147016
7.3633191
7.3631476
7.3625135
7.3625962
7.3627082
7.3622861
7.3609593
7.3587384
7.3576249
7.3569786
7.3564491
7.357035
7.357186
7.3576844
7.358472
7.3586637
7.3587508
7.3587194
7.3580721
7.3577241
7.3576909
7.3571271
7.3574014
7.3573909
7.3570881
7.357618
7.3576053
7.3579192
7.3585702
7.3586774
7.3587004
7.3585873
7.3578243
7.3573023
7.3570777
7.3563764
7.3567347
7.3571472
7.3579211
7.3597397
7.3605378
7.3604359
7.3600393
7.359773
7.3603568
7.3606403
7.3601291
7.3594635
7.3587958
7.3577951
7.3579013
7.3581531
7.3585768
7.3600957
7.361363
7.3625589
7.3135584
7.3146103
7.3146044
7.3140841
7.3140325
7.3137435
7.3128928
7.3112851
7.3086716
7.307316
7.3065305
7.3059733
7.3067034
7.3067982
7.3072919
7.3082056
7.308477
7.3085668
7.3084624
7.3076964
7.3073547
7.3073639
7.3066087
7.3068196
7.3068083
7.3065674
7.3072873
7.3072341
7.3075445
7.3083162
7.3084935
7.308511
7.3083203
7.3074342
7.3069195
7.3067467
7.3058743
7.3061951
7.3066226
7.3074362
7.3093745
7.3100881
7.3100659
7.3098759
7.3096258
7.3100674
7.3102555
7.3096213
7.3089796
7.3084258
7.3073071
7.3074319
7.3078199
7.3085138
7.3104796
7.3120351
7.2659607
7.268079
7.2694644
7.2696042
7.2691737
7.269006
7.2682979
7.2667678
7.2645367
7.2614245
7.2597685
7.2588388
7.2582613
7.2590693
7.2592236
7.2597669
7.2607611
7.2611106
7.2612075
7.2610384
7.2602033
7.2598212
7.2597694
7.2589076
7.2590661
7.2590534
7.2588621
7.2596866
7.2596958
7.260047
7.2608891
7.2611322
7.2611459
7.2608816
7.2599206
7.2593638
7.259136
7.2581723
7.25846
7.2589
7.2597553
7.2617721
7.262574
7.2626935
7.2626045
7.262287
7.2625942
7.2627081
7.2620119
7.2613348
7.2607614
7.2595806
7.2597146
7.2602402
7.2612577
7.2637763
7.2206298
7.2242218
7.2274251
7.2291068
7.22928
7.2289225
7.2287519
7.2276768
7.2249968
7.2213733
7.217653
7.2157074
7.2146762
7.2140627
7.2146842
7.2152945
7.2159557
7.2168389
7.2173878
7.2175114
7.2171634
7.216437
7.2159521
7.2154629
7.2147905
7.2149624
7.2149477
7.2147395
7.215372
7.2158206
7.2162715
7.2169887
7.2174166
7.2174438
7.2169898
7.2161309
7.2154694
7.2148097
7.2140511
7.2143711
7.2148229
7.2156853
7.2175788
7.219031
7.2193871
7.2190944
7.2184783
7.2187574
7.2187794
7.2182239
7.2173858
7.2163549
7.215363
7.215515
7.2161287
7.2174508
7.1773106
7.1810165
7.1880549
7.1934647
7.194864
7.1947602
7.1944798
7.1946258
7.1937684
7.1888102
7.1817659
7.1775435
7.1755768
7.17454
7.1737911
7.1735182
7.1756895
7.1764935
7.1768171
7.1780305
7.178134
7.1771476
7.1770197
7.176405
7.1743935
7.1746208
7.1749789
7.1749631
7.1745646
7.1742935
7.176265
7.1768455
7.1769901
7.1780653
7.178062
7.1769539
7.1766934
7.1759093
7.1737381
7.1739229
7.174453
7.1749453
7.1756614
7.176989
7.1807835
7.1811022
7.1796721
7.1785926
7.1794108
7.1788249
7.1787204
7.1776988
7.1751929
7.1750633
7.1753439
7.1759353
7.1451602
7.1454133
7.1482556
7.1588525
7.1680525
7.1680154
7.1676883
7.1674323
7.1678867
7.1684297
7.1596074
7.1490703
7.1457191
7.1449532
7.1438778
7.1425414
7.1423197
7.1434723
7.1443087
7.1442871
7.1439634
7.1440922
7.1446599
7.1448723
7.1442264
7.1432675
7.1434498
7.1444275
7.1444124
7.1433809
7.1431455
7.1440649
7.144707
7.1444661
7.1440072
7.1440237
7.1444514
7.1445588
7.1437417
7.1425957
7.1428133
7.1439715
7.1447307
7.1447999
7.1468739
7.1533828
7.1548526
7.1495689
7.1467896
7.1459032
7.1464131
7.1465595
7.1454569
7.1440124
7.1437276
7.1446492
7.1197018
7.1200198
7.1208203
7.1229772
7.1213107
7.1218028
7.1224141
7.1221734
7.122105
7.1218517
7.1238703
7.1211846
7.1199241
7.1189512
7.1182696
7.1195596
7.1184088
7.1190942
7.1208072
7.120313
7.1204528
7.1211909
7.1196558
7.1192
7.1205412
7.119284
7.1196511
7.1196312
7.1192063
7.1204283
7.1190282
7.119469
7.1209939
7.120355
7.1203808
7.1209753
7.1193232
7.1187348
7.1198988
7.1186925
7.1193204
7.1201952
7.1211322
7.1236779
7.1196714
7.1192744
7.1242123
7.1240795
7.1227367
7.1230973
7.1214471
7.1203908
7.1212509
7.1194146
7.1168838
7.1159336
7.1245841
7.1354955
7.145304
7.153749
7.1543559
7.1539125
7.1521463
7.1449682
7.1363373
7.1247558
7.115794
7.116714
7.1244538
7.1360302
7.150652
7.1648242
7.1657564
7.1463894
7.146023
7.165976
7.1651089
7.1500161
7.1356845
7.1262404
7.1187714
7.1162565
7.1299388
7.131393
7.1441744
7.1449691
7.1588701
7.1437328
7.1426032
7.1500788
7.1433457
7.1578579
7.1430695
7.1294818
7.1296153
7.142207
7.1421196
7.1483801
7.1247196
7.128656
7.1358733
7.1375967
7.1374514
7.1328383
7.1291537
7.1265061
7.1185245
7.1167455
7.1300164
7.1304418
7.1430356
7.1579373
7.1425411
7.1434958
7.1437354
7.1496629
7.1542215
7.1510204
7.1643833
7.1543516
7.1547983
7.1507166
7.1444667
7.1377966
7.1371518
7.1445122
7.1511079
7.1495094
7.1652646
7.15173
7.1488589
7.1386826
7.1221367
7.1271514
7.1271293
7.1256363
7.1183078
7.118077
7.131295
7.1441891
7.1457544
7.1615117
7.1452753
7.1315634
7.1446203
7.1502138
7.1836167
7.1832728
7.1879569
7.1805749
7.1790378
7.1832963
7.1802935
7.2207924
7.2653172
7.2716669
7.2644137
7.2195993
7.226076
7.2383009
7.2232241
7.2685873
7.2753946
7.2667247
7.2225052
7.2247568
7.2693487
7.2703417
7.2257419
7.1853247
7.1511223
7.1626097
7.1594792
7.153836
7.1713672
7.1583444
7.1935849
7.209309
7.2209751
7.1945937
7.1988152
7.2237404
7.1828253
7.1811694
7.1942649
7.1937423
7.1758008
7.1591096
7.1510753
7.1846576
7.1947956
7.2107276
7.1939142
7.1925305
7.1626955
7.1442083
7.1432181
7.1432863
7.1430384
7.1433259
7.1447363
7.1631932
7.1640071
7.1641147
7.1642567
7.1639618
7.1953759
7.196126
7.2035624
7.2010369
7.1608048
7.1330241
7.1504127
7.1643242
7.1174772
7.0495877
7.0389786
7.0392732
7.0502182
7.1180658
7.1308054
7.1629176
7.1673311
7.168084
7.1642465
7.1337616
7.121674
7.0538134
7.0433947
7.0434486
7.0539235
7.1219746
7.1342124
7.1652721
7.1693583
7.169387
7.1666018
7.1469311
7.1294554
7.1173934
7.117431
7.1251643
7.1269685
7.1269716
7.1251005
7.1172743
7.1171943
7.1291973
7.1466958
7.1663696
7.1686669
7.1682047
7.163719
7.1307795
7.1173672
7.0462876
7.0349117
7.0340821
7.0452479
7.1169306
7.1303669
7.1632012
7.1674451
7.1668731
7.1623007
7.1302586
7.1014218
7.0776326
6.9955867
6.8101685
6.5890889
6.4546841
6.4561463
6.592414
6.8142065
6.9982089
7.0796085
7.1038723
7.1344756
7.1690249
7.1567851
7.1376805
7.1407221
7.1591691
7.1512599
7.0557435
7.122467
7.0822426
7.0305987
6.8184266
6.6416338
6.5080054
6.3179946
6.1984898
6.074789
6.0276818
6.0269977
6.0731971
6.1957776
6.3140802
6.5029573
6.6372172
6.8126777
6.5041383
6.3488071
6.1375424
6.0038724
5.8593055
5.8048119
5.805401
5.8608573
6.0066663
6.1417339
6.3545579
6.5091882
6.3224143
6.6027668
6.88275
6.9630223
6.9461236
7.0457167
7.0459792
7.1513561
7.1591818
7.1407317
7.1377652
7.15685
7.1690914
7.1228558
7.0562789
6.9638681
6.946413
6.8478789
6.8474556
6.4723014
6.0845677
6.2057486
6.0132871
6.1454011
5.960259
5.7878879
5.6372511
5.5611423
5.5606304
5.6356623
5.7849374
5.9558801
6.1391862
6.3169054
6.5955337
6.1995202
6.0063776
5.7861448
5.5634727
5.386066
5.2914661
5.2919392
5.3877109
5.5667277
5.7911643
5.6428956
5.8701285
5.81597
6.0387877
6.0386292
6.4727411
6.0843872
5.8696345
5.8156003
5.5674925
5.5680046
5.2953155
5.3901072
5.1878286
5.0776622
5.0771517
5.1860759
5.3866008
5.6375598
5.8625502
6.0776738
6.4629182
6.0315668
5.8080109
5.5623345
5.2916577
5.0767204
4.9597741
4.9602951
5.0785523
5.0778157
5.2946885
5.3886357
5.6418956
5.790357
6.0130048
6.2059337
6.6042867
6.8839015
7.0317074
7.0827704
7.1044884
7.134838
7.1653803
7.1661189
7.1545077
7.0805655
7.0002466
6.8213889
6.5122346
6.3236354
6.1463488
5.9606074
5.7880634
5.5654349
5.386218
5.1859548
5.0757641
4.9594993
4.958931
5.0759893
5.2911937
5.5620204
5.807931
6.0315874
6.4635916
6.0778161
5.862474
5.636847
5.3854281
5.1844445
5.0752867
5.2900615
5.2903874
5.561334
5.6372704
5.8635157
6.0092059
6.1442437
6.3578036
6.5111472
6.6441864
6.8198799
6.5999514
6.3205696
6.2014061
6.0778959
6.0312183
5.8083504
5.8081158
5.5610323
5.6363181
5.3849456
5.5628294
5.7859266
6.0067637
6.2002295
6.597484
6.3187566
6.1408941
5.9569809
5.7858844
6.0074523
5.8626802
6.0771774
6.0309797
6.4658866
6.4662537
6.8430607
6.8796176
7.030167
7.0796804
7.1035579
7.1659923
7.1709435
7.179504
7.1761134
7.0991645
7.0830982
6.9354986
6.9230192
6.9227789
6.9349429
7.0828755
7.0990305
7.1747687
7.1647223
7.1649209
7.1699117
7.1645612
7.1010372
7.0779192
6.9542242
6.9356071
6.9341618
6.9521596
7.0766345
7.0996582
7.1632283
7.1685358
7.1630825
7.1508
7.0751343
7.0230905
6.8696343
6.8318458
6.8336166
6.8723217
7.0253115
7.0771338
7.1526872
7.164907
7.1747137
7.0964314
7.0795821
6.9276598
6.9145458
6.9128357
6.9255321
7.0782366
7.0951148
7.1731807
7.1770713
7.1983851
7.1732524
7.1631303
7.0843492
7.1067725
7.0435316
6.8794624
6.9219662
6.851582
6.4839824
6.6142244
6.828427
7.0128244
7.0869363
7.0975115
7.1094408
7.0811416
7.0792643
7.0271439
6.8799419
6.9604838
6.9431195
6.843509
6.8441924
6.9435669
6.9614033
6.8813094
7.0289077
6.8164911
6.6408819
6.5072789
6.3179607
6.1999413
6.5984285
6.8174246
6.9986314
7.0790728
7.1023441
7.0801516
7.0817719
6.9356852
6.9231181
6.9226817
6.9350119
6.9323734
6.8897521
7.0472526
6.8313369
6.6260948
6.5358917
6.4842089
6.454211
6.510092
6.3532608
6.5112727
6.4546289
6.3677879
6.0977168
6.1764229
6.2895049
6.1932155
6.0993803
6.0894611
6.0090419
6.0026042
6.1207125
5.9475082
6.122526
6.2926461
6.6213027
6.1787431
6.092281
6.0997527
6.0115546
6.1020673
6.1971086
6.005195
5.8468361
6.0551759
6.4930116
6.8628439
6.8634526
6.9327648
6.8906622
7.0484361
7.1097907
7.0979542
7.0875904
7.0144297
6.8335764
6.6221675
6.4933819
6.0176527
6.01769
5.8918831
5.9217672
5.8387761
5.8265879
5.7904019
5.798705
5.5528225
5.6279542
5.7790532
5.7750881
5.9434557
5.7737735
5.7777415
5.5483526
5.5326956
5.3460869
5.6195277
5.8230313
5.9180977
6.0503032
6.0127555
5.8882236
5.8345403
5.7869087
5.7953156
5.8433756
5.6259176
5.5510237
5.5441992
5.2482369
5.2709604
5.3670772
5.1625255
5.3676703
5.3466142
5.6215843
5.5460108
5.2483953
5.2711446
5.0510725
5.0208819
5.1348738
5.0213617
5.051451
4.9317127
4.8987042
4.8633141
4.9891762
5.2234323
5.5406877
5.6166456
5.7743085
5.9471618
5.9352718
5.7533545
5.4966321
5.7549956
5.7757703
5.5155067
5.3234923
5.3000282
5.5976906
5.5159978
5.1971975
5.1744772
5.525785
5.8152657
6.5552476
6.6864511
6.8859272
7.0590516
7.0384988
6.8737777
6.6745436
6.5538725
6.5552156
6.9239746
6.8533884
6.881809
7.0453883
7.1080561
7.0858093
7.0145041
6.8316407
6.6170531
6.4853535
6.0135
5.8888298
5.8353484
5.9191182
6.0516811
5.844747
5.7959195
5.7875099
5.8240675
6.011021
6.101322
6.1956909
6.2926183
6.1786382
6.0914847
6.0999491
6.1239766
6.0049956
5.7802463
5.6273693
5.5515036
5.5446
5.6206626
5.3472269
5.2485825
5.2714218
5.3685279
5.5510861
5.5348044
5.7756855
5.946073
5.9509925
5.7830753
5.7780703
5.6246983
5.3488087
5.1362088
5.0217801
5.0519575
5.1640534
5.0526819
4.9321942
4.8990892
5.0221811
5.2506606
5.2741897
5.3705381
5.6321482
5.5572963
5.5492807
5.7960251
5.8320009
6.0164727
6.1042659
6.3720226
6.4581739
6.5145069
6.6301782
6.8339206
6.5393811
6.4877694
6.4581984
6.5159585
6.3581466
6.1277647
6.2977978
6.6237475
6.1827708
6.0963434
6.1063301
6.2028785
6.0109894
5.8531763
6.061598
6.4960528
5.9266115
5.8435958
5.8967734
6.0243478
5.805359
5.8048719
5.5566962
5.2735257
5.0519064
4.9313733
4.9308224
5.0502867
5.2706473
5.5524458
5.7985347
5.7900135
5.8914409
5.8380661
5.9211078
6.0550769
5.8464949
5.8258618
6.0106344
6.1012872
6.1973966
6.0049451
6.1230367
6.2934621
6.1779018
6.0910139
6.0987838
5.9422202
5.7734591
5.6202196
5.5455008
5.2476506
5.3446922
5.3661494
5.6269534
5.778188
5.5469982
5.5303948
5.7720954
5.7775126
5.9475038
6.1230222
6.1411518
6.3530234
6.5080535
6.5144551
6.4567543
6.4859198
6.3698983
6.3564006
6.5140214
6.8322279
6.6293411
6.5374964
6.4558119
6.1769033
6.0987159
6.0899217
6.0100703
6.0049259
6.196948
6.6187734
6.292948
6.0997737
5.9179806
5.8236019
5.6174043
5.3431242
5.1325121
5.0199702
4.897673
5.0187092
5.0492857
5.1605691
5.3651629
5.2687878
5.244944
5.5417406
5.5500898
5.6252802
5.8453466
5.7972411
5.7874638
5.834463
5.8879585
6.4891616
6.0538428
6.0163242
6.0165553
5.7974579
5.5503621
5.2691164
5.0497447
5.0190101
4.8981471
5.0212554
5.1335799
5.1619321
5.3688166
5.3465933
5.2497753
5.5485227
5.6230298
5.6308829
5.7816204
5.5490981
5.366318
5.3439987
5.245223
5.5419056
5.6179846
5.6260844
5.779242
5.7733084
5.5318848
5.7758289
5.9440876
5.9502428
6.1275187
6.0100794
5.8524423
5.8309048
5.7953074
5.8425241
5.8960641
6.4961854
6.0240765
6.061133
5.9256133
6.1048776
6.0148266
6.0943123
6.102532
6.1812362
6.624198
6.2025659
6.2979005
6.5181938
6.36034
6.1252269
6.0062673
5.8460198
5.8240201
5.7876348
5.8346314
5.8881297
6.4893875
6.0543897
5.9183263
6.100625
6.0110294
6.0907206
6.0999274
6.1779803
6.619692
6.1981541
6.2947061
6.5172306
6.8337678
6.4587798
6.3732616
6.4884004
6.4594265
6.8353908
6.6322669
6.5399841
7.015178
7.0403028
6.8791796
6.6825632
6.5642169
6.5642607
6.6828487
6.878711
7.0399463
6.8763967
6.6769565
6.6885997
6.5564238
5.8161537
6.0888704
6.0941997
6.7269129
6.959056
7.2167362
7.2228387
7.1965072
7.1841988
7.1510842
7.1609828
7.1571221
7.192496
7.1857234
7.1845622
7.1872594
7.1810977
7.1934678
7.2084892
7.2194516
7.1794822
7.1819804
7.1693453
7.1689754
7.2164548
7.2419588
7.2387273
7.216055
7.2386277
7.1930387
7.1638468
7.1443612
7.1303064
7.1576304
7.1715183
7.1796526
7.2218215
7.2242533
7.1807497
7.1506525
7.1467159
7.1467519
7.1505947
7.1340373
7.1341321
7.1620433
7.1619604
7.2034728
7.1959802
7.1953518
7.2010543
7.1608879
7.1332078
7.1504052
7.1643146
7.1637937
7.1445335
7.1307266
7.1267447
7.1359298
7.1501559
7.1657742
7.1682907
7.150058
7.1501516
7.1686737
7.166538
7.1512751
7.1364371
7.1249451
7.1172441
7.116128
7.1248872
7.1364607
7.1469513
7.156752
7.1588619
7.1587689
7.1564239
7.1463298
7.1355755
7.1243821
7.1163609
7.1190442
7.1314209
7.1299521
7.142593
7.1437137
7.1449573
7.1587997
7.1442291
7.1802229
7.1850392
7.1942709
7.1929979
7.2295762
7.2322588
7.2332764
7.2334472
7.2323327
7.2291308
7.2711155
7.3170007
7.3658928
7.3735053
7.366776
7.3624577
7.3126791
7.3193586
7.3120442
7.3620467
7.3690411
7.3828902
7.3659735
7.3162156
7.322957
7.314187
7.364157
7.3665938
7.316788
7.3177256
7.3674057
7.3848933
7.3811287
7.3724756
7.400296
7.3504964
7.3333321
7.2852151
7.3018068
7.254055
7.2300542
7.2381103
7.2840609
7.2877363
7.241573
7.2713457
7.2673457
7.3164216
7.3217777
7.3728194
7.3355505
7.3317626
7.3661872
7.4167614
7.4244735
7.4575672
7.465258
7.4442116
7.410777
7.3831907
7.3338242
7.3174959
7.2705263
7.2261056
7.2394257
7.2859839
7.3030504
7.2780785
7.2341742