/*--------------------------------*- C++ -*----------------------------------*\
  =========                 |
  \\      /  F ield         | OpenFOAM: The Open Source CFD Toolbox
   \\    /   O peration     | Website:  https://openfoam.org
    \\  /    A nd           | Version:  7
     \\/     M anipulation  |
\*---------------------------------------------------------------------------*/
FoamFile
{
    version     2.0;
    format      ascii;
    class       surfaceScalarField;
    location    "220";
    object      phi;
}
// * * * * * * * * * * * * * * * * * * * * * * * * * * * * * * * * * * * * * //

dimensions      [1 0 -1 0 0 0 0];

internalField   nonuniform List<scalar> 
74922
(
-0.16877119
0.32441411
-16.374142
21.541189
-2.5336204
-2.7890692
0.10482336
-16.282315
-1.2115918
17.023112
-17.608433
17.974763
-0.0031957117
-18.152292
0.22770175
0.29987627
-0.00033939712
0.62099577
0.024482198
-0.4224253
0.68732216
-0.6334014
16.347245
-1.9076649
-2.0910611
29.523432
-0.32732345
-0.83789376
21.547727
1.7766005
-0.62125423
17.641089
-0.49265087
-2.1457576
24.773603
-0.08330679
-1.6720312
27.796671
0.3561499
-1.6743594
27.854835
-1.8441927
-2.153172
24.91557
0.33653649
-0.61020937
17.773208
1.8325742
-0.829752
21.696318
-0.46548204
-2.0874346
29.812466
-0.74562364
-0.65227386
16.493742
0.46973571
-0.4861854
18.423045
0.40252969
-0.51026631
18.294421
0.26306624
-0.77013379
16.692983
-6.5418374
-0.69844073
29.908738
-7.2598119
1.64031
27.550668
3.6773568
-0.13930596
28.553283
7.1014321
1.5483915
19.843131
4.5902343
-1.9581553
25.43499
-2.657012
-3.9658195
26.015673
-3.3978522
-1.3276979
22.479989
0.85304981
1.3414589
17.49127
7.6449724
2.1683067
24.75961
-0.74004643
-0.22297053
28.386739
0.042649589
-0.6846694
16.418036
0.00042637122
-0.62352858
17.932692
-0.04235023
-0.62372304
17.93272
0.73957314
-0.68542419
16.418687
-7.6301549
-0.22541146
28.378463
-0.85282549
2.1626646
24.751872
3.4072617
17.464255
1.3369607
2.660237
22.440383
-1.3322252
-4.6054543
26.056301
-3.9594074
-7.0969204
25.496413
-1.9439198
-3.6748272
19.85957
1.5667228
7.2699905
28.578619
-0.1117248
6.5569121
27.576417
1.659441
-0.27134416
29.926326
-0.6872709
-0.37629427
16.706265
-0.76450403
-0.49377004
18.293016
-0.50802396
0.78759713
18.424642
-0.48366689
0.4195355
16.462463
-0.65221127
-1.7985598
29.796405
-2.0810365
-0.415837
21.628397
-0.83394415
1.7883478
17.687651
-0.60186011
-0.5047032
24.847558
-2.1444621
-0.094063641
27.820125
-1.6635767
0.35359137
27.846467
-1.6709188
-1.8040636
24.901007
-2.1662932
0.25814474
17.67986
-0.61638178
1.9774555
21.629173
-0.80907358
-0.73626573
29.616135
-2.0748894
-0.55143378
16.380686
-0.62593197
-0.4236512
18.14773
-0.39764637
0.80850846
7.5351312
0.39971211
31.278097
-0.18857518
-0.16751349
0.83377713
7.5330207
1.4033136
5.8001368
-3.8802791
-1.1922239
33.054941
-0.51145703
-3.4946256
1.5315255
35.999187
1.3807313
7.9750221
2.5994599
5.9190324
-0.18843715
-1.6743476
25.935535
-0.051173494
-3.156243
29.025526
0.10603465
-3.1558885
29.068319
-2.6458295
-1.6888822
26.041945
-1.3989528
5.9495405
0.52602346
8.0249835
3.9654186
-3.5101703
1.5484951
36.144274
-1.2444843
-1.2742166
33.178963
-0.80324564
5.8262605
-0.37210929
7.5759395
0.66138588
-0.73791429
-0.38745023
30.997771
0.68928759
7.4408907
0.80099508
5.7528232
-5.9261968
-1.0619762
31.555754
-7.1496706
-3.501226
38.343384
-1.3464507
-5.1812989
40.891479
1.3771232
4.4510149
-6.0319218
44.686349
7.0937612
8.4628639
4.91511
8.9891555
-3.4711793
-0.56724344
25.330479
-4.6543811
8.2506896
0.55359577
7.8796549
2.8205832
-4.9124399
3.223758
42.346177
-5.7928019
47.731722
0.020373194
-6.9506708
1.3099558
42.820062
2.0452927
-7.0334925
42.418598
3.992737
-6.4068881
40.545898
3.9006064
-5.1107215
38.070521
-3.5994943
38.400677
3.6416281
-3.8635637
-4.2658026
38.118802
-2.6701172
38.874445
-4.8271992
-1.9686395
37.597921
-5.085207
-3.063546
39.688147
5.0980501
-4.2077895
-3.8840004
41.553029
-3.8276502
40.037727
-2.3001477
-5.9552971
41.794159
-0.28920421
-6.381397
43.064917
1.7036257
-6.3664072
43.263934
6.2878189
3.3790288
-5.9376961
42.280494
2.8771328
41.254325
3.3714061
3.6985469
-5.0756561
38.644914
6.88746
38.195705
-0.80496906
-0.78584815
32.883386
-0.42561211
5.7041994
-0.49242419
7.371612
-0.75180619
-0.7519077
0.49389231
30.68589
-3.6577853
38.720671
-4.1356685
-4.1385798
3.6571674
38.422648
-5.1476694
40.568959
-3.9446384
-3.9568789
5.1392179
42.298834
-1.9784188
-4.4091353
43.725101
0.29375256
-4.6473201
44.432545
2.4826148
-4.6539144
44.244659
-4.4096218
43.205352
4.5446684
-2.2430066
-2.623707
44.209838
5.6768959
-2.0033903
42.60117
5.6798258
-1.5764553
40.478102
4.4141508
-0.90255623
38.126652
-0.34025803
37.38251
-4.934415
0.044271186
33.540226
-6.0774835
0.053894846
37.834299
-5.959885
0.075644958
40.788881
-4.7009775
0.10517489
43.049759
-2.6794395
0.13864866
44.644423
2.3397202
0.17389837
-0.2520263
45.553082
-0.27318255
45.164596
2.1795295
-2.3230938
45.381678
4.3868126
-2.2058115
44.863758
5.9210165
-1.9929893
43.730944
3.3840747
-1.7101874
6.2770819
42.289206
5.0710669
40.572374
3.6982105
-2.8778732
3.3716823
38.64889
0.78872054
38.722321
-0.80436952
-6.8834544
32.883973
-0.42617147
5.7043947
7.3717612
0.40007914
4.3916469
2.5800352
2.2012618
3.903212
0.13705129
2.4271348
-0.30315566
-0.059768653
-0.13564136
0.52837765
16.270835
-8.984328e-05
17.656507
0.14033193
0.13514105
17.65682
0.14018045
0.52684879
16.270144
-0.13701319
0.83545729
30.987796
-2.686487
-16.823753
0.12822178
19.125577
-1.5552811
1.5310723
6.3718829
14.351904
4.6191563
-0.55791029
16.014573
-1.1441681
0.11022456
23.826021
-1.9870104
-1.3181721
30.994746
-3.4518575
-0.3699578
27.869848
-2.5638262
2.5540679
23.613498
-22.904512
-2.5093383
-0.24170769
16.020197
-11.401641
-1.7454356
-3.9935594
19.393254
-14.045828
-1.7534815
-1.0245414
30.121542
-2.7583603
-0.43707813
16.482074
-0.20608393
-0.23828679
17.877725
0.2338423
0.14184905
17.795701
0.21510652
0.34057558
16.429999
-0.048602916
-0.26647416
32.043515
-1.4830722
0.1865249
20.945748
0.24073585
0.63103778
17.271379
-0.030602834
0.01550273
26.823386
-1.3789377
0.057880608
29.011531
-1.2233043
0.076020097
28.986239
-1.2224979
-0.58629926
26.739168
-1.3775219
-0.17979118
17.18653
-0.033573866
0.25013647
20.820271
0.24051461
-0.4391544
31.808137
-1.4665697
-0.045771498
-0.081068555
-2.2016182
-0.21242564
2.4493409
-2.5673273
3.0833243
-0.29718933
0.43552985
4.5301635
4.0340484
4.8221954
-0.17015143
-0.83042123
-6.0192814
-1.9564586
-2.4892462
32.336466
-2.4756409
1.9500592
-38.982135
37.993081
-1.9151118
-2.6786763
3.0935954
-3.3902529
-2.5675958
1.1748133
3.41761
-3.6877205
-3.7281642
38.16409
-2.5402881
38.963997
-1.951687
-4.730483
37.513688
4.4072303
-0.9773124
-5.6436587
38.025761
-0.40813267
37.273752
-4.9326526
33.502275
-6.0679305
37.793353
-5.9354549
1.6783412
40.729136
-4.6638992
2.1459788
42.947387
-2.6427731
2.4348181
44.483156
-0.23027638
2.5893653
45.341564
-0.21004562
2.2858474
2.6398562
45.561754
2.2828979
45.789917
4.6126967
0.24591594
45.389648
6.339534
0.2786168
44.445894
6.9317833
0.28246795
43.27941
1.3120253
5.7802958
0.018201431
42.835183
4.9071171
41.262877
3.222386
-0.55119066
2.8207602
42.35062
38.195709
4.8950462
3.0687731
-3.5502689
38.838083
-5.0559246
-2.7170894
1.0377387
6.2130568
0.36134012
-6.3702187
0.4935598
3.1595695
16.805905
1.5331607
-0.83680995
0.12804534
-1.5512956
19.135652
30.99242
-2.6846431
1.0299033
2.2136308
29.788941
-2.1755353
0.049160736
17.035884
0.029051576
-0.0005151749
18.060268
-0.41811175
-0.049940991
18.060736
-0.41846885
-1.0311534
17.036014
0.029136014
2.211346
29.789367
-2.1768753
0.039245787
21.75418
-0.57137359
-0.98949217
17.363026
-0.3876222
-1.7506012
25.613326
-0.96809425
1.2537612
29.468707
-1.4935253
1.2094632
29.119295
-1.3232294
0.39608349
25.267906
-1.1332766
-0.16161226
17.342572
-1.061389
-1.317029
21.75819
-1.3286569
0.47174875
29.845291
-1.6453271
-0.2501994
17.020964
-0.041955997
-0.28956805
18.103998
-0.27797336
-0.23166312
18.096868
-0.41508726
-1.3230041
17.133424
0.20121028
1.6659384
30.200476
-1.2819342
0.037293211
22.415001
0.15825961
-0.99917328
18.148315
0.19287354
-0.075800137
26.499289
-0.54904937
0.037617325
29.996872
-1.0812128
0.14051699
29.938499
-1.0824662
1.0232109
26.416418
-0.55393864
-0.037498948
18.093108
0.18756345
-1.7083092
22.329036
0.16100259
30.053059
-1.3006415
0.13417333
0.11790466
30.799801
-0.9779996
0.067822259
17.513569
-0.39479611
-0.0022770837
18.693931
-0.62884911
-0.068810389
18.695664
-17.978905
-0.62989167
-17.033594
17.518485
-0.13049813
-0.39381839
-16.298844
-1.2093318
0.10738396
0.17134108
0.44513033
-0.21761839
-0.04284657
-0.23799093
31.85192
-1.4618182
0.20859298
20.864588
0.25383868
0.63978078
17.234621
-0.033092279
0.021345785
26.790475
-1.3820871
0.075500154
29.008318
-1.2216464
0.10127463
29.010291
-1.2158203
-0.57383342
26.789715
-1.3701678
-0.14618143
17.243756
-0.023599647
0.28025863
20.90896
0.23240463
-0.33158588
31.993339
-1.4766738
-0.14539491
16.415935
-0.047629588
0.23856897
17.791516
0.21734751
0.43196529
0.23556739
17.879831
1.0233435
-0.20274154
16.488257
3.9919608
30.131897
-2.7534209
-14.049488
19.394943
0.24152089
-1.7542013
-12.006103
11.417271
14.233737
9.769657
6.8439938
22.947186
6.355318
0.36950971
2.5507691
-2.5132601
23.604788
1.3139187
27.843859
-2.5656892
-0.1144492
30.971024
-3.4526273
0.54912713
23.850487
-1.9844783
-14.317517
-1.1403162
16.037717
4.618624
2.7622168
2.349967
-0.090565943
1.9736413
-0.26117485
2.5554467
-4.5993359
15.341481
-2.1492035
-3.1646441
-3.5386483
3.9642453
0.5898436
-4.2172421
6.8407889
0.69343176
-6.4816227
-7.8790744
0.12318401
4.6589808
3.4720702
8.2518831
-0.55843449
25.337821
-4.9193648
-4.4528463
47.747021
-6.0119985
1.3455755
44.711197
1.3517129
-7.006252
2.043915
42.439846
-6.34416
2.2941909
43.086842
-4.6069138
2.4685901
44.265322
2.5980935
45.180695
-2.1791174
4.5224709
4.3534563
44.231605
0.20519823
4.6668507
44.660069
2.4985099
4.6176828
44.491157
4.4133793
4.3579062
43.711495
5.5881988
3.8423664
42.308159
3.0353679
40.326092
-4.8665295
39.541174
-3.9005619
4.8212843
41.121206
-2.21221
5.5454788
42.316095
-0.17353146
5.8997377
42.961523
1.9375356
5.9327319
43.068627
3.8255304
5.6581029
42.623546
-4.195465
5.05085
5.0736117
41.577526
5.9103178
43.230598
6.3734697
3.8221877
41.819949
5.1571485
3.991804
40.570656
7.1529831
40.919981
-3.4791798
5.9283684
38.370483
-5.0757971
3.8982402
38.095216
4.2601383
40.062857
-3.8220519
3.6340658
3.5694908
38.136587
-3.0130532
4.8142967
39.70442
-1.5208122
5.662426
40.494079
0.13259684
6.0566665
40.806198
1.7351051
6.0442591
40.747685
3.086501
5.6163967
40.342805
4.7010039
39.551862
-1.9836547
3.4800455
37.539928
-1.0095786
4.3959797
38.054843
-0.083343189
4.9209313
37.816351
0.87288194
4.9179468
37.845409
1.9391778
4.3951501
38.128068
2.6438156
3.4934216
37.597084
0.37083885
1.2607592
38.876842
-0.73680676
0.65401509
31.005993
0.36297272
1.0422088
38.421642
-0.80315354
31.577091
-0.67667118
5.7561166
7.4429897
2.5915785
0.44727773
4.4041335
0.10378786
-0.34027807
3.0636361
-2.2355797
-0.27718811
2.4138141
3.9678146
-0.16291871
4.8014759
-0.94793065
6.0491351
-2.1481983
16.328061
0.038893948
0.27723685
-2.724813
21.50972
-2.7729768
-0.47443365
-0.24797672
17.024011
1.314772
29.851291
-1.640813
0.16064148
21.761922
-1.3287159
-16.007479
-0.40226835
17.345094
-1.0623876
-1.7492354
-3.1752757
20.109441
-6.2038655
-3.4264734
-4.0462646
3.8920277
0.40543449
-2.3609871
0.92448188
6.993684
-8.9836521
0.43674208
2.5240473
4.2680127
5.2920242
0.37943283
-2.2229279
-2.53962
18.717356
1.1365663
27.340755
-1.4563079
-8.222943
-0.080714646
-1.2103463
25.270553
-1.2538999
29.122327
-1.3268844
1.7477851
29.469785
-1.4951655
0.99255205
25.609898
-0.96651753
-0.040680895
17.359504
-0.38562495
21.752702
-0.56875442
-0.35673123
0.032117378
22.832184
-0.75176471
0.0044578396
30.724219
-1.2884539
0.011047672
17.535229
-0.47525391
-0.00060736923
18.752578
-0.65877604
-0.011827019
18.752961
-0.65912269
-0.0056306282
17.535392
-0.47493017
0.35515542
30.724482
-1.2880859
0.031054064
22.832409
-0.75177757
-0.34783893
18.467809
-0.69324458
-0.34610695
26.818512
-1.1639179
0.18338894
30.324764
-1.34793
0.47202861
30.294062
-1.4116611
0.25551452
26.788631
-1.2337542
-0.13287062
18.469475
-0.69435518
-0.59777497
22.841505
-0.61866678
-0.24867494
30.71314
-1.2020726
-0.19167384
17.512432
-0.50976962
-0.24298537
18.746964
-0.56495854
-0.177091
18.748885
-0.69491197
-0.22761407
17.57319
-0.35886036
0.064545889
30.883957
-0.95428317
0.0020229038
23.043434
-0.60038095
-0.1744648
18.668344
-0.41483696
-0.12936936
27.039061
-0.62721775
0.019983915
30.490083
-0.64776251
0.15607441
30.482979
-0.64711215
0.18595269
27.01071
-0.62746308
-0.0099656385
18.632414
-0.41823489
22.989581
-0.59187147
-0.042391532
0.014010714
23.235846
-0.2178815
0.02092741
31.090316
-0.3506652
0.0033560573
17.685266
-0.15320491
-0.0012806983
18.910375
-0.2123018
-0.0043188611
18.91106
-0.21282898
-0.018559744
17.686567
-0.15278906
-30.813375
31.094408
-0.35034929
0.054323327
-30.08162
-0.97684382
0.13536653
1.7288945
-1.2975097
0.063585
0.17508056
22.355332
-0.97504739
18.114491
0.18528664
-0.054710483
26.471903
-0.55438252
0.061057985
29.990383
-1.0810098
0.16697956
29.954113
-1.077535
1.0553614
26.449622
-0.54379754
-0.0048969961
18.129957
0.20057792
-1.6339815
22.393066
0.14455261
1.3302992
30.177077
-1.2793308
0.23313111
17.124819
0.20172953
0.28739161
18.093384
-0.41325835
18.10481
0.19027329
-0.24209636
18.748092
-0.56473013
0.24671126
17.51443
-0.50811366
0.59566356
30.716658
-1.1994793
0.13189747
22.843724
-0.61856454
-0.25665832
18.470632
-0.69353422
-0.47321878
26.78946
-1.2330238
-0.18444426
30.294338
-1.4107854
0.3451138
30.324719
-1.3474382
0.34656304
26.818285
-1.1647
18.467553
-0.69449821
-0.0092695908
-0.095865361
18.802242
-0.22708207
-0.11691326
23.204533
-0.26277594
-0.04044528
31.086718
-0.43539428
-0.02655884
17.703395
-0.18075671
-0.00062893419
18.94385
-0.21618398
0.025933761
18.943903
-0.21647128
0.039625802
17.703501
-0.18050302
0.1159207
31.08689
-0.43512708
0.0086895279
23.204649
-0.26306441
-0.096505625
18.802389
-0.22689556
-0.099247644
27.218757
-0.39475619
0.019552224
30.672927
-0.46062668
0.10862703
30.68243
-0.46831595
0.059694959
27.240363
-0.39835388
-0.065955978
18.818015
-0.22281113
-0.25186792
23.213019
-0.18676408
-0.17586235
31.064585
-0.42417418
-0.1335623
17.679026
-0.20768508
-0.14780971
18.929031
-0.16650228
-0.07690513
18.928964
-0.25004923
-0.087623103
17.712764
-0.12676483
-0.0022181506
31.134222
-0.33170252
0.0020765451
23.266798
-0.22649261
-0.033741232
18.857859
-0.15166991
-0.028441854
27.274415
-0.2347094
0.0066750884
30.701955
-0.23976705
0.038000856
30.69427
-0.23909252
0.032195859
27.254248
-0.23516771
18.836008
-0.15552285
-0.025923005
0.018219196
18.878935
-0.036582587
-0.044357548
23.28694
-0.033538337
-0.018078076
31.142614
-0.078463659
-0.0094646918
17.711057
-0.034435153
-0.0014574992
18.941661
-0.039439226
0.0079750333
18.941503
-0.039997438
0.018188781
17.710394
-0.033990897
0.049577024
31.1415
-0.07819369
0.032835861
23.287167
-23.241551
-0.029563584
-18.839014
18.878092
0.031486001
-0.038181202
-18.643961
-0.0061401175
-0.028230531
-0.15929103
-0.14625201
-0.42341407
-0.031058095
-0.10211349
27.018255
-0.63291814
0.048058058
30.483421
-0.64907415
0.18604038
30.493278
-0.64400153
0.21810831
27.035129
-0.61986376
0.022819477
18.658957
-0.40796878
-0.040387938
23.03025
-0.61239041
0.2360857
30.873041
-0.95160393
0.17904398
17.569608
-0.35761266
18.747602
-0.69430814
0.14704319
-0.078128429
18.929605
-0.25005725
0.132416
18.930576
-0.16656857
0.17427244
17.680608
-0.20682664
0.25019151
31.066941
-0.42292391
0.065297878
23.214402
-0.18692894
-0.060301683
18.818797
-0.22246806
-0.1092044
27.240967
-0.39812419
-0.020138866
30.682667
-0.46824018
0.098628628
30.672916
-0.46063173
27.218618
-0.39485872
0.014133419
-0.03268492
27.316372
-0.080788462
-0.017338839
18.878999
-0.047248855
-0.060124558
23.290891
-0.045322071
-0.038198786
31.158875
-0.094174063
-0.020181485
17.72649
-0.040942209
-0.00035748172
18.962677
-0.038275715
0.019776483
18.962613
-0.038462717
0.037706508
17.726524
-0.04078436
0.059568015
31.158956
-0.094025376
0.017025902
23.290932
-0.045491614
-0.014472916
18.87906
-0.047142037
-0.033015681
27.316433
-0.080721121
-0.025119748
30.758214
-0.093790659
-0.013456231
30.763988
-0.093118804
-0.024132572
27.328968
-0.078750826
-0.047307021
18.88727
-0.04776091
-0.11494441
23.292861
-0.014648441
-0.093640625
31.138216
-0.095119649
-0.066670109
17.707092
-0.055097281
-0.069898239
18.947571
-0.015013548
-0.030159574
18.947894
-0.058353068
-0.022173115
17.724687
-0.019485017
0.011253477
31.168571
-0.067435116
0.012396795
23.307648
-0.042255235
0.0075988173
18.895245
-0.032501948
0.0026837181
27.331178
-0.051330711
-0.0028086621
30.761395
-0.054263727
-0.0096775947
30.754236
-0.055082124
27.314281
-0.053935967
-0.029748258
0.022350827
27.345534
-0.026810317
-0.029483933
18.897128
-0.020317586
-0.046423998
23.304644
-0.0021768733
-0.024501551
31.153042
-0.032852886
-0.011053234
17.713321
-0.016340705
-0.001568576
18.9427
-0.011079098
0.0090715146
18.942181
-0.011868849
0.022661393
17.711925
-0.015719284
0.046198373
31.14991
-0.032391979
0.030863934
23.302471
-0.0012519021
0.033418487
18.894855
-0.020532395
-27.312862
27.343045
0.028330821
-0.026717566
-27.256266
0.029107312
-0.055017242
7.884474e-05
-0.23969029
0.036189331
30.693555
-0.24131149
0.067900351
30.701351
-0.23728662
0.062047475
27.274256
-0.2294727
0.014430927
18.856058
-0.14698312
0.018379097
23.262377
-0.23522952
0.09331228
31.132112
-0.33044188
17.712768
-0.12602468
0.030272161
-0.024495815
17.726608
-0.01926897
0.068819714
18.949676
-0.058336342
0.06563787
18.949331
-0.015282015
0.092354935
17.708471
-0.054628475
0.1137283
31.139967
-0.094570266
0.046822072
23.293756
-0.014864736
0.023738686
18.887769
-0.047560104
0.013139125
27.329357
-0.078607402
0.024816514
30.764151
-0.093056882
30.758236
-0.093792864
0.01250914
-0.027551066
30.799854
-0.028667534
-0.0059978152
27.35908
-0.026328809
-0.01896665
18.908599
-0.018576233
-0.041705622
23.320566
-0.0087370241
-0.026691854
31.177339
-0.034215189
-0.012741495
17.729145
-0.017233301
-0.00016118456
18.96066
-0.01100385
0.012518026
18.960602
-0.011109147
0.026418841
17.729142
-0.017147134
0.041419938
31.177358
-0.034142219
0.018808473
23.320585
-0.0088378626
0.0058291723
18.908628
-0.018532445
-0.012663701
27.359099
-0.026304454
-0.027709119
30.799835
-0.028672754
-0.035273947
30.797782
-0.027755957
-0.037564265
27.354694
-0.024963056
-0.036084549
18.903702
-0.019314228
-0.062683996
23.311088
0.0066494258
-0.045089332
31.153458
-0.033491868
-0.028916024
17.71229
-0.022123562
-0.026432278
18.946131
-0.0016059965
-0.0075250432
18.948011
-0.019555642
0.0019522101
17.723719
-0.0090742013
0.022314457
31.17493
-0.02727637
0.016041159
23.323243
-0.010422346
0.014318835
18.912808
-0.016632359
0.0058682767
27.363218
-0.024248561
-0.0084612017
30.799845
-0.027056009
30.791886
-0.027909861
-0.022168996
0.01049271
30.834523
-0.034694341
-0.026959158
27.380025
-0.032610768
-0.026307083
18.918617
-0.024202277
-0.040897357
23.325405
-0.0079899482
-0.02007895
31.169473
-0.038305098
-0.009328199
17.721609
-0.020220883
-0.0015560212
18.949444
-0.015613629
0.0072046788
18.94885
-0.016529459
0.017233683
17.720222
-0.019507972
0.037602809
31.166209
-0.037738873
0.024547328
23.322704
-0.0089364058
0.025100077
18.916276
-0.023735517
0.020423255
27.377739
-0.032106427
-30.790333
30.833795
0.0089070913
-0.034233758
-30.751873
0.015569984
-0.02754901
0.025069275
-0.055347099
0.017510987
30.761176
-0.05379458
0.0069021634
27.333555
-0.049931156
-0.0041676642
18.896788
-0.030478273
-0.003503285
23.308244
-0.046950157
31.171275
-0.066997749
-0.0023084898
0.02102613
31.179284
-0.027331628
0.0067581944
17.726196
-0.0092369987
0.025056822
18.950091
-0.019242939
0.027991843
18.947784
-0.0019404533
0.044059431
17.713433
-0.021772727
0.061796276
31.15476
-0.033181096
0.035734606
23.311664
0.0064503103
0.037294402
18.904012
-0.019191107
0.035083558
27.354929
-0.024879472
30.797879
-0.027718819
0.018522474
-0.027515965
30.836843
-0.03211075
0.0042196707
30.844213
-0.032563841
-0.0084816413
27.399571
-0.030150433
-0.016184556
18.935836
-0.021630114
-0.03106859
23.347321
-0.01382722
-0.016410124
31.199393
-0.037962771
-0.0079502598
17.739319
-0.019882915
-8.386655e-05
18.968045
-0.016374662
0.0078378538
18.967983
-0.016425348
0.016263476
17.739306
-0.019839813
0.030917663
31.199382
-0.037932116
0.016104549
23.347318
-0.013879999
0.0083986992
18.935841
-0.021608782
-0.0043000652
27.399575
-0.030141984
-0.018608249
30.8442
-0.032568627
-0.027633492
30.83679
-0.032131064
-0.028620316
27.383263
-0.029557775
-0.025643096
18.921051
-0.022034478
-0.039233378
23.328153
-0.0052685223
-0.021464755
31.170544
-0.03601623
-0.012363214
17.722617
-0.020721403
-0.0082080923
18.953727
-0.01293931
0.00091898266
18.95694
-0.019239892
0.0071961176
17.733013
-0.016828893
0.023057719
31.193341
-0.035490497
0.014198084
23.345637
-0.015241066
0.010594286
18.935937
-0.021127602
0.002528399
27.400198
-0.030477174
30.843897
-0.033992975
-0.0099107645
0.00046160631
30.883075
-0.032676104
-0.017881947
30.872899
-0.033165485
-0.020394416
27.411
-0.031082553
-0.020019721
18.938609
-0.022738878
-0.030937235
23.344719
-0.010711264
-0.014014822
31.187214
-0.036413852
-0.0067869382
17.731947
-0.01942478
-0.0013450981
18.958541
-0.016310151
0.0048660516
18.958027
-0.017164105
0.011088616
17.730875
-0.018745721
0.026727454
31.184643
-0.035861324
0.017109863
23.342399
-0.012373519
0.01633553
18.936719
-0.022058215
0.012953725
27.409069
-0.03057572
0.004714812
30.872149
-0.032898199
-30.845079
30.883949
-0.0043279879
-0.03267982
-30.800804
-0.0039823046
-0.03380627
0.00060263017
-0.0267417
-0.009951872
27.366262
-0.023945219
-0.013910648
18.915486
-0.016158542
23.325942
-0.011793114
-0.02542543
0.015520939
23.348661
-0.014567745
-0.0090376345
31.197465
-0.035766667
-0.0021176666
17.735217
-0.01718502
0.0067499895
18.958772
-0.018717277
0.01157852
18.955035
-0.013256644
0.020677898
17.723475
-0.020415335
0.038610236
31.17146
-0.035777478
0.025403265
23.328511
-0.0054179901
0.02844038
18.921232
-0.021957769
27.383396
-0.029509751
0.016630319
-0.017590122
27.411174
-0.029365948
0.009873344
30.872885
-0.03199395
0.0002530677
30.883108
-0.032169976
-0.0071310874
27.433818
-0.029613276
-0.012048989
18.959095
-0.02088072
-0.022028495
23.370346
-0.015422737
-0.009713511
31.221209
-0.036027739
-0.0049456232
17.751522
-0.018894853
-4.5545237e-05
18.978521
-0.017189987
0.0048830731
18.978459
-0.017219768
0.0096475571
17.751487
-0.018872019
0.021963229
31.221175
-0.036007852
0.012015601
23.370332
-0.015446401
0.0070939196
18.95909
-0.020873584
-0.00028991036
27.43382
-0.029613418
-0.0099182513
30.883109
-0.03217876
-0.016698641
30.872864
-0.032006995
-0.017700944
27.411108
-0.029396554
-0.016710773
18.938796
-0.021072037
-0.025132973
23.345323
-0.011020518
-0.010736095
31.188743
-0.034432742
-0.0057469461
17.734331
-0.018643427
-0.0021352751
18.964267
-0.016009917
0.0026501083
18.968275
-0.017978875
0.0061325258
17.745306
-0.017728048
0.017804125
31.214613
-0.034861711
0.010067381
23.367659
-0.016599766
0.0058359671
18.958031
-0.020352195
27.433244
-0.029499537
-0.0019647958
-0.0022677405
27.457148
-0.023038809
-0.00790881
30.910943
-0.025429053
-0.01256223
30.899954
-0.025771793
-0.013552439
27.43292
-0.024176582
-0.013453943
18.953033
-0.017606459
-0.020715778
23.358449
-0.0094177806
-0.0086714887
31.200658
-0.028030611
-0.0043845336
17.740124
-0.015091
-0.0010342933
18.965801
-0.013134042
0.002879402
18.965407
-0.013825359
0.0062369741
17.739412
-0.014539753
0.016920643
31.198927
-0.027554916
0.010627702
23.356793
-0.011050677
0.0094174803
18.951766
-0.016960842
0.0073585236
27.431594
-0.023752227
0.0023083942
30.89941
-0.025625585
-0.0031800867
30.911512
-0.025521398
-27.435295
27.458513
-0.0062983205
-0.023409653
-27.402784
-0.0096817313
-0.02983582
-0.012056207
-0.030635725
18.938494
-0.021424498
-0.012737835
18.960023
-0.020928414
-0.021464042
23.370161
-0.015088075
-0.0083849013
31.217731
-0.03521206
-0.0038864563
17.746924
-0.018131778
0.0008403155
18.969634
-0.017421749
0.0051317043
18.965184
-0.016277396
0.010165757
17.734914
-0.018398488
0.024716393
31.189335
-0.034252976
0.016560338
23.345531
-0.011119446
18.938898
-0.021020526
0.0095997796
-0.0099622855
18.952683
-0.016517606
0.0087354618
27.432204
-0.023408257
0.0044767002
30.899281
-0.025513187
-0.0011027641
30.910817
-0.025588303
-0.0049358123
27.457836
-0.023520469
-0.0080660022
18.975521
-0.016488619
-0.014447088
23.386489
-0.012747899
-0.0054465445
31.237349
-0.027781797
-0.0029472181
17.761021
-0.014676283
-2.3445339e-05
18.986889
-0.013852672
0.002923208
18.986815
-0.013863887
0.0054175219
17.760985
-0.01467164
0.014421082
31.23731
-0.027783109
0.0080524619
23.386474
-0.012758975
0.0049233971
18.975517
-0.016491749
0.001089413
27.457838
-0.023527397
-0.0044958531
30.910821
-0.02559506
-0.0087696354
30.899275
-0.025525549
-0.0096608334
27.432172
-0.023430373
-0.010052837
18.952633
-0.0165506
-0.015479082
23.35855
-0.010735766
-0.0054538369
31.20295
-0.026855437
-0.0029274095
17.743474
-0.014355925
-0.0005279626
18.97273
-0.013444214
0.0020618743
18.977154
-0.014056195
0.0036277354
17.755177
-0.014139562
0.011435675
31.231213
-0.027085895
0.0060014907
23.383908
-0.013795388
18.974403
-0.015857458
0.00011969268
-0.0030773939
18.984691
-0.011335241
-0.0023429583
27.471989
-0.016474986
-0.0055266647
30.928062
-0.018151817
-0.0077738795
30.916459
-0.0183875
-0.0079009891
27.446284
-0.017261689
-0.0081373296
18.9619
-0.012539954
-0.012555407
23.366646
-0.007464197
-0.0046401618
31.208977
-0.019612098
-0.0025229904
17.74529
-0.010721622
-0.00071031902
18.970344
-0.0096716402
0.0014750882
18.970061
-0.010161098
0.0028983024
17.74486
-0.010320281
0.0097250188
31.207957
-0.019263681
0.0059597479
23.365602
-0.0087304013
0.0046547585
18.961157
-0.012027351
0.0036313233
27.445504
-0.016931673
0.0010368284
30.91613
-0.018285473
-0.0017765666
30.928384
-0.018235197
-0.0033197611
27.472776
-0.01678024
-18.975716
18.985444
-0.0051921023
-0.01181816
-0.0086968462
-0.016453786
-0.014908949
23.385655
-0.012246808
-0.0056360003
31.233244
-0.02741252
-0.0030960834
17.75621
-0.014498483
-0.00048147873
18.97804
-0.013581601
0.0024873354
18.973295
-0.013640962
0.0050714073
17.743834
-0.014170436
0.015217126
31.203301
-0.026720604
23.358659
-0.010798158
0.0055414418
-0.0088016152
23.36704
-0.0087948304
0.0045473506
18.961665
-0.011920149
0.004012103
27.445678
-0.016973748
0.0017662515
30.91587
-0.018489779
-0.0010194876
30.927949
-0.018526612
-0.0027631602
27.472549
-0.017038684
-0.0048793024
18.985603
-0.011937494
-0.0087197556
23.396195
-0.0095702417
-0.002619452
31.247315
-0.019501234
-0.0015992914
17.766998
-0.010463372
-7.2493611e-06
18.99213
-0.010168853
0.001590262
18.992054
-0.010170112
0.0026152591
17.766955
-0.010460659
0.0087231391
31.247273
-0.019504522
0.0048831877
23.396179
-0.009573832
0.0027647392
18.9856
-0.011946497
0.0010201947
27.47255
-0.017046669
-0.0017690675
30.927955
-0.018535008
-0.0040240138
30.915878
-0.018504726
-0.0045758
27.445673
-0.0169932
-0.005588062
18.961644
-0.011941676
-0.0089561004
23.366995
-0.008766715
-0.0024694367
31.212088
-0.019053797
-0.0014935411
17.749296
-0.010272255
-0.00019804588
18.978096
-0.010013015
0.0011185265
18.982738
-0.01025665
0.0014447772
17.761509
-0.010150548
0.0064240824
31.241782
-0.019018864
23.393965
-0.010421593
0.0013731722
-0.0033147033
23.399383
-0.0079159922
-0.00092257698
18.990341
-0.0081310933
-0.0021050813
27.480106
-0.011765176
-0.003423317
30.937368
-0.012927684
-0.004151774
30.92538
-0.013081201
-0.0038699399
27.45348
-0.012268794
-0.0044724685
18.966667
-0.0088874711
-0.0070076337
23.370868
-0.0061087726
-0.0019222031
31.213411
-0.013662104
-0.0012575346
17.748054
-0.0076224327
-0.00043353031
18.972755
-0.0072873854
0.00061122667
18.972554
-0.007594734
0.00081892186
17.747819
-0.0073661369
0.0051881808
31.212853
-0.01342626
0.0030415824
23.370269
-0.0069389533
0.0017201486
18.966282
-0.0085409209
0.0013888672
27.453074
-0.012040593
0.00041815957
30.925202
-0.013004756
-0.00065148828
30.937529
-0.012985387
-0.0012119152
27.480508
-0.011977846
-0.002773766
18.990722
-0.0084604992
-23.395036
23.399979
-0.0050395788
-0.0071002331
-0.0090754742
-0.0091945381
-0.0029326485
31.242948
-0.019267354
-0.0018585436
17.762092
-0.010415881
-0.00049439897
18.983254
-0.0099108199
0.0012055353
18.978406
-0.010144922
0.002231786
17.749493
-0.010145066
31.212278
-0.018963114
0.0047852353
-0.00052626851
31.217212
-0.013354703
0.0028338566
23.37162
-0.0070428588
0.0016071186
18.966709
-0.0085510287
0.0014471921
27.453212
-0.012170518
0.00060521437
30.925048
-0.01323812
-0.00043486354
30.937331
-0.013252799
-0.0010336494
27.480547
-0.012209566
-0.0026681338
18.991073
-0.0085859937
-0.0048789915
23.401293
-0.007313716
-0.00078105105
31.25266
-0.0136122
-0.00072438783
17.770213
-0.0074772338
-9.2050529e-07
18.99493
-0.0075867102
0.00073148433
18.994842
-0.007582508
0.00079160688
17.770168
-0.0074823318
0.0048960538
31.252613
-0.013622065
0.0026750765
23.401278
-0.0073109144
0.0010444279
18.991069
-0.0085937338
0.00044604566
27.480557
-0.012224995
-0.00059705742
30.937346
-0.013269282
-0.0014455245
30.925065
-0.013251792
-0.001615726
27.453222
-0.012186383
-0.0028580811
18.966714
-0.0085698291
-0.0048671353
23.371611
-0.007031971
-0.0006618591
31.217124
-0.013418506
-0.00066827634
17.752477
-0.0073899157
-0.00013072515
18.980996
-0.007515504
0.000426325
18.985752
-0.0076530146
1.5338531e-05
17.764977
-0.0072841715
31.24757
-0.013288866
0.0017013051
0.00075175387
31.250242
-0.0098756103
0.00055220746
23.401856
-0.0063345732
-0.0012793061
18.992993
-0.0061905756
-0.0016420984
27.483919
-0.0088326755
-0.001854022
30.941716
-0.0096043259
-0.0017451967
30.929527
-0.0096913653
-0.001312467
27.456806
-0.0091142408
-0.0022251145
18.968853
-0.0066089918
-0.0036806094
23.372682
-0.0053505445