/*--------------------------------*- C++ -*----------------------------------*\
  =========                 |
  \\      /  F ield         | OpenFOAM: The Open Source CFD Toolbox
   \\    /   O peration     | Website:  https://openfoam.org
    \\  /    A nd           | Version:  7
     \\/     M anipulation  |
\*---------------------------------------------------------------------------*/
FoamFile
{
    version     2.0;
    format      ascii;
    class       volScalarField;
    location    "80";
    object      omega;
}
// * * * * * * * * * * * * * * * * * * * * * * * * * * * * * * * * * * * * * //

dimensions      [0 0 -1 0 0 0 0];

internalField   nonuniform List<scalar> 
24789
(
130968.91
41193.837
24332.132
18294.013
3240.6634
3242.1301
18297.73
24334.929
41192.646
130945.45
131001.21
41211.605
24345.946
18306.298
3244.7798
3248.0027
18318.414
24360
41229.367
131039.05
131135.87
41261.796
24379.392
18333.38
3251.6277
3255.6814
18351.295
24401.039
41291.742
131210.7
131340.37
41335.691
24427.789
18371.862
3260.1232
3265.0109
18396.065
24457.687
41378.748
131453.42
131622.77
41436.416
24493.166
18423.305
3270.3268
3276.1196
18454.464
24532.246
41494.011
131777.6
131992.71
41567.425
24577.759
18489.387
3282.2754
3288.8599
18528.384
24627.264
41641.618
132195.66
132462.69
41732.75
24683.926
18571.736
3295.7983
3303.0732
18619.199
24744.75
41825.088
132719.04
133040.37
41934.803
24813.082
18671.276
3310.6072
3318.3881
18727.747
24886.053
42046.73
133354.91
133735.53
42176.435
24966.764
18788.952
3326.3255
3334.3911
18854.672
25052.358
42308.972
134112.08
134553.72
42459.034
25145.542
18924.946
3342.4463
3350.4651
18999.716
25243.619
42612.112
134992.53
135493.4
42782.107
25348.883
19078.599
3358.3063
3365.9943
19162.205
25459.402
42955.735
135992.9
136556.89
43147.169
25577.541
19250.243
3373.3768
3380.5722
19342.977
25701.006
43342.299
137116.56
137739.59
43556.463
25832.779
19440.634
3387.6513
3394.937
19542.901
25969.94
43773.586
138345.21
138990.25
44005.491
26115.373
19651.663
3402.428
3410.7299
19769.568
26270.103
44241.364
139594.56
140265.92
44504.31
26442.778
19900.979
3419.6071
3427.5569
20054.114
26641.595
44794.115
140974.51
141904.63
45186.966
26901.195
20247.525
3432.551
3425.6998
20474.713
27235.029
45768.635
143305.06
145687.19
46381.675
27504.14
20612.291
3385.2136
3301.4987
20540.501
27476.297
46458.172
148302.88
149649.46
47249.127
28016.015
20974.453
3259.8319
3257.3955
21388.442
28807.854
49006.871
156679.56
165643.76
51107.725
29598.194
21631.523
3368.0522
3059.657
21752.094
28898.299
48755.456
154924.05
151106.29
47323.251
28116.528
21184.933
3017.8119
3039.9555
21201.869
27918.071
46685.717
146354.62
142731.18
45813.825
27531.771
20981.608
3083.0053
3104.7914
20701.374
27105.649
45036.606
140357.57
139074.57
44449.34
26733.431
20428.329
3107.1402
3102.5843
20224.212
26469.653
44071.582
138259.65
137627.26
43791.87
26270.271
20065.846
3095.994
3089.2727
19935.816
26102.735
43544.051
137031.18
136469.58
43322.259
25952.619
19817.062
3083.4377
3078.1941
19710.533
25811.778
43101.049
135862.63
135265.15
42886.751
25674.724
19606.61
3072.7603
3067.5111
19508.902
25544.218
42677.726
134669.48
134121.5
42485.137
25419.975
19413.311
3061.9137
3056.1493
19324.623
25302.796
42298.86
133583.03
133095.46
42128.088
25191.76
19238.507
3049.9012
3043.416
19158.78
25087.053
41962.229
132615.02
132188.68
41812.106
24988.702
19081.92
3036.6635
3029.8584
19011.654
24896.873
41667.111
131770.36
131403.75
41537.287
24811.173
18944.147
3022.9213
3016.2478
18883.867
24732.684
41413.704
131050.03
130743.65
41304.456
24659.922
18826.034
3009.5138
3003.043
18774.947
24593.631
41200.057
130445.16
130192.72
41109.325
24532.629
18726.023
2996.5939
2990.504
18683.417
24477.443
41022.192
129943.75
129741.46
40948.631
24427.337
18642.791
2984.5556
2979.0747
18608.645
24383.132
40878.652
129542.88
129388.83
40821.764
24343.638
18576.127
2973.8118
2968.9692
18549.598
24309.184
40766.691
129232.14
129118.96
40724.05
24278.844
18524.151
2964.4972
2960.4099
18503.996
24252.618
40681.584
128997.47
128919.28
40651.069
24230.121
18484.707
2956.5878
2953.2214
18470.427
24211.384
40620.107
128830.89
128786.31
40601.029
24196.187
18456.796
2950.1448
2947.7224
18449.132
24185.913
40583.432
128738.72
128745.7
40580.834
24180.768
18443.049
2945.9444
2949.0404
18456.731
24196.49
40602.915
128808.01
128819.25
40609.703
24200.83
18460.493
2950.4854
2953.2479
18470.654
24211.934
40622.283
128839.58
128923.53
40651.33
24229.787
18484.691
2956.5043
2960.2033
18502.074
24250.289
40678.945
128990.14
129111.91
40720.917
24276.473
18522.576
2964.2467
2968.7017
18546.564
24305.505
40761.727
129215.76
129378.96
40818.122
24341.066
18574.416
2973.5121
2978.7216
18605.94
24379.816
40874.083
129526.84
129734.39
40945.933
24425.352
18641.502
2984.2436
2990.1096
18681.041
24474.516
41018.281
129930.67
130183.86
41106.161
24530.387
18724.521
2996.2191
3002.6077
18772.478
24590.655
41195.903
130429.81
130738.41
41302.589
24658.519
18825.162
3009.1633
3015.8847
18882.046
24730.572
41410.951
131038.92
131402.33
41536.551
24810.44
18943.774
3022.6692
3029.4973
19010.012
24894.99
41664.793
131761.09
132184.67
41810.768
24987.613
19081.257
3036.2573
3042.9075
19156.936
25084.881
41959.489
132604.71
133085.86
42125.201
25189.766
19237.141
3049.3154
3055.4694
19322.194
25299.876
42294.717
133566.62
134110.08
42482.028
25417.965
19411.951
3061.2677
3066.8011
19506.775
25541.767
42674.125
134652.93
135262.37
42886.61
25674.47
19606.477
3072.1448
3077.4823
19709.711
25811.414
43101.321
135858.27
136481.63
43326.074
25954.375
19818.122
3082.7024
3088.2677
19936.137
26103.74
43546.757
137043.98
137665.74
43795.635
26272.321
20067.601
3094.7912
3100.6178
20224.872
26470.85
44074.594
138322.78
139201.48
44460.422
26738.641
20432.025
3104.0782
3101.2881
20713.698
27127.781
45083.684
140531.37
143025.06
45953.641
27574.03
20996.444
3078.0521
3028.8532
21123.627
27845.631
46645.269
146720.83
150976.09
47237.144
28008.256
21021.887
3006.0552
3037.826
22159.461
29197.317
48925.159
152292.56
166013.41
51269.729
29684.276
21729.549
3345.8236
3173.1747
20773.08
28046.294
47698.406
152620.55
154977.49
47593.894
27658.345
20321.265
3224.7361
3280.1581
20704.813
27735.738
47106.081
150427.75
146196.21
46618.026
27654.184
20748.423
3360.0535
3399.9549
20538.178
27267.449
45745.231
143186.59
141521.62
45072.217
26875.927
20269.262
3407.8561
3404.5688
20058.359
26593.032
44646.19
140498.49
139768.64
44336.336
26378.637
19892.407
3396.7751
3388.0669
19756.778
26200.879
44069.493
139114.18
138507.99
43835.275
26044.695
19634.954
3380.408
3373.3237
19526.85
25898.866
43601.603
137853.22
137218.43
43377.827
25758.329
19422.27
3365.936
3359.0165
19324.279
25625.221
43161.032
136590.97
136016.91
42962.396
25499.129
19228.868
3351.6597
3344.2678
19140.233
25380.083
42769.979
135452.42
134945.38
42594.215
25267.635
19054.471
3336.432
3328.5647
18975.2
25161.808
42423.85
134446.74
134004.26
42269.579
25062.402
18898.798
3320.3822
3312.3524
18828.975
24969.637
42120.652
133570.19
133190.49
41987.419
24883.119
18761.922
3304.1665
3296.2364
18701.326
24802.948
41858.872
132816.93
132497.49
41745.854
24728.904
18643.438
3288.3194
3280.7757
18591.873
24660.928
41636.881
132181.61
131919.49
41543.228
24598.913
18542.919
3273.3555
3266.4471
18500.232
24542.792
41453.157
131659.26
131450.36
41377.723
24492.193
18459.842
3259.7015
3253.5288
18425.405
24446.953
41304.798
131239.82
131078.32
41245.661
24406.616
18392.764
3247.5477
3242.3371
18366.418
24371.976
41189.56
130918.08
130801.81
41146.109
24341.532
18341.272
3237.2471
3232.7854
18321.379
24315.29
41102.918
130677.02
130600.11
41072.698
24293.179
18302.618
3228.5474
3224.9761
18289.269
24275.486
41043.081
130516.08
130488.63
41028.76
24263.091
18277.799
3221.8209
3220.3982
18275.487
24260.126
41023.957
130487.27
131036.59
41216.945
24346.81
18305.383
3243.1042
3245.0971
18310.532
24351.082
41217.677
131017.36
131077.45
41238.765
24363.672
18320.395
3248.0728
3251.6628
18334.666
24380.444
41260.635
131126.13
131237.07
41298.194
24403.196
18352.254
3255.7019
3260.2128
18373.159
24428.77
41334.209
131328.13
131480.8
41385.91
24460.442
18397.549
3265.1304
3270.4838
18425.331
24494.994
41436.295
131615.1
131806.15
41501.614
24535.362
18456.275
3276.2076
3282.3678
18491.474
24579.808
41567.755
131985.94
132227.37
41650.142
24630.929
18530.605
3288.8661
3295.7436
18573.883
24686.089
41733.496
132458.58
132748.63
41832.751
24747.852
18620.954
3302.8785
3310.3465
18672.792
24814.496
41934.567
133034.23
133380.07
42052.795
24888.112
18728.66
3317.9965
3325.8903
18789.572
24967.081
42174.535
133724.47
134131.93
42313.384
25053.423
18854.812
3333.8543
3341.8839
18924.92
25145.07
42455.814
134537.86
135009.43
42615.973
25244.403
18999.598
3349.828
3357.658
19078.857
25348.77
42779.336
135478.31
136012.08
42960.458
25460.775
19162.547
3365.2305
3372.5752
19251.084
25578.26
43145.594
136544.84
137145.17
43349.686
25703.927
19344.422
3379.6321
3386.5962
19442.722
25835.275
43558.067
137739.62
138387.92
43784.329
25974.379
19545.07
3393.6537
3400.8658
19654.609
26119.338
44009.607
139001.17
139644.12
44254.9
26276.703
19773.408
3408.7004
3416.9901
19907.5
26451.599
44514.52
140285.37
141061.78
44824.566
26658.942
20065.176
3423.6997
3426.5936
20265.248
26927.664
45228.448
142016.87
143590.95
45856.941
27281.674
20503.205
3417.1015
3373.28
20651.464
27570.281
46506.592
146201.59
149654.83
46765.928
27569.478
20554.826
3287.5549
3246.8965
20803.478
27975.83
47496.547
151345.78
156524.66
48954.227
28748.951
21319.988
3233.8399
3336.4599
21499.592
29458.341
50963.075
165568.01
4220.4539
20269.791
28841.407
51258.52
169879.43
162345.09
51009.339
29664.128
21577.303
3431.9423
2993.7627
22718.675
30236.514
50846.14
158563.42
154445.01
48803.651
28914.252
21541.924
3165.5032
3176.1306
20743.795
28118.913
47994.263
154222.24
153343.01
47515.661
27805.204
20567.782
3225.2565
3293.5252
20781.132
27780.479
47008.051
149185.09
145498.65
46522.714
27638.55
20753.442
3371.94
3407.7566
20526.338
27241.692
45677.985
142837.22
141364.21
45034.483
26856.554
20257.606
3412.5926
3407.277
20050.401
26581.026
44626.202
140432.33
139741.61
44325.773
26371.567
19887.495
3398.2999
3389.1046
19753.694
26196.701
44063.448
139105.04
138503.07
43832.016
26042.438
19633.391
3381.133
3373.8102
19525.648
25897.035
43598.571
137845.45
137213.03
43375.714
25757.128
19421.59
3366.3625
3359.2122
19323.088
25623.581
43158.245
136581.52
136009.77
42959.878
25497.6
19227.799
3351.819
3344.3757
19139.088
25378.541
42767.533
135445.8
134940.47
42592.236
25266.377
19053.572
3336.5402
3328.6615
18974.392
25160.689
42422.095
134442.27
134001.98
42268.484
25061.679
18898.297
3320.5388
3312.4923
18828.521
24969.022
42119.731
133568.03
133189.53
41986.86
24882.748
18761.685
3304.3235
3296.383
18701.339
24802.891
41858.826
132817.53
132498.76
41746.118
24729.067
18643.613
3288.542
3280.9958
18592.122
24661.207
41637.344
132183.36
131921.22
41543.758
24599.265
18543.239
3273.5701
3266.6936
18500.734
24543.378
41454.104
131662.6
131454.52
41378.976
24492.989
18460.505
3259.9876
3253.84
18426.125
24447.853
41306.238
131244.45
131084.45
41247.563
24407.804
18393.719
3247.8943
3242.4982
18366.548
24372.139
41189.616
130916.58
130799.85
41145.633
24341.342
18341.197
3237.3828
3232.8657
18320.934
24314.671
41101.812
130673.15
130596.58
41071.533
24292.504
18302.161
3228.6252
3225.0158
18288.382
24274.334
41041.168
130509.76
130482.29
41026.69
24261.838
18276.896
3221.8296
3220.3616
18274.295
24258.616
41021.587
130480.06
128790.34
40596.268
24190.837
18451.75
2948.2919
2950.3245
18458.022
24196.725
40600.12
128782.35
128847.43
40622.767
24210.502
18468.905
2953.1594
2956.4965
18483.468
24227.37
40644.578
128895.77
129003.59
40681.465
24250.196
18501.388
2960.2003
2964.3208
18522.358
24275.344
40716.264
129090.68
129234.73
40765.882
24306.448
18546.718
2968.7709
2973.6317
18574.598
24340.505
40814.562
129361.86
129547.3
40878.579
24380.936
18606.215
2978.8045
2984.3418
18641.616
24424.669
40942.405
129719.18
129945.6
41021.143
24474.664
18680.562
2990.1071
2996.2632
18724.213
24529.155
41101.807
130166.15
130443.11
41198.022
24590.38
18771.765
3002.6417
3009.2685
18824.212
24656.521
41296.938
130715.78
131051.52
41413.066
24730.396
18881.451
3016.014
3022.8787
18943.223
24808.919
41531.681
131382.29
131775.68
41667.44
24895.134
19009.687
3029.721
3036.5235
19080.789
24986.11
41806.045
132166.79
132615.03
41960.735
25084.161
19155.922
3043.1062
3049.5586
19236.391
25187.889
42119.88
133066.55
133576.82
42295.706
25298.966
19321.037
3055.6781
3061.5801
19411.133
25415.955
42476.462
134090.22
134663.09
42674.913
25540.674
19505.547
3067.1172
3072.5934
19605.151
25671.504
42879.272
135238.3
135863.81
43099.422
25808.505
19707.258
3077.9922
3083.4615
19814.389
25948.39
43314.675
136451.63
137042.86
43538.239
26095.609
19929.549
3089.293
3096.6375
20057.834
26257.993
43771.577
137601.87
138236.69
44045.563
26451.247
20210.601
3104.0632
3110.1565
20414.34
26711.043
44407.15
138966.07
140183.65
45014.074
27091.923
20691.241
3109.825
3087.5778
20967.207
27512.128
45796.045
142396.06
145440.05
46459.849
27832.666
21164.768
3039.538
3014.3064
21335.86
28164.545
47153.143
149369.47
154899.73
48865.829
28988.176
21840.6
3054.7932
3368.3856
21523.147
29631.925
51350.476
166899.98
158029.89
49216.398
28829.599
21329.25
3256.9796
3263.1886
21175.209
28201.858
47434.973
148951.3
148768.37
46496.778
27462.403
20484.21
3302.7863
3386.1548
20605.237
27502.678
46414.425
145819.01
143351.44
45793.268
27244.149
20478.448
3427.1717
3433.9495
20251.276
26905.035
45187.73
141872.96
140974.19
44793.033
26640.479
20052.872
3428.0878
3419.7134
19899.774
26439.614
44494.291
140237.75
139602.43
44240.338
26268.083
19767.297
3410.399
3402.0161
19651.33
26113.786
43999.19
138966.58
138354.87
43774.781
25969.227
19541.51
3394.2951
3387.0804
19440.676
25832.073
43552.009
137721.76
137129.13
43344.564
25700.892
19341.942
3379.85
3372.7519
19250.381
25577.038
43143.174
136540.11
136003.06
42957.614
25459.14
19161.058
3365.2449
3357.7304
19079.002
25348.694
42778.719
135478.71
135004.33
42614.608
25243.733
18998.846
3349.8812
3342.0356
18925.633
25145.739
42456.313
134540.97
134127.48
42312.55
25053.138
18854.349
3333.8828
3325.8894
18789.679
24967.012
42173.652
133721.66
133368.53
42049.799
24886.562
18727.24
3317.8006
3310.0682
18671.627
24812.809
41931.063
133023.35
132730.7
41827.43
24744.778
18618.312
3302.3937
3295.2171
18571.874
24683.372
41728.556
132444.53
132208.66
41644.173
24627.32
18527.476
3288.1758
3281.715
18489.661
24577.379
41563.477
131975.42
131790.69
41496.606
24532.285
18453.487
3275.4473
3269.8006
18423.899
24493.116
41432.912
131607.19
131466.83
41381.526
24457.801
18395.096
3264.4256
3259.69
18372.76
24428.086
41332.677
131326.68
131227.04
41295.351
24401.603
18350.635
3255.1423
3251.2141
18334.414
24379.891
41259.008
131122.48
131059.75
41234.071
24361.161
18318.183
3247.5001
3244.4122
18307.612
24346.896
41209.505
130989.64
130976.66
41200.019
24337.377
18298.225
3241.9139
3242.7112
18306.644
24347.332
41214.604
131024.1
131033.23
41221.075
24351.359
18310.089
3244.6232
3247.6833
18321.075
24363.603
41235.62
131062.05
131142.56
41263.888
24380.576
18334.108
3251.1812
3255.2468
18352.265
24402.363
41293.935
131218.45
131341.65
41336.532
24428.373
18372.215
3259.6698
3264.6454
18397.198
24459.142
41380.906
131459.65
131625.49
41438.122
24494.419
18424.224
3269.9664
3275.7913
18456.462
24534.732
41497.785
131788.95
131998.66
41570.143
24579.589
18490.705
3281.9034
3288.4871
18530.588
24630.076
41646.051
132209.69
132468.65
41735.303
24685.59
18572.882
3295.3224
3302.5493
18621.021
24747.128
41828.883
132731.3
133044.87
41936.719
24814.28
18672.015
3309.9919
3317.7394
18729.011
24887.814
42049.64
133364.54
133737.92
42177.619
24967.481
18789.296
3325.5983
3333.6443
18855.522
25053.619
42311.069
134118.75
134554.36
42459.794
25145.989
18925.064
3341.6451
3349.655
19000.346
25244.66
42613.767
134996.57
135493.57
42783.135
25349.599
19078.927
3357.448
3365.0943
19163.315
25461.014
42958.136
135998.09
136559.09
43149.125
25578.921
19251.067
3372.4143
3379.6064
19344.898
25703.675
43346.451
137128.68
137749.15
43560.201
25835.075
19442.066
3386.633
3393.9969
19545.255
25973.481
43779.563
138364.53
138997.03
44010.037
26118.653
19653.963
3401.5169
3410.0794
19774.93
26276.816
44249.567
139598.38
140255.02
44516.598
26453.888
19909.81
3419.1871
3426.9846
20071.146
26663.597
44821.79
140981.02
141962.65
45237.868
26937.567
20274.271
3430.8107
3423.155
20523.716
27305.476
45877.396
143499.79
146217.55
46647.131
27628.443
20687.127
3381.3595
3293.0364
20558.026
27561.896
46747.886
149562.83
151488.09
47393.196
27880.943
20686.035
3246.9774
3233.0506
21531.969
28885.334
48910.523
154877.43
1593.2072
977.27164
1287.153
3037.0992
21725.372
28861.453
48714.038
154918.75
155299.68
48054.388
28066.624
20636.554
3180.8984
167423.95
51064.82
28940.748
20471.711
4230.9712
4730.7954
20828.576
29336.947
51428.695
166232.28
166772.84
51985.667
29588.379
20954.742
4751.2385
3699.589
20917.768
29038.118
50395.743
162586.46
2240.4166
1933.774
1063.1671
1288.6584
181.54737
191.25015
191.08431
181.54748
188.12998
190.10618
187.58199
183.95404
130515.47
41031.99
24263.04
18277.125
3221.6061
3223.1064
18281.279
24266.177
41030.794
130487.96
130550.76
41052.642
24279.286
18291.639
3226.0946
3229.6873
18305.703
24295.855
41074.183
130597.83
130710.3
41111.994
24318.838
18323.571
3233.7601
3238.2548
18344.065
24343.837
41147.066
130798.48
130947.35
41197.585
24374.945
18368.14
3243.1767
3248.5257
18395.375
24408.822
41246.658
131075.41
131269.36
41312.596
24449.763
18427.018
3254.3291
3260.5299
18461.844
24493.624
41377.501
131443.78
131684.77
41459.775
24544.957
18501.377
3267.1394
3274.0965
18544.515
24599.836
41542.241
131910.69
132204.1
41642.503
24662.508
18592.576
3281.3966
3288.9632
18644.523
24729.147
41743.87
132486.31
132834.34
41862.874
24803.563
18701.303
3296.7577
3304.7278
18762.373
24882.521
41984.149
133175.87
133582.69
42123.049
24969.274
18828.216
3312.7816
3320.8661
18898.505
25060.896
42264.89
133985.08
134455.96
42425.046
25160.651
18973.839
3328.8906
3336.7505
19053.323
25264.993
42587.756
134921.39
135454.2
42768.84
25377.447
19137.708
3344.3729
3351.7281
19226.726
25495.229
42953.842
135985.59
136588.18
43158.724
25621.814
19321.104
3358.8639
3365.8854
19419.95
25753.898
43368.226
137185.23
137840.8
43595.874
25893.673
19522.697
3372.927
3379.9376
19631.428
26038.01
43820.676
138457.32
139098.44
44062.406
26194.618
19751.361
3387.3081
3395.5761
19886.516
26370.268
44321.577
139725.04
140482
44637.252
26583.188
20049.18
3402.6725
3405.772
20257.271
26862.371
45054.734
141419.75
143055.07
45707.028
27228.137
20502.825
3395.5604
3350.6827
20645.591
27512.03
46373.694
145815.42
149384.79
46712.84
27563.859
20577.587
3272.7583
3221.389
20803.633
27905.858
47365.083
151246.88
155304.69
47947.296
27968.222
20561.41
3192.478
22785.797
30384.58
51215.225
159776.85
156115.37
51192.514
30639.599
23146.813
3033.5937
3500.1482
22282.872
30257.775
51337.25
157670.37
162067.27
50039.651
28852.138
20752.556
3725.2032
3190.0037
21376.122
28792.005
48665.662
154246.53
155533.17
48024.823
28012.485
20592.947
3195.7289
3224.4201
20825.182
27933.188
47406.393
151349.63
149459.25
46742.973
27585.364
20595.417
3275.1592
3353.6583
20662.492
27532.974
46403.535
145877.59
143097.31
45730.873
27245.57
20516.615
3398.5814
3409.1967
20272.134
26880.397
45079.45
141461.96
140509.53
44656.512
26597.498
20060.627
3405.7959
3398.4877
19897.822
26383.68
44339.884
139763.72
139130.96
44077.37
26205.109
19759.629
3389.6976
3382.0551
19640.23
26048.565
43836.076
138502.83
137882.53
43609.793
25902.644
19529.44
3374.7457
3367.6235
19427.621
25763.483
43382.964
137233.21
136629.03
43171.757
25630.155
19327.373
3360.428
3353.2892
19234.157
25504.4
42967.841
136032.07
135490.29
42780.658
25385.12
19143.478
3345.7115
3337.976
19059.242
25272.272
42598.471
134955.12
134478.56
42432.918
25165.972
18977.815
3329.8438
3321.7941
18903.417
25066.805
42273.5
134013.29
133601.77
42129.739
24973.788
18831.539
3313.5946
3305.5948
18766.584
24887.581
41991.399
133199.28
132849.15
41868.256
24807.272
18704.004
3297.5023
3289.7634
18648.454
24733.788
41750.445
132508.08
132216.8
41647.273
24665.844
18594.978
3282.0591
3274.7317
18547.673
24603.508
41547.144
131926.24
131688.61
41461.944
24546.77
18502.612
3267.5064
3260.8751
18463.968
24495.954
41380.256
131453.12
131269.07
41313.209
24450.534
18427.389
3254.4412
3248.7276
18397.157
24410.762
41248.938
131084.29
130946.49
41198.002
24375.543
18368.321
3243.1701
3238.2075
18344.738
24344.435
41147.049
130798.34
130699.01
41109.244
24317.537
18322.295
3233.4735
3229.385
18304.97
24294.556
41071.026
130588.13
130525.17
41045.634
24275.48
18288.517
3225.5179
3222.3476
18277.416
24260.583
41020.238
130452.84
130427.2
41007.586
24249.478
18267.01
3219.4035
3217.6044
18263.295
24244.433
40998.492
130406.99
3242.8596
18302.501
24341.829
41205.052
130989.16
131023.19
41218.098
24349.689
18308.971
3245.0521
3248.1619
18319.982
24362.226
41233.104
131050.75
131145.6
41265.001
24381.369
18334.835
3251.7612
3255.8322
18352.506
24402.738
41294.385
131217.39
131350.2
41339.14
24429.984
18373.515
3260.3059
3265.227
18397.575
24459.751
41381.912
131461.25
131634.17
41440.445
24495.746
18425.261
3270.5453
3276.2873
18456.233
24534.596
41497.653
131787.72
132002.21
41570.833
24579.94
18491.025
3282.389
3288.8842
18529.772
24629.085
41644.394
132203.26
132467.69
41734.84
24685.355
18572.804
3295.7663
3303.0487
18620.193
24746.069
41827.032
132723.72
133043.79
41936.299
24814.098
18672.011
3310.5591
3318.3194
18728.15
24886.667
42047.57
133355.66
133735.72
42177.008
24967.21
18789.25
3326.2353
3334.2523
18854.494
25052.186
42308.483
134108.24
134548.26
42458.039
25145.058
18924.546
3342.2745
3350.2493
18998.838
25242.549
42610.015
134982.13
135483.99
42780.317
25348.041
19077.961
3358.0772
3365.7182
19161.407
25458.345
42953.486
135981.09
136546.57
43145.274
25576.69
19249.606
3373.0809
3380.236
19342.251
25700.027
43340.27
137106.71
137729.54
43553.809
25831.377
19439.582
3387.2424
3394.5022
19541.618
25968.221
43770.608
138336.99
138984.28
44001.561
26112.798
19649.604
3401.9403
3410.2086
19766.451
26266.032
44235.26
139590.6
140261.43
44496.104
26437.541
19897.15
3419.2596
3427.7182
20050.875
26637.039
44786.354
140961.68
141889.19
45186.653
26900.793
20246.888
3433.3854
3426.6513
20474.126
27237.586
45781.39
143320.28
145813.35
46406.534
27494.142
20597.534
3385.2018
3301.7215
20477.106
27452.299
46478.611
148712.18
148912.41
47420.214
28190.205
21165.158
3261.2367
3254.2271
21322.496
28820.216
49199.18
157963.95
166689.99
51319.929
29596.221
21491.005
3364.2503
3052.4621
21826.222
28972.564
48843.311
154843.43
154149.49
47957.23
28090.468
20718.715
3172.7566
3170.4761
20766.393
28032.297
47663.287
152470.1
152187.35
48915.282
29191.14
22157.76
3041.3072
3237.1508
21536.508
28889.078
48921.627
154891.41
156654.86
49000.769
28771.093
21336.495
3239.4836
3041.7339
21743.392
28886.274
48763.763
155069.64
155524.99
48133.76
28113.387
20671.781
3187.2595
3219.1858
20942.484
28008.127
47407.421
150552.09
149100.3
46669.133
27564.746
20590.077
3268.9262
3348.8608
20648.898
27514.4
46370.867
145808.89
143095.11
45737.747
27247.9
20516.426
3395.8849
3407.1408
20274.659
26885.588
45089.603
141481.82
140537.17
44667.944
26603.831
20064.527
3404.3891
3397.498
19901.476
26389.369
44349.756
139787.72
139151.86
44085.365
26209.893
19762.897
3389.1174
3381.6927
19642.485
26051.923
43841.603
138517.12
137892.96
43613.749
25905.18
19531.303
3374.5377
3367.4697
19428.559
25764.86
43385.069
137238.09
136632.36
43173.021
25631.011
19328.012
3360.336
3353.1939
19234.372
25504.757
42968.384
136033.29
135491.17
42780.989
25385.361
19143.669
3345.6798
3338.0055
19059.641
25272.8
42599.389
134958.45
134483.04
42434.289
25166.814
18978.476
3329.9981
3321.9771
18903.967
25067.564
42274.741
134016.94
133606.18
42131.18
24974.709
18832.275
3313.7929
3305.6775
18766.512
24887.596
41991.332
133197.81
132847.32
41867.773
24807.045
18703.863
3297.5026
3289.6416
18647.155
24732.265
41747.909
132498.57
132207.57
41644.295
24664.042
18593.623
3281.8567
3274.5051
18546.056
24601.5
41544.01
131916.75
131681.91
41459.476
24545.159
18501.367
3267.3312
3260.6828
18462.966
24494.68
41378.358
131448.01
131266.09
41312.007
24449.713
18426.757
3254.3885
3248.5562
18395.903
24409.252
41246.546
131076.18
130938.69
41195.43
24373.942
18367.106
3242.9816
3238.0181
18343.45
24342.862
41144.687
130791.68
130693.9
41107.32
24316.269
18321.31
3233.3016
3229.3124
18304.35
24293.863
41070.201
130586.95
130525.9
41045.571
24275.329
18288.373
3225.4837
3222.2434
18276.688
24259.801
41019.052
130448.6
130424.31
41006.451
24248.725
18266.413
3219.3009
3217.3655
18262.064
24242.989
40996.261
130399.91
3221.4616
18278.554
24264.04
41030.549
130504.93
130512.57
41036.621
24267.961
18282.022
3222.93
3225.9656
18292.728
24279.805
41050.383
130537.27
130621.28
41079.629
24297.497
18306.429
3229.5409
3233.6742
18324.469
24319.106
41109.326
130695.22
130820.75
41152.412
24345.501
18344.812
3238.1794
3243.1331
18369.374
24375.672
41195.672
130934.36
131100.22
41252.833
24411.092
18396.653
3248.4824
3254.3262
18428.593
24450.973
41311.526
131258.89
131471.67
41384.696
24496.524
18463.585
3260.5192
3267.135
18503.297
24546.643
41459.732
131678.91
131938.31
41549.112
24602.465
18546.002
3274.0064
3281.2661
18594.003
24663.637
41641.81
132197.29
132509.75
41749.35
24730.887
18645.27
3288.7021
3296.4676
18702.084
24803.905
41861.089
132825.07
133194.86
41988.102
24883.309
18762.369
3304.3486
3312.3922
18828.332
24968.835
42119.983
133568.83
134003.87
42268.675
25061.609
18898.492
3320.4407
3328.475
18973.92
25160.185
42421.838
134441.25
134941.79
42592.339
25266.26
19053.714
3336.3311
3344.0005
19138.746
25378.199
42767.586
135446.06
136012.08
42960.2
25497.508
19227.871
3351.3251
3358.4249
19322.651
25623.219
43158.558
136583.57
137210.99
43374.794
25756.372
19421.183
3365.2787
3372.2214
19525.104
25896.113
43596.829
137836.87
138491.61
43830.737
26042.671
19634.332
3378.9938
3386.125
19755.291
26199.621
44067.89
139104.79
139777.25
44337.124
26377.437
19890.569
3393.8511
3400.2272
20053.223
26589.461
44646.573
140502.97
141481.8
45072.324
26868.831
20259.614
3402.349
3391.0576
20500.196
27227.353
45708.369
143050.56
145784.97
46343.235
27490.412
20627.998
3343.9557
3264.9638
20566.719
27536.872
46630.274
149012.2
150419.29
47354.375
27971.849
20912.49
3214.4489
2997.2279
21403.074
28153.225
47001.075
148293.28
145273.06
46055.375
27611.407
21026.112
3004.21
3058.3185
20865.547
27385.082
45607.882
142536.83
140457.61
45002.051
27056.45
20652.001
3088.5673
3096.06
20413.447
26721.329
44447.924
139194.62
138384.84
44085.29
26469.216
20218.771
3094.5797
3090.4572
20067.706
26274.435
43800.809
137693.45
137084.8
43555.309
26106.332
19935.969
3085.1046
3080.3898
19819.696
25955.712
43324.904
136478.51
135877.99
43105.104
25812.461
19709.583
3075.7151
3070.8409
19607.252
25674.758
42883.94
135253.47
134672.02
42677.839
25542.479
19506.178
3065.6862
3060.4781
19412.502
25418.161
42479.684
134102.51
133582.2
42297.43
25300.086
19321.29
3054.6902
3048.6652
19237.182
25189.248
42121.613
133073.55
132616.44
41961.201
25084.525
19155.64
3042.2141
3035.6784
19081.252
24986.991
41807.033
132171.82
131777.13
41667.747
24895.376
19009.335
3028.9114
3022.2098
18944.64
24810.927
41534.592
131394.64
131060.6
41415.904
24732.201
18882.311
3015.4204
3008.9449
18827.185
24660.486
41302.913
130737.39
130460.32
41203.779
24594.126
18774.196
3002.4489
2996.2907
18728.103
24534.284
41109.376
130190.98
129965.62
41028.075
24479.27
18683.718
2990.1964
2984.5063
18645.726
24430.008
40950.072
129742.92
129563.8
40884.725
24385.172
18609.135
2978.9229
2973.8066
18579.093
24346.141
40822.626
129387.73
129253.6
40772.794
24311.17
18550.031
2968.9723
2964.5308
18526.624
24280.743
40723.852
129113.84
129018.68
40687.287
24254.286
18504.211
2960.3253
2956.6243
18487.457
24232.422
40651.665
128918.1
128865.51
40629.202
24214.85
18471.848
2953.2715
2950.6111
18463.091
24203.373
40610.166
128815.92
128834.99
40610.022
24199.289
18457.62
2949.1068
2949.421
18458.524
24198.696
40606.087
128816.45
128829.29
40613.619
24203.527
18462.666
2950.858
2953.6339
18473.478
24215.362
40627.37
128854.5
128935.44
40655.895
24232.912
18487.192
2956.8669
2960.5839
18505.18
24254.161
40684.67
129006.01
129128.32
40726.941
24280.485
18525.742
2964.6187
2969.0594
18550.159
24309.963
40768.611
129237.27
129393.5
40823.168
24344.339
18576.963
2973.7643
2978.9321
18608.497
24382.989
40879.083
129543.29
129742.39
40948.63
24427.105
18642.857
2984.3729
2990.213
18682.306
24476.108
41020.614
129937.31
130188.96
41108.121
24531.756
18725.61
2996.304
3002.7084
18773.777
24592.164
41198.065
130436.55
130740.43
41303.613
24659.315
18825.832
3009.2637
3016.0136
18882.963
24731.551
41412.274
131043.21
131400.51
41536.356
24810.494
18943.893
3022.7837
3029.6237
19010.345
24895.233
41664.917
131761.3
132180.34
41809.716
24987.107
19080.94
3036.3631
3042.9959
19156.664
25084.327
41958.387
132601.39
133076.68
42122.571
25188.246
19236.033
3049.3089
3055.4183
19321.113
25298.278
42292.003
133558.74
134095.97
42477.563
25415.227
19409.88
3061.1013
3066.6022
19504.613
25538.748
42669.311
134640.31
135239.92
42878.696
25669.61
19602.888
3071.8535
3077.1805
19705.798
25805.931
43092.392
135835.56
136451.52
43314.707
25947.295
19812.875
3082.4284
3088.1343
19930.542
26096.139
43534.858
137011.12
137607.97
43781.868
26263.218
20060.539
3094.9201
3101.514
20217.278
26460.855
44059.194
138231.47
139037.83
44434.618
26723.529
20420.953
3106.1963
3103.9866
20692.115
27093.573
45018.359
140306.79
142671.96
45791.684
27518.131
20971.752
3082.3149
3039.1708
21190.364
27902.724
46661.587
146282.8
151024.27
47298.005
28100.704
21172.94
3016.8042
3058.3114
21739.549
28882.089
48729.883
154843.93
165396.93
51065.815