/*--------------------------------*- C++ -*----------------------------------*\
  =========                 |
  \\      /  F ield         | OpenFOAM: The Open Source CFD Toolbox
   \\    /   O peration     | Website:  https://openfoam.org
    \\  /    A nd           | Version:  7
     \\/     M anipulation  |
\*---------------------------------------------------------------------------*/
FoamFile
{
    version     2.0;
    format      ascii;
    class       volScalarField;
    location    "80";
    object      T;
}
// * * * * * * * * * * * * * * * * * * * * * * * * * * * * * * * * * * * * * //

dimensions      [0 0 0 1 0 0 0];

internalField   nonuniform List<scalar> 
24789
(
300.10051
300.09694
300.09505
300.0942
300.09001
300.09904
300.10511
300.1063
300.10846
300.11228
300.12383
300.11981
300.11737
300.11579
300.10741
300.11499
300.12595
300.12797
300.1307
300.13486
300.14483
300.14067
300.1377
300.13521
300.12146
300.12643
300.14313
300.14611
300.14931
300.15336
300.15984
300.15601
300.15265
300.14915
300.12935
300.1302
300.15296
300.15693
300.16041
300.16389
300.16523
300.16219
300.15868
300.1543
300.12904
300.12561
300.15287
300.15756
300.16097
300.1633
300.15758
300.15607
300.15286
300.14787
300.11866
300.10771
300.13865
300.14389
300.14682
300.14728
300.13252
300.13311
300.1306
300.1253
300.09382
300.07705
300.1079
300.11304
300.11498
300.11312
300.08957
300.09264
300.09138
300.08655
300.05726
300.03478
300.06136
300.06566
300.06611
300.06162
300.03022
300.03599
300.03645
300.03282
300.00994
299.98325
300.00114
300.00386
300.00237
299.99513
299.95798
299.96642
299.96898
299.96729
299.95526
299.92684
299.93203
299.93248
299.92877
299.91899
299.8798
299.89068
299.89555
299.89642
299.89876
299.87211
299.86167
299.85934
299.8533
299.84127
299.80592
299.81868
299.82575
299.82949
299.84797
299.82775
299.80226
299.79731
299.78966
299.77697
299.76063
299.77112
299.77827
299.78367
299.81265
299.80387
299.77862
299.77424
299.76972
299.76528
299.80028
299.79337
299.79189
299.79268
299.80154
299.80398
299.82943
299.83556
299.84652
299.86949
299.96483
299.92392
299.90126
299.88576
299.81182
299.82037
299.95065
299.97628
300.0096
300.06298
300.12594
300.07487
300.03494
300.00071
299.81782
299.80922
300.00967
300.04787
300.09185
300.14378
300.04944
300.01091
299.98017
299.95272
299.8156
299.7073
299.88324
299.91514
299.9509
299.99959
300.07108
300.03216
299.99891
299.9665
299.77135
299.76569
299.89133
299.9107
299.9302
299.95201
299.89688
299.86279
299.83893
299.81882
299.70633
299.77537
300.01195
300.04372
300.07755
300.13014
300.07409
300.03178
299.9977
299.96788
299.76173
299.72724
300.00609
300.0507
300.10045
300.16638
300.09659
300.04349
300.00595
299.97535
299.80816
299.81027
300.03421
300.07012
300.11086
300.15785
300.1239
300.07674
300.04076
300.00975
299.81461
299.8166
299.95634
299.97977
300.01021
300.0583
299.96134
299.92369
299.90275
299.88857
299.80946
299.8033
299.8292
299.83471
299.84505
299.86684
299.79443
299.78718
299.78581
299.7871
299.80125
299.80422
299.77114
299.76613
299.76068
299.75385
299.75378
299.76295
299.77026
299.77606
299.81344
299.82903
299.7947
299.78916
299.78091
299.76758
299.7966
299.81036
299.81821
299.82263
299.84949
299.87392
299.85641
299.85333
299.84631
299.83294
299.87381
299.88599
299.8917
299.89317
299.9007
299.92889
299.93098
299.93088
299.92628
299.91514
299.95693
299.96649
299.96966
299.9683
299.95734
299.98529
300.00403
300.00647
300.00435
299.99604
300.03336
300.03989
300.04066
300.0371
300.01187
300.03666
300.06685
300.07107
300.07115
300.06594
300.09536
300.09884
300.09766
300.09275
300.05895
300.07859
300.11459
300.11975
300.12154
300.11931
300.13938
300.14009
300.1375
300.13206
300.09509
300.10877
300.14533
300.15065
300.15358
300.15392
300.16443
300.16275
300.15934
300.15415
300.11939
300.12603
300.15866
300.16349
300.16703
300.16961
300.17068
300.16774
300.16411
300.15956
300.12928
300.13036
300.15774
300.16184
300.16547
300.16919
300.16463
300.16049
300.15691
300.15327
300.12935
300.12614
300.14657
300.14968
300.15307
300.15739
300.1483
300.14385
300.14067
300.13805
300.12106
300.11453
300.12825
300.1304
300.13331
300.13773
300.12625
300.12195
300.11933
300.11763
300.10691
300.09852
300.10649
300.10779
300.11011
300.11417
300.10227
300.09846
300.0964
300.09544
300.08961
300.09675
300.10459
300.10586
300.10812
300.11208
300.12399
300.11986
300.11732
300.11568
300.10531
300.11287
300.12617
300.12825
300.13107
300.13536
300.14563
300.14133
300.13827
300.13573
300.11927
300.12422
300.14403
300.14706
300.15035
300.15455
300.16145
300.15746
300.15401
300.15049
300.12729
300.1282
300.15473
300.15872
300.16226
300.16587
300.16704
300.16423
300.16075
300.15637
300.12701
300.1237
300.15526
300.15996
300.16343
300.166
300.16023
300.15872
300.15552
300.15053
300.1169
300.10618
300.14153
300.1467
300.14955
300.14988
300.13496
300.13575
300.13338
300.12817
300.09257
300.07609
300.11066
300.11566
300.11739
300.1152
300.09093
300.09447
300.09351
300.08886
300.05653
300.03432
300.06305
300.0671
300.06713
300.062
300.02913
300.03571
300.0367
300.0334
300.00964
299.98312
300.00045
300.00272
300.00057
299.99235
299.95305
299.96266
299.96602
299.96489
299.95518
299.92683
299.9278
299.92756
299.92293
299.91185
299.87046
299.88265
299.8885
299.89014
299.89859
299.87182
299.85368
299.85052
299.84351
299.83023
299.79388
299.80764
299.81554
299.82003
299.84724
299.82664
299.79233
299.78683
299.77865
299.76542
299.75214
299.76091
299.76809
299.7738
299.81068
299.80118
299.76929
299.76451
299.75936
299.75299
299.7971
299.78809
299.78579
299.7865
299.79774
299.79945
299.83098
299.83751
299.84924
299.87349
299.96803
299.92829
299.90594
299.8906
299.80472
299.81222
299.95418
299.97776
300.00793
300.05544
300.09293
300.05543
300.02393
299.99527
299.80935
299.79601
299.99608
300.02651
300.05808
300.08477
300.01571
299.97277
299.94049
299.91535
299.78847
299.71888
299.95387
299.99074
300.02785
300.08049
299.82406
299.78967
299.77155
299.76111
299.6722
299.84622
300.16912
300.21267
300.26075
300.32668
299.81056
299.78337
299.76737
299.75377
299.70446
299.83682
300.10018
300.14682
300.20201
300.28016
299.78466
299.75599
299.74488
299.74102
299.69143
299.73038
299.90364
299.93481
299.96528
300.0033
300.01268
299.96872
299.9375
299.91305
299.80498
299.80535
299.99269
300.02621
300.06281
300.10125
300.09501
300.05334
300.01852
299.98772
299.81743
299.81726
299.9434
299.96775
299.99929
300.04982
299.95567
299.91549
299.89346
299.87855
299.80685
299.79963
299.82189
299.82746
299.83798
299.86066
299.7877
299.78103
299.7802
299.78186
299.79644
299.79935
299.77127
299.76631
299.76058
299.75325
299.75494
299.76502
299.77234
299.7779
299.80863
299.82471
299.79726
299.7921
299.78413
299.77089
299.80037
299.81363
299.821
299.82497
299.84554
299.8705
299.85798
299.85533
299.84885
299.83616
299.8757
299.8872
299.89242
299.89354
299.8977
299.92641
299.93005
299.9302
299.92602
299.9155
299.95561
299.96465
299.96752
299.96602
299.95517
299.98351
300.00055
300.00302
300.00112
299.99322
300.02914
300.0354
300.03609
300.03259
300.01036
300.03535
300.06157
300.06568
300.06579
300.06077
300.08929
300.09271
300.0916
300.08686
300.0578
300.07755
300.10831
300.11327
300.11497
300.11273
300.13241
300.13322
300.1308
300.12559
300.09418
300.10786
300.13883
300.14392
300.14666
300.14686
300.15726
300.1559
300.15275
300.14783
300.11857
300.1254
300.1527
300.15728
300.16056
300.16272
300.16467
300.16172
300.15827
300.15395
300.12865
300.12982
300.15247
300.15633
300.1597
300.16307
300.15891
300.15513
300.15182
300.14841
300.12876
300.12553
300.14216
300.14506
300.14818
300.15217
300.14357
300.13945
300.13652
300.1341
300.12043
300.11389
300.12477
300.12672
300.1294
300.1335
300.12242
300.11843
300.11603
300.11451
300.10619
300.09749
300.10359
300.10475
300.10689
300.1107
300.11012
300.10638
300.10427
300.10312
300.09711
300.1056
300.11374
300.11528
300.11765
300.12157
300.13236
300.12833
300.12569
300.12373
300.11307
300.11939
300.1328
300.13522
300.13813
300.14218
300.15047
300.14653
300.14343
300.14052
300.12423
300.12703
300.14638
300.14979
300.15307
300.15679
300.16069
300.1573
300.15391
300.15003
300.1278
300.12659
300.15128
300.15554
300.15895
300.16184
300.1599
300.15763
300.15432
300.14974
300.12309
300.11606
300.14465
300.14951
300.15262
300.15399
300.14376
300.14335
300.14053
300.13541
300.10511
300.09131
300.12207
300.1272
300.1296
300.12885
300.10972
300.11159
300.10975
300.10473
300.07457
300.0549
300.08348
300.08814
300.08929
300.08606
300.05857
300.06302
300.06266
300.05845
300.03251
300.00778
300.03002
300.03351
300.03295
300.02704
299.99266
299.99978
300.00131
299.99864
299.9812
299.95338
299.96504
299.96664
299.96406
299.95556
299.91721
299.92683
299.93052
299.93007
299.92505
299.89705
299.89468
299.89378
299.88894
299.87808
299.84001
299.85187
299.85783
299.8601
299.87038
299.84617
299.82794
299.82425
299.81727
299.80459
299.77596
299.78843
299.79595
299.80077
299.82576
299.81035
299.78191
299.77663
299.76962
299.75945
299.76258
299.76736
299.77195
299.77628
299.80113
299.79837
299.78889
299.78815
299.78978
299.79707
299.86493
299.84239
299.83157
299.82548
299.80036
299.80753
299.87858
299.89355
299.9153
299.95435
300.04159
299.99247
299.96148
299.9375
299.81573
299.81252
299.97856
300.00968
300.0458
300.09161
300.09402
300.05178
300.01404
299.98033
299.80014
299.80508
299.92665
299.95287
299.98505
300.03001
299.99535
299.94905
299.915
299.88385
299.70457
299.72582
299.8823
299.91017
299.94306
299.98909
300.12612
300.08339
300.05057
300.02147
299.82146
299.70317
299.78591
299.80099
299.82
299.85867
299.75555
299.76842
299.77225
299.77651
299.77968
299.98371
299.93868
299.90109
299.8714
299.75208
299.82306
300.03654
300.06562
300.09302
300.12042
300.21783
300.16102
300.11377
300.0706
299.82141
299.80991
300.0458
300.08713
300.13619
300.2078
299.93279
299.89039
299.86433
299.84435
299.72586
299.73479
299.92195
299.95492
299.99076
300.04071
300.01841
299.97672
299.94663
299.92231
299.81051
299.81188
299.99129
300.02312
300.05732
300.09078
300.09143
300.04797
300.01414
299.98455
299.82093
299.81945
299.93917
299.96225
299.99227
300.04032
299.94682
299.90931
299.88883
299.87508
299.80887
299.80119
299.81998
299.82478
299.8342
299.85488
299.78553
299.78002
299.7798
299.78182
299.79785
299.80053
299.77213
299.76708
299.76117
299.75331
299.75594
299.76613
299.77347
299.77901
299.80969
299.82555
299.79832
299.79322
299.78535
299.77235
299.80166
299.81476
299.82205
299.82597
299.84626
299.8711
299.85882
299.85622
299.84979
299.83719
299.87664
299.88809
299.89326
299.89434
299.89825
299.92689
299.93079
299.93098
299.92685
299.91639
299.95649
299.96549
299.96831
299.96678
299.95569
299.98402
300.00128
300.0038
300.00193
299.99409
300.03
300.03623
300.03688
300.03334
300.01089
300.03588
300.06232
300.06646
300.0666
300.06161
300.09018
300.09356
300.09241
300.08764
300.05836
300.0781
300.10905
300.11406
300.11579
300.11359
300.13326
300.13403
300.13158
300.12633
300.09472
300.10842
300.13955
300.14467
300.14744
300.14767
300.15806
300.15666
300.15349
300.14854
300.11914
300.12593
300.15334
300.15795
300.16125
300.16344
300.16536
300.16239
300.15891
300.15458
300.12917
300.13027
300.15303
300.15692
300.16032
300.16373
300.15953
300.15571
300.15238
300.14895
300.12919
300.12592
300.14266
300.14558
300.14873
300.15275
300.1441
300.13995
300.137
300.13456
300.1208
300.11423
300.12519
300.12716
300.12986
300.134
300.12288
300.11886
300.11644
300.1149
300.10651
300.09777
300.10396
300.10513
300.10729
300.11114
300.11323
300.10924
300.10695
300.10567
300.09773
300.10626
300.11677
300.11844
300.12102
300.12524
300.13666
300.13232
300.12946
300.12735
300.11387
300.12035
300.13706
300.13965
300.14277
300.14715
300.15614
300.15186
300.14853
300.14545
300.12537
300.12852
300.15205
300.15563
300.15914
300.16321
300.16775
300.16403
300.16043
300.15638
300.12949
300.12838
300.15814
300.16258
300.16613
300.16898
300.1681
300.1654
300.16187
300.15708
300.12509
300.11839
300.15249
300.15753
300.16081
300.16235
300.15222
300.15172
300.14879
300.1435
300.10763
300.09401
300.13027
300.13554
300.13799
300.13722
300.11769
300.11968
300.11785
300.11272
300.07746
300.05793
300.09098
300.09572
300.09678
300.09326
300.06455
300.06947
300.06932
300.06512
300.03563
300.01099
300.03551
300.03889
300.03799
300.03142
299.99494
300.00293
300.00496
300.00252
299.98438
299.95652
299.96707
299.96828
299.96502
299.95546
299.91461
299.92539
299.92985
299.92991
299.92808
299.90003
299.89253
299.89099
299.88528
299.8732
299.8334
299.84635
299.85317
299.85613
299.87329
299.84914
299.82298
299.81863
299.8109
299.79734
299.76969
299.78256
299.79049
299.79576
299.82875
299.81358
299.77846
299.773
299.76617
299.75695
299.76283
299.76682
299.77107
299.7753
299.80443
299.80196
299.79369
299.79336
299.79575
299.8044
299.87932
299.85515
299.84331
299.83664
299.80397
299.8108
299.89854
299.91428
299.93723
299.97812
300.07365
300.02357
299.99178
299.96697
299.81799
299.81632
300.01566
300.04677
300.08143
300.1236
300.13167
300.09377
300.05633
300.02208
299.8056
299.80176
299.94675
299.97298
300.00402
300.04517
300.10561
300.04686
300.00463
299.96638
299.72158
299.73247
299.89044
299.91601
299.9485
300.00267
300.16255
300.11389
300.07692
300.04198
299.78336
299.72182
299.80137
299.81387
299.83537
299.88023
299.90371
299.88974
299.87604
299.86094
299.76325
299.77143
299.98966
300.02722
300.06706
300.11613
299.97764
299.9313
299.896
299.86526
299.69484
299.81144
299.95544
299.98338
300.01338
300.04808
300.14383
300.08745
300.04227
300.00415
299.80582
299.81758
299.99958
300.0337
300.07316
300.12249
300.06276
300.01072
299.97772
299.95207
299.82096
299.81243
299.88795
299.90379
299.92675
299.96787
299.87363
299.85007
299.83864
299.8321
299.80443
299.80191
299.7934
299.79285
299.79488
299.8029
299.76674
299.77166
299.77619
299.78037
299.80409
299.81279
299.78536
299.78024
299.7734
299.76362
299.77923
299.79138
299.79871
299.80339
299.82771
299.84781
299.83001
299.82637
299.81944
299.80685
299.84187
299.85369
299.85958
299.86178
299.87179
299.8984
299.8963
299.8954
299.89048
299.87945
299.9189
299.92862
299.93226
299.93174
299.9264
299.95483
299.96694
299.96855
299.96586
299.95712
299.99482
300.00205
300.0035
300.00072
299.98274
300.0094
300.0323
300.03586
300.03524
300.02914
300.06115
300.06567
300.0652
300.06084
300.03419
300.05666
300.08602
300.09078
300.0919
300.08852
300.11259
300.11448
300.11251
300.10733
300.07643
300.09325
300.12475
300.12998
300.13236
300.1315
300.14671
300.14629
300.14336
300.1381
300.10713
300.11814
300.14736
300.1523
300.15541
300.1567
300.16276
300.16047
300.15707
300.15236
300.12515
300.12864
300.15387
300.15821
300.16163
300.16451
300.16343
300.15998
300.1565
300.15253
300.12983
300.12901
300.14879
300.15225
300.15556
300.1593
300.15296
300.14894
300.14576
300.14279
300.12614
300.1212
300.13491
300.13738
300.14034
300.14446
300.13453
300.13039
300.12768
300.12567
300.11476
300.10721
300.11552
300.11709
300.11953
300.12355
300.11205
300.10819
300.10604
300.10486
300.09877
300.0973
300.10324
300.1044
300.10651
300.11026
300.12173
300.11782
300.11544
300.11392
300.10579
300.11327
300.12392
300.12588
300.12853
300.13257
300.14235
300.1383
300.1354
300.13298
300.11959
300.12441
300.14073
300.14363
300.14674
300.15067
300.15698
300.15325
300.14997
300.14656
300.1272
300.12796
300.15025
300.15412
300.1575
300.16087
300.16205
300.15912
300.15571
300.15142
300.12672
300.12319
300.14994
300.15451
300.15779
300.15998
300.15411
300.1527
300.14961
300.14472
300.11611
300.10514
300.13555
300.14063
300.14343
300.14374
300.12888
300.12957
300.12718
300.12202
300.09129
300.07453
300.10476
300.10974
300.11154
300.10953
300.08596
300.08912
300.08798
300.08329
300.05479
300.03239
300.05834
300.06249
300.06279
300.05816
300.02677
300.03262
300.03319
300.02969
300.00759
299.981
299.99836
300.00095
299.99934
299.99201
299.95495
299.96346
299.96611
299.96453
299.95312
299.92478
299.92954
299.92988
299.92608
299.91622
299.87713
299.88805
299.89297
299.89392
299.89669
299.86998
299.85931
299.85692
299.85082
299.83872
299.80309
299.81599
299.82313
299.82692
299.84566
299.8252
299.79941
299.79439
299.78658
299.77354
299.75619
299.76681
299.77423
299.7798
299.80962
299.80031
299.77282
299.76787
299.76226
299.75557
299.78797
299.78195
299.78131
299.78302
299.79732
299.79924
299.8196
299.82471
299.8343
299.85498
299.94046
299.90441
299.88447
299.87085
299.80596
299.81407
299.92653
299.94856
299.97701
300.02243
300.06607
300.02486
299.99257
299.96429
299.81076
299.79631
299.96153
299.99223
300.0264
300.06116
299.98865
299.94589
299.91688
299.8944
299.79519
299.70839
299.88399
299.91387
299.94381
299.98222
299.87714
299.83978
299.81479
299.79566
299.67545
299.85134
300.11529
300.15477
300.19628
300.2426
299.73534
299.70209
299.70776
299.79016
299.98305
300.00738
300.03079
300.05931
300.07537
300.00585
299.96467
299.93263
299.75135
299.91452
299.88775
299.87158
299.85959
299.79925
299.85581
299.9487
299.97761
300.01089
300.05621
300.2973
300.22807
300.16923
300.1164
299.92628
299.82205
300.03728
300.08694
300.14487
300.22522
299.77437
299.73681
299.72187
299.74136
299.99247
299.99611
299.98364
299.99246
299.99209
299.98423
299.98446
299.99063
300.10952
300.10579
300.10369
300.10256
300.09651
300.10516
300.11337
300.11488
300.11725
300.12117
300.13209
300.12806
300.12543
300.1235
300.11278
300.11926
300.13274
300.13513
300.13802
300.14209
300.15061
300.14665
300.14357
300.14071
300.12432
300.12753
300.14686
300.15021
300.15346
300.1572
300.16143
300.15803
300.15467
300.15086
300.12856
300.12745
300.15229
300.15652
300.15991
300.16281
300.16112
300.15887
300.15559
300.15106
300.12421
300.11746
300.14619
300.15101
300.1541
300.15546
300.14549
300.1451
300.14233
300.13727
300.1068
300.09329
300.12414
300.12922
300.13158
300.13079
300.1118
300.11377
300.11202
300.10707
300.07678
300.05723
300.08578
300.09038
300.09144
300.08807
300.06042
300.06511
300.0649
300.06078
300.03493
300.0102
300.03205
300.03542
300.03469
300.02848
299.99355
300.00106
300.00284
300.00033
299.98351
299.95552
299.96615
299.96756
299.96467
299.9557
299.91647
299.92665
299.9307
299.9305
299.92689
299.89853
299.89429
299.89311
299.88789
299.87644
299.83764
299.85005
299.85642
299.859
299.8714
299.84679
299.82617
299.82217
299.8148
299.8016
299.77258
299.78563
299.7935
299.79861
299.82593
299.81029
299.77951
299.77394
299.76663
299.75655
299.75514
299.76219
299.76785
299.77277
299.80072
299.79804
299.78253
299.78067
299.78104
299.78654
299.85157
299.83195
299.82296
299.81837
299.80043
299.80843
299.86997
299.88282
299.902
299.93715
300.02244
299.97847
299.95065
299.9292
299.81732
299.81812
299.97143
299.9993
300.03127
300.07073
300.07761
300.04205
300.00964
299.98008
299.81459
299.82862
299.93472
299.95627
299.98082
300.01156
299.99254
299.94009
299.90522
299.87724
299.71819
299.82605
300.02616
300.06098
300.10012
300.15869
300.00681
299.95957
299.92807
299.90254
299.7414
300.14877
300.19277
300.23695
300.27816
300.48804
300.389
300.318
300.25544
299.86487
299.8568
300.09641
300.14592
300.19856
300.25808
300.06919
299.99006
299.93595
299.8936
299.72119
299.74177
300.05988
300.11472
300.17705
300.25207
299.99601
299.94971
299.91891
299.89395
299.73587
299.82207
300.02064
300.05517
300.09401
300.15209
299.98633
299.93454
299.90002
299.87233
299.71539
299.82654
299.93191
299.95329
299.9776
300.00788
300.07691
300.04161
300.00926
299.97967
299.81372
299.8179
299.97246
300.00054
300.03264
300.07212
300.02464
299.98045
299.95244
299.93077
299.81747
299.809
299.87164
299.8847
299.90414
299.93967
299.85307
299.83314
299.82404
299.81938
299.801
299.79864
299.783
299.78113
299.78155
299.7872
299.7548
299.76179
299.76753
299.77256
299.80112
299.81065
299.77943
299.77375
299.7663
299.75603
299.77241
299.78574
299.7937
299.79884
299.82636
299.84744
299.82698
299.82296
299.81547
299.80198
299.83887
299.85143
299.85776
299.86025
299.87226
299.89971
299.8962
299.8951
299.88983
299.8782
299.91917
299.92939
299.93331
299.93291
299.92837
299.95739
299.96918
299.97072
299.96782
299.95869
299.99741
300.00495
300.00655
300.00378
299.98571
300.01273
300.03599
300.03953
300.03882
300.03248
300.06511
300.06978
300.06935
300.06496
300.03771
300.06029
300.09039
300.09518
300.09628
300.09281
300.11704
300.11896
300.11697
300.11174
300.08
300.09664
300.129
300.13428
300.13673
300.13592
300.15092
300.15041
300.1474
300.14207
300.11022
300.12092
300.15095
300.15594
300.15913
300.16055
300.1662
300.16378
300.16029
300.15553
300.12748
300.13072
300.15666
300.16104
300.16454
300.16755
300.16603
300.16247
300.15893
300.15494
300.13172
300.13056
300.15072
300.15419
300.15757
300.16145
300.15461
300.15047
300.14723
300.14424
300.12717
300.12195
300.13601
300.13849
300.1415
300.14573
300.13545
300.13123
300.12848
300.12647
300.11528
300.10754
300.1161
300.11768
300.12016
300.12425
300.11244
300.10857
300.1064
300.10523
300.09903
300.09003
300.09437
300.09524
300.09719
300.10085
300.09704
300.10294
300.10409
300.1062
300.10994
300.12121
300.11733
300.11497
300.11346
300.1054
300.11283
300.12341
300.12536
300.128
300.13202
300.14171
300.1377
300.13482
300.13242
300.11912
300.12395
300.14009
300.14298
300.14606
300.14997
300.15619
300.15252
300.14928
300.14591
300.12675
300.12752
300.14949
300.15333
300.15668
300.16001
300.16115
300.15829
300.15493
300.1507
300.1263
300.12281
300.14911
300.15363
300.15688
300.15905
300.15319
300.15185
300.14881
300.14399
300.11574
300.10483
300.13471
300.13975
300.14252
300.14282
300.12812
300.12886
300.12652
300.12142
300.09107
300.07449
300.10412
300.10904
300.11081
300.10879
300.08545
300.08866
300.08758
300.08297
300.0549
300.0327
300.05801
300.0621
300.06239
300.05776
300.02673
300.03261
300.03323
300.02979
300.0081
299.98176
299.9986
300.00114
299.99953
299.99224
299.95578
299.96423
299.96688
299.96533
299.95412
299.9261
299.93065
299.931
299.92727
299.91755
299.87933
299.89005
299.89487
299.89577
299.89832
299.87206
299.86179
299.85951
299.85362
299.84188
299.8079
299.82018
299.82696
299.83051
299.84815
299.82823
299.80418
299.79954
299.79228
299.78024
299.76504
299.77474
299.78141
299.78638
299.81312
299.80454
299.78145
299.77742
299.77315
299.76879
299.80399
299.79625
299.79423
299.79464
299.80213
299.80513
299.8323
299.8388
299.85014
299.87353
299.96755
299.92665
299.90379
299.88804
299.81279
299.82249
299.95284
299.97842
300.01143
300.0637
300.12438
300.07463
300.03511
300.001
299.81906
299.80848
300.00645
300.04447
300.08954
300.14541
300.05477
300.01891
299.98823
299.95982
299.8136
299.69855
299.87272
299.90411
299.94014
299.98751
300.12766
300.07804
300.03774
299.99977
299.77919
299.7716
299.87229
299.88786
299.90211
299.91685
299.89344
299.84732
299.8252
299.81218
299.73013
299.79088
300.05126
300.08651
300.12384
300.17312
300.21944
300.14679
300.09739
300.05577
299.81856
299.84198
300.11008
300.15757
300.21351
300.29195
300.33537
300.2688
300.22014
300.17602
299.84965
299.85368
300.11767
300.15735
300.19912
300.24608
300.12569
300.08266
300.05013
300.02128
299.82308
299.7917
299.9848
300.00916
300.03267
300.0615
300.06963
300.00138
299.96087
299.92945
299.75089
299.81288
300.02908
300.06807
300.11393
300.1821
300.00691
299.94612
299.90816
299.87781
299.71101
299.82657
299.93612
299.95833
299.98456
300.01949
300.08037
300.04339
300.01005
299.9799
299.81169
299.81664
299.97123
299.99934
300.03152
300.07134
300.02113
299.97722
299.94955
299.9282
299.81667
299.8086
299.86928
299.88193
299.90087
299.93566
299.84972
299.83046
299.82179
299.81746
299.80062
299.79832
299.78132
299.77915
299.7792
299.78432
299.75239
299.76026
299.76632
299.77153
299.80082
299.81043
299.77881
299.77307
299.76551
299.75506
299.77226
299.78543
299.79338
299.79853
299.82613
299.84725
299.8268
299.82278
299.81531
299.80188
299.83877
299.85131
299.85764
299.86013
299.87208
299.89958
299.89608
299.89499
299.88972
299.8781
299.91908
299.9293
299.93322
299.93282
299.92827
299.9573
299.96905
299.97059
299.9677
299.95858
299.99729
300.00483
300.00643
300.00368
299.98563
300.01264
300.03579
300.03936
300.03867
300.03237
300.06494
300.0696
300.06918
300.06479
300.03756
300.06013
300.09008
300.09489
300.09602
300.09259
300.11677
300.11868
300.1167
300.11147
300.07976
300.09643
300.1287
300.13399
300.13643
300.13563
300.15061
300.15012
300.14713
300.14182
300.11003
300.12073
300.15072
300.15571
300.15889
300.16029
300.16598
300.16358
300.1601
300.15534
300.12734
300.13056
300.15646
300.16085
300.16436
300.16738
300.16586
300.16229
300.15876
300.15477
300.13155
300.13042
300.15057
300.15404
300.15742
300.16129
300.15448
300.15034
300.1471
300.14412
300.12704
300.12186
300.13591
300.13839
300.1414
300.14562
300.13536
300.13114
300.12839
300.12638
300.11519
300.10746
300.11605
300.11763
300.12011
300.12422
300.11243
300.10855
300.10637
300.10519
300.09896
300.08993
300.09424
300.09509
300.09701
300.10067
300.09659
300.10268
300.10383
300.10595
300.10973
300.12131
300.11739
300.11501
300.1135
300.10525
300.11288
300.12367
300.12561
300.12826
300.13233
300.1423
300.13822
300.13532
300.13292
300.11937
300.12443
300.14093
300.14381
300.14692
300.15091
300.15754
300.15376
300.15049
300.14712
300.12765
300.12868
300.15117
300.15501
300.1584
300.16182
300.16333
300.16035
300.15692
300.15266
300.12757
300.12434
300.15146
300.15602
300.15934
300.16161
300.15606
300.15461
300.15151
300.14664
300.1176
300.10696
300.13777
300.14285
300.14566
300.14602
300.13146
300.13214
300.12975
300.1246
300.09341
300.07689
300.10754
300.1125
300.11429
300.11227
300.08871
300.09196
300.09086
300.08619
300.05728
300.03496
300.06121
300.06533
300.06557
300.06082
300.02911
300.03515
300.03583
300.03236
300.01016
299.98344
300.00067
300.00321
300.00148
299.99392
299.95626
299.96506
299.96788
299.96638
299.95535
299.92672
299.93074
299.93098
299.92699
299.9168
299.87681
299.88812
299.89328
299.89438
299.89823
299.87113
299.85902
299.85647
299.85012
299.83766
299.80159
299.81471
299.82205
299.82601
299.84639
299.82561
299.79833
299.79321
299.78534
299.77236
299.75569
299.76581
299.77317
299.77877
299.80976
299.80032
299.77179
299.76673
299.76084
299.75318
299.78393
299.77892
299.77886
299.78093
299.79735
299.79997
299.81631
299.82058
299.82909
299.84796
299.93116
299.89728
299.87882
299.86651
299.80745
299.81635
299.92466
299.94545
299.97246
300.01541
300.0642
300.02541
299.99404
299.9667
299.81605
299.81238
299.97638
300.00585
300.03865
300.07524
300.01792
299.98271
299.95651
299.93447
299.82595
299.71276
299.8813
299.91185
299.95005
300.01124
300.18654
300.11815
300.07211
300.03293
299.81552
299.764
299.99919
300.0347
300.07445
300.12766
300.11975
300.05534
300.00795
299.96636
299.71002
299.80763
299.96867
299.99815
300.03473
300.08726
300.14289
300.09666
300.05741
300.02256
299.80341
299.81163
300.00608
300.03705
300.07288
300.11833
300.05997
300.01183
299.98108
299.95723
299.81443
299.80781
299.8912
299.90619
299.9281
299.96712
299.873
299.84976
299.83847
299.83216
299.80133
299.79977
299.78977
299.7892
299.79148
299.80014
299.75854
299.76355
299.76816
299.77259
299.80264
299.81213
299.77666
299.77114
299.7642
299.75549
299.76835
299.7814
299.78934
299.79459
299.82759
299.84814
299.82205
299.81769
299.8099
299.79622
299.83277
299.84576
299.85252
299.85542
299.87234
299.8991
299.89178
299.89024
299.88448
299.87229
299.91395
299.92474
299.92911
299.9291
299.92704
299.95534
299.966
299.9672
299.96387
299.95419
299.99375
300.00176
300.00371
300.00122
299.98305
300.00954
300.03399
300.03731
300.03628
300.02954
300.0628
300.0678
300.06761
300.06339
300.03408
300.05631
300.08909
300.09373
300.09464
300.09091
300.11553
300.11763
300.11579
300.11067
300.07572
300.09223
300.12812
300.1333
300.13561
300.13464
300.14988
300.14948
300.14655
300.14129
300.10576
300.11646
300.15022
300.15518
300.15834
300.15971
300.16573
300.16308
300.15956
300.15481
300.12314
300.12645
300.15591
300.16027
300.16372
300.16643
300.1654
300.16176
300.15819
300.15417
300.12761
300.12669
300.14993
300.15345
300.15688
300.16083
300.154
300.14978
300.14648
300.14343
300.12361
300.1187
300.13516
300.13771
300.14078
300.14507
300.1348
300.13051
300.12769
300.12561
300.11233
300.10482
300.11516
300.11681
300.11935
300.1235
300.11163
300.10766
300.10539
300.10414
300.09628
300.09607
300.10382
300.10507
300.10731
300.11124
300.12301
300.11892
300.11641
300.11479
300.10456
300.11205
300.1252
300.12726
300.13005
300.13429
300.14449
300.14023
300.1372
300.13468
300.1184
300.12331
300.14291
300.14591
300.14916
300.15331
300.16012
300.15618
300.15278
300.14929
300.12636
300.12727
300.1535
300.15744
300.16093
300.16447
300.16562
300.16285
300.15942
300.15508
300.12608
300.12277
300.15402
300.15865
300.16205
300.16457
300.15887
300.15737
300.1542
300.14927
300.11599
300.10533
300.14036
300.14548
300.1483
300.14862
300.13387
300.13464
300.13229
300.12712
300.09182
300.07546
300.10983
300.11477
300.11648
300.1143
300.09028
300.09377
300.09281
300.08819
300.05608
300.03405
300.0627
300.06671
300.06673
300.06163
300.02907
300.03557
300.03654
300.03325
300.00959
299.98334
300.00077
300.00304
300.00092
299.99278
299.95398
299.96345
299.96675
299.96559
299.95574
299.92768
299.929
299.92879
299.92423
299.9133
299.87247
299.88447
299.8902
299.89177
299.89979
299.87334
299.85584
299.85277
299.84588
299.83282
299.79704
299.81052
299.81826
299.82264
299.84919
299.82893
299.79535
299.78995
299.7819
299.76891
299.75524
299.76423
299.77138
299.77701
299.8134
299.80412
299.77214
299.76728
299.76194
299.75523
299.79472
299.78761
299.78619
299.78738
299.80103
299.8033
299.82894
299.83439
299.84458
299.86603
299.9598
299.92254
299.90177
299.88771
299.80951
299.81721
299.95542
299.97862
300.00878
300.05655
300.12309
300.07601
300.04019
300.00936
299.81565
299.81161
300.03425
300.06997
300.11057
300.15744
300.1002
300.04652
300.00876
299.97807
299.81038
299.73027
300.01094
300.05578
300.10575
300.1719
300.08245
300.03908
300.00477
299.97473
299.76681
299.78221
300.02242
300.05469
300.08935
300.14251
299.90354
299.86881
299.8447
299.82453
299.71206