/*--------------------------------*- C++ -*----------------------------------*\
  =========                 |
  \\      /  F ield         | OpenFOAM: The Open Source CFD Toolbox
   \\    /   O peration     | Website:  https://openfoam.org
    \\  /    A nd           | Version:  7
     \\/     M anipulation  |
\*---------------------------------------------------------------------------*/
FoamFile
{
    version     2.0;
    format      ascii;
    class       volScalarField;
    location    "80";
    object      p;
}
// * * * * * * * * * * * * * * * * * * * * * * * * * * * * * * * * * * * * * //

dimensions      [1 -1 -2 0 0 0 0];

internalField   nonuniform List<scalar> 
25278
(
101316.08
101314.56
101316.43
101316.37
101319.74
101314.31
101314.74
101316.03
101314.99
101310
101311.84
101313.96
101315.17
101317.29
101323.29
101316.48
101314.63
101321.64
101325.35
101324.17
101315.91
101315.69
101315.43
101312.29
101307.34
101312.13
101315.33
101312.88
101323.91
101314
101309.1
101317.89
101306.9
101314.01
101306.2
101321.69
101314.12
101306.7
101313.38
101300.34
101306.85
101299.83
101304.19
101297.24
101305.44
101304.01
101310.71
101309.31
101304.86
101311.4
101310.25
101322.9
101311.87
101312.43
101321.61
101311.35
101308.27
101318.03
101303.09
101307.31
101304.85
101305.71
101306.76
101311.3
101322.67
101321.27
101310.31
101307.68
101307.75
101308.38
101331.48
101323.21
101325.09
101315.15
101327.25
101310.68
101306.19
101313.96
101315.6
101320.28
101324.32
101323.18
101321.51
101324.98
101320.23
101325.14
101325.4
101336.09
101331.74
101333.09
101326.66
101323.75
101331.69
101331.8
101332.54
101323.71
101333.86
101335.31
101326.29
101324.5
101333.81
101337.41
101336.61
101324.4
101331.88
101339.89
101328.42
101334.03
101332.67
101333.34
101336.61
101327.91
101337.31
101349.68
101340.12
101341.8
101356.28
101336.72
101343.54
101343.47
101325.09
101320.28
101319.73
101331.77
101331.43
101333.08
101332.9
101336.4
101325.41
101325.16
101324.29
101320.24
101321.46
101323.13
101331.61
101336.25
101328.56
101327.72
101336.87
101334.56
101340.95
101349.29
101355.88
101336.74
101332.2
101340.16
101333.72
101323.49
101332.1
101323.73
101323.12
101333.21
101326.72
101335.45
101321.43
101326.3
101324.26
101336.27
101342.88
101350.25
101354.32
101355.11
101349.93
101343.47
101332.45
101340.16
101343.65
101337.35
101357.31
101351.12
101341.67
101346.04
101344.88
101353.41
101392.61
101357.67
101346.45
101345.38
101354.82
101388.31
101357.81
101347.11
101346.31
101340.4
101337.02
101334
101324.56
101332.45
101342.05
101355.44
101349.15
101344.23
101325
101340.35
101337.72
101334.97
101345.05
101351.02
101378.25
101383.39
101345.56
101346.41
101334.55
101328.05
101323.77
101324.48
101314.04
101324.01
101317.6
101308.7
101321.94
101306.55
101306.98
101299.66
101314.21
101306.25
101313.02
101299.82
101303.86
101296.91
101296.57
101301.43
101309.76
101310.45
101307.38
101298.88
101301.48
101300.15
101303.53
101311.53
101307.96
101291.47
101291.67
101300.82
101305.07
101309.89
101304.66
101308.7
101315.78
101324.28
101311.23
101321.86
101311.91
101307.01
101304.38
101311.24
101307.5
101317.64
101301.88
101304.96
101305.74
101310.93
101309.87
101322.68
101310.81
101323.02
101307.48
101306.27
101321.23
101309.48
101306.53
101296.57
101296.71
101296.63
101297.3
101290.64
101304.59
101301.17
101306.45
101309.67
101302.5
101296.71
101299.35
101298.92
101296.38
101296.99
101302.37
101291.47
101288.19
101287.33
101286.27
101284.02
101298.51
101296.47
101295.68
101283.63
101285.44
101295.38
101284.88
101299.63
101292.65
101294.54
101298.96
101307.56
101309.78
101301.43
101311.27
101307.94
101301.49
101292.11
101291.75
101296.56
101306.47
101302.79
101299.05
101310.3
101313.41
101320.89
101304.42
101310.89
101297.66
101308.41
101295.61
101303.65
101303.42
101307.82
101297.68
101310.81
101327.46
101323.77
101308.75
101295.03
101314.74
101304.16
101303.37
101303.15
101316.33
101329.08
101328.37
101316.93
101293.05
101303.45
101297.49
101279.84
101313.1
101283.18
101312.06
101291.15
101287.62
101295.96
101294.58
101300.53
101283.92
101295.86
101295.44
101305.5
101293.34
101285.4
101305.86
101287.69
101283.55
101307.62
101289.87
101293.73
101291.57
101290.25
101291.54
101301.81
101277.35
101281.47
101280.99
101293.91
101274.14
101291.56
101292.13
101303.09
101301.58
101293.51
101306.69
101298.99
101285.51
101306.46
101287.94
101310.88
101313.71
101321.42
101291.51
101287.52
101295.71
101293.99
101300.02
101283.42
101295.36
101312.48
101305.6
101280.93
101283.57
101273.59
101293.74
101295.19
101293.36
101291.29
101293.26
101289.04
101307.87
101283.32
101289.86
101291.24
101301.91
101277.24
101281.82
101288
101287.47
101285.63
101274.06
101279.32
101286.03
101293.1
101290.89
101301.71
101282.41
101281.34
101287.63
101286.82
101286.42
101280
101287.36
101297.46
101285.12
101278.54
101286.31
101287.27
101288.81
101295.28
101292.19
101297.82
101297.66
101289.08
101288.24
101285.38
101278.81
101272.29
101284.7
101287.76
101285.46
101287.56
101288.03
101286.74
101287.47
101296.2
101287.77
101288.68
101291.05
101301.07
101305.59
101306.36
101316.05
101305.61
101324.98
101327.43
101310.37
101305.15
101307.1
101305.77
101322.22
101301.59
101334.1
101337.51
101333.13
101323.78
101305.75
101305.26
101308.87
101309.57
101301.04
101342.57
101360.27
101317.22
101331.18
101334.12
101331.78
101310.03
101308.23
101312.63
101317
101317.64
101364
101345.04
101335.85
101336.92
101328.18
101320.32
101328.9
101320.09
101312.71
101310.23
101299.38
101299.54
101294.11
101299.22
101290.89
101313.31
101303.04
101276.98
101280.35
101263.91
101290.74
101291.95
101289.6
101306.49
101290.98
101306.04
101301.33
101287.79
101287.68
101288.19
101293.59
101295.6
101293.25
101305.32
101291.17
101304.86
101309.82
101306.96
101302.32
101290.33
101297.23
101297.64
101315.58
101306.08
101306.64
101308.38
101305.85
101310.8
101303.86
101319.12
101314.59
101309.45
101311.44
101332.54
101320.95
101319.18
101331.39
101323
101310.47
101306.14
101337.91
101334.8
101336.18
101304.19
101324.05
101306.55
101311.3
101331.94
101346.17
101361.28
101366.07
101341.93
101339.34
101339.38
101301.33
101322.47
101294.52
101311.19
101293.65
101314.45
101297.46
101308.62
101302.99
101298.06
101300.1
101300.95
101301.38
101302.51
101298.03
101297.08
101288
101288.42
101292
101287.22
101285.38
101299.27
101299.24
101296.86
101298.35
101283.78
101284.92
101286.32
101295.25
101285.62
101299.09
101292.56
101293.3
101290.57
101301.52
101287.61
101287.45
101282.83
101281.25
101288.07
101289.43
101297.11
101279.15
101285.99
101291.79
101278.73
101285.82
101297.47
101288.96
101281.18
101287.12
101288.33
101289.81
101295.41
101285.14
101272.21
101279.03
101297.78
101288.77
101285.76
101285.88
101273.79
101297.3
101284
101283
101290.53
101299.59
101285.79
101286.11
101279.74
101266.95
101271.91
101276.36
101276.89
101290.78
101264.33
101281.17
101284.73
101290.38
101284.75
101280.57
101251.04
101286.16
101274.98
101280.7
101282.41
101289.72
101290.62
101289.62
101292.77
101295.38
101296.29
101306.28
101294.89
101303.31
101284.66
101293.41
101302.2
101298.6
101295.46
101297.58
101292.38
101294.24
101290.04
101301.02
101291.44
101291.36
101292.21
101299.76
101304.3
101304.93
101314.42
101305.74
101296.58
101299.46
101297.86
101291.73
101286.03
101301.72
101302.1
101295.75
101297.2
101299.2
101295.65
101296.03
101275.02
101286.84
101299.58
101289.59
101291.18
101295.31
101263.94
101282.11
101287.07
101290.81
101280.81
101288.56
101289.17
101293.81
101291.55
101292.59
101288.18
101288.75
101289
101292.21
101295.54
101293.86
101293.6
101295.84
101291.42
101292.37
101292.31
101295.37
101291.38
101290.79
101289.34
101290.05
101300.59
101285.39
101278.24
101289.59
101307.11
101292.77
101315.06
101297.43
101309.64
101304.51
101303.82
101289.23
101289.45
101283.55
101297.94
101298.66
101298.82
101297.32
101283.08
101281.99
101282.42
101283.27
101279.45
101285.7
101280.1
101287.74
101296.4
101288.31
101285.37
101289.1
101289.16
101288.49
101288.45
101287.96
101287.72
101289.19
101294.11
101290.42
101289.58
101289.85
101294.31
101291.79
101289.83
101287.98
101288.21
101288.82
101295.7
101293.74
101285.77
101289.52
101288.68
101289.61
101289.71
101290.06
101289.63
101290.53
101289.87
101288.93
101286.19
101286.28
101286.55
101286.79
101286.69
101285.48
101288.98
101288.45
101289.78
101286.79
101289.82
101290.34
101293.28
101293.21
101298.87
101303.56
101304.38
101300
101310.3
101290.2
101302.2
101300.38
101295.22
101295.92
101299.01
101294.44
101294.12
101294.97
101298.14
101302.89
101303.95
101302.67
101313.17
101293.71
101304.03
101303.26
101297.21
101297.76
101301.51
101296.99
101295.59
101296.67
101295.6
101294.5
101298.86
101297.69
101298.87
101300.99
101308.4
101287.82
101304.53
101300.71
101293.78
101296.03
101292.58
101293.76
101298.53
101300.78
101302.91
101304.07
101312.53
101296.1
101308.92
101306.9
101303.93
101300.27
101295.61
101293.53
101301.47
101268.73
101280.64
101288.76
101293.25
101281.03
101289.7
101284.24
101284.07
101285.52
101286.91
101280.22
101282.24
101278.41
101288.49
101272.13
101301.3
101287.69
101282.3
101282.36
101276.76
101292.62
101280.72
101278.54
101274.02
101270.8
101276.27
101285.8
101267.43
101297.77
101299.54
101274.9
101280.23
101285.57
101285.98
101279.79
101276.39
101276.18
101287.1
101274.57
101280.2
101280.39
101286.18
101286.07
101288.29
101288.86
101291.01
101290.98
101288.52
101286.74
101286.48
101289.6
101288.6
101289.26
101299.26
101283.84
101263.56
101283.54
101264.09
101290.88
101299.09
101284.19
101285.12
101288.51
101285.7
101280.17
101277.34
101282.94
101291.44
101283.28
101285.49
101284.17
101289.32
101285.3
101284.84
101285.36
101283.49
101282.5
101274.66
101277.62
101278.04
101275.93
101279.12
101276.37
101281.08
101274.72
101276.27
101280.61
101282.65
101280.62
101292.39
101286.11
101282.3
101280.54
101279.27
101275.2
101246.68
101271.43
101295.46
101279.11
101282.86
101294.82
101248.03
101277.62
101275.04
101261.3
101265.24
101272.01
101266.81
101274.9
101270.54
101259.7
101249.58
101264.3
101261.45
101275.96
101270.04
101280.32
101281.33
101279.44
101277.3
101284.97
101284.92
101287.78
101288.44
101291.06
101290.61
101288.21
101289.3
101289.86
101287.81
101283.49
101275.87
101278.66
101273
101277.47
101276.06
101270.1
101271.58
101278.11
101270.35
101279.92
101273.25
101281.4
101276.56
101285.38
101280.41
101285.94
101277.27
101282.08
101270.31
101265.07
101270.22
101269.24
101271.91
101257.55
101266.25
101272.33
101271.23
101263.99
101249.45
101260.64
101262.51
101252.92
101238.98
101232.19
101252.97
101245.12
101265.82
101255.23
101271.72
101283.23
101288.05
101288.71
101294.88
101291.94
101287.59
101291.65
101289.22
101290.68
101290.02
101290.12
101291
101288.5
101284.52
101288.16
101286.29
101277.31
101283.28
101291.94
101294.76
101285.81
101276.48
101273.18
101282.92
101295.08
101289.78
101311.86
101315.72
101286.46
101300.88
101286.37
101290.05
101297.69
101286.19
101288.57
101295.65
101300.35
101301.81
101302.6
101298.24
101301.02
101289.51
101303.72
101303.01
101309.4
101315.95
101321.71
101325.59
101333.84
101335.16
101334.04
101339.88
101344.26
101338.38
101332.22
101343.11
101360.08
101352.65
101341.34
101338.06
101337.43
101324.97
101326.37
101321.71
101324.66
101332.14
101343.02
101348.93
101357.63
101347.24
101345.38
101345.82
101359.95
101396.54
101354.52
101357.56
101350.83
101341.09
101339.87
101325.34
101343.47
101340.45
101340.46
101346.41
101344.58
101356.57
101391.49
101353.03
101350.81
101356.66
101347.08
101349.33
101355.32
101342.29
101332.67
101325.03
101344.23
101337.6
101334.49
101343.5
101348.01
101383.93
101390.47
101353.26
101350.94
101336.27
101312.43
101322.94
101310.25
101311.46
101324.2
101312.63
101317.69
101322.77
101321.15
101310.26
101311.51
101307.08
101308.03
101307.83
101308.77
101303.3
101306.12
101308.3
101311.5
101321.45
101307.71
101305.29
101298.03
101309.81
101305.02
101300.46
101298.16
101297.27
101298.8
101299.16
101298.34
101304.85
101309.74
101308.48
101297.61
101297.69
101289.97
101284.39
101283.49
101282.46
101283.42
101285.01
101298.74
101297.13
101302.49
101306.86
101297.55
101290.98
101291.87
101305.16
101299.62
101299.8
101286.62
101287.37
101285.95
101286.65
101293.09
101287.91
101291.72
101289.07
101289.5
101290.68
101294.19
101293.5
101289.79
101289.28
101291.18
101291.74
101292.38
101291.4
101287.84
101288.58
101283.84
101282.35
101288.18
101290.07
101278.94
101276.85
101279.19
101272.53
101258.92
101267.21
101263.75
101237.62
101252.25
101230.57
101243.91
101257.08
101273.09
101273.5
101285.18
101316.94
101320.55
101291.62
101284.15
101278.36
101285.1
101271.27
101304.24
101291.4
101297.93
101305.42
101309.02
101306.67
101325.94
101304.31
101343.15
101302.04
101294.48
101302.64
101367.26
101378.98
101326.5
101337.76
101289.9
101299.55
101280.63
101293.5
101275.38
101292.06
101282.1
101286.86
101289.28
101292.41
101295.01
101295.95
101293.38
101283.68
101302.74
101293.99
101297.04
101291.79
101293
101295.43
101292.31
101287.96
101289.45
101288.72
101293.31
101294.86
101297.68
101302.04
101286.72
101273.77
101295.56
101294.93
101294.96
101297.14
101304.75
101314.85
101291.17
101284.32
101304.99
101295.26
101298.52
101292.59
101293.25
101304.53
101293.65
101288.78
101290.66
101291
101288.36
101288.67
101291.71
101291.44
101299.52
101289.53
101288.39
101303.87
101302.43
101308.22
101308.33
101302.54
101308.59
101314.23
101316.26
101315.98
101314.7
101317.16
101315.21
101315.55
101315.81
101322.77
101309.94
101321.37
101310.99
101306.42
101306.65
101309.58
101310.94
101323.17
101307.74
101305.94
101305.19
101307.63
101311.26
101324.36
101312.19
101318.01
101302.31
101307.28
101322.14
101311.27
101304.52
101297.29
101296.71
101296.78
101296.62
101287.85
101287.91
101280.82
101281.77
101297.27
101297.17
101279.67
101281.82
101285.04
101278.39
101286.52
101284.38
101288.29
101287.34
101286.49
101287.69
101287.87
101293.49
101287.96
101292.98
101287.5
101286.42
101287.55
101295.08
101293.75
101288.81
101288.27
101284.43
101289.62
101295.06
101303.89
101303.99
101315.72
101291.72
101299.26
101300.74
101298.38
101309.77
101287.82
101306.41
101306.11
101300.18
101301.44
101284.51
101275.83
101298.28
101296.13
101294.55
101295.11
101290.39
101290.55
101289.18
101291.43
101291.21
101291.97
101298.36
101292.17
101298.18
101294.36
101294.18
101297
101297.64
101299.53
101287.85
101284.08
101302.87
101299.36
101297.56
101293.11
101292.58
101289.86
101293.09
101294.49
101291.12
101292.04
101294.09
101292.81
101292.28
101288.53
101288.58
101291.9
101293.86
101286.98
101286.93
101285.59
101277.03
101288.25
101286.77
101287.67
101288.79
101289.16
101289.79
101288.41
101285.69
101285.83
101289.31
101290.23
101286.3
101286.37
101289.01
101288.04
101285.55
101285.55
101287.2
101286.91
101288.11
101289.53
101286.35
101284.88
101284.06
101287.2
101288.88
101286.08
101281.23
101282.1
101283.66
101285.42
101286.92
101290.6
101282.76
101280.41
101279.47
101285.62
101288.46
101290.8
101290.67
101262.77
101284.95
101282.45
101280.58
101279.19
101280.8
101245.85
101270.65
101294.33
101279.82
101288.52
101289.53
101292.88
101292.96
101266.17
101292.75
101283.4
101279.43
101275.52
101278.39
101245.6
101282.84
101314.87
101287.96
101294.77
101294.93
101299.19
101300
101281.92
101317.06
101292.36
101286.15
101279.43
101284.9
101265.99
101298.75
101336.21
101297.65
101303.67
101302.32
101304.68
101300.92
101301.51
101303.15
101315.14
101291.86
101290.91
101313.04
101300.81
101302.02
101295.45
101295.42
101303.07
101297.02
101294.2
101300.66
101300.83
101300.92
101313.35
101310.29
101332.03
101334.39
101318.1
101317.47
101313.5
101308.74
101331.66
101317.94
101361.5
101364.93
101345.23
101337.33
101338.12
101329.69
101321.86
101330.49
101343.87
101303.25
101335.69
101302.66
101322.94
101328.01
101325.6
101306.09
101306.38
101308.1
101305.87
101311.04
101338.84
101334.36
101325.1
101307.54
101312.35
101310.59
101306.5
101294.77
101300.75
101300.59
101311.41
101314.01
101320.61
101323.48
101322.71
101291.39
101291.49
101309.73
101310.48
101301.77
101306.33
101297.7
101296.71
101299.39
101299.8
101294.35
101292.78
101288.41
101288.67
101290.28
101285.96
101288.42
101286.55
101286.79
101284.94
101282.22
101292.07
101285.95
101285.16
101288.52
101276.67
101284.24
101283.81
101284.79
101285.7
101282.88
101284.44
101286.93
101288.12
101286.47
101288.33
101284.78
101284.74
101277.8
101278.28
101276.44
101275.16
101282.57
101282.88
101275.58
101278.39
101283.5
101280.44
101272.93
101279.46
101273.06
101271.83
101272.95
101275.37
101280.89
101272.2
101267.07
101260.72
101271.68
101276.92
101280.88
101281.58
101289.51
101284.59
101277.34
101276.81
101284.78
101289.74
101281.29
101275.08
101276.28
101266.85
101252.04
101262.88
101265.86
101258.84
101267.64
101271.34
101270.44
101268.06
101270.97
101280
101312.87
101369.97
101340.19
101354.69
101318.41
101311.53
101317.65
101352.93
101285.64
101384.28
101439.37
101357.29
101367.12
101424.56
101325.42
101358.31
101359.63
101432.13
101352.78
101352.29
101438.06
101345.75
101379.18
101317.69
101422.28
101366.51
101355.36
101463.52
101497.74
101628.25
101498.61
101462.75
101493.47
101272.15
101282.59
101516.8
101338.49
101432.79
101346.62
101367.61
101321.65
101332.76
101312.16
101309.99
101331.64
101319.93
101315.52
101320.81
101335.23
101324.52
101361.4
101347.05
101333.73
101347.57
101345.05
101305.1
101326.19
101296
101312.46
101293.49
101312.49
101302.25
101304.76
101314.8
101294.68
101303.87
101304.52
101304.86
101303.85
101311.75
101296.52
101308.3
101310.29
101301.86
101297.72
101297.78
101296.25
101296.51
101299.3
101303.53
101298.07
101296.02
101295.85
101294.82
101298.85
101300.09
101309.42
101315
101305.27
101301.57
101303.26
101290.66
101294.15
101307.68
101308.27
101302.62
101300.66
101303.26
101307.03
101289.17
101292.18
101280.85
101302.15
101287.17
101305.09
101307.24
101322.97
101328.03
101324.94
101306.61
101306.75
101309.5
101304.78
101311.58
101337.71
101336.5
101334.65
101307.25
101314.26
101312.33
101307.49
101308.53
101325.25
101295.54
101317.79
101296.84
101315.33
101300.85
101313.31
101309.22
101315.75
101310.87
101304.22
101301.35
101307.85
101307.67
101309.94
101314.11
101313.07
101323.81
101317.91
101307.32
101321.49
101306.63
101314.17
101306.9
101304.65
101300.53
101307.22
101326.95
101310.9
101311.27
101304.99
101304.55
101298.75
101308.86
101324.16
101324.54
101314.25
101324.05
101329.17
101328.92
101308.72
101304.77
101305.39
101304.52
101317.02
101296.3
101309.32
101298.85
101311.29
101327.28
101315.02
101304.87
101304.39
101285.1
101294.48
101303.2
101306.68
101320.11
101297.66
101305.49
101301.83
101308.12
101301.94
101311.19
101297.2
101292.84
101292.79
101288.97
101297.49
101298.58
101302.88
101299.7
101301.62
101289.58
101293.29
101288.37
101282.63
101288.85
101281.71
101287.15
101280.89
101284.9
101280.58
101282.82
101280.58
101280.8
101281.53
101279.75
101293.17
101294.23
101289.73
101287.8
101288.02
101289.94
101290.07
101294.17
101294.31
101290.78
101288.43
101287.84
101285.58
101286.97
101286.96
101290.1
101289.9
101286.42
101286.67
101282.68
101283.14
101279.4
101285.1
101289.4
101290.92
101286.57
101281.94
101289.88
101274.39
101264.96
101274.09
101277.22
101270.55
101269.47
101256.06
101252.75
101262.15
101261.86
101248.69
101227.05
101255.28
101264.43
101264.52
101243.67
101243.21
101262.52
101276.02
101279.78
101293.27
101300.08
101302.77
101309.04
101305.96
101323.61
101304.91
101308.38
101312.98
101298.09
101286.27
101292.28
101289.97
101296.27
101297.2
101302.01
101300.48
101299.21
101300.78
101297.27
101296.81
101304.09
101300.2
101295.15
101296.04
101297.11
101296.75
101294.48
101297.1
101299.81
101297.65
101295.28
101296.06
101297.13
101305.64
101314
101293
101299.19
101300.79
101299.16
101297.67
101302.61
101287.8
101298.29
101302.01
101294.9
101294.18
101295.24
101294.44
101292.44
101300.87
101304.58
101295.53
101294.24
101293.28
101291.27
101294.66
101295.65
101302.97
101315.01
101306.73
101297.46
101298.84
101286.01
101294.39
101302.51
101299.26
101297.25
101296.98
101294.97
101298.49
101277.74
101288.65
101300.31
101296.9
101301.68
101302.89
101312.96
101315.99
101303.91
101299.15
101299.9
101306.14
101289.65
101293.96
101318.82
101322.43
101341.58
101302.21
101309
101305.6
101307.16
101309.68
101296.79
101267.42
101286.25
101294.37
101300.46
101299.3
101291.87
101289
101296.32
101289.34
101293.33
101285.76
101282.12
101261.26
101266.39
101254.48
101251.76
101256.04
101254
101230.49
101254.91
101255.99
101276.3
101279.98
101282.51
101258.14
101258.98
101220.45
101230.88
101207.3
101239.32
101223.97
101220.83
101179.3
101221.12
101216.51
101242.5
101253.93
101265.49
101250.21
101262.32
101247.9
101262.46
101261.07
101262.85
101254.31
101267.74
101265.74
101251.26
101251.17
101266.23
101255.94
101269.96
101279.92
101280.17
101270.65
101273.2
101271.16
101267.39
101278.5
101277.09
101280.35
101283.61
101274.8
101268.14
101264.53
101246.86
101251.5
101257.19
101261.04
101242.42
101236.71
101226.83
101234.07
101256.78
101264.75
101246.68
101258.96
101258.79
101277.45
101284.04
101292.61
101284.93
101275.5
101277.03
101286.75
101294.84
101286.39
101279.98
101262.37
101260.95
101237.2
101235.07
101259.11
101263.19
101284.69
101290.15
101297.96
101288.03
101277.58
101279.24
101289.62
101292.72
101286.53
101286.43
101286.42
101285.94
101289.45
101287.07
101282.8
101282.56
101286.74
101289.55
101289.98
101286.44
101286.19
101292.35
101289.55
101287.52
101287.74
101280.63
101295.92
101295.89
101296.29
101278.46
101279.7
101290.7
101284.06
101283.37
101282.69
101276.95
101288.44
101283.34
101282.86
101283.58
101285.22
101286.44
101282.21
101285.11
101289.37
101290.92
101291.61
101290.8
101289.58
101274.55
101281.52
101295.56
101298.47
101304.02
101308.06
101311.67
101313.85
101315.14
101313.94
101311.81
101312.77
101309.64
101303.74
101308.79
101306.26
101298.27
101294.7
101298.88
101305.69
101297
101301.21
101298.84
101288.72
101287.42
101292.39
101298.97
101291.95
101297.38
101298.43
101308.09
101304.49
101305.11
101297.15
101296.42
101304.73
101308.25
101312.55
101307.17
101307.94
101308.64
101312.41
101313.64
101309.45
101303.12
101308.26
101314.01
101308.93
101308.06
101305.28
101310.46
101312.04
101314.66
101315.28
101309.25
101312.79
101311.55
101316.58
101313.92
101311.76
101311.27
101312.58
101313.25
101316.2
101313.61
101309.67
101304.54
101304.35
101304.26
101303.43
101292.36
101305.43
101302.97
101306.48
101309.02
101306.56
101299.87
101294.99
101301.55
101300.26
101293.6
101288.66
101289.36
101299.54
101293.34
101298.8
101298.57
101297.6
101304.9
101306.23
101304.72
101308.7
101299.27
101296.61
101297.3
101288.75
101282.75
101295.58
101293.06
101279.66
101288.85
101279.41
101292.34
101292.79
101295.3
101284.84
101283.42
101296.34
101299.07
101300.1
101300.09
101286.55
101290.59
101299.59
101281.56
101286.75
101296.52
101295.11
101290.52
101290.7
101274.89
101296.04
101296.61
101300.65
101297.88
101303.39
101300.34
101307.2
101286.45
101293.13
101295.35
101299.48
101296.94
101288.46
101282.69
101295.4
101291.46
101278.77
101287.58
101277.97
101291.18
101291.33
101293.69
101285.57
101282.98
101295.93
101299.09
101298.39
101297.09
101282.79
101283.56
101290.94
101298.78
101297.1
101292.75
101285.65
101283.96
101290.84
101299.07
101289.82
101297.55
101297.39
101288.14
101289.54
101284.72
101296.04
101299.08
101313.9
101303.25
101303.83
101306.91
101298.35
101303.4
101306.16
101300.72
101293.66
101294.31
101299.88
101290.13
101296.22
101286.71
101289.28
101293.63
101295.23
101295.42
101285.76
101306.45
101305.75
101301.62
101296.26
101299.09
101302.98
101292.72
101303.07
101284.75
101287.91
101303.36
101299.3
101292.62
101289.71
101269.93
101299.42
101299.35
101305.68
101304.52
101312.12
101307.48
101311.36
101306.13
101302.46
101291.73
101285.57
101298.86
101305.2
101307.82
101307.82
101294.92
101295.15
101299.33
101314.1
101305.78
101293.34
101302.5
101310.64
101301.04
101310.58
101305.06
101313.9
101314.72
101319.41
101311.23
101304.24
101305.67
101312.04
101318.11
101317.36
101299.2
101302.01
101302.72
101313.49
101312.83
101312.82
101324.35
101326.43
101321.61
101314.99
101318.38
101313.12
101298.38
101306.19
101305.63
101305.89
101309.17
101313.05
101312.99
101308.95
101308.7
101303.78
101309.69
101308.62
101311.18
101306.42
101309.14
101309.66
101314.38
101312.82
101309.48
101307.4
101312.19
101306.37
101306.02
101299.52
101308.32
101314.36
101319.37
101317.91
101312.46
101316.42
101321.21
101310.96
101315.99
101321.11
101316.85
101318.15
101319.94
101309.02
101316.62
101314.25
101320.54
101321.91
101326.28
101318.35
101329.12
101328.25
101328.11
101315.56
101324.14
101331.18
101328.4
101322.37
101321.55
101318.8
101315.69
101306.85
101311.99
101320.98
101316.08
101317.36
101305.56
101305.47
101298.5
101301.93
101313.14
101313.33
101309.17
101299.07
101308.98
101313.37
101310.35
101305.2
101316.72
101298.19
101309.62
101304.33
101306.56
101302.37
101299.6
101296.48
101299.82
101281.99
101292.88
101293.68
101282.05
101288.28
101292.22
101292.72
101288.7
101276.54
101279.8
101294.22
101292.78
101288.69
101288.08
101274.58
101293.66
101292.55
101296.42
101296.23
101295.69
101294.52
101297.41
101295.14
101290.13
101290.59
101295.79
101297.74
101296.97
101301.38
101308.68
101303.65
101305.81
101300.98
101301.73
101298.22
101282.06
101280.54
101301.46
101302.37
101307.91
101306.93
101300
101299.3
101303.6
101310.94
101312.29
101304.46
101297.44
101295.9
101290.44
101289.6
101295.57
101296.37
101304.49
101300.44
101299.93
101296.1
101279.97
101289.02
101298.26
101295
101304.41
101295.61
101296.67
101306.42
101305.16
101306.41
101305.34
101306.64
101295.9
101298.51
101289.65
101290.55
101282.35
101281.22
101288.32
101297.97
101297.98
101288.07
101290.48
101288.47
101290.49
101307.09
101301.01
101308.05
101310.41
101304.55
101309.98
101316.8
101313.15
101320.7
101316.45
101320.06
101311.78
101323.84
101310.77
101318.03
101325.11
101332.05
101322.36
101311.98
101316.18
101301.26
101309.13
101315.32
101286.64
101299.71
101270.36
101287.9
101291.56
101297.91
101298.38
101289.05
101290.3
101289.68
101303.42
101301.86
101290.94
101288.42
101301.06
101300.93
101310.46
101303.57
101286.46
101315.22
101309.5
101316.02
101322.51
101317.94
101321.39
101314.65
101310.38
101315.45
101322.68
101329.91
101328.15
101304.95
101320.66
101329.81
101318.53
101305.08
101328.15
101316.47
101324.28
101317.16
101321.99
101331.21
101335.85
101328.34
101333.27
101322.58
101336.53
101322.59
101332.12
101322.28
101336.45
101340.7
101334.66
101326.85
101332.91
101324.75
101316.16
101311.01
101296.51
101306.05
101315.54
101318.51
101313.26
101301.47
101313.85
101320.58
101325.68
101321.19
101329.96
101334.98
101329.8
101324.68
101317.24
101313.43
101320.18
101314.14
101305.66
101299.67
101292.14
101289.79
101299.74
101299.08
101299.99
101292.05
101288.71
101286.42
101289.75
101302.56
101301.53
101285.4
101270.39
101259.25
101242.31
101262.83
101251.06
101222.92
101219.48
101233.87
101203.07
101230.36
101231.79
101246.72
101250.2
101256.52
101245.13
101257.87
101245.43
101231.08
101246.6
101233.27
101253.76
101264.84
101298.95
101276.83
101238.79
101277.22
101259.7
101263.88
101265.15
101258.42
101236.11
101286.64
101309.55
101252.24
101259.69
101259.03
101266.9
101288.68
101234.26
101286.38
101253.6
101254.59
101252.15
101218.3
101226.46
101244.21
101251.37
101229.67
101219.78
101198.96
101211.43
101236.6
101227.89
101237.02
101212.09
101199.19
101224.85
101247.86
101227.37
101220.17
101177.65
101189.03
101175.94
101165.91
101213.09
101218.18
101216.49
101219.72
101239.52
101266.78
101272.01
101262
101259.29
101301.77
101258.89
101329.75
101278.92
101283.38
101283.3
101276.96
101304.93
101387.19
101439.14
101327.26
101370.76
101259.3
101263.28
101279.65
101270.28
101333.82
101230.09
101329.49
101368.63
101298.42
101336.08
101268.79
101258.67
101262.2
101274.59
101323.9
101253.19
101325.82
101265.76
101258.39
101266.03
101278.88
101249.07
101364.28
101429.84
101318.7
101374.53
101282.13
101290.26
101297.76
101302.88
101307.24
101304.93
101299.86
101292.64
101288.25
101265.43
101262.14
101230.19
101230.79
101265.63
101295.79
101294.69
101339.21
101298.1
101298.98
101306.65
101304.59
101306.1
101301.66
101301.96
101291.16
101291.84
101315.33
101302.86
101301.21
101294.85
101295.27
101292.44
101294.34
101296.2
101302.8
101298.2
101288.23
101303.52
101302.48
101309.66
101306.6
101304.61
101299.03
101296.64
101296.26
101278.1
101278.76
101296.44
101296.84
101281.25
101282.87
101295.32
101300.9
101289.26
101290.24
101304.19
101309.94
101305.11
101303.4
101310.19
101299.7
101295.83
101298.4
101297.61
101295.73
101280.53
101282.55
101284.52
101286.37
101291.2
101300.43
101307.57
101300.85
101311.5
101314.11
101306.27
101308.69
101317.68
101306.6
101313.33
101300.05
101303.88
101299.34
101305.9
101322.08
101306.97
101327.69
101315.21
101323.71
101295.56
101303.66
101304.42
101310.64
101310.68
101308.86
101297.22
101307.6
101303.62
101317.09
101328.19
101293.81
101304.08
101303.49
101317.06
101329.49
101308.89
101323.96
101324.51
101313.94
101312.72
101324.03
101313.81
101309.47
101306.73
101306.76
101297.64
101301.03
101301.58
101296.06
101284.82
101289.48
101286.82
101290.35
101296.15
101296.83
101300.8
101316.8
101303.62
101315.6
101305.9
101316.25
101310.45
101298.27
101300.31
101288.16
101291.79
101298.66
101303.57
101303.54
101297.07
101291.59
101290.81
101291.89
101292.76
101293.82
101299.49
101297.19
101291.88
101290.2
101295.57
101298.58
101300.54
101309.93
101310.88
101291.83
101291.5
101304.12
101301.89
101298.72
101307.12
101284.67
101288.02
101306.67
101296.83
101298.33
101290.75
101292.58
101296.26
101293.47
101293.05
101290.12
101289.9
101290.97
101288.01
101286.15
101280.92
101282.22
101283.92
101285.42
101289.22
101289.95
101286.03
101285.76
101285.15
101289.75
101290.99
101289.52
101287.42
101287.94
101284.62
101281.46
101281.93
101277.2
101288.65
101282.43
101281.89
101288.9
101278.45
101275.79
101287.38
101285.53
101286.56
101284
101283.64
101291.75
101290.79
101286.08
101285.88