/*--------------------------------*- C++ -*----------------------------------*\
  =========                 |
  \\      /  F ield         | OpenFOAM: The Open Source CFD Toolbox
   \\    /   O peration     | Website:  https://openfoam.org
    \\  /    A nd           | Version:  7
     \\/     M anipulation  |
\*---------------------------------------------------------------------------*/
FoamFile
{
    version     2.0;
    format      ascii;
    class       volVectorField;
    location    "80";
    object      U;
}
// * * * * * * * * * * * * * * * * * * * * * * * * * * * * * * * * * * * * * //

dimensions      [0 1 -1 0 0 0 0];

internalField   nonuniform List<vector> 
25278
(
(120.03805 -0.001145666 -0.0061272218)
(120.03228 -0.0065152398 -0.037788133)
(120.02841 -0.016129573 -0.025558601)
(120.0288 -0.02545903 -0.01789416)
(119.99668 -0.048185666 -0.013169301)
(120.03336 -0.040025618 -0.0089415992)
(120.04518 -0.0067954342 0.0010191804)
(120.03847 -0.0059943753 -0.0020608398)
(120.04344 0.0019222665 -0.0057737841)
(120.05947 -0.0055200303 -0.024013236)
(120.05144 -0.012946786 -0.021530011)
(120.04249 -0.012149246 -0.013319918)
(120.03621 -0.026550626 -0.028163858)
(120.02023 -0.037147515 -0.038865977)
(119.81417 -0.093720898 -0.13590027)
(120.02803 0.015914741 -0.025051213)
(120.032 0.00740363 -0.037096339)
(119.84986 -0.10770078 -0.1605416)
(119.77486 -0.043476077 -0.21255914)
(119.88592 -0.054294678 -0.20171906)
(119.99038 -0.014367621 -0.11052903)
(120.00151 -0.041766616 -0.089321341)
(120.0156 -0.04599961 -0.066524844)
(120.04463 -0.032989767 -0.049537605)
(120.05793 -0.063236714 -0.066422353)
(120.04517 -0.048804049 -0.03616787)
(120.01569 -0.065892094 -0.049133273)
(119.99129 -0.092843856 -0.095496567)
(119.94461 -0.089386656 -0.13838251)
(119.98494 -0.090249519 -0.13830936)
(119.96142 -0.085156195 -0.17141558)
(119.90953 -0.082237053 -0.18101884)
(119.83505 -0.14678905 -0.25346978)
(119.88638 -0.14995817 -0.18288283)
(119.9477 -0.14321672 -0.19232915)
(119.91345 -0.12977918 -0.22483997)
(119.94331 -0.1302189 -0.22858732)
(119.92413 -0.12090286 -0.26395689)
(119.88742 -0.11921549 -0.26225581)
(119.83449 -0.16306497 -0.31047604)
(119.86487 -0.1756164 -0.25983791)
(119.90637 -0.17362957 -0.26899161)
(119.88177 -0.16260074 -0.31414922)
(119.93164 -0.16076134 -0.30301883)
(119.96658 -0.11401028 -0.25139472)
(120.02371 -0.072341193 -0.14526535)
(120.04913 -0.026592849 -0.066594969)
(120.05453 -0.0082168579 -0.081785814)
(120.01765 -0.049339271 -0.16859073)
(119.9423 -0.058073054 -0.19916833)
(119.93405 -0.018715676 -0.21355047)
(119.87137 -0.016699083 -0.21708411)
(119.75924 -0.031936759 -0.33579809)
(119.78391 -0.10361176 -0.30986183)
(119.86819 -0.10194903 -0.28529506)
(119.90819 -0.10397208 -0.29218306)
(119.89784 -0.078414074 -0.31923378)
(119.85198 -0.075465301 -0.3115528)
(119.78233 -0.10671324 -0.38441348)
(119.80488 -0.14154527 -0.34761253)
(119.85463 -0.14373122 -0.36087356)
(119.83968 -0.11078063 -0.39823584)
(119.82612 -0.069234532 -0.42470654)
(119.8909 -0.049521379 -0.33432916)
(119.84396 -0.047542982 -0.32248755)
(119.83921 -0.012294344 -0.33091391)
(119.88816 -0.013398792 -0.34316165)
(119.82205 -0.019838338 -0.43568372)
(119.76187 -0.017965221 -0.41130635)
(119.76779 -0.065518111 -0.40207826)
(119.65591 -0.085743703 -0.48786347)
(119.67972 -0.1427314 -0.46575666)
(119.7145 -0.18723033 -0.41337226)
(119.75918 -0.21673029 -0.36339188)
(119.8096 -0.2201991 -0.29321331)
(119.88355 -0.22712393 -0.22960529)
(119.94669 -0.19196074 -0.14775242)
(119.98401 -0.13893049 -0.095618905)
(120.00102 -0.09163389 -0.046582043)
(119.95566 -0.098170545 -0.051066916)
(119.92682 -0.093417643 -0.045827474)
(119.81172 -0.13781196 -0.097521787)
(119.84771 -0.16260431 -0.11220239)
(119.76641 -0.22358268 -0.048749577)
(119.93226 -0.12083513 -0.01930036)
(119.89876 -0.11079437 -0.017045102)
(119.72921 -0.18198836 -0.041796795)
(119.48769 -0.23786131 -0.1092068)
(119.59516 -0.18992881 -0.1404152)
(119.71456 -0.14358417 -0.14423725)
(119.72181 -0.16329103 -0.16410151)
(119.5994 -0.15684215 -0.21195443)
(119.59847 -0.1371116 -0.18822924)
(119.40717 -0.20368337 -0.2074259)
(119.40801 -0.22647698 -0.23086146)
(119.59569 -0.21400765 -0.16097833)
(119.61047 -0.23851206 -0.17702884)
(119.7361 -0.17334294 -0.17430959)
(119.75292 -0.2019091 -0.20327062)
(119.62623 -0.20874019 -0.27948935)
(119.61439 -0.17256886 -0.23626324)
(119.41135 -0.26977216 -0.27425188)
(119.42618 -0.32360372 -0.32801683)
(119.62238 -0.28155801 -0.21387508)
(119.50266 -0.37018983 -0.16831624)
(119.49914 -0.30558708 -0.13768988)
(119.48823 -0.26910102 -0.12562324)
(119.15377 -0.33849086 -0.21178194)
(119.15834 -0.29773852 -0.18764715)
(118.93342 -0.36732722 -0.090884191)
(119.40135 -0.26713601 -0.040940013)
(119.40138 -0.29635419 -0.045005659)
(118.92028 -0.41200012 -0.1023801)
(118.91071 -0.49021192 -0.11904391)
(119.15388 -0.40997994 -0.247094)
(119.16979 -0.50059058 -0.30681601)
(118.92586 -0.5946279 -0.15055024)
(119.42021 -0.40143592 -0.05750746)
(119.41648 -0.32983664 -0.046706411)
(119.4162 -0.33043406 0.043996807)
(119.7663 -0.22350831 0.047377736)
(119.93209 -0.12103033 0.01801552)
(119.99668 -0.048527096 0.012563051)
(119.59229 -0.14112805 0.1907747)
(119.39932 -0.20944325 0.2063786)
(119.15077 -0.29973019 0.18586597)
(118.92728 -0.3714803 0.084239214)
(119.40021 -0.26854531 0.03788806)
(119.72913 -0.18230364 0.040434418)
(119.89872 -0.11101351 0.015954261)
(119.92644 -0.094535516 0.044907647)
(119.95536 -0.099484288 0.050026692)
(119.84654 -0.16484627 0.11100929)
(119.81053 -0.13975946 0.096489034)
(119.59207 -0.19285218 0.13910492)
(119.48551 -0.23840492 0.10745838)
(119.48651 -0.26893036 0.12334251)
(119.40073 -0.29750801 0.041969024)
(118.91414 -0.41565227 0.095377693)
(119.14654 -0.33994729 0.20928777)
(119.1473 -0.41028922 0.24326478)
(118.90508 -0.49197397 0.11151842)
(118.92125 -0.59418813 0.1414956)
(119.42035 -0.40121497 0.054897923)
(119.50162 -0.36838242 0.16461594)
(119.49787 -0.30463346 0.13488747)
(119.60816 -0.24143669 0.17466531)
(119.59298 -0.21701532 0.15912306)
(119.40064 -0.23306328 0.22897314)
(119.59331 -0.16159292 0.21472082)
(119.81061 -0.097358041 0.1375237)
(119.71148 -0.1462975 0.14473063)
(119.71884 -0.16625014 0.16458529)
(119.73307 -0.17644803 0.17464034)
(119.84674 -0.11187732 0.16257169)
(119.74953 -0.20551853 0.20356702)
(119.62016 -0.28449403 0.21087656)
(119.42078 -0.33048625 0.32357664)
(119.16395 -0.49935262 0.30046223)
(118.52047 -0.62181047 0.62021732)
(117.29586 -0.88615274 0.51732216)
(117.35139 -0.87705419 -0.5545696)
(118.55328 -0.62501279 -0.6249891)
(119.18434 -0.29692488 -0.49517703)
(119.51503 -0.16054131 -0.35912916)
(119.51105 -0.13115534 -0.29541142)
(119.44236 -0.037939939 -0.31262178)
(119.4482 -0.046765775 -0.38191611)
(118.97915 -0.12615299 -0.5779613)
(118.96041 -0.09923374 -0.47854643)
(119.16889 -0.23778849 -0.40575872)
(118.53867 -0.49014967 -0.49009258)
(117.54435 -0.37103157 -0.65828283)
(117.44746 -0.51182764 -0.8576439)
(110.96888 -1.6010629 -1.6562014)
(112.92526 -1.0745932 -1.1438997)
(117.46249 -0.67195746 -0.40600367)
(117.41637 -0.68122046 0.37579047)
(112.69661 -1.0928458 1.0570635)
(110.64785 -1.604451 1.545852)
(117.31147 -0.55456197 0.89963731)
(117.43012 -0.40064556 0.68894636)
(118.50463 -0.48999916 0.48942175)
(119.14908 -0.25044136 0.4069074)
(119.40496 -0.27682921 0.27124118)
(119.60839 -0.17764313 0.23873844)
(119.62017 -0.21444272 0.2813975)
(119.5028 -0.16890952 0.36685858)
(119.16792 -0.31053006 0.49447892)
(118.93266 -0.15769157 0.58590525)
(118.9126 -0.12241191 0.48615899)
(119.41955 -0.047254446 0.3287369)
(119.76688 -0.048433099 0.21985939)
(119.49897 -0.1380754 0.30318776)
(119.42329 -0.059548333 0.39957301)
(119.50511 -0.070871697 0.48071258)
(119.03601 -0.20565857 0.76307671)
(117.29978 -0.76426927 1.2860315)
(107.99865 -2.253707 2.1684343)
(108.43682 -2.2853649 -2.2960443)
(117.44841 -0.70574404 -1.2380984)
(119.07569 -0.16562518 -0.74889145)
(119.52936 -0.056362692 -0.46284066)
(119.5827 -0.18317324 -0.42394274)
(119.69199 -0.23660806 -0.31658744)
(119.80703 -0.21057137 -0.2123053)
(119.88542 -0.18274391 -0.15377426)
(119.94358 -0.13916766 -0.093928343)
(119.90671 -0.1854514 -0.08750051)
(119.95887 -0.17571986 -0.091624596)
(119.91117 -0.22735625 -0.13541087)
(119.83185 -0.25705213 -0.15254237)
(119.8624 -0.26173088 -0.18109624)
(119.90392 -0.27092128 -0.1797554)
(119.94103 -0.23128369 -0.1365561)
(119.92042 -0.26940998 -0.12779171)
(119.8836 -0.26755084 -0.1251649)
(119.83034 -0.31512667 -0.16942393)
(119.87785 -0.31870331 -0.16971427)
(119.92762 -0.30768149 -0.16915423)
(119.95401 -0.25928056 -0.17328456)
(120.02382 -0.16369483 -0.12767501)
(120.03222 -0.11524564 -0.080345141)
(120.05008 -0.068603178 -0.031797343)
(120.06795 -0.078534453 -0.057223846)
(120.0896 -0.11078762 -0.088953406)
(120.05972 -0.16721233 -0.10116545)
(120.07712 -0.10430257 -0.059448292)
(120.02211 -0.1496397 -0.079987594)
(119.97954 -0.21764757 -0.12863911)
(120.02266 -0.19785255 -0.11758882)
(120.01282 -0.2393683 -0.16035638)
(119.99326 -0.28638235 -0.15932641)
(120.01221 -0.23769647 -0.11340931)
(119.96305 -0.25714833 -0.12193532)
(119.95135 -0.28910707 -0.10838756)
(120.01449 -0.17934758 -0.057476907)
(120.05573 -0.090117261 -0.013304094)
(119.98855 -0.11840284 -0.01864484)
(119.88143 -0.210367 -0.059510292)
(119.93782 -0.20884615 -0.064602026)
(119.86297 -0.29354786 -0.10817482)
(119.77677 -0.31992101 -0.11027048)
(119.79859 -0.35572252 -0.14864597)
(119.84839 -0.36960766 -0.15171157)
(119.90293 -0.30110237 -0.11124621)
(119.89045 -0.33250472 -0.08566034)
(119.84446 -0.3238659 -0.08147575)
(119.77304 -0.3970314 -0.11403729)
(119.83097 -0.41149232 -0.11915858)
(119.81413 -0.44325336 -0.07712596)
(119.88156 -0.35152377 -0.055921282)
(119.92712 -0.22911109 -0.023485306)
(119.86428 -0.23070775 -0.020502239)
(119.74679 -0.35226956 -0.037626594)
(119.83468 -0.33778857 -0.052846248)
(119.75538 -0.41854473 -0.072315986)
(119.74648 -0.43175997 -0.0233821)
(119.82785 -0.34954378 -0.016196527)
(119.87681 -0.36415936 -0.018217226)
(119.80743 -0.45853549 -0.026134256)
(119.88148 -0.46145475 -0.028185201)
(119.88613 -0.44319588 -0.081578772)
(119.89517 -0.4077702 -0.12281095)
(119.90755 -0.36299684 -0.15378905)
(119.98369 -0.33940403 -0.14696108)
(120.00699 -0.26791669 -0.10121132)
(120.00704 -0.29768089 -0.079003269)
(119.94402 -0.32052028 -0.083605993)
(119.9392 -0.34029778 -0.056133679)
(120.01343 -0.19694676 -0.021781036)
(120.0932 -0.12788551 -0.016790698)
(120.08322 -0.12053059 -0.040114059)
(120.05746 -0.22743769 -0.087251802)
(120.05721 -0.20250494 -0.097413245)
(120.09552 -0.15506449 -0.075864753)
(120.09056 -0.12506449 -0.077585852)
(120.10953 -0.15174166 -0.10660013)
(120.06634 -0.20235091 -0.13812458)
(120.05757 -0.24630516 -0.13867468)
(120.11155 -0.19080009 -0.10943524)
(120.12371 -0.22280617 -0.10038748)
(120.10152 -0.17224755 -0.066546549)
(120.11399 -0.18692311 -0.052367764)
(120.06405 -0.25123157 -0.068636353)
(120.06882 -0.32662955 -0.10639436)
(120.0596 -0.29141176 -0.12930341)
(120.02485 -0.37182639 -0.18545386)
(120.02573 -0.33982088 -0.18991644)
(120.03039 -0.30418993 -0.19254756)
(120.06875 -0.23859727 -0.17545042)
(120.10996 -0.13155893 -0.13675561)
(120.08976 -0.082157959 -0.11225054)
(120.06754 -0.050799323 -0.078534199)
(120.03261 -0.074389457 -0.11497013)
(120.02462 -0.12195092 -0.16457878)
(119.98165 -0.12152394 -0.21499219)
(120.02434 -0.10931028 -0.19502453)
(120.01522 -0.10401651 -0.23137622)
(119.99698 -0.14919899 -0.28132591)
(120.01494 -0.1518995 -0.23759902)
(119.95634 -0.16624363 -0.2575566)
(119.92593 -0.22028415 -0.30452538)
(120.00113 -0.20533606 -0.2090578)
(120.00155 -0.20003214 -0.281414)
(119.9573 -0.20633142 -0.33684522)
(119.92145 -0.21392977 -0.34752067)
(119.88792 -0.21481082 -0.34953686)
(119.81724 -0.23060375 -0.38286945)
(119.86113 -0.22850338 -0.30827636)
(119.80772 -0.30935174 -0.36829347)
(119.73532 -0.3003692 -0.34396737)
(119.67223 -0.29939731 -0.43672814)
(119.75354 -0.31646075 -0.46207538)
(119.65347 -0.44954142 -0.54889282)
(119.73841 -0.40391547 -0.4072871)
(119.80617 -0.36742798 -0.31428899)
(119.85899 -0.30901558 -0.23399051)
(119.80722 -0.29418473 -0.22512107)
(119.68852 -0.31849868 -0.24199552)
(119.73356 -0.34353935 -0.30470851)
(119.66792 -0.4392014 -0.30633113)
(119.75477 -0.36730918 -0.22313528)
(119.81336 -0.38642306 -0.23770743)
(119.74993 -0.46395968 -0.32389064)
(119.65102 -0.54796391 -0.45639385)
(119.55859 -0.50095264 -0.40343126)
(119.65859 -0.3728369 -0.37560762)
(119.48333 -0.40389726 -0.40776413)
(119.56162 -0.39716378 -0.50115051)
(119.42873 -0.56038482 -0.56504981)
(119.55375 -0.62587874 -0.63088132)
(119.70823 -0.58370705 -0.58848711)
(119.74287 -0.50469341 -0.5579411)
(119.78189 -0.41759705 -0.50222055)
(119.81142 -0.35469383 -0.4638949)
(119.84173 -0.29235284 -0.42162309)
(119.86308 -0.2532273 -0.3880898)
(119.90527 -0.24825624 -0.38667984)
(119.89193 -0.2416229 -0.42667049)
(119.9071 -0.20564391 -0.38158725)
(119.86651 -0.20632816 -0.38586436)
(119.84475 -0.24579421 -0.43135722)
(119.81856 -0.29394583 -0.47442928)
(119.87234 -0.29562552 -0.47533926)
(119.88988 -0.29120818 -0.42172909)
(119.89171 -0.3045806 -0.36832456)
(119.99819 -0.27956744 -0.34705973)
(119.93997 -0.28300902 -0.41416313)
(119.94694 -0.24073053 -0.37609442)
(119.99373 -0.22866309 -0.36184416)
(119.99723 -0.19648511 -0.32276244)
(119.98924 -0.1912957 -0.35723472)
(119.94532 -0.19940301 -0.37215499)
(119.93478 -0.23638121 -0.4186704)
(119.98549 -0.22629056 -0.40366536)
(119.98803 -0.27869736 -0.45625438)
(119.99559 -0.26903518 -0.39936956)
(120.00185 -0.32584441 -0.44449053)
(119.93364 -0.34192079 -0.45878378)
(119.87352 -0.34986877 -0.46696421)
(119.85845 -0.35257579 -0.53082662)
(119.79021 -0.35518382 -0.52997785)
(119.75222 -0.42977046 -0.58243824)
(119.83357 -0.43774236 -0.59153585)
(119.85341 -0.42069204 -0.50889317)
(119.84766 -0.41669406 -0.42073979)
(119.89022 -0.3669739 -0.31029447)
(119.92383 -0.30495615 -0.22650915)
(119.99956 -0.28158946 -0.20782924)
(119.99673 -0.34478452 -0.2871562)
(119.93679 -0.41514874 -0.29233612)
(119.94357 -0.37823546 -0.24981889)
(119.95392 -0.33988205 -0.21525427)
(119.91799 -0.35050434 -0.22200628)
(119.88451 -0.35239584 -0.22215399)
(119.85964 -0.39026449 -0.26054533)
(119.90182 -0.38886714 -0.25633449)
(119.88723 -0.43060232 -0.25056159)
(119.90242 -0.38646154 -0.21434989)
(119.86179 -0.39063697 -0.21414458)
(119.84 -0.43530137 -0.25385215)
(119.81385 -0.47750397 -0.30232267)
(119.8385 -0.42294728 -0.29970746)
(119.88668 -0.42288787 -0.29940172)
(119.87057 -0.46677401 -0.35805821)
(119.80847 -0.46400236 -0.36198224)
(119.78567 -0.53175988 -0.36379263)
(119.85401 -0.53232477 -0.36221643)
(119.86772 -0.4782509 -0.30501007)
(119.92328 -0.47377691 -0.30117997)
(119.93008 -0.42285957 -0.2466378)
(119.94067 -0.37733942 -0.2091853)
(119.98485 -0.36286477 -0.20237795)
(119.99408 -0.32608662 -0.20660517)
(119.99051 -0.36415333 -0.23904479)
(119.98097 -0.40815761 -0.23792594)
(119.98347 -0.45947388 -0.29118857)
(119.99251 -0.40036002 -0.27980625)
(119.99902 -0.44364825 -0.33689999)
(119.93074 -0.45822623 -0.35135689)
(119.91789 -0.52914477 -0.35983012)
(119.99245 -0.51534591 -0.34841129)
(120.0659 -0.48683137 -0.32737506)
(120.06218 -0.41570371 -0.31323896)
(120.0947 -0.2903811 -0.23831235)
(120.17496 -0.20868882 -0.17209808)
(120.12609 -0.17403489 -0.13212509)
(120.09927 -0.24248548 -0.15587934)
(120.06892 -0.27482885 -0.17464919)
(120.0798 -0.30818202 -0.20158105)
(120.03482 -0.33983811 -0.2225529)
(120.03055 -0.38302386 -0.22355883)
(120.07968 -0.35023157 -0.20488433)
(120.06837 -0.30930074 -0.17407046)
(120.10277 -0.27316755 -0.15443824)
(120.13332 -0.22886446 -0.12990964)
(120.12596 -0.2019882 -0.12958055)
(120.14753 -0.22522062 -0.14695246)
(120.11651 -0.26959853 -0.17782929)
(120.12118 -0.30617218 -0.17931625)
(120.156 -0.2583139 -0.15096747)
(120.19154 -0.28881892 -0.1794384)
(120.17478 -0.24489984 -0.16669514)
(120.13911 -0.29692466 -0.20464916)
(120.097 -0.3389264 -0.23429982)
(120.04375 -0.3753608 -0.2598834)
(120.0442 -0.43340601 -0.27312659)
(120.10195 -0.39554035 -0.2494789)
(120.1359 -0.44400866 -0.29838948)
(120.12624 -0.37534842 -0.28160348)
(120.17744 -0.32782508 -0.24428156)
(120.21915 -0.26638709 -0.19620749)
(120.24167 -0.31943832 -0.21104758)
(120.19536 -0.38713568 -0.25694179)
(120.15189 -0.34649045 -0.21634679)
(120.17038 -0.39264139 -0.22058992)
(120.13253 -0.34308952 -0.18182905)
(120.10851 -0.29818528 -0.15172703)
(120.07144 -0.3384173 -0.17016606)
(120.08631 -0.39288177 -0.20585406)
(120.03254 -0.42923475 -0.2238982)
(119.97741 -0.45630886 -0.235906)
(119.98096 -0.39671337 -0.19582052)
(119.93248 -0.41202324 -0.20141444)
(119.89041 -0.42105776 -0.20400883)
(119.84698 -0.42216119 -0.20282143)
(119.76659 -0.45777822 -0.21086127)
(119.70714 -0.42107314 -0.19498887)
(119.57125 -0.4350327 -0.19181048)
(119.60086 -0.51465021 -0.28086221)
(119.68215 -0.57000729 -0.30492715)
(119.64225 -0.66921178 -0.25111029)
(119.73764 -0.52297983 -0.16901924)
(119.66805 -0.4789795 -0.15127076)
(119.54364 -0.60250488 -0.22388791)
(119.37137 -0.74397074 -0.32035724)
(119.45812 -0.60894717 -0.38753352)
(119.23681 -0.63795345 -0.39271367)
(119.28294 -0.71062892 -0.58606341)
(119.41541 -0.85299512 -0.67886858)
(119.55024 -0.7054773 -0.45176612)
(119.48729 -0.86535215 -0.39452252)
(119.3198 -1.1091033 -0.64721657)
(119.13923 -0.93316791 -0.5335148)
(118.99306 -1.0165622 -0.41484714)
(119.30154 -0.79761937 -0.21823978)
(119.50231 -0.63792628 -0.14244006)
(119.63886 -0.50581897 -0.094352781)
(119.50352 -0.483699 -0.067528905)
(119.62607 -0.52308605 -0.032004768)
(119.70091 -0.59222422 -0.038220075)
(119.71129 -0.56894894 -0.10718518)
(119.60483 -0.73760121 -0.16381724)
(119.59256 -0.7701806 -0.059003906)
(119.48536 -0.66177018 -0.049496712)
(119.26949 -0.84072009 -0.079662021)
(119.0248 -0.77275968 -0.19488425)
(118.88131 -1.1167715 -0.18483634)
(119.06049 -1.4243075 -0.23621487)
(119.17137 -1.3101411 -0.51711384)
(119.42149 -0.97784797 -0.27415771)
(119.39585 -1.0331996 -0.10743608)
(119.61074 -1.0486343 -0.14539093)
(119.62109 -1.0197147 -0.22666186)
(119.63261 -0.9637908 -0.29681089)
(119.65325 -0.90454532 -0.35333177)
(119.67048 -0.8217593 -0.39514133)
(119.69242 -0.74505247 -0.42269059)
(119.71564 -0.65692862 -0.43210663)
(119.74824 -0.58276735 -0.43820668)
(119.7795 -0.50099349 -0.4244231)
(119.85112 -0.50715973 -0.42840265)
(119.83119 -0.56513683 -0.51244573)
(119.74149 -0.55503022 -0.51068921)
(119.71316 -0.6505633 -0.52942676)
(119.81467 -0.65932068 -0.53551267)
(119.82973 -0.59135653 -0.44721004)
(119.9133 -0.59258035 -0.44668697)
(119.92399 -0.50149086 -0.42209766)
(119.98919 -0.39007664 -0.39590517)
(119.92632 -0.41311025 -0.50378255)
(120.00741 -0.39615146 -0.48935823)
(120.00802 -0.42192659 -0.58013094)
(119.99689 -0.33530295 -0.51399781)
(119.92242 -0.34853791 -0.52775735)
(119.92799 -0.29028042 -0.47076067)
(119.92132 -0.28352804 -0.52618738)
(119.92786 -0.23089582 -0.46428859)
(119.93838 -0.19086826 -0.40417748)
(119.98963 -0.13529194 -0.32853051)
(120.01131 -0.090994768 -0.25713195)
(119.95633 -0.099925757 -0.27941547)
(119.95107 -0.07511632 -0.305943)
(120.01333 -0.068513849 -0.28094311)
(119.99072 -0.10683001 -0.36465432)
(119.9042 -0.11278591 -0.39293696)
(119.91381 -0.14436711 -0.35347863)
(119.85294 -0.1944367 -0.41528947)
(119.77376 -0.20223612 -0.44992912)
(119.74845 -0.15925138 -0.50961118)
(119.65495 -0.23834187 -0.6566011)
(119.69002 -0.29487104 -0.56364239)
(119.60919 -0.27137061 -0.50808314)
(119.55829 -0.21183147 -0.58918772)
(119.52538 -0.12876679 -0.61810527)
(119.625 -0.14865236 -0.71651086)
(119.72728 -0.09714375 -0.54914304)
(119.72138 -0.029122536 -0.56633948)
(119.64804 -0.024170955 -0.49960497)
(119.51736 -0.034630049 -0.63342513)
(119.62055 -0.042483523 -0.74039565)
(119.43111 -0.075286205 -0.99792603)
(119.44361 -0.25180541 -0.95623856)
(119.50011 -0.37880452 -0.85514218)
(119.5575 -0.4410099 -0.70207426)
(119.46587 -0.37756665 -0.60468762)
(119.24958 -0.38103863 -0.63175363)
(119.38733 -0.30611641 -0.73212566)
(119.1542 -0.5155197 -0.9258149)
(119.28804 -0.57614066 -0.71106441)
(119.4198 -0.6690496 -0.85391172)
(119.32849 -0.62982336 -1.1033111)
(119.18478 -0.48764869 -1.2889118)
(119.02461 -0.38759709 -0.99525638)
(119.33036 -0.1992988 -0.77675982)
(119.31374 -0.053830944 -0.80690566)
(118.93878 -0.13169413 -1.0727088)
(119.08907 -0.17386005 -1.3814575)
(119.39828 -0.25404533 -1.462507)
(119.55366 -0.17229474 -1.2333208)
(119.63464 -0.1177883 -1.0189343)
(119.70512 -0.088667207 -0.87382395)
(119.74267 -0.067642316 -0.73939454)
(119.78275 -0.055587898 -0.64701202)
(119.81112 -0.04574017 -0.55313135)
(119.89652 -0.020454183 -0.43479929)
(119.94758 -0.012268007 -0.33016301)
(120.01868 -0.015641164 -0.178844)
(120.09369 -0.0094026353 -0.1080237)
(120.08334 -0.030599358 -0.109302)
(120.07687 -0.050725749 -0.099971509)
(120.06076 -0.092189234 -0.16454469)
(120.09066 -0.068060996 -0.1224767)
(120.09599 -0.06464924 -0.14838755)
(120.05918 -0.08698168 -0.19592983)
(120.0604 -0.12673812 -0.24075622)
(120.06785 -0.12856515 -0.20077021)
(120.11014 -0.096126312 -0.15026096)
(120.11281 -0.096319971 -0.18510868)
(120.12589 -0.084829379 -0.20970238)
(120.10237 -0.054114303 -0.16041462)
(120.0604 -0.075783603 -0.21593136)
(120.06833 -0.056836476 -0.2331692)
(120.1153 -0.039406789 -0.1679257)
(120.14537 -0.06591908 -0.22372475)
(120.07555 -0.091120479 -0.30649157)
(120.06419 -0.11537046 -0.27907845)
(120.02998 -0.17206356 -0.36254539)
(120.02975 -0.17762661 -0.33381993)
(120.03326 -0.18147464 -0.30082752)
(120.07037 -0.1661932 -0.2387625)
(120.12686 -0.12162194 -0.17451299)
(120.10106 -0.14305201 -0.23895794)
(120.07129 -0.16247826 -0.27125212)
(120.07174 -0.1605425 -0.30289325)
(120.0833 -0.19030294 -0.34505062)
(120.08234 -0.18875952 -0.3057428)
(120.03777 -0.21100572 -0.33753702)
(120.03476 -0.21035666 -0.37813567)
(120.04852 -0.25876476 -0.42993634)
(120.04662 -0.24778608 -0.37450074)
(120.09597 -0.22888594 -0.29347469)
(120.17565 -0.16083513 -0.21268258)
(120.14107 -0.1899019 -0.2962437)
(120.11846 -0.1640945 -0.26723733)
(120.14874 -0.13241795 -0.22280887)
(120.12695 -0.11610067 -0.19837913)
(120.13481 -0.11473368 -0.22208948)
(120.10534 -0.13999247 -0.26654067)
(120.12401 -0.16341694 -0.30070169)
(120.15775 -0.13419781 -0.25271991)
(120.1935 -0.16043407 -0.28475215)
(120.17602 -0.1509192 -0.24423848)
(120.22038 -0.17902369 -0.2684486)
(120.17936 -0.22842767 -0.32962671)
(120.12859 -0.26721786 -0.37682298)
(120.09948 -0.22070066 -0.33805872)
(120.10577 -0.23338929 -0.39180879)
(120.13975 -0.28097058 -0.44260678)
(120.07019 -0.31207273 -0.48545811)
(120.06487 -0.30064366 -0.41687953)
(120.08111 -0.36721188 -0.46028655)
(120.11909 -0.32795906 -0.33574947)
(120.22638 -0.23063832 -0.24045749)
(120.21421 -0.27736593 -0.36234254)
(120.15587 -0.32705972 -0.41597164)
(120.18172 -0.35506691 -0.50072548)
(120.09791 -0.39431396 -0.5496572)
(120.13366 -0.48378734 -0.62019534)
(120.10839 -0.45102919 -0.51834322)
(120.01756 -0.48441673 -0.55087104)
(119.91838 -0.50039104 -0.56431735)
(119.83265 -0.505472 -0.56869466)
(119.81765 -0.52656071 -0.66146128)
(119.71625 -0.52153515 -0.65206944)
(119.67429 -0.62400804 -0.70433612)
(119.79115 -0.64773964 -0.7253335)
(119.81013 -0.59743487 -0.60305519)
(119.78962 -0.72120144 -0.6554425)
(119.67263 -0.70099756 -0.63088154)
(119.63509 -0.76142398 -0.76685578)
(119.77644 -0.78659383 -0.79282191)
(119.91464 -0.80394223 -0.811813)
(119.91218 -0.65628224 -0.73713359)
(119.91301 -0.52824245 -0.66548534)
(119.91733 -0.43545721 -0.59313437)
(119.91385 -0.44007064 -0.6829658)
(119.91718 -0.3501558 -0.59896669)
(119.8411 -0.34986985 -0.59860573)
(119.85686 -0.2851051 -0.52871579)
(119.87823 -0.23359134 -0.47164989)
(119.89645 -0.19464854 -0.41380586)
(119.88918 -0.17950084 -0.44717545)
(119.8399 -0.17855651 -0.45036027)
(119.81539 -0.21884615 -0.51233564)
(119.82778 -0.23472714 -0.4715211)
(119.79726 -0.28111858 -0.52146031)
(119.7821 -0.26488676 -0.57358008)
(119.84897 -0.27098407 -0.58067301)
(119.87192 -0.21866183 -0.51014044)
(119.92452 -0.21675028 -0.50368414)
(119.93495 -0.17592633 -0.43738668)
(119.98804 -0.17028062 -0.42011453)
(119.98656 -0.18375429 -0.3881292)
(119.98347 -0.22293188 -0.44857976)
(119.98624 -0.21059555 -0.48703423)
(119.99021 -0.19360341 -0.52904303)
(119.99031 -0.1554026 -0.4477415)
(119.9331 -0.15990922 -0.46618265)
(119.88396 -0.16150178 -0.47638749)
(119.83233 -0.16005224 -0.47674398)
(119.82329 -0.13452709 -0.50618448)
(119.87989 -0.13681798 -0.50542921)
(119.86135 -0.16943162 -0.58676353)
(119.86465 -0.19771504 -0.55245602)
(119.80511 -0.19654245 -0.54974081)
(119.79672 -0.1669206 -0.58488857)
(119.75932 -0.20472377 -0.6641241)
(119.76929 -0.23893788 -0.61856186)
(119.84105 -0.24603822 -0.63264244)
(119.83679 -0.21424829 -0.67980847)
(119.82164 -0.27623411 -0.79696582)
(119.82498 -0.31253864 -0.73421687)
(119.83415 -0.33816862 -0.66642038)
(119.74962 -0.33320517 -0.65749344)
(119.76622 -0.34699498 -0.58872787)
(119.72166 -0.42209933 -0.65472693)
(119.81398 -0.43608734 -0.67600477)
(119.80482 -0.42908703 -0.76373249)
(119.70073 -0.41077814 -0.74033854)
(119.65798 -0.52634212 -0.85270932)
(119.682 -0.52645931 -0.74127783)
(119.79572 -0.54217897 -0.76661724)
(119.78814 -0.54609753 -0.87913678)
(119.9163 -0.56070559 -0.89765755)
(119.91465 -0.43642202 -0.77587005)
(119.91605 -0.34081703 -0.67022307)
(119.9189 -0.27074571 -0.58009324)
(119.99362 -0.26439159 -0.5654245)
(119.98834 -0.27481585 -0.51177535)
(120.00068 -0.34076955 -0.58605899)
(120.00989 -0.33465677 -0.65786883)
(120.02022 -0.31642989 -0.73030614)
(120.0003 -0.24507794 -0.61933056)
(119.91861 -0.24884157 -0.63402079)
(119.92329 -0.19798439 -0.5464214)
(119.92297 -0.17008339 -0.58186503)
(119.93255 -0.13515923 -0.49524032)
(119.99437 -0.13196707 -0.47582554)
(119.99546 -0.16727964 -0.56386126)
(120.00768 -0.21606678 -0.66910897)
(119.91932 -0.21774116 -0.68361247)
(119.91901 -0.28446916 -0.80874608)
(119.91731 -0.3190222 -0.74164413)
(119.91724 -0.41708222 -0.87026728)
(119.79395 -0.4037304 -0.85216529)
(119.68111 -0.38114905 -0.81411449)
(119.73492 -0.30429735 -0.71522211)
(119.72402 -0.26496294 -0.77629419)
(119.71221 -0.21404776 -0.81856154)
(119.74931 -0.16393224 -0.69688587)
(119.78879 -0.13367242 -0.61245227)
(119.81742 -0.10843902 -0.52548729)
(119.89819 -0.071958732 -0.42203049)
(119.9481 -0.048485513 -0.32105058)
(120.01517 -0.044142583 -0.29406309)
(120.01796 -0.010479442 -0.30192274)
(119.99672 -0.018771027 -0.40304572)
(119.99363 -0.068585372 -0.391469)
(120.08697 -0.058466734 -0.32585368)
(120.07376 -0.036463526 -0.24147841)
(120.12386 -0.024562069 -0.16951388)
(120.13088 -0.0043390033 -0.1701122)
(120.07902 -0.0080517005 -0.24642698)
(120.09427 -0.014929954 -0.3337091)
(120.1734 -0.0093770669 -0.23381771)
(120.16311 -0.041099189 -0.2317091)
(120.16316 -0.081090178 -0.35427052)
(120.15274 -0.098753092 -0.34194528)
(120.13718 -0.11596336 -0.3249271)
(120.12573 -0.12661328 -0.30844806)
(120.11183 -0.13582671 -0.28774777)
(120.07578 -0.1553118 -0.32844158)
(120.08609 -0.14464453 -0.35408408)
(120.03602 -0.15999563 -0.39205216)
(120.046 -0.19851586 -0.45699434)
(120.03817 -0.20916371 -0.42070234)
(120.09125 -0.18938908 -0.38365032)
(120.10438 -0.18040593 -0.41595771)
(120.15361 -0.155947 -0.35949048)
(120.13637 -0.16382461 -0.33317829)
(120.17325 -0.13342633 -0.27789916)
(120.14412 -0.11055869 -0.2379747)
(120.16069 -0.10239528 -0.25219607)
(120.19366 -0.12675671 -0.29721042)
(120.21512 -0.11687626 -0.31614408)
(120.17444 -0.093497116 -0.2627878)
(120.19236 -0.078773767 -0.27322637)
(120.23672 -0.10102525 -0.33156799)
(120.19095 -0.12561551 -0.40927672)
(120.17218 -0.1447272 -0.38660763)
(120.1188 -0.16715693 -0.45027677)
(120.0952 -0.13273884 -0.37545311)
(120.04134 -0.14663691 -0.41709214)
(120.04956 -0.12476379 -0.4427593)
(120.10759 -0.11299095 -0.39729982)
(120.13378 -0.14541878 -0.47899364)
(120.06541 -0.15919014 -0.5286029)
(120.05542 -0.18362101 -0.49593695)
(120.08255 -0.23323521 -0.58576348)
(120.0686 -0.24992126 -0.53456751)
(120.0562 -0.25799889 -0.48336928)
(120.11974 -0.23313253 -0.44084066)
(120.13892 -0.2267397 -0.48697675)
(120.18944 -0.28767168 -0.56982324)
(120.16185 -0.28933594 -0.50701728)
(120.08408 -0.32062546 -0.55560629)
(120.10271 -0.31732962 -0.62481582)
(120.12265 -0.30234605 -0.69446896)
(120.21821 -0.27542935 -0.63266977)
(120.15957 -0.21239771 -0.53266785)
(120.17952 -0.18926768 -0.57511079)
(120.09636 -0.20692908 -0.63320387)
(120.14098 -0.27457934 -0.76060325)
(120.03054 -0.28493391 -0.79863885)
(120.0374 -0.23794171 -0.86032136)
(120.01349 -0.17712083 -0.71358772)
(119.99973 -0.13667943 -0.59768842)
(119.99731 -0.10841707 -0.49751504)
(119.93215 -0.11073353 -0.51768099)
(119.8765 -0.11075057 -0.52795683)
(119.87483 -0.078149834 -0.54699532)
(119.81284 -0.076332426 -0.54424975)
(119.78493 -0.094874499 -0.63437871)
(119.85545 -0.09745668 -0.64196617)
(119.85646 -0.13633384 -0.61969765)
(119.92311 -0.1382996 -0.61582297)
(119.92392 -0.098364243 -0.63915495)
(119.93275 -0.077225174 -0.53683816)
(120.00089 -0.075534828 -0.51613728)
(120.00395 -0.097319444 -0.6208299)
(120.00681 -0.05683822 -0.63685698)
(120.00316 -0.045599703 -0.52625184)
(119.93343 -0.046815923 -0.54735092)
(119.87425 -0.046646147 -0.55754337)
(119.8747 -0.010058164 -0.56155599)
(119.81068 -0.010228979 -0.55708211)
(119.78306 -0.012481292 -0.65152118)
(119.85548 -0.012623241 -0.66197827)
(119.85451 -0.056614443 -0.65735333)
(119.92502 -0.057627528 -0.65515429)
(119.9266 -0.011589644 -0.65974518)
(119.93462 -0.0088849126 -0.55116259)
(120.00521 -0.0078569074 -0.52961058)
(120.00928 -0.010538235 -0.64101815)
(120.02454 -0.01395889 -0.77395524)
(120.02151 -0.07378949 -0.76806356)
(120.01853 -0.1289175 -0.74680356)
(119.92131 -0.1285032 -0.75988993)
(119.91997 -0.1771158 -0.72727105)
(119.83123 -0.17201449 -0.72065664)
(119.82977 -0.12511098 -0.7510506)
(119.74492 -0.11726843 -0.72494651)
(119.70755 -0.1545016 -0.85593933)
(119.81327 -0.16527409 -0.89171345)