/*--------------------------------*- C++ -*----------------------------------*\
  =========                 |
  \\      /  F ield         | OpenFOAM: The Open Source CFD Toolbox
   \\    /   O peration     | Website:  https://openfoam.org
    \\  /    A nd           | Version:  7
     \\/     M anipulation  |
\*---------------------------------------------------------------------------*/
FoamFile
{
    version     2.0;
    format      ascii;
    class       volScalarField;
    location    "320";
    object      rho;
}
// * * * * * * * * * * * * * * * * * * * * * * * * * * * * * * * * * * * * * //

dimensions      [1 -3 0 0 0 0 0];

internalField   nonuniform List<scalar> 
24789
(
1.1736336
1.1736502
1.1736605
1.173667
1.1736957
1.1736695
1.1736384
1.1736314
1.1736205
1.1736029
1.1735701
1.1735888
1.1736005
1.1736081
1.1736423
1.1736135
1.1735758
1.1735674
1.1735549
1.1735351
1.1734976
1.1735187
1.1735321
1.1735412
1.1735828
1.1735501
1.1735041
1.1734942
1.1734797
1.1734572
1.1734137
1.1734378
1.1734533
1.1734642
1.1735152
1.1734778
1.1734211
1.1734091
1.1733923
1.1733665
1.1733153
1.1733431
1.1733614
1.1733745
1.1734377
1.1733946
1.1733239
1.1733093
1.1732893
1.1732592
1.1731979
1.1732306
1.1732525
1.1732687
1.1733483
1.1732982
1.1732085
1.1731903
1.1731662
1.1731305
1.1730563
1.1730954
1.1731221
1.1731425
1.1732441
1.1731855
1.1730699
1.173047
1.1730173
1.172974
1.172883
1.1729308
1.172964
1.17299
1.1731217
1.1730524
1.1729017
1.1728721
1.1728349
1.1727816
1.1726687
1.1727282
1.1727702
1.1728039
1.1729766
1.1728936
1.1726951
1.1726566
1.172609
1.1725422
1.1724006
1.1724759
1.1725299
1.172574
1.1728025
1.172702
1.1724387
1.172388
1.1723265
1.1722413
1.1720621
1.1721586
1.1722287
1.1722871
1.1725906
1.1724665
1.1721167
1.1720496
1.1719695
1.1718599
1.1716322
1.1717564
1.1718478
1.171925
1.1723275
1.1721707
1.1717089
1.1716205
1.1715164
1.1713758
1.1710878
1.1712459
1.1713639
1.1714648
1.1719918
1.1717854
1.1711889
1.1710747
1.1709421
1.1707656
1.1704149
1.1706092
1.1707566
1.1708843
1.1715511
1.1712754
1.1705463
1.1704059
1.170245
1.1700351
1.1695946
1.1698112
1.1699808
1.170131
1.1709044
1.1705343
1.1697183
1.1695626
1.1693958
1.1691998
1.1692411
1.1693669
1.1695168
1.1696751
1.1705289
1.1696667
1.169003
1.1688759
1.1687686
1.1687187
1.1632844
1.1635839
1.1638104
1.1640614
1.1661846
1.1703824
1.1698865
1.1697555
1.1696204
1.1694194
1.1713364
1.1715558
1.1716625
1.1717793
1.17228
1.1742338
1.1738279
1.1737206
1.1735959
1.1733857
1.1775261
1.1778887
1.1781394
1.1783372
1.1784022
1.173537
1.1713546
1.1711167
1.1709111
1.1705235
1.1719259
1.1720797
1.1721218
1.1721399
1.1723656
1.1693826
1.1668953
1.1665571
1.1662201
1.16577
1.1648549
1.1650264
1.1651524
1.1653111
1.1668362
1.1697494
1.1689107
1.1687809
1.168665
1.1685896
1.1691031
1.1692401
1.1693911
1.1695463
1.1705197
1.170548
1.1696205
1.169467
1.1693036
1.1691135
1.1695034
1.1697123
1.1698791
1.1700285
1.1709239
1.1712958
1.1704411
1.1703001
1.1701409
1.1699392
1.1703122
1.1705004
1.1706477
1.1707773
1.1715694
1.1718
1.1710804
1.1709628
1.1708277
1.1706512
1.1709677
1.1711291
1.1712515
1.1713572
1.1720027
1.1721792
1.1716045
1.1715103
1.1714004
1.1712545
1.1715127
1.1716438
1.171742
1.1718254
1.172334
1.1724719
1.1720234
1.1719497
1.1718623
1.1717448
1.1719532
1.1720582
1.1721358
1.1722008
1.172595
1.1727059
1.1723598
1.1723026
1.1722337
1.1721398
1.1723072
1.1723911
1.1724522
1.1725025
1.172806
1.1728968
1.1726309
1.1725866
1.1725323
1.1724573
1.172592
1.1726593
1.1727075
1.1727464
1.1729795
1.173055
1.1728506
1.1728163
1.1727733
1.172713
1.1728219
1.1728762
1.1729145
1.1729448
1.1731242
1.1731878
1.17303
1.1730032
1.1729689
1.1729199
1.1730084
1.1730527
1.1730835
1.1731072
1.1732462
1.1733002
1.1731774
1.1731562
1.1731284
1.1730881
1.1731605
1.1731972
1.1732223
1.1732412
1.17335
1.1733962
1.1732994
1.1732825
1.1732596
1.173226
1.1732857
1.1733166
1.1733374
1.1733527
1.1734391
1.1734791
1.1734016
1.1733878
1.1733686
1.17334
1.1733899
1.1734165
1.173434
1.1734466
1.1735163
1.1735511
1.1734881
1.1734767
1.1734604
1.1734357
1.173478
1.1735011
1.1735162
1.1735266
1.1735836
1.1736142
1.1735624
1.1735528
1.1735388
1.1735171
1.1735535
1.1735739
1.1735869
1.1735957
1.1736429
1.1736702
1.1736272
1.173619
1.1736068
1.1735876
1.1736196
1.1736376
1.173649
1.1736564
1.1736961
1.1736734
1.1736309
1.1736229
1.1736109
1.1735921
1.1735586
1.1735786
1.1735913
1.1735999
1.1736458
1.1736171
1.1735667
1.1735574
1.1735437
1.1735224
1.1734838
1.1735064
1.1735212
1.1735314
1.1735868
1.1735544
1.1734932
1.1734821
1.1734662
1.1734419
1.1733967
1.1734227
1.1734399
1.1734521
1.1735199
1.173483
1.1734076
1.1733942
1.1733755
1.1733475
1.1732938
1.1733242
1.1733445
1.1733594
1.1734434
1.1734009
1.1733068
1.1732903
1.1732679
1.173235
1.1731704
1.1732064
1.1732309
1.1732493
1.1733551
1.1733057
1.1731863
1.1731657
1.1731386
1.1730992
1.1730206
1.1730639
1.173094
1.1731171
1.1732523
1.1731944
1.173041
1.1730149
1.1729814
1.1729335
1.172837
1.1728901
1.1729275
1.172957
1.1731315
1.1730631
1.1728641
1.1728307
1.1727888
1.1727298
1.1726107
1.1726764
1.1727235
1.1727614
1.1729883
1.1729064
1.1726474
1.1726043
1.1725513
1.172478
1.1723302
1.1724122
1.1724718
1.1725208
1.1728164
1.1727172
1.1723799
1.1723242
1.172257
1.1721653
1.1719813
1.172084
1.1721597
1.1722229
1.1726073
1.1724851
1.1720478
1.171976
1.1718908
1.171776
1.1715472
1.1716752
1.1717709
1.1718522
1.1723482
1.1721945
1.1716339
1.1715423
1.1714351
1.1712927
1.1710104
1.1711678
1.171287
1.1713897
1.1720194
1.171818
1.1711162
1.171002
1.1708706
1.170699
1.1703648
1.1705471
1.17069
1.1708157
1.1715879
1.1713182
1.1704852
1.1703487
1.1701947
1.1699997
1.1695809
1.1697803
1.1699406
1.1700847
1.170955
1.1705465
1.1696549
1.1695085
1.1693535
1.1691742
1.1691282
1.1692493
1.1693875
1.1695346
1.1704786
1.1700289
1.1692055
1.1690764
1.1689661
1.1689203
1.1657489
1.1658909
1.165981
1.1660958
1.167081
1.1674622
1.1631471
1.1626562
1.1621907
1.1615464
1.1790617
1.1789879
1.1788708
1.1786795
1.1764206
1.1727099
1.1706575
1.1703932
1.1701721
1.1697682
1.1770636
1.1774835
1.1777436
1.1779475
1.1777267
1.1741577
1.1741028
1.1740492
1.173962
1.1737472
1.1777653
1.177779
1.1777003
1.1775418
1.1760523
1.167348
1.1638946
1.1634098
1.1629265
1.1622966
1.1651734
1.1653318
1.1654207
1.1655407
1.1666038
1.1697698
1.1690461
1.1689169
1.1688085
1.1687598
1.1690705
1.1692086
1.1693575
1.1695113
1.1703607
1.1704767
1.1696692
1.1695157
1.169348
1.1691436
1.1695937
1.169816
1.1699858
1.1701338
1.1709031
1.1712734
1.1705558
1.1704193
1.1702617
1.1700547
1.1704442
1.1706336
1.170776
1.1708986
1.1715489
1.1717851
1.1712066
1.1710978
1.1709708
1.1708005
1.1711225
1.1712739
1.1713862
1.1714818
1.1719912
1.1721703
1.1717242
1.1716405
1.1715417
1.171408
1.1716606
1.1717785
1.1718651
1.1719381
1.1723273
1.1724671
1.172128
1.1720644
1.1719883
1.1718844
1.1720826
1.1721744
1.1722411
1.1722965
1.1725917
1.1727036
1.1724466
1.1723981
1.1723394
1.1722581
1.1724143
1.1724865
1.1725382
1.1725805
1.1728045
1.172896
1.1727005
1.1726634
1.1726176
1.1725533
1.1726776
1.1727352
1.1727758
1.1728084
1.1729792
1.1730551
1.1729055
1.1728769
1.1728406
1.1727889
1.1728888
1.1729355
1.1729679
1.1729931
1.1731244
1.1731881
1.1730726
1.1730502
1.1730212
1.1729788
1.1730602
1.1730987
1.1731249
1.1731448
1.1732467
1.1733007
1.1732105
1.1731927
1.173169
1.1731338
1.1732006
1.1732329
1.1732545
1.1732705
1.1733505
1.1733968
1.1733254
1.1733111
1.1732913
1.1732615
1.1733172
1.1733448
1.1733629
1.1733758
1.1734397
1.1734797
1.1734223
1.1734105
1.1733938
1.1733681
1.1734152
1.1734391
1.1734545
1.1734652
1.1735169
1.1735517
1.173505
1.1734952
1.1734809
1.1734584
1.1734987
1.1735197
1.173533
1.173542
1.1735842
1.1736147
1.1735764
1.1735682
1.1735557
1.1735359
1.1735709
1.1735895
1.1736011
1.1736087
1.1736436
1.1736714
1.173639
1.173632
1.173621
1.1736034
1.173607
1.1736244
1.1736351
1.173642
1.1736726
1.1736451
1.1736119
1.1736044
1.173593
1.1735745
1.1735398
1.1735594
1.1735716
1.1735798
1.1736164
1.173586
1.1735455
1.1735367
1.1735235
1.1735026
1.1734628
1.173485
1.1734991
1.1735088
1.1735535
1.1735189
1.1734693
1.1734587
1.1734434
1.1734196
1.173373
1.1733985
1.173415
1.1734267
1.1734818
1.173442
1.1733804
1.1733675
1.1733496
1.1733221
1.1732668
1.1732965
1.1733161
1.1733304
1.1733993
1.1733533
1.1732758
1.1732598
1.1732383
1.173206
1.1731394
1.1731746
1.1731983
1.1732161
1.1733036
1.1732499
1.1731507
1.1731307
1.1731045
1.1730658
1.1729846
1.1730272
1.1730564
1.1730789
1.1731917
1.1731284
1.1729997
1.1729742
1.1729415
1.1728943
1.1727942
1.1728467
1.1728833
1.1729123
1.1730595
1.1729842
1.1728154
1.1727823
1.1727409
1.1726822
1.1725574
1.1726232
1.17267
1.1727078
1.1729018
1.1728112
1.1725879
1.1725445
1.1724914
1.1724171
1.1722597
1.1723436
1.1724041
1.1724539
1.1727112
1.1726004
1.1723037
1.1722465
1.1721775
1.1720824
1.1718825
1.1719904
1.1720692
1.172135
1.1724769
1.1723384
1.171945
1.1718694
1.1717795
1.1716572
1.1714038
1.171542
1.1716443
1.1717309
1.1721821
1.1720035
1.1714887
1.17139
1.1712743
1.1711188
1.1708004
1.1709736
1.1711034
1.1712149
1.1717972
1.1715621
1.170912
1.1707875
1.1706436
1.1704532
1.1700787
1.1702837
1.1704403
1.1705769
1.1712862
1.1709161
1.1701666
1.1700212
1.1698566
1.1696453
1.1692404
1.1694315
1.1695925
1.1697421
1.1705291
1.1704925
1.1696623
1.1695129
1.1693708
1.1692506
1.1689089
1.1689487
1.1690352
1.1691419
1.1697191
1.1663131
1.1645497
1.1643437
1.1641721
1.1639312
1.1667628
1.16714
1.1673918
1.1676484
1.1694646
1.1745182
1.1754855
1.1755073
1.1754894
1.1753959
1.1714977
1.1717513
1.1718758
1.1720018
1.1730581
1.1786986
1.1787185
1.1785291
1.1782826
1.1778806
1.1817436
1.1836999
1.1840085
1.184244
1.1843627
1.1841977
1.1841923
1.1841918
1.1840407
1.1809982
1.179006
1.1791632
1.1790544
1.1789409
1.178727
1.1769799
1.1771528
1.1772714
1.1773509
1.177104
1.1751453
1.1756276
1.1756502
1.1756179
1.1755186
1.1737665
1.1739983
1.1741394
1.1742118
1.1743206
1.1678657
1.1656793
1.1653611
1.1650626
1.1645776
1.1652048
1.1653403
1.1654358
1.1655733
1.1667301
1.1697596
1.169099
1.1689789
1.1688784
1.1688403
1.1691926
1.1693131
1.1694511
1.1695961
1.170383
1.1704852
1.1697267
1.1695815
1.1694255
1.1692411
1.1696726
1.1698742
1.1700326
1.1701727
1.1709012
1.1712704
1.1705851
1.170455
1.170306
1.1701118
1.170488
1.1706669
1.1708026
1.1709203
1.1715456
1.171781
1.1712215
1.1711166
1.1709949
1.1708331
1.1711466
1.1712912
1.1713994
1.171492
1.1719871
1.1721664
1.171731
1.1716496
1.1715539
1.1714253
1.1716729
1.171787
1.1718712
1.1719425
1.1723237
1.1724636
1.1721303
1.1720679
1.1719936
1.1718925
1.1720876
1.1721773
1.1722428
1.1722973
1.1725883
1.1727006
1.1724464
1.1723986
1.1723408
1.1722611
1.1724155
1.1724866
1.1725377
1.1725796
1.1728017
1.1728934
1.1726991
1.1726624
1.172617
1.1725534
1.1726768
1.1727339
1.1727742
1.1728066
1.1729767
1.1730528
1.1729035
1.1728749
1.1728389
1.1727875
1.1728872
1.1729337
1.172966
1.1729912
1.1731224
1.1731863
1.1730707
1.1730482
1.1730192
1.172977
1.1730582
1.1730967
1.1731229
1.1731428
1.173245
1.1732992
1.1732086
1.1731908
1.173167
1.1731318
1.1731988
1.1732311
1.1732528
1.1732688
1.1733492
1.1733956
1.1733237
1.1733093
1.1732895
1.1732596
1.1733154
1.1733431
1.1733612
1.1733743
1.1734386
1.1734786
1.1734209
1.173409
1.1733922
1.1733664
1.1734135
1.1734376
1.1734531
1.1734639
1.1735159
1.1735508
1.1735038
1.1734939
1.1734795
1.1734569
1.1734973
1.1735184
1.1735318
1.1735409
1.1735834
1.1736141
1.1735754
1.1735671
1.1735546
1.1735347
1.1735699
1.1735886
1.1736003
1.1736079
1.173643
1.1736709
1.1736383
1.1736312
1.1736203
1.1736026
1.1735886
1.1736076
1.1736198
1.1736279
1.1736711
1.1736437
1.1735968
1.173588
1.173575
1.1735548
1.1735184
1.17354
1.1735539
1.1735634
1.1736149
1.1735844
1.1735277
1.1735173
1.1735023
1.1734793
1.1734371
1.1734617
1.1734779
1.1734893
1.1735519
1.1735171
1.1734478
1.1734353
1.1734177
1.1733913
1.1733416
1.1733701
1.1733891
1.1734028
1.17348
1.1734401
1.173354
1.1733388
1.173318
1.1732872
1.1732277
1.1732612
1.173284
1.1733008
1.1733973
1.1733512
1.1732427
1.1732238
1.1731988
1.1731621
1.17309
1.1731301
1.1731578
1.1731789
1.1733014
1.1732475
1.1731089
1.1730851
1.1730544
1.1730101
1.1729218
1.1729707
1.173005
1.1730317
1.1731892
1.1731258
1.1729466
1.1729163
1.172878
1.1728237
1.1727149
1.1727752
1.1728181
1.1728525
1.1730567
1.1729813
1.1727482
1.1727092
1.172661
1.1725938
1.172459
1.172534
1.1725883
1.1726326
1.1728988
1.1728081
1.1725042
1.1724538
1.1723926
1.1723087
1.1721412
1.1722351
1.1723041
1.1723614
1.172708
1.1725974
1.1722023
1.1721371
1.1720594
1.1719542
1.1717458
1.1718634
1.1719509
1.1720248
1.1724743
1.1723368
1.1718269
1.1717432
1.1716449
1.1715136
1.1712559
1.1714017
1.1715118
1.1716061
1.172182
1.1720061
1.1713593
1.1712535
1.1711311
1.1709701
1.1706559
1.1708312
1.170966
1.1710836
1.1718037
1.1715738
1.1707821
1.1706527
1.1705061
1.1703202
1.1699533
1.1701518
1.1703097
1.1704502
1.1713016
1.1709344
1.170048
1.1698999
1.1697359
1.1695338
1.1691453
1.169326
1.1694851
1.169636
1.1705419
1.1704926
1.1695489
1.1693965
1.1692524
1.1691282
1.1687968
1.1688528
1.1689601
1.1690903
1.1698645
1.1670177
1.1655937
1.1654389
1.1653047
1.1651287
1.1652225
1.1656714
1.1659701
1.1662906
1.168873
1.1730563
1.1732463
1.1732084
1.1731433
1.1729205
1.1700524
1.1705113
1.170861
1.1711819
1.173803
1.1788215
1.1825378
1.1829477
1.1832788
1.1835654
1.1731027
1.1733252
1.1734864
1.173614
1.1743457
1.1715852
1.1706503
1.1704846
1.1703452
1.1700305
1.1708093
1.1708973
1.1709318
1.1709543
1.1708026
1.166248
1.1637313
1.1634159
1.1631316
1.1627856
1.1687928
1.1688382
1.1689379
1.169054
1.1696544
1.1705089
1.1696631
1.1695057
1.1693571
1.1692336
1.1691899
1.169385
1.1695517
1.1697078
1.170526
1.1709045
1.1701267
1.1699757
1.1698053
1.1695883
1.170025
1.1702364
1.1703987
1.1705404
1.1712756
1.1715516
1.1708784
1.1707494
1.1706004
1.1704041
1.170756
1.1709346
1.1710687
1.171184
1.1717864
1.1719928
1.1714609
1.171359
1.1712397
1.1710796
1.1713693
1.1715114
1.1716167
1.1717059
1.1721717
1.1723283
1.1719228
1.1718449
1.1717526
1.1716271
1.1718562
1.1719667
1.1720475
1.1721152
1.1724673
1.1725913
1.1722861
1.1722274
1.1721567
1.1720594
1.1722396
1.1723253
1.1723872
1.1724382
1.1727027
1.1728032
1.1725739
1.1725295
1.1724752
1.1723995
1.1725418
1.172609
1.1726567
1.1726953
1.1728944
1.1729773
1.1728042
1.1727704
1.1727283
1.1726685
1.1727818
1.1728352
1.1728726
1.1729021
1.173053
1.1731223
1.1729905
1.1729645
1.1729313
1.1728833
1.1729745
1.1730178
1.1730475
1.1730705
1.173186
1.1732446
1.173143
1.1731227
1.1730959
1.1730567
1.173131
1.1731668
1.1731909
1.173209
1.1732986
1.1733486
1.1732693
1.1732531
1.1732312
1.1731984
1.1732597
1.1732899
1.1733098
1.1733244
1.173395
1.173438
1.173375
1.1733618
1.1733435
1.1733156
1.173367
1.1733929
1.1734097
1.1734216
1.1734781
1.1735154
1.1734647
1.1734538
1.1734383
1.1734141
1.1734577
1.1734803
1.1734947
1.1735045
1.1735504
1.173583
1.1735417
1.1735326
1.1735192
1.173498
1.1735356
1.1735555
1.1735679
1.1735762
1.1736137
1.1736426
1.1736086
1.173601
1.1735893
1.1735706
1.1736031
1.1736207
1.1736316
1.1736386
1.1736699
1.1736726
1.1736422
1.1736353
1.1736247
1.1736074
1.1735752
1.1735935
1.1736049
1.1736123
1.1736451
1.1736165
1.1735803
1.1735722
1.17356
1.1735405
1.1735036
1.1735243
1.1735373
1.1735461
1.173586
1.1735536
1.1735095
1.1734999
1.1734859
1.1734638
1.1734211
1.1734446
1.1734597
1.1734701
1.173519
1.1734819
1.1734277
1.1734162
1.1733999
1.1733747
1.1733245
1.1733515
1.1733692
1.1733819
1.1734423
1.1733996
1.173332
1.173318
1.1732987
1.1732695
1.1732096
1.1732413
1.1732623
1.1732779
1.1733537
1.1733042
1.1732188
1.1732015
1.1731783
1.1731439
1.1730715
1.1731091
1.1731347
1.1731541
1.1732506
1.1731925
1.1730831
1.1730613
1.1730329
1.1729916
1.1729032
1.1729488
1.1729803
1.173005
1.1731295
1.1730608
1.1729187
1.1728908
1.1728556
1.172805
1.1726959
1.1727522
1.1727918
1.1728235
1.1729859
1.1729037
1.1727176
1.1726815
1.1726368
1.1725739
1.1724375
1.1725081
1.1725586
1.1725999
1.1728135
1.172714
1.1724685
1.1724212
1.1723639
1.1722844
1.1721122
1.1722019
1.1722671
1.1723213
1.1726036
1.1724806
1.172156
1.1720937
1.1720195
1.171918
1.1716992
1.1718139
1.1718985
1.1719698
1.1723428
1.1721873
1.1717599
1.1716782
1.1715822
1.1714526
1.171175
1.1713205
1.1714292
1.1715222
1.1720096
1.1718044
1.1712527
1.1711475
1.1710255
1.1708633
1.1705214
1.1706999
1.1708353
1.170953
1.1715702
1.1712958
1.1706197
1.1704902
1.1703421
1.170149
1.1697145
1.1699158
1.1700726
1.1702113
1.170929
1.170529
1.1697744
1.1696305
1.1694753
1.1692879
1.1692494
1.1693757
1.1695167
1.1696645
1.1704796
1.169858
1.1692621
1.1691498
1.169056
1.1690149
1.1645276
1.1647399
1.164882
1.1650493
1.1664736
1.1682202
1.1654566
1.1650756
1.1647303
1.1642323
1.1782425
1.1781902
1.1781088
1.1779656
1.1762062
1.1720075
1.1703461
1.170148
1.1700023
1.1697381
1.174398
1.17315
1.1741836
1.1735939
1.171743
1.1715219
1.1713042
1.1709485
1.1759616
1.1760796
1.1761028
1.1760686
1.1756465
1.1805033
1.1806226
1.1806574
1.1805906
1.1801887
1.1771382
1.177895
1.1778541
1.1777811
1.1775382
1.1726554
1.1730008
1.1731929
1.1734225
1.174559
1.1771533
1.1772542
1.1771902
1.1770419
1.1767924
1.1774454
1.1807137
1.1766879
1.1776811
1.173835
1.1738565
1.1738008
1.1738349
1.1738046
1.173797
1.1738085
1.1738037
1.1736026
1.1736202
1.1736312
1.1736383
1.1736711
1.1736434
1.173608
1.1736003
1.1735886
1.1735699
1.1735351
1.1735549
1.1735674
1.1735757
1.1736146
1.1735841
1.1735413
1.1735322
1.1735188
1.1734977
1.1734575
1.17348
1.1734944
1.1735043
1.1735514
1.1735166
1.1734644
1.1734536
1.1734381
1.1734141
1.1733672
1.1733928
1.1734096
1.1734214
1.1734793
1.1734392
1.1733748
1.1733617
1.1733435
1.1733159
1.1732604
1.1732902
1.1733099
1.1733243
1.1733962
1.1733498
1.1732694
1.1732534
1.1732318
1.1731995
1.1731328
1.1731678
1.1731915
1.1732093
1.1732997
1.1732455
1.1731435
1.1731236
1.1730975
1.1730592
1.1729783
1.1730203
1.1730492
1.1730715
1.1731867
1.1731228
1.1729922
1.1729671
1.172935
1.1728888
1.1727897
1.1728407
1.1728764
1.1729048
1.1730531
1.172977
1.1728081
1.1727761
1.1727361
1.1726796
1.1725571
1.17262
1.1726648
1.1727012
1.1728935
1.1728018
1.1725823
1.1725409
1.1724905
1.1724204
1.1722677
1.1723461
1.1724029
1.17245
1.1727006
1.1725884
1.1723022
1.1722486
1.1721843
1.1720964
1.1719041
1.1720029
1.1720756
1.1721367
1.1724634
1.1723237
1.1719509
1.1718812
1.171799
1.1716879
1.171445
1.1715698
1.1716627
1.171742
1.1721662
1.171987
1.171506
1.1714161
1.1713114
1.1711716
1.1708648
1.1710204
1.1711377
1.1712391
1.1717805
1.1715457
1.1709427
1.1708294
1.1706991
1.1705278
1.1701591
1.1703443
1.1704866
1.1706112
1.1712678
1.1708902
1.1701956
1.1700625
1.1699125
1.1697219
1.169331
1.1694996
1.1696455
1.169783
1.1705068
1.1704745
1.1697422
1.1696045
1.1694759
1.1693761
1.1686933
1.1687261
1.168815
1.1689234
1.1694856
1.1662615
1.164141
1.1639056
1.16371
1.1634636
1.1705302
1.1706751
1.1707184
1.1707665
1.170762
1.1706627
1.1688425
1.1685941
1.1683581
1.1679029
1.1748288
1.1750878
1.1752564
1.1753378
1.1757673
1.177787
1.1777586
1.1777583
1.1776909
1.1750227
1.1752754
1.1754217
1.1756241
1.1759667
1.1761793
1.1764886
1.1763075
1.1761615
1.1758312
1.1860169
1.185714
1.18545
1.1850548
1.1815704
1.1804763
1.1824665
1.182582
1.1826321
1.182669
1.1748122
1.1750718
1.1752423
1.1753255
1.1757636
1.1706583
1.1688374
1.1685893
1.1683537
1.1678984
1.1705281
1.1706731
1.1707158
1.1707635
1.1707572
1.1662549
1.1641367
1.1639017
1.1637068
1.163461
1.1686912
1.1687233
1.1688118
1.1689197
1.1694796
1.1704682
1.1697384
1.1696012
1.1694731
1.1693741
1.1693278
1.1694959
1.1696415
1.1697788
1.1705008
1.1708844
1.1701911
1.1700582
1.1699085
1.1697183
1.1701551
1.17034
1.1704821
1.1706065
1.1712623
1.1715405
1.170938
1.1708248
1.1706947
1.1705236
1.1708602
1.1710156
1.1711329
1.1712342
1.1717756
1.1719823
1.1715012
1.1714113
1.1713066
1.1711668
1.1714401
1.1715649
1.1716579
1.1717371
1.1721617
1.1723194
1.1719461
1.1718764
1.1717941
1.1716829
1.171899
1.171998
1.1720707
1.1721319
1.1724594
1.1725845
1.1722975
1.1722438
1.1721794
1.1720912
1.1722625
1.1723412
1.1723982
1.1724454
1.1726968
1.1727982
1.1725778
1.1725363
1.1724857
1.1724153
1.1725522
1.1726152
1.1726603
1.1726968
1.1728902
1.1729737
1.1728039
1.1727716
1.1727314
1.1726746
1.172785
1.1728362
1.1728722
1.1729007
1.17305
1.1731198
1.1729883
1.172963
1.1729307
1.1728842
1.172974
1.1730162
1.1730453
1.1730678
1.1731839
1.1732428
1.1731401
1.17312
1.1730937
1.1730551
1.1731288
1.1731642
1.173188
1.173206
1.1732972
1.1733473
1.1732662
1.17325
1.1732282
1.1731957
1.1732568
1.1732869
1.1733068
1.1733213
1.1733938
1.173437
1.173372
1.1733588
1.1733405
1.1733126
1.173364
1.1733899
1.1734068
1.1734188
1.1734772
1.1735146
1.1734619
1.173451
1.1734353
1.1734111
1.1734548
1.1734774
1.1734919
1.1735019
1.1735495
1.1735822
1.1735391
1.1735299
1.1735164
1.1734951
1.1735327
1.1735527
1.1735653
1.1735737
1.1736129
1.1736418
1.1736061
1.1735983
1.1735865
1.1735676
1.1736007
1.1736185
1.1736295
1.1736366
1.1736691
1.173695
1.1736652
1.1736586
1.1736483
1.1736316
1.1736716
1.1736406
1.1736337
1.1736229
1.1736054
1.1735732
1.1735917
1.1736032
1.1736108
1.1736444
1.1736157
1.1735786
1.1735704
1.1735581
1.1735384
1.1735013
1.1735222
1.1735355
1.1735444
1.1735853
1.1735528
1.1735076
1.1734978
1.1734835
1.1734612
1.1734181
1.173442
1.1734573
1.173468
1.1735182
1.173481
1.1734252
1.1734135
1.1733968
1.1733712
1.1733203
1.1733479
1.173366
1.173379
1.1734412
1.1733984
1.1733286
1.1733142
1.1732945
1.1732646
1.1732037
1.1732361
1.1732578
1.1732738
1.1733522
1.1733025
1.1732139
1.1731959
1.1731721
1.1731366
1.1730627
1.1731016
1.1731281
1.1731482
1.1732486
1.1731903
1.1730759
1.1730532
1.1730237
1.1729808
1.17289
1.1729376
1.1729705
1.1729963
1.1731268
1.1730577
1.1729081
1.1728788
1.1728417
1.1727887
1.1726758
1.1727352
1.172777
1.1728105
1.1729822
1.1728996
1.1727018
1.1726634
1.172616
1.1725492
1.1724073
1.1724827
1.1725366
1.1725807
1.1728086
1.1727084
1.1724453
1.1723945
1.172333
1.1722476
1.1720676
1.1721645
1.1722349
1.1722934
1.1725973
1.1724736
1.1721227
1.1720553
1.1719748
1.1718646
1.1716357
1.1717609
1.1718529
1.1719305
1.1723349
1.1721788
1.1717139
1.1716248
1.1715198
1.171378
1.1710887
1.1712484
1.1713675
1.1714692
1.1720002
1.1717943
1.1711926
1.1710774
1.1709436
1.1707654
1.1704141
1.17061
1.1707586
1.1708874
1.1715597
1.1712843
1.1705497
1.1704083
1.1702464
1.1700356
1.1696002
1.1698165
1.1699864
1.170137
1.1709133
1.1705357
1.169719
1.1695635
1.1693975
1.1692033
1.1692493
1.1693717
1.1695194
1.1696761
1.1705188
1.1696647
1.1690686
1.1689538
1.1688554
1.1688115
1.1628148
1.1631575
1.163439
1.1637523
1.1662596
1.1708162
1.1709791
1.1709592
1.1709283
1.1708465
1.1700666
1.170376
1.1705112
1.1706741
1.1715963
1.1743576
1.1736417
1.1735168
1.1733589
1.1731494
1.1836263
1.1833287
1.1829904
1.1825745
1.178834
1.1738143
1.171231
1.1709165
1.1705746
1.1701277
1.1755791
1.1756657
1.1756891
1.1756594
1.1751595
1.1741835
1.1741501
1.1741035
1.1740233
1.1738186
1.1698012
1.1702003
1.1704194
1.1706831
1.1727318
1.1720056
1.1703313
1.1701326
1.1699876
1.1697261
1.1714264
1.171692
1.1718248
1.1719585
1.1730513
1.1735837
1.1716858
1.1714568
1.171231
1.170866
1.1758858
1.1760165
1.1760497
1.176024
1.1756378
1.1708769
1.1691199
1.1688299
1.1685151
1.1680082
1.1702751
1.1704441
1.1705172
1.1705891
1.1707775
1.1661468
1.163975
1.1637334
1.1635293
1.1632421
1.168676
1.1687235
1.1688235
1.1689357
1.1694923
1.1704738
1.1697266
1.1695846
1.1694511
1.1693443
1.1693023
1.1694757
1.1696251
1.1697653
1.1704971
1.1708851
1.1701862
1.1700514
1.1698993
1.1697058
1.1701486
1.1703355
1.1704791
1.1706046
1.1712639
1.1715415
1.1709369
1.170823
1.170692
1.1705196
1.1708578
1.1710141
1.1711319
1.1712337
1.1717763
1.1719831
1.1715011
1.1714109
1.1713058
1.1711656
1.1714395
1.1715647
1.1716579
1.1717373
1.1721626
1.1723204
1.1719466
1.1718767
1.1717942
1.1716828
1.1718992
1.1719984
1.1720713
1.1721326
1.1724605
1.1725858
1.1722983
1.1722445
1.17218
1.1720917
1.1722632
1.1723419
1.172399
1.1724463
1.1726982
1.1727997
1.1725789
1.1725373
1.1724866
1.1724161
1.172553
1.1726162
1.1726613
1.1726979
1.1728915
1.1729752
1.1728052
1.1727729
1.1727326
1.1726757
1.172786
1.1728373
1.1728733
1.1729018
1.1730514
1.1731211
1.1729894
1.1729641
1.1729318
1.1728853
1.172975
1.1730173
1.1730464
1.1730689
1.1731851
1.173244
1.1731411
1.173121
1.1730947
1.1730561
1.1731298
1.1731651
1.173189
1.1732069
1.1732982
1.1733484
1.1732672
1.1732511
1.1732293
1.1731967
1.1732578
1.1732879
1.1733078
1.1733223
1.1733948
1.173438
1.173373
1.1733599
1.1733415
1.1733137
1.1733649
1.1733908
1.1734077
1.1734196
1.173478
1.1735154
1.1734628
1.1734519
1.1734362
1.1734121
1.1734557
1.1734783
1.1734928
1.1735027
1.1735503
1.173583
1.1735399
1.1735307
1.1735172
1.173496
1.1735337
1.1735536
1.1735662
1.1735746
1.1736136
1.1736424
1.1736069
1.1735992
1.1735874
1.1735686
1.1736016
1.1736193
1.1736303
1.1736373
1.1736696
1.1736952
1.1736654
1.1736588
1.1736485
1.1736317
1.1736716
1.173639
1.1736319
1.173621
1.1736034
1.1735707
1.1735894
1.173601
1.1736087
1.1736438
1.1736149
1.1735762
1.1735679
1.1735554
1.1735356
1.1734982
1.1735193
1.1735327
1.1735417
1.1735843
1.1735517
1.1735047
1.1734948
1.1734804
1.1734579
1.1734145
1.1734385
1.173454
1.1734648
1.1735169
1.1734796
1.1734218
1.1734099
1.1733931
1.1733674
1.1733164
1.173344
1.1733622
1.1733753
1.1734396
1.1733966
1.1733247
1.1733103
1.1732905
1.1732607
1.1731998
1.1732321
1.1732537
1.1732697
1.1733502
1.1733001
1.1732097
1.1731918
1.1731681
1.173133
1.1730596
1.1730979
1.1731241
1.173144
1.1732459
1.1731872
1.1730719
1.1730495
1.1730206
1.1729786
1.1728891
1.1729353
1.1729674
1.1729925
1.1731232
1.1730536
1.1729052
1.1728769
1.1728411
1.1727901
1.1726802
1.1727367
1.1727766
1.1728087
1.1729774
1.172894
1.1727018
1.1726654
1.1726206
1.1725579
1.1724216
1.1724915
1.1725419
1.1725832
1.1728023
1.1727011
1.172451
1.1724041
1.1723473
1.1722691
1.1720984
1.172186
1.17225
1.1723035
1.1725888
1.1724639
1.1721384
1.1720775
1.1720051
1.1719068
1.1716914
1.1718018
1.1718836
1.1719529
1.1723239
1.1721666
1.1717447
1.1716659
1.1715735
1.1714494
1.1711771
1.171316
1.1714201
1.1715094
1.1719872
1.1717811
1.1712433
1.1711426
1.1710259
1.1708713
1.1705355
1.1707059
1.1708354
1.1709481
1.1715464
1.1712697
1.1706177
1.1704937
1.1703519
1.1701675
1.1697283
1.1699187
1.1700685
1.1702014
1.170891
1.1705038
1.1697829
1.169645
1.1694984
1.1693289
1.169376
1.1694779
1.1696081
1.1697474
1.170481
1.1695004
1.1689603
1.1688514
1.1687559
1.1687147
1.1632867
1.163566
1.1637651
1.1640026
1.1661544
1.1707881
1.1706227
1.1705558
1.1704887
1.170327
1.1680755
1.1685697
1.168876
1.1691592
1.170886
1.1722483
1.1713054
1.1711786
1.1710403
1.1707941
1.1679509
1.1682483
1.168428
1.1686244
1.1699325
1.166779
1.1648516
1.1646496
1.1644788
1.16425
1.1686531
1.1687204
1.1688322
1.1689603
1.1697636
1.1705299
1.1695884
1.1694362
1.16929
1.1691679
1.1691304
1.1693135
1.1694745
1.1696265
1.1705427
1.1709264
1.170032
1.1698826
1.1697162
1.1695094
1.1699352
1.1701389
1.1702994
1.1704413
1.1713006
1.171575
1.170775
1.170644
1.170495
1.1703047
1.1706419
1.1708212
1.1709584
1.1710776
1.1718058
1.172009
1.1713543
1.1712469
1.1711223
1.1709577
1.1712452
1.1713941
1.1715062
1.171602
1.1721854
1.1723404
1.1718236
1.1717386
1.1716385
1.1715045
1.1717383
1.1718583
1.1719474
1.1720225
1.1724781
1.1726013
1.1722007
1.1721346
1.1720554
1.1719481
1.1721365
1.1722323
1.1723024
1.1723606
1.1727119
1.1728119
1.1725041
1.172453
1.1723907
1.1723052
1.1724567
1.172533
1.1725882
1.1726331
1.1729025
1.172985
1.1727492
1.1727097
1.1726607
1.1725924
1.1727144
1.1727756
1.1728191
1.1728538
1.1730603
1.1731293
1.1729484
1.1729178
1.172879
1.172824
1.1729227
1.1729722
1.1730068
1.1730338
1.1731925
1.1732508
1.1731112
1.1730873
1.1730562
1.1730115
1.1730918
1.1731323
1.1731602
1.1731814
1.1733045
1.1733542
1.1732453
1.1732264
1.1732012
1.1731642
1.17323
1.1732637
1.1732866
1.1733035
1.1734001
1.1734428
1.1733567
1.1733415
1.1733206
1.1732896
1.1733441
1.1733727
1.1733917
1.1734055
1.1734825
1.1735195
1.1734503
1.1734379
1.1734203
1.1733938
1.1734395
1.1734642
1.1734804
1.1734917
1.173554
1.1735864
1.17353
1.1735196
1.1735046
1.1734816
1.1735206
1.1735421
1.1735561
1.1735655
1.1736168
1.1736455
1.1735989
1.1735901
1.1735772
1.1735569
1.1735906
1.1736097
1.1736218
1.1736298
1.173673
1.1736723
1.1736292
1.1736211
1.173609
1.17359
1.1735564
1.1735766
1.1735895
1.1735982
1.1736448
1.1736161
1.1735649
1.1735554
1.1735415
1.1735201
1.1734812
1.1735041
1.173519
1.1735294
1.1735857
1.1735533
1.1734911
1.1734797
1.1734636
1.1734391
1.1733936
1.1734199
1.1734373
1.1734497
1.1735187
1.1734816
1.1734049
1.1733912
1.1733723
1.1733439
1.1732898
1.1733204
1.1733411
1.1733562
1.1734418
1.173399
1.1733032
1.1732864
1.1732637
1.1732303
1.173165
1.1732015
1.1732264
1.1732452
1.173353
1.1733033
1.1731816
1.1731606
1.173133
1.173093
1.1730134
1.1730575
1.1730881
1.1731116
1.1732495
1.1731912
1.1730346
1.173008
1.1729739
1.1729251
1.1728273
1.1728813
1.1729195
1.1729496
1.1731279
1.1730589
1.1728555
1.1728214
1.1727786
1.1727185
1.1725975
1.1726645
1.1727126
1.1727514
1.1729835
1.172901
1.1726358
1.1725917
1.1725375
1.1724626
1.1723124
1.1723962
1.1724573
1.1725075
1.1728103
1.1727104
1.1723646
1.1723075
1.1722386
1.1721448
1.1719577
1.1720628
1.1721404
1.1722054
1.1725997
1.1724766
1.1720278
1.171954
1.1718665
1.1717489
1.1715162
1.1716476
1.1717459
1.1718295
1.1723389
1.1721842
1.1716082
1.1715138
1.1714036
1.1712573
1.1709696
1.1711316
1.1712544
1.1713604
1.1720078
1.1718053
1.1710831
1.1709651
1.1708294
1.1706521
1.170312
1.1705012
1.1706491
1.1707793
1.1715749
1.1713014
1.1704423
1.1703006
1.1701405
1.1699378
1.1695006
1.1697108
1.1698786
1.1700288
1.1709297
1.1705539
1.16962
1.1694655
1.1693009
1.1691093
1.1690972
1.1692359
1.1693881
1.1695445
1.1705248
1.1697533
1.1689066
1.1687755
1.168658
1.1685807
1.1648476
1.165021
1.165149
1.1653092
1.1668419
1.1693867
1.1668952
1.1665563
1.1662188
1.1657685
1.1719078
1.1720673
1.1721118
1.1721319
1.1723673
1.1735385
1.171349
1.1711092
1.1709011
1.1705108
1.1775104
1.1778793
1.1781326
1.1783322
1.1784049
1.1742345