/*--------------------------------*- C++ -*----------------------------------*\
  =========                 |
  \\      /  F ield         | OpenFOAM: The Open Source CFD Toolbox
   \\    /   O peration     | Website:  https://openfoam.org
    \\  /    A nd           | Version:  7
     \\/     M anipulation  |
\*---------------------------------------------------------------------------*/
FoamFile
{
    version     2.0;
    format      ascii;
    class       volScalarField;
    location    "360";
    object      nut;
}
// * * * * * * * * * * * * * * * * * * * * * * * * * * * * * * * * * * * * * //

dimensions      [0 2 -1 0 0 0 0];

internalField   nonuniform List<scalar> 
25201
(
6.8135282
6.8008251
6.8135459
6.8008617
6.6761533
6.7686601
6.790188
6.8280371
6.8118201
6.7396778
6.8118061
6.7686449
6.7252501
6.1142245
6.0012873
6.5856894
6.4884318
6.3954901
6.349838
6.0882217
6.2749365
6.2829334
6.3593876
6.2243039
6.2079962
6.0362541
6.1577131
6.4035206
6.3419377
6.0903968
6.1382277
6.203727
5.8067108
5.8798484
5.9750039
6.0014461
6.2089251
6.1420518
5.9088964
5.8350041
6.0923699
6.064514
6.062742
5.7679829
5.7972934
5.8465884
6.0878905
6.4030103
6.6690357
6.725283
6.777142
6.7287691
6.5568102
6.6231397
6.69299
6.6561313
6.6252468
6.5379531
6.5779535
6.3275318
6.3618723
6.4521551
6.4898269
6.5479503
6.582602
6.7235528
6.6557485
6.4325082
6.3793067
6.2021755
6.1477475
6.2035303
6.4591918
6.507507
6.4541013
6.0295569
6.0830622
6.1513216
6.1671624
6.2279278
6.3078193
6.3789418
6.2574461
6.2737132
6.1944556
6.3048021
6.1548621
6.1143033
5.9855501
6.0584959
5.9741178
5.928758
5.9142771
5.9153004
5.9003219
5.9740175
5.9681784
5.8951532
5.7611353
5.8512804
5.8588083
5.7739927
5.791642
5.8760678
5.8853165
5.8150433
5.6598421
5.7589524
5.8214766
5.8051763
5.7242262
5.734921
5.6285794
5.614581
5.4548071
5.5787548
5.5869976
5.4692562
5.4855676
5.6437702
5.7491211
5.6060591
5.6151933
5.5012196
5.3275586
5.4724441
5.5834162
5.8213633
6.0583918
5.9087191
5.8348116
5.7970663
5.8464741
5.8809899
5.9562792
6.0408411
6.1548179
6.2573924
6.4521304
6.6252235
6.6561133
6.4898064
6.3274768
6.3618188
6.5379034
6.57791
6.6230913
6.6929665
6.77711
6.7235306
6.5825807
6.5479161
6.3792608
6.4324321
6.6556909
6.5929497
6.7287156
6.6689762
6.459125
6.5074521
6.1476675
6.20343
6.3047481
6.3077288
6.3788761
6.2278106
6.1670274
6.1512145
6.0005566
6.0719606
6.1943914
6.2736707
6.1242724
6.2216456
6.2796642
6.1542168
6.1242641
6.0987146
5.8677395
5.8939734
5.6842375
5.7493155
5.7672921
5.6668763
5.6658394
5.5481101
5.6446909
5.6369303
5.5208879
5.3465091
5.4935755
5.6227002
5.8676598
6.0986734
5.9287023
5.9739753
5.9853013
5.4853801
5.6059054
5.7489922
5.8758892
5.8852484
5.814976
5.914169
5.9150753
5.7913784
5.6436393
5.6597482
5.7588652
5.6151432
5.5011517
5.3275063
5.4723785
5.4603713
5.4415716
5.5580488
6.8007575
6.8133713
6.6684766
6.403476
6.3419193
6.0627718
5.8798446
6.1381734
6.09037
6.092388
6.0644885
5.7972839
5.7679091
5.8066497
5.8349805
5.9088633
6.1419978
6.2088843
6.2036408
5.9749437
6.0013658
6.1142474
6.2828421
6.4883355
0.0010952658
0.0049486034
0.01185676
0.020476801
0.27407363
0.28011389
0.021260517
0.012290664
0.0051222535
0.0011253147
0.0011404486
0.0052733753
0.01267266
0.021898472
0.28687611
0.29092469
0.022155633
0.012832222
0.0053402159
0.0011481855
0.0011513248
0.0053711932
0.012905708
0.022264751
0.29359841
0.29545811
0.022332079
0.0129523
0.0053908751
0.0011532108
0.0011547681
0.0054101098
0.013000098
0.022405298
0.29695142
0.29827369
0.022492372
0.013053847
0.00543105
0.0011563359
0.0011579289
0.0054535616
0.013112244
0.022588896
0.29952112
0.30074704
0.022691668
0.013173499
0.0054769493
0.0011595427
0.0011611769
0.005501061
0.013236481
0.022797332
0.30197079
0.30320918
0.022905775
0.013300843
0.0055256204
0.0011628254
0.0011644978
0.00555073
0.013366356
0.023015813
0.30446375
0.30574072
0.023128182
0.013433093
0.005576255
0.0011661905
0.0011679137
0.0056023308
0.013500968
0.023242123
0.30703812
0.30836059
0.023358498
0.013570163
0.0056288674
0.0011696638
0.0011714492
0.0056559659
0.013640549
0.023476576
0.30970632
0.31107967
0.023597182
0.013712332
0.0056835656
0.0011732682
0.0011751275
0.00571176
0.013785385
0.023719659
0.31247859
0.31390647
0.023844859
0.013859985
0.0057405195
0.0011770275
0.0011789721
0.0057699242
0.013935968
0.023972122
0.31536208
0.3168491
0.024102197
0.014013565
0.0057999256
0.0011809574
0.001182986
0.0058305768
0.014092565
0.024234408
0.31836701
0.31991917
0.024369458
0.014173184
0.005861826
0.0011850562
0.0011871728
0.0058937549
0.014255299
0.024506839
0.32150435
0.32312083
0.024647062
0.014339072
0.0059263122
0.0011893339
0.0011915479
0.005959581
0.014424408
0.024789728
0.32476824
0.32645117
0.024935636
0.014511641
0.0059935781
0.00119382
0.0011961598
0.0060283926
0.014600756
0.025084574
0.32817334
0.32994147
0.025237306
0.014692126
0.0060640775
0.001198562
0.0012010161
0.006100717
0.014785486
0.025392999
0.33175325
0.33360062
0.025551506
0.014880397
0.0061379202
0.0012035387
0.37402972
0.023054879
0.013555121
0.0056557743
0.0011536791
0.0011513916
0.0056221132
0.013469248
0.022912569
0.37197481
0.36995285
0.02277181
0.013384039
0.0055886058
0.00114916
0.0011469575
0.0055555911
0.013299571
0.022631988
0.36796346
0.36602349
0.022495519
0.013217275
0.0055234963
0.0011447994
0.001142702
0.0054921618
0.013136742
0.022361821
0.36413114
0.3622845
0.022231363
0.013058083
0.005461527
0.0011406576
0.0011386592
0.0054315677
0.0129809
0.022103195
0.36047898
0.35871548
0.02197817
0.012905554
0.0054023025
0.0011367055
0.0011347989
0.0053737759
0.012831848
0.021855648
0.35699237
0.3553063
0.021736298
0.01275999
0.0053459344
0.0011329382
0.0011311187
0.0053186386
0.012689284
0.021618646
0.35365082
0.3520276
0.021503523
0.012620008
0.0052918628
0.001129337
0.001127594
0.0052656316
0.012551843
0.02138997
0.3504356
0.34887692
0.02127909
0.012485182
0.0052399377
0.0011258871
0.0011242174
0.0052147744
0.012419588
0.02116966
0.34734658
0.345848
0.021062926
0.012355467
0.0051901185
0.0011225805
0.0011209749
0.0051659443
0.012292269
0.020957344
0.34437441
0.34292929
0.020854304
0.012230417
0.0051422146
0.0011193948
0.0011178409
0.0051189532
0.012169429
0.020752292
0.34150632
0.34010815
0.020652758
0.012109714
0.0050960929
0.0011163064
0.0011147911
0.0050736977
0.012050868
0.020554259
0.33872811
0.33736421
0.020458622
0.011993421
0.0050517291
0.0011132895
0.0011118024
0.0050303715
0.011937341
0.020365149
0.33600167
0.33462142
0.020277596
0.011883965
0.0050098094
0.0011103315
0.0011088743
0.004990629
0.01183456
0.020197989
0.33317473
0.33157438
0.020130879
0.011790367
0.0049727966
0.0011073987
0.0011055875
0.0049545917
0.011746929
0.020068258
0.32962414
0.32689052
0.01997017
0.011679763
0.0049257329
0.0011024472
0.0010954072
0.0048666663
0.011537078
0.019742948
0.32276334
0.31672893
0.019273747
0.011257359
0.0047525456
0.0010811818
0.0010610744
0.0045769662
0.010837927
0.018564948
0.30960706
0.28934263
0.016569934
0.0095631075
0.0040570935
0.0010228866
0.0010592206
0.0045839377
0.010855623
0.018590076
0.31008124
0.3172817
0.019299034
0.011273565
0.0047587729
0.0010802002
0.0010949519
0.0048732794
0.011553403
0.019768369
0.32322574
0.32725029
0.019990109
0.011692536
0.004930956
0.0011021845
0.0011054508
0.0049588479
0.011757503
0.020085041
0.32993236
0.33183955
0.02014436
0.011798839
0.0049762128
0.0011073223
0.0011088365
0.004993464
0.011841722
0.020209578
0.33340643
0.33482058
0.020287208
0.011889905
0.0050121679
0.0011103162
0.0011118042
0.0050324073
0.011942546
0.020373679
0.33617631
0.33751862
0.020465913
0.011997882
0.0050534854
0.0011133012
0.0011148116
0.0050752619
0.012054906
0.02056095
0.33886524
0.34023098
0.020658601
0.012113265
0.0050974837
0.0011163323
0.0011178724
0.005120228
0.01217274
0.020757813
0.34161752
0.34303053
0.020859239
0.01223341
0.0051433875
0.0011194302
0.0011210147
0.0051670667
0.012295179
0.020962196
0.34446844
0.34593527
0.021067407
0.012358196
0.0051911875
0.0011226235
0.0011242636
0.0052158436
0.012422351
0.021174254
0.34742942
0.34895431
0.021283424
0.012487817
0.0052409701
0.0011259329
0.0011276379
0.005266653
0.012554481
0.021394353
0.35050875
0.35209572
0.02150769
0.012622527
0.0052928445
0.0011293757
0.0011311513
0.0053196023
0.012691798
0.021622851
0.35371418
0.355367
0.021740468
0.0127625
0.0053469009
0.0011329626
0.0011348152
0.0053747643
0.012834436
0.02185997
0.35705379
0.35877874
0.021982217
0.012907966
0.0054032214
0.0011367122
0.0011386578
0.0054323758
0.012983075
0.022106921
0.36054418
0.36235235
0.022234617
0.013059972
0.0054622247
0.0011406503
0.0011426937
0.0054927731
0.01313843
0.022364779
0.36420218
0.36609695
0.022498152
0.013218789
0.0055240494
0.0011447942
0.0011469601
0.0055561436
0.013301078
0.022634595
0.36803797
0.37002665
0.022774641
0.013385745
0.0055892532
0.0011491765
0.0011514226
0.0056229316
0.01347136
0.022916008
0.37205164
0.37411243
0.023058992
0.013557658
0.0056567778
0.0011537248
0.0011561187
0.0056915154
0.013646272
0.02320588
0.37623696
0.0011971
0.0060788427
0.01470355
0.025197191
0.33507466
0.33318558
0.025038254
0.014608236
0.0060414143
0.0011945417
0.0011920606
0.0060046269
0.014514544
0.024882157
0.3313394
0.32953635
0.024729638
0.014422993
0.0059687146
0.0011896503
0.0011872824
0.0059333543
0.014332582
0.0245789
0.32776577
0.32603902
0.024431598
0.014244291
0.0058988656
0.0011849597
0.0011826982
0.0058651937
0.014157889
0.024287281
0.32435301
0.32270623
0.0241465
0.014073538
0.0058323005
0.0011804949
0.0011783461
0.0058001603
0.013990835
0.024008248
0.3210939
0.31951869
0.023873421
0.013910129
0.0057687821
0.0011762513
0.0011742103
0.005738103
0.013830943
0.023740882
0.31797534
0.31646566
0.02361151
0.01375356
0.0057080914
0.0011722195
0.0011702751
0.0056786891
0.013677467
0.023484041
0.31498463
0.31353431
0.023359422
0.013602973
0.0056498701
0.0011683716
0.0011665086
0.0056216352
0.013529687
0.023236521
0.3121113
0.31071831
0.023116502
0.013457989
0.0055939624
0.0011646824
0.0011628933
0.0055668523
0.013387432
0.022998047
0.30935071
0.30801148
0.022882419
0.013318405
0.0055402706
0.0011611363
0.0011594124
0.0055142359
0.013250464
0.022768224
0.30669596
0.30540727
0.022656853
0.013184023
0.0054887089
0.0011577164
0.0011560484
0.005463712
0.013118605
0.022546749
0.30414006
0.30289716
0.02243946
0.013054644
0.0054391947
0.0011544021
0.0011527766
0.0054152102
0.012991714
0.022333447
0.3016718
0.30046409
0.022230826
0.012930466
0.0053917607
0.0011511662
0.0011495736
0.0053690609
0.012870926
0.022130941
0.29925817
0.29803822
0.022038235
0.012814713
0.0053473785
0.0011480009
0.001146451
0.0053274357
0.012763464
0.021955406
0.29675503
0.29532599
0.021888059
0.012718896
0.00530937
0.0011448908
0.0011429571
0.0052911255
0.012675774
0.021826819
0.29355865
0.2910208
0.021722545
0.012604754
0.0052608541
0.0011394361
0.001131195
0.0051978183
0.012450121
0.021471075
0.28720951
0.28181818
0.020944639
0.012143786
0.0050759804
0.0011142092
0.0010875485
0.0049078637
0.01172139
0.020193239
0.275774
0.2751342
0.020537249
0.01191241
0.0049808801
0.0010913419
0.0011254409
0.0051152567
0.012267607
0.021227095
0.27993909
0.2870607
0.021917535
0.012684565
0.0052778853
0.0011404289
0.0011482888
0.0053429647
0.012838523
0.022165602
0.29102314
0.29371353
0.022275316
0.012912124
0.0053737025
0.0011513707
0.0011532496
0.0053929513
0.012957381
0.022340011
0.29555991
0.29705067
0.022412922
0.01300467
0.0054118538
0.0011547964
0.0011563723
0.0054327118
0.013057962
0.022498804
0.29836516
0.29960841
0.022595417
0.013116132
0.0054550286
0.0011579654
0.0011595865
0.0054783973
0.013177092
0.022697304
0.30082569
0.30204657
0.02280316
0.013239943
0.0055023599
0.0011612196
0.001162874
0.0055269133
0.013304063
0.022910862
0.30327927
0.30453231
0.023021128
0.0133695
0.0055519065
0.001164545
0.0011662425
0.0055774495
0.013436068
0.023132915
0.30580554
0.30710216
0.023247136
0.013503933
0.0056034398
0.0011679645
0.001169719
0.0056300018
0.013572991
0.023363023
0.30842153
0.30976711
0.023481467
0.013643453
0.0056570591
0.001171504
0.001173326
0.0056847152
0.013715185
0.023601754
0.31113783
0.31253668
0.023724712
0.013788404
0.0057129019
0.0011751832
0.0011770821
0.0057417057
0.013862941
0.023849627
0.3139627
0.31541781
0.023977323
0.013939049
0.0057710818
0.0011790209
0.0011810071
0.0058011108
0.014016576
0.02410718
0.31690106
0.31841513
0.024239957
0.014095785
0.0058317708
0.0011830399
0.0011851245
0.0058631115
0.014176484
0.02437503
0.31995916
0.32153596
0.024513113
0.014258928
0.0058951128
0.0011872599
0.0011894501
0.005927836
0.014342968
0.024653685
0.32314665
0.32479529
0.024797421
0.01442888
0.0059612845
0.0011916931
0.0011939893
0.0059954822
0.014516465
0.024943799
0.32648345
0.32821514
0.025093307
0.014605887
0.0060303864
0.0011963362
0.0011987356
0.0060660645
0.014697054
0.025245599
0.32999179
0.33181428
0.025401441
0.014790345
0.0061025731
0.0012011915
0.0012037158
0.006140051
0.014885747
0.025560521
0.33367977
0.33558658
0.025722981
0.014983142
0.0061782982
0.0012063081
0.001197068
0.0060785005
0.014702692
0.025195765
0.33506252
0.33317762
0.025036915
0.014607434
0.0060410948
0.0011945065
0.0011920231
0.0060043106
0.014513756
0.024880834
0.33133431
0.32953181
0.024728207
0.014422132
0.005968361
0.0011896113
0.0011872429
0.0059329779
0.014331656
0.024577358
0.3277609
0.32603195
0.024429976
0.01424332
0.0058984735
0.0011849224
0.0011826645
0.005864791
0.014156883
0.024285591
0.32434254
0.32269253
0.024144767
0.014072518
0.0058319008
0.0011804658
0.001178322
0.005799771
0.013989832
0.02400654
0.32107797
0.31950073
0.023871708
0.013909123
0.0057683938
0.0011762306
0.0011741924
0.0057377314
0.01382998
0.023739258
0.31795675
0.31644719
0.02360996
0.01375263
0.0057077287
0.0011722034
0.0011702601
0.0056783484
0.013676597
0.023482604
0.31496698
0.31351795
0.023358109
0.013602169
0.0056495526
0.0011683574
0.001166495
0.005621343
0.013528953
0.023235327
0.31209587
0.31070428
0.023115415
0.013457315
0.0055936936
0.00116467
0.0011628823
0.0055666051
0.013386814
0.022997052
0.30933756
0.30799895
0.022881482
0.013317818
0.0055400334
0.0011611263
0.0011594036
0.0055140188
0.013249915
0.022767342
0.30668326
0.305395
0.022656011
0.013183494
0.005488498
0.0011577091
0.001156042
0.0054635013
0.013118072
0.022545892
0.30412751
0.30288378
0.022438598
0.0130541
0.0054389774
0.0011543964
0.0011527716
0.0054149877
0.012991155
0.022332553
0.30165825
0.30044988
0.022229869
0.012929863
0.0053915235
0.001151162
0.0011495697
0.0053688079
0.012870287
0.022129928
0.29924363
0.29802304
0.022037135
0.012814027
0.0053471105
0.0011479971
0.0011464469
0.005327181
0.012762798
0.021954325
0.29674137
0.29531364
0.021886865
0.012718172
0.0053090931
0.001144883
0.0011429408
0.0052909337
0.012675196
0.021825741
0.2935508
0.29102305
0.021721392
0.012604146
0.0052606335
0.0011394059
0.0011310864
0.0051971605
0.012448577
0.021468345
0.28721841
0.28185154
0.020940459
0.012141565
0.0050751179
0.0011140751
0.0010867965
0.0049052433
0.011716858
0.020185038
0.27592651
0.31092556
0.018641039
0.010906164
0.0046110431
0.0010553746
0.001080024
0.0047539977
0.011255579
0.019269983
0.31702064
0.32324608
0.019771163
0.011555082
0.0048737868
0.0010949414
0.0011023319
0.0049312654
0.011692568
0.019989888
0.32724684
0.32990496
0.020083742
0.011756503
0.0049584413
0.0011055067
0.0011073511
0.00497566
0.011797237
0.020141555
0.33179093
0.33335063
0.020206908
0.011839942
0.0049927284
0.0011088392
0.0011103141
0.0050115234
0.011888121
0.020284077
0.33476292
0.3361216
0.020371105
0.01194087
0.0050317186
0.0011117928
0.0011132902
0.0050529053
0.011996264
0.020463065
0.33746404
0.33881577
0.020558662
0.012053425
0.005074652
0.0011147944
0.0011163161
0.0050969547
0.012111785
0.020656005
0.34018346
0.34157424
0.020755707
0.012171386
0.0051196737
0.0011178516
0.00111941
0.0051428945
0.012232024
0.020856811
0.34298823
0.34442949
0.020960189
0.012293894
0.0051665401
0.0011209895
0.0011225975
0.0051906925
0.012356815
0.021065014
0.34589705
0.34739381
0.021172177
0.01242103
0.005215302
0.0011242326
0.0011258995
0.0052404371
0.012486347
0.021280908
0.34891876
0.35047461
0.02139202
0.012553007
0.0052660502
0.0011275978
0.0011293332
0.005292221
0.01262084
0.021504845
0.35206075
0.35367924
0.021620105
0.012690081
0.005318906
0.0011311046
0.0011329181
0.0053461898
0.012760599
0.021737286
0.35532979
0.357016
0.021857046
0.012832616
0.0053740326
0.0011347744
0.0011366834
0.0054025265
0.01290611
0.021979129
0.35873941
0.36050555
0.022104379
0.01298149
0.0054317448
0.0011386453
0.0011406588
0.0054617181
0.013058563
0.022232269
0.36231392
0.36416592
0.022363208
0.013137457
0.005492399
0.0011427218
0.001144839
0.0055238201
0.013218035
0.022496837
0.36606161
0.3680039
0.022633776
0.013300595
0.0055559808
0.0011470106
0.0011492214
0.0055890607
0.013385086
0.022773492
0.36999202
0.37201424
0.022914813
0.013470626
0.0056226581
0.0011514536
0.0011537394
0.0056564105
0.013556562
0.023057108
0.37407015
0.37618676
0.023203685
0.013644973
0.0056910374
0.0011561164
0.33550585
0.025716219
0.014979144
0.0061767369
0.0012062061
0.0012035984
0.006138424
0.014881546
0.025553325
0.33360155
0.33175177
0.025395147
0.014786765
0.0061012082
0.0012010817
0.0011986281
0.0060645302
0.014693187
0.025239005
0.32993608
0.32816619
0.025086309
0.014601768
0.0060287715
0.0011962172
0.0011938597
0.0059938205
0.014512182
0.024936461
0.32644049
0.32475752
0.024790221
0.014424679
0.0059596515
0.0011915614
0.001189321
0.0059262494
0.014338862
0.024646591
0.32311172
0.3215025
0.024506358
0.014255001
0.0058935922
0.0011871366
0.0011850069
0.0058616462
0.01417269
0.024368481
0.31992534
0.31838179
0.024234031
0.014092337
0.0058304365
0.0011829328
0.0011809125
0.0057998869
0.014013395
0.02410169
0.31686681
0.31538203
0.023972471
0.013936202
0.0057699775
0.0011789392
0.0011770097
0.0057406735
0.013860259
0.023845035
0.31392457
0.31249675
0.023720569
0.013785948
0.0057119472
0.0011751192
0.0011732677
0.0056837975
0.013712795
0.023597672
0.31109521
0.30972255
0.023477665
0.013641194
0.0056561802
0.0011714501
0.0011696673
0.0056291239
0.01357069
0.02335909
0.30837459
0.30705426
0.023243391
0.013501712
0.0056025789
0.001167915
0.001166193
0.0055765691
0.013433754
0.023128955
0.30575609
0.30448333
0.023017368
0.013367274
0.0055510444
0.0011644966
0.0011628251
0.0055260315
0.013301737
0.022906881
0.30322971
0.30199758
0.022799374
0.013237694
0.0055014901
0.0011611719
0.0011595385
0.0054775129
0.013174752
0.022693295
0.30077636
0.29955926
0.022591734
0.013113939
0.0054541817
0.001157919
0.0011563256
0.005431875
0.013055726
0.022494936
0.29831705
0.29700563
0.022409524
0.013002675
0.0054110937
0.0011547517
0.0011532059
0.0053923466
0.012955669
0.022336907
0.29551779
0.29367595
0.022273057
0.012910839
0.0053732394
0.0011513273
0.0011482279
0.0053431958
0.012838865
0.022165785
0.29100535
0.28703623
0.021915001
0.012682292
0.0052768409
0.0011402688
0.001124805
0.0051183652
0.012274658
0.021236637
0.27999112
0.27490942
0.020527282
0.011907415
0.004979091
0.0010904285
0.0010951653
0.0049606829
0.011884002
0.020516856
0.27449402
0.28038403
0.021274919
0.012300377
0.005126519
0.0011248835
0.0011401169
0.0052765691
0.012680093
0.021909712
0.28710494
0.29111691
0.022166383
0.012838964
0.0053429283
0.0011480101
0.001151247
0.0053739102
0.012912467
0.022275521
0.29376951
0.29560235
0.022341974
0.012958449
0.0053933038
0.0011531865
0.0011547723
0.0054123105
0.01300564
0.022414156
0.29707827
0.29838615
0.022500397
0.013058838
0.0054330131
0.0011563566
0.0011579588
0.0054553209
0.013116711
0.022596069
0.29962146
0.30083608
0.02269829
0.013177604
0.0054785586
0.0011595784
0.0011612148
0.0055025105
0.013240175
0.022803279
0.30205194
0.30328395
0.022911402
0.013304315
0.0055269717
0.0011628668
0.0011645414
0.0055519777
0.013369542
0.023020968
0.30453351
0.30580712
0.023133183
0.013436162
0.0055774489
0.0011662369
0.001167962
0.0056034595
0.013503867
0.023246844
0.30710189
0.30842274
0.023363177
0.013573022
0.0056299779
0.0011697154
0.0011715026
0.0056570553
0.013643332
0.02348112
0.30976778
0.31114094
0.023601801
0.013715147
0.0056846645
0.0011733228
0.0011751811
0.0057128606
0.013788194
0.023724256
0.31254109
0.31397183
0.023849533
0.013862822
0.0057416278
0.0011770761
0.0011790111
0.0057709958
0.013938734
0.023976718
0.31543153
0.31692383
0.024106725
0.014016245
0.0058009497
0.001180985
0.0011830015
0.005831514
0.014095048
0.024238657
0.31844567
0.31999876
0.024373442
0.014175489
0.0058626877
0.0011850621
0.001187171
0.0058945398
0.014257408
0.024510471
0.32158236
0.3231985
0.024650556
0.014341117
0.0059270752
0.0011893295
0.0011915459
0.0059603584
0.014426482
0.024793226
0.3248476
0.32653555
0.024939482
0.014513953
0.0059944546
0.001193825
0.0011961728
0.0060294032
0.014603414
0.025088995
0.32826721
0.33004296
0.025242286
0.014695131
0.0060652295
0.0011985848
0.0012010518
0.0061019873
0.014788736
0.025398361
0.33185574
0.3336995
0.025557031
0.014883701
0.0061392072
0.0012035875
0.0012062176
0.0061775855
0.014981409
0.025720088
0.33559777
6.8850173
6.8812217
6.8849996
6.8811863
6.8290848
6.8539319
6.8637954
6.9020198
6.8963015
6.8539451
6.8007616
6.8592814
6.8962891
6.8789078
6.824487
6.7903411
6.7594831
6.6381662
6.6756417
6.5474177
6.7351317
6.7006815
6.4901865
6.3282332
6.6439656
6.7933167
6.8519003
6.7322851
6.7782242
6.8135099
6.854917
6.768131
6.7292609
6.6070898
6.6652064
6.5369137
6.7726223
6.7392492
6.6964506
6.641441
6.682887
6.3958137
6.2929935
6.2201309
6.6012395
6.5448226
6.5084274
6.556727
6.2020549
6.262387
6.1497401
6.0860759
6.0294006
6.0829525
6.4029031
6.4540035
6.4540242
6.6689614
6.8007328
6.8133505
6.7685045
6.7251274
0.27660451
0.020184673
0.011718938
0.0049063666
0.0010920202
0.0011157865
0.0050688705
0.012124374
0.020909382
0.28189117
0.28703271
0.021437938
0.01242988
0.0051897067
0.0011317029
0.0011396841
0.0052547232
0.012589388
0.021697816
0.29080265
0.29337636
0.021810871
0.012665279
0.0052867851
0.0011430956
0.0011449878
0.0053062952
0.012711225
0.021876107
0.29517791
0.29664534
0.021947529
0.012758034
0.0053251542
0.0011465154
0.0011480509
0.0053457345
0.012810541
0.022031757
0.29794965
0.29919277
0.022126819
0.012867954
0.0053677888
0.0011496094
0.0011511983
0.0053908673
0.012928146
0.02222723
0.30041269
0.30163467
0.022331458
0.012990151
0.0054145141
0.0011528014
0.0011544269
0.0054387335
0.013053408
0.022437559
0.30286744
0.30411935
0.022546006
0.013117879
0.0054633601
0.0011560692
0.0011577382
0.0054885101
0.013183445
0.02265598
0.30538997
0.30668446
0.022768246
0.013250253
0.0055140922
0.0011594314
0.0011611572
0.0055402304
0.013318235
0.022882184
0.30800032
0.30934176
0.022998525
0.013387545
0.0055668412
0.0011629125
0.0011647046
0.0055940298
0.013458092
0.023116682
0.31070765
0.31210107
0.02323738
0.013530072
0.0056217391
0.0011665319
0.0011683999
0.0056500638
0.013603388
0.023360091
0.31352074
0.31496981
0.023485472
0.013678226
0.0056789456
0.0011703068
0.0011722583
0.0057084685
0.01375446
0.023612983
0.31644763
0.31795653
0.023743299
0.013832311
0.0057385977
0.0011742536
0.0011762967
0.005769395
0.013911629
0.023875881
0.31949607
0.32106899
0.024011366
0.013992636
0.0058008319
0.0011783875
0.0011805303
0.005832975
0.014075203
0.024149296
0.32267616
0.3243205
0.024290235
0.014159552
0.0058658022
0.0011827246
0.0011849745
0.0058993798
0.014245578
0.024433833
0.3260033
0.32772768
0.024580597
0.014333491
0.0059336942
0.0011872797
0.0011896438
0.0059687956
0.014423164
0.024730142
0.32949448
0.33130496
0.024883128
0.014514909
0.006004721
0.0011920692
0.0011945609
0.0060414846
0.01460854
0.025039118
0.33315959
0.33506029
0.025198734
0.014704347
0.0060791039
0.0011971212
0.0011944922
0.0060406031
0.014606171
0.025034839
0.33312176
0.3312809
0.024879793
0.014513102
0.006004047
0.0011920186
0.0011896076
0.0059681614
0.014421519
0.02472713
0.32948008
0.32771219
0.024576381
0.014330987
0.0059326768
0.0011872342
0.0011849067
0.0058980681
0.014242255
0.024428229
0.32598604
0.32430273
0.024283771
0.014155703
0.0058642906
0.0011826393
0.0011804304
0.0058312831
0.014070884
0.024142016
0.322657
0.32104721
0.024003684
0.013988046
0.0057990331
0.0011782769
0.0011761808
0.0057675698
0.013906927
0.023867961
0.31946984
0.31792842
0.023735991
0.013827989
0.0057369358
0.0011741425
0.0011721572
0.0057070254
0.013750659
0.023606474
0.31641939
0.31493986
0.023479837
0.0136749
0.0056776685
0.0011702159
0.0011683172
0.0056488327
0.013600207
0.023354729
0.3134854
0.31206057
0.023232501
0.013527131
0.0056205874
0.0011664584
0.001164638
0.0055929212
0.013455213
0.023111844
0.31066138
0.30928995
0.022993952
0.013384793
0.0055657716
0.0011628512
0.001161098
0.0055391484
0.013315406
0.022877412
0.30794414
0.30662475
0.022763574
0.013247452
0.0055130072
0.0011593742
0.0011576806
0.0054873776
0.013180482
0.022650963
0.30532663
0.30405331
0.022541056
0.013114907
0.0054622065
0.0011560122
0.0011543691
0.0054375163
0.013050223
0.022432175
0.30279695
0.30156235
0.022326176
0.012986972
0.0054132799
0.0011527448
0.0011511416
0.0053895573
0.012924718
0.022221458
0.30033649
0.29911426
0.022120996
0.012864437
0.0053664242
0.0011495539
0.001147996
0.0053442639
0.012806706
0.022025341
0.29786662
0.29655734
0.021941067
0.012754102
0.0053236193
0.0011464663
0.0011449464
0.00530465
0.012706992
0.021869095
0.29508296
0.29326533
0.021804318
0.012661147
0.0052851205
0.0011430866
0.0011397233
0.0052530887
0.012585773
0.021692779
0.29065497
0.28673874
0.02143405
0.012425269
0.0051871432
0.001131851
0.0011159482
0.0050660155
0.012121869
0.020914008
0.28131801
0.27515833
0.020161573
0.011689731
0.0048913521
0.0010918264
0.001055652
0.0045795982
0.010899852
0.018835422
0.26387184
0.27516218
0.021592038
0.012424329
0.0051323689
0.00110864
0.00109486
0.0050041371
0.011963984
0.020616019
0.27655701
0.28016926
0.021231542
0.012272737
0.0051183531
0.0011268126
0.001140878
0.0052758557
0.012678608
0.021906105
0.28706458
0.29091648
0.02215238
0.012830304
0.0053397384
0.0011485515
0.0011515522
0.0053712417
0.01290578
0.02226489
0.29359674
0.29544692
0.022331673
0.012951883
0.005390679
0.0011533758
0.0011548909
0.0054100754
0.013000104
0.022405533
0.29694697
0.29827388
0.022492979
0.013054077
0.0054310989
0.0011564353
0.0011580132
0.005453722
0.013112745
0.022589905
0.29952725
0.30075706
0.022693096
0.013174258
0.0054772149
0.0011596176
0.0011612442
0.0055014079
0.013237437
0.022799048
0.3019865
0.30322907
0.02290779
0.013301985
0.0055260399
0.0011628885
0.0011645579
0.005551214
0.013367648
0.023018052
0.30448627
0.30576517
0.023130658
0.013434532
0.005576798
0.0011662488
0.0011679708
0.0056029229
0.013502535
0.023244797
0.3070648
0.30839012
0.023361373
0.013571854
0.0056295105
0.0011697205
0.0011715057
0.0056566634
0.013642374
0.023479658
0.30973726
0.31111083
0.023600479
0.013714293
0.00568432
0.0011733236
0.0011751798
0.0057125769
0.013787503
0.023723199
0.31250961
0.31393687
0.023848548
0.013862182
0.0057413643
0.0011770721
0.0011790075
0.0057707745
0.013938213
0.023975929
0.31539129
0.3168762
0.024106045
0.014015804
0.0058007637
0.0011809846
0.001183009
0.0058314088
0.014094825
0.024238358
0.31839081
0.31993872
0.024373558
0.014175518
0.0058626798
0.0011850801
0.001187204
0.0058946409
0.014257734
0.02451113
0.32151918
0.32313549
0.024651763
0.014341747
0.0059272953
0.0011893804
0.0011916127
0.0059607027
0.014427435
0.024795006
0.32478718
0.32647711
0.024941497
0.014515053
0.0059948566
0.0011939019
0.0011962531
0.0060298407
0.01460453
0.025090916
0.32820585
0.32997657
0.025243999
0.014696222
0.0060656983
0.0011986677
0.0012011547
0.0061026009
0.014790223
0.025400608
0.33178963
0.3336471
0.025561679
0.014887322
0.0061409796
0.0012037215
0.0012063533
0.0061820609
0.014987875
0.025725492
0.33554906
0.0011944873
0.0060402677
0.014605495
0.025033943
0.33312733
0.33127347
0.024877157
0.014511405
0.0060033529
0.0011919878
0.0011895558
0.0059673568
0.014419414
0.024723677
0.3294663
0.32770718
0.024574399
0.014329944
0.0059323562
0.0011871931
0.0011848944
0.0058981661
0.01424234
0.02442811
0.32598986
0.32431241
0.024285314
0.014156763
0.005864752
0.0011826576
0.0011804783
0.005832077
0.014072804
0.024145023
0.32267072
0.32106544
0.024008042
0.013990772
0.0058001344
0.0011783525
0.0011762808
0.005768804
0.0139101
0.023873182
0.31949081
0.31793884
0.023739855
0.01383016
0.005737704
0.0011742375
0.0011722243
0.0057073246
0.013751591
0.023608363
0.31641692
0.31492944
0.023480023
0.013674852
0.0056776195
0.0011702488
0.0011683337
0.0056488711
0.013600259
0.023354877
0.31347928
0.31205794
0.023232803
0.01352729
0.0056206544
0.0011664708
0.0011646483
0.0055929897
0.013455409
0.023112218
0.3106614
0.30929113
0.022994314
0.01338499
0.0055658422
0.0011628609
0.001161109
0.0055392157
0.013315592
0.022877733
0.30794391
0.30662274
0.022763758
0.013247568
0.0055130514
0.0011593862
0.001157694
0.0054873922
0.013180519
0.022651025
0.30532247
0.3040466
0.02254091
0.013114822
0.0054621728
0.0011560264
0.0011543843
0.0054374441
0.013050046
0.022431896
0.30278794
0.30155002
0.02232564
0.01298664
0.0054131435
0.0011527614
0.0011511606
0.0053893685
0.012924267
0.022220753
0.3003206
0.29909488
0.022120081
0.012863856
0.0053661795
0.0011495769
0.0011480248
0.0053439808
0.012806028
0.022024276
0.29784281
0.29653098
0.021939818
0.012753308
0.0053232869
0.0011465027
0.0011449928
0.0053043057
0.012706149
0.021867741
0.29505508
0.29324009
0.021802622
0.012660084
0.0052846716
0.001143141
0.0011397924
0.0052527898
0.012585012
0.021691486
0.29064996
0.28678197
0.02143473
0.012425795
0.0051873967
0.0011319549
0.0011161485
0.0050676326
0.012125882
0.02092058
0.28146291
0.2754098
0.020175844
0.011697335
0.0048943522
0.001092246
0.0010567613
0.0046062036
0.01096767
0.018944394
0.26498276
0.29331363
0.016975829
0.0098206671
0.0041582185
0.0010319558
0.0010882135
0.0048544506
0.011611056
0.020006603
0.27025978
0.27384565
0.020109859
0.011678831
0.0048822229
0.0010848516
0.0010908146
0.0049015158
0.01170728
0.0201677
0.27641152
0.28187268
0.020911569
0.012125665
0.0050695729
0.0011154566
0.0011314532
0.0051894198
0.012429455
0.021437412
0.28704726
0.29087068
0.021700891
0.012591221