/*--------------------------------*- C++ -*----------------------------------*\
  =========                 |
  \\      /  F ield         | OpenFOAM: The Open Source CFD Toolbox
   \\    /   O peration     | Website:  https://openfoam.org
    \\  /    A nd           | Version:  7
     \\/     M anipulation  |
\*---------------------------------------------------------------------------*/
FoamFile
{
    version     2.0;
    format      ascii;
    class       volScalarField;
    location    "360";
    object      p;
}
// * * * * * * * * * * * * * * * * * * * * * * * * * * * * * * * * * * * * * //

dimensions      [1 -1 -2 0 0 0 0];

internalField   nonuniform List<scalar> 
25201
(
101314.95
101314.26
101314.99
101314.39
101313.57
101313.69
101313.88
101313.74
101313.43
101312.9
101313.4
101313.62
101313.22
101316.34
101317.01
101312.78
101313.68
101313.7
101312.16
101315.85
101313.69
101314.03
101312.73
101315.77
101315.86
101314.67
101313.66
101313.55
101314.07
101314.15
101314.41
101313.17
101318.39
101317.62
101316.66
101317.5
101313.57
101314.45
101318.46
101319.1
101314.26
101314.59
101314.7
101318.85
101319.49
101319.24
101317
101315.78
101313.38
101313.39
101312.88
101312.76
101313.94
101313.8
101313.46
101313.23
101313.8
101314.91
101313.82
101315.27
101312.3
101315.31
101313.89
101314
101311.73
101312.08
101312.01
101312.19
101313.74
101313.99
101315.83
101312.76
101315.17
101313.9
101314.14
101316.25
101313.32
101313.83
101316.71
101315.59
101315.93
101314.66
101317.34
101315.56
101317.8
101313.82
101317.23
101316.7
101315.39
101315.26
101312.48
101319.1
101315.76
101318.49
101316.01
101312.31
101313.75
101317.51
101317.74
101318.56
101317.37
101318.32
101319.78
101319.73
101317.73
101321.36
101319.85
101316.51
101318.2
101318.95
101316.41
101315.55
101318.99
101318.45
101320.62
101322.15
101319.98
101321.17
101321.97
101319.81
101318.06
101323.01
101320.15
101321.91
101322.97
101319.22
101319.29
101318.11
101315.14
101317.87
101318.44
101318.83
101318.93
101318.49
101318.17
101317.21
101316.96
101317.09
101315.18
101313.63
101313.15
101313.84
101315.19
101312.16
101314.68
101313.71
101313.76
101313.4
101312.81
101312.05
101311.72
101313.96
101313.73
101312.19
101311.99
101311.93
101312.67
101313.05
101314.82
101313.73
101315.76
101312.51
101313.65
101315.62
101314.36
101315.15
101316.29
101313.62
101318.81
101317.09
101317.69
101315.49
101315.32
101315.52
101314.66
101316.75
101315.38
101317.16
101320.57
101317.58
101319.93
101314.63
101319.17
101321.48
101317.75
101323.01
101319.11
101322.96
101322.62
101323.05
101321.74
101320.42
101320.44
101316.94
101318.9
101312.26
101314.92
101321.64
101322.66
101317.57
101319.31
101317.65
101321.11
101315.42
101318.04
101319.37
101319.42
101319.59
101316.33
101320.04
101321.69
101322.83
101319.17
101320.95
101318.03
101318.66
101314.35
101314.9
101312.93
101313.35
101314.05
101314.71
101317.24
101314.22
101313.94
101314.09
101314.6
101319.41
101318.77
101318.13
101318.87
101318.12
101314.3
101313.29
101312.83
101316.18
101317.07
101316.22
101313.75
101313.46
101340.23
101340.67
101341.04
101341.85
101354.13
101383.26
101382.33
101381.71
101381.09
101380.55
101358.18
101358.24
101358.19
101358.25
101359.64
101355.83
101355.54
101355.47
101355.42
101355.38
101346.07
101346.09
101346.11
101346.14
101346.56
101341.27
101341.05
101341.02
101341
101340.98
101335.97
101335.99
101336.01
101336.03
101336.15
101332.34
101332.34
101332.32
101332.31
101332.29
101329.09
101329.11
101329.12
101329.13
101329.06
101326.39
101326.51
101326.5
101326.49
101326.47
101324.22
101324.24
101324.25
101324.25
101324.11
101322.17
101322.33
101322.33
101322.32
101322.31
101320.64
101320.65
101320.66
101320.66
101320.48
101318.99
101319.19
101319.19
101319.18
101319.17
101317.86
101317.87
101317.88
101317.88
101317.67
101316.47
101316.69
101316.69
101316.69
101316.68
101315.59
101315.61
101315.61
101315.61
101315.38
101314.37
101314.6
101314.6
101314.6
101314.59
101313.65
101313.66
101313.67
101313.67
101313.42
101312.52
101312.77
101312.77
101312.77
101312.76
101311.88
101311.9
101311.9
101311.9
101311.65
101310.81
101311.06
101311.07
101311.06
101311.05
101310.25
101310.27
101310.27
101310.27
101310
101309.17
101309.44
101309.44
101309.44
101309.43
101308.6
101308.62
101308.62
101308.62
101308.35
101307.54
101307.81
101307.81
101307.81
101307.79
101306.98
101307
101307
101307
101306.72
101305.85
101306.14
101306.14
101306.14
101306.12
101305.09
101305.11
101305.11
101305.11
101304.85
101303.99
101304.16
101304.15
101304.13
101304.1
101303.77
101303.78
101303.78
101303.77
101303.41
101302.3
101302.62
101302.63
101302.63
101302.62
101302.41
101302.9
101302.92
101302.93
101302.93
101303.93
101303.93
101303.92
101303.91
101303.47
101304.05
101304.2
101304.18
101304.16
101304.13
101304.9
101304.93
101304.94
101304.96
101304.78
101305.8
101306.14
101306.14
101306.14
101306.12
101306.99
101307
101307.01
101307.01
101306.69
101307.5
101307.81
101307.81
101307.81
101307.79
101308.61
101308.62
101308.63
101308.63
101308.32
101309.15
101309.47
101309.48
101309.47
101309.46
101310.27
101310.28
101310.29
101310.28
101309.96
101310.77
101311.08
101311.08
101311.07
101311.06
101311.89
101311.9
101311.91
101311.9
101311.61
101312.5
101312.79
101312.79
101312.79
101312.77
101313.65
101313.66
101313.67
101313.66
101313.39
101314.32
101314.58
101314.59
101314.58
101314.57
101315.55
101315.56
101315.56
101315.56
101315.31
101316.39
101316.62
101316.62
101316.62
101316.61
101317.76
101317.77
101317.78
101317.78
101317.56
101318.86
101319.06
101319.05
101319.05
101319.04
101320.46
101320.47
101320.48
101320.48
101320.31
101321.96
101322.1
101322.1
101322.09
101322.08
101323.92
101323.94
101323.94
101323.95
101323.85
101326.05
101326.1
101326.09
101326.09
101326.07
101328.55
101328.57
101328.58
101328.59
101328.62
101331.75
101331.62
101331.6
101331.59
101331.57
101335
101335.03
101335.04
101335.06
101335.37
101340.17
101339.68
101339.65
101339.64
101339.61
101344.32
101344.34
101344.35
101344.39
101345.13
101353.38
101352.52
101352.47
101352.45
101352.42
101356.86
101356.91
101356.93
101357
101357.96
101374.69
101370.62
101370.26
101370.01
101369.78
101358.23
101359.16
101359.87
101360.51
101365.39
101377.86
101271.73
101258.88
101246.99
101233.16
101391.01
101391.98
101393.11
101393.99
101398
101394.68
101391.25
101390.96
101390.79
101390.67
101370.86
101370.84
101370.82
101370.82
101370.74
101362.14
101361.82
101361.81
101361.82
101361.83
101350.87
101350.86
101350.85
101350.85
101351.18
101344.56
101344.35
101344.34
101344.34
101344.34
101338.52
101338.53
101338.53
101338.53
101338.63
101334.23
101334.27
101334.27
101334.27
101334.26
101330.65
101330.66
101330.66
101330.66
101330.55
101327.58
101327.75
101327.75
101327.74
101327.73
101325.26
101325.27
101325.27
101325.27
101325.07
101322.96
101323.18
101323.18
101323.18
101323.17
101321.37
101321.38
101321.38
101321.38
101321.14
101319.55
101319.8
101319.8
101319.8
101319.79
101318.4
101318.41
101318.41
101318.4
101318.14
101316.88
101317.15
101317.15
101317.15
101317.14
101316
101316.02
101316.02
101316.01
101315.73
101314.67
101314.96
101314.97
101314.97
101314.95
101313.98
101313.99
101313.99
101313.99
101313.68
101312.75
101313.06
101313.06
101313.06
101313.05
101312.17
101312.18
101312.19
101312.18
101311.87
101311.03
101311.36
101311.37
101311.37
101311.36
101310.55
101310.55
101310.55
101310.55
101310.2
101309.33
101309.67
101309.68
101309.68
101309.67
101308.77
101308.78
101308.79
101308.79
101308.47
101307.63
101307.94
101307.94
101307.93
101307.92
101307.09
101307.1
101307.11
101307.1
101306.78
101305.88
101306.21
101306.21
101306.21
101306.2
101304.96
101304.99
101305.01
101305.02
101304.85
101304.12
101304.27
101304.26
101304.24
101304.2
101304.03
101304.03
101304.02
101304.01
101303.56
101302.54
101303.06
101303.08
101303.1
101303.1
101301.64
101301.65
101301.65
101301.64
101301.27
101301.54
101301.56
101301.56
101301.55
101301.26
101302.52
101302.89
101302.91
101302.91
101302.91
101303.7
101303.71
101303.72
101303.72
101303.43
101304.12
101304.34
101304.33
101304.32
101304.3
101304.95
101304.97
101304.99
101305
101304.83
101305.87
101306.16
101306.16
101306.16
101306.15
101307.05
101307.07
101307.07
101307.07
101306.79
101307.63
101307.9
101307.9
101307.9
101307.88
101308.73
101308.74
101308.75
101308.75
101308.47
101309.34
101309.62
101309.62
101309.62
101309.61
101310.46
101310.47
101310.48
101310.47
101310.19
101311.02
101311.3
101311.3
101311.3
101311.29
101312.1
101312.12
101312.12
101312.11
101311.85
101312.73
101312.99
101312.99
101312.99
101312.98
101313.91
101313.92
101313.92
101313.92
101313.66
101314.65
101314.9
101314.9
101314.9
101314.89
101315.94
101315.95
101315.95
101315.95
101315.71
101316.86
101317.09
101317.09
101317.09
101317.08
101318.33
101318.34
101318.35
101318.34
101318.13
101319.54
101319.74
101319.75
101319.74
101319.73
101321.31
101321.32
101321.33
101321.32
101321.13
101322.96
101323.14
101323.14
101323.13
101323.12
101325.22
101325.23
101325.24
101325.24
101325.08
101327.6
101327.73
101327.73
101327.72
101327.71
101330.65
101330.66
101330.67
101330.67
101330.6
101334.33
101334.33
101334.32
101334.32
101334.3
101338.65
101338.66
101338.66
101338.67
101338.81
101344.92
101344.66
101344.65
101344.65
101344.64
101351.64
101351.63
101351.62
101351.62
101352
101363.95
101363.85
101363.88
101363.91
101363.94
101377.31
101377.12
101376.95
101376.79
101375.88
101407.48
101410.59
101411
101411.41
101411.91
101439.43
101438.42
101437.52
101436.57
101430.26
101355.54
101352.04
101353.14
101354.85
101357.11
101395.7
101396.36
101396.99
101397.6
101397.15
101364.33
101363.03
101363.02
101363.05
101363.04
101359.28
101359.31
101359.37
101359.42
101359.6
101349.08
101348.65
101348.63
101348.62
101348.61
101342.98
101343
101343.01
101343.04
101343.24
101337.67
101337.56
101337.54
101337.53
101337.52
101333.55
101333.56
101333.57
101333.58
101333.57
101330.06
101330.15
101330.14
101330.13
101330.11
101327.33
101327.34
101327.35
101327.35
101327.22
101324.81
101324.97
101324.97
101324.96
101324.95
101322.92
101322.94
101322.94
101322.94
101322.76
101320.98
101321.18
101321.18
101321.17
101321.16
101319.63
101319.64
101319.64
101319.64
101319.43
101318.05
101318.27
101318.27
101318.27
101318.26
101317.02
101317.04
101317.04
101317.04
101316.8
101315.67
101315.91
101315.91
101315.91
101315.9
101314.86
101314.87
101314.87
101314.87
101314.62
101313.65
101313.9
101313.9
101313.9
101313.89
101312.97
101312.99
101312.99
101312.99
101312.73
101311.85
101312.11
101312.12
101312.11
101312.1
101311.26
101311.27
101311.27
101311.27
101311
101310.17
101310.45
101310.45
101310.45
101310.44
101309.61
101309.62
101309.63
101309.62
101309.34
101308.52
101308.79
101308.8
101308.8
101308.78
101307.95
101307.97
101307.97
101307.97
101307.69
101306.85
101307.13
101307.13
101307.13
101307.11
101306.25
101306.26
101306.26
101306.26
101305.98
101305.06
101305.33
101305.33
101305.33
101305.31
101304.43
101304.45
101304.46
101304.45
101304.17
101303.33
101303.63
101303.63
101303.63
101303.61
101302.62
101302.63
101302.64
101302.63
101302.33
101301.22
101301.49
101301.49
101301.49
101301.47
101301.55
101301.57
101301.57
101301.56
101301.27
101302.53
101302.91
101302.92
101302.93
101302.92
101303.71
101303.73
101303.74
101303.73
101303.43
101304.11
101304.31
101304.3
101304.29
101304.27
101304.9
101304.93
101304.95
101304.96
101304.8
101305.84
101306.11
101306.11
101306.11
101306.09
101306.99
101307.01
101307.01
101307.01
101306.75
101307.59
101307.85
101307.85
101307.85
101307.83
101308.68
101308.69
101308.7
101308.69
101308.43
101309.3
101309.58
101309.58
101309.58
101309.56
101310.42
101310.43
101310.44
101310.43
101310.15
101310.99
101311.26
101311.26
101311.26
101311.25
101312.06
101312.08
101312.08
101312.08
101311.82
101312.7
101312.96
101312.96
101312.96
101312.94
101313.87
101313.88
101313.88
101313.88
101313.63
101314.61
101314.85
101314.86
101314.86
101314.84
101315.89
101315.9
101315.9
101315.9
101315.67
101316.8
101317.03
101317.03
101317.03
101317.01
101318.27
101318.28
101318.28
101318.28
101318.06
101319.46
101319.66
101319.67
101319.66
101319.65
101321.22
101321.23
101321.23
101321.23
101321.04
101322.86
101323.03
101323.03
101323.03
101323.01
101325.1
101325.11
101325.11
101325.11
101324.96
101327.46
101327.58
101327.58
101327.58
101327.56
101330.48
101330.49
101330.5
101330.5
101330.43
101334.14
101334.13
101334.13
101334.12
101334.11
101338.43
101338.45
101338.45
101338.46
101338.59
101344.68
101344.44
101344.43
101344.43
101344.42
101351.4
101351.39
101351.37
101351.37
101351.73
101363.75
101363.68
101363.71
101363.74
101363.78
101377
101376.81
101376.64
101376.49
101375.57
101408.63
101411.4
101411.8
101412.2
101412.71
101440.11
101439.24
101438.42
101437.47
101430.02
101392.88
101400.26
101401.37
101402.5
101403.83
101397.11
101397.2
101397.47
101397.78
101399.39
101369.72
101370.07
101370.13
101370.19
101370.26
101361.16
101361.14
101361.13
101361.12
101361.23
101350.13
101349.84
101349.85
101349.86
101349.87
101343.51
101343.51
101343.51
101343.51
101343.68
101337.88
101337.82
101337.81
101337.81
101337.8
101333.67
101333.67
101333.68
101333.68
101333.62
101330.04
101330.17
101330.17
101330.16
101330.16
101327.32
101327.33
101327.33
101327.33
101327.16
101324.72
101324.92
101324.92
101324.92
101324.91
101322.87
101322.88
101322.88
101322.88
101322.66
101320.88
101321.12
101321.12
101321.12
101321.11
101319.57
101319.58
101319.58
101319.58
101319.32
101317.95
101318.21
101318.21
101318.21
101318.2
101316.97
101316.98
101316.99
101316.98
101316.71
101315.58
101315.86
101315.87
101315.87
101315.86
101314.82
101314.83
101314.84
101314.83
101314.54
101313.57
101313.87
101313.88
101313.87
101313.86
101312.95
101312.96
101312.96
101312.96
101312.65
101311.78
101312.09
101312.09
101312.09
101312.07
101311.27
101311.28
101311.28
101311.28
101310.95
101310.12
101310.47
101310.48
101310.48
101310.47
101309.6
101309.61
101309.61
101309.61
101309.26
101308.4
101308.72
101308.73
101308.72
101308.71
101307.86
101307.88
101307.88
101307.88
101307.57
101306.73
101307.05
101307.05
101307.05
101307.04
101306.14
101306.15
101306.15
101306.15
101305.82
101304.78
101304.95
101304.93
101304.92
101304.88
101304.14
101304.17
101304.19
101304.21
101304.06
101303.53
101303.98
101303.99
101304
101304
101303.05
101303.05
101303.04
101303.02
101302.5
101301.23
101301.59
101301.6
101301.6
101301.58
101301.16
101301.43
101301.43
101301.43
101301.41
101302.66
101302.68
101302.68
101302.67
101302.34
101303.44
101303.79
101303.79
101303.79
101303.79
101304.1
101304.13
101304.15
101304.16
101303.99
101304.85
101305.11
101305.11
101305.1
101305.08
101306.13
101306.14
101306.15
101306.14
101305.85
101306.73
101307.01
101307.01
101307.01
101306.99
101307.82
101307.84
101307.84
101307.84
101307.57
101308.39
101308.66
101308.66
101308.65
101308.64
101309.48
101309.49
101309.5
101309.49
101309.22
101310.06
101310.33
101310.34
101310.33
101310.32
101311.12
101311.13
101311.14
101311.13
101310.88
101311.72
101311.96
101311.97
101311.96
101311.95
101312.83
101312.84
101312.84
101312.84
101312.6
101313.51
101313.75
101313.75
101313.75
101313.74
101314.69
101314.7
101314.71
101314.7
101314.48
101315.5
101315.72
101315.72
101315.72
101315.71
101316.81
101316.82
101316.83
101316.82
101316.62
101317.84
101318.03
101318.04
101318.03
101318.02
101319.36
101319.37
101319.38
101319.38
101319.2
101320.73
101320.88
101320.89
101320.88
101320.87
101322.59
101322.61
101322.61
101322.61
101322.47
101324.49
101324.6
101324.59
101324.59
101324.58
101326.92
101326.93
101326.93
101326.93
101326.86
101329.67
101329.67
101329.67
101329.66
101329.65
101333.03
101333.04
101333.04
101333.05
101333.13
101337.21
101336.98
101336.97
101336.97
101336.96
101342.36
101342.37
101342.37
101342.38
101342.76
101348.7
101348.07
101348.06
101348.07
101348.08
101358.72
101358.72
101358.73
101358.75
101359.27
101364.93
101363.39
101363.41
101363.46
101363.48
101395.32
101395.93
101396.51
101397.03
101397.36
101364.24
101362.93
101364.4
101366.59
101369.3
101358.94
101359.28
101359.64
101360.34
101372.18
101395.36
101394.33
101393.86
101393.45
101392.85
101365.7
101365.66
101365.61
101365.61
101367.08
101361.12
101360.66
101360.63
101360.59
101360.58
101349.75
101349.75
101349.75
101349.75
101350.3
101344.08
101343.78
101343.77
101343.77
101343.76
101338.09
101338.1
101338.1
101338.11
101338.28
101334.01
101333.98
101333.98
101333.97
101333.96
101330.42
101330.43
101330.44
101330.44
101330.39
101327.46
101327.58
101327.58
101327.57
101327.56
101325.12
101325.13
101325.13
101325.13
101324.99
101322.9
101323.07
101323.07
101323.07
101323.05
101321.27
101321.28
101321.29
101321.28
101321.09
101319.51
101319.71
101319.72
101319.71
101319.7
101318.32
101318.33
101318.33
101318.33
101318.11
101316.85
101317.08
101317.09
101317.08
101317.07
101315.94
101315.95
101315.95
101315.95
101315.71
101314.66
101314.9
101314.9
101314.9
101314.89
101313.91
101313.93
101313.93
101313.93
101313.67
101312.74
101313
101313.01
101313
101312.99
101312.11
101312.12
101312.13
101312.12
101311.86
101311.02
101311.28
101311.29
101311.29
101311.27
101310.46
101310.47
101310.48
101310.47
101310.19
101309.34
101309.62
101309.63
101309.62
101309.61
101308.77
101308.78
101308.79
101308.78
101308.5
101307.66
101307.95
101307.95
101307.95
101307.94
101307.1
101307.11
101307.12
101307.11
101306.82
101305.94
101306.24
101306.24
101306.24
101306.23
101305.19
101305.21
101305.22
101305.22
101304.95
101304.09
101304.26
101304.25
101304.23
101304.2
101303.84
101303.84
101303.84
101303.83
101303.47
101302.38
101302.7
101302.7
101302.7
101302.69
101301.47
101301.48
101301.49
101301.49
101301.21
101313.79
101312.49
101313.77
101312.43
101311.11
101312
101312.33
101311.86
101311.26
101312.01
101311.15
101309.25
101311.25
101309.72
101308.59
101309.91
101311.37
101311.09
101308.84
101308.65
101309.51
101311.33
101310.46
101310.27
101311.29
101310.86
101309.13
101307.94
101308.27
101306.83
101307.42
101305.86
101307.78
101306.74
101304.82
101303.84
101306.11
101305.99
101307.96
101309.1
101309.2
101308.22
101308.12
101310.28
101311.38
101311.96
101314.2
101313.88
101314
101312.25
101312.39
101314.29
101316.26
101313.01
101315.41
101314.04
101314
101312.97
101314.17
101314.78
101313.34
101312.98
101385.91
101389.79
101390.31
101390.79
101391.35
101388.43
101388.06
101387.74
101387.43
101384.76
101361.22
101361.87
101361.97
101362.1
101362.24
101354.63
101354.63
101354.63
101354.63
101354.84
101345.7
101345.19
101345.17
101345.17
101345.16
101340.14
101340.16
101340.18
101340.2
101340.55
101335.64
101335.42
101335.4
101335.39
101335.37
101331.89
101331.91
101331.92
101331.93
101332
101328.85
101328.87
101328.86
101328.85
101328.83
101326.32
101326.34
101326.35
101326.35
101326.27
101324.06
101324.18
101324.17
101324.17
101324.15
101322.29
101322.3
101322.31
101322.31
101322.16
101320.51
101320.68
101320.68
101320.67
101320.66
101319.21
101319.23
101319.23
101319.23
101319.04
101317.74
101317.94
101317.94
101317.93
101317.92
101316.75
101316.76
101316.77
101316.77
101316.55
101315.47
101315.69
101315.69
101315.69
101315.67
101314.68
101314.69
101314.69
101314.69
101314.46
101313.52
101313.76
101313.76
101313.76
101313.74
101312.85
101312.87
101312.87
101312.87
101312.62
101311.76
101312.01
101312.02
101312.01
101312
101311.17
101311.19
101311.19
101311.19
101310.93
101310.11
101310.38
101310.38
101310.38
101310.37
101309.57
101309.58
101309.59
101309.58
101309.31
101308.5
101308.78
101308.79
101308.78
101308.77
101307.96
101307.98
101307.98
101307.98
101307.68
101306.85
101307.15
101307.15
101307.15
101307.13
101306.28
101306.3
101306.3
101306.3
101306
101305.13
101305.41
101305.42
101305.41
101305.4
101304.49
101304.5
101304.51
101304.5
101304.22
101303.3
101303.57
101303.57
101303.57
101303.55
101302.53
101302.55
101302.55
101302.55
101302.28
101301.19
101301.44
101301.44
101301.44
101301.42
101302.76
101302.76
101302.76
101302.74
101302.37
101303.34
101303.63
101303.63
101303.63
101303.61
101304.31
101304.33
101304.34
101304.35
101304.12
101304.84
101305.01
101305
101304.99
101304.96
101306.08
101306.1
101306.1
101306.1
101305.82
101306.7
101306.97
101306.97
101306.97
101306.95
101307.74
101307.76
101307.76
101307.76
101307.51
101308.3
101308.56
101308.56
101308.55
101308.53
101309.35
101309.36
101309.37
101309.36
101309.1
101309.89
101310.14
101310.15
101310.14
101310.13
101310.94
101310.95
101310.96
101310.95
101310.71
101311.57
101311.81
101311.81
101311.81
101311.8
101312.67
101312.68
101312.69
101312.69
101312.45
101313.3
101313.53
101313.53
101313.52
101313.51
101314.42
101314.44
101314.44
101314.44
101314.22
101315.2
101315.42
101315.42
101315.41
101315.4
101316.44
101316.46
101316.46
101316.46
101316.26
101317.41
101317.6
101317.6
101317.59
101317.58
101318.82
101318.84
101318.84
101318.85
101318.67
101320.08
101320.24
101320.23
101320.23
101320.21
101321.78
101321.79
101321.8
101321.8
101321.67
101323.49
101323.6
101323.59
101323.58
101323.57
101325.64
101325.65
101325.66
101325.67
101325.61
101328.05
101328.06
101328.05
101328.04
101328.02
101330.89
101330.91
101330.92
101330.94
101331.03
101334.43
101334.2
101334.17
101334.16
101334.14
101338.5
101338.52
101338.53
101338.56
101338.94
101343.57
101343
101342.98
101342.97
101342.96
101350.96
101350.98
101350.98
101351
101351.42
101356.55
101356.68
101356.73
101356.81
101356.88
101376.54
101376.27
101376.07
101375.89
101374.67
101374.75
101375.23
101375.43
101375.65
101375.85
101344.72
101348.73
101352.54
101357.09
101392.89
101677.95
101774.3
101783.23
101789.15
101794.28
101332.84
101330.64
101328.96
101327.96
101333.82
101384.28
101384.84
101384.24
101383.63
101382.96
101351.97
101351.97
101351.94
101351.95
101353.25
101351.59
101351.38
101351.33
101351.29
101351.26
101342.25
101342.27
101342.27
101342.3
101342.81
101338.49
101338.22
101338.19
101338.18
101338.16
101333.73
101333.75
101333.77
101333.79
101333.95
101330.66
101330.64
101330.62
101330.61
101330.59
101327.76
101327.78
101327.79
101327.8
101327.76
101325.38
101325.49
101325.48
101325.47
101325.45
101323.43
101323.44
101323.45
101323.46
101323.33
101321.56
101321.71
101321.71
101321.7
101321.69
101320.15
101320.17
101320.18
101320.18
101320
101318.62
101318.81
101318.81
101318.81
101318.79
101317.57
101317.58
101317.58
101317.59
101317.38
101316.25
101316.47
101316.47
101316.46
101316.45
101315.42
101315.43
101315.44
101315.44
101315.21
101314.24
101314.47
101314.48
101314.47
101314.46
101313.56
101313.57
101313.58
101313.57
101313.32
101312.45
101312.71
101312.71
101312.71
101312.69
101311.86
101311.88
101311.88
101311.88
101311.62
101310.8
101311.07
101311.07
101311.07
101311.06
101310.26
101310.27
101310.28
101310.27
101310
101309.2
101309.48
101309.48
101309.48
101309.46
101308.67
101308.68
101308.68
101308.68
101308.4
101307.59
101307.87
101307.87
101307.87
101307.86
101307.04
101307.06
101307.06
101307.06
101306.77
101305.93
101306.22
101306.22
101306.22
101306.2
101305.34
101305.36
101305.36
101305.36
101305.07
101304.18
101304.47
101304.47
101304.47
101304.45
101303.51
101303.53
101303.53
101303.53
101303.25
101302.23
101302.51
101302.51
101302.51
101302.49
101301.39
101301.41
101301.41
101301.41
101301.14
101302.44
101302.46
101302.47
101302.47
101302.21
101303.22
101303.5
101303.5
101303.49
101303.47
101304.38
101304.4
101304.4
101304.4
101304.13
101304.99
101305.28
101305.28
101305.28
101305.27
101306.18
101306.2
101306.2
101306.19
101305.9
101306.74
101307.02
101307.02
101307.02
101307.01
101307.81
101307.82
101307.82
101307.82
101307.54
101308.33
101308.61
101308.61
101308.61
101308.6
101309.32
101309.34
101309.34
101309.34
101309.09
101309.72
101309.84
101309.83
101309.81
101309.78
101310.75
101310.77
101310.77
101310.78
101310.56
101311.51
101311.78
101311.78
101311.78
101311.76
101312.81
101312.82
101312.81
101312.8
101312.49
101313.28
101313.51
101313.51
101313.5
101313.49
101314.35
101314.37
101314.37
101314.37
101314.16
101315.12
101315.33
101315.33
101315.33
101315.31
101316.33
101316.35
101316.35
101316.36
101316.16
101317.29
101317.47
101317.46
101317.46
101317.45
101318.66
101318.68
101318.68
101318.69
101318.52
101319.9
101320.04
101320.04
101320.03
101320.02
101321.55
101321.56
101321.57
101321.58
101321.45
101323.21
101323.31
101323.3
101323.29
101323.27
101325.27
101325.29
101325.3
101325.31
101325.26
101327.61
101327.6
101327.59
101327.58
101327.56
101330.33
101330.35
101330.36
101330.38
101330.47
101333.72
101333.48
101333.46
101333.44
101333.42
101337.58
101337.6
101337.62
101337.65
101338.03
101342.4
101341.85
101341.82
101341.82
101341.8
101349.43
101349.44
101349.44
101349.47
101349.88
101354.59
101354.76
101354.81
101354.89
101354.97
101374.19
101373.92
101373.7
101373.51
101372.23
101372.67
101373.46
101373.55
101373.58
101373.56
101345.16
101348.82
101352.43
101356.62
101391.87
101378.72
101285.61
101274.29
101263.55
101250.72
101530.94
101531.02
101531.86
101531.59
101504.46
101582.45
101648.15
101653.72
101657.63
101661.62
101398.87
101398.37
101397.85
101397.21
101391.03
101388.87
101390.88
101391.17
101391.48
101391.87
101364.67
101364.52
101364.39
101364.28
101363.54
101356.61
101356.42
101356.42
101356.44
101356.46
101346.56
101346.56
101346.55
101346.57
101347
101341.53
101341.23
101341.21
101341.21
101341.19
101336.16
101336.18
101336.18
101336.2
101336.38
101332.57
101332.53
101332.51
101332.51
101332.49
101329.3
101329.31
101329.32
101329.33
101329.29
101326.62
101326.72
101326.71
101326.71
101326.69
101324.45
101324.46
101324.47
101324.47
101324.34
101322.39
101322.55
101322.55
101322.54
101322.53
101320.85
101320.86
101320.87
101320.87
101320.69
101319.2
101319.39
101319.39
101319.39
101319.37
101318.05
101318.07
101318.07
101318.07
101317.86
101316.66
101316.88
101316.88
101316.88
101316.86
101315.77
101315.78
101315.78
101315.78
101315.55
101314.53
101314.77
101314.77
101314.77
101314.75
101313.8
101313.82
101313.82
101313.82
101313.57
101312.66
101312.92
101312.92
101312.92
101312.9
101312.04
101312.06
101312.06
101312.05
101311.79
101310.95
101311.22
101311.22
101311.22
101311.21
101310.39
101310.4
101310.41
101310.4
101310.13
101309.31
101309.59
101309.59
101309.59
101309.58
101308.76
101308.78
101308.78
101308.78
101308.5
101307.68
101307.96
101307.96
101307.96
101307.94
101307.12
101307.13
101307.14
101307.13
101306.85
101305.99
101306.28
101306.28
101306.27
101306.26
101305.38
101305.39
101305.4
101305.39
101305.12
101304.23
101304.51
101304.51
101304.5
101304.49
101303.57
101303.59
101303.59
101303.59
101303.32
101302.32
101302.59
101302.59
101302.59
101302.57
101301.46
101301.48
101301.48
101301.48
101301.22
101301.22
101301.54
101301.54
101301.54
101301.52
101302.64
101302.66
101302.66
101302.66
101302.32
101303.33
101303.68
101303.68
101303.68
101303.66
101304.54
101304.55
101304.56
101304.55
101304.22
101305.1
101305.44
101305.44
101305.44
101305.43
101306.33
101306.34
101306.34
101306.34
101306
101306.86
101307.2
101307.21
101307.2
101307.19
101308.03
101308.04
101308.04
101308.04
101307.7
101308.52
101308.86
101308.87
101308.86
101308.85
101309.67
101309.68
101309.68
101309.68
101309.35
101310.17
101310.49
101310.5
101310.5
101310.48
101311.3
101311.31
101311.31
101311.31
101310.99
101311.83
101312.14
101312.15
101312.15
101312.13
101313
101313.01
101313.01
101313.01
101312.71
101313.62
101313.91
101313.92
101313.91
101313.9
101314.86
101314.87
101314.87
101314.87
101314.59
101315.63
101315.9
101315.9
101315.9
101315.88
101317
101317.01
101317.01
101317.01
101316.75
101317.98
101318.22
101318.22
101318.22
101318.21
101319.55
101319.56
101319.57
101319.56
101319.34
101320.87
101321.07
101321.07
101321.07
101321.06
101322.77
101322.78
101322.79
101322.79
101322.61
101324.62
101324.76
101324.76
101324.75
101324.74
101327.05
101327.06
101327.07
101327.07
101326.97
101329.74
101329.76
101329.75
101329.75
101329.73
101333.02
101333.04
101333.05
101333.06
101333.14
101337.1
101336.84
101336.83
101336.81
101336.8
101341.97
101341.99
101342
101342.02
101342.44
101348.04
101347.39
101347.37
101347.36
101347.35
101357.32
101357.35
101357.36
101357.39
101357.96
101363.53
101362.85
101362.84
101362.89
101362.92
101386.8
101387.07
101387.39
101387.78
101390.36
101370.17
101370.26
101370.72
101371.27
101371.82
101377.8
101282.46
101270.98
101260.43
101248.01
101360.54
101361.53
101362.59
101363.43
101367.4
101375.03
101372.34
101372.11
101371.97
101371.87
101356.89
101356.88
101356.9
101356.93
101356.98
101352.74
101352.37
101352.35
101352.34
101352.33
101343.94
101343.94
101343.94
101343.96
101344.35
101339.62
101339.36
101339.34
101339.33
101339.32
101334.75
101334.77
101334.78
101334.79
101334.93
101331.45
101331.45
101331.44
101331.43
101331.42
101328.46
101328.48
101328.48
101328.49
101328.4
101325.92
101326.06
101326.05
101326.05
101326.04
101323.93
101323.94
101323.94
101323.95
101323.77
101321.93
101322.13
101322.13
101322.12
101322.11
101320.52
101320.53
101320.53
101320.54
101320.31
101318.88
101319.12
101319.12
101319.12
101319.11
101317.84
101317.85
101317.86
101317.86
101317.6
101316.44
101316.71
101316.71
101316.71
101316.69
101315.64
101315.65
101315.65
101315.65
101315.37
101314.38
101314.67
101314.67
101314.67
101314.66
101313.73
101313.74
101313.75
101313.74
101313.45
101312.56
101312.87
101312.87
101312.87
101312.86
101312.01
101312.02
101312.03
101312.02
101311.71
101310.89
101311.21
101311.21
101311.21
101311.19
101310.39
101310.4
101310.41
101310.4
101310.08
101309.27
101309.6
101309.61
101309.6
101309.59
101308.79
101308.8
101308.81
101308.8
101308.47
101307.66
101308
101308
101308
101307.99
101307.17
101307.18
101307.18
101307.18
101306.84
101305.99
101306.34
101306.34
101306.34
101306.32
101305.45
101305.47
101305.47
101305.47
101305.12
101304.23
101304.57
101304.57
101304.57
101304.56
101303.62
101303.63
101303.64
101303.64
101303.29
101302.29
101302.62
101302.63
101302.62
101302.61
101301.5
101301.52
101301.52
101301.52
101301.2
101301.4
101301.42
101301.43
101301.42