/*--------------------------------*- C++ -*----------------------------------*\
  =========                 |
  \\      /  F ield         | OpenFOAM: The Open Source CFD Toolbox
   \\    /   O peration     | Website:  https://openfoam.org
    \\  /    A nd           | Version:  7
     \\/     M anipulation  |
\*---------------------------------------------------------------------------*/
FoamFile
{
    version     2.0;
    format      ascii;
    class       volScalarField;
    location    "360";
    object      rho;
}
// * * * * * * * * * * * * * * * * * * * * * * * * * * * * * * * * * * * * * //

dimensions      [1 -3 0 0 0 0 0];

internalField   nonuniform List<scalar> 
25201
(
1.1738752
1.1738664
1.1738755
1.1738674
1.1738508
1.173855
1.1738602
1.1738616
1.173854
1.1738426
1.1738537
1.1738544
1.1738482
1.1739098
1.1739203
1.173849
1.1738652
1.1738703
1.1738536
1.1739101
1.173877
1.1738754
1.1738549
1.1738998
1.173908
1.1738958
1.1738769
1.1738652
1.173874
1.1738866
1.1738899
1.1738715
1.1739454
1.1739352
1.1739221
1.1739236
1.1738701
1.1738834
1.1739362
1.1739447
1.1738806
1.1738858
1.1738948
1.1739516
1.1739498
1.1739398
1.1739073
1.1738832
1.1738489
1.1738497
1.1738448
1.173841
1.1738532
1.1738518
1.173848
1.1738456
1.1738553
1.1738711
1.1738539
1.1738761
1.1738443
1.1738789
1.1738579
1.1738558
1.1738287
1.1738322
1.1738303
1.1738358
1.1738561
1.1738618
1.1738856
1.1738535
1.1738747
1.173855
1.1738585
1.173892
1.1738617
1.1738671
1.173903
1.1738875
1.1738912
1.1738729
1.1739114
1.1738862
1.1739132
1.1738644
1.1739117
1.1739123
1.173898
1.1738953
1.1738641
1.1739379
1.1739057
1.1739394
1.1739157
1.1738655
1.1738852
1.1739364
1.1739437
1.1739518
1.1739336
1.173945
1.1739562
1.1739555
1.1739283
1.1739704
1.1739563
1.1739129
1.1739383
1.1739556
1.1739259
1.173911
1.1739556
1.1739548
1.1739824
1.1740006
1.1739695
1.1739829
1.1739868
1.1739598
1.1739356
1.1739996
1.1739623
1.1739823
1.173996
1.1739488
1.1739518
1.1739378
1.1738947
1.1739324
1.1739406
1.1739462
1.1739387
1.1739329
1.173928
1.1739152
1.1739099
1.1739094
1.1738779
1.1738539
1.173845
1.1738575
1.1738756
1.1738432
1.1738693
1.1738532
1.1738516
1.1738475
1.1738441
1.1738318
1.1738286
1.1738555
1.1738561
1.1738358
1.1738302
1.173829
1.1738403
1.1738461
1.173872
1.1738536
1.1738853
1.1738516
1.1738634
1.1738891
1.1738702
1.1738841
1.1739001
1.173866
1.1739289
1.1739077
1.1739128
1.1738859
1.1738863
1.1738871
1.1738724
1.1738994
1.1738866
1.1739114
1.1739592
1.1739215
1.173951
1.1738903
1.1739422
1.1739739
1.1739288
1.1739893
1.1739446
1.1739917
1.1739874
1.1739944
1.1739757
1.1739592
1.173958
1.1739095
1.1739367
1.1738629
1.173894
1.1739845
1.1739966
1.1739312
1.1739521
1.1739285
1.1739691
1.1739034
1.1739364
1.1739533
1.173957
1.1739547
1.1739117
1.1739617
1.173981
1.1739952
1.1739487
1.1739732
1.1739437
1.1739525
1.1738672
1.1738749
1.1738492
1.1738638
1.1738739
1.1738949
1.1739322
1.1738886
1.1738851
1.1738793
1.1738859
1.1739492
1.1739508
1.1739434
1.1739429
1.1739336
1.1738824
1.173868
1.1738692
1.1739185
1.1739203
1.1739086
1.1738734
1.1738638
1.1736779
1.1736889
1.173724
1.1737636
1.1740448
1.1746009
1.1746067
1.1745997
1.1745909
1.1745888
1.174301
1.1743058
1.174307
1.174308
1.174323
1.1743224
1.1743198
1.1743187
1.1743166
1.1743138
1.1742077
1.1742126
1.1742157
1.1742176
1.1742284
1.1741845
1.1741735
1.1741712
1.1741674
1.1741616
1.1741084
1.1741151
1.1741195
1.1741222
1.174135
1.1740989
1.174086
1.174083
1.1740782
1.1740708
1.174036
1.1740441
1.1740492
1.1740523
1.1740658
1.1740378
1.1740239
1.1740206
1.1740151
1.1740065
1.1739795
1.1739887
1.1739945
1.173998
1.1740125
1.1739897
1.1739745
1.1739707
1.1739647
1.1739549
1.1739319
1.1739423
1.1739486
1.1739526
1.1739686
1.1739487
1.1739318
1.1739277
1.173921
1.1739101
1.1738893
1.1739006
1.1739076
1.173912
1.1739298
1.1739115
1.1738927
1.1738881
1.1738808
1.1738689
1.1738489
1.1738613
1.173869
1.1738738
1.1738937
1.173876
1.1738549
1.1738499
1.1738419
1.1738289
1.1738092
1.1738226
1.173831
1.1738363
1.1738586
1.1738411
1.1738175
1.1738119
1.1738031
1.1737892
1.1737688
1.1737833
1.1737924
1.1737983
1.1738233
1.1738054
1.173779
1.1737728
1.1737633
1.1737482
1.1737275
1.1737431
1.173753
1.1737594
1.1737874
1.1737686
1.173739
1.1737321
1.1737218
1.1737056
1.1736834
1.1737002
1.173711
1.1737181
1.1737496
1.1737301
1.1736968
1.1736892
1.173678
1.1736606
1.1736372
1.1736552
1.1736669
1.1736748
1.1737101
1.1736891
1.1736517
1.1736434
1.1736312
1.1736124
1.1735853
1.1736049
1.1736177
1.1736265
1.1736665
1.1736449
1.1736015
1.1735921
1.1735787
1.173558
1.1735364
1.1735577
1.1735714
1.173581
1.1736252
1.1735985
1.1735507
1.1735404
1.1735258
1.1735037
1.1736003
1.1735367
1.1735252
1.1735093
1.1734856
1.1735181
1.1735409
1.1735559
1.1735667
1.1736266
1.1736461
1.1735873
1.1735767
1.173562
1.1735398
1.1735651
1.1735863
1.1736006
1.1736107
1.173666
1.1736887
1.1736381
1.1736285
1.1736149
1.1735947
1.1736201
1.1736396
1.1736526
1.1736617
1.1737098
1.1737298
1.1736841
1.1736754
1.1736628
1.1736439
1.1736674
1.1736856
1.1736976
1.1737059
1.1737492
1.1737684
1.1737276
1.1737197
1.1737081
1.1736906
1.173713
1.1737298
1.1737409
1.1737484
1.1737871
1.1738052
1.1737684
1.1737612
1.1737506
1.1737344
1.1737555
1.1737712
1.1737813
1.1737881
1.173823
1.1738408
1.1738079
1.1738014
1.1737917
1.1737766
1.173797
1.1738115
1.1738208
1.173827
1.1738582
1.1738755
1.1738459
1.1738401
1.1738311
1.1738172
1.1738374
1.1738507
1.1738593
1.1738648
1.173893
1.1739107
1.1738839
1.1738787
1.1738705
1.1738577
1.1738783
1.1738905
1.1738983
1.1739033
1.1739288
1.1739475
1.1739232
1.1739185
1.173911
1.1738993
1.1739211
1.1739322
1.1739393
1.1739439
1.173967
1.1739877
1.1739656
1.1739613
1.1739545
1.1739439
1.1739682
1.1739782
1.1739846
1.1739887
1.17401
1.1740347
1.1740141
1.1740102
1.1740041
1.1739946
1.1740232
1.1740321
1.1740378
1.1740416
1.1740619
1.1740938
1.1740739
1.1740704
1.174065
1.1740568
1.1740926
1.1741001
1.1741051
1.1741084
1.1741286
1.1741754
1.1741564
1.1741535
1.174149
1.1741423
1.1741873
1.1741929
1.1741967
1.1741992
1.1742176
1.174301
1.1742871
1.1742853
1.1742823
1.1742774
1.1743069
1.1743087
1.1743102
1.1743111
1.1743206
1.1745116
1.1744555
1.1744495
1.174444
1.1744388
1.1743766
1.1743931
1.1743927
1.1743853
1.1743093
1.174576
1.1732495
1.1731343
1.1730167
1.1728843
1.1746663
1.1746726
1.1746742
1.1746692
1.1745906
1.1746773
1.1746252
1.1746204
1.1746169
1.1746156
1.1744315
1.1744303
1.1744306
1.1744303
1.1744276
1.1743747
1.174367
1.174366
1.1743637
1.1743605
1.1742458
1.1742502
1.1742534
1.1742553
1.1742684
1.1742124
1.1741973
1.1741947
1.1741907
1.1741847
1.1741245
1.1741314
1.174136
1.174139
1.1741561
1.174115
1.1740974
1.1740942
1.174089
1.1740813
1.1740425
1.174051
1.1740565
1.1740601
1.1740785
1.174048
1.1740289
1.1740251
1.1740191
1.1740099
1.1739806
1.1739905
1.1739968
1.1740008
1.1740208
1.1739967
1.1739755
1.1739713
1.1739646
1.1739541
1.1739297
1.1739407
1.1739477
1.1739522
1.1739744
1.1739538
1.1739303
1.1739256
1.1739182
1.1739066
1.1738846
1.1738968
1.1739045
1.1739095
1.1739342
1.1739154
1.1738893
1.1738841
1.173876
1.1738633
1.1738425
1.1738557
1.1738642
1.1738697
1.1738972
1.1738793
1.1738502
1.1738444
1.1738356
1.1738218
1.1738013
1.1738156
1.1738249
1.1738309
1.1738616
1.173844
1.1738115
1.1738051
1.1737955
1.1737806
1.1737598
1.1737753
1.1737853
1.173792
1.1738262
1.1738085
1.1737724
1.1737654
1.173755
1.1737389
1.1737174
1.1737341
1.173745
1.1737523
1.1737902
1.1737712
1.1737311
1.1737233
1.1737119
1.1736946
1.1736712
1.1736891
1.1737011
1.1737092
1.1737517
1.1737321
1.1736872
1.1736786
1.1736662
1.1736476
1.1736237
1.1736429
1.1736558
1.1736648
1.1737121
1.1736909
1.1736412
1.1736317
1.1736183
1.1735983
1.1735688
1.1735898
1.1736039
1.1736139
1.1736682
1.1736484
1.1735907
1.1735802
1.1735657
1.1735438
1.1735231
1.1735456
1.1735603
1.1735709
1.1736294
1.1736043
1.1735425
1.1735311
1.1735155
1.1734921
1.1734546
1.1734793
1.173496
1.1735083
1.173576
1.173471
1.173494
1.1735093
1.1735203
1.1735733
1.1736018
1.1735532
1.173543
1.1735286
1.1735067
1.1735345
1.1735557
1.1735695
1.1735792
1.1736256
1.1736462
1.1736021
1.1735929
1.1735796
1.1735591
1.1735823
1.1736021
1.173615
1.1736239
1.173666
1.1736889
1.1736505
1.173642
1.1736297
1.1736108
1.1736358
1.173654
1.1736658
1.1736738
1.1737102
1.1737303
1.1736959
1.1736883
1.1736769
1.1736592
1.1736824
1.1736994
1.1737103
1.1737176
1.17375
1.1737696
1.173739
1.1737321
1.1737216
1.1737053
1.1737274
1.1737432
1.1737532
1.1737597
1.1737885
1.1738069
1.1737796
1.1737734
1.1737638
1.1737486
1.1737691
1.1737838
1.1737929
1.1737988
1.1738247
1.1738425
1.1738181
1.1738124
1.1738036
1.1737895
1.1738099
1.1738234
1.1738318
1.1738372
1.1738602
1.173878
1.1738562
1.1738512
1.1738431
1.17383
1.1738503
1.1738628
1.1738706
1.1738754
1.173896
1.1739144
1.1738949
1.1738903
1.1738829
1.1738709
1.1738918
1.1739033
1.1739104
1.1739147
1.1739332
1.1739529
1.1739354
1.1739313
1.1739245
1.1739135
1.1739363
1.1739467
1.1739532
1.1739571
1.1739736
1.1739959
1.1739802
1.1739765
1.1739704
1.1739605
1.1739868
1.1739961
1.1740018
1.1740053
1.1740203
1.1740476
1.1740334
1.1740301
1.1740246
1.1740159
1.1740484
1.1740564
1.1740615
1.1740645
1.1740783
1.1741153
1.1741021
1.1740992
1.1740946
1.1740873
1.1741309
1.1741373
1.1741415
1.1741441
1.1741572
1.1742151
1.1742034
1.1742013
1.1741978
1.1741923
1.1742568
1.1742607
1.1742633
1.1742648
1.1742753
1.17439
1.1743867
1.1743862
1.1743848
1.1743831
1.174487
1.1744824
1.1744805
1.174479
1.174476
1.1747988
1.174812
1.1748165
1.1748238
1.1748351
1.1750646
1.1750363
1.1750088
1.1749882
1.1749255
1.1739471
1.1736206
1.173583
1.1735575
1.1735701
1.1747415
1.1747402
1.1747506
1.1747596
1.1747455
1.1743591
1.1743423
1.1743411
1.1743383
1.1743304
1.1743503
1.174352
1.174354
1.174355
1.1743566
1.1742498
1.1742388
1.174237
1.174234
1.1742292
1.1741797
1.1741852
1.1741889
1.1741911
1.1742018
1.1741484
1.1741357
1.1741331
1.1741288
1.1741222
1.1740824
1.1740897
1.1740943
1.1740972
1.1741098
1.1740748
1.1740616
1.1740585
1.1740534
1.1740454
1.1740145
1.1740232
1.1740285
1.1740318
1.1740454
1.174019
1.1740048
1.1740013
1.1739956
1.1739864
1.173961
1.1739707
1.1739768
1.1739804
1.1739953
1.1739735
1.1739577
1.1739538
1.1739475
1.1739372
1.173915
1.1739258
1.1739325
1.1739366
1.1739531
1.1739338
1.1739162
1.1739119
1.1739049
1.1738936
1.173873
1.1738848
1.1738921
1.1738966
1.1739151
1.173897
1.1738774
1.1738727
1.173865
1.1738527
1.1738328
1.1738456
1.1738535
1.1738585
1.1738792
1.1738615
1.1738397
1.1738344
1.1738261
1.1738128
1.1737928
1.1738067
1.1738153
1.1738208
1.1738439
1.1738262
1.1738017
1.1737959
1.173787
1.1737725
1.1737521
1.173767
1.1737764
1.1737825
1.1738083
1.1737902
1.1737627
1.1737564
1.1737466
1.1737311
1.1737095
1.1737256
1.1737358
1.1737425
1.1737716
1.1737525
1.1737216
1.1737146
1.173704
1.1736873
1.1736645
1.1736818
1.1736928
1.1737002
1.1737329
1.1737129
1.1736781
1.1736703
1.1736588
1.1736408
1.1736163
1.1736349
1.173647
1.1736552
1.173692
1.1736702
1.173631
1.1736223
1.1736097
1.1735903
1.1735642
1.1735844
1.1735976
1.1736068
1.1736483
1.1736263
1.1735823
1.1735726
1.1735588
1.1735377
1.1735082
1.1735303
1.1735447
1.1735549
1.1736017
1.1735752
1.1735248
1.1735139
1.1734988
1.1734758
1.1734701
1.1734931
1.1735085
1.1735195
1.1735726
1.1736013
1.1735525
1.1735423
1.1735279
1.173506
1.1735339
1.1735552
1.1735689
1.1735786
1.1736252
1.1736457
1.1736014
1.1735921
1.1735788
1.1735582
1.1735813
1.1736011
1.1736141
1.1736231
1.1736653
1.1736881
1.1736495
1.173641
1.1736287
1.1736097
1.1736346
1.1736529
1.1736647
1.1736728
1.1737094
1.1737296
1.1736949
1.1736872
1.1736757
1.1736581
1.1736812
1.1736982
1.1737092
1.1737165
1.1737492
1.1737688
1.173738
1.173731
1.1737205
1.1737041
1.1737262
1.173742
1.1737521
1.1737587
1.1737878
1.1738063
1.1737787
1.1737724
1.1737627
1.1737475
1.173768
1.1737827
1.173792
1.1737979
1.1738241
1.1738419
1.1738172
1.1738115
1.1738027
1.1737885
1.1738089
1.1738225
1.173831
1.1738363
1.1738597
1.1738775
1.1738554
1.1738503
1.1738421
1.1738291
1.1738494
1.173862
1.1738697
1.1738746
1.1738955
1.1739137
1.173894
1.1738894
1.1738819
1.1738699
1.1738909
1.1739024
1.1739095
1.1739139
1.1739326
1.1739522
1.1739345
1.1739303
1.1739235
1.1739125
1.1739353
1.1739457
1.1739522
1.1739561
1.1739728
1.173995
1.1739792
1.1739754
1.1739693
1.1739594
1.1739855
1.1739948
1.1740006
1.1740041
1.1740192
1.1740464
1.174032
1.1740287
1.1740232
1.1740145
1.1740467
1.1740548
1.1740599
1.174063
1.1740769
1.1741137
1.1741003
1.1740974
1.1740928
1.1740854
1.1741289
1.1741353
1.1741395
1.1741421
1.1741554
1.1742131
1.1742015
1.1741994
1.1741959
1.1741905
1.1742547
1.1742585
1.1742611
1.1742626
1.1742731
1.1743889
1.1743857
1.1743854
1.1743841
1.1743825
1.1744823
1.1744778
1.1744758
1.1744743
1.1744718
1.1748139
1.1748236
1.1748285
1.1748362
1.174849
1.1750383
1.1750092
1.1749817
1.174962
1.1748968
1.1744354
1.1744985
1.1745102
1.1745256
1.1745452
1.1747172
1.1747109
1.174713
1.1747161
1.1747382
1.1744147
1.1744142
1.1744143
1.1744135
1.1744136
1.1743573
1.1743598
1.1743618
1.1743626
1.1743677
1.174259
1.1742457
1.1742437
1.1742404
1.1742358
1.1741774
1.1741833
1.1741874
1.1741899
1.1742047
1.1741496
1.1741325
1.1741295
1.1741247
1.1741178
1.1740758
1.1740836
1.1740888
1.1740921
1.1741096
1.1740739
1.1740556
1.174052
1.1740464
1.1740379
1.1740061
1.1740153
1.1740213
1.1740251
1.1740441
1.1740176
1.1739975
1.1739935
1.1739871
1.1739773
1.1739514
1.1739618
1.1739685
1.1739727
1.1739938
1.1739719
1.1739497
1.1739452
1.1739381
1.1739271
1.1739044
1.173916
1.1739234
1.1739281
1.1739515
1.1739322
1.1739074
1.1739024
1.1738947
1.1738825
1.1738614
1.1738741
1.1738822
1.1738874
1.1739136
1.1738955
1.1738678
1.1738623
1.1738538
1.1738406
1.1738201
1.1738338
1.1738427
1.1738485
1.1738777
1.17386
1.1738292
1.1738231
1.1738138
1.1737995
1.1737788
1.1737937
1.1738034
1.1738098
1.1738424
1.1738246
1.1737902
1.1737834
1.1737733
1.1737578
1.173737
1.1737531
1.1737636
1.1737706
1.1738069
1.1737887
1.1737505
1.1737431
1.1737321
1.1737154
1.1736925
1.1737099
1.1737214
1.1737292
1.1737696
1.1737502
1.1737073
1.173699
1.173687
1.1736689
1.1736454
1.1736641
1.1736766
1.1736852
1.1737306
1.1737105
1.1736626
1.1736536
1.1736406
1.1736212
1.1735956
1.1736158
1.1736293
1.1736388
1.1736892
1.1736663
1.1736112
1.1736011
1.1735869
1.1735657
1.1735407
1.1735628
1.1735774
1.173588
1.1736465
1.1736276
1.1735682
1.1735575
1.1735426
1.1735199
1.1734883
1.173512
1.1735278
1.1735393
1.1736021
1.1735735
1.173505
1.1734926
1.1734756
1.1734507
1.1735721
1.1735208
1.1735098
1.1734945
1.1734713
1.1735048
1.173527
1.1735415
1.1735519
1.1735995
1.1736259
1.1735814
1.1735718
1.173558
1.1735369
1.1735581
1.1735787
1.1735921
1.1736016
1.1736451
1.1736666
1.1736266
1.1736178
1.173605
1.1735853
1.1736126
1.1736314
1.1736436
1.173652
1.1736893
1.1737103
1.1736751
1.1736671
1.1736554
1.1736373
1.173661
1.1736785
1.1736897
1.1736972
1.1737304
1.1737499
1.1737186
1.1737114
1.1737007
1.1736838
1.1737063
1.1737225
1.1737328
1.1737396
1.1737691
1.173788
1.1737602
1.1737538
1.1737439
1.1737283
1.1737491
1.1737642
1.1737737
1.1737798
1.1738061
1.173824
1.1737991
1.1737933
1.1737842
1.1737697
1.1737901
1.1738041
1.1738128
1.1738183
1.1738418
1.1738594
1.1738373
1.173832
1.1738237
1.1738102
1.1738303
1.1738432
1.1738512
1.1738561
1.1738771
1.1738948
1.173875
1.1738702
1.1738626
1.1738502
1.1738704
1.1738823
1.1738896
1.1738941
1.1739129
1.1739314
1.1739136
1.1739093
1.1739023
1.1738909
1.1739122
1.173923
1.1739297
1.1739337
1.1739506
1.1739709
1.1739548
1.173951
1.1739446
1.1739343
1.1739578
1.1739676
1.1739736
1.1739772
1.1739925
1.174016
1.1740013
1.1739979
1.1739922
1.173983
1.1740109
1.1740195
1.1740248
1.174028
1.1740422
1.1740713
1.1740575
1.1740545
1.1740495
1.1740416
1.1740781
1.1740853
1.1740899
1.1740927
1.1741062
1.1741448
1.1741311
1.1741286
1.1741244
1.174118
1.1741749
1.1741803
1.1741838
1.1741858
1.1741981
1.1742477
1.1742348
1.1742333
1.1742306
1.1742261
1.174346
1.1743474
1.1743488
1.1743493
1.1743542
1.1743689
1.1743499
1.1743492
1.174347
1.1743409
1.1747414
1.1747375
1.1747463
1.1747533
1.1747449
1.1740514
1.1737698
1.17374
1.1737235
1.1737415
1.1738472
1.1738582
1.1738941
1.1739334
1.1742133
1.1747119
1.1747144
1.1747082
1.1747012
1.1746997
1.1743653
1.1743693
1.1743709
1.1743717
1.1743884
1.1743695
1.1743653
1.1743646
1.1743628
1.174361
1.1742408
1.1742451
1.1742479
1.1742494
1.1742612
1.1742094
1.1741979
1.1741959
1.1741924
1.174187
1.1741278
1.1741342
1.1741383
1.1741409
1.1741539
1.1741138
1.1741009
1.1740981
1.1740935
1.1740863
1.1740484
1.1740563
1.1740613
1.1740643
1.1740777
1.1740476
1.1740339
1.1740306
1.1740253
1.1740167
1.173988
1.1739971
1.1740028
1.1740063
1.1740206
1.1739966
1.1739815
1.1739779
1.1739719
1.1739621
1.1739382
1.1739485
1.1739548
1.1739587
1.1739745
1.1739538
1.1739371
1.1739331
1.1739264
1.1739156
1.1738941
1.1739055
1.1739124
1.1739167
1.1739343
1.1739155
1.173897
1.1738925
1.1738851
1.1738733
1.173853
1.1738653
1.173873
1.1738777
1.1738973
1.1738794
1.1738587
1.1738537
1.1738458
1.1738329
1.173813
1.1738263
1.1738346
1.1738398
1.1738617
1.173844
1.1738209
1.1738154
1.1738067
1.1737929
1.1737727
1.1737871
1.173796
1.1738018
1.1738262
1.1738084
1.1737826
1.1737765
1.1737671
1.1737522
1.1737315
1.173747
1.1737567
1.173763
1.1737903
1.1737714
1.1737426
1.1737359
1.1737257
1.1737097
1.1736874
1.173704
1.1737146
1.1737217
1.1737522
1.1737326
1.1737003
1.1736928
1.1736818
1.1736645
1.1736411
1.173659
1.1736705
1.1736783
1.1737125
1.1736915
1.1736553
1.1736471
1.1736351
1.1736165
1.1735897
1.1736091
1.1736216
1.1736303
1.1736691
1.1736477
1.1736054
1.1735962
1.173583
1.1735626
1.1735413
1.1735621
1.1735756
1.173585
1.1736282
1.1736023
1.1735557
1.1735456
1.1735312
1.1735095
1.1734763
1.1734991
1.1735141
1.1735249
1.1735752
1.1738665
1.1738529
1.1738663
1.1738525
1.1738302
1.1738432
1.1738497
1.1738484
1.1738414
1.1738433
1.173827
1.173814
1.1738413
1.1738222
1.1738018
1.1738121
1.1738265
1.1738207
1.1737956
1.173793
1.1738041
1.1738236
1.1738145
1.1738136
1.173822
1.1738246
1.1738127
1.1737878
1.1737936
1.1737811
1.173793
1.1737663
1.1737855
1.1737715
1.1737516
1.173738
1.1737708
1.1737673
1.1737859
1.1737965
1.1737991
1.1737883
1.1737867
1.173814
1.1738221
1.173829
1.1738565
1.1738528
1.1738621
1.1738386
1.1738411
1.1738666
1.1738928
1.1738594
1.1738808
1.1738581
1.1738577
1.1738456
1.1738659
1.1738741
1.1738527
1.1738468
1.1745401
1.1745867
1.1746054
1.1746314
1.1746482
1.1746387
1.1746315
1.1746252
1.1746216
1.1746129
1.1743491
1.1743479
1.1743486
1.1743494
1.1743518
1.1743016
1.1743047
1.1743068
1.1743078
1.1743135
1.1742213
1.1742084
1.1742064
1.1742032
1.1741984
1.1741522
1.1741582
1.1741622
1.1741646
1.174178
1.1741302
1.1741155
1.1741126
1.1741081
1.1741013
1.1740656
1.1740732
1.174078
1.1740811
1.1740956
1.1740636
1.1740486
1.1740454
1.1740402
1.1740319
1.1740035
1.1740123
1.1740178
1.1740213
1.1740364
1.1740118
1.173996
1.1739923
1.1739865
1.1739771
1.173953
1.173963
1.1739692
1.173973
1.1739894
1.1739686
1.1739514
1.1739474
1.1739409
1.1739304
1.1739089
1.1739199
1.1739267
1.1739309
1.173949
1.1739302
1.1739112
1.1739067
1.1738996
1.1738881
1.1738679
1.1738799
1.1738874
1.173892
1.1739121
1.1738943
1.1738732
1.1738683
1.1738605
1.173848
1.1738282
1.1738412
1.1738494
1.1738545
1.1738768
1.1738594
1.1738358
1.1738304
1.1738219
1.1738084
1.1737886
1.1738026
1.1738114
1.1738171
1.1738419
1.1738244
1.1737981
1.1737922
1.173783
1.1737684
1.1737479
1.1737631
1.1737726
1.1737789
1.1738066
1.1737885
1.1737592
1.1737526
1.1737427
1.1737269
1.1737055
1.1737218
1.1737321
1.173739
1.17377
1.173751
1.1737182
1.173711
1.1737002
1.1736833
1.1736605
1.173678
1.1736893
1.1736969
1.1737315
1.1737114
1.1736746
1.1736666
1.1736549
1.1736366
1.173612
1.1736309
1.1736432
1.1736516
1.1736905
1.1736689
1.1736276
1.1736187
1.1736058
1.1735861
1.1735594
1.1735799
1.1735933
1.1736027
1.1736466
1.1736235
1.173577
1.173567
1.1735529
1.1735315
1.1735017
1.1735241
1.1735389
1.1735493
1.1735989
1.1735726
1.1735193
1.1735082
1.1734927
1.1734694
1.173502
1.173524
1.1735384
1.1735487
1.1735982
1.1736232
1.1735761
1.1735663
1.1735524
1.1735312
1.1735573
1.1735778
1.1735911
1.1736005
1.1736451
1.1736651
1.1736225
1.1736134
1.1736004
1.1735805
1.1736086
1.1736276
1.17364
1.1736485
1.1736875
1.1737087
1.1736717
1.1736636
1.1736517
1.1736334
1.1736567
1.1736744
1.1736859
1.1736936
1.1737286
1.173748
1.1737149
1.1737075
1.1736965
1.1736794
1.1737018
1.1737183
1.1737288
1.1737358
1.173767
1.1737854
1.1737559
1.1737493
1.1737392
1.1737233
1.1737444
1.1737597
1.1737693
1.1737756
1.1738036
1.1738216
1.1737954
1.1737894
1.1737801
1.1737654
1.1737859
1.1738001
1.173809
1.1738147
1.1738395
1.1738566
1.1738331
1.1738276
1.1738191
1.1738055
1.1738253
1.1738383
1.1738465
1.1738516
1.1738738
1.1738913
1.1738702
1.1738653
1.1738575
1.1738449
1.1738647
1.1738768
1.1738842
1.1738889
1.1739089
1.1739268
1.1739078
1.1739034
1.1738963
1.1738847
1.1739052
1.1739162
1.173923
1.1739272
1.1739452
1.1739644
1.1739473
1.1739433
1.1739368
1.1739263
1.1739484
1.1739584
1.1739645
1.1739683
1.1739847
1.1740065
1.1739908
1.1739872
1.1739813
1.1739719
1.1739975
1.1740064
1.1740119
1.1740153
1.1740304
1.1740565
1.1740417
1.1740385
1.1740333
1.1740251
1.1740572
1.1740648
1.1740696
1.1740726
1.1740871
1.17412
1.1741054
1.1741027
1.1740982
1.1740913
1.1741386
1.1741447
1.1741486
1.174151
1.1741642
1.1742038
1.1741913
1.1741894
1.1741862
1.1741812
1.1742696
1.1742734
1.1742757
1.1742768
1.1742831
1.1743116
1.1743101
1.1743104
1.1743105
1.1743111
1.1745211
1.1745172
1.1745137
1.1745121
1.1745142
1.1744518
1.1744851
1.1745006
1.1745194
1.1745281
1.1740986
1.1741022
1.1741674
1.1742737
1.1746418
1.1783811
1.1801577
1.1803175
1.1804327
1.1805014
1.1733302
1.1733212
1.1733476
1.173387
1.173747
1.1746419
1.1746586
1.174651
1.1746425
1.1746432
1.1742291
1.1742363
1.1742395
1.1742413
1.1742607
1.1742881
1.1742855
1.1742843
1.1742822
1.1742794
1.1741717
1.1741772
1.1741805
1.1741826
1.1741951
1.1741608
1.1741489
1.1741465
1.1741426
1.1741365
1.1740881
1.1740951
1.1740995
1.1741023
1.174116
1.1740847
1.1740711
1.1740681
1.1740632
1.1740556
1.1740241
1.1740324
1.1740375
1.1740408
1.1740547
1.1740295
1.1740151
1.1740117
1.1740062
1.1739974
1.1739725
1.1739819
1.1739877
1.1739912
1.1740061
1.1739849
1.1739694
1.1739656
1.1739595
1.1739496
1.173928
1.1739384
1.1739448
1.1739487
1.173965
1.1739461
1.173929
1.1739249
1.1739182
1.1739073
1.1738873
1.1738987
1.1739057
1.1739101
1.173928
1.1739104
1.1738915
1.1738869
1.1738796
1.1738677
1.1738484
1.1738607
1.1738684
1.1738732
1.1738931
1.1738759
1.1738549
1.1738499
1.1738419
1.173829
1.1738098
1.1738232
1.1738315
1.1738367
1.1738589
1.1738418
1.1738183
1.1738128
1.1738041
1.1737902
1.1737705
1.1737849
1.1737939
1.1737997
1.1738245
1.1738069
1.1737807
1.1737746
1.1737652
1.1737502
1.1737295
1.1737451
1.1737548
1.1737612
1.1737889
1.1737705
1.1737412
1.1737345
1.1737243
1.1737082
1.1736862
1.1737029
1.1737136
1.1737207
1.1737517
1.1737323
1.1736994
1.1736919
1.1736808
1.1736634
1.17364
1.173658
1.1736696
1.1736775
1.1737124
1.1736917
1.1736547
1.1736464
1.1736343
1.1736155
1.1735901
1.1736096
1.1736223
1.1736311
1.1736704
1.1736483
1.1736065
1.1735973
1.173584
1.1735636
1.173536
1.1735573
1.1735711
1.1735808
1.1736251
1.1736003
1.1735532
1.1735429
1.1735284
1.1735065
1.1734748
1.1734973
1.1735124
1.1735232
1.173574
1.1734991
1.1735213
1.173536
1.1735465
1.1735967
1.173622
1.1735751
1.1735651
1.173551
1.1735297
1.1735575
1.173578
1.1735915
1.1736009
1.1736452
1.1736671
1.1736254
1.1736165
1.1736037
1.1735839
1.1736102
1.1736291
1.1736414
1.1736498
1.173689
1.1737098
1.1736728
1.1736647
1.173653
1.1736347
1.1736584
1.173676
1.1736872
1.1736948
1.1737298
1.1737491
1.1737161
1.1737089
1.1736981
1.1736812
1.1737031
1.1737194
1.1737298
1.1737366
1.1737678
1.173784
1.1737535
1.1737467
1.1737365
1.1737204
1.1737426
1.1737579
1.1737677
1.1737741
1.173802
1.173821
1.1737948
1.1737887
1.1737793
1.1737646
1.1737875
1.1738015
1.1738103
1.1738159
1.1738401
1.1738567
1.173833
1.1738276
1.173819
1.1738054
1.1738248
1.1738379
1.1738461
1.1738512
1.1738736
1.1738908
1.1738697
1.1738648
1.173857
1.1738444
1.173864
1.173876
1.1738835
1.1738881
1.1739082
1.1739258
1.1739068
1.1739024
1.1738952
1.1738837
1.1739039
1.1739149
1.1739217
1.1739259
1.173944
1.1739629
1.1739456
1.1739416
1.1739351
1.1739246
1.1739463
1.1739563
1.1739625
1.1739663
1.1739828
1.1740041
1.1739882
1.1739845
1.1739786
1.1739691
1.173994
1.1740029
1.1740085
1.174012
1.1740274
1.1740527
1.1740375
1.1740342
1.1740289
1.1740206
1.1740517
1.1740594
1.1740643
1.1740674
1.1740823
1.1741139
1.1740988
1.1740959
1.1740914
1.1740844
1.1741298
1.174136
1.1741401
1.1741426
1.1741564
1.1741939
1.1741809
1.1741788
1.1741755
1.1741703
1.1742555
1.1742594
1.1742618
1.174263
1.1742701
1.1742952
1.1742929
1.1742931
1.174293
1.1742934
1.1745022
1.1744983
1.1744946
1.1744927
1.1744934
1.1744356
1.1744703
1.1744846
1.1745023
1.1745088
1.1740786
1.1740803
1.1741607
1.174258
1.1746391
1.1746356
1.1735997
1.1734652
1.1733741
1.1732503
1.177046
1.177083
1.1770082
1.1768921
1.1762806
1.1771889
1.1783415
1.1784727
1.1785054
1.1785278
1.1746828
1.1746626
1.1746378
1.1746202
1.1745587
1.1746529
1.1746563
1.1746601
1.1746667
1.1746752
1.1743745
1.1743721
1.1743708
1.1743698
1.1743683
1.1743295
1.174325
1.1743243
1.1743227
1.1743199
1.1742124
1.1742169
1.1742198
1.1742214
1.1742328
1.1741867
1.1741743
1.1741721
1.1741684
1.1741626
1.1741091
1.1741158
1.1741201
1.1741228
1.1741368
1.1741006
1.1740867
1.1740837
1.174079
1.1740715
1.1740366
1.1740448
1.1740499
1.1740531
1.1740674
1.1740395
1.1740247
1.1740214
1.1740159
1.1740071
1.1739801
1.1739894
1.1739953
1.1739988
1.1740142
1.1739914
1.1739753
1.1739715
1.1739654
1.1739554
1.1739323
1.1739428
1.1739492
1.1739532
1.1739702
1.1739503
1.1739324
1.1739282
1.1739214
1.1739104
1.1738894
1.1739009
1.173908
1.1739124
1.1739313
1.1739129
1.173893
1.1738884
1.1738809
1.1738689
1.1738488
1.1738614
1.1738691
1.173874
1.173895
1.1738773
1.1738552
1.17385
1.1738419
1.1738289
1.173809
1.1738225
1.173831
1.1738364
1.1738598
1.1738423
1.1738175
1.1738119
1.173803
1.173789
1.1737688
1.1737834
1.1737926
1.1737985
1.1738246
1.1738068
1.1737792
1.1737729
1.1737633
1.1737482
1.1737272
1.1737429
1.1737529
1.1737594
1.1737886
1.17377
1.1737392
1.1737323
1.1737219
1.1737056
1.1736835
1.1737004
1.1737112
1.1737184
1.173751
1.1737314
1.1736969
1.1736893
1.1736781
1.1736605
1.173637
1.1736551
1.1736669
1.1736748
1.1737114
1.1736905
1.1736518
1.1736434
1.1736312
1.1736122
1.1735866
1.1736063
1.1736191
1.1736279
1.173669
1.1736468
1.1736032
1.1735939
1.1735805
1.17356
1.1735324
1.1735538
1.1735678
1.1735777
1.173624
1.1735995
1.1735502
1.1735397
1.173525
1.1735028
1.1734703
1.1734935
1.1735089
1.17352
1.1735732
1.1735758
1.173507
1.1734945
1.1734776
1.1734526
1.1734862
1.1735101
1.1735263
1.173538
1.1736021
1.1736265
1.1735665
1.1735554
1.1735399
1.173517
1.1735452
1.1735671
1.1735818
1.1735923
1.1736489
1.1736708
1.1736175
1.1736075
1.1735935
1.1735724
1.173599
1.1736192
1.1736327
1.1736421
1.1736923
1.1737131
1.1736656
1.1736567
1.1736438
1.1736244
1.1736488
1.1736675
1.1736798
1.1736883
1.1737332
1.1737527
1.1737102
1.1737021
1.1736903
1.1736722
1.173695
1.1737124
1.1737237
1.1737314
1.1737716
1.1737902
1.1737521
1.1737447
1.1737338
1.1737171
1.1737386
1.1737547
1.1737652
1.1737722
1.1738083
1.1738261
1.1737918
1.1737851
1.1737751
1.1737595
1.1737802
1.1737952
1.1738048
1.1738112
1.1738437
1.1738612
1.1738304
1.1738243
1.173815
1.1738006
1.173821
1.1738348
1.1738437
1.1738495
1.1738788
1.1738965
1.1738687
1.1738632
1.1738546
1.1738413
1.173862
1.1738747
1.1738829
1.1738881
1.1739145
1.173933
1.1739079
1.1739029
1.1738951
1.1738829
1.1739045
1.1739161
1.1739236
1.1739283
1.1739522
1.1739724
1.1739496
1.1739451
1.173938
1.1739269
1.1739506
1.1739611
1.1739679
1.1739722
1.1739939
1.1740171
1.1739963
1.1739922
1.1739858
1.1739758
1.1740037
1.174013
1.1740191
1.174023
1.174043
1.1740718
1.1740521
1.1740485
1.1740428
1.174034
1.1740699
1.174078
1.1740833
1.1740868
1.1741059
1.1741434
1.174124
1.1741208
1.1741159
1.1741085
1.1741635
1.17417
1.1741743
1.1741771
1.1741949
1.1742418
1.1742239
1.1742215
1.1742179
1.1742126
1.1743236
1.1743274
1.17433
1.1743314
1.174342
1.1743613
1.1743487
1.1743478
1.1743466
1.1743448
1.1746324
1.1746308
1.1746346
1.1746392
1.1746721
1.174229
1.1741864
1.1741873
1.174193
1.1742003
1.174499
1.1732293
1.1731227
1.1730149
1.1728944
1.1744301
1.1744357
1.1744328
1.1744243
1.1743357
1.1745148
1.1744649
1.1744599
1.1744556
1.1744512
1.1743058
1.1743064
1.1743075
1.174308
1.1743094
1.1742952
1.1742856
1.174284
1.174281
1.1742763
1.1741831
1.1741885
1.1741923
1.1741946
1.1742098
1.1741702
1.1741536
1.1741508
1.1741463
1.1741396
1.1740903
1.1740978
1.1741027
1.174106
1.1741244
1.1740911
1.1740726
1.1740691
1.1740637
1.1740555
1.1740226
1.1740314
1.1740372
1.1740409
1.1740601
1.1740338
1.174014
1.1740101
1.174004
1.1739946
1.1739686
1.1739785
1.173985
1.1739891
1.1740097
1.1739879
1.1739663
1.173962
1.1739552
1.1739446
1.1739221
1.1739332
1.1739403
1.1739448
1.1739674
1.1739482
1.1739244
1.1739196
1.1739122
1.1739005
1.1738798
1.1738919
1.1738997
1.1739047
1.1739297
1.1739118
1.1738855
1.1738802
1.1738721
1.1738594
1.1738393
1.1738526
1.1738611
1.1738666
1.1738943
1.173877
1.1738477
1.1738419
1.1738331
1.1738193
1.1737993
1.1738136
1.1738228
1.1738289
1.1738597
1.1738424
1.1738099
1.1738035
1.1737939
1.173779
1.1737586
1.173774
1.173784
1.1737907
1.173825
1.1738073
1.1737711
1.1737641
1.1737537
1.1737376
1.1737163
1.1737329
1.1737438
1.1737511
1.1737893
1.1737709
1.1737306
1.1737229
1.1737115
1.1736943
1.1736717
1.1736896
1.1737014
1.1737095
1.173752
1.1737327
1.1736877
1.1736792
1.1736669
1.1736482
1.173624
1.1736434
1.1736562
1.1736652
1.1737127
1.173692
1.1736417
1.1736323
1.1736189
1.1735987
1.1735725
1.1735934
1.1736074
1.1736174
1.1736707
1.1736485
1.173592
1.1735815
1.1735668
1.1735449
1.1735163
1.1735392
1.1735545
1.1735656
1.1736256
1.1736011
1.1735373
1.1735256
1.1735094
1.1734856
1.1734521
1.173477
1.1734939
1.1735063
1.1735749
1.1734743