/*--------------------------------*- C++ -*----------------------------------*\
  =========                 |
  \\      /  F ield         | OpenFOAM: The Open Source CFD Toolbox
   \\    /   O peration     | Website:  https://openfoam.org
    \\  /    A nd           | Version:  7
     \\/     M anipulation  |
\*---------------------------------------------------------------------------*/
FoamFile
{
    version     2.0;
    format      ascii;
    class       volScalarField;
    location    "60";
    object      nut;
}
// * * * * * * * * * * * * * * * * * * * * * * * * * * * * * * * * * * * * * //

dimensions      [0 2 -1 0 0 0 0];

internalField   nonuniform List<scalar> 
24789
(
0.0017354207
0.012553571
0.030521601
0.051345697
0.62365727
0.62290482
0.051283831
0.030486337
0.012540754
0.0017344546
0.0017345575
0.012540946
0.030486521
0.051280703
0.6225257
0.6223188
0.051262147
0.030475394
0.012537238
0.0017343023
0.0017348022
0.012542141
0.030487734
0.051280471
0.62219679
0.62215168
0.051278121
0.030485796
0.012541999
0.0017348537
0.0017355942
0.01254929
0.030503602
0.051305402
0.62217412
0.62227625
0.051316191
0.030509518
0.01255244
0.0017359621
0.0017370565
0.012563449
0.030536284
0.051358626
0.62247852
0.62277562
0.051383939
0.030551105
0.012570458
0.0017378128
0.0017393692
0.012586293
0.030589316
0.051445458
0.62317278
0.6237232
0.051490023
0.030616068
0.012598484
0.0017406407
0.0017428058
0.012620732
0.030669583
0.05157718
0.62441965
0.62531326
0.051648693
0.03071258
0.012639784
0.0017447376
0.0017476108
0.01266929
0.030783045
0.05176385
0.62639308
0.62772733
0.051868329
0.030845986
0.012696792
0.0017503571
0.0017541063
0.012735369
0.030937733
0.052018697
0.62931353
0.63121558
0.052164006
0.031025256
0.012773211
0.0017578345
0.0017626009
0.012822392
0.031141898
0.052355559
0.63342984
0.63601109
0.052547994
0.031257596
0.012872025
0.0017674399
0.0017733187
0.012932738
0.031401226
0.052784253
0.63896754
0.64234146
0.053025472
0.031546538
0.012995067
0.0017793739
0.0017865528
0.013069547
0.031722244
0.05331472
0.64614556
0.65043534
0.053610631
0.03190125
0.013146645
0.0017939842
0.0018026266
0.013237699
0.032114468
0.053960781
0.65521635
0.66051031
0.054319928
0.032332782
0.013332385
0.0018115259
0.0018215029
0.013440406
0.032584438
0.054735018
0.66624024
0.67244096
0.055138409
0.032828209
0.013546455
0.0018312098
0.0018414135
0.013649857
0.033069174
0.055536807
0.67903016
0.68599546
0.055889117
0.033273416
0.013736393
0.0018519303
0.0018650665
0.013815057
0.033462811
0.056231232
0.69406157
0.70533407
0.05666812
0.033688551
0.013904599
0.0018845213
0.0019173896
0.014066052
0.034250494
0.057749303
0.72375393
0.75310027
0.059952898
0.035582775
0.014630516
0.001963474
0.0019839664
0.014710397
0.035523665
0.059518954
0.77432917
0.78576141
0.060928495
0.036480721
0.01513461
0.0020215229
0.0020326123
0.015824743
0.038656043
0.065241316
0.76383889
0.84632613
0.056970727
0.034676368
0.014552902
0.001972423
0.0019232489
0.014141889
0.033932415
0.056392776
0.84616128
0.82712041
0.053152206
0.031946942
0.013264963
0.0018524604
0.0018084118
0.012914417
0.031059729
0.051773455
0.80318987
0.78683079
0.051167697
0.030731051
0.012796312
0.0017787856
0.0017623023
0.012739512
0.030604555
0.050916105
0.7757286
0.7670252
0.050663172
0.030465877
0.012679637
0.0017513369
0.0017422332
0.012604098
0.030288113
0.050358614
0.75914751
0.75155947
0.050011756
0.030073226
0.01250983
0.0017332766
0.0017242217
0.012407177
0.029836658
0.049623597
0.74442586
0.73787036
0.049236557
0.029600455
0.012304717
0.0017149204
0.001706485
0.012213137
0.029390279
0.048895882
0.73180179
0.72634743
0.04858523
0.029198192
0.012129295
0.0016985606
0.0016915745
0.012055098
0.029026353
0.048305141
0.72143184
0.717071
0.048046322
0.028867209
0.011986301
0.00168498
0.0016792828
0.011926319
0.028727637
0.047818314
0.71321327
0.70981835
0.047604806
0.028596605
0.011869891
0.0016738551
0.0016693141
0.011822376
0.028486204
0.04742475
0.70690539
0.70436514
0.047255906
0.028382475
0.011777641
0.001664981
0.0016614562
0.01174078
0.028296715
0.04711586
0.70222249
0.70046971
0.046991134
0.028219524
0.011707167
0.0016581417
0.0016555264
0.011679768
0.028155501
0.046886165
0.69897623
0.69779194
0.046791888
0.028097057
0.011654288
0.0016529994
0.0016511087
0.011634445
0.028050566
0.046715511
0.69676935
0.69599078
0.04664497
0.028006769
0.011615339
0.0016492021
0.0016479062
0.011601815
0.027975214
0.046593302
0.69536588
0.69494921
0.046547394
0.027946237
0.011588918
0.0016465701
0.0016457851
0.011580724
0.027927064
0.04651586
0.69466138
0.6944189
0.046484469
0.027907136
0.011571825
0.001644848
0.0016444339
0.011567498
0.027897009
0.046467743
0.69437269
0.69432975
0.046446223
0.027883295
0.011561368
0.0016437782
0.0016436346
0.011559952
0.027880152
0.046441228
0.69436718
0.6944718
0.04643031
0.027872849
0.011556513
0.0016432277
0.0016433414
0.011557959
0.027876727
0.046437243
0.69468126
0.69511822
0.046447762
0.027881623
0.011559222
0.0016433172
0.0016439843
0.011567696
0.027903592
0.046486562
0.69580084
0.69642835
0.046516986
0.027919124
0.011573342
0.0016443614
0.0016438464
0.011565075
0.027896377
0.046472549
0.69535965
0.69481234
0.046441801
0.027878279
0.011558631
0.0016433829
0.0016437242
0.011561686
0.027885564
0.046451118
0.69455126
0.6944295
0.046445065
0.027881437
0.011560647
0.0016437027
0.0016443612
0.011567289
0.027897574
0.046469519
0.69441512
0.69447263
0.046474316
0.027900314
0.011569291
0.0016446437
0.0016456769
0.011579941
0.027925922
0.046514441
0.69464502
0.69493036
0.046536245
0.027939088
0.011586365
0.0016463745
0.0016478492
0.011601646
0.027975446
0.046593946
0.69537839
0.69599132
0.046638737
0.028002321
0.01161374
0.0016490627
0.0016510377
0.011634191
0.02805068
0.046716238
0.69680283
0.69782177
0.046782304
0.028090919
0.0116522
0.0016528368
0.0016555145
0.011680248
0.028157276
0.046889522
0.69906137
0.70056318
0.046985576
0.028215795
0.011706046
0.0016580494
0.0016615032
0.011742159
0.028300753
0.047123079
0.70237058
0.70450399
0.047253954
0.028380769
0.011777227
0.0016649208
0.0016693285
0.011823455
0.028489275
0.047429944
0.70701459
0.70992758
0.047605054
0.028596025
0.011869791
0.0016737865
0.0016792222
0.011926754
0.028729199
0.047821188
0.71329822
0.7171414
0.04804231
0.028864102
0.011985234
0.0016848219
0.0016914645
0.012055112
0.029026868
0.04830646
0.72150616
0.7264175
0.048577703
0.029193304
0.012127698
0.0016983655
0.0017064329
0.012213857
0.029392271
0.048899423
0.73191641
0.73798426
0.049232773
0.029598101
0.012304281
0.0017148286
0.0017243332
0.012409594
0.029842386
0.049632908
0.74457423
0.75175466
0.050020775
0.030078379
0.012512526
0.0017334494
0.0017426427
0.01261068
0.030303589
0.050384389
0.75946132
0.76750047
0.050682016
0.03047811
0.012685217
0.0017518535
0.0017635749
0.012750398
0.030630461
0.050954503
0.77642215
0.78777747
0.051211135
0.030759018
0.01280974
0.0017809171
0.001812573
0.012946216
0.031119955
0.051872
0.80467466
0.82988452
0.053551247
0.03216608
0.013332976
0.0018622617
0.0019236184
0.014222607
0.034222239
0.057189658
0.84883421
0.85067741
0.053915842
0.033025844
0.013946213
0.0019231946
0.0020107993
0.015667975
0.038278143
0.064433212
0.76686935
0.79965577
0.062079388
0.036717506
0.015101117
0.0019925535
0.0020293947
0.015473815
0.037781367
0.063966587
0.77683684
0.75206167
0.059112293
0.035252875
0.014517557
0.0019663377
0.0019075977
0.013927631
0.033701977
0.056615848
0.72254724
0.70415465
0.055541176
0.033096591
0.013699255
0.001868294
0.0018468519
0.013604329
0.032880959
0.055140442
0.69295206
0.68472907
0.054824598
0.032704603
0.013528472
0.001833325
0.0018228916
0.013444279
0.032506455
0.05448758
0.67752394
0.67063995
0.054088016
0.032262021
0.013337284
0.0018127302
0.0018026646
0.013225717
0.032003773
0.053660961
0.66431284
0.65850559
0.053239386
0.03174889
0.013115976
0.0017925107
0.0017833942
0.013018578
0.031523583
0.052870777
0.65315459
0.64834396
0.052531983
0.031316468
0.012929045
0.0017748464
0.0017673372
0.012850117
0.031132186
0.052228705
0.64401717
0.64017112
0.051946506
0.030960667
0.01277669
0.0017602408
0.0017541595
0.012713424
0.030812537
0.051702434
0.63681304
0.63384412
0.051472728
0.030673116
0.012653878
0.0017483733
0.0017435339
0.0126037
0.030555575
0.05127908
0.63128546
0.62906072
0.05109744
0.030445187
0.012556484
0.001738918
0.0017351742
0.012517738
0.03035444
0.050947996
0.62719421
0.62556908
0.050806237
0.030268239
0.012480854
0.0017315491
0.0017287447
0.012451944
0.030200635
0.050695067
0.62426522
0.62313714
0.050587394
0.030135076
0.012423855
0.0017259655
0.0017239574
0.01240327
0.030087129
0.05050882
0.62227823
0.62156481
0.050430999
0.030039566
0.012382792
0.0017219029
0.0017205476
0.012368931
0.030007317
0.050378192
0.62103313
0.62060943
0.050323146
0.029973549
0.012354335
0.0017190614
0.0017182102
0.012345648
0.029953355
0.050290092
0.62032326
0.62019987
0.050259879
0.029934143
0.012336967
0.0017172559
0.0017168412
0.01233267
0.029924037
0.05024317
0.62012123
0.62011322
0.050221652
0.029910419
0.012326597
0.0017161752
0.0017161022
0.012326134
0.029909908
0.050221593
0.62021921
0.62042468
0.050218038
0.029906775
0.012324272
0.0017158065
0.0017162412
0.012329882
0.029921989
0.050245828
0.6209397
0.62192114
0.050307658
0.029955008
0.012341509
0.0017169778
0.0017359369
0.012559282
0.03053592
0.051370371
0.62390607
0.62303307
0.051304669
0.03049843
0.01254556
0.0017348868
0.0017349154
0.012544605
0.030495275
0.05129529
0.62258712
0.62235679
0.051276406
0.030484128
0.012541007
0.0017346874
0.0017352693
0.012546685
0.030498204
0.051297555
0.6222631
0.62226349
0.051296702
0.030497648
0.012547403
0.0017354371
0.0017364077
0.012557293
0.030521903
0.051334892
0.62236092
0.62253387
0.051354039
0.030532895
0.012562592
0.0017369819
0.0017382964
0.012575788
0.030564643
0.051404599
0.62285359
0.62328046
0.051440677
0.030586123
0.012585665
0.001739331
0.0017412024
0.012604795
0.030632068
0.051514897
0.6238386
0.62456518
0.051577675
0.030669233
0.012621102
0.0017428343
0.0017452925
0.012646105
0.030728657
0.051673864
0.62546093
0.62655746
0.051765436
0.030783223
0.012669786
0.0017476383
0.0017508718
0.0127028
0.030861429
0.051892733
0.62789255
0.62947518
0.052018703
0.030936996
0.012735465
0.0017540908
0.0017582842
0.012778566
0.031039132
0.052185985
0.63138147
0.63359364
0.05235285
0.031139573
0.012821855
0.0017625292
0.0017678362
0.012876693
0.031269542
0.052566529
0.63617382
0.6391248
0.052782089
0.031399256
0.012932343
0.0017732545
0.0017797655
0.012999677
0.031558349
0.05304392
0.6425052
0.64632252
0.05331152
0.031719875
0.013069084
0.0017865
0.0017944357
0.013151752
0.031914278
0.053631184
0.65063447
0.65545334
0.053962976
0.032115102
0.013238335
0.0018026832
0.0018121018
0.013338555
0.032348519
0.054344986
0.66080634
0.66660191
0.054747136
0.032590517
0.013443014
0.0018217476
0.0018319435
0.013554252
0.032848947
0.055173558
0.67291365
0.67961476
0.055548078
0.033074187
0.013651785
0.0018416874
0.0018527795
0.0137413
0.033287748
0.055915619
0.6866932
0.69501056
0.056234552
0.033461961
0.013815088
0.0018659767
0.0018873601
0.013918538
0.033714718
0.056707858
0.70673057
0.72594331
0.057863404
0.034343376
0.014124769
0.0019230815
0.0019746435
0.014736305
0.035862855
0.060424395
0.75617918
0.77657636
0.061072628
0.036322207
0.015007322
0.0020060623
0.0020243984
0.015186598
0.036602029
0.061146881
0.78949504
0.76892659
0.065655825
0.038862181
0.015877181
0.0020347693
0.58848347
0.077070535
0.044374121
0.017834419
0.0022542362
0.0020995804
0.016039383
0.039091421
0.066590303
0.75283311
0.87533391
0.055637402
0.033765781
0.014235852
0.0019633401
0.0019647631
0.014693702
0.035487325
0.059708941
0.81177333
0.800165
0.063234907
0.037302043
0.015304184
0.0020084448
0.0020080048
0.015197832
0.037010368
0.062399446
0.77729151
0.74905106
0.058511182
0.034866751
0.014370972
0.0019515516
0.0019002278
0.013857423
0.033549874
0.056399355
0.72040846
0.70297893
0.055481715
0.033054803
0.01367917
0.0018652139
0.0018457643
0.013600114
0.032872376
0.055127437
0.69234138
0.68443917
0.054824305
0.032704578
0.01352811
0.0018330274
0.0018228328
0.013443801
0.032506227
0.054487589
0.67732559
0.67053595
0.054084992
0.032260177
0.01333632
0.0018126744
0.0018025905
0.01322461
0.032001215
0.053656421
0.66422327
0.65843157
0.053234476
0.031745822
0.013114673
0.001792415
0.0017833399
0.013017846
0.031522154
0.052868726
0.65309715
0.64827745
0.052525465
0.031312612
0.012927504
0.0017747398
0.0017672511
0.012849047
0.03112981
0.052224958
0.64394953
0.64012736
0.05194218
0.03095794
0.012775504
0.0017601489
0.0017540827
0.01271247
0.030810457
0.051699178
0.63675343
0.63379104
0.051469703
0.030671092
0.012652954
0.0017483001
0.0017434891
0.012603181
0.030554615
0.0512778
0.6312538
0.62903943
0.051095795
0.030443981
0.012555902
0.0017388714
0.0017351415
0.012517358
0.030353708
0.050946949
0.62716573
0.62555317
0.050807012
0.030268407
0.012480798
0.0017315404
0.0017287464
0.012451949
0.030200766
0.050695369
0.62425156
0.62314432
0.050588662
0.030135583
0.012423977
0.0017259756
0.001723969
0.012403359
0.030087388
0.050509244
0.6222676
0.62158471
0.050434006
0.030041066
0.012383294
0.001721941
0.0017205972
0.01236951
0.030008802
0.050380708
0.62105081
0.62065526
0.050326393
0.029975291
0.012354993
0.0017191179
0.0017182905
0.012346614
0.029955881
0.050294549
0.62037146
0.62018471
0.050255605
0.029931821
0.012336218
0.0017172224
0.0017168049
0.012332218
0.029922969
0.050241525
0.62009242
0.62008593
0.05021832
0.029908378
0.01232579
0.0017161109
0.0017160435
0.012325506
0.029908454
0.050219258
0.62017743
0.62040009
0.050212557
0.029903506
0.012322988
0.0017157022
0.0017161343
0.012328698
0.029919175
0.050241216
0.62086718
0.62193007
0.050302747
0.029951807
0.012340134
0.0017168521
0.0016441645
0.011569929
0.027910094
0.046498126
0.69589129
0.69508463
0.046446453
0.027880257
0.011559013
0.001643357
0.0016435064
0.011559897
0.027882209
0.04644687
0.69468791
0.69446413
0.046430912
0.0278727
0.011556858
0.001643325
0.0016438903
0.011562638
0.027887041
0.046452736
0.69436577
0.69435377
0.046452726
0.027886838
0.01156335
0.0016440413
0.0016449044
0.011572232
0.027908405
0.046486406
0.69445081
0.69463831
0.046500493
0.027916853
0.011576627
0.0016454063
0.0016466545
0.011589574
0.027947887
0.046549609
0.69494788
0.69537763
0.046584482
0.027968514
0.011598918
0.0016475998
0.0016492539
0.011615805
0.028008237
0.046647286
0.6959747
0.6967248
0.04670351
0.028041976
0.011630787
0.0016507397
0.001652993
0.011654031
0.028096662
0.046791152
0.69773894
0.69895096
0.046870641
0.028145203
0.011675619
0.0016551355
0.0016581793
0.011707378
0.028220038
0.046991586
0.70044762
0.70223217
0.047105152
0.02828938
0.011737815
0.0016611557
0.001665072
0.011778713
0.028385349
0.047260463
0.70437019
0.70685927
0.047416512
0.028480151
0.01181978
0.0016690224
0.0016738735
0.011870279
0.028597959
0.047607038
0.70978279
0.71312098
0.047806424
0.028719394
0.011922833
0.0016789097
0.0016849174
0.011985662
0.028865749
0.048043553
0.71697728
0.72132214
0.048292331
0.02901769
0.012051495
0.0016911885
0.0016984958
0.01212855
0.029196176
0.0485811
0.72624568
0.73172374
0.0488869
0.029383808
0.012210345
0.0017061579
0.0017148855
0.012304391
0.029599754
0.049234933
0.73780826
0.74436345
0.049612979
0.029829718
0.012404335
0.0017239314
0.0017334545
0.012511246
0.030076591
0.050016073
0.75149244
0.75908993
0.050370546
0.030294094
0.012606416
0.0017422772
0.0017515979
0.012684689
0.030480459
0.050686211
0.76699774
0.77547237
0.050917548
0.030603177
0.012736388
0.0017618271
0.0017776508
0.012779099
0.030705227
0.05114336
0.78620968
0.80257042
0.051671895
0.030969936
0.012870684
0.0018052444
0.0018470413
0.013181494
0.031762522
0.052903325
0.82747989
0.84703856
0.055021421
0.033223979
0.01389379
0.0019068684
0.0019679707
0.014499289
0.034499364
0.056567324
0.84741156
0.76365939
0.066527387
0.039261569
0.016069848
0.0020585362
0.0020392474
0.015307743
0.036961512
0.061811432
0.7859204
0.77393937
0.058241375
0.034852092
0.014459147
0.0019715622
0.0019672562
0.014685627
0.035755797
0.060374323
0.75289905
0.72361678
0.057837243
0.034294421
0.014074395
0.0019193093
0.0018855742
0.013909042
0.033701638
0.056689139
0.70513439
0.69383204
0.056221626
0.033457208
0.013812855
0.0018652139
0.0018522177
0.013737128
0.033275821
0.055892148
0.6858306
0.67887444
0.05552505
0.033061521
0.013646476
0.0018411815
0.0018312654
0.013546643
0.032829096
0.055138214
0.67237443
0.66617808
0.054725172
0.032578418
0.013437933
0.001821219
0.001811668
0.013334094
0.03233738
0.054326589
0.66047956
0.65517221
0.05395345
0.032110024
0.013235979
0.0018024193
0.0017941501
0.013148433
0.031905838
0.053617093
0.65040472
0.64608149
0.053305254
0.031716547
0.013067357
0.0017863236
0.0017795053
0.01299633
0.031549747
0.053029485
0.64229771
0.63891287
0.052777252
0.031396696
0.012930878
0.0017731054
0.0017676022
0.012873633
0.031261665
0.052553382
0.63599299
0.63339544
0.052349712
0.031138011
0.012820781
0.001762411
0.0017580558
0.012775518
0.031031131
0.052172438
0.63119847
0.62925012
0.052009347
0.030932109
0.012733224
0.0017538895
0.0017505535
0.012698746
0.030850929
0.051875049
0.62767389
0.62630015
0.051751762
0.03077585
0.01266654
0.0017473455
0.0017449117
0.012641487
0.030717002
0.051654597
0.62524307
0.62433509
0.051565211
0.030662335
0.012617898
0.0017425267
0.0017408393
0.01260054
0.030621514
0.051497751
0.62367282
0.62310144
0.051434388
0.030582592
0.012583664
0.0017391058
0.0017380108
0.012572397
0.030556082
0.051390565
0.62273316
0.62240089
0.051350109
0.030530887
0.012561269
0.0017368224
0.0017361668
0.012554318
0.030514148
0.051321946
0.62224701
0.6221135
0.051299917
0.030499768
0.012547643
0.0017353949
0.0017351012
0.012544367
0.030491624
0.051285874
0.62214577
0.62215976
0.051274615
0.030483796
0.01254052
0.0017346144
0.0017346263
0.012540607
0.030483975
0.051274882
0.62233416
0.62253485
0.051276487
0.030483712
0.012539862
0.0017344308
0.0017349861
0.012546859
0.030502374
0.051310286
0.62308847
0.6238973
0.051361629
0.03052961
0.012556814
0.0017356531
0.0017350524
0.012547088
0.030502364
0.051308586
0.62300845
0.62253994
0.051285427
0.03048859
0.012542138
0.0017346636
0.0017349178
0.012543447
0.030490773
0.051285539
0.62232275
0.6222109
0.051286014
0.030490548
0.012543833
0.0017349896
0.0017356326
0.012549484
0.030503501
0.051304643
0.62220278
0.62228484
0.051321157
0.03051292
0.012553887
0.001736083
0.0017371259
0.012563774
0.030535987
0.051356763
0.62246863
0.62276812
0.051393696
0.030557294
0.01257301
0.0017380224
0.0017395038
0.012587387
0.030590876
0.051446645
0.62320545
0.6237577
0.051503877
0.030624599
0.012601917
0.0017409137
0.0017429624
0.012622222
0.030672311
0.05158067
0.6244986
0.62537626
0.051661982
0.030720816
0.012643122
0.0017450002
0.0017477649
0.012670889
0.030786168
0.051768185
0.62649585
0.62782817
0.051881006
0.030853815
0.01269997
0.0017505987
0.0017542455
0.012736955
0.030940901
0.052023215
0.62942851
0.63132893
0.052175322
0.031032279
0.012776094
0.0017580449
0.001762722
0.012823953
0.031145172
0.052360541
0.63356331
0.63614008
0.0525571
0.031263391
0.012874473
0.0017676085
0.0017734239
0.012934216
0.03140421
0.052788713
0.63909874
0.64245591
0.053034561
0.03155227
0.012997487
0.0017795334
0.001786648
0.013070829
0.031724512
0.053317702
0.64626203
0.65055618
0.05362188
0.031908195
0.013149521
0.0017941816
0.0018027699
0.013239472
0.032117931
0.053965703
0.65536176
0.66066661
0.054334994
0.032342133
0.013336236
0.0018118131
0.0018217424
0.013443532
0.032591668
0.054746918
0.66640918
0.6725889
0.055156333
0.032838435
0.01355045
0.0018314485
0.0018413144
0.013648681
0.03306605
0.055532921
0.67912368
0.68592824
0.05586918
0.033258982
0.013730439
0.0018517169
0.001865122
0.013804672
0.03343255
0.056183495
0.69397961
0.70535954
0.056622091
0.033664698
0.0139035
0.0018862276
0.0019236677
0.014125192
0.03429546
0.057774571
0.72429967
0.7550948
0.060444546
0.035893092
0.014746869
0.001976432
0.0020094014
0.015117344
0.036666875
0.061829451
0.77719454
0.79033038
0.059605186
0.035780366
0.014894949
0.0019965588
1.7726194
3.0280762
2.2458877
0.85123518
0.056978867
0.034690003
0.014551016
0.0019728297
0.0020238584
0.015463755
0.037793093
0.064197469
0.79772482
0.0022229692
0.017505127
0.043418919
0.075197802
0.58639425
0.51186706
0.072966417
0.041949798
0.016859942
0.0021438148
0.0021500366
0.016753458
0.041764701
0.072761427
0.50955021
0.68665928
0.070403498
0.040914755
0.016599704
0.0021169511
1.2197208
1.4380964
2.7615438
2.2510635
7.2092855
7.1499035
7.4924266
7.209234
8.0237836
7.9017238
7.6339318
7.733073
0.0017173177
0.012344715
0.029962538
0.050319284
0.62193471
0.62101777
0.050244094
0.029920137
0.012329383
0.0017161825
0.0017162784
0.01232946
0.029919945
0.050240225
0.62056467
0.62035846
0.050219491
0.029907787
0.012325551
0.0017160417
0.0017166601
0.012331928
0.029923883
0.050244232
0.62025472
0.62025267
0.050242149
0.02992257
0.012332323
0.0017167966
0.0017177216
0.012341911
0.029946393
0.050280185
0.62034644
0.62052385
0.050290667
0.029952882
0.012345744
0.0017182084
0.0017195755
0.012360065
0.029988008
0.050347488
0.62080196
0.62120718
0.050377609
0.030006301
0.01236886
0.0017205335
0.0017224033
0.012388334
0.03005342
0.050454143
0.62174093
0.62243709
0.050508314
0.030086272
0.012403285
0.0017239513
0.0017264572
0.012429319
0.030148675
0.050609974
0.62331729
0.62440598
0.050695581
0.03020033
0.012452115
0.0017287428
0.0017319974
0.012485811
0.030280462
0.050826306
0.62572567
0.62731296
0.050948282
0.03035396
0.012517801
0.0017351534
0.0017393146
0.012560928
0.030456177
0.051115513
0.62919908
0.63140033
0.051276969
0.030553864
0.012603307
0.0017434734
0.0017487271
0.012657973
0.030683376
0.051489673
0.63396133
0.63689846
0.051699356
0.030810089
0.012712612
0.001754045
0.0017604842
0.012779529
0.030967872
0.051958421
0.64025324
0.64407515
0.052220866
0.031127005
0.012848245
0.0017671377
0.001775032
0.012931047
0.031321289
0.052539452
0.64839709
0.65325085
0.052867707
0.031520666
0.01301734
0.0017832126
0.0017925905
0.013117451
0.031753341
0.053247644
0.6586263
0.66446317
0.053647035
0.031994295
0.01322169
0.0018022013
0.0018124672
0.013334293
0.032256071
0.054078768
0.67085658
0.67776232
0.054448678
0.032482425
0.013433607
0.0018222159
0.0018334398
0.013526339
0.032702288
0.054824612
0.68505862
0.69355904
0.055142971
0.03287958
0.013603086
0.0018466721
0.001868394
0.013711226
0.033144084
0.055631646
0.70537619
0.72461904
0.056843911
0.033811885
0.013931521
0.0019049773
0.0019548287
0.01455943
0.03531227
0.05934012
0.75308838
0.7768944
0.060205383
0.035923401
0.01482936
0.0019809131
0.0020254808
0.01549173
0.037902415
0.064401199
0.7948591
0.055611458
0.033744365
0.014229376
0.0019649162
0.0019302586
0.01368039
0.032294724
0.053055629
0.86435681
0.73688267
0.061739153
0.036366515
0.014972374
0.0020330739
0.0021129362
0.016601595
0.041002472
0.070854194
0.68231042
0.80718252
0.060669901
0.035926701
0.014856841
0.0019728429
0.0020277192
0.015508694
0.037939463
0.064457037
0.79595562
0.77775851
0.060196702
0.035921267
0.01483014
0.0019815222
0.0019549998
0.014557616
0.035305169
0.059325103
0.75369219
0.72471456
0.056845832
0.033809987
0.013929629
0.001905223
0.0018685079
0.013708065
0.033137358
0.055624389
0.70527202
0.69337055
0.055149907
0.032882799
0.013603846
0.0018469504
0.0018336677
0.013526701
0.032702036
0.054824094
0.68490576
0.67763613
0.054463541
0.032491802
0.013437379
0.0018226353
0.001812866
0.013337174
0.032261824
0.054087623
0.67080628
0.66439298
0.05366669
0.032006434
0.013226427
0.0018027268
0.001792986
0.013119898
0.031758362
0.053255254
0.6586301
0.65323109
0.052882275
0.031530039
0.013020966
0.0017836411
0.0017753587
0.012933159
0.031325904
0.052546952
0.64843932
0.64406275
0.052236257
0.031136558
0.0128518
0.0017675296
0.0017607326
0.012780841
0.030970302
0.051961919
0.6402461
0.63681202
0.051704576
0.030813985
0.012714065
0.0017542593
0.0017487922
0.012657408
0.030681256
0.051485764
0.63387931
0.63128525
0.051283752
0.030558226
0.012604668
0.0017436252
0.0017393427
0.012560259
0.030453905
0.051111379
0.62911739
0.62719757
0.050953197
0.030357353
0.012518794
0.001735259
0.0017319896
0.012484921
0.030277676
0.05082137
0.62564016
0.62427859
0.050703127
0.030205088
0.012453557
0.0017288595
0.0017264568
0.012428599
0.03014617
0.050605284
0.62323646
0.62229406
0.050511656
0.030088873
0.012404001
0.0017240148
0.0017223122
0.012386513
0.030047936
0.050444132
0.62160048
0.62104799
0.050380183
0.030008337
0.012369262
0.0017205509
0.0017194727
0.012358314
0.02998284
0.050338223
0.6206909
0.62040522
0.050296841
0.029956914
0.012346861
0.0017182674
0.0017176534
0.012340556
0.029942064
0.050272123
0.62025465
0.62009922
0.05024008
0.029922165
0.012331919
0.0017167587
0.0017164717
0.012329135
0.029915922
0.050230044
0.62008802
0.62009163
0.05021166
0.029904163
0.012323871
0.0017158892
0.0017158961
0.012324219
0.029905477
0.050214344
0.62021828
0.6204017
0.050212958
0.029903551
0.012322854
0.0017156518
0.0017159877
0.012326735
0.029913459
0.050230153
0.62074873
0.62131576
0.050263953
0.029931063
0.012332759
0.0017163205
0.62348095
0.05132554
0.030509018
0.012549105
0.0017350866
0.0017348474
0.012544758
0.030496945
0.051299938
0.62280421
0.62245057
0.051269753
0.030479613
0.01253886
0.0017344316
0.0017349038
0.012543486
0.030491308
0.05128706
0.6222813
0.62222536
0.051279969
0.030487026
0.012542646
0.0017349215
0.0017357264
0.012550893
0.030507576
0.051312359
0.62225625
0.62237015
0.051319945
0.030512016
0.012553675
0.0017360866
0.0017372576
0.012565801
0.030541825
0.051367794
0.62258052
0.6228829
0.051392478
0.030556519
0.012572839
0.0017380183
0.0017395942
0.012588988
0.030595624
0.051455752
0.6232941
0.62382398
0.05150019
0.030622379
0.012601188
0.0017408619
0.0017430097
0.012623167
0.030675005
0.051585659
0.62451885
0.62542507
0.051658864
0.030718904
0.012642541
0.0017449612
0.001747836
0.012672178
0.030789781
0.051774849
0.6265369
0.62787053
0.051877632
0.030851872
0.012699413
0.0017505612
0.0017543199
0.01273833
0.030944713
0.052030165
0.62946788
0.63135221
0.052172953
0.031030817
0.012775662
0.0017580019
0.0017627491
0.012824863
0.031147809
0.052365499
0.63357458
0.63612522
0.052552806
0.031260779
0.012873575
0.0017675177
0.0017734027
0.012934608
0.03140544
0.052791103
0.6390701
0.64241677
0.05302927
0.031549165
0.012996411
0.0017794158
0.0017865996
0.013071125
0.03172553
0.053319717
0.64622449
0.65050911
0.053615854
0.031904611
0.013148198
0.001794018
0.0018026375
0.013239018
0.032117321
0.053965217
0.65529933
0.66060284
0.054325319
0.032335959
0.013333741
0.0018115199
0.0018214572
0.013440996
0.032585947
0.05473726
0.66636707
0.67256739
0.055139212
0.032829056
0.013546699
0.0018311995
0.0018415776
0.013651478
0.033074023
0.055545269
0.67915518
0.68612236
0.055901018
0.033280893
0.013739235
0.0018522491
0.0018655792
0.01381867
0.03347221
0.05624611
0.69414703
0.70534193
0.056693861
0.033703941
0.013909788
0.001885376
0.0019192885
0.014077069
0.034301886
0.057849548
0.72374176
0.75274829
0.060359906
0.035745318
0.014680821
0.001966547
0.0019710839
0.014454376
0.03483895
0.058217005
0.77359258
0.78531435
0.061802846
0.036955909
0.015304018
0.0020387865
0.0020569649
0.016042706
0.0392312
0.066498823
0.76312596
0.84695127
0.056597646
0.034511559
0.014501385
0.0019678441
0.0020077796
0.015301103
0.037299679
0.063238266
0.79976054
0.79891922
0.061981921
0.036661521
0.015079703
0.0019904237
0.0019219416
0.013926495
0.032981366
0.053839288
0.85036051
0.79059262
0.059671865
0.035813201
0.014903073
0.0019972703
0.0020261966
0.015200707
0.036646301
0.061226483
0.79005244
0.85184453
0.057037549
0.034723747
0.014562651
0.0019744258
0.002026108
0.015480411
0.03783164
0.064256499
0.79865904
0.77955028
0.059379374
0.03548349
0.014662785
0.0019701737
0.0019504552
0.014525507
0.035248361
0.059274659
0.7556551
0.72623627
0.056910407
0.033839389
0.0139378
0.0019046264
0.0018687012
0.013715337
0.03315966
0.055668743
0.70627956
0.69410911
0.055173476
0.032895546
0.013608877
0.0018472801
0.0018340329
0.013531157
0.032712632
0.054843035
0.6854398
0.67801269
0.054474664
0.032498204
0.013440315
0.0018229229
0.0018130995
0.013339484
0.032267035
0.054096555
0.67107867
0.664592
0.053670699
0.032008989
0.013227687
0.0018028757
0.0017931117
0.013121097
0.031761166
0.05326003
0.65875519
0.65331833
0.052882956
0.03153064
0.013021368
0.0017837053
0.0017754047
0.012933536
0.031326765
0.052548438
0.64848061
0.64409266
0.052236141
0.031136553
0.012851864
0.0017675488
0.0017607499
0.012780986
0.030970674
0.051962606
0.64026222
0.63684726
0.051707936
0.030815817
0.012714741
0.0017543116
0.0017488624
0.012658258
0.030683415
0.051489455
0.63392339
0.63133984
0.051286242
0.030559721
0.012605313
0.0017436851
0.0017394164
0.012561132
0.030456101
0.051115168
0.62916272
0.62723594
0.050949812
0.030355702
0.012518346
0.0017352451
0.0017319737
0.012484718
0.030277194
0.050820701
0.62563298
0.62428112
0.050693155
0.030199636
0.012451616
0.0017287259
0.0017263301
0.01242718
0.030142861
0.050600096
0.62317344
0.62226625
0.050505329
0.030085116
0.012402477
0.001723883
0.0017222231
0.012385677
0.030046276
0.050441896
0.62157613
0.62100336
0.05037786
0.03000684
0.012368586
0.0017204838
0.0017194352
0.012358013
0.029982379
0.050337805
0.62068305
0.6203776
0.050289176
0.029952588
0.012345252
0.0017181474
0.0017175378
0.012339281
0.029939115
0.050267474
0.62019635
0.62009438
0.05023603
0.029919661
0.012330851
0.001716658
0.0017163941
0.01232839
0.029914349
0.050227736
0.62006267
0.6201405
0.0502124
0.02990435
0.012323811
0.0017158649
0.0017158963
0.012324371
0.029906105
0.050215706
0.62024305
0.62042225
0.050207159
0.029900331
0.012321698
0.0017155701
0.0017159229
0.012326107
0.029912203
0.05022858
0.62074434
0.62133908
0.050256639
0.029926833
0.012331112
0.001716193
0.62198393
0.050313786
0.029958316
0.012343307
0.0017171737
0.0017165474
0.012333427
0.029930825
0.050260125
0.6210452
0.62056702
0.050231314
0.029913853
0.012327382
0.0017160914
0.0017163963
0.012329517
0.029918339
0.050235214
0.62033211
0.62021827
0.050232782
0.029916503