/*--------------------------------*- C++ -*----------------------------------*\
  =========                 |
  \\      /  F ield         | OpenFOAM: The Open Source CFD Toolbox
   \\    /   O peration     | Website:  https://openfoam.org
    \\  /    A nd           | Version:  7
     \\/     M anipulation  |
\*---------------------------------------------------------------------------*/
FoamFile
{
    version     2.0;
    format      ascii;
    class       volScalarField;
    location    "60";
    object      omega;
}
// * * * * * * * * * * * * * * * * * * * * * * * * * * * * * * * * * * * * * //

dimensions      [0 0 -1 0 0 0 0];

internalField   nonuniform List<scalar> 
24789
(
139593.95
44044.773
26138.175
19693.029
3498.7226
3498.4138
19687.594
26128.992
44023.973
139511.92
139516.19
44024.505
26127.852
19686.559
3499.3292
3500.7763
19688.219
26128.339
44020.533
139491.24
139526.75
44030.837
26133.093
19691.678
3502.5496
3504.6987
19696.963
26138.231
44034.436
139525.31
139578.69
44051.212
26147.178
19703.69
3507.211
3510.2022
19713.077
26157.566
44063.089
139600.91
139680.6
44089.132
26172.461
19724.469
3513.674
3517.7457
19739.028
26189.501
44111.391
139731.65
139846.5
44149.828
26212.406
19756.732
3522.3481
3527.6152
19778.169
26238.363
44186.102
139936.95
140098.67
44240.891
26271.684
19803.958
3533.5265
3540.1333
19834.046
26308.899
44294.989
140240.19
140457.09
44369.301
26354.699
19869.439
3547.4227
3555.4461
19910.187
26405.888
44445.616
140662.69
140949.07
44544.067
26466.926
19957.169
3564.1673
3573.6152
20010.457
26534.72
44647.086
141233.05
141600.93
44773.548
26613.314
20070.675
3583.7085
3594.4635
20138.075
26699.902
44906.912
141974.5
142432.8
45064.595
26797.975
20212.829
3605.7741
3617.6749
20295.885
26905.659
45232.05
142905.93
143470.97
45426.261
27026.397
20387.499
3630.0155
3642.8331
20488.207
27158.045
45632.712
144058.15
144745.42
45868.773
27304.352
20598.638
3656.0724
3669.9133
20718.858
27462.757
46119.566
145456.88
146259.88
46401.551
27637.117
20849.298
3684.7211
3700.7025
20991.794
27823.909
46692.219
147048.23
147874.15
47013.45
28033.603
21154.205
3718.4432
3738.7273
21345.725
28279.078
47372.65
148722.82
149778.65
47839.573
28593.787
21586.15
3758.7704
3768.433
21871.105
28995.106
48506.775
151346.93
154010.88
49245.186
29346.591
22073.662
3743.2553
3672.5781
22054.551
29400.559
49478.291
157079.8
158648.03
50369.593
30020.798
22560.713
3643.3061
3660.064
23113.358
30979.299
52377.407
166310.03
176506.49
54840.95
31964.537
23480.533
3807.6331
3440.4234
23475.857
31045.616
52053.239
164280.47
159867.4
50398.129
30118.218
22793.885
3378.1414
3386.5204
22726.943
29804.142
49555.184
154498.79
150520.54
48523.774
29314.077
22423.795
3417.0041
3423.3773
22074.475
28806.886
47645.328
148010.74
146640.4
46985.734
28374.085
21747.747
3409.8858
3391.3892
21501.67
28062.374
46544.676
145727.54
144969.78
46207.025
27823.855
21309.902
3373.9574
3359.4163
21151.226
27624.297
45908.837
144212.05
143446.37
45627.25
27441.124
21009.148
3346.0416
3333.5564
20880.264
27269.823
45352.476
142670.44
141972.35
45104.447
27110.733
20757.131
3321.7449
3310.5587
20646.534
26966.355
44875.67
141319.89
140747.99
44673.035
26834.634
20543.414
3299.5031
3288.8616
20451.627
26715.417
44484.705
140210.4
139748.99
44320.111
26607.474
20366.402
3278.4022
3268.3952
20291.199
26510.16
44166.367
139310.58
138947.03
44035.286
26423.276
20221.938
3258.7862
3249.7812
20162.147
26346.122
43913.32
138600.71
138322
43811.795
26277.963
20107.185
3241.2509
3233.5428
20061.637
26219.269
43718.878
138060.51
137857.07
43643.795
26167.952
20019.607
3226.2808
3219.7639
19985.68
26124.22
43573.993
137660.13
137515.7
43519.813
26086.349
19954.112
3213.6644
3208.2905
19929.458
26054.408
43468.022
137368.59
137271.94
43430.653
26027.32
19906.313
3203.3357
3199.1068
19889.778
26005.66
43394.765
137170.54
137114.33
43371.758
25987.785
19873.826
3195.2602
3191.9832
19863.48
25973.822
43347.428
137044.11
137016.55
43334.675
25962.601
19852.791
3189.1382
3186.7332
19846.661
25953.965
43318.399
136967.81
136961.17
43313.015
25947.564
19839.892
3184.5854
3182.8791
19837.323
25943.357
43303.519
136931.79
136945.36
43305.015
25941.311
19833.992
3181.3886
3180.5204
19836.061
25943.048
43305.212
136946.97
137006.2
43320.557
25949.142
19838.703
3180.2778
3182.2393
19846.305
25957.221
43331.092
137037.73
136989.47
43317.072
25947.909
19839.224
3181.9637
3183.0946
19838.342
25944.897
43307.392
136945.62
136969.17
43314.387
25947.902
19840.484
3184.6972
3186.7231
19845.017
25951.923
43316.232
136961.94
137010.95
43331.919
25960.49
19851.54
3189.0953
3191.9396
19860.532
25970.16
43342.418
137027.31
137105.62
43368.48
25985.511
19872.495
3195.2176
3199.0346
19887.353
26002.579
43390.434
137154.58
137267.67
43428.912
26026.012
19905.702
3203.335
3208.2177
19927.656
26052.09
43464.962
137357.58
137510.37
43517.849
26084.944
19953.408
3213.6197
3219.6538
19983.889
26121.994
43570.88
137647.16
137856.94
43643.655
26167.705
20019.762
3226.2619
3233.5036
20060.723
26218.222
43717.694
138053.58
138326.92
43813.108
26278.565
20107.953
3241.3186
3249.7487
20161.471
26345.385
43912.722
138596.55
138949.25
44035.872
26423.451
20222.358
3258.7204
3268.2349
20290.302
26509.096
44165.302
139305.8
139744.69
44318.756
26606.5
20365.929
3278.1786
3288.5586
20449.946
26713.325
44481.743
140197.92
140739.43
44670.883
26833.311
20542.691
3299.2447
3310.2644
20644.891
26964.33
44872.471
141303.98
141968
45103.968
27110.584
20757.334
3321.5631
3333.3537
20879.855
27269.427
45351.861
142662.38
143454.54
45630.765
27443.118
21010.704
3345.9602
3359.3209
21151.964
27626.362
45913.628
144224.49
145000.16
46214.014
27827.806
21312.521
3373.8874
3390.855
21504.381
28065.969
46550.396
145763.81
146734.53
46996.355
28380.888
21753.341
3408.5888
3421.3146
22087.632
28828.025
47685.793
148172.9
150842.19
48665.803
29359.368
22441.945
3412.9008
3375.0907
22652.469
29737.866
49529.362
154920.01
159852.38
50305.929
30000.1
22622.627
3365.01
3415.9646
23880.371
31322.684
52147.508
161482.69
177050.23
55049.866
32078.303
23604.746
3782.4085
3568.3841
22465.213
30186.998
51057.008
162370.01
164282.8
50812.498
29720.078
21955.29
3607.6823
3652.4339
22264.324
29686.413
50103.917
158890.39
154176.19
49417.504
29484.682
22213.304
3723.1891
3746.0141
21919.863
28998.471
48419.157
150981.72
149258.86
47667.52
28536.315
21588.063
3734.7991
3714.7811
21331.621
28202.228
47177.889
148172.64
147330.2
46812.163
27949.455
21131.725
3695.0431
3677.9975
20968.902
27740.517
46495.443
146497.71
145675.4
46198.686
27551.047
20824.838
3662.0722
3647.1669
20694.469
27375.126
45912.269
144854.51
144122.25
45655.773
27213.07
20570.984
3633.061
3619.9143
20460.373
27066.45
45419.933
143438.94
142842.18
45211.252
26932.864
20357.423
3606.8628
3594.4386
20265.55
26811.708
45016.897
142280.33
141802.22
44847.846
26702.443
20180.587
3582.2948
3570.8884
20105.744
26604.169
44690.332
141348.66
140972.61
44556.068
26516.484
20036.88
3559.8897
3549.7752
19977.472
26438.706
44431.291
140614.41
140327.21
44327.665
26370.12
19922.945
3540.1384
3531.4029
19876.909
26309.937
44230.72
140049.1
139837.38
44153.137
26257.67
19834.741
3523.1941
3515.8895
19800.144
26212.439
44079.726
139626.52
139477.71
44023.997
26173.928
19768.481
3509.095
3503.215
19743.649
26141.372
43970.484
139323.8
139225.75
43932.609
26114.185
19720.709
3497.7482
3493.1321
19703.693
26091.655
43894.666
139115.72
139056.4
43870.487
26073.2
19687.524
3488.8406
3485.4859
19677.331
26059.415
43846.367
138987.39
138961.17
43834.006
26048.483
19666.99
3482.274
3479.7694
19661.18
26040.228
43818.157
138913.32
138912.8
43814.4
26034.729
19655.112
3477.443
3475.783
19653.819
26032.274
43807.85
138893.25
138932.44
43816.486
26034.168
19653.295
3474.4687
3475.0338
19662.153
26045.449
43833.85
138995.75
139625.49
44054.673
26144.121
19697.447
3499.7587
3499.9077
19692.154
26134.652
44032.929
139539.22
139538.84
44032.587
26133.225
19691.026
3501.0579
3502.8088
19693.59
26134.729
44029.964
139516.58
139558.51
44042.827
26141.252
19698.504
3504.9603
3507.5792
19705.729
26148.873
44050.115
139565.84
139636.99
44072.876
26161.633
19715.495
3510.6301
3514.1963
19727.717
26175.592
44090.281
139674.85
139771.31
44122.471
26194.485
19742.215
3518.2328
3522.8888
19760.491
26216.343
44152.306
139843.86
139983.27
44199.319
26244.668
19782.359
3528.1025
3533.9885
19808.289
26276.405
44244.874
140101.92
140286.4
44308.066
26315.121
19838.137
3540.4685
3547.7069
19873.42
26359.06
44372.979
140460.57
140705.94
44457.471
26411.311
19913.617
3555.5885
3564.2652
19960.31
26470.299
44546.378
140949.21
141270.99
44657.21
26539.129
20013.105
3573.6021
3583.6699
20073.066
26615.797
44774.496
141596.57
142008.22
44916.087
26703.842
20140.343
3594.3481
3605.653
20215.311
26800.59
45065.781
142429.09
142938.94
45241.269
26909.768
20298.331
3617.453
3629.7757
20390.231
27029.412
45428.035
143467.94
144095.49
45643.529
27163.207
20491.449
3642.4873
3655.6339
20602.236
27308.595
45872.753
144750.53
145502.88
46132.245
27468.815
20722.612
3669.2409
3683.8308
20853.22
27642.29
46407.973
146278.66
147105.05
46706.472
27830.42
20995.368
3699.4693
3716.8712
21159.301
28040.205
47020.836
147891.9
148779.32
47394.434
28292.423
21354.836
3736.7363
3755.7245
21603.322
28617.145
47870.789
149832.88
151549.91
48589.076
29043.133
21902.986
3763.3875
3734.5626
22122.657
29422.454
49375.145
154448.81
158405.84
49790.759
29504.523
22082.732
3658.5339
3630.0996
22403.178
29995.615
50641.836
160457.58
166202.09
52330.632
30920.618
23043.307
3635.0908
3774.1947
23342.751
31822.514
54707.948
176486.58
4778.8243
22216.613
31370.586
55272.111
181443.4
173169.51
54785.342
32102.977
23505.488
3892.4486
3399.93
24651.03
32619.912
54431.154
168598.4
164288.14
52197.645
31112.187
23297.415
3575.4459
3573.0742
22425.397
30241.512
51313.995
163925.61
162585.22
50709.945
29850.424
22187.776
3609.1366
3666.4529
22322.883
29715.955
49997.262
157724.07
153603.43
49323.394
29459.313
22207.769
3732.5776
3750.6943
21903.464
28969.914
48359.049
150750.47
149182.02
47640.149
28519.517
21576.615
3737.0634
3715.7451
21325.191
28193.59
47166.343
148154.68
147327.58
46807.618
27945.504
21128.449
3695.6199
3678.4243
20967.588
27738.583
46492.644
146493.62
145669.53
46196.475
27549.839
20824.198
3662.3882
3647.3899
20693.48
27373.724
45909.871
144847.03
144118.1
45654.193
27212.049
20570.278
3633.2788
3619.9301
20459.049
27064.707
45417.1
143430.39
142835.16
45208.485
26931.127
20356.157
3606.8673
3594.4105
20264.164
26809.893
45014.065
142272.8
141795.74
44845.361
26700.851
20179.409
3582.2862
3570.8747
20104.62
26602.66
44687.972
141342.27
140968.5
44554.365
26515.358
20036.051
3559.9409
3549.8092
19976.676
26437.667
44429.729
140610.4
140324.51
44326.487
26369.338
19922.376
3540.1994
3531.4588
19876.623
26309.515
44230.135
140048.22
139837.25
44152.905
26257.495
19834.638
3523.3277
3516.0195
19800.141
26212.422
44079.77
139627.12
139478.42
44024.154
26174.018
19768.58
3509.2298
3503.3796
19743.99
26141.781
43971.215
139326.68
139229.7
43933.748
26114.872
19721.262
3497.9623
3493.3714
19704.325
26092.483
43896.052
139120.28
139062.91
43872.469
26074.395
19688.455
3489.1267
3485.5822
19677.288
26059.376
43846.095
138984.67
138958.34
43833.223
26048.094
19666.754
3482.3599
3479.7972
19660.54
26039.37
43816.675
138908.3
138908.37
43812.917
26033.849
19654.492
3477.4779
3475.7748
19652.681
26030.812
43805.433
138885.28
138924.54
43813.89
26032.597
19652.151
3474.4333
3474.9431
19660.683
26043.598
43830.94
138986.99
137014.49
43322.496
25950.128
19840.116
3181.2811
3181.6731
19836.1
25942.79
43305.243
136944.5
136954.04
43307.731
25942.99
19836.078
3182.8743
3184.5617
19838.837
25944.781
43305.9
136934.94
136977.24
43318.938
25951.534
19843.931
3186.5757
3189.0289
19850.972
25958.768
43325.725
136983.81
137048.95
43346.977
25970.901
19860.341
3191.8422
3195.1658
19872.317
25984.36
43363.401
137082.67
137177.97
43395.355
26003.476
19887.248
3198.9192
3203.2327
19905.353
26024.606
43423.713
137246.56
137373.47
43467.594
26051.614
19926.489
3207.9911
3213.4417
19952.367
26082.635
43511.271
137485.04
137660
43572.252
26120.776
19982.251
3219.4387
3226.1141
20017.726
26164.184
43635.087
137824.56
138064.16
43718.606
26216.861
20059.029
3233.3647
3241.2653
20106.264
26275.469
43805.294
138297.09
138608.53
43914.111
26344.367
20160.087
3249.7037
3258.7271
20220.821
26420.479
44028.47
138922.43
139312.18
44165.095
26507.196
20288.242
3268.1677
3278.1587
20364.247
26603.373
44311.192
139717.62
140205.11
44481.669
26711.553
20448.004
3288.4842
3299.2495
20541.226
26830.503
44663.993
140715.7
141314.36
44872.983
26962.86
20643.223
3310.2295
3321.6178
20755.68
27107.533
45096.917
141944.84
142666.66
45350.217
27266.739
20877.377
3333.3632
3346.0031
21008.074
27438.191
45619.888
143419.77
144220.87
45908.226
27621.373
21148.129
3359.3344
3374.1261
21305.726
27818.213
46197.756
144965.18
145740.47
46531.961
28050.526
21491.876
3391.4837
3410.835
21733.946
28353.978
46952.339
146590.33
147903.23
47614.457
28785.603
22058.081
3425.877
3419.6835
22400.218
29283.985
48496.733
150245.8
153564
49300.205
29697.6
22673.356
3384.9634
3374.5146
22930.697
30140.294
50171.42
157943.41
164051.31
52117.09
31122.652
23567.05
3436.3305
3809.7678
23379.485
31991.16
55045.155
177595.88
167597.73
52567.529
30993.172
23051.467
3660.469
3644.165
22761.179
30183.268
50482.476
157682.27
157486.59
49490.39
29371.933
21990.531
3672.1833
3742.7899
22060.992
29337.85
49267.145
154132.51
151405.45
48527.246
29000.103
21871.284
3768.4701
3758.9511
21587.513
28595.229
47839.164
149771.28
148731.82
47372.864
28278.445
21344.627
3738.6804
3718.4777
21154.111
28032.249
47006.638
147846.79
147048.23
46691.343
27822.793
20990.75
3700.3242
3684.3205
20849.1
27635.725
46395.396
146236.01
145467.83
46121.305
27462.361
20717.676
3669.3278
3655.5818
20598.765
27303.765
45864.592
144728.43
144071.17
45635.364
27158.168
20487.362
3642.2159
3629.5068
20387.707
27025.889
45422.014
143452.18
142916.21
45234.08
26905.43
20294.747
3617.0292
3605.2967
20213.212
26797.624
45060.561
142415.24
141987.48
44909.654
26700.001
20137.123
3593.9363
3583.355
20071.379
26613.377
44770.113
141585.18
141250.88
44651.194
26535.579
20010.075
3573.1343
3563.7687
19957.935
26467.043
44540.444
140931.6
140678.97
44449.246
26406.455
19909.577
3554.8688
3546.9149
19869.83
26354.271
44364.575
140435.79
140254.59
44297.916
26308.976
19833.033
3539.4577
3532.9737
19804.174
26271.017
44235.732
140076.28
139953.41
44189.42
26238.546
19777.179
3526.9284
3521.8084
19757.149
26212.002
44145.052
139825.48
139748.04
44114.712
26189.643
19737.942
3517.0564
3513.157
19725.241
26172.437
44084.901
139661.73
139617.33
44066.528
26157.751
19711.97
3509.5826
3506.7756
19704.818
26147.581
44047.659
139562.47
139545.04
44038.854
26138.96
19696.238
3504.1293
3502.1415
19692.951
26133.726
44027.586
139511
139516.06
44026.317
26129.83
19688.072
3500.2527
3498.9856
19688.218
26129.101
44022.28
139503.4
139550.69
44033.296
26132.213
19688.442
3498.257
3499.3351
19699.073
26144.96
44052.331
139612.42
139558.15
44037.054
26135.057
19691.68
3499.3758
3500.6271
19691.9
26133.255
44029.032
139521.44
139536.58
44034.003
26134.969
19692.969
3502.2629
3504.4457
19698.559
26140.314
44037.809
139536.74
139582.12
44052.898
26148.365
19704.563
3506.9544
3510.0694
19714.973
26159.929
44066.585
139611
139686.61
44092.174
26174.673
19726.204
3513.5813
3517.7359
19742.239
26193.451
44117.357
139749.27
139858.06
44154.723
26215.734
19759.285
3522.321
3527.6294
19781.999
26243.175
44193.584
139959.79
140112.02
44246.242
26275.24
19806.642
3533.4515
3540.0394
19837.712
26313.567
44302.27
140262.36
140470.56
44374.508
26358.094
19871.945
3547.2413
3555.2409
19913.42
26410.121
44452.332
140683.49
140961.56
44548.771
26469.957
19959.36
3563.8796
3573.3166
20013.271
26538.457
44653.03
141251.35
141612.1
44777.814
26616.035
20072.604
3583.3532
3594.1086
20140.5
26703.203
44912.105
141989.63
142442.68
45068.696
26800.678
20214.757
3605.3778
3617.2647
20298.494
26909.12
45237.311
142920.07
143479.72
45430.62
27029.397
20389.678
3629.5721
3642.4238
20491.394
27162.217
45639.028
144074.85
144757.28
45873.903
27307.809
20601.148
3655.6198
3669.4953
20722.248
27467.306
46126.848
145479.94
146279.51
46407.541
27640.611
20851.51
3684.3678
3700.5999
20995.102
27828.454
46699.116
147068.96
147866.72
47019.735
28039.847
21159.544
3718.8222
3740.0209
21358.702
28294.431
47388.71
148700.45
149767.68
47875.568
28624.638
21610.872
3760.3482
3769.9435
21922.067
29064.554
48605.746
151456.43
154478.99
49506.756
29478.513
22157.693
3743.0118
3664.2919
22086.479
29500.498
49783.878
158366.54
160703.74
50545.655
29896.179
22278.181
3629.4511
3632.992
23261.413
31050.865
52250.924
164431.42
1838.2979
1150.8893
1496.5808
3416.9559
23453.894
31014.439
52021.88
164294.2
165097.77
51403.287
30197.026
22316.949
3578.1087
179072.58
55075.669
31458.398
22405.588
4789.6851
5324.036
22669.215
31752.915
55301.274
177516.56
177863.69
55849.377
32014.855
22807.625
5348.0933
4173.151
22732.206
31363.405
54069.591
173396.4
2570.5055
2239.4718
1257.8819
1508.6463
182.22591
191.48995
192.56933
182.22664
193.39372
194.19546
189.9038
186.98597
139022.15
43841.156
26047.545
19663.077
3476.31
3475.8982
19656.627
26036.795
43817.283
138926.75
138930.93
43818.116
26036.084
19656.106
3477.0611
3478.8005
19658.424
26037.408
43815.317
138907.22
138952.2
43828.844
26044.355
19663.741
3480.9872
3483.5905
19670.5
26051.395
43835.287
138957
139025.01
43856.988
26063.594
19679.907
3486.6468
3490.1943
19691.43
26076.773
43872.993
139056.02
139157.78
43906.399
26096.496
19706.776
3494.3199
3499.0092
19724.531
26117.664
43934.947
139224.75
139365.02
43982.135
26146.275
19746.802
3504.3419
3510.3088
19772.435
26177.616
44026.71
139477.82
139667.75
44091.437
26217.45
19803.375
3516.9747
3524.3205
19838.625
26261.289
44155.868
139838.25
140087.14
44241.455
26314.431
19879.747
3532.3748
3541.1443
19926.433
26373.27
44329.799
140327.13
140648.66
44440.745
26442.463
19979.752
3550.6013
3560.7531
20039.698
26518.899
44557.175
140969.53
141379.73
44698.651
26607.248
20107.512
3571.5544
3582.9262
20182.513
26703.746
44847.339
141795.2
142302.72
45022.515
26813.186
20266.076
3594.8098
3607.1507
20358.228
26932.829
45208.667
142828.44
143456.51
45424.255
27067.13
20460.207
3619.9187
3633.0707
20571.415
27212.678
45653.115
144110.2
144863.91
45913.531
27373.82
20692.732
3646.7071
3661.3077
20823.24
27547.502
46189.762
145641.57
146479.09
46490.021
27736.868
20966.623
3676.649
3693.1507
21131.059
27945.88
46801.921
147275.58
148182.42
47178.695
28199.525
21327.72
3712.0318
3730.0752
21579.224
28528.723
47663.63
149252.85
151010.09
48401.782
28963.561
21884.548
3737.2872
3708.9402
22101.642
29338.59
49194.3
153993.38
157984.32
49705.088
29495.673
22115.471
3643.7806
3603.9294
22423.952
29943.606
50527.133
160329.94
165202.54
51318.151
30104.532
22242.611
3589.5593
24740.986
32774.123
54767.653
169561.73
165786.89
54691.941
33003.556
25081.225
3440.5635
3962.2644
24193.494
32669.748
55047.761
168313.57
173241.67
53747.078
31162.911
22537.525
4196.8039
3599.021
23117.982
30974.999
52048.449
164159.19
165377.21
51381.744
30143.306
22272.259
3592.6906
3606.7378
22444.222
29965.552
50553.896
160370.12
157989.59
49719.554
29511.311
22131.832
3645.7965
3712.0574
22115.75
29355.149
49215.057
154007.72
151015.72
48419.809
28978.03
21896.328
3740.6188
3733.4802
21590.959
28542.456
47681.258
149273.46
148199.99
47192.234
28209.688
21335.969
3714.8016
3695.4619
21139.185
27955.563
46815.754
147309.4
146510.99
46501.463
27744.183
20972.023
3678.4289
3662.9004
20829.386
27555.283
46202.116
145682.57
144893.76
45923.231
27379.916
20697.219
3647.9751
3634.2257
20576.465
27218.845
45662.507
144142.56
143480.51
45431.682
27071.842
20463.632
3620.8789
3608.1026
20362.718
26938.293
45216.99
142857.59
142320.12
45028.28
26816.944
20268.749
3595.5108
3583.5155
20185.27
26707.01
44851.833
141809.97
141382.38
44699.997
26608.378
20108.172
3571.85
3561.04
20041.462
26520.809
44559.595
140979.37
140648.58
44441.056
26442.868
19979.797
3550.732
3541.3326
19927.612
26374.495
44331.136
140333.5
140084.51
44240.888
26314.274
19879.325
3532.4043
3524.4379
19839.896
26262.599
44157.374
139846.03
139666.06
44091.224
26217.515
19803.08
3516.9366
3510.2901
19773.333
26178.492
44027.353
139481.69
139356.58
43980.059
26145.317
19745.724
3504.0538
3498.7669
19724.911
26117.865
43934.486
139225.62
139149.05
43904.037
26095.295
19705.439
3493.858
3489.8994
19692.16
26077.49
43873.497
139060.73
139019.39
43855.732
26063.06
19679.032
3486.1609
3483.1373
19670.504
26051.242
43834.124
138954.02
138937.12
43824.825
26042.244
19661.694
3480.3143
3478.1807
19657.221
26035.564
43811.239
138895.1
138900.16
43809.495
26031.339
19652.152
3476.1743
3474.8346
19651.774
26029.883
43804.304
138883.87
138913.98
43811.033
26030.886
19650.682
3473.5949
3473.5214
19656.023
26037.239
43819.341
138943.49
3499.3084
19692.432
26136.062
44037.075
139559.19
139536.65
44030.326
26131.09
19688.876
3499.7247
3501.0753
19689.32
26129.868
44023.188
139499.63
139533.47
44033.101
26134.506
19692.784
3502.8652
3505.0784
19698.016
26139.607
44036.462
139529.57
139588.4
44054.814
26149.539
19705.57
3507.6765
3510.7541
19715.112
26160.187
44066.988
139610.11
139696.33
44094.846
26176.19
19727.407
3514.286
3518.3601
19742.13
26193.461
44117.441
139748.19
139864.87
44156.449
26216.704
19760.09
3522.9555
3528.1788
19781.603
26242.722
44192.749
139955.32
140116.07
44247.434
26276.032
19807.36
3534.0586
3540.689
19837.68
26313.548
44302.06
140259.46
140476.79
44376.413
26359.336
19873.016
3547.9569
3555.9583
19913.59
26410.345
44452.445
140681.02
140968.27
44551.013
26471.429
19960.616
3564.6515
3574.0419
20013.475
26538.668
44653.075
141248.61
141615.07
44779.059
26616.952
20073.457
3584.0827
3594.7731
20140.288
26702.831
44911.113
141983.05
142441.83
45068.926
26801.012
20215.178
3606.0439
3617.876
20297.928
26908.282
45235.579
142911.34
143476.75
45429.88
27029.069
20389.577
3630.1645
3642.9079
20490.076
27160.445
45635.936
144062.75
144747.74
45871.196
27306.235
20600.076
3656.0271
3669.7627
20719.849
27463.95
46120.661
145457.3
146255.58
46400.81
27637.368
20849.826
3684.378
3700.2655
20991.902
27823.509
46690.446
147043.54
147879.32
47011.611
28032.495
21153.263
3717.9363
3737.9632
21343.637
28276.748
47369.786
148736.31
149802.68
47840.422
28592.119
21583.804
3757.9359
3767.5266
21866.937
28994.061
48517.933
151392.75
154132.58
49258.98
29329.274
22053.373
3741.645
3671.2283
21984.263
29362.793
49473.406
157433.45
157641.71
50469.024
30173.284
22752.695
3642.44
3657.771
23046.869
30986.339
52554.024
167535.18
177418.23
55030.35
31961.943
23350.549
3805.7578
3434.1192
23553.687
31110.314
52103.031
164026.95
163879.5
51286.1
30218.059
22403.352
3569.8178
3565.4375
22457.234
30170.451
51016.446
162197.66
161358.2
52135.683
31316.138
23879.888
3418.9516
3636.8842
23261.164
31051.869
52263.839
164464.6
166333.63
52376.791
30941.112
23057.707
3640.4802
3421.2916
23471.593
31037.023
52065.7
164412.78
165263.56
51468.688
30238.923
22351.237
3584.1572
3601.2669
22556.286
30031.552
50533.109
159466.38
157631.59
49639.143
29484.09
22120.011
3639.2451
3706.9206
22100.828
29335.857
49184.066
153961.33
151036.65
48427.176
28980.001
21895.691
3737.5224
3731.2612
21594.454
28549.339
47695.297
149305
148232.58
47205.493
28217.078
21340.61
3713.3621
3694.5129
21143.14
27961.567
46825.849
147333.78
146530.23
46508.991
27748.896
20975.396
3677.8988
3662.5813
20831.673
27558.488
46207.115
145695.01
144904.34
45926.993
27382.325
20698.995
3647.8128
3634.1155
20577.383
27220.206
45664.627
144147.95
143484.44
45433.139
27072.814
20464.365
3620.8355
3608.055
20363.064
26938.813
45217.779
142859.37
142321.77
45028.915
26817.388
20269.105
3595.5277
3583.5794
20185.849
26707.778
44853.146
141814.5
141388.37
44701.826
26609.499
20109.046
3572.0289
3561.2285
20042.203
26521.835
44561.288
140984.51
140654.79
44443.046
26444.118
19980.776
3550.9454
3541.4257
19927.64
26374.664
44331.307
140332.6
140083.42
44240.65
26314.209
19879.314
3532.4349
3524.3333
19838.473
26260.924
44154.538
139835.24
139655.88
44087.949
26215.56
19801.633
3516.7667
3510.0857
19771.566
26176.282
44023.869
139471.05
139349.41
43977.411
26143.606
19744.418
3503.9083
3498.5977
19723.846
26116.498
43932.428
139219.99
139145.82
43902.745
26094.427
19704.784
3493.8277
3489.7292
19690.688
26075.693
43870.6
139050.86
139010.07
43852.645
26061.166
19677.613
3485.9754
3482.9402
19668.984
26049.37
43831.284
138945.99
138930.99
43822.532
26040.753
19660.549
3480.1403
3478.096
19656.455
26034.699
43810.175
138893.3
138900.44
43809.261
26031.076
19651.927
3476.1288
3474.6975
19650.775
26028.76
43802.565
138877.65
138909.49
43809.365
26029.816
19649.859
3473.459
3473.2339
19654.45
26035.358
43816.396
138934.16
3476.1774
19665.084
26049.165
43840.207
139012.27
138957.46
43824.765
26039.243
19657.742
3475.7057
3476.9165
19657.594
26036.975
43815.886
138916.37
138936.48
43822.266
26039.596
19659.432
3478.6261
3480.876
19664.895
26044.795
43825.828
138934.82
138984.5
43841.93
26053.462
19671.414
3483.4799
3486.5761
19681.335
26064.404
43854.553
139009.02
139086.19
43880.488
26079.449
19692.88
3490.1201
3494.2938
19708.532
26097.761
43904.736
139143.95
139258.16
43943.533
26121.01
19726.469
3498.9742
3504.3225
19748.945
26148.069
43981.614
139356.3
139510.68
44034.855
26180.618
19774.064
3510.1997
3516.836
19804.922
26218.554
44090.093
139657.69
139865.65
44162.239
26263.2
19839.373
3524.0524
3532.0879
19880.525
26314.587
44238.816
140074.17
140348.7
44334.216
26374.01
19926.28
3540.761
3550.2211
19979.688
26441.622
44436.532
140630.24
140989.87
44561.162
26519.462
20039.483
3560.3393
3571.1582
20107.317
26606.283
44694.245
141360.47
141816.15
44851.913
26704.812
20182.69
3582.5326
3594.4707
20266.884
26813.54
45020.391
142291.49
142855.39
45214.918
26934.915
20359.191
3606.7883
3619.5347
20461.481
27068.135
45423.454
143450.99
144136.56
45659.445
27214.829
20572.324
3632.5538
3646.1301
20694.614
27375.726
45914.071
144861.04
145672.7
46198.435
27551.398
20825.638
3660.5037
3675.6189
20970.426
27741.038
46493.342
146478.71
147317.38
46816.54
27953.247
21135.48
3691.7556
3709.8888
21333.025
28207.336
47190.131
148206.1
149327.57
47685.107
28537.726
21583.499
3726.7118
3732.497
21883.734
28965.825
48410.173
151047
154020.88
49172.836
29319.522
22084.696
3701.7926
3635.9102
22097.939
29466.01
49630.332
157685.8
159459.89
50493.558
29997.717
22523.477
3597.0042
3356.5119
23005.679
30136.322
50021.832
156822.91
153394.49
48912.258
29486.007
22541.167
3349.6189
3391.6454
22308.529
29171.399
48335.262
150380.14
148156.32
47620.193
28763.054
22029.052
3406.8861
3399.1639
21737.725
28368.466
46994.802
146786.85
145852.97
46566.357
28068.388
21501.635
3384.2849
3369.3629
21316.19
27832.79
46221.055
145020.68
144250.89
45921.032
27630.257
21154.346
3356.0487
3343.6812
21013.371
27445.635
45631.025
143452.82
142693.65
45359.205
27272.344
20880.83
3331.7435
3320.4683
20759.58
27113.169
45105.646
141973.44
141336.73
44880.212
26967.442
20646.091
3309.3638
3298.676
20545.057
26835.804
44672
140742.24
140225.5
44488.48
26715.98
20450.873
3288.007
3277.7718
20367.835
26608.278
44318.392
139740.89
139329.91
44171.11
26511.176
20290.794
3267.7814
3258.3961
20224.253
26425.124
44035.218
138944.45
138626.21
43920.039
26348.295
20162.616
3249.408
3241.1223
20110.801
26281.425
43814.252
138327.2
138089.09
43727.09
26222.388
20062.793
3233.2931
3226.3044
20023.757
26172.015
43646.954
137863.17
137691.51
43583.217
26127.968
19987.363
3219.725
3213.9197
19958.916
26091.126
43523.938
137524.38
137405.25
43478.858
26059.088
19931.867
3208.4925
3203.7848
19911.54
26032.557
43435.286
137281.11
137202.22
43404.492
26009.736
19891.74
3199.3864
3195.6711
19878.469
25992.051
43374.559
137117.4
137073.68
43356.182
25977.166
19864.84
3192.3273
3189.489
19856.342
25965.529
43335.315
137012.43
136995.3
43326.014
25956.497
19847.417
3186.9038
3184.8637
19843.569
25950.745
43314.352
136961.21
136975.17
43315.3
25948.06
19839.538
3183.1311
3182.1149
19842.055
25950.609
43317.246
136984.4
137067.57
43338.921
25960.112
19847.06
3182.3113
3182.6
19847.18
25958.216
43332.373
137040.25
136995.24
43319.672
25949.768
19840.777
3182.3573
3183.5419
19840.885
25947.908
43311.843
136958.57
136979.25
43318.509
25950.764
19842.825
3185.1477
3187.2363
19848.325
25955.992
43322.228
136978.05
137029.09
43338.811
25965.093
19855.214
3189.6409
3192.5102
19865.08
25975.779
43351.123
137053.81
137125.32
43375.54
25990.104
19876.111
3195.705
3199.503
19891.334
26007.524
43398.215
137179
137283.19
43434.349
26029.548
19908.48
3203.7235
3208.5974
19930.601
26055.789
43470.529
137373.24
137525.47
43523.43
26088.678
19956.37
3213.9919
3220.0585
19987.35
26126.236
43577.264
137666
137871.13
43648.996
26171.307
20022.636
3226.6601
3233.9282
20064.057
26222.292
43723.823
138071.93
138338.88
43817.686
26281.703
20110.474
3241.7133
3250.1421
20164.348
26348.906
43917.957
138611.84
138959.69
44039.872
26426.196
20224.557
3259.0731
3268.5549
20292.611
26511.887
44169.413
139317.85
139750.11
44321.151
26608.227
20367.326
3278.3819
3288.6904
20451.403
26715.028
44484.151
140204.98
140739.73
44671.443
26833.82
20543.1
3299.2208
3310.1463
20645.23
26964.655
44872.939
141306.46
141960.86
45101.51
27109.034
20756.09
3321.2659
3332.9036
20878.032
27266.929
45347.836
142653.28
143433.69
45622.926
27438.514
21007.44
3345.3318
3358.5904
21148.111
27620.542
45903.623
144200.26
144963.59
46200.495
27819.229
21306.155
3373.0712
3390.3262
21496.193
28055.501
46535.287
145712.36
146615.2
46973.252
28365.493
21741.291
3408.937
3422.7139
22066.195
28796.024
47628.992
147966.52
150456.38
48502.554
29302.189
22415.536
3416.7194
3385.9881
22717.171
29790.698
49532.593
154424.87
159784.09
50374.509
30104.475
22784.238
3377.1237
3439.0673
23464.63
31031.987
52033.319
164217.94
176281.17
54811.831
31932.928
23453.994
3806.7519
3659.5921
23102.589
30964.746
52353.384