/*--------------------------------*- C++ -*----------------------------------*\
  =========                 |
  \\      /  F ield         | OpenFOAM: The Open Source CFD Toolbox
   \\    /   O peration     | Website:  https://openfoam.org
    \\  /    A nd           | Version:  7
     \\/     M anipulation  |
\*---------------------------------------------------------------------------*/
FoamFile
{
    version     2.0;
    format      ascii;
    class       volScalarField;
    location    "60";
    object      rho;
}
// * * * * * * * * * * * * * * * * * * * * * * * * * * * * * * * * * * * * * //

dimensions      [1 -3 0 0 0 0 0];

internalField   nonuniform List<scalar> 
24789
(
1.1737789
1.1737812
1.1737824
1.173783
1.1737856
1.1737695
1.1737682
1.1737678
1.1737665
1.1737642
1.1737468
1.1737497
1.173751
1.1737514
1.1737525
1.1737338
1.1737324
1.173732
1.1737304
1.1737271
1.1737055
1.1737094
1.1737113
1.1737119
1.1737134
1.173691
1.1736887
1.173688
1.1736858
1.1736812
1.1736545
1.17366
1.1736626
1.1736635
1.1736664
1.1736398
1.1736356
1.1736345
1.1736313
1.173625
1.1735929
1.1736002
1.1736039
1.1736053
1.1736111
1.1735801
1.1735718
1.17357
1.1735655
1.1735571
1.1735188
1.1735285
1.1735337
1.1735361
1.1735472
1.1735125
1.1734975
1.1734944
1.1734883
1.1734773
1.1734333
1.1734458
1.1734529
1.1734569
1.1734765
1.1734398
1.1734141
1.173409
1.1734008
1.1733868
1.1733387
1.1733542
1.1733638
1.1733702
1.1734028
1.1733661
1.1733249
1.1733171
1.173306
1.173289
1.1732402
1.1732588
1.1732714
1.1732809
1.173331
1.1732971
1.1732352
1.1732235
1.1732093
1.1731892
1.1731422
1.1731637
1.1731797
1.1731935
1.1732671
1.1732419
1.1731549
1.1731388
1.1731211
1.1730983
1.1730598
1.1730838
1.1731033
1.1731219
1.1732225
1.1732095
1.1730949
1.1730738
1.1730527
1.1730283
1.1730066
1.173031
1.1730535
1.1730771
1.1732042
1.1732073
1.1730694
1.1730439
1.1730208
1.1729977
1.1730035
1.1730243
1.1730475
1.1730744
1.1732188
1.1732375
1.1730903
1.1730629
1.1730407
1.1730238
1.1730506
1.1730651
1.1730866
1.1731142
1.173261
1.1732902
1.1731389
1.1731108
1.1730887
1.173072
1.1730515
1.173083
1.1731116
1.1731438
1.1733111
1.1733121
1.1730932
1.1730518
1.1730116
1.1729611
1.1730377
1.1730921
1.1731491
1.1732099
1.1735325
1.1735734
1.1732749
1.1732177
1.1731701
1.1731369
1.1695035
1.1698992
1.1702285
1.1704789
1.1719718
1.1762405
1.1777284
1.1776231
1.1775468
1.1774257
1.178387
1.1785263
1.178595
1.1786731
1.1792447
1.1801898
1.1799056
1.1798763
1.1798416
1.1797584
1.1821876
1.1823042
1.1823863
1.1824385
1.1822906
1.1799704
1.1784744
1.1783425
1.1782348
1.1780314
1.1790861
1.1791429
1.1791521
1.1791644
1.1792751
1.1754591
1.1760292
1.1757871
1.1755747
1.1752939
1.1708313
1.1710975
1.1712944
1.1714393
1.1725071
1.1736999
1.1733188
1.1732672
1.1732303
1.1732206
1.1731137
1.1731481
1.1731896
1.1732386
1.17357
1.1733605
1.1731331
1.1730973
1.1730651
1.1730286
1.1731004
1.173124
1.1731481
1.1731766
1.1733479
1.173328
1.1731646
1.1731388
1.1731198
1.1731084
1.1730751
1.173086
1.1731049
1.1731304
1.1732888
1.1732639
1.1731004
1.1730749
1.1730554
1.1730423
1.1730137
1.1730314
1.1730525
1.1730779
1.1732383
1.1732261
1.1730696
1.1730453
1.1730239
1.1730037
1.1730075
1.17303
1.1730514
1.1730741
1.1732184
1.1732234
1.1730914
1.1730709
1.1730507
1.1730277
1.1730573
1.1730805
1.1730995
1.1731177
1.1732332
1.1732527
1.1731518
1.1731361
1.1731187
1.1730964
1.1731399
1.1731613
1.1731771
1.1731906
1.1732758
1.1733059
1.1732337
1.1732223
1.1732083
1.1731883
1.1732385
1.1732572
1.1732697
1.1732791
1.1733381
1.1733732
1.1733242
1.1733164
1.1733054
1.1732883
1.1733384
1.173354
1.1733636
1.1733699
1.1734088
1.1734458
1.1734148
1.1734097
1.1734014
1.1733874
1.1734338
1.1734465
1.1734537
1.1734577
1.1734816
1.1735174
1.1734989
1.1734957
1.1734896
1.1734785
1.1735197
1.1735296
1.1735349
1.1735373
1.1735511
1.1735838
1.1735733
1.1735714
1.173567
1.1735584
1.1735937
1.1736012
1.173605
1.1736064
1.1736141
1.1736426
1.173637
1.1736359
1.1736327
1.1736264
1.1736555
1.173661
1.1736637
1.1736645
1.1736688
1.1736931
1.1736899
1.1736892
1.173687
1.1736825
1.1737062
1.1737102
1.1737121
1.1737127
1.1737151
1.1737354
1.1737334
1.173733
1.1737314
1.1737282
1.1737472
1.1737501
1.1737515
1.1737519
1.1737537
1.1737707
1.173769
1.1737685
1.1737672
1.1737649
1.1737803
1.1737822
1.1737829
1.1737831
1.1737865
1.1737723
1.1737688
1.1737684
1.1737672
1.1737649
1.17375
1.1737526
1.1737537
1.173754
1.1737557
1.1737371
1.1737349
1.1737345
1.1737331
1.17373
1.1737086
1.1737124
1.1737142
1.1737146
1.173717
1.1736952
1.173692
1.1736914
1.1736892
1.1736848
1.1736585
1.1736638
1.1736663
1.1736671
1.1736711
1.1736454
1.1736398
1.1736387
1.1736357
1.1736296
1.1735977
1.1736049
1.1736085
1.1736099
1.1736171
1.1735875
1.1735774
1.1735756
1.1735713
1.1735631
1.1735253
1.1735348
1.1735398
1.1735421
1.1735552
1.1735224
1.1735047
1.1735017
1.1734958
1.1734851
1.1734419
1.1734539
1.1734608
1.1734646
1.1734873
1.1734525
1.173423
1.1734182
1.1734102
1.1733968
1.1733494
1.1733643
1.1733735
1.1733794
1.1734164
1.1733825
1.173336
1.1733286
1.1733181
1.1733017
1.1732535
1.1732713
1.1732832
1.1732922
1.1733484
1.1733179
1.1732487
1.1732378
1.1732244
1.1732053
1.1731593
1.1731796
1.1731947
1.1732075
1.1732891
1.1732683
1.1731712
1.1731561
1.1731395
1.1731182
1.1730823
1.1731042
1.1731222
1.1731395
1.1732502
1.173243
1.1731164
1.1730968
1.1730776
1.1730558
1.1730386
1.1730598
1.1730799
1.1731014
1.1732389
1.1732504
1.1731006
1.1730774
1.1730571
1.1730379
1.1730508
1.1730672
1.1730871
1.1731111
1.1732637
1.1732948
1.1731371
1.1731125
1.1730936
1.173081
1.1731151
1.173126
1.1731442
1.1731688
1.1733223
1.1733689
1.1732044
1.1731786
1.1731592
1.1731464
1.173136
1.1731631
1.1731885
1.1732176
1.1733952
1.1734129
1.1731679
1.1731297
1.1730935
1.1730481
1.1730919
1.1731335
1.1731792
1.1732314
1.1735848
1.1738652
1.1734
1.1733352
1.1732866
1.1732717
1.1716724
1.1718708
1.1719981
1.1720913
1.1728791
1.1741919
1.1736169
1.1732684
1.1729731
1.1726057
1.1839288
1.1837733
1.1836068
1.1834247
1.1821427
1.1796712
1.1782884
1.1781451
1.1780202
1.177781
1.1820488
1.1821778
1.182265
1.1823286
1.1820494
1.1804844
1.1804668
1.1804798
1.1804701
1.1803597
1.1832679
1.1831282
1.1829897
1.1828322
1.1818557
1.1742203
1.1742151
1.1738882
1.1736063
1.17328
1.1713629
1.1715641
1.1716714
1.171764
1.1725728
1.1737131
1.173348
1.1732794
1.1732212
1.1731832
1.1730815
1.17313
1.1731801
1.1732342
1.173524
1.1733893
1.1731757
1.1731365
1.1730986
1.1730505
1.1731418
1.1731702
1.1731966
1.1732263
1.1733827
1.1733612
1.1732124
1.1731859
1.1731659
1.1731525
1.1731208
1.1731323
1.1731515
1.1731768
1.1733148
1.1732883
1.1731465
1.1731214
1.1731018
1.1730883
1.1730589
1.1730764
1.1730971
1.1731216
1.1732573
1.1732435
1.1731117
1.1730884
1.1730679
1.1730483
1.173049
1.1730704
1.1730908
1.1731123
1.1732321
1.1732363
1.1731269
1.1731076
1.1730886
1.173067
1.1730927
1.1731142
1.173132
1.173149
1.1732438
1.1732627
1.1731799
1.1731651
1.1731489
1.1731282
1.1731674
1.1731873
1.173202
1.1732146
1.173284
1.1733136
1.1732548
1.1732442
1.173231
1.1732124
1.1732586
1.1732761
1.1732878
1.1732965
1.1733443
1.1733794
1.1733402
1.1733331
1.1733229
1.1733069
1.1733533
1.173368
1.173377
1.1733828
1.1734137
1.1734503
1.173426
1.1734214
1.1734136
1.1734005
1.1734448
1.1734567
1.1734634
1.173467
1.1734853
1.1735208
1.1735069
1.1735041
1.1734984
1.1734879
1.1735271
1.1735365
1.1735414
1.1735436
1.1735539
1.1735864
1.1735789
1.1735773
1.1735732
1.1735651
1.1735991
1.1736062
1.1736097
1.1736109
1.1736162
1.1736447
1.1736409
1.1736399
1.173637
1.173631
1.1736593
1.1736646
1.1736671
1.1736679
1.1736705
1.1736947
1.1736926
1.1736921
1.17369
1.1736856
1.1737089
1.1737128
1.1737146
1.173715
1.1737165
1.1737366
1.1737353
1.1737349
1.1737335
1.1737304
1.1737497
1.1737524
1.1737537
1.1737541
1.1737552
1.1737719
1.1737691
1.1737687
1.1737675
1.1737653
1.1737644
1.1737667
1.1737678
1.1737682
1.1737705
1.1737538
1.1737526
1.1737522
1.1737508
1.1737482
1.1737282
1.1737315
1.1737331
1.1737336
1.1737349
1.1737147
1.173713
1.1737124
1.1737105
1.1737067
1.173683
1.1736876
1.1736898
1.1736904
1.1736926
1.1736683
1.1736653
1.1736644
1.1736618
1.1736565
1.1736276
1.1736339
1.1736369
1.173638
1.173642
1.1736135
1.1736077
1.1736062
1.1736025
1.1735952
1.1735609
1.1735692
1.1735735
1.1735753
1.1735832
1.1735507
1.1735397
1.1735373
1.1735322
1.1735227
1.1734821
1.173493
1.1734991
1.1735022
1.1735167
1.1734813
1.1734619
1.1734579
1.1734509
1.1734387
1.1733934
1.1734071
1.1734153
1.1734203
1.1734453
1.1734089
1.1733766
1.1733703
1.1733609
1.1733457
1.1732979
1.1733146
1.1733254
1.1733331
1.1733733
1.1733383
1.1732884
1.1732789
1.1732665
1.1732483
1.1732006
1.1732203
1.1732342
1.1732455
1.1733058
1.1732764
1.1732041
1.1731906
1.1731749
1.1731539
1.1731114
1.1731339
1.1731513
1.1731672
1.1732523
1.1732334
1.1731344
1.1731161
1.173097
1.1730736
1.1730431
1.1730672
1.1730881
1.1731089
1.1732213
1.1732164
1.1730909
1.1730677
1.1730456
1.1730217
1.1730134
1.1730365
1.1730596
1.1730849
1.1732207
1.1732325
1.173089
1.1730624
1.1730394
1.1730188
1.1730391
1.1730566
1.1730791
1.1731066
1.1732526
1.1732769
1.1731296
1.1731021
1.1730805
1.1730659
1.1730868
1.1731046
1.1731275
1.1731563
1.1733071
1.173329
1.1731596
1.1731274
1.1730986
1.1730668
1.1729783
1.1730296
1.1730705
1.1731125
1.1733298
1.1735347
1.1732185
1.1731599
1.1731052
1.1730525
1.1731323
1.173184
1.1732449
1.1733131
1.1736566
1.1722241
1.1710488
1.1708805
1.1706725
1.1703855
1.1757588
1.1759478
1.1760947
1.1762853
1.175656
1.1808076
1.1811665
1.1812003
1.1812202
1.1811955
1.1786572
1.1788019
1.1788652
1.1789242
1.1796526
1.182477
1.1826489
1.1825971
1.182523
1.1824076
1.1849814
1.1861071
1.1862986
1.1864309
1.1864894
1.1861102
1.1861291
1.1860946
1.18597
1.1843728
1.1833369
1.1829528
1.1828982
1.1828263
1.1826249
1.1817279
1.1818644
1.1819211
1.1819478
1.1821457
1.180959
1.1812439
1.1812995
1.1813235
1.1812895
1.1804575
1.1805003
1.1805211
1.180527
1.1806729
1.1744726
1.1752163
1.1749812
1.1747928
1.1745184
1.1711727
1.1713741
1.1715038
1.1716161
1.1725146
1.1736697
1.1733314
1.1732691
1.1732161
1.1731802
1.1730919
1.1731366
1.1731842
1.173236
1.1735145
1.1733743
1.1731678
1.1731297
1.1730936
1.17305
1.1731345
1.1731611
1.1731868
1.1732164
1.1733713
1.1733496
1.1732016
1.1731748
1.1731545
1.1731409
1.1731089
1.173121
1.1731406
1.1731663
1.173306
1.1732801
1.1731371
1.1731115
1.1730915
1.1730774
1.1730496
1.1730676
1.1730886
1.1731135
1.1732507
1.173237
1.1731042
1.1730806
1.1730596
1.1730394
1.1730423
1.173064
1.1730846
1.1731063
1.1732272
1.1732313
1.1731212
1.1731017
1.1730824
1.1730604
1.1730867
1.1731087
1.1731268
1.1731441
1.1732398
1.173259
1.1731755
1.1731606
1.1731442
1.1731231
1.1731632
1.1731833
1.1731982
1.1732109
1.1732811
1.1733108
1.1732517
1.173241
1.1732278
1.173209
1.1732554
1.1732731
1.1732849
1.1732938
1.1733421
1.1733773
1.1733377
1.1733304
1.1733199
1.1733037
1.1733512
1.1733661
1.1733751
1.173381
1.1734122
1.1734489
1.1734244
1.1734197
1.1734118
1.1733985
1.1734432
1.1734552
1.1734619
1.1734656
1.1734842
1.1735197
1.1735056
1.1735028
1.173497
1.1734865
1.1735265
1.1735359
1.1735407
1.1735429
1.1735532
1.1735856
1.173578
1.1735763
1.1735722
1.1735641
1.1735983
1.1736055
1.173609
1.1736102
1.1736156
1.1736441
1.1736402
1.1736392
1.1736363
1.1736303
1.1736588
1.173664
1.1736665
1.1736673
1.17367
1.1736942
1.1736922
1.1736917
1.1736897
1.1736853
1.1737089
1.1737126
1.1737143
1.1737147
1.1737161
1.1737364
1.1737352
1.1737349
1.1737337
1.1737308
1.1737507
1.1737531
1.173754
1.1737541
1.1737552
1.1737722
1.1737696
1.1737696
1.173769
1.1737672
1.1737639
1.1737663
1.1737675
1.1737679
1.1737712
1.1737546
1.1737528
1.1737525
1.1737512
1.1737487
1.1737288
1.1737321
1.1737336
1.173734
1.173736
1.1737159
1.1737134
1.1737129
1.173711
1.1737072
1.1736833
1.1736879
1.1736901
1.1736908
1.1736938
1.1736698
1.1736655
1.1736647
1.173662
1.1736567
1.1736277
1.173634
1.1736371
1.1736382
1.1736436
1.1736154
1.1736078
1.1736063
1.1736026
1.1735954
1.1735604
1.1735688
1.1735732
1.173575
1.1735851
1.173553
1.1735392
1.1735368
1.1735317
1.1735221
1.1734812
1.1734921
1.1734982
1.1735012
1.173519
1.1734841
1.1734605
1.1734565
1.1734495
1.1734372
1.1733913
1.173405
1.1734132
1.1734181
1.173448
1.1734122
1.1733738
1.1733676
1.1733582
1.1733429
1.173294
1.1733107
1.1733215
1.1733292
1.1733765
1.1733427
1.1732842
1.1732749
1.1732626
1.1732443
1.1731953
1.173215
1.1732288
1.1732399
1.1733101
1.1732823
1.1731978
1.1731845
1.1731691
1.1731482
1.1731051
1.1731272
1.1731443
1.1731597
1.1732579
1.1732412
1.1731268
1.1731089
1.1730903
1.1730676
1.1730379
1.1730609
1.173081
1.1731011
1.1732296
1.1732283
1.1730846
1.1730622
1.1730412
1.173019
1.173014
1.1730348
1.1730563
1.1730803
1.1732333
1.1732508
1.1730889
1.1730637
1.1730426
1.1730248
1.1730497
1.1730644
1.1730845
1.1731102
1.1732717
1.1733038
1.1731388
1.1731129
1.1730934
1.173081
1.1731074
1.1731223
1.173143
1.1731699
1.1733359
1.1733693
1.1731811
1.173151
1.173125
1.1730979
1.1730135
1.1730572
1.1730931
1.1731312
1.1733664
1.1735793
1.1732144
1.1731618
1.1731164
1.1730732
1.1732288
1.1732373
1.1732798
1.1733377
1.1737579
1.1726318
1.171583
1.1714158
1.1711808
1.1708845
1.1747781
1.1750406
1.1752382
1.1754803
1.1750536
1.1797062
1.1798891
1.1798902
1.1798956
1.179827
1.1778285
1.1780625
1.1782438
1.1784232
1.1801972
1.1828874
1.1853431
1.1856674
1.1859307
1.1861323
1.1794313
1.1794869
1.1795409
1.1795972
1.1802255
1.1788061
1.1779431
1.177812
1.1776883
1.1774341
1.1783604
1.1784107
1.1784257
1.1784652
1.1766108
1.1719699
1.1702902
1.1700122
1.169656
1.1692418
1.1731767
1.1732109
1.1732603
1.1733182
1.1735962
1.1735409
1.173214
1.1731525
1.1730951
1.1730432
1.1729578
1.1730101
1.1730521
1.1730951
1.173319
1.1733177
1.173145
1.1731123
1.1730832
1.1730511
1.1730712
1.1730891
1.1731122
1.1731413
1.1732958
1.1732663
1.1731171
1.1730894
1.173068
1.1730536
1.1730271
1.1730444
1.1730669
1.1730946
1.1732425
1.1732233
1.1730785
1.1730518
1.173029
1.1730089
1.1730022
1.1730251
1.1730483
1.1730738
1.1732114
1.1732078
1.1730808
1.1730575
1.1730353
1.1730117
1.1730324
1.1730566
1.1730777
1.1730987
1.1732128
1.1732253
1.173125
1.1731065
1.1730873
1.1730639
1.1731017
1.1731244
1.173142
1.173158
1.1732444
1.1732693
1.1731959
1.1731823
1.1731665
1.1731453
1.1731926
1.1732125
1.1732266
1.173238
1.1732992
1.1733324
1.1732821
1.1732726
1.1732601
1.1732417
1.1732909
1.1733079
1.1733189
1.1733267
1.1733675
1.1734039
1.1733715
1.1733652
1.1733557
1.1733403
1.1733883
1.1734022
1.1734105
1.1734155
1.1734408
1.1734773
1.1734578
1.1734538
1.1734467
1.1734344
1.1734783
1.1734894
1.1734954
1.1734985
1.1735132
1.1735477
1.1735368
1.1735344
1.1735292
1.1735196
1.1735577
1.1735663
1.1735707
1.1735725
1.1735806
1.1736114
1.1736056
1.1736042
1.1736004
1.173593
1.1736254
1.1736319
1.173635
1.1736361
1.1736402
1.1736668
1.1736638
1.173663
1.1736603
1.173655
1.1736815
1.1736863
1.1736885
1.1736892
1.1736913
1.1737137
1.1737121
1.1737116
1.1737098
1.1737059
1.1737274
1.1737308
1.1737323
1.1737328
1.1737341
1.1737528
1.1737518
1.1737515
1.1737502
1.1737476
1.1737633
1.1737658
1.173767
1.1737674
1.1737696
1.1737706
1.1737683
1.1737678
1.1737666
1.1737642
1.1737487
1.1737514
1.1737527
1.173753
1.173754
1.1737351
1.1737338
1.1737333
1.1737318
1.1737286
1.1737072
1.173711
1.1737128
1.1737134
1.1737149
1.1736927
1.1736906
1.1736899
1.1736877
1.1736832
1.1736569
1.1736622
1.1736648
1.1736656
1.1736684
1.1736422
1.1736381
1.173637
1.173634
1.1736278
1.1735961
1.1736033
1.1736068
1.1736081
1.1736137
1.1735833
1.1735754
1.1735735
1.1735692
1.1735609
1.1735232
1.1735327
1.1735378
1.1735401
1.1735508
1.173517
1.1735027
1.1734997
1.1734938
1.1734831
1.1734395
1.1734517
1.1734586
1.1734625
1.1734816
1.1734458
1.1734209
1.1734159
1.1734079
1.1733944
1.173347
1.1733621
1.1733714
1.1733776
1.1734094
1.173374
1.173334
1.1733263
1.1733155
1.1732989
1.1732507
1.1732687
1.1732808
1.1732901
1.1733394
1.1733072
1.1732472
1.1732359
1.1732221
1.1732026
1.1731567
1.1731776
1.1731931
1.1732065
1.1732782
1.1732545
1.1731697
1.1731541
1.1731369
1.1731149
1.1730779
1.173101
1.1731199
1.173138
1.1732361
1.1732249
1.1731129
1.1730924
1.173072
1.1730486
1.1730281
1.1730517
1.1730735
1.1730963
1.1732206
1.1732261
1.1730908
1.1730661
1.1730436
1.1730215
1.173028
1.1730483
1.1730708
1.1730971
1.1732388
1.1732608
1.1731151
1.1730883
1.1730667
1.1730504
1.1730791
1.1730932
1.1731141
1.1731413
1.1732863
1.1733187
1.1731683
1.1731406
1.1731192
1.1731043
1.1730919
1.1731211
1.1731481
1.173179
1.1733434
1.1733442
1.1731299
1.17309
1.1730517
1.173004
1.1730639
1.173114
1.1731661
1.1732234
1.1735318
1.1737161
1.1733693
1.1733053
1.1732534
1.1732199
1.1707143
1.1710106
1.1712273
1.1713889
1.1723868
1.1747867
1.1749916
1.1747344
1.1745428
1.1743112
1.1831185
1.1830243
1.1829061
1.1827641
1.1818006
1.179072
1.1779654
1.1778629
1.1777799
1.1775886
1.181273
1.1791062
1.1809097
1.1801133
1.178817
1.1787
1.1785996
1.178453
1.1817328
1.1817079
1.1816492
1.18157
1.1812278
1.1843341
1.184338
1.1843066
1.1842251
1.1840288
1.1821155
1.1825212
1.182534
1.182501
1.1823136
1.1790863
1.1794319
1.1796048
1.1797621
1.1806013
1.1820444
1.1819841
1.181972
1.1819196
1.1817947
1.1836681
1.185649
1.1828694
1.1843038
1.1739117
1.1739444
1.1739007
1.1739117
1.1738737
1.1738773
1.1738896
1.1738805
1.1737637
1.1737665
1.1737681
1.1737687
1.1737713
1.1737553
1.1737539
1.1737533
1.1737517
1.1737488
1.1737296
1.173733
1.1737347
1.1737353
1.1737365
1.1737167
1.173715
1.1737144
1.1737125
1.1737087
1.1736858
1.1736903
1.1736924
1.173693
1.1736949
1.173671
1.173668
1.1736672
1.1736647
1.1736596
1.1736316
1.1736376
1.1736405
1.1736415
1.1736452
1.1736171
1.1736113
1.17361
1.1736065
1.1735995
1.1735661
1.1735741
1.1735782
1.1735798
1.1735872
1.1735553
1.1735447
1.1735425
1.1735378
1.1735288
1.1734891
1.1734995
1.1735051
1.1735079
1.1735217
1.1734872
1.1734686
1.1734649
1.1734583
1.1734465
1.1734029
1.1734159
1.1734236
1.1734281
1.1734517
1.1734161
1.1733851
1.1733793
1.1733705
1.1733562
1.17331
1.1733258
1.1733359
1.173343
1.1733812
1.1733474
1.1732994
1.1732906
1.173279
1.1732619
1.1732161
1.1732345
1.1732475
1.173258
1.1733153
1.1732881
1.1732189
1.1732064
1.1731918
1.1731721
1.1731325
1.1731532
1.1731692
1.1731838
1.1732647
1.1732487
1.1731543
1.1731374
1.1731199
1.1730984
1.1730728
1.1730944
1.1731133
1.1731322
1.1732382
1.1732376
1.1731178
1.1730965
1.1730765
1.1730554
1.173053
1.1730729
1.1730934
1.1731164
1.1732446
1.1732646
1.1731283
1.173104
1.1730836
1.1730663
1.1730951
1.1731089
1.1731282
1.1731527
1.173288
1.1733243
1.1731835
1.1731583
1.1731393
1.1731276
1.1731565
1.1731715
1.1731918
1.173218
1.1733596
1.1733956
1.1732321
1.1732017
1.1731747
1.173145
1.1730651
1.1731108
1.173149
1.1731886
1.1733921
1.1736105
1.1733148
1.1732593
1.1732097
1.1731687
1.1731908
1.1732361
1.1732912
1.1733501
1.1736135
1.1721717
1.1706996
1.1705556
1.1704193
1.1702282
1.1784923
1.1785683
1.1785777
1.1786159
1.1765997
1.1783267
1.1772418
1.1770797
1.1769318
1.1766513
1.1810969
1.1810938
1.1811054
1.1810925
1.1812078
1.1821987
1.1821688
1.1821307
1.1819336
1.1807054
1.1810298
1.1811311
1.181232
1.1818526
1.1816503
1.1812935
1.1811473
1.1809853
1.1806215
1.1875558
1.1873581
1.1871166
1.1867888
1.1847509
1.1841311
1.1851222
1.1852564
1.1853441
1.1853608
1.1810236
1.1810227
1.1810371
1.1810258
1.1811477
1.1782739
1.1771927
1.1770306
1.1768831
1.1766069
1.1784229
1.1785018
1.1785104
1.1785484
1.1765372
1.1720908
1.1706306
1.1704881
1.1703542
1.1701678
1.1731419
1.1731857
1.1732392
1.173296
1.1735483
1.1735542
1.1732709
1.1732168
1.1731687
1.1731294
1.1730248
1.1730685
1.1731054
1.173144
1.1733415
1.1733522
1.1731923
1.1731624
1.1731365
1.1731089
1.1731186
1.1731326
1.1731529
1.1731793
1.1733215
1.1732911
1.1731475
1.1731218
1.1731028
1.1730918
1.173056
1.1730702
1.1730906
1.1731163
1.173258
1.1732372
1.1730946
1.1730693
1.1730482
1.1730305
1.1730184
1.1730394
1.1730611
1.1730853
1.1732197
1.1732156
1.17309
1.1730677
1.1730467
1.1730245
1.1730419
1.1730649
1.173085
1.1731051
1.1732173
1.1732302
1.1731309
1.1731132
1.1730947
1.1730722
1.1731085
1.1731304
1.1731474
1.1731627
1.1732478
1.1732735
1.1732006
1.1731875
1.1731723
1.1731516
1.1731979
1.1732174
1.173231
1.173242
1.1733023
1.1733359
1.1732857
1.1732765
1.1732643
1.1732462
1.1732955
1.1733122
1.1733228
1.1733303
1.1733706
1.1734074
1.1733752
1.1733691
1.1733598
1.1733447
1.1733923
1.173406
1.173414
1.1734188
1.1734438
1.1734806
1.1734613
1.1734575
1.1734506
1.1734384
1.173482
1.1734929
1.1734987
1.1735016
1.173516
1.1735504
1.1735397
1.1735374
1.1735324
1.1735229
1.1735607
1.1735691
1.1735733
1.173575
1.1735828
1.1736135
1.1736079
1.1736065
1.1736029
1.1735957
1.1736277
1.173634
1.173637
1.173638
1.173642
1.1736684
1.1736656
1.1736648
1.1736623
1.173657
1.1736831
1.1736877
1.1736899
1.1736905
1.1736926
1.1737148
1.1737133
1.1737128
1.1737109
1.1737071
1.1737283
1.1737316
1.1737333
1.1737337
1.1737349
1.1737534
1.1737522
1.1737518
1.1737505
1.1737477
1.173765
1.1737675
1.1737689
1.1737693
1.1737704
1.1737861
1.1737836
1.1737836
1.1737833
1.1737818
1.1737697
1.1737673
1.1737669
1.1737656
1.1737633
1.1737476
1.1737504
1.1737518
1.1737522
1.1737532
1.1737348
1.1737332
1.1737328
1.1737311
1.1737279
1.173707
1.1737108
1.1737127
1.1737132
1.1737146
1.1736928
1.1736904
1.1736898
1.1736876
1.1736831
1.1736572
1.1736625
1.1736651
1.1736659
1.1736686
1.1736426
1.1736382
1.1736372
1.1736341
1.173628
1.1735966
1.1736038
1.1736074
1.1736087
1.1736141
1.173584
1.1735757
1.1735739
1.1735696
1.1735615
1.1735241
1.1735336
1.1735386
1.173541
1.1735514
1.173518
1.1735032
1.1735002
1.1734943
1.1734837
1.1734414
1.1734534
1.1734603
1.1734641
1.1734826
1.1734473
1.1734222
1.1734173
1.1734093
1.173396
1.1733499
1.1733648
1.1733739
1.17338
1.1734109
1.173376
1.173336
1.1733284
1.1733178
1.1733016
1.1732546
1.1732723
1.1732842
1.1732933
1.1733411
1.1733099
1.1732505
1.1732394
1.1732259
1.1732069
1.1731632
1.1731836
1.1731987
1.1732116
1.1732808
1.1732587
1.1731752
1.1731599
1.1731432
1.1731218
1.1730868
1.1731093
1.1731277
1.1731452
1.1732398
1.1732309
1.1731206
1.1731006
1.1730807
1.173058
1.1730402
1.1730629
1.1730841
1.1731063
1.1732262
1.1732345
1.1731006
1.1730763
1.1730543
1.1730327
1.1730415
1.1730612
1.1730832
1.1731088
1.1732464
1.1732726
1.1731255
1.1730987
1.173077
1.1730604
1.1730881
1.1731032
1.1731245
1.1731515
1.1732958
1.1733368
1.1731765
1.1731474
1.1731241
1.1731054
1.1730852
1.1731195
1.1731496
1.1731827
1.1733541
1.1733735
1.1731349
1.173091
1.1730484
1.1729953
1.1730789
1.1731335
1.1731923
1.1732547
1.1735833
1.1736555
1.1733533
1.1732927
1.1732406
1.1732027
1.1693016
1.1697156
1.1700714
1.1703486
1.1720178
1.1766699
1.1785273
1.1784874
1.1784701
1.1784167
1.1774897
1.1777461
1.1778714
1.1780038
1.1788771
1.1802357
1.1796475
1.1795931
1.1795398
1.1794875
1.1861556
1.1859526
1.1856876
1.1853623
1.1829014
1.180193
1.1784386
1.1782605
1.1780799
1.1778483
1.1813068
1.1813436
1.1813207
1.1812682
1.1810245
1.1805167
1.1804699
1.1804807
1.1804688
1.1803553
1.1777851
1.1780237
1.1781469
1.1782897
1.1796984
1.1790415
1.1779184
1.177817
1.177736
1.1775452
1.1785734
1.1787202
1.1787837
1.1788437
1.179585
1.180058
1.1787694
1.1786505
1.1785486
1.1783996
1.1816177
1.1815962
1.1815454
1.1814759
1.1811815
1.178384
1.1773412
1.1771627
1.1769816
1.1766924
1.1782509
1.1783306
1.1783473
1.1783957
1.1765433
1.1720499
1.1705988
1.1704567
1.1703191
1.17012
1.1731699
1.1732106
1.1732622
1.173318
1.1735569
1.1735564
1.1732826
1.1732295
1.1731823
1.1731453
1.1730336
1.1730749
1.1731109
1.1731484
1.1733357
1.1733508
1.1731956
1.1731663
1.1731412
1.1731154
1.1731209
1.173134
1.173154
1.1731802
1.1733189
1.1732895
1.1731472
1.1731215
1.1731025
1.1730917
1.1730549
1.1730691
1.1730894
1.1731151
1.1732555
1.1732361
1.173094
1.1730686
1.1730475
1.1730298
1.1730172
1.1730382
1.17306
1.1730842
1.1732182
1.1732153
1.1730891
1.1730667
1.1730457
1.1730234
1.173041
1.1730641
1.1730842
1.1731044
1.1732168
1.1732303
1.1731303
1.1731124
1.1730939
1.1730713
1.1731077
1.1731298
1.1731468
1.1731622
1.1732476
1.1732735
1.1732003
1.1731872
1.1731718
1.1731511
1.1731969
1.1732165
1.1732303
1.1732414
1.1733019
1.1733357
1.1732856
1.1732764
1.1732644
1.1732463
1.173295
1.1733117
1.1733224
1.1733299
1.1733702
1.173407
1.1733748
1.1733687
1.1733594
1.1733443
1.1733918
1.1734055
1.1734136
1.1734184
1.1734433
1.1734802
1.1734608
1.173457
1.1734501
1.1734379
1.1734811
1.1734921
1.1734981
1.173501
1.1735155
1.1735502
1.1735393
1.173537
1.173532
1.1735225
1.1735602
1.1735687
1.1735729
1.1735747
1.1735825
1.1736134
1.1736077
1.1736065
1.173603
1.1735958
1.1736274
1.1736337
1.1736367
1.1736377
1.1736417
1.1736683
1.1736653
1.1736646
1.1736621
1.1736568
1.1736829
1.1736875
1.1736897
1.1736903
1.1736924
1.1737147
1.1737131
1.1737127
1.1737109
1.1737072
1.1737287
1.1737319
1.1737333
1.1737337
1.1737349
1.1737534
1.1737523
1.1737521
1.173751
1.1737485
1.1737665
1.1737686
1.1737694
1.1737695
1.1737704
1.1737854
1.1737831
1.173783
1.1737824
1.1737807
1.1737718
1.1737694
1.173769
1.173768
1.1737659
1.17375
1.1737526
1.1737539
1.1737542
1.1737553
1.1737365
1.1737352
1.1737348
1.1737333
1.1737302
1.173709
1.1737128
1.1737145
1.173715
1.1737165
1.1736947
1.1736926
1.173692
1.1736899
1.1736855
1.1736595
1.1736647
1.1736672
1.1736679
1.1736707
1.1736448
1.1736409
1.1736399
1.1736369
1.1736309
1.1735996
1.1736066
1.17361
1.1736112
1.1736167
1.1735868
1.1735791
1.1735774
1.1735733
1.1735652
1.1735276
1.1735369
1.1735419
1.1735441
1.1735547
1.1735214
1.1735072
1.1735043
1.1734985
1.173488
1.1734453
1.1734571
1.1734637
1.1734674
1.1734862
1.1734509
1.1734265
1.1734217
1.173414
1.1734007
1.1733534
1.1733681
1.1733772
1.1733832
1.1734145
1.1733799
1.1733406
1.1733332
1.1733229
1.1733068
1.1732584
1.1732759
1.1732877
1.1732966
1.1733449
1.1733135
1.1732547
1.1732439
1.1732307
1.1732118
1.1731666
1.1731867
1.1732015
1.1732142
1.1732843
1.1732619
1.1731791
1.1731642
1.1731477
1.1731265
1.1730899
1.173112
1.1731301
1.1731474
1.1732433
1.1732341
1.1731247
1.1731051
1.1730857
1.1730634
1.1730441
1.1730662
1.1730869
1.1731088
1.1732303
1.173239
1.1731072
1.1730836
1.1730625
1.1730421
1.1730517
1.1730698
1.1730907
1.1731155
1.1732526
1.1732799
1.1731399
1.1731146
1.1730947
1.1730804
1.1731117
1.173124
1.1731435
1.173169
1.1733077
1.17335
1.1732053
1.1731787
1.173158
1.1731433
1.1731308
1.1731596
1.1731865
1.1732166
1.1733727
1.173376
1.1731753
1.1731364
1.1730993
1.1730562
1.1731666
1.173205
1.1732534
1.1733074
1.1735807
1.173605
1.1733558
1.1732996
1.1732485
1.1732068
1.1701726
1.1703748
1.1705144
1.170656
1.1720816
1.1766166
1.1784881
1.1784425
1.1784276
1.1783494
1.1767803
1.1770539
1.1772282
1.1774038
1.1784528
1.17923
1.1786082
1.1785146
1.178419
1.1782553
1.1766193
1.1768083
1.1769159
1.1770621
1.1759066
1.1725737
1.1711785
1.1710355
1.1708701
1.1706353
1.1732179
1.1732551
1.1733023
1.1733577
1.1737232
1.1735913
1.1732629
1.1732126
1.1731689
1.173134
1.1730341
1.1730738
1.173108
1.1731444
1.1733617
1.1733632
1.1731875
1.1731588
1.1731344
1.1731096
1.1731177
1.1731308
1.1731504
1.1731762
1.173333
1.173303
1.1731431
1.1731178
1.1730993
1.1730887
1.173055
1.1730687
1.1730886
1.1731139
1.1732723
1.1732516
1.1730912
1.1730661
1.1730454
1.1730283
1.1730173
1.1730379
1.1730594
1.1730834
1.1732356
1.1732309
1.1730872
1.1730647
1.1730438
1.1730219
1.1730412
1.1730642
1.1730843
1.1731045
1.1732329
1.1732448
1.1731302
1.1731123
1.1730937
1.173071
1.1731088
1.173131
1.1731481
1.1731636
1.1732618
1.1732859
1.1732013
1.173188
1.1731726
1.1731517
1.1731987
1.1732184
1.1732323
1.1732434
1.1733138
1.1733463
1.1732872
1.1732779
1.1732656
1.1732474
1.1732973
1.1733141
1.1733249
1.1733326
1.1733801
1.1734155
1.1733767
1.1733704
1.173361
1.1733457
1.1733939
1.1734077
1.1734159
1.1734209
1.1734511
1.1734868
1.1734629
1.1734589
1.1734519
1.1734396
1.1734833
1.1734943
1.1735004
1.1735035
1.1735215
1.1735551
1.1735411
1.1735387
1.1735335
1.173524
1.1735619
1.1735704
1.1735748
1.1735766
1.1735868
1.1736169
1.1736092
1.1736077
1.1736041
1.1735968
1.1736287
1.173635
1.1736382
1.1736393
1.1736449
1.1736708
1.1736666
1.1736657
1.1736631
1.1736578
1.1736838
1.1736885
1.1736908
1.1736915
1.1736946
1.1737166
1.173714
1.1737134
1.1737115
1.1737077
1.1737286
1.1737321
1.1737338
1.1737343
1.1737365
1.1737555
1.1737535
1.173753
1.1737516
1.1737489
1.1737643
1.1737667
1.173768
1.1737684
1.173772
1.1737715
1.1737684
1.1737678
1.1737665
1.173764
1.1737488
1.1737516
1.1737531
1.1737535
1.1737552
1.1737367
1.1737346
1.1737341
1.1737324
1.1737292
1.1737082
1.1737121
1.173714
1.1737145
1.1737168
1.1736953
1.1736921
1.1736914
1.1736892
1.1736847
1.1736586
1.1736639
1.1736665
1.1736673
1.1736713
1.1736458
1.1736402
1.1736391
1.173636
1.1736299
1.1735981
1.1736053
1.1736089
1.1736103
1.1736176
1.1735881
1.1735779
1.1735761
1.1735718
1.1735637
1.1735262
1.1735355
1.1735405
1.1735429
1.173556
1.1735231
1.1735055
1.1735024
1.1734966
1.173486
1.1734431
1.1734551
1.173462
1.1734658
1.1734884
1.1734537
1.1734242
1.1734194
1.1734115
1.1733981
1.1733512
1.173366
1.1733751
1.1733811
1.173418
1.173384
1.1733376
1.1733302
1.1733198
1.1733036
1.1732553
1.1732729
1.1732848
1.1732938
1.17335
1.1733198
1.1732512
1.1732404
1.1732271
1.1732081
1.1731631
1.1731833
1.1731982
1.1732109
1.1732918
1.1732708
1.1731746
1.1731596
1.1731432
1.1731221
1.1730864
1.1731083
1.1731262
1.1731434
1.1732531
1.1732457
1.1731198
1.1731004
1.1730812
1.1730594
1.1730422
1.1730634
1.1730835
1.173105
1.1732424
1.1732529
1.173103
1.1730798
1.1730594
1.17304
1.1730523
1.1730693
1.1730893
1.1731135
1.1732673
1.1732965
1.1731372
1.1731124
1.1730932
1.1730799
1.173113
1.1731248
1.1731435
1.1731685
1.1733254
1.1733705
1.173203
1.1731768
1.1731569
1.1731435
1.173135
1.1731611
1.1731864
1.1732158
1.1733956
1.1734159
1.1731735
1.1731362
1.1731017
1.1730624
1.1731481
1.1731852
1.173229
1.17328
1.1736279
1.1737546
1.1733535
1.1732999
1.1732615
1.1732498
1.1708853
1.1711537
1.1713525
1.1714991
1.1725774
1.1755192
1.1760955
1.1758526
1.1756387
1.1753567
1.1791447
1.1792019
1.1792111
1.1792236
1.1793303
1.1800213
1.1785511
1.1784192
1.1783119
1.1781122
1.1821746
1.1822891
1.1823715