/*--------------------------------*- C++ -*----------------------------------*\
  =========                 |
  \\      /  F ield         | OpenFOAM: The Open Source CFD Toolbox
   \\    /   O peration     | Website:  https://openfoam.org
    \\  /    A nd           | Version:  7
     \\/     M anipulation  |
\*---------------------------------------------------------------------------*/
FoamFile
{
    version     2.0;
    format      ascii;
    class       volScalarField;
    location    "60";
    object      T;
}
// * * * * * * * * * * * * * * * * * * * * * * * * * * * * * * * * * * * * * //

dimensions      [0 0 0 1 0 0 0];

internalField   nonuniform List<scalar> 
24789
(
300.05099
300.04885
300.04806
300.04821
300.04978
300.0599
300.05841
300.05828
300.05923
300.06174
300.07408
300.0711
300.0699
300.06992
300.07087
300.08291
300.08284
300.083
300.08449
300.08798
300.1034
300.09938
300.09756
300.09717
300.09595
300.10984
300.11289
300.11362
300.11585
300.12045
300.13876
300.13361
300.13093
300.12979
300.12427
300.13889
300.14759
300.1493
300.15249
300.15821
300.17815
300.17195
300.16822
300.16584
300.15321
300.16665
300.18399
300.18718
300.1915
300.19811
300.21715
300.2103
300.20541
300.20131
300.17854
300.18813
300.21692
300.22203
300.22748
300.23436
300.24853
300.24182
300.23588
300.22965
300.19422
300.19668
300.23872
300.24603
300.25241
300.25871
300.26419
300.25849
300.25184
300.24352
300.19547
300.1904
300.24349
300.25261
300.25932
300.264
300.25729
300.25392
300.24739
300.23755
300.18003
300.16288
300.22411
300.23446
300.24054
300.24198
300.21781
300.21843
300.21306
300.20238
300.13886
300.1102
300.17253
300.18287
300.18704
300.18369
300.1404
300.14658
300.14405
300.1346
300.07718
300.04055
300.08941
300.0972
300.09754
300.08789
300.02841
300.04138
300.04358
300.03802
300.00155
299.96211
299.98307
299.98576
299.98074
299.96425
299.90179
299.92056
299.92809
299.92835
299.92417
299.89019
299.88011
299.87738
299.8686
299.84994
299.82265
299.83605
299.84347
299.84659
299.8619
299.84117
299.83693
299.83656
299.83507
299.83451
299.89713
299.87719
299.8676
299.86065
299.83007
299.82456
299.91387
299.93166
299.95401
299.99199
300.06743
300.025
299.99282
299.96415
299.81025
299.79521
299.97778
300.01292
300.05275
300.09982
300.09701
300.05154
300.0167
299.98505
299.82619
299.70617
299.91244
299.94925
299.98878
300.04038
300.10899
300.06463
300.02802
299.99236
299.77538
299.77907
299.91898
299.94082
299.9639
299.9923
299.90937
299.87906
299.85167
299.82559
299.69133
299.7908
300.06691
300.10375
300.14432
300.20536
300.07904
300.03406
300.00001
299.97002
299.75996
299.72717
300.04849
300.09919
300.15385
300.22474
300.09231
300.04036
300.00505
299.97537
299.81435
299.79598
299.99438
300.02613
300.06042
300.09709
300.05288
300.01577
299.98839
299.9637
299.80828
299.82243
299.91112
299.92635
299.94545
299.97793
299.8839
299.86686
299.85908
299.85383
299.82896
299.84223
299.82912
299.82737
299.82367
299.81774
299.81677
299.82827
299.83593
299.83968
299.86357
299.89244
299.87465
299.8712
299.86147
299.84139
299.89531
299.91586
299.92447
299.92542
299.92663
299.965
299.98445
299.98646
299.98006
299.96125
300.03125
300.04633
300.04947
300.04415
300.00453
300.04362
300.0997
300.10741
300.10692
300.09539
300.15246
300.15972
300.1574
300.14765
300.08005
300.11279
300.18684
300.19748
300.2015
300.19746
300.23277
300.23353
300.22791
300.21678
300.14104
300.16466
300.23787
300.24856
300.25481
300.25625
300.27152
300.26737
300.26036
300.25009
300.18124
300.19122
300.2548
300.26418
300.27102
300.27553
300.27506
300.26919
300.26223
300.25362
300.19609
300.19713
300.24749
300.25501
300.26168
300.26849
300.25682
300.24959
300.24329
300.23685
300.19431
300.18767
300.22266
300.22797
300.23371
300.24105
300.22263
300.21533
300.21013
300.20584
300.17791
300.16593
300.1875
300.19085
300.19544
300.20245
300.18159
300.175
300.17102
300.16847
300.1524
300.13807
300.14952
300.15139
300.15481
300.16087
300.1408
300.13533
300.13245
300.13116
300.12344
300.10905
300.11385
300.11472
300.11714
300.12201
300.1046
300.10034
300.09835
300.09784
300.09524
300.08227
300.08327
300.08355
300.08519
300.08888
300.07482
300.07165
300.07032
300.07023
300.07033
300.05944
300.05854
300.05851
300.05956
300.0622
300.05172
300.04946
300.04855
300.04861
300.04959
300.05789
300.05729
300.05729
300.05834
300.06094
300.07325
300.07024
300.06897
300.0689
300.06912
300.08102
300.08186
300.08212
300.08369
300.08725
300.10262
300.09853
300.09662
300.09614
300.09379
300.10739
300.1119
300.11272
300.11504
300.11973
300.13811
300.13285
300.13008
300.12885
300.12152
300.13587
300.14682
300.14861
300.1519
300.15775
300.17791
300.17158
300.16774
300.16531
300.14992
300.16314
300.18386
300.18709
300.19151
300.19827
300.21777
300.21076
300.20577
300.20165
300.17482
300.18431
300.21798
300.2231
300.22864
300.23571
300.25078
300.24386
300.23783
300.23164
300.19069
300.19333
300.24182
300.24908
300.25553
300.26208
300.268
300.26241
300.25579
300.24753
300.19218
300.18734
300.24845
300.25749
300.26411
300.26856
300.26355
300.25981
300.25323
300.24343
300.17732
300.16057
300.23092
300.24123
300.24724
300.24857
300.22459
300.22554
300.22035
300.20974
300.13706
300.10913
300.18008
300.19028
300.19412
300.19012
300.14523
300.15247
300.1505
300.14125
300.07656
300.04043
300.09417
300.10159
300.10108
300.08988
300.02647
300.04125
300.04452
300.03949
300.00151
299.96227
299.98113
299.98312
299.97695
299.95869
299.89357
299.91376
299.92224
299.92316
299.92394
299.88983
299.87346
299.87027
299.86096
299.84138
299.81849
299.82916
299.83621
299.83951
299.86084
299.8396
299.82979
299.82868
299.82587
299.82208
299.89407
299.87352
299.86393
299.85745
299.82597
299.82035
299.9164
299.93288
299.95361
299.98925
300.0466
300.01585
299.99022
299.96567
299.80629
299.78383
299.97204
300.00061
300.02803
300.04776
300.01852
299.97081
299.93885
299.9138
299.78869
299.74525
300.06116
300.10928
300.15538
300.21252
299.70551
299.68198
299.67221
299.66866
299.63235
299.84637
300.19229
300.23944
300.29052
300.35969
299.77318
299.75145
299.73762
299.72552
299.68242
299.819
300.06577
300.10886
300.16041
300.23801
299.6866
299.6814
299.67847
299.67795
299.65939
299.75741
299.9947
300.03437
300.07271
300.11419
300.03179
299.97857
299.94572
299.91925
299.8028
299.79321
299.97271
300.00452
300.03691
300.06763
300.05619
300.02012
299.99083
299.96381
299.81435
299.82451
299.91147
299.92879
299.95099
299.99002
299.88974
299.86921
299.85984
299.85354
299.82707
299.83854
299.83108
299.83003
299.82703
299.82271
299.82101
299.83282
299.83994
299.84304
299.85934
299.88859
299.87798
299.87529
299.86627
299.84693
299.89989
299.91919
299.92685
299.92708
299.92324
299.96248
299.98305
299.98559
299.98016
299.96294
300.02835
300.04196
300.04438
300.03888
300.00249
300.04214
300.09093
300.0985
300.09839
300.08798
300.14112
300.14782
300.14551
300.1362
300.07883
300.11187
300.17386
300.1839
300.18765
300.18371
300.21774
300.21877
300.21361
300.20316
300.14001
300.16363
300.22449
300.23451
300.2402
300.24115
300.25625
300.25323
300.24694
300.23739
300.18053
300.19046
300.24299
300.25179
300.25816
300.26246
300.26248
300.25704
300.2506
300.24255
300.19518
300.19614
300.2374
300.2444
300.2505
300.25653
300.24608
300.23953
300.23376
300.2278
300.19319
300.18647
300.21469
300.21958
300.22484
300.23155
300.21425
300.20755
300.20281
300.19889
300.17666
300.16471
300.1816
300.18462
300.1888
300.19526
300.17543
300.16935
300.16573
300.16348
300.15122
300.13694
300.14535
300.14695
300.15005
300.15566
300.13641
300.13134
300.12875
300.12768
300.12238
300.10806
300.11097
300.11163
300.1138
300.11833
300.1015
300.09755
300.09578
300.09544
300.09431
300.08142
300.08129
300.08142
300.08288
300.08631
300.07253
300.06961
300.06845
300.06849
300.06941
300.05808
300.05688
300.0568
300.05777
300.06028
300.06054
300.05803
300.05707
300.05716
300.05838
300.06958
300.06862
300.0686
300.06977
300.07267
300.08635
300.08296
300.08152
300.08139
300.0815
300.09433
300.09547
300.09584
300.09762
300.10156
300.11818
300.11371
300.11156
300.11087
300.10796
300.12211
300.12743
300.12854
300.13115
300.13619
300.15511
300.14956
300.14646
300.14483
300.13644
300.15045
300.16268
300.16498
300.16861
300.17465
300.19412
300.18769
300.1835
300.18042
300.16359
300.17521
300.19733
300.20131
300.20607
300.21273
300.22946
300.22278
300.2175
300.21254
300.18455
300.19041
300.22492
300.23096
300.23673
300.24321
300.25306
300.24695
300.24077
300.23365
300.19271
300.19144
300.23822
300.24628
300.2527
300.25812
300.25788
300.25335
300.24687
300.23799
300.18634
300.17592
300.23193
300.24145
300.24772
300.25079
300.2359
300.23449
300.22861
300.21849
300.15877
300.13504
300.19704
300.20742
300.21259
300.21176
300.17857
300.18178
300.17772
300.16757
300.10674
300.07411
300.13043
300.13962
300.14205
300.1358
300.08474
300.09401
300.09361
300.08588
300.03779
299.99915
300.03547
300.04098
300.03887
300.02606
299.96341
299.97939
299.98419
299.98134
299.95992
299.92209
299.92731
299.92717
299.91984
299.90121
299.85011
299.86845
299.87694
299.87934
299.888
299.85958
299.84575
299.84294
299.836
299.82369
299.83392
299.8343
299.8355
299.83554
299.83839
299.8267
299.85819
299.86539
299.87526
299.89564
299.9839
299.94777
299.92624
299.90875
299.82079
299.80534
299.94927
299.97584
300.0046
300.0394
300.05307
300.0156
299.98188
299.95063
299.78464
299.80914
299.93682
299.96459
299.99784
300.04576
300.04951
300.00306
299.96582
299.92937
299.71277
299.70783
299.84796
299.87337
299.90349
299.94676
300.1719
300.1217
300.08568
300.05431
299.83412
299.6875
299.7815
299.80227
299.82308
299.85083
299.72034
299.71409
299.71686
299.72299
299.72534
299.89149
299.85178
299.81984
299.79605
299.70741
299.79107
300.02404
300.05552
300.08592
300.11874
300.22032
300.15762
300.10705
300.06184
299.80364
299.7932
300.02792
300.06896
300.1174
300.18685
299.90479
299.86675
299.84308
299.82427
299.71358
299.75283
299.98987
300.03105
300.07393
300.12907
300.03556
299.98862
299.95728
299.93076
299.80903
299.79918
299.97039
300.00074
300.03163
300.06084
300.04646
300.01044
299.98265
299.95729
299.81708
299.82619
299.9051
299.92074
299.94071
299.97549
299.8798
299.86241
299.85471
299.84963
299.82855
299.84002
299.83059
299.82909
299.82527
299.81892
299.82087
299.83305
299.84049
299.84374
299.86064
299.88961
299.87902
299.87636
299.86738
299.84816
299.90138
299.92052
299.92811
299.92828
299.9242
299.96322
299.98414
299.98677
299.98141
299.96427
300.0298
300.04335
300.0457
300.04011
300.00325
300.04284
300.09212
300.09979
300.09976
300.08942
300.14265
300.14929
300.1469
300.13749
300.07957
300.11262
300.17515
300.18529
300.18913
300.18527
300.21935
300.2203
300.21507
300.20452
300.14088
300.16452
300.22579
300.2359
300.24167
300.24271
300.25774
300.25465
300.24829
300.23866
300.1814
300.19126
300.24419
300.25305
300.25948
300.26385
300.26385
300.25834
300.25183
300.24372
300.196
300.19693
300.23846
300.24551
300.25167
300.25778
300.24722
300.2406
300.23478
300.22878
300.19393
300.18716
300.21556
300.22048
300.22578
300.23255
300.21517
300.20842
300.20363
300.19969
300.1773
300.16528
300.18228
300.18533
300.18953
300.19603
300.1761
300.16998
300.16634
300.16408
300.15172
300.13738
300.14588
300.1475
300.15062
300.15627
300.13694
300.13184
300.12923
300.12815
300.12277
300.1084
300.11138
300.11206
300.11425
300.11881
300.10192
300.09793
300.09615
300.09579
300.09461
300.08167
300.08161
300.08175
300.08322
300.08669
300.07286
300.06992
300.06874
300.06877
300.06965
300.05828
300.05717
300.05709
300.05808
300.06063
300.06171
300.05909
300.05803
300.05804
300.0587
300.0698
300.06962
300.06971
300.071
300.07407
300.08812
300.08452
300.08292
300.08267
300.08174
300.09465
300.09714
300.09765
300.09961
300.10379
300.12095
300.11621
300.11385
300.11302
300.10838
300.12267
300.13019
300.13147
300.1343
300.13967
300.15942
300.1535
300.15015
300.14834
300.13717
300.15139
300.16709
300.16958
300.1735
300.17996
300.20048
300.19362
300.18912
300.18584
300.16476
300.17663
300.20394
300.20814
300.21323
300.22038
300.23855
300.23133
300.22568
300.22046
300.18621
300.19275
300.23445
300.24075
300.2469
300.25397
300.26558
300.25882
300.25223
300.24481
300.19545
300.19442
300.25085
300.25927
300.26607
300.27186
300.27267
300.26796
300.26115
300.25187
300.18954
300.17965
300.24716
300.25715
300.26392
300.26778
300.25328
300.2516
300.24536
300.23477
300.16294
300.13942
300.21386
300.22467
300.23006
300.22919
300.195
300.19859
300.19447
300.1839
300.11117
300.0786
300.14531
300.15478
300.15696
300.14975
300.09451
300.1053
300.10552
300.09773
300.0422
300.00353
300.04327
300.04847
300.04536
300.03055
299.96278
299.98067
299.98661
299.98432
299.96412
299.92641
299.92679
299.92596
299.91759
299.89752
299.84606
299.86512
299.87417
299.87714
299.89239
299.86434
299.84431
299.84117
299.83417
299.82241
299.83056
299.83263
299.83483
299.8356
299.84331
299.83133
299.8635
299.87
299.87939
299.89904
299.99777
299.96168
299.94043
299.92357
299.82552
299.813
299.98075
300.00712
300.03599
300.07375
300.10228
300.06851
300.03395
300.00115
299.7945
299.80628
299.95823
299.98545
300.01504
300.05401
300.17976
300.11946
300.07233
300.02698
299.72949
299.72605
299.87597
299.90013
299.9307
299.98016
300.23979
300.17869
300.13494
300.09408
299.79325
299.69119
299.73192
299.73792
299.75387
299.79571
299.92136
299.9164
299.90385
299.88773
299.77422
299.77439
300.02345
300.06627
300.11297
300.17633
300.00298
299.95316
299.91561
299.88173
299.69173
299.82357
299.99235
300.0251
300.06017
300.10507
300.09608
300.04763
300.00727
299.97235
299.79265
299.81104
299.96422
299.99268
300.02398
300.06339
299.99341
299.95642
299.93425
299.91633
299.82587
299.83129
299.86381
299.87112
299.88109
299.90148
299.83715
299.83858
299.84001
299.83998
299.84183
299.86232
299.84933
299.84671
299.84009
299.82847
299.85381
299.87137
299.87955
299.88184
299.89024
299.92405
299.9292
299.92904
299.92162
299.90298
299.96509
299.98131
299.98611
299.98321
299.96171
300.00104
300.03785
300.04335
300.04102
300.02771
300.0876
300.09716
300.0967
300.08879
300.03985
300.0765
300.13395
300.14326
300.14557
300.13892
300.18285
300.18621
300.182
300.17159
300.10946
300.13814
300.20155
300.21208
300.21722
300.21613
300.24105
300.23967
300.23359
300.2232
300.16209
300.17929
300.23668
300.24639
300.25274
300.25575
300.26305
300.25843
300.25174
300.24261
300.18969
300.19477
300.2427
300.25094
300.25747
300.26294
300.25781
300.25156
300.2452
300.2379
300.19598
300.19358
300.22891
300.23508
300.24095
300.24752
300.23357
300.22674
300.22133
300.21624
300.18758
300.17807
300.20072
300.20478
300.20963
300.21641
300.19747
300.1909
300.18661
300.18346
300.16624
300.15286
300.16538
300.16773
300.17144
300.17763
300.15775
300.15205
300.14888
300.14721
300.13861
300.12403
300.12944
300.13058
300.13326
300.13843
300.12013
300.11552
300.11332
300.11262
300.10963
300.09578
300.09692
300.09731
300.09914
300.10319
300.08776
300.08425
300.08277
300.08264
300.08276
300.07073
300.0697
300.06968
300.07087
300.07387
300.06173
300.05914
300.05816
300.05828
300.05965
300.05849
300.05717
300.05707
300.05803
300.06054
300.0727
300.06981
300.06866
300.06869
300.06971
300.08166
300.08145
300.08159
300.08303
300.08644
300.10161
300.09769
300.09592
300.09557
300.09451
300.10816
300.11099
300.11168
300.11384
300.11833
300.13629
300.13127
300.12868
300.12759
300.12234
300.13669
300.14501
300.14665
300.14974
300.15531
300.17482
300.16878
300.16516
300.16287
300.15071
300.16386
300.18062
300.18369
300.18788
300.19429
300.21288
300.20623
300.20149
300.19752
300.17546
300.1848
300.21278
300.21773
300.223
300.22965
300.24336
300.23688
300.23112
300.22508
300.19065
300.19295
300.23388
300.24097
300.24712
300.25315
300.25822
300.25277
300.24635
300.23828
300.19163
300.18652
300.23817
300.247
300.25342
300.25781
300.25076
300.24764
300.24138
300.23184
300.17601
300.15877
300.21851
300.22856
300.23436
300.23555
300.21139
300.21219
300.20707
300.1967
300.13495
300.10663
300.16731
300.17733
300.18126
300.17776
300.13503
300.14124
300.13889
300.12971
300.07387
300.03749
300.0853
300.09287
300.09309
300.08346
300.02484
300.03766
300.03987
300.03442
299.99865
299.95942
299.9804
299.98305
299.97806
299.9617
299.8993
299.91813
299.92562
299.92584
299.92142
299.88731
299.87744
299.87478
299.86588
299.84667
299.81999
299.83151
299.83885
299.84215
299.85875
299.83771
299.8295
299.82819
299.8249
299.81968
299.88301
299.86464
299.85624
299.85036
299.82536
299.81993
299.90042
299.91637
299.93601
299.96926
300.02204
299.99028
299.96438
299.93986
299.80495
299.78179
299.93331
299.96153
299.99123
300.02019
299.99645
299.94789
299.91861
299.89548
299.79587
299.72831
299.95071
299.98731
300.02238
300.05963
299.78289
299.75452
299.73657
299.72351
299.64217
299.85632
300.1411
300.18366
300.2289
300.28341
299.7269
299.68928
299.69687
299.80455
300.03416
300.06359
300.09482
300.1338
300.02633
299.96426
299.92809
299.90068
299.74167
299.86776
299.85468
299.84356
299.83475
299.78136
299.84416
299.94241
299.97306
300.00764
300.05615
300.38297
300.30021
300.23309
300.17042
299.93406
299.80716
300.03327
300.08412
300.14223
300.22077
299.75085
299.69633
299.68402
299.70464
299.99335
299.99591
299.98541
299.99335
299.99841
299.9904
299.98857
299.99554
300.05972
300.05725
300.0563
300.05639
300.05748
300.06873
300.06789
300.06788
300.06902
300.07189
300.08546
300.08211
300.08069
300.08056
300.08059
300.09336
300.09457
300.09493
300.09669
300.10058
300.11713
300.11272
300.11058
300.10992
300.10697
300.12113
300.12645
300.12752
300.13009
300.13507
300.154
300.14851
300.14547
300.14388
300.13551
300.14964
300.16178
300.16401
300.16758
300.17356
300.1931
300.18675
300.18264
300.17965
300.16298
300.17484
300.19675
300.20062
300.2053
300.21191
300.22897
300.22232
300.21712
300.2123
300.18451
300.19121
300.22527
300.23114
300.23682
300.24329
300.25379
300.24773
300.24167
300.23474
300.19411
300.1932
300.23983
300.24772
300.25404
300.25941
300.25975
300.25531
300.24895
300.24023
300.18851
300.17882
300.23474
300.24409
300.25024
300.25321
300.23895
300.23767
300.23194
300.222
300.16212
300.13897
300.2011
300.21131
300.21634
300.21534
300.18251
300.18598
300.18212
300.17214
300.11106
300.07857
300.13508
300.14414
300.14634
300.13972
300.08815
300.09797
300.09788
300.09029
300.04206
300.00301
300.03886
300.04418
300.04168
300.02814
299.96394
299.98072
299.98599
299.98339
299.96306
299.92455
299.92795
299.92754
299.91974
299.90038
299.84867
299.86753
299.87638
299.879
299.88965
299.86101
299.84478
299.84167
299.83462
299.82276
299.82537
299.82891
299.83161
299.83248
299.83932
299.82691
299.85043
299.85594
299.86354
299.8799
299.96004
299.9304
299.91246
299.89771
299.82181
299.80966
299.93562
299.95841
299.98291
300.01186
300.03351
300.00064
299.97186
299.94499
299.79702
299.83841
299.95862
299.98285
300.00874
300.03951
299.98484
299.93301
299.89922
299.87079
299.70544
299.83314
300.05602
300.09402
300.13678
300.20019
299.98076
299.94075
299.9131
299.89017
299.74776
300.1386
300.1853
300.23686
300.30633
300.52043
300.41719
300.33785
300.26785
299.83967
299.83319
300.11074
300.16655
300.2234
300.29916
299.94265
299.87206
299.82905
299.79856
299.66602
299.68634
299.97646
300.02809
300.091
300.17523
299.96854
299.92973
299.9029
299.88058
299.74202
299.82952
300.05224
300.09011
300.13265
300.19575
299.98247
299.9312
299.89743
299.86881
299.70317
299.837
299.95871
299.98311
300.00903
300.03961
300.03703
300.00414
299.97508
299.94776
299.79702
299.81027
299.93945
299.96275
299.98768
300.01703
299.96421
299.93387
299.91547
299.90036
299.82252
299.82769
299.85166
299.85725
299.86498
299.88173
299.82512
299.8282
299.83087
299.83188
299.83979
299.8615
299.84418
299.84078
299.83325
299.82036
299.84787
299.86727
299.87636
299.87909
299.89038
299.92573
299.9294
299.92894
299.92085
299.90086
299.96668
299.98386
299.98909
299.98627
299.96487
300.00556
300.0433
300.04884
300.04625
300.03224
300.09424
300.10423
300.10388
300.09583
300.0452
300.08234
300.14177
300.15125
300.15357
300.14673
300.19104
300.19445
300.19016
300.17959
300.11539
300.14395
300.20927
300.21993
300.22517
300.22414
300.24852
300.24703
300.24086
300.23037
300.16758
300.18438
300.24317
300.25294
300.25937
300.2625
300.26911
300.26435
300.25757
300.24837
300.19407
300.19883
300.24782
300.25606
300.26266
300.26828
300.26229
300.25588
300.24947
300.24218
300.19959
300.19647
300.23224
300.23837
300.24431
300.25108
300.23619
300.22918
300.22369
300.21861
300.18942
300.17938
300.20243
300.20648
300.21139
300.21831
300.19877
300.1921
300.18777
300.18463
300.1671
300.15336
300.16613
300.16848
300.17222
300.17848
300.15822
300.15246
300.14928
300.14761
300.13879
300.12401
300.12964
300.13078
300.13347
300.1387
300.12019
300.11556
300.11333
300.11263
300.10946
300.09553
300.09686
300.09726
300.09911
300.10318
300.08764
300.08413
300.08264
300.08249
300.08246
300.07044
300.06959
300.0696
300.07081
300.07383
300.06142
300.05891
300.05796
300.05809
300.05952
300.04968
300.04822
300.04809
300.04892
300.05109
300.05853
300.05717
300.05707
300.05801
300.06051
300.07246
300.06959
300.06845
300.06849
300.06953
300.08138
300.08121
300.08135
300.08278
300.08618
300.10125
300.09735
300.09559
300.09524
300.09415
300.10774
300.11061
300.11129
300.11344
300.1179
300.13572
300.13074
300.12817
300.12707
300.12184
300.13612
300.14439
300.14602
300.14908
300.15461
300.17394
300.16798
300.16439
300.16212
300.15006
300.16314
300.17972
300.18276
300.18691
300.19326
300.21166
300.20511
300.20042
300.19649
300.17466
300.18394
300.21155
300.21645
300.22167
300.22824
300.24183
300.23545
300.22977
300.2238
300.18978
300.1921
300.23237
300.23938
300.24544
300.25138
300.25637
300.25106
300.24476
300.2368
300.19081
300.1858
300.23646
300.24516
300.25148
300.25575
300.24876
300.2458
300.23968
300.23031
300.17542
300.15838
300.21688
300.22677
300.23245
300.23355
300.20979
300.21068
300.20569
300.1955
300.13478
300.10678
300.16624
300.1761
300.17996
300.17645
300.13448
300.14069
300.1384
300.12936
300.07433
300.03848
300.08541
300.09288
300.09311
300.0836
300.02628
300.0389
300.04104
300.03562
300.00012
299.96154
299.98246
299.98518
299.9804
299.96452
299.90488
299.92271
299.92972
299.92968
299.9241
299.89086
299.88327
299.88106
299.87301
299.85565
299.83073
299.84228
299.84874
299.85109
299.86272
299.84261
299.84194
299.84223
299.8413
299.84075
299.90207
299.88201
299.87207
299.86466
299.83162
299.827
299.91626
299.93396
299.95587
299.99251
300.06216
300.02297
299.99187
299.96364
299.81185
299.79497
299.97247
300.00697
300.04707
300.09572
300.10807
300.06269
300.02734
299.99451
299.82569
299.69487
299.88737
299.92163
299.95958
300.00991
300.18353
300.12025
300.0736
300.03082
299.78185
299.78225
299.89529
299.91134
299.92395
299.92927
299.80443
299.7614
299.74519
299.73926
299.69934
299.801
300.10138
300.14215
300.18588
300.247
300.19726
300.12758
300.07907
300.03792
299.80249
299.82553
300.07855
300.1228
300.17564
300.25487
300.36898
300.29897
300.24739
300.19981
299.85008
299.85874
300.14449
300.18723
300.23279
300.28818
300.16739
300.11828
300.08283
300.05198
299.83489
299.80537
300.03461
300.06398
300.09503
300.13414
300.00909
299.95341
299.91992
299.89379
299.74101
299.82067
300.05275
300.09383
300.14048
300.20768
300.00519
299.94975
299.91323
299.88152
299.70155
299.83765
299.96538
299.99075
300.0182
300.05237
300.0393
300.00496
299.97509
299.94736
299.79516
299.80922
299.93729
299.96041
299.98511
300.01434
299.95991
299.93024
299.91233
299.89763
299.82189
299.82741
299.84829
299.85328
299.86049
299.87669
299.81849
299.82433
299.82799
299.82953
299.83951
299.86134
299.84306
299.83951
299.8318
299.81963
299.84736
299.86691
299.87603
299.87878
299.89018
299.92559
299.92922
299.92879
299.92076
299.90082
299.96647
299.9836
299.98882
299.98601
299.96465
300.00534
300.04295
300.04847
300.04588
300.03189
300.09387
300.10387
300.10353
300.0955
300.04496
300.08214
300.14146
300.15092
300.15323
300.14637
300.19072
300.19415
300.18988
300.17933
300.11521
300.14378
300.20898
300.21964
300.22488
300.22385
300.24824
300.24676
300.2406
300.23013
300.1674
300.18417
300.24286
300.25265
300.2591
300.26227
300.26883
300.26407
300.25729
300.2481
300.19381
300.19857
300.24748
300.25575
300.26237
300.268
300.26203
300.25562
300.24921
300.24192
300.19931
300.19624
300.23201
300.23816
300.2441
300.25086
300.23599
300.229
300.22352
300.21844
300.18923
300.17923
300.20231
300.20637
300.21127
300.21818
300.19868
300.19201
300.18769
300.18454
300.16698
300.15326
300.16609
300.16845
300.1722
300.17847
300.1582
300.15244
300.14925
300.14758
300.13871
300.12395
300.12963
300.13078
300.13348
300.1387
300.1202
300.11557
300.11334
300.11263
300.10942
300.09549
300.09687
300.09727
300.09912
300.1032
300.08766
300.08414
300.08265
300.0825
300.08243
300.07044
300.06964
300.06965
300.07087
300.0739
300.06151
300.05897
300.05801
300.05813
300.05952
300.04965
300.04815
300.048
300.04879
300.05097
300.05753
300.05647
300.0564
300.05738
300.05988
300.07195
300.06908
300.06793
300.06795
300.06879
300.08068
300.08064
300.08079
300.08224
300.08562
300.10067
300.09678
300.09502
300.09467
300.09347
300.10709
300.11006
300.11074
300.11289
300.11735
300.13526
300.13026
300.12769
300.12661
300.12127
300.13568
300.14411
300.14572
300.14879
300.15434
300.17394
300.16792
300.16433
300.16208
300.14984
300.16321
300.18004
300.18306
300.18722
300.19364
300.21247
300.20581
300.2011
300.19721
300.17509
300.18481
300.21289
300.21776
300.22301
300.22971
300.24409
300.23754
300.23181
300.22589
300.19151
300.19443
300.23548
300.24245
300.24858
300.25468
300.26044
300.25493
300.24854
300.24056
300.19349
300.18881
300.24112
300.24989
300.25631
300.26076
300.25444
300.25127
300.24501
300.23554
300.17905
300.16236
300.22298
300.233
300.23882
300.2401
300.21672
300.21746
300.21231
300.20194
300.13907
300.11116
300.17313
300.18321
300.18718
300.1837
300.14104
300.14738
300.14505
300.1358
300.07851
300.04205
300.09109
300.09874
300.09889
300.08896
300.02902
300.04234
300.04474
300.03927
300.00282
299.96294
299.98387
299.98648
299.98123
299.96433
299.90075
299.91986
299.92755
299.92783
299.9241
299.88934
299.87883
299.87618
299.8673
299.84831
299.82162
299.83317
299.84042
299.8436
299.86035
299.83894
299.83048
299.82919
299.82575
299.82025
299.87448
299.85889
299.85186
299.84688
299.82599
299.82094
299.89367
299.90778
299.9249
299.95323
300.00312
299.97566
299.95215
299.93009
299.80756
299.79461
299.93893
299.96522
299.99362
300.02619
300.04118
300.00799
299.98165
299.95748
299.83646
299.70348
299.87882
299.90952
299.94531
300.00074
300.20798
300.14042
300.09414
300.05364
299.8251
299.75645
300.00025
300.03644
300.07641
300.13212
300.14613
300.08411
300.03606
299.99124
299.70812
299.8142
299.97989
300.01
300.04573
300.09739
300.08796
300.04826
300.0143
299.98322
299.78919
299.80563
299.9612
299.98595
300.01324
300.04826
299.98099
299.94847
299.9289
299.91308
299.82055
299.82769
299.85839
299.8646
299.87331
299.89155
299.82681
299.82974
299.8322
299.83301
299.8407
299.86246
299.84258
299.83951
299.83265
299.82169
299.84449
299.86365
299.87266
299.8756
299.89082
299.92503
299.92509
299.92419
299.91568
299.89534
299.96114
299.97914
299.98504
299.98275
299.9628
300.00208
300.04128
300.04637
300.04307
300.02801
300.09228
300.10316
300.10332
300.09554
300.04049
300.0766
300.1426
300.15194
300.15392
300.14647
300.19188
300.19556
300.19141
300.18088
300.10879
300.1367
300.21037
300.22104
300.22623
300.22512
300.24941
300.24784
300.2416
300.23107
300.15998
300.1766
300.24334
300.25316
300.25971
300.26318
300.26872
300.26407
300.2573
300.24811
300.18651
300.19143
300.24717
300.25545
300.26208
300.26769
300.26177
300.25518
300.24865
300.2413
300.19251
300.18993
300.23112
300.23732
300.24336
300.25026
300.23526
300.22813
300.22254
300.21737
300.18353
300.17409
300.20106
300.20521
300.21022
300.21727
300.19776
300.19096
300.18651
300.18326
300.16241
300.14925
300.16474
300.16721
300.17107
300.17747
300.15727
300.15138
300.14808
300.14628
300.13525
300.12099
300.12839
300.12965
300.13246
300.13778
300.1194
300.11467
300.11233
300.11151
300.10692
300.0934
300.09584
300.09634
300.09829
300.10243
300.08703
300.08344
300.08186
300.08161
300.08066
300.06882
300.06869
300.06879
300.07008
300.07313
300.06088
300.05822
300.05715
300.05714
300.05762
300.05751
300.05693
300.05694
300.05799
300.06059
300.07274
300.06975
300.0685
300.06843
300.06864
300.08044
300.08128
300.08154
300.0831
300.08663
300.10191
300.09785
300.09595
300.09548
300.09312
300.10662
300.11108
300.11189
300.1142
300.11885
300.13704
300.13183
300.12908
300.12786
300.12062
300.13484
300.14565
300.14741
300.15067
300.15645
300.17642
300.17015
300.16636
300.16395
300.14875
300.16185
300.18231
300.1855
300.18986
300.19654
300.21588
300.20895
300.20401
300.19994
300.17341
300.1828
300.21608
300.22114
300.22662
300.23361
300.24854
300.24169
300.23573
300.22961
300.18912
300.19173
300.23969
300.24686
300.25322
300.25968
300.26556
300.26003
300.25349
300.24533
300.19063
300.18585
300.2463
300.25521
300.26173
300.26612
300.26116
300.25746
300.25096
300.24127
300.17595
300.15945
300.22913
300.23932
300.24526
300.2466
300.22312
300.224
300.21884
300.20832
300.1363
300.10872
300.17923
300.18934
300.19316
300.18924
300.14503
300.15213
300.15012
300.1409
300.07654
300.04082
300.09456
300.10194
300.10147
300.09041
300.0277
300.04229
300.04548
300.04043
300.00244
299.96368
299.98276
299.98476
299.97867
299.96062
299.89629
299.91611
299.92445
299.92532
299.92595
299.8922
299.87609
299.87295
299.86371
299.84446
299.82004
299.83115
299.83848
299.8419
299.86359
299.84238
299.83129
299.82985
299.8264
299.82067
299.88352
299.86695
299.85931
299.85407
299.82898
299.82284
299.90994
299.92488
299.94358
299.97527
300.04869
300.01261
299.9858
299.96157
299.80897
299.79695
299.99194
300.02319
300.05714
300.094
300.09117
300.03912
300.00404
299.97471
299.81601
299.72931
300.05024
300.10082
300.15534
300.22593
300.08257
300.03722
300.00317
299.97333
299.76411
299.79723
300.07366
300.11041
300.15119
300.21265
299.91086
299.88061