/*--------------------------------*- C++ -*----------------------------------*\
  =========                 |
  \\      /  F ield         | OpenFOAM: The Open Source CFD Toolbox
   \\    /   O peration     | Website:  https://openfoam.org
    \\  /    A nd           | Version:  7
     \\/     M anipulation  |
\*---------------------------------------------------------------------------*/
FoamFile
{
    version     2.0;
    format      ascii;
    class       volVectorField;
    location    "60";
    object      U;
}
// * * * * * * * * * * * * * * * * * * * * * * * * * * * * * * * * * * * * * //

dimensions      [0 1 -1 0 0 0 0];

internalField   nonuniform List<vector> 
24789
(
(105.91681 0.00045568579 -0.00017277936)
(112.69674 0.00051570963 3.5232397e-05)
(114.87878 0.0006254064 0.00024467684)
(115.90126 0.00072523607 0.00041618088)
(119.34818 0.00077353247 0.00094163653)
(119.34919 0.00032560615 0.00032892424)
(115.90348 0.00051658475 -0.00032137428)
(114.88106 0.00055485807 -0.00041916341)
(112.69882 0.00057818769 -0.000498177)
(105.91655 0.00059129586 -0.00056065818)
(105.91743 -8.5157966e-05 0.0001553498)
(112.6999 -7.9065935e-05 0.00016277877)
(114.88246 -7.1984701e-05 0.0001704782)
(115.90473 -6.0450596e-05 0.00018207228)
(119.3504 4.4504392e-05 0.00027535872)
(119.35217 -0.00016856438 0.0001355112)
(115.90707 -4.893343e-05 4.3692385e-06)
(114.88472 -2.4299385e-05 -1.3340099e-05)
(112.70212 -1.3681014e-06 -1.7787508e-05)
(105.91873 6.664109e-06 -1.7084576e-05)
(105.92227 -0.00010602487 9.6769807e-05)
(112.70533 -0.00011245535 6.9319157e-05)
(114.888 -0.00014071588 4.9256733e-05)
(115.91005 -0.00017589573 4.4805904e-05)
(119.35454 -0.00040877928 1.5827828e-05)
(119.35767 -0.00065093586 -0.00014071067)
(115.91374 -0.00023818485 1.8348951e-05)
(114.89165 -0.00018751014 3.5793917e-05)
(112.70906 -0.00014857074 6.846944e-05)
(105.92552 -0.00013553294 0.00010828962)
(105.93093 -0.00018126344 0.00014220263)
(112.71387 -0.00020286278 8.9498464e-05)
(114.8965 -0.00025345253 4.1652269e-05)
(115.91829 -0.0003198021 5.9867251e-06)
(119.36169 -0.00092925484 -0.00032245942)
(119.36675 -0.0012407731 -0.00055505652)
(115.92377 -0.00038870667 -4.8352439e-05)
(114.90193 -0.00030255889 5.5561638e-06)
(112.71947 -0.00023643628 6.832651e-05)
(105.93643 -0.00020624486 0.00013322062)
(105.94443 -0.00022346848 8.9159474e-05)
(112.72646 -0.0002709601 5.3328139e-06)
(114.90886 -0.00035608921 -7.3615355e-05)
(115.93042 -0.00046732951 -0.00014704465)
(119.373 -0.0016032951 -0.00085059137)
(119.38062 -0.0020285435 -0.0011791231)
(115.93833 -0.00054369598 -0.00022550353)
(114.91672 -0.00040073991 -0.00012748341)
(112.73457 -0.0002907595 -2.8496913e-05)
(105.95285 -0.00022643686 7.0943247e-05)
(105.96429 -0.00020454587 -1.7567885e-05)
(112.74447 -0.00029315597 -0.00013201077)
(114.92644 -0.00043294089 -0.00024853425)
(115.94775 -0.00061458201 -0.00037095936)
(119.38976 -0.0025218622 -0.0015838126)
(119.40065 -0.0030872427 -0.0020591114)
(115.95881 -0.0006951559 -0.00053918482)
(114.93744 -0.00047050808 -0.00038800412)
(112.75583 -0.0002980494 -0.00024844268)
(105.97652 -0.00018561071 -0.0001120779)
(105.99229 -0.00017211558 -0.00020813735)
(112.76938 -0.00031068488 -0.00037305368)
(114.95065 -0.0005188133 -0.00054043866)
(115.97172 -0.00079296327 -0.00072641548)
(119.41341 -0.0037365242 -0.0026043982)
(119.42828 -0.0045004491 -0.0032268526)
(115.98664 -0.00092740828 -0.00094082039)
(114.96551 -0.00059266482 -0.0007128412)
(112.78474 -0.00033936836 -0.00050897005)
(106.00925 -0.00016949372 -0.00030746123)
(106.03031 -0.00017357309 -0.00041066046)
(112.8028 -0.00038467319 -0.00065707674)
(114.98306 -0.00069565703 -0.000907313)
(116.00387 -0.0011053812 -0.0011879648)
(119.44541 -0.0053797373 -0.0039294642)
(119.46501 -0.0063574778 -0.0047066021)
(116.02371 -0.0013319647 -0.0014589284)
(115.00288 -0.00083630753 -0.0011143856)
(112.82334 -0.00045437254 -0.00080687614)
(106.05332 -0.00019267548 -0.00050920132)
(106.081 -0.00023457507 -0.00057099855)
(112.84719 -0.00054629948 -0.00092477358)
(115.02601 -0.00099975991 -0.0012935331)
(116.04646 -0.0015836341 -0.0017068889)
(119.48719 -0.0073778642 -0.0054879523)
(119.51212 -0.0084170748 -0.0062259313)
(116.07228 -0.0018238322 -0.0019285066)
(115.05193 -0.0011516318 -0.0014510929)
(112.87403 -0.00062993576 -0.0010209484)
(106.11117 -0.0002816805 -0.00061184659)
(106.14611 -0.00031452364 -0.00072187566)
(112.90431 -0.00071127004 -0.001192508)
(115.08131 -0.0013069797 -0.0016812049)
(116.1012 -0.0020767439 -0.0022166154)
(119.53985 -0.0095048023 -0.0069532827)
(119.57042 -0.010590833 -0.0076428524)
(116.13332 -0.0023234547 -0.002510588)
(115.11364 -0.0014500659 -0.0019159981)
(112.93772 -0.00077364251 -0.0013620857)
(106.18364 -0.00033180291 -0.00082420068)
(106.2255 -0.00031217422 -0.0009533649)
(112.97447 -0.00079904727 -0.0015624841)
(115.14945 -0.0015578199 -0.0021836864)
(116.1686 -0.002540931 -0.0028379016)
(119.6036 -0.011628342 -0.0082935283)
(119.63915 -0.012573162 -0.0088888041)
(116.2067 -0.0027139333 -0.0031541192)
(115.18785 -0.0016323541 -0.0024409236)
(113.01384 -0.0007935773 -0.0017571149)
(106.26906 -0.00026181145 -0.0010951185)
(106.31472 -8.1008066e-05 -0.0013163084)
(113.05523 -0.00068219973 -0.0019695344)
(115.22872 -0.0015971303 -0.0026871218)
(116.24707 -0.0027644629 -0.0034612577)
(119.67682 -0.013358219 -0.0094839753)
(119.71655 -0.013793006 -0.0099051385)
(116.28843 -0.00245193 -0.0036743439)
(115.27002 -0.0012482164 -0.0028921116)
(113.09616 -0.00028528392 -0.00222581)
(106.35681 0.0004157618 -0.001747706)
(106.38913 0.0016498948 -0.0027652222)
(113.13093 0.0008732362 -0.0027296298)
(115.30771 -3.3468771e-05 -0.0030860293)
(116.327 -0.0011496608 -0.0037084604)
(119.7588 -0.013633832 -0.0099769556)
(119.8064 -0.013269657 -0.010005547)
(116.35455 0.0018656054 -0.0035251098)
(115.3312 0.0026417282 -0.0033901263)
(113.14706 0.0031647205 -0.0037245824)
(106.39612 0.0036383968 -0.0043859991)
(106.36538 0.0051739753 -0.0056104067)
(113.12622 0.0057651706 -0.0047750691)
(115.32398 0.0062773531 -0.0036598517)
(116.35718 0.0061429782 -0.0030655229)
(119.86575 -0.015096633 -0.011524241)
(119.94969 -0.02610468 -0.018079932)
(116.32474 0.0069096512 -0.0014568869)
(115.27219 0.0065061207 -0.0021387895)
(113.05712 0.0039685672 -0.0023312181)
(106.29769 -0.00058438258 0.00071735566)
(106.26083 -0.021946462 0.023138765)
(112.98319 -0.011744454 0.010520531)
(115.20869 -0.0068761647 0.0053593486)
(116.28854 -0.0067626327 0.0030430846)
(120.09003 -0.054712461 -0.035264007)
(120.32885 -0.10917998 -0.067421118)
(116.34764 -0.047875794 0.013810796)
(115.24299 -0.045512558 0.024942787)
(113.0325 -0.051136543 0.041007285)
(106.41471 -0.064638222 0.068798922)
(106.8698 -0.1214789 0.13434885)
(113.34656 -0.1198429 0.084640127)
(115.51189 -0.12459968 0.051414971)
(116.61563 -0.14010185 0.021051845)
(120.62232 -0.24218981 -0.14346457)
(121.31048 -0.53373215 -0.28748627)
(117.66032 -0.29742961 0.012331611)
(116.61953 -0.24918139 0.072622473)
(114.53021 -0.20466153 0.13157071)
(107.95595 -0.18615735 0.19401461)
(111.47388 -0.39970204 0.074726827)
(117.90979 -0.27126388 0.30486692)
(119.76836 -0.34503162 0.22816878)
(120.56564 -0.40541222 0.14110095)
(122.77543 -0.88338625 -0.4564009)
(123.43121 -2.7573765 -1.8369496)
(121.56092 -3.4049134 -1.9084557)
(120.85431 -3.4739031 -1.8883701)
(119.16263 -3.4627652 -1.8517575)
(113.12636 -3.4377327 -1.9404094)
(112.18182 -3.4670717 -4.6662271)
(118.23968 -3.5065234 -4.5816076)
(119.98912 -3.6984176 -4.4975616)
(120.76063 -3.7667198 -4.3329508)
(123.06869 -3.8175876 -3.1086186)
(122.98372 -5.2047902 -4.2036397)
(121.03631 -5.8554441 -5.2109045)
(120.32316 -5.860494 -5.3010896)
(118.64258 -5.7296298 -5.3086583)
(112.59028 -5.5933226 -5.3302327)
(112.35142 -7.3922917 -6.4794346)
(117.95849 -7.5879509 -6.3385475)
(119.57628 -7.6994643 -6.2551481)
(120.27378 -7.683145 -6.1075328)
(122.2458 -6.8548143 -4.7811851)
(123.10382 -5.5989921 -3.0492348)
(120.62898 -6.1815441 -4.1124441)
(119.89199 -6.2094558 -4.2746491)
(118.19912 -6.065874 -4.4106343)
(112.24502 -6.1880561 -4.7157692)
(111.91872 -5.6013062 -2.2269476)
(117.93091 -5.7590665 -2.1530553)
(119.67205 -5.750115 -2.1183548)
(120.44421 -5.6061956 -2.0808453)
(123.08402 -4.4076071 -1.9094571)
(123.34363 -2.6559166 -1.1959833)
(121.11194 -2.5639241 -0.87852092)
(120.37134 -2.5127345 -0.82091247)
(118.58634 -2.4013158 -0.7639164)
(112.30658 -2.7254074 -0.94913441)
(109.83814 0.0043348552 -0.12422224)
(116.51249 0.020809915 -0.12448768)
(118.52118 -0.091162897 -0.17484177)
(119.42063 -0.19371421 -0.21666898)
(122.56074 -1.0242914 -0.56744376)
(121.22853 -0.53880596 -0.29977459)
(116.9562 -0.17596229 -0.13248161)
(115.89845 -0.11249403 -0.10260503)
(113.75242 -0.0680427 -0.059543732)
(107.11481 -0.037502512 0.0062680029)
(106.16246 -0.0056659588 -0.039927434)
(112.75307 -0.013870224 -0.069977467)
(114.95578 -0.030236649 -0.082142562)
(116.05613 -0.056290751 -0.088032091)
(120.63609 -0.24883598 -0.12665502)
(120.37168 -0.11370153 -0.050079263)
(115.84529 -0.0044722501 -0.043717669)
(114.74918 0.0029967249 -0.046792267)
(112.50865 0.0072207459 -0.05000372)
(105.79173 0.0093279708 -0.047260389)
(105.67568 0.011593736 -0.03496529)
(112.48409 0.010846295 -0.026592498)
(114.73656 0.011012739 -0.02018812)
(115.80933 0.010112908 -0.016380618)
(120.14083 -0.052840369 -0.019409296)
(120.00235 -0.023158485 -0.0050145188)
(115.85497 0.010825803 -0.0038965816)
(114.80634 0.0099872644 -0.0067623064)
(112.56449 0.0086479361 -0.011616974)
(105.72416 0.0087433529 -0.019090459)
(105.79505 0.0049030906 -0.0083562563)
(112.63689 0.004770017 -0.0043971584)
(114.86288 0.0054367318 -0.0018928702)
(115.89426 0.0058689077 -0.00034244302)
(119.91796 -0.014072576 -0.00094205744)
(119.85782 -0.013959506 -0.0015607766)
(115.89861 0.00038022118 0.00013754512)
(114.87656 0.00091496049 -0.00033749416)
(112.66355 0.0012756687 -0.0013491637)
(105.82965 0.0017791843 -0.0032467458)
(105.82612 -9.7967883e-05 -0.00060853135)
(112.65282 -0.00096264766 0.00027128991)
(114.85898 -0.0019078483 0.00050743517)
(115.87687 -0.0029925721 0.00037841548)
(119.80994 -0.015376115 -0.0028735461)
(119.76804 -0.016197633 -0.0038964785)
(115.8432 -0.0044932451 0.00060494901)
(114.82662 -0.0032347997 0.0010346889)
(112.62365 -0.0021462519 0.0012461695)
(105.79841 -0.0012115243 0.00096474703)
(105.75936 -0.0017776943 0.0018758734)
(112.58663 -0.0025967287 0.0017074033)
(114.78932 -0.0036396747 0.0013039997)
(115.80549 -0.0048899396 0.00078452665)
(119.72891 -0.016205871 -0.0042960997)
(119.69176 -0.015599102 -0.0043247002)
(115.76856 -0.0047462089 0.00082814014)
(114.75231 -0.0035794585 0.0013508704)
(112.54934 -0.0026287511 0.0018039765)
(105.71705 -0.0019083851 0.0020933019)
(105.67576 -0.0018452523 0.0020657007)
(112.51305 -0.0024844771 0.0017317066)
(114.71714 -0.0033304991 0.0012754718)
(115.73336 -0.0043889292 0.00077491112)
(119.65663 -0.01458087 -0.0042228804)
(119.62386 -0.013313156 -0.0040758592)
(115.70101 -0.0039287926 0.00063579217)
(114.68462 -0.0029857939 0.0011005348)
(112.47978 -0.0022413378 0.001526455)
(105.63664 -0.001674291 0.0018617218)
(105.60105 -0.0014642527 0.001587555)
(112.44887 -0.0019613746 0.0012721004)
(114.6549 -0.0026076636 0.00089097199)
(115.67124 -0.0034349912 0.00047103817)
(119.59366 -0.011902519 -0.0038642254)
(119.56627 -0.010460636 -0.0035790861)
(115.64467 -0.0029139116 0.00024234413)
(114.62818 -0.0021933203 0.0006018912)
(112.42152 -0.0016357299 0.00093415193)
(105.56865 -0.0012119959 0.0012450049)
(105.53991 -0.001039607 0.0010708729)
(112.39652 -0.0013995818 0.00080202994)
(114.60423 -0.0018757705 0.00051688409)
(115.62065 -0.0024936 0.00020282591)
(119.54166 -0.0091465663 -0.0032013171)
(119.51971 -0.0078898368 -0.0027765324)
(115.59974 -0.0021530228 0.00028452908)
(114.58321 -0.0016412013 0.00056644317)
(112.3751 -0.001244057 0.00080320135)
(105.51454 -0.00093368945 0.0010006587)
(105.49241 -0.00086388678 0.0010136979)
(112.35574 -0.0011204607 0.00086540623)
(114.56471 -0.0014399969 0.00066057724)
(115.58114 -0.0018542422 0.00040743334)
(119.50029 -0.0067066815 -0.002334821)
(119.48327 -0.0056365456 -0.0019096904)
(115.56525 -0.0015898406 0.00048517778)
(114.54873 -0.0012555112 0.00070657107)
(112.33951 -0.0010007065 0.00088906548)
(105.4731 -0.0007982463 0.0010183286)
(105.45659 -0.00072392526 0.0009945002)
(112.32491 -0.0008797164 0.00086691519)
(114.53481 -0.0010817061 0.00070266098)
(115.55123 -0.0013520383 0.00051432279)
(119.46849 -0.004689257 -0.0015138797)
(119.45578 -0.003864527 -0.0011629304)
(115.53944 -0.0011388113 0.00050296666)
(114.5229 -0.00091988172 0.00065795157)
(112.3129 -0.0007591314 0.00080213691)
(105.44225 -0.00064160042 0.00092772304)
(105.43029 -0.00057848859 0.00089684665)
(112.30209 -0.00066539237 0.00077641965)
(114.51262 -0.00079260961 0.0006483075)
(115.52907 -0.00096770419 0.0005181701)
(119.44495 -0.0031513909 -0.00085664342)
(119.43583 -0.0025328425 -0.00061422607)
(115.52057 -0.00080794906 0.00050642095)
(114.504 -0.00066992049 0.00061451119)
(112.29353 -0.00057078529 0.00072621854)
(105.42019 -0.00050900405 0.00083636859)
(105.41201 -0.0004598589 0.00079960715)
(112.28581 -0.00050171904 0.00069550633)
(114.49668 -0.00057619482 0.00059364359)
(115.51318 -0.00068128835 0.00050142895)
(119.42821 -0.001979029 -0.00040791213)
(119.42202 -0.0015009164 -0.00024593364)
(115.50725 -0.00054264961 0.00043390331)
(114.49061 -0.00046293093 0.00050518871)
(112.27992 -0.00040643381 0.00058946206)
(105.4051 -0.00037963316 0.00068173978)
(105.39976 -0.00030768235 0.00056893928)
(112.27455 -0.00032509081 0.00049031913)
(114.48555 -0.00036662864 0.00042307319)
(115.50215 -0.00042399256 0.00037024312)
(119.41697 -0.0010933043 -0.00011324175)
(119.41299 -0.00072754436 1.7887338e-06)
(115.49819 -0.00032227184 0.00032404956)
(114.48141 -0.00028485103 0.00036277093)
(112.27062 -0.00025620933 0.00041436928)
(105.39516 -0.00024700404 0.00047638171)
(105.39187 -0.00020647663 0.00042802979)
(112.26694 -0.00020910233 0.00038315174)
(114.47795 -0.0002252778 0.00034339956)
(115.49469 -0.00024453656 0.00031393868)
(119.40987 -0.00042600265 9.9629595e-05)
(119.40754 -0.00015200005 0.00017874421)
(115.4922 -0.00016662566 0.00029483618)
(114.47528 -0.00016328317 0.00031601149)
(112.26455 -0.00015869347 0.00034648721)
(105.38917 -0.00016454481 0.00038201442)
(105.38756 -0.00014786189 0.00043042043)
(112.26212 -0.00012347417 0.00041302799)
(114.47298 -0.00010380204 0.00039122895)
(115.48986 -7.9908275e-05 0.00037468866)
(119.4058 0.00010574848 0.00028089245)
(119.40458 0.00031980548 0.00033177857)
(115.48932 8.9328275e-05 0.00026187959)
(114.47241 8.0772266e-05 0.00026640799)
(112.26207 7.0932593e-05 0.00027564509)
(105.3877 4.7541679e-05 0.00028116603)
(105.38632 2.9793451e-05 0.00024866401)
(112.25838 0.00012679292 0.00033881686)
(114.46867 0.00033704733 0.0004495402)
(115.48574 0.00052370673 0.00053783197)
(119.40325 0.00088246827 0.00070109749)
(119.40389 -0.00042365923 0.0011634116)
(115.48875 -0.00052184432 0.00068366397)
(114.47187 -0.00047014068 0.00048185198)
(112.26218 -0.00038872466 0.00026454418)
(105.3906 -0.00030070736 9.8695459e-05)
(105.38993 -0.00015748824 -2.7583373e-05)
(112.26357 -0.00015817718 -1.1287088e-05)
(114.47402 -0.00014762449 1.2878481e-05)
(115.49064 -0.00012857819 4.1208185e-05)
(119.405 -6.198778e-05 0.00031224904)
(119.40651 1.5273168e-05 0.0001155998)
(115.49158 -9.0922628e-05 2.8115062e-06)
(114.47465 -0.0001032897 -2.0674453e-05)
(112.26397 -0.00010839581 -3.9399473e-05)
(105.38896 -0.00010385382 -5.0407311e-05)
(105.39138 -0.00010316719 -6.6116583e-05)
(112.26634 -8.540632e-05 -6.9082037e-05)
(114.47729 -6.5556475e-05 -7.7174796e-05)
(115.49397 -4.4797797e-05 -8.4490552e-05)
(119.40866 0.00011783755 -0.00017776055)
(119.41151 0.00021166179 -0.00048225073)
(115.49682 -5.1290971e-05 -0.00015617275)
(114.47996 -8.0232579e-05 -0.00012969336)
(112.26904 -0.00011465274 -0.00010905349)
(105.39339 -0.0001558748 -0.00010416174)
(105.39787 -0.00023981665 -0.00015970817)
(112.27293 -0.00018000881 -0.00017299742)
(114.484 -0.00012893024 -0.00020979267)
(115.5006 -8.5591584e-05 -0.00026038659)
(119.41522 0.00032956175 -0.00086088544)
(119.41997 0.00047570186 -0.0012925655)
(115.50521 -0.00012659049 -0.00038499042)
(114.48842 -0.00018613076 -0.00031046163)
(112.27746 -0.00025245546 -0.00025568272)
(105.40217 -0.00032360188 -0.00022738799)
(105.40932 -0.00038503042 -0.00028616969)
(112.28344 -0.00029998338 -0.0003286659)
(114.49441 -0.00021830735 -0.0004047155)
(115.51092 -0.00014123051 -0.00050910015)
(119.42586 0.00066605147 -0.0017781394)
(119.43311 0.00089562606 -0.0023316007)
(115.51779 -0.00011415406 -0.00064091639)
(114.50108 -0.00020708931 -0.0005009796)
(112.29037 -0.00029989018 -0.00039725757)
(105.41662 -0.00039081789 -0.00032782715)
(105.42703 -0.00044778509 -0.00039188497)
(112.299 -0.00034883678 -0.0004885178)
(114.50959 -0.00023814813 -0.00062425556)
(115.52604 -0.00012121336 -0.00080427276)
(119.44181 0.0011514598 -0.0029660109)
(119.45217 0.0014620648 -0.0036857334)
(115.53573 -4.9276435e-05 -0.00095825811)
(114.5191 -0.00018478416 -0.00072882666)
(112.30891 -0.00030561183 -0.00055404313)
(105.438 -0.00040991695 -0.00042642188)
(105.45223 -0.00033539246 -0.00044962433)
(112.32074 -0.00022653312 -0.00061851896)
(114.53071 -9.7354697e-05 -0.0008403215)
(115.54714 5.5628433e-05 -0.0011291694)
(119.46434 0.0018067747 -0.0044998314)
(119.47851 0.0021798297 -0.0054274896)
(115.56032 0.00018317814 -0.0013249617)
(114.54366 1.3812863e-05 -0.0009674085)
(112.33422 -0.0001340424 -0.00069287332)
(105.46754 -0.00027197673 -0.00048903904)
(105.48685 -0.00029914738 -0.0005688975)
(112.35016 -9.5620012e-05 -0.00080565844)
(114.55916 9.1748946e-05 -0.0011361279)
(115.5756 0.00028794164 -0.0015745773)
(119.49485 0.0025922008 -0.0064763275)
(119.5135 0.0030338451 -0.0076182431)
(115.59314 0.00030509409 -0.0019102918)
(114.57648 6.4180949e-05 -0.0013847206)
(112.36819 -0.00017784771 -0.0009896245)
(105.50761 -0.00045281782 -0.00070688465)
(105.53274 -0.00074419648 -0.00090666203)
(112.38912 -0.00043545517 -0.0012502211)
(114.59681 -0.00013679705 -0.001715577)
(115.61326 0.0001693445 -0.0023285243)
(119.5346 0.0034745691 -0.008836372)
(119.55825 0.0039104849 -0.010091012)
(115.63591 4.380688e-05 -0.0027567873)
(114.61927 -0.00032262845 -0.0020525477)
(112.41245 -0.00065315377 -0.0014996325)
(105.55971 -0.00093798635 -0.0010762103)
(105.59122 -0.0010606216 -0.0012383732)
(112.43878 -0.0008062624 -0.0017428601)
(114.64483 -0.00045076444 -0.0023885113)
(115.66124 -2.8524036e-05 -0.0031972472)
(119.58449 0.0043486416 -0.011445467)
(119.61338 0.0047389903 -0.012822319)
(115.68925 -2.7445152e-05 -0.0036190162)
(114.67268 -0.00049283736 -0.0026956351)
(112.46766 -0.00087990359 -0.0019552908)
(105.62472 -0.0011361538 -0.0013810657)
(105.66225 -0.001088661 -0.0014382351)
(112.49934 -0.00081579363 -0.0021007482)
(114.70355 -0.00040340701 -0.0029507746)
(115.71993 9.3091789e-05 -0.0040023832)
(119.64474 0.0050916408 -0.014099044)
(119.67839 0.0053300612 -0.01514728)
(115.75289 0.00029505329 -0.0043161076)
(114.73633 -0.00021339987 -0.0031400714)
(112.53306 -0.00061440292 -0.0021656404)
(105.70095 -0.00082496487 -0.0013936908)
(105.7414 -0.00018555717 -0.0010998581)
(112.56828 -0.00014245102 -0.0019951415)
(114.77117 0.00017789707 -0.0030973209)
(115.78766 0.00065083196 -0.004388269)
(119.71402 0.0053365867 -0.015802071)
(119.75174 0.0047316888 -0.015782768)
(115.82287 0.00098178777 -0.003986292)
(114.80576 0.00064038503 -0.0026605676)
(112.60249 0.00046180953 -0.0015103694)
(105.77788 0.00059096504 -0.00059750836)
(105.80466 0.0012982194 0.00018298768)
(112.63014 0.00087166708 -0.000526138)
(114.8363 0.000763547 -0.0014762214)
(115.8547 0.00081016992 -0.0026200118)
(119.79226 0.0030649088 -0.014836614)
(119.83868 0.00054887433 -0.013127028)
(115.87492 -3.3289706e-05 0.00043249533)
(114.85228 0.00051838426 0.00097873351)
(112.63923 0.0014098433 0.0013129376)
(105.80655 0.0029119663 0.0016561915)
(105.7714 0.0094295345 0.00528862)
(112.61209 0.0042702276 0.0048596434)
(114.83803 0.0014196675 0.0054480188)
(115.86984 -0.00032075085 0.0059357844)
(119.89727 -0.001306577 -0.012624573)
(119.97941 0.0017770891 -0.021062403)
(115.82702 0.0059162741 0.013043676)
(114.77781 0.0096994896 0.012076645)
(112.53559 0.016702775 0.011206281)
(105.6976 0.028628824 0.01311889)
(105.64751 0.064802472 0.02479991)
(112.44649 0.04642285 0.019673347)
(114.69797 0.034527059 0.018145919)
(115.77151 0.027731413 0.016567157)
(120.11315 0.014546887 -0.051635977)
(120.34395 0.041482251 -0.11421288)
(115.80832 0.07187533 0.0085583951)
(114.71217 0.081334391 0.018401995)
(112.4786 0.094118179 0.026689719)
(105.78425 0.10751541 0.034204181)
(106.24744 0.14505184 0.039715712)
(112.7898 0.15831741 0.027389305)
(114.97285 0.15533735 0.0055403048)
(116.06843 0.14797808 -0.02424749)
(120.6266 0.10718367 -0.23811976)
(121.17582 0.28049678 -0.52074969)
(116.99796 0.24889035 -0.11953025)
(115.95172 0.23761884 -0.049031437)
(113.82567 0.21571654 0.0026919384)
(107.26105 0.16198393 0.033717438)
(109.82431 0.14045188 -0.022008301)
(116.64696 0.19534154 0.017507825)
(118.65826 0.24888527 -0.095846037)
(119.53946 0.28907297 -0.20196374)
(122.53867 0.52413073 -0.98365226)
(123.77327 1.0904955 -2.4411477)
(122.24735 0.30035507 -2.4498402)
(121.61881 0.18044863 -2.4399018)
(119.93649 0.02409446 -2.364921)
(113.69546 0.19850865 -2.9297984)
(110.90771 4.0522573 -7.2511511)
(116.77136 4.0680429 -7.7195056)
(118.57172 3.9461461 -7.6768861)
(119.41025 3.798936 -7.4838551)
(122.56662 2.6979432 -5.5107744)
(122.2383 3.0130067 -5.4831773)
(119.12714 3.265307 -5.4507529)
(118.28908 3.2755363 -5.4047373)
(116.40875 3.2501529 -5.2083192)
(110.06886 3.3721148 -5.2885377)
(112.66846 3.9288925 -8.029828)
(118.61274 3.989274 -8.0636646)
(120.24734 4.1637991 -8.1327491)
(120.90646 4.2583022 -8.0750745)
(122.49891 4.1029313 -6.858939)
(121.78713 1.437242 -6.508227)
(118.53678 2.3022638 -7.5032423)
(117.58857 2.4508126 -7.6252654)
(115.65895 2.5839844 -7.5907878)
(109.49793 2.7103954 -7.3813572)
(111.96769 0.47762694 -8.4687764)
(117.6575 0.63180123 -8.7494673)
(119.34096 0.68390982 -8.5957756)
(120.10222 0.70384731 -8.2946036)
(122.58654 0.76267888 -6.1518696)
(123.8149 0.36470326 -2.616469)
(122.69138 0.49583391 -2.7259846)
(122.1187 0.51397628 -2.7211207)
(120.53223 0.52410475 -2.6413647)
(114.44513 0.63631865 -3.1832252)
(110.72469 0.062355722 -0.14969043)
(117.36756 0.013193347 -0.078727318)
(119.28407 0.010928149 -0.19154922)
(120.10978 0.022413236 -0.29282068)
(122.517 0.12156168 -0.96357146)
(121.0678 0.037230659 -0.52211964)
(117.42652 -0.093146344 -0.22900874)
(116.39674 -0.11663747 -0.16368606)
(114.31759 -0.13943329 -0.10284414)
(107.85613 -0.15927412 -0.060691886)
(106.75472 -0.11624866 -0.035983098)
(113.20754 -0.096880914 -0.053437169)
(115.36206 -0.079527593 -0.070841025)
(116.45652 -0.066338541 -0.093901296)
(120.49668 0.0015452845 -0.22752259)
(120.2357 -0.0054327677 -0.098352851)
(116.20302 -0.037480141 -0.025156956)
(115.10416 -0.042818039 -0.020743027)
(112.89444 -0.050842832 -0.019663779)
(106.27794 -0.063748344 -0.018148402)
(106.1428 -0.026100909 -0.0050175696)
(112.86653 -0.022156264 -0.0021281594)
(115.09304 -0.020054093 0.0013158692)
(116.16833 -0.018742986 0.0028047875)
(120.02082 -0.0067426515 -0.038142784)
(119.8985 -0.006329298 -0.013283337)
(116.21887 -0.0068417489 0.0090941081)
(115.16961 -0.006234997 0.0069102415)
(112.95474 -0.0062235794 0.0035590798)
(106.19511 -0.0070666015 0.00057958228)
(106.26519 0.001707534 0.0017947773)
(113.02538 0.0019182571 0.0033497883)
(115.2233 0.0011902343 0.0048095632)
(116.25461 -6.6354651e-05 0.0055774221)
(119.82404 -0.0048190185 -0.0088049887)
(119.7705 -0.0022524489 -0.011029984)
(116.25478 0.0021718718 0.00057937129)
(115.23269 0.0031020116 0.0011654266)
(113.04767 0.0039118508 0.0013884406)
(106.29653 0.0047270988 0.0013257476)
(106.29056 0.0043611146 0.00044328187)
(113.0342 0.0038480562 -0.00031713823)
(115.21275 0.0033004609 -0.001405518)
(116.23116 0.0027346542 -0.0027622088)
(119.72748 -9.4605426e-05 -0.01404572)
(119.68902 0.001241179 -0.015815239)
(116.1973 0.0025585889 -0.004334409)
(115.17985 0.0028440361 -0.0027045812)
(113.00399 0.0031727546 -0.0013125967)
(106.26156 0.0035947861 -0.00024733244)
(106.22241 0.0027748426 -0.00055644074)
(112.96711 0.0024003211 -0.0016483295)
(115.14296 0.0022127337 -0.0030487734)
(116.1603 0.0021079946 -0.0046781786)
(119.65251 0.0018983643 -0.016201575)
(119.61755 0.0021102023 -0.015696282)
(116.1243 0.00163146 -0.0045601121)
(115.10671 0.0016259611 -0.0030465643)
(112.93039 0.001701855 -0.0017563173)
(106.18072 0.0019295044 -0.00072705117)
(106.14044 0.0012770288 -0.00079766936)
(112.89486 0.0011540626 -0.0017266722)
(115.07228 0.0011484497 -0.0028797144)
(116.09002 0.0012134672 -0.004246726)
(119.58432 0.0020565735 -0.014670804)
(119.55326 0.001906482 -0.013327633)
(116.05847 0.00096683886 -0.003795319)
(115.04048 0.00088498334 -0.0025793184)
(112.86231 0.00086035444 -0.0015578623)
(106.10245 0.00092675739 -0.00074188359)
(106.06786 0.00072720062 -0.00067076046)
(112.832 0.00071091087 -0.0013834169)
(115.01127 0.00075047566 -0.0022743216)
(116.02936 0.00082708409 -0.0033433831)
(119.52461 0.0017085896 -0.011920603)
(119.49853 0.0014836876 -0.010553863)
(116.00331 0.00079241562 -0.0028852191)
(114.98502 0.00074201889 -0.0019512229)
(112.80512 0.00069890675 -0.0011809182)
(106.03633 0.00066556492 -0.00057289836)
(106.00822 0.00062637721 -0.00051217674)
(112.78048 0.00068793963 -0.0010347292)
(114.96135 0.00072541461 -0.0016920518)
(115.97969 0.0007515954 -0.0024959588)
(119.47489 0.0012628108 -0.0092417239)
(119.45381 0.0010701458 -0.0079725508)
(115.95902 0.0006560015 -0.002140936)
(114.94053 0.00063958234 -0.0014616114)
(112.75917 0.00061541409 -0.00090678205)
(105.98307 0.00056712126 -0.00046434176)
(105.96131 0.00050359291 -0.00037407048)
(112.74004 0.0005183079 -0.00074342038)
(114.9222 0.0005294149 -0.0012104192)
(115.94069 0.0005449077 -0.0017821499)
(119.43512 0.00091679389 -0.0067765422)
(119.41877 0.00078764101 -0.0057109146)
(115.92494 0.00041717181 -0.0015023281)
(114.90634 0.00039492068 -0.0010242858)
(112.72385 0.00038516411 -0.00063104797)
(105.9421 0.00038865328 -0.00031644401)
(105.92584 0.00024475615 -0.00027850529)
(112.70936 0.00024137957 -0.00054303832)
(114.89247 0.00025760925 -0.00087190626)
(115.91105 0.00028801568 -0.0012696765)
(119.40454 0.00066555986 -0.0047720034)
(119.39236 0.00054513641 -0.0039376261)
(115.89936 0.00017615373 -0.0010645743)
(114.88065 0.00014059883 -0.0007363037)
(112.69739 0.00011716945 -0.00046253574)
(105.91168 0.00011301736 -0.00024473342)
(105.89994 4.2523517e-05 -0.00018607816)
(112.68668 4.9449275e-05 -0.00036070251)
(114.87041 7.3914385e-05 -0.00058621803)
(115.8891 0.00010817327 -0.00085518121)
(119.38195 0.00043864861 -0.0031882545)
(119.37323 0.00034507894 -0.0025342798)
(115.88066 6.7289851e-05 -0.00071276786)
(114.86183 3.6767025e-05 -0.00049928337)
(112.67807 1.122762e-05 -0.00031745174)
(105.88978 -3.9210166e-06 -0.00017225351)
(105.8816 2.5226001e-07 -0.00013480975)
(112.67035 1.6372966e-05 -0.00024588466)
(114.85448 3.7354495e-05 -0.0003903083)
(115.87331 5.9422583e-05 -0.0005589662)
(119.36598 0.00026278408 -0.0019657834)
(119.36005 0.00019464359 -0.0014602609)
(115.86749 6.3613577e-05 -0.00042089924)
(114.84853 5.0429143e-05 -0.00029294606)
(112.66454 3.6101113e-05 -0.00018122762)
(105.87494 2.2513682e-05 -9.7631828e-05)
(105.86976 5.1161689e-05 -6.1162344e-05)
(112.65928 5.6891886e-05 -0.00012393157)
(114.84352 6.3752539e-05 -0.00020883387)
(115.86248 7.0380578e-05 -0.0003022432)
(119.35526 0.00014529175 -0.0010080659)
(119.35153 0.00011250222 -0.00062506506)
(115.85865 6.4452879e-05 -0.00019755115)
(114.83953 6.0262282e-05 -0.00013509728)
(112.65548 5.9417971e-05 -7.4858548e-05)
(105.86541 6.4681887e-05 -3.2143749e-05)
(105.86257 5.8256215e-05 -6.3752025e-06)
(112.65212 4.5952631e-05 -3.1898089e-05)
(114.83631 4.4830267e-05 -7.2533544e-05)
(115.85542 4.9769336e-05 -0.00011180787)
(119.34865 9.0073882e-05 -0.00031136907)
(119.34653 7.4195174e-05 -2.3647821e-05)
(115.85305 5.7726178e-05 8.4185031e-06)
(114.8338 5.7125438e-05 1.8775006e-05)
(112.64994 6.3447694e-05 3.0866228e-05)
(105.86042 8.2347618e-05 3.1974592e-05)
(105.86058 5.6840924e-05 8.1166416e-05)
(112.64884 3.8073179e-05 9.0742401e-05)
(114.83259 3.3292059e-05 8.5313538e-05)
(115.85171 3.7156627e-05 7.7799047e-05)
(119.34505 5.09456e-05 0.00018782982)
(119.34403 -0.00013642202 0.0010684017)
(115.85002 -5.8863179e-05 0.00081006013)
(114.83078 -2.2569577e-05 0.00063103092)
(112.64785 2.5020281e-05 0.00042294525)
(105.86177 7.9706799e-05 0.0002526649)
(105.92008 0.00021645125 0.00056673259)
(112.69921 1.8227183e-05 0.00060898808)
(114.88086 -0.00019171901 0.0007170466)
(115.90303 -0.00036188605 0.00083847449)
(119.34878 -0.00072621405 0.001072423)
(119.34992 6.9907529e-05 0.00048481007)
(115.90533 0.00017933896 0.00038549071)
(114.88313 0.00018127669 0.00038678609)
(112.70108 0.00019867276 0.0004050475)
(105.91924 0.00023178404 0.00043713805)
(105.92013 0.00027491499 0.00042758318)
(112.70236 0.00025501027 0.00040629463)
(114.88478 0.00024368727 0.00039357054)
(115.90686 0.0002420281 0.00039254107)
(119.35155 0.00022851146 0.0003900896)
(119.35379 0.00045080838 0.00020706667)
(115.90965 0.00031530798 0.00028635897)
(114.88751 0.0002921835 0.00030166613)
(112.70503 0.00027447239 0.00032666746)
(105.92186 0.00026893443 0.00035197334)
(105.92592 0.00028472231 0.00032862522)
(112.70869 0.00030206697 0.00029506908)
(114.89124 0.0003322581 0.00026027255)
(115.9131 0.00036993965 0.0002326637)
(119.35671 0.00067798785 2.8781265e-05)
(119.36054 0.00096023279 -0.00017001921)
(115.91745 0.00044383918 0.00018463523)
(114.89554 0.00038785898 0.00022800511)
(112.71308 0.00034338489 0.00027814919)
(105.92995 0.00031587045 0.00032662195)
(105.9366 0.00036427636 0.0003479032)
(112.7188 0.00040584176 0.00028105899)
(114.90118 0.00046601522 0.00021311763)