/*--------------------------------*- C++ -*----------------------------------*\
  =========                 |
  \\      /  F ield         | OpenFOAM: The Open Source CFD Toolbox
   \\    /   O peration     | Website:  https://openfoam.org
    \\  /    A nd           | Version:  7
     \\/     M anipulation  |
\*---------------------------------------------------------------------------*/
FoamFile
{
    version     2.0;
    format      ascii;
    class       volScalarField;
    location    "500";
    object      k;
}
// * * * * * * * * * * * * * * * * * * * * * * * * * * * * * * * * * * * * * //

dimensions      [0 2 -2 0 0 0 0];

internalField   nonuniform List<scalar> 
25201
(
1109.7414
1109.0489
1109.7444
1109.0555
1090.7395
1094.8457
1096.3403
1132.3787
1130.6119
1126.0586
1130.6098
1094.8436
1093.1924
1048.2843
1043.9033
1065.3268
1061.0207
1055.8512
1050.2562
1039.0375
1047.2262
1056.073
1059.2266
1052.8644
1043.6692
1036.0389
1045.1149
1057.383
1054.7535
1039.6786
1041.617
1044.3486
1027.7007
1030.6442
1034.516
1043.9052
1053.1898
1050.4383
1040.1345
1037.2021
1048.4855
1047.3103
1038.5262
1026.112
1035.6465
1045.8698
1056.1609
1072.2539
1090.2667
1093.1965
1129.669
1127.1966
1110.8908
1113.7453
1116.7196
1099.9628
1081.4783
1077.9041
1096.4188
1084.3401
1076.0315
1073.5346
1091.4002
1109.8674
1128.7115
1135.9148
1132.7918
1122.5374
1103.1294
1096.1307
1077.1471
1070.02
1074.6276
1093.5499
1091.2831
1072.5313
1065.2824
1067.7402
1059.2877
1061.8408
1064.8418
1067.5778
1061.9768
1071.5028
1067.9051
1073.6872
1058.0829
1048.2856
1040.4766
1045.4284
1044.6654
1048.0093
1042.1811
1037.6563
1033.0482
1036.0587
1031.4199
1028.4621
1022.6484
1026.2245
1030.8708
1027.3103
1032.1928
1035.5437
1040.4307
1037.3669
1030.6854
1034.8116
1035.0269
1025.9523
1020.6484
1025.4107
1020.9091
1016.2032
1009.1529
1014.2051
1018.8708
1013.8703
1018.689
1025.721
1029.9656
1023.5722
1028.3168
1023.497
1015.8629
1022.0734
1024.7484
1035.0276
1045.4285
1040.1315
1037.1985
1035.6426
1045.8664
1047.3164
1050.2467
1053.7573
1058.0809
1061.976
1073.5338
1081.4764
1099.9607
1091.3993
1084.3383
1076.0296
1077.901
1096.4158
1113.7425
1116.7177
1129.6653
1135.9129
1128.7108
1109.8668
1103.1279
1122.5364
1132.7895
1130.1454
1127.1918
1090.2613
1074.6235
1093.5462
1077.1448
1070.0173
1073.6848
1064.8397
1067.5763
1061.8382
1059.2845
1067.7372
1060.1606
1063.2511
1067.9031
1071.5012
1064.2558
1063.2971
1082.5873
1072.8708
1064.2571
1054.6957
1044.7868
1054.1575
1045.4284
1042.9944
1039.0286
1035.0341
1039.496
1033.7706
1038.0044
1033.1367
1028.4618
1020.8257
1026.8734
1034.3906
1044.7868
1054.6951
1048.0079
1044.6648
1040.4774
1018.6909
1023.5743
1029.967
1035.5446
1040.4301
1037.3659
1042.1801
1037.6565
1032.1937
1025.722
1030.685
1034.8116
1028.3168
1023.4967
1015.8626
1022.0736
1017.235
1012.5294
1015.237
1108.9248
1109.3768
1061.6433
1057.271
1054.7163
1038.5063
1030.5438
1041.5209
1039.6209
1048.4261
1047.2906
1035.6255
1026.0919
1027.6408
1037.1414
1040.0325
1050.3408
1053.053
1044.2147
1034.3766
1043.7643
1048.1028
1055.8981
1060.8369
102.0191
146.73913
194.78578
243.45514
529.73536
534.87593
248.37382
198.63253
149.59868
103.73681
104.27183
151.87397
202.14263
252.67723
540.2061
544.68901
254.77183
203.82642
153.06729
104.74886
105.04308
153.81327
204.95095
256.19579
548.81207
552.76743
257.51736
205.98477
154.50178
105.343
105.64377
155.25237
207.13209
258.99245
556.68767
560.62099
260.62382
208.39694
156.07716
105.96123
106.28487
156.95199
209.74327
262.3642
564.59398
568.61968
264.17321
211.14077
157.85819
106.61398
106.9454
158.78624
212.57258
266.02743
572.70761
576.86363
267.91969
214.03346
159.73244
107.2803
107.6181
160.69624
215.52087
269.84601
581.09228
585.39697
271.80861
217.0364
161.67802
107.96042
108.30697
162.67865
218.57986
273.80678
589.78103
594.24747
275.84419
220.15386
163.69912
108.65928
109.01699
164.74009
221.75816
277.92011
598.79978
603.44132
280.0384
223.39551
165.80276
109.38151
109.75262
166.88819
225.06632
282.19915
608.17598
613.00722
284.40682
226.77405
167.99817
110.13179
110.5188
169.1335
228.51882
286.66125
617.93925
622.97642
288.96674
230.30374
170.29553
110.91464
111.31889
171.48481
232.1286
291.32282
628.12395
633.38594
293.73369
233.99623
172.70255
111.73269
112.15616
173.94985
235.90735
296.19974
638.76713
644.272
298.72539
237.86513
175.22825
112.59005
113.0345
176.53886
239.87023
301.31104
649.90567
655.67353
303.96248
241.92698
177.8843
113.49098
113.96002
179.26505
244.03612
306.68062
661.58176
667.63776
309.47121
246.20205
180.68322
114.44182
114.93457
182.14192
248.42641
312.33473
673.84985
680.22152
315.27271
250.70891
183.64031
115.44213
691.54103
289.16479
229.32273
168.92905
109.87836
109.41759
167.59276
227.26785
286.49813
685.08354
678.78679
283.89417
225.26037
166.28775
108.96905
108.52614
165.01193
223.29633
281.34636
672.64463
666.65197
278.86098
221.38132
163.76836
108.09292
107.67141
162.55557
219.51258
276.43536
660.80176
655.08796
274.06948
217.69053
161.37412
107.26091
106.86
160.22258
215.91226
271.75951
649.50501
644.04768
269.50617
214.17846
159.1006
106.46905
106.08805
158.0083
212.48796
267.30764
638.7114
633.49054
265.16365
210.84083
156.94509
105.71732
105.35456
155.90709
209.23081
263.06694
628.38015
623.37573
261.01576
207.65618
154.89206
104.99953
104.65133
153.89916
206.11404
259.0063
618.47347
613.66962
257.03899
204.60475
152.92763
104.31012
103.97482
151.97681
203.12575
255.11035
608.96041
604.34159
253.22091
201.67739
151.04573
103.64582
103.32176
150.1334
200.25644
251.36652
599.80979
595.36155
249.54765
198.86299
149.2384
103.0028
102.68763
148.36049
197.49463
247.76109
590.99386
586.70335
246.00752
196.15168
147.49824
102.37641
102.06774
146.65201
194.83252
244.2848
582.48639
578.33867
242.5969
193.5397
145.82157
101.76207
101.45842
145.01108
192.27814
240.95081
574.25519
570.22886
239.36976
191.06414
144.22867
101.15958
100.867
143.49369
189.92753
237.89419
566.25113
562.30174
236.57171
188.9028
142.82592
100.58889
100.31766
142.22618
187.99314
235.40601
558.34296
554.26134
234.18402
187.02844
141.57864
100.04107
99.674556
140.60975
185.58139
232.35847
549.89212
544.96028
229.17525
183.06918
138.89623
99.14525
98.843287
136.04428
178.95193
224.12367
539.42459
530.51857
211.42085
167.96675
128.57827
96.655394
98.580435
136.15448
179.09027
224.27574
539.88542
545.32671
229.39546
183.24571
138.98546
98.993474
99.603071
140.73081
185.77112
232.58226
550.1918
554.49914
234.36661
187.18278
141.67752
99.998832
100.29491
142.30973
188.12198
235.55915
558.5478
562.48334
236.69917
189.00887
142.89476
100.57593
100.86037
143.55182
190.01759
238.00337
566.41571
570.38016
239.46543
191.14244
144.2794
101.15726
101.45909
145.05638
192.34821
241.03679
574.39589
578.47092
242.6752
193.60321
145.86286
101.76492
102.07205
146.68997
194.89108
244.3572
582.61208
586.82401
246.0752
196.20619
147.53381
102.3819
102.69389
148.39396
197.54615
247.82519
591.11082
595.47583
249.60915
198.91225
149.27064
103.00983
103.3294
150.16477
200.30445
251.42636
599.92231
604.45335
253.28005
201.72484
151.07703
103.65418
103.98378
152.00832
203.1735
255.16974
609.07224
613.78225
257.09891
204.65276
152.95947
104.3196
104.66127
153.93144
206.16281
259.06722
618.58709
623.49035
261.07839
207.70616
154.9252
105.01006
105.36557
155.94144
209.28279
263.13189
628.49609
633.60836
265.23186
210.89566
156.98161
105.72894
106.10003
158.04646
212.54491
267.37808
638.83143
644.17057
269.57603
214.23444
159.13806
106.48069
106.87077
160.25752
215.96513
271.82618
649.6309
655.2175
274.13282
217.74002
161.40647
107.2708
107.68049
162.58528
219.55876
276.49518
660.93547
666.79011
278.91862
221.42531
163.79639
108.10165
108.53512
165.03975
223.34015
281.40372
672.78727
678.9338
283.9553
225.30789
166.3184
108.97915
109.42868
167.62721
227.32042
286.56463
685.2369
691.7023
289.23797
229.38085
168.96741
109.89015
110.37105
170.34963
231.50408
291.9919
698.34296
114.96291
182.11058
248.39617
312.35491
681.8225
675.31736
309.39286
246.09663
180.60162
114.44726
113.94833
179.13344
243.85841
306.51004
668.98179
662.8077
303.70369
241.68052
177.70694
113.46448
112.98976
176.31476
239.55388
300.96332
656.78745
650.91654
298.29221
237.48181
174.95878
112.5253
112.07346
173.63758
235.46171
295.68753
645.1869
639.5921
293.14878
233.49377
172.35181
111.63396
111.20543
171.09955
231.57447
290.67136
634.1266
628.78433
288.2545
229.70324
169.87968
110.78802
110.38081
168.68984
227.87593
285.89326
623.56024
618.44943
283.58689
226.09188
167.52891
109.98381
109.59539
166.39467
224.34681
281.33011
613.44727
608.54959
279.12245
222.6403
165.28588
109.21531
108.84252
164.20123
220.96922
276.95997
603.75243
599.05193
274.84305
219.33382
163.13992
108.47722
108.11832
162.10109
217.73128
272.76799
594.44449
589.9266
270.7352
216.16189
161.08379
107.76604
107.41919
160.08731
214.62292
268.7412
585.49497
581.14641
266.78652
213.11474
159.11063
107.07791
106.74088
158.15315
211.63468
264.86768
576.87775
572.68586
262.98551
210.18323
157.21377
106.40818
106.07826
156.29248
208.75867
261.13789
568.56729
564.51794
259.32936
207.36419
155.38972
105.75148
105.42685
154.5102
206.00571
257.56819
560.53312
556.60665
255.88033
204.70206
153.66396
105.10711
104.79358
152.87291
203.48703
254.31085
552.73205
548.89239
252.91292
202.40043
152.16112
104.49364
104.19523
151.52744
201.44395
251.68848
545.05395
541.10183
250.38781
200.41671
150.83744
103.86889
103.39437
149.812
198.88586
248.45016
536.8968
532.2373
245.10287
196.25643
148.0535
102.6829
101.90105
145.73658
192.57141
240.33488
527.1774
530.77488
244.31219
195.6814
147.36623
101.17812
103.66417
149.55374
198.45945
248.19145
535.02647
540.42194
252.83832
202.27449
151.93989
104.21961
104.74356
153.12887
203.91343
254.87755
544.85205
548.9744
256.30686
205.04268
153.87285
105.04341
105.34798
154.55587
206.06568
257.61561
552.92341
556.8397
259.08586
207.20862
155.30279
105.65131
105.96977
156.1252
208.46885
260.71165
560.76914
564.73889
262.44938
209.81261
156.99782
106.29481
106.624
157.90241
211.20692
264.25453
568.76205
572.84798
266.10731
212.63718
158.82892
106.95629
107.29096
159.77397
214.09569
267.99669
577.00255
581.23032
269.92246
215.58233
160.73682
107.62948
107.97157
161.71811
217.09643
271.8832
585.5347
589.91909
273.88201
218.64013
162.71851
108.31879
108.67096
163.73902
220.2135
275.91845
594.38654
598.94031
277.99634
221.81925
164.7807
109.02948
109.39399
165.84437
223.45735
280.11522
603.58373
608.32022
282.27889
225.13045
166.93105
109.76579
110.14463
168.04165
226.83867
284.48707
613.15339
618.08734
286.7441
228.58516
169.17756
110.53177
110.92698
170.33954
230.36992
289.04966
623.12584
628.27314
291.40832
232.19637
171.52934
111.33153
111.74529
172.74758
234.06456
293.81985
633.53367
638.91282
296.28926
235.97814
173.99616
112.16941
112.60386
175.27601
237.93765
298.8168
644.41597
650.04975
301.40788
239.94721
176.58955
113.04979
113.50708
177.93709
242.00673
304.06233
655.82035
661.7344
306.78481
244.1195
179.32025
113.9766
114.45811
180.73982
246.28632
309.57611
667.79866
674.02011
312.44371
248.51354
182.20041
114.9533
115.46351
183.70387
250.80278
315.38926
680.40531
686.9606
318.4157
253.15541
185.24996
115.98898
114.95781
182.09651
248.37544
312.32926
681.77919
675.27801
309.36906
246.07743
180.58858
114.44245
113.9438
179.12097
243.84011
306.48739
668.94555
662.77351
303.6818
241.66289
177.69493
113.46032
112.98592
176.30309
239.53661
300.94182
656.75467
650.88421
298.27114
237.46497
174.9475
112.52183
112.07032
173.62658
235.44511
295.66663
645.15435
639.55895
293.1278
233.47719
172.34095
111.63115
111.2028
171.08851
231.55757
290.65001
634.09264
628.75017
288.23299
229.68607
169.8684
110.7854
110.37819
168.67858
227.85887
285.87203
623.52643
618.41634
283.56629
226.07521
167.5178
109.98117
109.59279
166.38398
224.33084
281.31043
613.41525
608.51881
279.10387
222.62518
165.27571
109.21278
108.84011
164.19169
220.95507
276.9426
603.72302
599.02358
274.82667
219.32051
163.13095
108.47496
108.11622
162.09263
217.71868
272.75244
594.41701
589.89977
270.7202
216.14972
161.07562
107.76402
107.41727
160.07952
214.61122
268.72674
585.46875
581.12048
266.77223
213.1032
159.10298
107.07612
106.73922
158.14551
211.6231
264.85334
576.85196
572.66012
262.97102
210.17147
157.20601
106.40661
106.07678
156.28463
208.74672
261.12317
568.54145
564.49192
259.3143
207.35193
155.38171
105.7501
105.42554
154.50192
205.99304
257.55269
560.50693
556.58031
255.86425
204.68889
153.65541
105.10581
104.79237
152.86443
203.47375
254.29448
552.70571
548.86661
252.8962
202.38699
152.15266
104.49255
104.19432
151.51991
201.43148
251.6723
545.03
541.0826
250.3713
200.4045
150.83102
103.86922
103.38797
149.79828
198.86816
248.42827
536.888
532.24263
245.06719
196.23359
148.05381
102.68782
101.80006
145.6774
192.55504
240.32367
527.35954
540.59222
225.09306
179.97035
136.74479
98.038353
98.977079
138.99835
183.11489
229.21336
545.25325
550.14717
232.57749
185.76833
140.71761
99.571433
99.998782
141.66817
187.15673
234.33251
554.43437
558.4751
235.52079
188.09046
142.28904
100.29179
100.57421
142.87415
188.97539
236.65735
562.40648
566.33727
237.96281
189.98511
143.53077
100.8586
101.15457
144.25952
191.11092
239.4254
570.30208
574.3189
240.99871
192.318
145.03669
101.45624
101.76101
145.84399
193.57354
242.63743
578.39521
582.53734
244.3212
194.86258
146.67132
102.06822
102.37719
147.51573
196.1779
246.03914
586.74994
591.03712
247.79065
197.51892
148.37613
102.68941
103.0046
149.25318
198.88497
249.57422
595.40221
599.84843
251.39243
200.27773
150.14724
103.32434
103.6483
151.0593
201.69727
253.2448
604.37878
608.99669
255.13463
203.14578
151.99004
103.97792
104.3128
152.94033
204.62322
257.06135
613.70525
618.5082
259.02856
206.13205
153.91101
104.65425
105.002
154.90311
207.67247
261.03596
623.4091
628.41229
263.08759
209.24724
155.91765
105.35724
105.71963
156.95586
210.85691
265.18354
633.52183
638.74212
267.32848
212.5048
158.01937
106.09059
106.47065
159.10976
214.1923
269.52369
644.07814
649.53535
271.77489
215.92375
160.2295
106.86113
107.26123
161.37899
217.69894
274.08134
655.11887
660.83362
276.44676
219.52041
162.55968
107.6718
108.09333
163.77211
221.38811
278.87089
666.685
672.67865
281.35772
223.30448
165.01655
108.52729
108.97055
166.29359
225.26982
283.90647
678.82175
685.12009
286.51447
227.28117
167.60153
109.41971
109.88061
168.93976
229.33831
289.18355
691.57963
698.21263
291.93341
231.45836
170.31996
110.36122
686.77048
318.30822
253.06999
185.19325
115.97099
115.44463
183.64762
250.71864
315.28358
680.22581
673.85172
312.34521
248.4357
182.14875
114.93725
114.44376
180.68814
246.20891
309.47919
667.63768
661.58109
306.68749
244.04185
179.26889
113.9615
113.49136
177.886
241.92966
303.96591
655.67423
649.90947
301.31331
239.87163
176.53924
113.03419
112.58883
175.22736
237.86448
298.72528
644.2802
638.7802
296.20058
235.90738
173.94918
112.15494
111.73126
172.70238
233.99646
293.73462
633.40358
628.14501
291.32701
232.13157
171.48636
111.31816
110.91443
170.29888
230.3085
288.97266
622.99921
617.9622
286.67102
228.52696
169.13903
110.51981
110.13312
168.00499
226.78321
284.41749
613.0294
608.197
282.21173
225.077
166.89565
109.75452
109.38295
165.80995
223.40525
280.04984
603.46123
598.81876
277.93215
221.76818
164.7469
109.01853
108.66014
163.70572
220.16297
275.85504
594.26599
589.79963
273.81893
218.58991
162.68532
108.30794
107.96068
161.68504
217.04623
271.82032
585.41626
581.11284
269.85972
215.5323
160.70377
107.6185
107.27999
159.74098
214.04554
267.93398
576.88613
572.73274
266.04484
212.58723
158.79595
106.94522
106.61293
157.86968
211.1571
264.19235
568.64826
564.62691
262.3877
209.76319
156.96524
106.28365
105.95865
156.09329
208.42011
260.6508
560.65935
556.73275
259.0268
207.16157
155.27208
105.64029
105.33755
154.52855
206.02282
257.56101
552.82096
548.87908
256.25888
205.00559
153.84995
105.03353
104.73379
153.11943
203.89598
254.85211
544.77302
540.35948
252.80839
202.24661
151.92434
104.20537
103.62374
149.61831
198.55148
248.28683
535.02318
530.76554
244.37607
195.75886
147.45763
101.24675
101.90723
146.91893
195.07671
243.78829
530.22008
535.21755
248.54214
198.77411
149.68194
103.64811
104.22143
151.94168
202.25373
252.81325
540.47996
544.91455
254.89638
203.92756
153.13053
104.72451
105.03358
153.8768
205.04925
256.31559
549.00975
552.94346
257.62756
206.07542
154.56097
105.34162
105.64723
155.30825
207.21655
259.09472
556.84943
560.77239
260.71849
208.47497
156.12899
105.96739
106.29266
157.00049
209.81607
262.45275
564.73793
568.75815
264.25662
211.2091
157.90378
106.62275
106.95477
158.82935
212.63725
266.10669
572.84203
576.99514
267.9957
214.09523
159.77355
107.29011
107.62823
160.73587
215.58045
269.91965
581.22194
585.52563
271.88054
217.09439
161.71656
107.97084
108.31775
162.7165
218.63687
273.87776
589.90973
594.37719
275.91497
220.21062
163.73683
108.67046
109.02867
164.77826
221.8155
277.99173
598.93136
603.57558
280.11171
223.45422
165.84191
109.39374
109.76535
166.92862
225.12684
282.27471
608.31348
613.14862
284.48438
226.83606
168.03954
110.14475
110.53159
169.17526
228.58183
286.74051
618.08539
623.12752
289.04686
230.36701
170.33719
110.92701
111.3308
171.52604
232.19163
291.40322
628.27926
633.54472
293.81399
234.05896
172.74343
111.74438
112.16775
173.99054
235.96998
296.2801
638.9292
644.43719
298.80606
237.92812
175.26923
112.60178
113.04661
176.58074
239.93445
301.39303
650.07446
655.84637
304.04667
241.99339
177.92789
113.5037
113.97337
179.31077
244.10543
306.76808
661.75938
667.82099
309.56155
246.27382
180.7309
114.45563
114.94913
182.19162
248.50061
312.42791
674.03791
680.41419
315.36839
250.78471
183.69065
115.45682
115.98392
185.23816
253.13931
318.39729
686.96272
1179.2507
1179.3586
1179.2473
1179.3512
1163.9369
1164.2416
1164.726
1204.7409
1203.9118
1164.244
1162.9339
1201.7839
1203.9094
1204.3055
1192.3542
1173.7197
1153.3407
1148.1145
1168.1163
1163.1786
1171.3665
1151.0006
1142.6104
1136.5773
1148.6551
1162.1596
1203.0771
1189.0265
1190.7723
1212.1392
1213.7474
1209.5279
1188.414
1184.3229
1205.9405
1201.749
1210.6979
1209.5183
1187.7135
1167.6947
1169.3101
1157.732
1154.1682
1132.6883
1146.9424
1128.1574
1108.8745
1110.8879
1096.1294
1116.0045
1111.8151
1091.7036
1072.5296
1065.2791
1072.2495
1091.2796
1091.2401
1090.1845
1108.9158
1109.3657
1094.4941
1092.9834
527.20836
239.85588
192.17388
145.43185
102.26595
102.85312
147.86576
195.95618
244.73606
532.19253
536.83758
248.2021
198.67122
149.66638
103.4697
103.91535
150.74281
200.27793
250.23333
541.05873
545.03575
251.59868
201.35969
151.46782
104.2255
104.5148
152.12256
202.34608
252.85737
548.89454
552.75045
254.2786
203.45321
152.84769
104.80954
105.1191
153.64824
204.68102
255.86199
556.63734
560.5731
257.56171
205.9952
154.5011
105.43708
105.75981
155.38604
207.36055
259.33018
564.56494
568.61968
261.14578
208.76122
156.29244
106.08604
106.41487
157.21687
210.18946
262.9972
572.74232
576.93711
264.88387
211.64481
158.15841
106.74755
107.08384
159.11773
213.12671
266.8045
581.20785
585.55763
268.7621
214.63735
160.09559
107.42534
107.77174
161.09311
216.17703
270.75659
589.98999
594.50801
272.79161
217.74833
162.11129
108.12445
108.48316
163.1511
219.35147
274.86697
599.11506
603.81454
276.98651
220.98917
164.21369
108.84915
109.22213
165.29998
222.66166
279.15009
608.61055
613.50671
281.36163
224.37164
166.41103
109.60323
109.99226
167.54774
226.11928
283.62087
618.50698
623.6158
285.93228
227.90775
168.71161
110.3904
110.79745
169.90337
229.73715
288.2955
628.83739
634.17705
290.71531
231.61085
171.12469
111.21455
111.64158
172.3763
233.529
293.19144
639.63975
645.2317
295.72897
235.4953
173.66016
112.07967
112.5288
174.97695
237.51003
298.32795
650.95879
656.82737
300.99357
239.57698
176.32877
112.98999
113.46337
177.71631
241.69662
303.72611
662.8442
669.01654
306.53255
243.87436
179.1431
113.95029
114.45118
180.61006
246.11138
309.41424
675.35159
681.85724
312.37711
248.4124
182.12037
114.96719
114.44018
180.57581
246.05746
309.3435
675.21352
668.88275
306.46773
243.82558
179.11241
113.94229
113.45846
177.68757
241.65005
303.66412
662.71367
656.69785
300.92401
239.52307
176.2943
112.98338
112.5183
174.93596
237.44779
298.24949
650.83025
645.10364
295.64208
235.42517
173.61268
112.06605
111.62561
172.32379
233.4525
293.09782
639.5109
634.04607
290.61656
231.52978
171.06878
111.19664
110.77863
169.84653
229.65458
288.19507
628.70399
623.48005
285.8343
227.82778
168.65713
110.37208
109.97527
167.49784
226.04495
283.52911
618.3706
613.36991
281.27624
224.30297
166.36522
109.58733
109.20705
165.2567
222.59683
279.06944
608.47284
603.67557
276.90954
220.92757
164.17264
108.83502
108.46987
163.11188
219.29209
274.79248
598.97445
594.36602
272.71832
217.69016
162.07293
108.11166
107.7592
161.05475
216.11864
270.68306
589.84644
585.41253
268.68742
214.57803
160.05646
107.41274
107.07113
159.07759
213.0658
266.72808
581.06101
576.78862
264.80574
211.58239
158.11707
106.73459
106.40172
157.1744
210.12523
262.91708
572.59203
568.46746
261.06369
208.69531
156.24868
106.07268
105.74634
155.34084
207.29238
259.24558
564.41048
560.41599
257.47436
205.92462
154.45408
105.42352
105.10568
153.5992
204.60735
255.77118
556.47696
552.58559
254.18423
203.37648
152.79645
104.79687
104.50397
152.06942
202.26662
252.76002
548.72287
544.85069
251.50135
201.27964
151.41414
104.22053
103.92017
150.69268
200.20697
250.1505
540.84862
536.55423
248.14216
198.60808
149.61566
103.49982
102.92103
147.84727
195.96197
244.78582
531.7847
526.42131
239.95346
192.1364
145.33065
102.39903
100.98396
141.0029
185.42667
231.80709
519.41077
526.44686
250.03454
200.24059
151.09222
107.0282
101.41448
147.7019
196.10184
244.73995
531.26886
535.06017
248.13972
198.45005
149.59798
103.81146
104.28535
151.90908
202.20684
252.7481
540.41364
544.81438
254.79204
203.84234
153.09085
104.79491
105.08015
153.84342
204.99076
256.24639
548.93997
552.89412
257.56748
206.02272
154.52963
105.37544
105.67099
155.28133
207.17361
259.04698
556.81809
560.75428
260.68039
208.44001
156.10654
105.98475
106.30555
156.98227
209.78835
262.42319
564.73003
568.75804
264.23402
211.18735
157.8892
106.63259
106.96244
158.81792
212.62054
266.08988
572.84797
577.00573
267.98347
214.0825
159.76462
107.29618
107.63319
160.72905
215.57099
269.91105
581.2361
585.54266
271.87515
217.08777
161.71161
107.97504
108.32138
162.71315
218.63263
273.87499
589.92866
594.39724
275.91419
220.20821
163.73475
108.67371
109.03168
164.77738
221.81481
277.99273
598.95212
603.59655
280.11457
223.45526
165.84229
109.39665
109.76821
166.93014
225.12941
282.27909
608.33391
613.16779
284.49027
226.84003
168.04205
110.14755
110.5344
169.17866
228.58692
286.74743
618.10187
623.1401
289.0548
230.37313
170.34138
110.9299
111.3338
171.53083
232.19861
291.41197
628.28658
633.54581
293.82348
234.06668
172.74866
111.74725
112.17014
173.99551
235.97746
296.28925
638.92322
644.4239
298.81471
237.93518
175.27392
112.60388
113.0485
176.5849
239.94064
301.40043
650.05339
655.81819
304.05213
241.99816
177.93098
113.50519
113.97436
179.31354
244.10889
306.77075
661.72454
667.77909
309.56257
246.27798
180.73616
114.45756
114.95579
182.20165
248.50739
312.42904
673.989
680.36137
315.37453
250.80156
183.71626
115.471
116.00093
185.2827
253.15699
318.39414
686.90432
114.44111
180.57531
246.0595
309.34869
675.24462
668.90767
306.45894
243.81538
179.10307
113.93842
113.45046
177.67313
241.63268
303.64665
662.73396
656.71719
300.91241
239.51212
176.28559
112.97695
112.51642
174.93584
237.44759
298.24934
650.84918
645.12286
295.65506
235.43714
173.62231
112.06862
111.63216
172.34256
233.47625
293.12377
639.53114
634.06836
290.65472
231.56433
171.0954
111.20702
110.79264
169.87721
229.69535
288.24095
628.72777
623.50265
285.87427
227.86189
168.68179
110.38496
109.98333
167.51316
226.06714
283.55645
618.39104
613.38842
281.29044
224.31322
166.37111
109.58974
109.20741
165.25989
222.60328
279.07892
608.49116
603.69386
276.91756
220.93287
164.17506
108.8355
108.47068
163.11476
219.29742
274.80014
598.99227
594.38285
272.72574
217.69566
162.07633
108.11284
107.76086
161.05852
216.12428
270.69027
589.86194
585.4264
268.6941
214.58343
160.06027
107.41486
107.07361
159.08103
213.07049
266.73383
581.07328
576.79927
264.81024
211.58605
158.11986
106.73733
106.40482
157.17648
210.12778
262.92028
572.60105
568.47474
261.06536
208.69653
156.24987
106.07619
105.7504
155.34121
207.2923
259.24575
564.41593
560.4194
257.47302
205.92327
154.4537
105.42832
105.11158
153.59833
204.60492
255.76846
556.4783
552.58474
254.17984
203.37273
152.79497
104.80423
104.51339
152.06785
202.26193
252.75421
548.72017
544.84734
251.49318
201.27299
151.41158
104.23227
103.93572
150.69158
200.20067
250.14226
540.84967
536.56964
248.1427
198.61006
149.62233
103.52102
102.94914
147.87223
195.98876
244.81623
531.83243
526.54461
240.02683
192.1882
145.36888
102.41843
101.04948
141.42932
186.02059
232.47573
519.77281
531.20341
213.68773
169.97374
130.08417
97.581324
104.4648
145.18409
191.33657
238.92538
524.24103
525.69313
239.91507
192.29729
146.02746
104.44649
102.09518
145.39058
192.16484
239.87096
527.34263
532.21217
244.76675
195.98356
147.89231
102.8262
103.43871
149.65948
198.67648
248.21427
536.86203
541.0883
250.25184
200.29204
150.74869
103.8969
104.21015
151.47005
201.36735
251.6094
545.05736
548.90965
252.86753
202.35398
152.12595
104.50467
104.80178
152.85099
203.45946
254.28617
552.76043
556.64411
255.86907
204.68682
153.65108
105.11394
105.43283
154.50387
205.99979
257.56696
560.57769
564.56791
259.33518
207.36479
155.38828
105.75704
106.08342
156.29441
208.76419
261.149
568.62137
572.74302
263.00029
210.19207
157.21818
106.41313
106.74567
158.1593
211.64615
264.88525
576.93713
581.20734
266.80614
213.12804
159.11821
107.08272
107.42397
160.09587
214.6377
268.76232
585.55684
589.98877
270.75724
216.17751
161.0931
107.77096
108.12338
162.11098
217.74781
272.79085
594.50665
599.11374
274.86684
219.35122
163.15062
108.48258
108.84826
164.21286
220.98789
276.98496
603.81354
608.6097
279.14914
222.6606
165.2989
109.22163
109.60242
166.40958
224.36951
281.3592
613.5065
618.50773
283.61945
226.11773
167.54636
109.99187
110.38979
168.71012
227.90552
285.92978
623.61781
628.84123
288.29461
229.73605
169.90236
110.79729
111.21423
171.12379
231.6095
290.71383
634.18281
639.64817
293.19226
233.52938
172.3763
111.64171
112.07964
173.66052
235.49589
295.72981
645.24255
650.97244
298.33144
237.51255
174.97833
112.52905
112.98998
176.33017
239.57952
300.99708
656.84389
662.86365
303.73243
241.70115
177.7188
113.4636
113.95054
179.14596
243.87934
306.53933
669.03812
675.37487
309.42409
246.11896
180.6148
114.4521
114.96848
182.12594
248.42103
312.38814
681.8819
698.37605
292.02017
231.52692
170.36499
110.37857
109.89713
168.97875
229.39891
289.26195
691.73201
685.26106
286.57775
227.32856
167.63105
109.42954
108.97483
166.32009
225.31267
283.9635
678.95575
672.80892
281.41733
223.35007
165.04486
108.5322
108.10121
163.80376
221.43802
278.9355
666.81239
660.95912
276.51609
219.57508
162.59551
107.68181
107.27284
161.41796
217.75733
274.15445
655.24353
649.65938
271.84983
215.9842
160.27012
106.87414
106.48465
159.15038
214.25252
269.5983
644.20134
638.86406
267.39957
212.56207
158.05785
106.10441
105.73247
156.99138
210.90998
265.24989
633.64251
628.53187
263.14913
209.29619
155.9501
105.36898
105.01285
154.93288
207.71767
261.09339
623.52766
618.62557
259.08257
206.17432
153.93858
104.66433
104.32229
152.96636
204.66321
257.11285
613.82145
609.1118
255.18426
203.18421
152.01484
103.98691
103.65702
151.08337
201.73447
253.29309
604.49271
599.96114
251.43963
200.31406
150.17055
103.33282
103.013
149.27594
198.92035
249.6204
595.51359
591.1469
247.8358
197.55349
148.39819
102.69774
102.38566
147.53713
196.21126
246.08291
586.8579
582.64295
244.36326
194.89456
146.69165
102.07683
101.77003
145.86303
193.60334
242.677
578.4979
574.41767
241.03512
192.3452
145.05386
101.46585
101.16549
144.2744
191.13432
239.4573
570.39522
566.42222
237.98871
190.00373
143.54232
100.87161
100.59185
142.8817
188.98675
236.67379
562.47924
558.53203
235.52103
188.08908
142.28763
100.31498
100.03446
141.64811
187.12297
234.29317
554.4702
550.1826
232.47861
185.68056
140.65193
99.604895
99.089943
138.90477
182.95403
229.02444
545.2696
540.61827
224.86271
179.75752
136.56467
98.114309
532.1885
211.56869
168.18
128.55115
96.147337
98.810234
136.02317
178.80769
223.91015
540.16168
545.37041
229.12861
183.04318
138.87708
99.12159
99.68285
140.63297
185.60518
232.37763
550.1361
554.44385
234.23262
187.06853
141.60615
100.05449
100.33372
142.26167
188.04696
235.4742
558.51108
562.46519
236.64237
188.95709
142.86103
100.60416
100.88107
143.52797
189.98154
237.96501
566.41336
570.3902
239.43968
191.11732
144.2625
101.1729
101.4711
145.0447
192.33127
241.02045
574.41575
578.49845
242.66614
193.59259
145.85525
101.77447
102.07989
146.68568
194.88555
244.35398
582.6455
586.86193
246.07656
196.20468
147.53212
102.38853
102.69972
148.39452
197.54793
247.83021
591.15198
595.51938
249.6171
198.91662
149.27292
103.01506
103.3342
150.16845
200.31086
251.4366
599.96727
604.49912
253.29204
201.73287
151.08183
103.65866
103.98804
152.01419
203.18302
255.18332
609.11819
613.8278
257.11396
204.66366
152.96633
104.3237
104.66528
153.9393
206.17504
259.08368
618.63141
623.53294
261.09629
207.71978
154.93411
105.01405
105.36969
155.9517
209.29808
263.15154
628.53607
633.64529
265.25344
210.91272
156.99322
105.73338
106.10482
158.05955
212.56395
267.40186
638.86496
644.19969
269.60054
214.25433
159.15179
106.4851
106.87385
160.27036
215.98374
271.84909
649.65446
655.23439
274.15181
217.75529
161.41691
107.27218
107.68002
162.59214
219.56936
276.50888
660.94556
666.79361
278.92512
221.42954
163.79809
108.09853
108.52794
165.03593
223.33684
281.40135
672.78478
678.92585
283.94343
225.29584
166.30847
108.96948
109.42316
167.61616
227.30693
286.55202
685.22437
691.6881
289.23265
229.37427
168.96152
109.89008
110.37069
170.34572
231.49922
291.98692
698.32504
115.98074
185.22754