/*--------------------------------*- C++ -*----------------------------------*\
  =========                 |
  \\      /  F ield         | OpenFOAM: The Open Source CFD Toolbox
   \\    /   O peration     | Website:  https://openfoam.org
    \\  /    A nd           | Version:  7
     \\/     M anipulation  |
\*---------------------------------------------------------------------------*/
FoamFile
{
    version     2.0;
    format      ascii;
    class       surfaceScalarField;
    location    "500";
    object      phi;
}
// * * * * * * * * * * * * * * * * * * * * * * * * * * * * * * * * * * * * * //

dimensions      [1 0 -1 0 0 0 0];

internalField   nonuniform List<scalar> 
76009
(
0.0017813942
1.4785692
-1.480328
-2.0329161
2.0328848
-36.227959
2.0780839
-2.0799909
-2.0794369
2.076922
-34.810002
0.00030808124
0.0016266477
2.032913
1.4786335
-1.4802805
-2.032883
-36.227893
2.0769657
2.0781357
-2.0799195
-2.0793472
0.00021699557
-34.8098
-0.0027366307
-9.325622
-0.0026691377
-0.3831677
0.37475757
0.36804432
-0.39128084
0.36806119
0.374789
-0.38314928
-0.39127337
-0.012467811
-7.6964156
0.066332259
-7.4068307
0.012531867
-0.012793165
-0.012757138
-10.341889
0.0053370221
-0.05500494
-9.6924238
-0.0052956597
0.3834221
0.3786935
-0.37544933
-0.38018366
0.38343529
-0.38017456
-0.3754461
0.37869798
-9.3279846
7.6964402
-0.054968005
-9.6924412
0.066412784
0.37063479
-0.37691658
0.52399542
-0.53759584
-8.2569832
-0.001727697
-0.00011069534
-0.57860534
-0.020063339
0.023913736
-0.024944724
0.032542296
-0.00030849426
-0.56492622
0.032732789
-0.025186677
-0.025307466
0.032622448
-0.011036581
-0.0077259648
-2.481094
0.098794754
0.13271306
-0.12916498
-0.096140894
0.0035947804
-2.6368832
0.094986141
-0.092194124
-0.12662217
0.12825363
-0.13029668
-2.3428445
0.0024605428
-0.47562484
0.0020433169
-0.0016392585
-0.0014061865
0.00065666571
-0.5754424
-0.031890646
-0.023485869
0.023775034
0.032334449
-0.52701719
0.0016238345
-0.00065951089
0.00042545197
-0.65441921
-0.0015289001
-0.0004207424
-0.66419863
0.48061483
-0.62367445
0.0097256195
0.0062910925
0.0047514854
-0.13146724
-0.51096641
-0.023260166
0.023554967
0.032690825
-0.032745823
-0.0017170029
-0.13248496
-0.10176773
0.098021502
-0.10176366
-0.1324766
-2.3805422
0.002074744
0.1365348
0.13360401
-0.13103793
-0.13369283
-2.5352161
0.13606757
-0.13334549
-0.12902051
0.13155926
-2.4760531
4.8626439e-05
-7.774341e-05
0.0016508801
-0.53353537
-0.00065711046
-0.00080186273
0.001687304
-0.53492448
0.0016451758
-0.531657
8.8997819e-05
-0.54547802
-4.8814992e-05
0.032309071
0.032352678
-0.031921493
-0.031914984
4.9066563e-06
-0.54627374
0.032385828
-0.031914095
-0.031930835
0.032350198
-0.54741321
-0.032091903
0.032541797
0.032385104
-0.031914064
0.0028145076
-0.00030525575
0.00011224447
0.032735607
0.032625822
-0.025301861
-0.025182039
-0.56491224
-0.00056576284
-0.6588892
-0.0029379591
-0.00012714549
-0.66611797
-0.00013320004
0.032626217
0.032588492
-0.025382871
-0.025310734
-0.56390486
0.0030048936
-1.1438139e-05
-0.025379655
0.032589507
0.032550365
-0.025376724
-0.56298817
0.00056989331
-0.66457301
0.52518104
-0.003025881
-0.65062097
1.5198169e-05
0.0016158334
1.735901e-05
-0.54364662
1.726024e-05
-0.031895829
0.032295959
0.032272292
-0.031881607
-0.56105794
1.5970939e-05
-0.02535504
0.032536894
0.032515188
-0.025339014
0.0046650307
3.3094675e-05
-0.57237165
1.293565e-05
0.0066026556
-0.12870464
0.00065109539
-0.5179157
1.3311654e-05
-0.50017752
0.0024334485
-2.0269684
-0.10833915
0.13310497
-0.1048527
4.1657635e-05
0.0017743484
-7.7911646
0.51964939
-0.54585093
-0.52581458
9.9078964e-05
-8.2569239
-0.3768906
0.37065885
0.52400965
-0.53756954
0.012393252
0.54772155
0.3861186
-0.375684
-0.52895218
-10.433446
0.55316196
7.8946591e-05
-0.53192945
-0.5140313
0.53640001
-9.9017987
-0.0068401404
0.020232388
2.6816059
-2.1402844
-0.0015517462
-0.01332833
2.6567001
-2.1178163
0.01532592
2.6261248
0.0063881657
-1.8763006
1.8142596
0.02169888
0.030108024
0.042696343
0.035885629
-2.10385
-0.084989594
-0.00299544
0.12978117
0.096580374
-0.10470369
0.040328811
-0.003349333
0.63388896
0.021540651
-2.3268393
-0.0074667576
0.61574085
0.53946884
0.62211114
0.077650067
-0.098066836
-0.13417288
0.096474049
0.084336455
0.47526575
-0.0045066094
-0.0061962287
-2.0377632
0.094764903
0.12576237
-0.11880056
0.081458384
-2.1869491
-0.19044628
-1.9495564
0.0027067731
0.14498213
-0.0047589867
0.00095887058
-0.14294599
-2.1782596
-0.0066886107
-2.6302386
0.0049623606
-0.0024863549
-2.6559331
2.3144214
0.09589813
0.13054376
-0.12960596
-0.095175583
0.00039689435
-2.3105574
0.001499648
0.13178493
0.096383545
-0.094794473
-0.1292588
2.2163227
-2.2004434
1.2106814e-05
-0.12990904
0.13275144
0.13211493
-0.12911675
0.62856373
-0.06442729
-0.001819784
0.63333083
0.54547037
0.54223505
0.098746835
-0.13600831
-0.13517887
0.097943367
0.10539853
-0.0018681187
0.52325007
0.0054570307
-0.0036737763
-2.0661605
-0.10879094
0.13351531
0.13070592
0.0018178509
0.061839944
3.1309087e-05
-2.6128364
0.63242444
0.54154565
0.5392135
0.61774914
3.5384657e-05
0.097940139
-0.13487224
-0.13469165
0.097641207
-2.1969654
0.0010767587
-0.0040180918
0.52627896
0.00074766067
0.52769126
-0.0039427331
-0.00030982818
-0.0045091784
-9.2388866e-05
-0.00088567679
-0.0043573595
-0.0023866103
-0.51993161
-0.0032055092
2.578557e-05
-0.51576793
0.0098903754
0.0079912525
-0.0030789762
-0.020255271
0.0032633498
0.57475338
-0.037839416
-0.0037874492
0.57859428
0.0034121412
-0.00056817716
0.023916748
-0.020059665
-0.024940805
0.032544566
-0.02375198
-0.11761931
0.00057588805
0.16436302
0.00034912807
-0.020323422
0.032745724
-0.029819536
-0.010760368
-0.63275465
-0.15566542
-0.0011071712
-0.0012298035
0.15371614
0.1558058
0.13476937
-0.0070711019
-0.022777389
0.018951058
0.023171901
-0.028202973
-0.0030638717
-0.57755221
0.12943581
-0.00065025384
-0.0011173875
0.16269966
-0.00021766251
7.4265842e-05
0.00012495207
0.13076859
-0.00010087513
1.6342132e-05
0.11834045
-0.00059851637
0.00020063516
0.00041766459
-0.0001027763
0.00010049462
0.00011791318
-0.14562971
-0.00018058874
-6.0853672e-05
-0.13142168
8.3130068e-05
-2.0826033e-05
-0.16404058
-0.00070462039
-0.14538337
-0.00034861721
-1.9423239e-05
-0.00036305242
-0.14386122
-0.0012514206
-0.0001253377
-0.13064138
-0.00066739397
-0.00063698728
-0.0052479405
-0.0094083403
-0.0009707492
0.00011518699
0.14491638
0.0003046866
-0.15421011
-0.00053448373
0.028502353
0.13137283
7.0470138e-06
-0.16501498
0.49520438
0.032999593
0.032222719
-0.03234132
-0.035097934
-0.57701318
0.032570824
-0.032424442
0.031912357
-0.032274667
0.031465475
-0.1314535
-0.000140794
-0.00011191388
-3.9002831e-05
-0.00054491778
-0.16399864
0.14537559
-0.00043356372
-0.14528332
-4.6325251e-05
-0.00021986509
-9.0598226e-05
0.00015746594
-0.14473592
-0.00021601206
-0.00011139712
-0.12995524
-7.9084973e-05
-7.9145479e-05
-0.16210493
-0.00059074978
-0.1448644
-0.00031258827
-7.1636841e-05
0.0011567047
-0.00020144904
-0.14548664
-0.00030507435
-2.7944219e-05
-0.00039491432
-6.6737659e-05
-0.00068853144
-0.13051893
-0.00025327007
0.00013015118
-0.0007119818
-0.16227137
-0.00030037062
-0.14469426
-5.717159e-05
-2.8751055e-05
-0.14370997
0.14386324
-3.2152638e-05
-0.00039274499
0.032630734
-0.16273557
-0.0003819586
0.12974606
0.035105502
-0.59558479
-0.032630726
0.032529394
0.52669537
0.024234165
-0.02478937
-0.024788936
0.024233958
0.032528224
0.010768941
-0.57701667
0.032223049
0.033001524
-0.028501983
-0.032342199
-0.63276091
-0.020322593
0.023754378
0.032746701
-0.02982005
-0.00014182681
-0.56392212
0.032622625
-0.025316887
-0.025390856
0.032583263
-2.5123291e-05
-0.56300732
0.032584329
-0.025388033
-0.025387749
0.032542416
-0.56107818
0.032529374
-0.025366198
-0.025353363
0.03250403
-1.1253762e-06
4.6722054e-05
0.006565286
-2.4342917e-06
0.004694924
-0.57238268
0.00025195153
0.0066986757
0.0046535829
-0.57456481
0.00070694088
0.0045268092
-0.57590701
0.0070030974
0.00057035377
0.0043705196
-0.57658909
0.0074289461
-0.00989132
0.0032156103
-0.57476092
0.0034016383
-0.12576494
-1.8249838e-05
-0.51577278
0.0079823289
-0.035863171
-2.0377718
-0.084333119
0.094772146
-0.11880131
0.081432406
-1.814271
0.042714978
0.030091513
0.02170674
-2.6261351
-0.021539248
-2.1869536
-0.19046078
0.63389509
-0.04030356
-2.3268476
-0.0074802454
0.62211892
0.53947183
0.61574411
0.077645136
-0.098071318
-0.13417943
0.09646782
0.08499919
-0.0061956171
0.47527111
-0.0045127118
-2.1038737
-0.0029839457
-0.10471407
0.12977535
0.096572634
-2.6567179
-0.0033484517
-0.013332546
-0.54770498
0.015305999
-2.1178246
0.0068382329
-0.38610131
-1.8763056
0.0063745731
-0.37570093
-0.52897012
0.012407434
-10.433485
0.0047481395
-0.0066859382
-2.6302433
1.9495586
0.00095812148
-2.1782609
-0.14295378
0.0027054616
0.14497207
-2.3144245
0.0014881745
0.09638047
-0.09479734
-0.12926305
0.13178008
-0.0049467765
-2.3105585
0.00038941268
0.095895817
-0.095177733
-0.12960888
0.13054028
-0.0024877226
-2.6559397
0.53195443
-2.6831287
0.0024292034
2.1402933
0.0059640339
7.7912591
-9.9018538
-0.51406274
0.53636498
0.55313747
7.9929942e-05
0.5196221
-0.54589183
0.50013891
-0.52586912
0.00010792398
-2.0661905
-0.10541196
0.13069755
0.1335039
-0.10880868
-0.0024379218
0.064387773
-2.6816277
0.0018090698
0.62857386
0.6333409
0.54223716
0.54547472
-2.2163301
-0.0018497801
-0.13601518
0.098739237
0.097929034
-0.13519235
0.0054585755
0.52325942
-0.0018713395
-0.0036847609
0.51993951
-0.003271694
-0.0023893752
0.00088676157
0.00030806382
-0.52770245
-9.8046841e-05
-0.0039574878
-0.0010840866
0.00090742327
-0.00085143872
-0.037683323
0.0037914763
-0.037683187
0.0030798578
-0.03784916
-0.020262827
0.11750957
0.50176
0.0072353331
0.0087200487
-0.65548778
-2.2126955
-0.11751133
0.12602683
0.091464015
-0.1024613
0.09146536
0.12603208
-0.10246192
0.10984321
0.096425084
0.10984372
-0.096283364
-0.097995527
0.09642649
-0.097993945
-0.096282957
-2.6175853
0.65548518
0.003033942
-0.47141973
0.00039388522
0.50175678
0.0087239125
0.0072378925
-0.0040508916
-0.5154229
-0.020950984
0.027463632
-0.030601523
0.031596914
0.018314803
-0.0050281798
-0.050073043
-0.55405906
0.15883282
0.15606731
0.13515434
0.15519843
-0.012016574
-0.002133803
0.023152465
0.018823554
-0.02466968
-0.033544684
-0.57989236
0.11859299
-0.0013183537
-0.0021701872
-0.00013503185
0.00012772666
-0.13040744
-0.00015265431
-0.00061314424
-0.0022315251
-0.0016299385
0.0012176275
0.14315915
-0.0013480027
-0.010105954
0.12962676
-0.0059824135
3.1295076e-05
-0.00095125712
-0.0013338544
-0.00032261545
-7.2001632e-05
-0.14364306
-0.001158133
-0.00017062415
-0.032527193
-0.13043875
-0.00079288904
-0.018311194
0.032526725
-0.029819927
-0.025259527
0.024198844
-0.56225455
-0.029818802
-0.025258415
0.024199673
0.0040569824
-0.020951682
0.027463806
0.031596063
-0.030602956
-0.51542472
0.0070704735
0.15566841
0.15580791
0.13477122
0.15371958
-0.0030698767
-0.57755786
-0.022779686
0.018948966
-0.028206074
0.023169522
0.11762171
-0.0012321931
-0.0011070381
0.00034624951
0.00057667343
-0.00020113502
0.0011601963
-0.14548921
-0.00030817704
-2.9407457e-05
0.00069118884
-0.13052054
-0.00025615829
0.00067088033
0.00039497576
-0.1313748
-0.13064384
0.00036347821
-0.00063718217
-0.005250988
0.00065322511
0.14386455
-0.0094119279
-0.00097180249
0.12943904
-0.0011179953
-0.00022116824
7.4538885e-05
-0.001255019
-0.00012568205
-0.14491934
-6.7620965e-05
0.00011582077
0.00030180808
-0.00053627773
-0.15421262
4.9468924e-06
-0.1650169
0.00012910781
-0.00071408185
-0.16227282
-0.00030277608
-5.9371138e-05
-0.14469615
-2.7442622e-05
0.14386526
-0.00039430793
-3.4886139e-05
-0.1437114
0.12974719
-0.00038292576
-0.16273652
0.16223341
-7.533789e-06
-0.00020544278
0.032496601
0.12947415
-0.00019081477
-0.00014110702
0.032261126
0.024140491
-0.02460808
-0.032498714
0.032257058
-0.024609079
0.024138304
-0.0013400442
2.0769868
-2.0793459
-2.0798258
2.0782898
-34.809798
1.4787759
2.0330469
-2.0328082
-1.4801937
-36.227839
-0.53034159
-10.423063
-0.36949012
0.37484573
0.058485735
0.0020028338
0.13654618
-0.13368676
-0.13102044
0.13362863
-0.0035249625
-2.5352405
0.13155691
0.13608425
-0.13333295
-0.12902356
-2.4760614
0.0006843691
-0.52518261
0.0016204191
-0.0017060113
-0.00011799806
-0.54628318
2.8634972e-05
0.032394666
0.032355091
-0.031927719
-0.031907224
4.7206185e-05
-0.53493157
-0.00078044602
-0.53353973
0.0016633073
0.00054589396
-0.0029948975
0.00015435676
-0.66457804
-0.0030222618
-0.65062282
0.54364884
4.2239435e-05
-0.5610602
0.032513996
0.032540806
-0.025352145
-0.025339823
8.1847392e-05
-0.031883069
0.032271044
0.032300669
-0.031891887
-0.54548418
0.032311197
-0.031913984
-0.031915752
0.032359925
0.00016075707
-0.56299427
0.032551831
0.032595495
-0.025375141
-0.025375512
0.0029228247
0.00032836274
-0.56391451
0.032633622
0.032592256
-0.025379899
-0.025305079
0.00058517486
-0.66612633
0.53166583
-0.0027958127
-0.00040569914
-0.65889958
0.0016678767
-0.0016024413
-0.54742488
0.032551339
0.032391801
-0.031909501
-0.032084578
-0.00063852204
0.00013039818
-0.56492422
0.032743713
0.032631199
-0.025297638
-0.025175783
0.0015077331
0.032551018
0.57545647
-0.024935741
-0.020053054
0.023925344
-0.57860812
-0.0097132534
0.12915307
0.52702741
-0.65443145
-0.00064699837
-2.6369203
0.13273252
-0.096120124
0.098823056
0.011074664
6.0324201e-05
-0.0020876898
1.4956657e-05
-3.5761727e-05
0.00012262271
-0.0025454538
1.9188961e-05
-3.9951008e-05
0.0001908198
-0.0029173614
2.2452197e-05
-4.3669753e-05
0.00026989599
-0.0032922517
2.5232153e-05
-4.780347e-05
-0.054791665
0.00050421482
-0.000465731
-0.00016856779
-0.00023169002
-0.054850576
0.00030493765
-0.00020050728
0.00018617106
-0.00016337228
-0.0033557993
1.7849627e-05
-2.2619741e-05
-0.00010128326
-0.0029749229
1.646782e-05
-2.0995308e-05
-4.595514e-05
-0.0025965856
1.5267677e-05
-1.9463963e-05
-0.0021300759
1.3931616e-05
-1.7500593e-05
2.0241376e-05
-0.0021478556
3.172576e-06
-5.6342939e-06
4.1440025e-05
-0.0026154072
3.8911828e-06
-6.2681928e-06
6.4696853e-05
-0.0029957499
4.2758884e-06
-6.7057437e-06
9.0976518e-05
-0.0033795271
4.6210185e-06
-7.1728876e-06
-0.05511744
0.00010795313
-6.4190895e-05
0.00031407747
-3.6915113e-05
-0.055453579
7.0067141e-05
-2.3415791e-05
0.00032640315
-2.6373778e-05
-0.0033901946
3.1571365e-06
-3.030889e-06
-1.6736855e-05
-0.0030054291
2.9407477e-06
-2.8984283e-06
-7.9197867e-06
-0.002624214
2.8006142e-06
-2.8107496e-06
-0.0021557498
2.7481402e-06
-2.7737019e-06
3.4875881e-06
-0.0021591071
1.4927835e-06
-1.6230548e-06
6.7413545e-06
-0.0026274462
1.6382166e-06
-1.6597057e-06
9.9847359e-06
-0.0030087448
1.7702397e-06
-1.6978006e-06
1.3375262e-05
-0.0033937648
1.9327414e-06
-1.7529675e-06
-0.055739323
4.8342566e-05
-1.2357329e-05
0.00026313382
-7.648573e-06
-0.055935257
3.890155e-05
-1.0761975e-05
0.00017544327
-5.8809257e-06
-0.003395785
1.7806399e-06
-1.5280714e-06
-4.060252e-06
-0.0030107334
1.6433305e-06
-1.4754026e-06
-2.1281415e-06
-0.0026294785
1.5324097e-06
-1.43203e-06
-0.0021612942
1.4464012e-06
-1.387368e-06
1.8746709e-06
-0.0021631448
1.168891e-06
-1.1927452e-06
3.4466374e-06
-0.0026310751
1.2883591e-06
-1.2636142e-06
4.8527646e-06
-0.003012215
1.3951764e-06
-1.3195977e-06
6.1814141e-06
-0.0033972472
1.5123642e-06
-1.3787017e-06
-0.056050171
3.0263974e-05
-1.0201701e-05
0.00010103393
-5.8215459e-06
-0.05611048
2.3490768e-05
-9.212244e-06
5.1851694e-05
-4.5774943e-06
-0.0033985656
1.2805418e-06
-1.2061926e-06
-3.2579128e-06
-0.0030135713
1.1852095e-06
-1.1484477e-06
-1.7756851e-06
-0.002632561
1.0963065e-06
-1.0925574e-06
-0.0021648983
1.000974e-06
-1.0231426e-06
1.7211974e-06
-0.0021665808
8.0665868e-07
-8.4533314e-07
3.1257572e-06
-0.0026339478
8.9230282e-07
-9.0999159e-07
4.3607206e-06
-0.0030148131
9.6764915e-07
-9.6080359e-07
5.5157084e-06
-0.0033997537
1.0451998e-06
-1.012145e-06
-0.056140426
1.8248675e-05
-7.8795961e-06
2.5092137e-05
-5.276e-06
-0.056155708
1.4453115e-05
-6.5599299e-06
1.2664903e-05
-4.1861106e-06
-0.0034008567
8.4823111e-07
-8.350041e-07
-3.0154135e-06
-0.0030159766
7.8440464e-07
-7.9149176e-07
-1.6727345e-06
-0.0026352636
7.2149425e-07
-7.4832336e-07
-0.0021682103
6.5036693e-07
-6.9352774e-07
1.6312561e-06
-0.0021697937
5.1999943e-07
-5.6768775e-07
2.9234072e-06
-0.0026365223
5.802871e-07
-6.135908e-07
4.03324e-06
-0.0030170707
6.3394459e-07
-6.4963677e-07
5.055966e-06
-0.0034018814
6.8770375e-07
-6.8569616e-07
-0.056164575
1.168401e-05
-5.4079659e-06
7.6478136e-06
-4.8844809e-06
-0.056170694
9.6148698e-06
-4.45833e-06
5.8464869e-06
-3.9127885e-06
-0.003402849
5.6045894e-07
-5.6460253e-07
-2.850543e-06
-0.0030181127
5.1440202e-07
-5.3465056e-07
-1.5989083e-06
-0.0026377371
4.6775526e-07
-5.0456229e-07
-0.0021713427
4.1549482e-07
-4.6537951e-07
1.5746535e-06
-0.0021728657
3.3064098e-07
-3.8202837e-07
2.791949e-06
-0.0026389149
3.7589594e-07
-4.1526241e-07
3.8187166e-06
-0.0030191158
4.1666877e-07
-4.4023115e-07
4.7480728e-06
-0.0034037705
4.5678235e-07
-4.6459617e-07
-0.05617555
7.9889969e-06
-3.6592419e-06
5.2741306e-06
-4.6472687e-06
-0.056179707
6.5889991e-06
-2.9610037e-06
5.1768777e-06
-3.748445e-06
-0.0034046578
3.674696e-07
-3.7892721e-07
-2.7514253e-06
-0.0030200862
3.3289124e-07
-3.5943408e-07
-1.5583812e-06
-0.0026400659
2.9759062e-07
-3.3950675e-07
-0.0021743706
2.5930713e-07
-3.1281354e-07
1.5489443e-06
-0.0021758602
1.9123007e-07
-2.5043002e-07
2.7248437e-06
-0.0026411934
2.2220524e-07
-2.7056917e-07
3.7003881e-06
-0.0030210279
2.5175178e-07
-2.8560782e-07
4.5724572e-06
-0.0034055102
2.8035524e-07
-3.0001901e-07
-0.056183341
5.2061415e-06
-2.300134e-06
5.300792e-06
-4.529326e-06
-0.056186511
3.6557124e-06
-1.5939735e-06
5.6367595e-06
-3.6709153e-06
-0.003406333
1.8217911e-07
-2.1772175e-07
-2.7095372e-06
-0.0030219413
1.6092201e-07
-2.0881963e-07
-1.5423629e-06
-0.0026422996
1.3881088e-07
-1.9961969e-07
-0.0021773325
1.1702374e-07
-1.8712879e-07
1.5440138e-06
-0.0021787908
3.3127979e-08
-1.1867124e-07
2.7021448e-06
-0.0026433779
4.2135176e-08
-1.2188115e-07
3.6577616e-06
-0.0030228277
5.4910882e-08
-1.2408942e-07
4.5047878e-06
-0.003407121
6.7084692e-08
-1.2609879e-07
-0.056189248
1.8355656e-06
-7.8777407e-07
6.1942816e-06
-4.5031276e-06
-0.05619138
-2.2758663e-07
5.3109488e-09
6.8579407e-06
-3.6587717e-06
-0.003407858
-6.4150416e-08
-4.3137078e-08
-2.7072446e-06
-0.0030236655
-6.5686491e-08
-4.7922328e-08
-1.5474372e-06
-0.0026444173
-6.7368966e-08
-5.2918401e-08
-0.0021802173
-6.168883e-08
-5.9229761e-08
1.557208e-06
-0.0021816429
-1.5270493e-07
2.119607e-08
2.7216141e-06
-0.0026454471
-1.7331779e-07
3.8722897e-08
3.6718804e-06
-0.003024485
-1.8244852e-07
5.1720137e-08
4.519545e-06
-0.0034085782
-1.9123943e-07
6.3836354e-08
-0.056193082
-2.2007975e-06
8.9401762e-07
7.528294e-06
-4.5389275e-06
-0.05619443
-3.402004e-06
1.3443063e-06
7.9444342e-06
-3.6912859e-06
-0.003409272
-2.7116556e-07
1.1730497e-07
-2.731012e-06
-0.0030252906
-2.5623618e-07
1.0150808e-07
-1.565994e-06
-0.0026464566
-2.4006472e-07
8.4662802e-08
-0.0021830608
-2.0987771e-07
6.1802725e-08
1.5705628e-06
-0.002184483
-2.019358e-07
5.3565492e-08
2.7407675e-06
-0.0026474697
-2.3048058e-07
7.3459199e-08
3.6971509e-06
-0.0030260897
-2.4516185e-07
8.7918094e-08
4.54536e-06
-0.0034099629
-2.5864032e-07
1.0136097e-07
-0.056195726
-3.1562541e-06
1.1452052e-06
7.8528063e-06
-4.5470243e-06
-0.056197392
-1.1763067e-06
1.9355088e-07
7.1958296e-06
-3.7010419e-06
-0.0034106749
-1.393222e-07
5.3454672e-09
-2.7469248e-06
-0.0030269077
-1.3715815e-07
1.0797978e-09
-1.5782086e-06
-0.0026485002
-1.3485286e-07
-3.3445153e-09
-0.0021859282
-1.2315738e-07
-9.8605831e-09
1.5818808e-06
-0.0021874138
2.5542483e-08
-1.218206e-07
2.7511416e-06
-0.0026495754
4.3819552e-08
-1.378055e-07
3.7050204e-06
-0.003027775
6.3432984e-08
-1.4996763e-07
4.5474245e-06
-0.0034114378
8.1696398e-08
-1.611283e-07
-0.056199858
2.3997977e-06
-1.4087541e-06
6.0226704e-06
-4.5816933e-06
-0.056203328
6.8178501e-06
-3.3133542e-06
4.547242e-06
-3.7319114e-06
-0.0034122832
3.5838859e-07
-3.6277887e-07
-2.7721876e-06
-0.0030287164
3.1524103e-07
-3.3356305e-07
-1.5962233e-06
-0.0026507181
2.686553e-07
-3.0194223e-07
-0.0021889647
2.1390137e-07
-2.5918299e-07
1.6015389e-06
-0.0021905766
3.9392921e-07
-3.8347863e-07
2.7824192e-06
-0.0026519293
4.8040897e-07
-4.5006276e-07
3.7461222e-06
-0.0030297324
5.5100327e-07
-4.9864745e-07
4.5998209e-06
-0.0034132106
6.1707627e-07
-5.4333884e-07
-0.056207902
1.0892786e-05
-4.9882948e-06
3.2687389e-06
-4.6580335e-06
-0.056213315
1.3328283e-05
-5.8778024e-06
2.6212124e-06
-3.7921733e-06
-0.003414205
7.6800484e-07
-6.3949107e-07
-2.8162584e-06
-0.0030308097
6.8786188e-07
-5.8648582e-07
-1.6208705e-06
-0.0026531982
6.0237723e-07
-5.2879688e-07
-0.0021922436
4.9584892e-07
-4.4971302e-07
1.647073e-06
-0.0021939663
4.9658553e-07
-4.209585e-07
2.8690366e-06
-0.0026545278
6.0479022e-07
-4.9708523e-07
3.8715608e-06
-0.0030319513
6.9164155e-07
-5.5257036e-07
4.7642117e-06
-0.0034152674
7.7309594e-07
-6.0331797e-07
-0.056219243
1.3479707e-05
-5.6052968e-06
2.8173265e-06
-4.9351908e-06
-0.056225055
1.1373746e-05
-4.4564768e-06
3.8298857e-06
-3.9994744e-06
-0.0034163517
6.3427721e-07
-4.8569774e-07
-2.9535248e-06
-0.0030331153
5.6372543e-07
-4.4563772e-07
-1.6898008e-06
-0.0026558785
4.8882011e-07
-4.0181101e-07
-0.0021957136
3.9840255e-07
-3.4098937e-07
1.743662e-06
-0.0021974917
2.3215103e-07
-1.9759906e-07
3.0578587e-06
-0.0026572464
2.8497703e-07
-2.3123658e-07
4.1562442e-06
-0.0030342954
3.3744486e-07
-2.5567107e-07
5.1448167e-06
-0.0034174517
3.894597e-07
-2.7793356e-07
-0.056230409
7.6009957e-06
-2.5219638e-06
5.420063e-06
-5.3177117e-06
-0.056235197
3.0555202e-06
-4.2199248e-07
7.4723898e-06
-4.2957073e-06
-0.0034185056
8.5327873e-08
-5.3495768e-08
-3.1649978e-06
-0.0030354321
5.6612431e-08
-5.0598581e-08
-1.8056031e-06
-0.0026585865
2.7441533e-08
-4.6655013e-08
-0.0021992617
4.2929897e-09
-3.9935699e-08
1.7703977e-06
-0.0022009558
-1.690147e-07
9.2968413e-08
3.0915156e-06
-0.0026598559
-1.6279997e-07
1.111256e-07
4.1884933e-06
-0.0030365004
-1.5334281e-07
1.2470314e-07
5.1743772e-06
-0.0034194822
-1.4689661e-07
1.3765367e-07
-0.056240238
-6.8262146e-07
1.3431038e-06
9.5554026e-06
-5.6146924e-06
-2.7136108e-06
2.4337879e-06
1.0352902e-05
-4.5172145e-06
-2.8065625e-07
2.5680027e-07
-3.3137421e-06
-2.7665364e-07
2.3402769e-07
-1.8848616e-06
-2.7698463e-07
2.0997006e-07
-2.7300612e-07
1.7640636e-07
-5.214853e-06
0.082170546
-2.6980664e-06
1.4146505e-05
-4.1092101e-06
0.0035179456
-1.5494417e-07
-2.9548918e-06
0.0030633555
-1.3434028e-07
-1.6493649e-06
0.0026329857
-1.112904e-07
0.0021373377
-7.968666e-08
1.4955222e-06
0.0021355625
1.1089262e-07
2.6283198e-06
0.0026315933
9.6938132e-08
3.601715e-06
0.0030621411
8.7784144e-08
4.5185293e-06
0.0035167997
8.2225547e-08
0.082160387
8.2016019e-08
1.3913403e-05
-4.9188987e-06
0.082152219
3.265966e-06
1.2875608e-05
-3.9141846e-06
0.0035155946
2.8569132e-07
-2.8614489e-06
0.0030608746
2.7035366e-07
-1.6363449e-06
0.0026301448
2.5080703e-07
0.0021337149
2.1561667e-07
1.7601581e-06
0.002131808
3.7897523e-07
3.1298266e-06
0.002628615
4.4511323e-07
4.3363872e-06
0.003059514
4.9150291e-07
5.4972257e-06
0.0035142898
5.3346043e-07
0.082146281
6.9966985e-06
1.2039601e-05
-5.4537226e-06
0.082140567
1.0398988e-05
1.2143063e-05
-4.2953571e-06
0.0035129942
7.7156356e-07
-3.089392e-06
0.0030581646
7.0719295e-07
-1.7238331e-06
0.0026271003
6.3795107e-07
0.0021299397
5.4279814e-07
1.6996827e-06
0.0021281099
6.2671798e-07
3.0434009e-06
0.0026256226
7.388053e-07
4.2235099e-06
0.0030568552
8.2095802e-07
5.3517578e-06
0.0035117417
8.973218e-07
0.082135011
1.2207604e-05
1.2180123e-05
-5.3030609e-06
0.08212997
1.1616974e-05
1.2054642e-05
-4.1894026e-06
0.0035105455
8.5050468e-07
-3.0212385e-06
0.003055597
7.7792207e-07
-1.6903016e-06
0.0026241936
7.0042825e-07
0.0021263207
5.9477848e-07
1.6806572e-06
0.0021245884
4.4558275e-07
3.0104369e-06
0.0026228227
5.2147769e-07
4.1774037e-06
0.0030544034
5.7767029e-07
5.2910457e-06
0.0035094181
6.3091255e-07
0.08212567
8.6043347e-06
1.1879835e-05
-5.2214942e-06
0.082121944
4.0034273e-06
1.1762568e-05
-4.1245863e-06
0.0035083829
2.9668374e-07
-2.9685772e-06
0.0030532895
2.7304431e-07
-1.6546478e-06
0.0026215284
2.4904802e-07
0.0021229304
2.1732573e-07
1.5994411e-06
0.0021213425
1.4019304e-08
2.8614141e-06
0.0026203084
1.7464576e-09
3.963598e-06
0.0030522585
-7.7014276e-09
5.0115713e-06
0.0035074329
-1.6273118e-08
0.082118476
-6.843714e-07
1.1563006e-05
-4.8529996e-06
0.0821153
-4.4131715e-06
1.1266224e-05
-3.8407496e-06
0.0035065461
-2.6476192e-07
-2.7724482e-06
0.0030512835
-2.3050164e-07
-1.5520358e-06
0.0026191457
-1.9247177e-07
0.0021198063
-1.3899136e-07
1.5485531e-06
0.0021182946
-2.3880375e-07
2.7656163e-06
0.0026180031
-3.0506604e-07
3.8264178e-06
0.0030503346
-3.5698307e-07
4.8358517e-06
0.0035056829
-4.0488695e-07
0.08211243
-6.491398e-06
1.104113e-05
-4.8712607e-06
0.082109609
-6.7273397e-06
1.1017721e-05
-3.852154e-06
0.0035048236
-4.3102647e-07
-2.7759965e-06
0.0030493847
-3.8251031e-07
-1.5491902e-06
0.0026168655
-3.2921296e-07
0.0021167947
-2.5913213e-07
1.544188e-06
0.0021152844
-1.8659146e-07
2.7692224e-06
0.0026157126
-2.4552556e-07
3.8420085e-06
0.003048419
-2.8957446e-07
4.8607258e-06
0.0035039432
-3.2956332e-07
0.082106524
-5.3375276e-06
1.1082709e-05
-4.837437e-06
0.082103009
-3.1208444e-06
1.1245143e-05
-3.8203584e-06
0.003503027
-1.6493296e-07
-2.7508498e-06
0.0030474225
-1.3868151e-07
-1.532002e-06
0.0026145358
-1.093878e-07
0.0021137611
-7.0448651e-08
1.5267345e-06
0.002112221
4.6599029e-08
2.7430834e-06
0.0026133333
2.833068e-08
3.8129867e-06
0.0030463936
1.3977278e-08
4.8285146e-06
0.003502077
1.562644e-09
0.082099004
-8.6960062e-07
1.1538554e-05
-4.8437912e-06
0.082094519
1.0273321e-06
1.1957428e-05
-3.8186555e-06
0.0035010921
1.419569e-07
-2.7452839e-06
0.0030453382
1.4297973e-07
-1.523851e-06
0.0026121057
1.4494543e-07
0.0021106678
1.4638962e-07
1.5276527e-06
0.0021091017
2.2964697e-07
2.7585147e-06
0.0026108573
2.3970553e-07
3.8447298e-06
0.0030442571
2.4662023e-07
4.8848867e-06
0.0035000781
2.5420168e-07
0.082089485
2.523012e-06
1.2602386e-05
-4.9583726e-06
0.082083735
3.7251671e-06
1.357173e-05
-3.8931159e-06
0.0034990334
3.468627e-07
-2.7834033e-06
0.0030431473
3.3293775e-07
-1.5386485e-06
0.0026095907
3.1952214e-07
0.0021075212
3.0120292e-07
1.5519101e-06
0.0021059291
3.7104365e-07
2.8263069e-06
0.0026082964
3.9582305e-07
3.9657437e-06
0.0030420104
4.1428284e-07
5.0677504e-06
0.0034979549
4.3331297e-07
0.082077026
4.8014684e-06
1.4964487e-05
-5.222975e-06
0.082068574
5.9745973e-06
1.7315868e-05
-4.0734789e-06
0.0034968361
5.2980469e-07
-2.8913299e-06
0.0030408371
5.0559013e-07
-1.5830656e-06
0.0026069741
4.8186366e-07
0.0021043119
4.4964563e-07
1.6208511e-06
0.0021026654
5.4593162e-07
2.9785518e-06
0.0026056096
5.8722628e-07
4.2179995e-06
0.0030396142
6.1743321e-07
5.4302627e-06
0.0034956636
6.4788885e-07
0.08205632
7.40039e-06
2.1967555e-05
-5.7031678e-06
0.08203523
9.1483599e-06
3.2098236e-05
-4.4069022e-06
0.0034944219
7.9374293e-07
-3.0946897e-06
0.0030383309
7.5557102e-07
-1.6736363e-06
0.0026041922
7.1794173e-07
0.0021009754
6.6668688e-07
1.7358387e-06
0.0020992349
8.1133542e-07
3.2377846e-06
0.002602708
8.7452601e-07
4.6364551e-06
0.0030369791
9.2077798e-07
6.0228768e-06
0.0034931132
9.6754249e-07
0.081994059
1.1194411e-05
5.4247872e-05
-6.4760496e-06
0.081911356
1.3373041e-05
9.9296423e-05
-4.9599797e-06
0.003491716
1.1616404e-06
-3.4394968e-06
0.0030355368
1.1070638e-06
-1.8277269e-06
0.0026011384
1.0541124e-06
0.0020974249
9.832651e-07
1.9582037e-06
0.0020954974
1.1384103e-06
3.7193193e-06
0.0025994482
1.2174846e-06
5.3947469e-06
0.0030339828
1.2738627e-06
7.0716417e-06
0.0034902193
1.3321612e-06
0.081753631
1.5146196e-05
0.00017991511
-9.1985401e-06
0.081484169
1.5876857e-05
0.00030168472
-6.9107703e-06
0.0034882527
1.4595386e-06
-4.6667099e-06
0.0030319722
1.4098934e-06
-2.4005891e-06
0.0025973473
1.3672383e-06
0.0020932258
1.3174816e-06
3.7914435e-06
0.0020896175
1.3096778e-06
7.6667151e-06
0.0025937622
1.3481125e-06
1.1738599e-05
0.0030283028
1.3677321e-06
1.6167239e-05
0.0034843621
1.3947279e-06
0.081087965
1.4367428e-05
0.00044634649
-4.1055304e-05
0.080618039
1.4739547e-05
0.00056630872
-2.8956797e-05
0.0034737831
1.6376301e-06
-1.8265847e-05
0.0030189074
1.6452789e-06
-8.6958315e-06
0.0025853202
1.6726955e-06
0.0020819837
1.686056e-06
1.9573665e-05
0.0020642452
1.3374089e-06
4.2639457e-05
0.0025646386
1.5070442e-06
6.9067969e-05
0.0029952335
1.5212756e-06
9.9573201e-05
0.0034464126
1.4863807e-06
0.080218216
1.7321852e-05
0.00059002783
-0.00019523615
0.08010542
7.546454e-05
0.00053750532
-0.00013438165
0.0033980765
5.3312176e-06
-8.2390161e-05
0.0029547508
4.9590808e-06
-3.7759129e-05
0.0025308841
4.3911976e-06
0.0020369513
3.4664159e-06
5.5187366e-05
0.001994536
2.1855432e-06
0.00011704292
0.002484282
3.9358943e-06
0.00018731686
0.0029017241
5.2052831e-06
0.00026848201
0.0033358897
6.2537965e-06
0.080150514
0.00012860176
0.00059900137
-0.0010051213
0.00040188442
0.0016934167
-0.00073425111
4.0778685e-05
-0.00048243783
4.0319954e-05
-0.00024107487
3.6217669e-05
2.5301168e-05
5.6286939e-05
-0.0020309871
-5.1084264e-06
-4.4757885e-07
0.00011965871
-0.0025240076
-1.2612333e-06
-4.8749424e-06
0.00019167597
-0.0029468363
1.3611907e-06
-8.27432e-06
0.00027512671
-0.0033890458
3.2972559e-06
-1.1435649e-05
-0.079947151
0.00016832422
-0.00038436784
0.00055037993
-0.00019032136
-0.080122241
5.1667245e-05
-0.00019294831
0.00050669249
-0.00013071307
-0.0034414617
6.5393146e-07
-7.8461311e-06
-8.0193859e-05
-0.002990916
1.7587319e-07
-6.6151662e-06
-3.700073e-05
-0.002560951
-6.8883099e-07
-5.5605002e-06
-0.0020612665
-2.134579e-06
-4.5867339e-06
1.8527978e-05
-0.0020805014
-3.730538e-06
4.4374565e-06
4.0314709e-05
-0.0025834513
-3.7615382e-06
4.4751221e-06
6.5473423e-05
-0.0030167021
-3.8421702e-06
4.4695873e-06
9.4785644e-05
-0.0034712341
-3.9709336e-06
4.4310978e-06
-0.080560492
-3.2561561e-05
1.0717265e-05
0.00055488156
-3.7974866e-05
-0.081050536
-4.0492481e-05
2.717538e-05
0.00054133545
-2.663486e-05
-0.0034828057
-3.3857685e-06
3.617629e-06
-1.6713898e-05
-0.0030269537
-3.1364674e-06
3.4672924e-06
-7.9090629e-06