/*--------------------------------*- C++ -*----------------------------------*\
  =========                 |
  \\      /  F ield         | OpenFOAM: The Open Source CFD Toolbox
   \\    /   O peration     | Website:  https://openfoam.org
    \\  /    A nd           | Version:  7
     \\/     M anipulation  |
\*---------------------------------------------------------------------------*/
FoamFile
{
    version     2.0;
    format      ascii;
    class       volScalarField;
    location    "500";
    object      rho;
}
// * * * * * * * * * * * * * * * * * * * * * * * * * * * * * * * * * * * * * //

dimensions      [1 -3 0 0 0 0 0];

internalField   nonuniform List<scalar> 
25201
(
1.1738711
1.173861
1.1738714
1.173862
1.1738276
1.1738443
1.1738535
1.1738569
1.1738476
1.1738271
1.1738473
1.1738436
1.1738308
1.1738285
1.1738332
1.1738128
1.1738156
1.1738121
1.173794
1.1738288
1.1738094
1.173807
1.1737958
1.173825
1.173833
1.1738153
1.1738029
1.1738096
1.1738128
1.1738092
1.1738138
1.1738014
1.1738506
1.1738438
1.1738354
1.1738372
1.1737988
1.1738064
1.1738451
1.1738502
1.1738021
1.173805
1.1738148
1.1738548
1.1738534
1.173848
1.1738305
1.1738286
1.1738253
1.1738323
1.1738335
1.1738251
1.1738143
1.1738184
1.173822
1.1738164
1.1738218
1.1738268
1.1738152
1.173816
1.1737853
1.1738265
1.17381
1.173815
1.1737935
1.1738116
1.173803
1.1737879
1.173801
1.1737959
1.173815
1.1737827
1.1738245
1.1738107
1.1738104
1.1738156
1.173784
1.1737927
1.1738301
1.1738193
1.1738266
1.173815
1.1738405
1.1738175
1.1738402
1.1737995
1.173835
1.1738314
1.1738128
1.1738134
1.1737747
1.1738494
1.1738123
1.1738486
1.1738233
1.1737821
1.173804
1.1738473
1.1738503
1.1738603
1.1738394
1.1738503
1.173863
1.1738634
1.1738362
1.1738787
1.1738551
1.1738175
1.1738409
1.1738611
1.1738338
1.1738166
1.1738559
1.1738569
1.1738802
1.1738989
1.1738654
1.1738789
1.1738827
1.17386
1.1738409
1.1738965
1.1738573
1.1738772
1.1738858
1.1738436
1.1738479
1.1738402
1.1738127
1.1738404
1.1738449
1.1738484
1.1738455
1.1738417
1.1738403
1.173832
1.1738326
1.1738382
1.1738253
1.1738203
1.1738158
1.1738095
1.1738153
1.1737841
1.1738247
1.1738143
1.173818
1.1738214
1.1738328
1.1738112
1.1737933
1.1738146
1.1738007
1.1737877
1.1738027
1.1737959
1.1738242
1.1738223
1.1738213
1.173809
1.1738141
1.1737804
1.173798
1.1738239
1.1738121
1.1738154
1.1738263
1.173791
1.1738457
1.1738282
1.1738393
1.1738171
1.1738077
1.1738172
1.1738052
1.1738236
1.1738081
1.1738324
1.1738654
1.1738264
1.1738491
1.1737879
1.1738457
1.1738716
1.173824
1.1738868
1.1738406
1.1738892
1.173883
1.1738837
1.1738712
1.1738569
1.1738641
1.1738303
1.1738478
1.1737733
1.1738086
1.1738802
1.1738934
1.1738363
1.1738597
1.1738362
1.1738769
1.1738095
1.1738449
1.1738597
1.1738569
1.1738532
1.1738162
1.1738567
1.1738757
1.1738848
1.1738434
1.1738702
1.1738416
1.1738537
1.1738615
1.1738705
1.173827
1.1738076
1.1738127
1.173815
1.1738399
1.1738119
1.1738069
1.1738004
1.1738052
1.1738527
1.1738539
1.1738479
1.1738479
1.1738418
1.1738051
1.1737961
1.1737978
1.1738305
1.1738329
1.1738268
1.1738045
1.1738136
1.1734831
1.1734994
1.1735255
1.1735603
1.1738691
1.1743646
1.1743365
1.1743241
1.1743107
1.1743016
1.1740152
1.1740307
1.1740403
1.1740485
1.1740996
1.1740854
1.1740459
1.1740371
1.174026
1.1740118
1.1739042
1.1739205
1.1739328
1.1739426
1.1739916
1.1739438
1.1738935
1.1738832
1.1738701
1.1738531
1.1737978
1.1738158
1.1738293
1.1738402
1.1738929
1.1738549
1.1738015
1.1737904
1.1737764
1.1737579
1.1737214
1.1737406
1.1737549
1.1737663
1.1738206
1.1737917
1.1737366
1.1737249
1.1737103
1.1736906
1.1736628
1.173683
1.1736979
1.1737097
1.1737658
1.1737427
1.1736856
1.1736736
1.1736583
1.1736377
1.1736145
1.1736356
1.1736512
1.1736635
1.1737216
1.1737021
1.1736428
1.1736303
1.1736145
1.1735929
1.1735724
1.1735944
1.1736105
1.1736233
1.1736838
1.1736664
1.1736047
1.1735916
1.1735752
1.1735527
1.1735336
1.1735565
1.1735733
1.1735866
1.1736497
1.1736335
1.1735689
1.1735553
1.1735382
1.1735147
1.1734963
1.1735202
1.1735376
1.1735515
1.1736176
1.1736019
1.1735342
1.17352
1.1735022
1.1734778
1.1734591
1.173484
1.1735022
1.1735167
1.1735862
1.1735705
1.1734992
1.1734843
1.1734657
1.1734403
1.1734214
1.1734474
1.1734664
1.1734817
1.1735547
1.1735385
1.1734634
1.1734477
1.1734283
1.1734017
1.1733816
1.1734088
1.1734287
1.1734447
1.1735221
1.1735054
1.1734257
1.1734092
1.1733888
1.173361
1.1733398
1.1733683
1.1733892
1.1734062
1.1734884
1.1734704
1.1733857
1.1733682
1.1733468
1.1733175
1.1732926
1.1733228
1.173345
1.173363
1.1734509
1.1734324
1.1733404
1.1733217
1.1732987
1.1732674
1.1732482
1.1732802
1.1733036
1.1733228
1.1734163
1.1733941
1.1732963
1.1732764
1.1732521
1.1732191
1.1733961
1.1732675
1.1732452
1.1732182
1.1731823
1.1732115
1.1732464
1.1732724
1.1732939
1.1734178
1.1734336
1.1733119
1.1732908
1.1732653
1.1732313
1.1732553
1.1732882
1.1733129
1.1733333
1.1734505
1.1734702
1.1733584
1.1733388
1.173315
1.1732833
1.1733067
1.1733375
1.1733608
1.1733798
1.1734883
1.1735054
1.1734
1.1733815
1.1733589
1.1733287
1.1733503
1.1733797
1.1734017
1.1734198
1.173522
1.1735386
1.1734394
1.1734218
1.1734003
1.1733716
1.1733921
1.1734201
1.1734411
1.1734582
1.1735547
1.1735705
1.1734763
1.1734596
1.1734391
1.1734117
1.1734312
1.173458
1.1734781
1.1734944
1.1735861
1.1736019
1.1735125
1.1734966
1.173477
1.1734508
1.1734698
1.1734954
1.1735147
1.1735302
1.1736175
1.1736332
1.173548
1.1735327
1.1735139
1.1734888
1.173508
1.1735325
1.173551
1.1735659
1.1736493
1.1736659
1.1735842
1.1735696
1.1735515
1.1735275
1.1735476
1.1735711
1.1735888
1.1736031
1.1736831
1.1737012
1.1736227
1.1736087
1.1735913
1.1735683
1.1735901
1.1736126
1.1736297
1.1736434
1.1737204
1.1737412
1.1736655
1.173652
1.1736353
1.1736133
1.1736381
1.1736597
1.1736761
1.1736893
1.1737638
1.1737891
1.1737156
1.1737027
1.1736866
1.1736655
1.1736955
1.1737161
1.1737319
1.1737446
1.1738173
1.1738505
1.1737786
1.1737661
1.1737508
1.1737308
1.1737691
1.1737885
1.1738035
1.1738158
1.1738871
1.1739356
1.1738661
1.1738543
1.1738398
1.1738212
1.1738711
1.1738889
1.1739028
1.173914
1.1739816
1.1740654
1.1740037
1.1739933
1.1739804
1.1739636
1.1740058
1.1740195
1.1740306
1.1740398
1.1740958
1.1742783
1.174181
1.1741691
1.1741574
1.1741449
1.1741078
1.1741293
1.1741355
1.174135
1.174118
1.1743542
1.173161
1.1730322
1.1729067
1.1727715
1.174395
1.174401
1.1744066
1.1744072
1.1743885
1.1744425
1.1743482
1.1743368
1.1743257
1.1743139
1.1741284
1.1741388
1.1741485
1.1741563
1.1742002
1.1741374
1.1740819
1.1740723
1.1740601
1.1740449
1.1739286
1.1739451
1.1739582
1.1739688
1.1740312
1.1739716
1.173906
1.1738947
1.1738806
1.1738628
1.1738005
1.1738192
1.1738338
1.1738457
1.173914
1.1738711
1.1738017
1.1737895
1.1737744
1.1737549
1.1737144
1.1737346
1.1737502
1.1737627
1.1738334
1.173802
1.1737302
1.1737174
1.1737015
1.1736806
1.1736504
1.1736718
1.1736881
1.1737012
1.1737743
1.1737498
1.1736753
1.173662
1.1736454
1.1736235
1.1735988
1.1736212
1.1736381
1.1736517
1.1737277
1.1737074
1.1736299
1.173616
1.1735987
1.1735758
1.1735541
1.1735775
1.1735951
1.1736093
1.1736885
1.1736706
1.1735897
1.1735752
1.1735572
1.1735333
1.1735133
1.1735377
1.173556
1.1735708
1.1736535
1.173637
1.1735524
1.1735373
1.1735186
1.1734936
1.1734742
1.1734997
1.1735189
1.1735343
1.1736209
1.173605
1.1735163
1.1735005
1.173481
1.1734549
1.1734356
1.1734622
1.1734822
1.1734984
1.1735893
1.1735737
1.1734806
1.173464
1.1734436
1.1734164
1.1733967
1.1734245
1.1734453
1.1734623
1.1735578
1.1735413
1.173443
1.1734256
1.1734042
1.1733758
1.1733542
1.1733834
1.1734053
1.1734232
1.1735246
1.1735078
1.1734033
1.1733849
1.1733625
1.1733326
1.1733105
1.1733411
1.1733642
1.1733831
1.1734907
1.1734725
1.1733617
1.1733422
1.1733185
1.173287
1.1732592
1.1732919
1.1733164
1.1733366
1.1734529
1.1734361
1.1733157
1.1732948
1.1732695
1.1732357
1.1732163
1.1732509
1.1732767
1.173298
1.1734205
1.1733993
1.1732724
1.1732503
1.1732235
1.173188
1.1731539
1.1731909
1.1732188
1.1732419
1.1733756
1.1731839
1.1732181
1.1732435
1.1732644
1.1733701
1.173394
1.1732933
1.1732733
1.1732488
1.1732158
1.1732408
1.1732731
1.1732968
1.1733163
1.1734141
1.1734314
1.1733366
1.1733178
1.1732947
1.1732633
1.1732846
1.1733151
1.1733376
1.173356
1.1734481
1.1734681
1.1733801
1.1733624
1.1733407
1.1733111
1.1733339
1.1733627
1.1733839
1.1734011
1.1734864
1.1735037
1.1734209
1.1734041
1.1733834
1.1733553
1.1733764
1.1734039
1.173424
1.1734403
1.1735206
1.1735375
1.1734596
1.1734437
1.173424
1.1733972
1.1734173
1.1734435
1.1734628
1.1734782
1.1735539
1.1735699
1.1734962
1.1734811
1.1734623
1.1734367
1.1734554
1.1734805
1.1734989
1.1735136
1.1735856
1.1736014
1.1735312
1.1735168
1.1734988
1.1734743
1.1734931
1.1735172
1.1735348
1.1735488
1.1736173
1.1736335
1.1735666
1.1735529
1.1735356
1.173512
1.1735312
1.1735543
1.1735712
1.1735847
1.1736501
1.1736673
1.1736033
1.1735901
1.1735735
1.1735509
1.1735712
1.1735933
1.1736096
1.1736225
1.1736853
1.1737043
1.1736429
1.1736302
1.1736142
1.1735925
1.1736152
1.1736364
1.1736521
1.1736645
1.1737247
1.173747
1.1736879
1.1736757
1.1736604
1.1736396
1.1736663
1.1736866
1.1737016
1.1737135
1.1737716
1.1737994
1.1737424
1.1737307
1.173716
1.1736963
1.17373
1.1737492
1.1737635
1.1737749
1.1738311
1.1738692
1.1738139
1.1738028
1.1737889
1.1737704
1.1738163
1.1738341
1.1738476
1.1738583
1.173913
1.1739721
1.1739197
1.1739094
1.1738965
1.1738797
1.1739489
1.1739642
1.1739762
1.1739857
1.1740359
1.1741505
1.1741085
1.1741002
1.1740895
1.1740762
1.1741899
1.1741972
1.174205
1.1742114
1.1742447
1.1745567
1.1745337
1.1745293
1.174525
1.174523
1.1747647
1.174748
1.174738
1.1747299
1.1747017
1.1737774
1.1734495
1.1734204
1.1734091
1.1734234
1.1744433
1.1744505
1.1744664
1.1744815
1.1745048
1.1741374
1.1740854
1.1740774
1.1740669
1.1740502
1.1740485
1.1740615
1.1740724
1.174081
1.1741197
1.1740137
1.1739648
1.1739551
1.1739429
1.1739268
1.1738718
1.1738887
1.1739015
1.1739118
1.1739616
1.1739067
1.1738544
1.1738437
1.1738302
1.1738125
1.1737701
1.1737885
1.1738024
1.1738134
1.1738663
1.1738301
1.1737763
1.173765
1.1737508
1.1737317
1.1736995
1.1737191
1.1737336
1.1737451
1.1737998
1.1737728
1.1737172
1.1737055
1.1736906
1.1736705
1.1736446
1.1736652
1.1736803
1.1736923
1.1737489
1.1737271
1.1736694
1.1736572
1.1736417
1.1736207
1.1735986
1.1736201
1.1736358
1.1736483
1.173707
1.1736883
1.1736283
1.1736156
1.1735996
1.1735776
1.1735576
1.17358
1.1735964
1.1736093
1.1736706
1.1736536
1.173591
1.1735778
1.1735611
1.1735383
1.1735194
1.1735427
1.1735597
1.1735732
1.1736371
1.1736211
1.1735556
1.1735418
1.1735245
1.1735007
1.1734822
1.1735064
1.1735241
1.1735382
1.1736052
1.1735895
1.1735208
1.1735064
1.1734883
1.1734635
1.1734448
1.1734701
1.1734886
1.1735033
1.1735738
1.173558
1.1734856
1.1734705
1.1734516
1.1734257
1.1734061
1.1734326
1.1734519
1.1734674
1.1735418
1.1735254
1.1734488
1.1734328
1.1734131
1.173386
1.1733653
1.173393
1.1734133
1.1734297
1.1735086
1.1734914
1.17341
1.1733931
1.1733723
1.1733439
1.1733216
1.1733508
1.1733722
1.1733895
1.1734736
1.173455
1.1733679
1.17335
1.173328
1.173298
1.1732742
1.1733051
1.1733277
1.1733462
1.1734363
1.1734175
1.1733243
1.1733052
1.1732818
1.1732499
1.1732232
1.173256
1.1732802
1.1733
1.1733968
1.1733748
1.1732738
1.1732532
1.1732283
1.1731944
1.173183
1.1732173
1.1732427
1.1732636
1.1733695
1.1733935
1.1732927
1.1732726
1.1732482
1.1732151
1.1732401
1.1732724
1.1732962
1.1733157
1.1734135
1.1734307
1.1733358
1.1733169
1.1732938
1.1732624
1.1732835
1.1733141
1.1733366
1.173355
1.1734473
1.1734672
1.173379
1.1733613
1.1733395
1.17331
1.1733327
1.1733615
1.1733827
1.1734
1.1734855
1.1735028
1.1734197
1.1734029
1.1733822
1.1733541
1.1733751
1.1734025
1.1734227
1.1734391
1.1735197
1.1735366
1.1734584
1.1734425
1.1734228
1.1733959
1.1734161
1.1734423
1.1734616
1.1734771
1.1735532
1.1735692
1.1734951
1.1734799
1.1734611
1.1734354
1.1734541
1.1734793
1.1734978
1.1735125
1.1735849
1.1736007
1.1735302
1.1735157
1.1734977
1.173473
1.1734919
1.173516
1.1735337
1.1735478
1.1736167
1.1736329
1.1735656
1.1735518
1.1735345
1.1735108
1.17353
1.1735532
1.1735702
1.1735837
1.1736495
1.1736666
1.1736022
1.1735889
1.1735723
1.1735496
1.17357
1.1735922
1.1736085
1.1736215
1.1736845
1.1737034
1.1736417
1.173629
1.173613
1.1735912
1.1736138
1.1736351
1.1736508
1.1736632
1.1737238
1.1737459
1.1736865
1.1736743
1.1736589
1.1736381
1.1736647
1.173685
1.1737001
1.173712
1.1737704
1.1737981
1.1737408
1.173729
1.1737143
1.1736945
1.1737281
1.1737472
1.1737616
1.1737731
1.1738296
1.1738675
1.1738119
1.1738007
1.1737867
1.1737682
1.173814
1.1738317
1.1738453
1.1738561
1.173911
1.17397
1.1739175
1.1739072
1.1738943
1.1738775
1.1739463
1.1739616
1.1739736
1.1739832
1.1740335
1.1741492
1.1741072
1.1740989
1.1740883
1.1740751
1.1741847
1.1741923
1.1742002
1.1742066
1.1742405
1.1745716
1.1745453
1.1745411
1.1745369
1.1745363
1.174737
1.174721
1.1747121
1.1747054
1.174674
1.1742399
1.1742531
1.1742578
1.1742656
1.174276
1.1744106
1.1744142
1.1744241
1.1744342
1.1744975
1.1741876
1.1741407
1.1741325
1.1741221
1.1741099
1.1740408
1.1740553
1.1740673
1.1740767
1.1741299
1.1740215
1.1739589
1.1739482
1.1739349
1.1739182
1.1738549
1.1738727
1.1738868
1.1738982
1.1739636
1.1739071
1.1738387
1.1738268
1.1738121
1.1737933
1.1737489
1.1737684
1.1737836
1.1737959
1.1738653
1.1738285
1.1737578
1.1737452
1.1737296
1.1737093
1.1736762
1.1736971
1.1737131
1.1737259
1.1737978
1.1737707
1.1736974
1.1736843
1.173668
1.1736466
1.1736201
1.173642
1.1736586
1.173672
1.1737466
1.1737248
1.1736487
1.1736351
1.1736181
1.1735957
1.173573
1.1735959
1.1736132
1.1736271
1.1737048
1.1736861
1.1736068
1.1735925
1.1735749
1.1735515
1.1735309
1.1735548
1.1735728
1.1735873
1.1736684
1.1736514
1.1735686
1.1735537
1.1735353
1.1735109
1.1734913
1.1735163
1.1735351
1.1735502
1.173635
1.173619
1.1735322
1.1735167
1.1734975
1.173472
1.1734526
1.1734787
1.1734983
1.1735142
1.1736032
1.1735875
1.1734962
1.1734799
1.1734599
1.1734332
1.173414
1.1734413
1.1734617
1.1734784
1.1735719
1.173556
1.1734601
1.1734431
1.1734221
1.1733942
1.1733733
1.1734018
1.1734233
1.1734408
1.1735395
1.1735228
1.1734209
1.173403
1.1733809
1.1733516
1.1733299
1.1733599
1.1733825
1.173401
1.173506
1.1734888
1.1733806
1.1733616
1.1733384
1.1733077
1.173284
1.1733157
1.1733395
1.173359
1.1734705
1.1734507
1.1733337
1.1733134
1.1732887
1.1732558
1.1732323
1.1732663
1.1732917
1.1733127
1.173434
1.1734186
1.1732952
1.1732738
1.1732478
1.173213
1.1731842
1.17322
1.1732469
1.1732692
1.1733972
1.1733733
1.1732385
1.1732152
1.1731871
1.1731499
1.1733718
1.1732698
1.1732491
1.173224
1.1731898
1.1732198
1.1732527
1.173277
1.1732969
1.1733946
1.1734167
1.1733231
1.1733039
1.1732805
1.1732486
1.1732676
1.1732988
1.1733218
1.1733405
1.1734325
1.173451
1.1733631
1.173345
1.1733229
1.1732926
1.1733176
1.1733469
1.1733684
1.1733859
1.1734706
1.1734885
1.1734064
1.1733894
1.1733685
1.1733399
1.1733613
1.1733892
1.1734096
1.1734261
1.1735057
1.1735224
1.1734451
1.1734291
1.1734092
1.173382
1.1734023
1.1734289
1.1734483
1.1734639
1.1735389
1.1735553
1.1734823
1.1734671
1.1734482
1.1734222
1.1734411
1.1734665
1.1734851
1.1734999
1.1735711
1.1735867
1.1735174
1.1735029
1.1734848
1.1734599
1.1734786
1.173503
1.1735208
1.1735349
1.1736025
1.1736184
1.1735524
1.1735385
1.1735211
1.1734973
1.1735159
1.1735393
1.1735564
1.1735699
1.1736344
1.1736508
1.1735877
1.1735744
1.1735577
1.1735348
1.1735541
1.1735765
1.1735929
1.1736059
1.1736677
1.1736853
1.1736248
1.1736121
1.173596
1.173574
1.1735948
1.1736163
1.1736321
1.1736446
1.1737039
1.1737237
1.1736656
1.1736533
1.1736379
1.1736168
1.1736404
1.173661
1.1736762
1.1736882
1.1737453
1.173769
1.1737129
1.1737011
1.1736863
1.1736662
1.1736949
1.1737144
1.173729
1.1737405
1.1737958
1.1738259
1.1737712
1.17376
1.1737458
1.1737268
1.1737648
1.1737832
1.173797
1.1738079
1.1738618
1.1739022
1.1738487
1.1738381
1.1738248
1.1738071
1.173866
1.1738826
1.1738954
1.1739054
1.1739568
1.1740103
1.1739595
1.17395
1.1739381
1.1739222
1.174043
1.1740557
1.1740662
1.1740744
1.1741165
1.1741436
1.17409
1.1740823
1.1740719
1.1740561
1.1744432
1.1744478
1.1744611
1.1744729
1.1745035
1.1738749
1.1735924
1.1735689
1.1735647
1.1735839
1.1736491
1.1736647
1.1736919
1.1737265
1.1740339
1.1744731
1.1744403
1.1744285
1.1744167
1.1744074
1.1740814
1.174095
1.1741044
1.1741119
1.1741635
1.1741319
1.1740909
1.1740826
1.1740718
1.1740585
1.1739373
1.173953
1.173965
1.1739744
1.1740241
1.1739685
1.173918
1.1739079
1.1738952
1.1738785
1.1738174
1.173835
1.1738483
1.173859
1.1739117
1.1738698
1.1738166
1.1738056
1.1737919
1.1737735
1.1737342
1.1737532
1.1737673
1.1737785
1.1738326
1.1738016
1.1737468
1.1737353
1.1737208
1.1737013
1.1736717
1.1736918
1.1737066
1.1737184
1.1737741
1.1737498
1.1736931
1.1736811
1.173666
1.1736454
1.1736213
1.1736424
1.1736578
1.17367
1.1737277
1.1737074
1.1736486
1.1736361
1.1736204
1.1735989
1.1735778
1.1735998
1.1736158
1.1736285
1.1736886
1.1736707
1.1736094
1.1735964
1.1735801
1.1735577
1.1735383
1.1735611
1.1735778
1.173591
1.1736536
1.1736371
1.1735731
1.1735596
1.1735426
1.1735193
1.1735006
1.1735244
1.1735417
1.1735555
1.173621
1.1736051
1.1735381
1.173524
1.1735063
1.1734821
1.1734635
1.1734882
1.1735063
1.1735207
1.1735894
1.1735737
1.1735033
1.1734885
1.1734701
1.1734448
1.173426
1.1734518
1.1734707
1.1734858
1.1735579
1.1735416
1.1734674
1.1734519
1.1734327
1.1734063
1.1733861
1.1734131
1.1734329
1.1734488
1.1735251
1.1735083
1.1734297
1.1734134
1.1733931
1.1733655
1.1733443
1.1733726
1.1733933
1.1734101
1.1734912
1.1734732
1.1733897
1.1733724
1.1733511
1.173322
1.1732974
1.1733274
1.1733493
1.1733672
1.1734539
1.1734355
1.1733447
1.1733262
1.1733035
1.1732726
1.1732532
1.1732848
1.173308
1.1733269
1.1734192
1.1733972
1.1733008
1.1732811
1.1732571
1.1732245
1.1731952
1.1732289
1.1732537
1.1732742
1.1733748
1.1738635
1.1738502
1.1738634
1.1738498
1.1738239
1.1738396
1.1738454
1.173846
1.1738412
1.1738397
1.1738198
1.1738138
1.1738412
1.1738218
1.1737947
1.1738012
1.1738097
1.1737937
1.1737759
1.1737624
1.1737894
1.1738021
1.173775
1.1737642
1.1737959
1.1738156
1.1738119
1.1737759
1.1737848
1.1737788
1.1737911
1.1737631
1.1737742
1.1737512
1.1737409
1.1737211
1.1737658
1.1737615
1.173773
1.1737757
1.1737802
1.1737487
1.1737427
1.1737595
1.1737938
1.1737929
1.173814
1.1738136
1.1737958
1.1737801
1.173777
1.1737944
1.1738155
1.1737811
1.1738252
1.1738093
1.1738088
1.1738215
1.1738601
1.1738696
1.1738409
1.1738283
1.1743311
1.1743436
1.1743478
1.1743526
1.1743549
1.1743309
1.1743372
1.1743431
1.1743487
1.1743745
1.1741239
1.1740867
1.1740793
1.1740703
1.1740606
1.1739987
1.1740134
1.1740249
1.1740338
1.1740778
1.1739854
1.173933
1.173923
1.1739105
1.1738942
1.1738425
1.1738599
1.1738732
1.1738838
1.1739379
1.1738884
1.1738323
1.1738213
1.1738075
1.1737893
1.1737509
1.1737697
1.1737839
1.1737952
1.1738517
1.1738183
1.1737611
1.1737495
1.1737349
1.1737156
1.1736856
1.1737055
1.1737203
1.1737321
1.17379
1.1737646
1.1737058
1.1736938
1.1736786
1.1736582
1.1736335
1.1736544
1.1736698
1.1736821
1.1737419
1.173721
1.1736602
1.1736477
1.1736319
1.1736106
1.1735891
1.1736108
1.1736269
1.1736397
1.1737016
1.1736834
1.1736202
1.1736072
1.1735908
1.1735686
1.1735489
1.1735716
1.1735883
1.1736016
1.1736661
1.1736494
1.1735835
1.17357
1.173553
1.1735298
1.1735111
1.1735347
1.173552
1.1735659
1.1736332
1.1736173
1.1735484
1.1735343
1.1735167
1.1734926
1.1734741
1.1734987
1.1735167
1.1735311
1.1736016
1.173586
1.1735138
1.173499
1.1734806
1.1734555
1.1734367
1.1734624
1.1734812
1.1734963
1.1735703
1.1735545
1.1734785
1.173463
1.1734438
1.1734176
1.173398
1.1734248
1.1734445
1.1734604
1.1735385
1.1735221
1.1734418
1.1734255
1.1734053
1.1733778
1.1733571
1.1733852
1.1734059
1.1734226
1.1735054
1.1734881
1.1734027
1.1733855
1.1733643
1.1733354
1.1733129
1.1733425
1.1733643
1.1733821
1.1734702
1.1734517
1.1733605
1.1733422
1.1733198
1.1732894
1.1732648
1.1732961
1.1733192
1.1733381
1.1734326
1.1734128
1.1733147
1.1732952
1.1732714
1.1732391
1.1732118
1.1732451
1.1732697
1.17329
1.1733918
1.1733698
1.1732637
1.1732428
1.1732173
1.1731829
1.1732123
1.1732456
1.1732701
1.1732903
1.1733918
1.1734123
1.1733138
1.1732942
1.1732704
1.173238
1.1732615
1.173293
1.1733162
1.1733351
1.1734304
1.1734474
1.1733549
1.1733364
1.1733138
1.1732831
1.1733091
1.1733388
1.1733606
1.1733784
1.1734669
1.1734851
1.1733992
1.1733819
1.1733606
1.1733317
1.1733529
1.1733811
1.1734019
1.1734187
1.1735021
1.1735187
1.1734378
1.1734214
1.1734011
1.1733735
1.1733939
1.1734208
1.1734406
1.1734566
1.1735352
1.173551
1.1734746
1.173459
1.1734397
1.1734134
1.1734326
1.1734584
1.1734772
1.1734924
1.1735669
1.1735828
1.1735103
1.1734955
1.173477
1.1734518
1.1734708
1.1734954
1.1735135
1.173528
1.1735988
1.1736141
1.173545
1.1735308
1.1735131
1.1734889
1.1735074
1.173531
1.1735484
1.1735622
1.1736298
1.1736458
1.1735798
1.1735663
1.1735492
1.1735261
1.173545
1.1735677
1.1735844
1.1735977
1.1736623
1.1736794
1.1736161
1.173603
1.1735867
1.1735644
1.1735845
1.1736063
1.1736224
1.1736351
1.1736973
1.1737162
1.1736552
1.1736427
1.173627
1.1736056
1.173628
1.1736489
1.1736644
1.1736766
1.1737365
1.1737586
1.1736998
1.1736877
1.1736726
1.1736522
1.1736787
1.1736986
1.1737134
1.1737252
1.1737832
1.1738104
1.1737532
1.1737416
1.1737271
1.1737077
1.1737414
1.1737603
1.1737744
1.1737858
1.1738423
1.1738772
1.1738212
1.1738101
1.1737964
1.1737781
1.1738276
1.1738452
1.1738584
1.173869
1.1739231
1.1739667
1.1739145
1.1739045
1.173892
1.1738755
1.173966
1.1739813
1.1739929
1.1740018
1.1740468
1.1740848
1.1740466
1.1740391
1.1740297
1.1740184
1.1742209
1.1742297
1.1742368
1.1742433
1.1742785
1.1742463
1.1742388
1.1742407
1.1742416
1.1742364
1.173893
1.173916
1.1739616
1.1740249
1.1744391
1.1779835
1.1794866
1.1796607
1.1797797
1.1798531
1.1731922
1.173181
1.1731934
1.1732249
1.173585
1.1744043
1.1743851
1.174371
1.174356
1.1743482
1.1739517
1.1739696
1.1739809
1.1739896
1.1740436
1.1740543
1.1740149
1.1740062
1.173995
1.1739811
1.1738724
1.1738893
1.1739018
1.1739117
1.1739621
1.1739231
1.1738723
1.1738618
1.1738487
1.1738314
1.1737808
1.173799
1.1738126
1.1738236
1.1738768
1.1738433
1.1737896
1.1737784
1.1737644
1.1737457
1.1737125
1.1737318
1.1737461
1.1737575
1.1738121
1.1737856
1.1737304
1.1737188
1.1737041
1.1736843
1.1736584
1.1736787
1.1736936
1.1737055
1.1737616
1.17374
1.173683
1.1736709
1.1736557
1.1736349
1.173613
1.1736341
1.1736497
1.173662
1.17372
1.1737014
1.1736423
1.1736297
1.1736139
1.1735923
1.1735726
1.1735946
1.1736107
1.1736235
1.1736838
1.173667
1.1736055
1.1735924
1.173576
1.1735535
1.173535
1.1735579
1.1735746
1.1735879
1.1736508
1.173635
1.1735707
1.1735571
1.1735401
1.1735167
1.1734987
1.1735225
1.1735399
1.1735538
1.1736195
1.173604
1.1735368
1.1735226
1.1735049
1.1734806
1.1734624
1.1734872
1.1735053
1.1735198
1.1735886
1.1735732
1.1735025
1.1734877
1.1734693
1.1734439
1.1734251
1.173451
1.1734699
1.1734851
1.1735575
1.1735417
1.1734671
1.1734516
1.1734323
1.1734058
1.1733859
1.173413
1.1734328
1.1734488
1.1735254
1.1735088
1.1734298
1.1734134
1.1733931
1.1733653
1.1733441
1.1733726
1.1733934
1.1734103
1.1734918
1.1734741
1.17339
1.1733727
1.1733512
1.173322
1.1732989
1.173329
1.1733511
1.173369
1.1734559
1.1734371
1.173347
1.1733285
1.1733058
1.1732748
1.1732495
1.1732814
1.1733048
1.1733239
1.1734174
1.1733966
1.1732995
1.1732797
1.1732556
1.1732228
1.1731945
1.1732281
1.1732529
1.1732735
1.1733749
1.17321
1.1732434
1.173268
1.1732883
1.1733907
1.1734115
1.1733131
1.1732934
1.1732695
1.1732372
1.1732625
1.1732939
1.1733171
1.173336
1.173431
1.1734498
1.1733582
1.1733398
1.1733174
1.1732869
1.1733108
1.1733405
1.1733623
1.1733801
1.1734686
1.1734864
1.1734005
1.1733833
1.173362
1.1733331
1.1733545
1.1733827
1.1734034
1.1734202
1.1735034
1.17352
1.1734393
1.1734229
1.1734028
1.1733752
1.173395
1.1734219
1.1734416
1.1734575
1.173536
1.1735499
1.1734725
1.1734568
1.1734374
1.1734109
1.1734314
1.1734571
1.173476
1.1734912
1.1735658
1.1735826
1.1735102
1.1734954
1.1734769
1.1734518
1.1734728
1.1734973
1.1735153
1.1735297
1.1735997
1.1736146
1.1735454
1.1735312
1.1735135
1.1734893
1.1735074
1.1735311
1.1735485
1.1735623
1.1736298
1.1736457
1.1735797
1.1735662
1.1735492
1.173526
1.1735447
1.1735674
1.1735841
1.1735974
1.173662
1.1736788
1.1736155
1.1736025
1.1735862
1.1735639
1.1735837
1.1736055
1.1736216
1.1736343
1.1736964
1.1737151
1.1736541
1.1736416
1.1736258
1.1736045
1.1736265
1.1736474
1.1736628
1.1736751
1.1737351
1.1737567
1.1736977
1.1736856
1.1736704
1.17365
1.1736758
1.1736958
1.1737106
1.1737225
1.1737807
1.1738071
1.1737495
1.1737379
1.1737233
1.1737039
1.1737366
1.1737555
1.1737698
1.1737812
1.173838
1.1738717
1.1738152
1.1738041
1.1737902
1.1737719
1.1738195
1.1738372
1.1738506
1.1738613
1.1739159
1.1739574
1.1739047
1.1738946
1.1738819
1.1738652
1.1739523
1.1739678
1.1739796
1.1739887
1.1740343
1.1740691
1.1740302
1.1740225
1.1740128
1.1740012
1.1742012
1.1742099
1.1742171
1.1742236
1.1742586
1.1742277
1.1742223
1.1742229
1.174222
1.1742148
1.1738782
1.1739045
1.1739555
1.1740168
1.1744455
1.1744295
1.1734517
1.1733356
1.1732282
1.1731
1.1765771
1.1765868
1.1765634
1.1765101
1.1759672
1.1768529
1.1778111
1.177907
1.1779561
1.1779909
1.1743909
1.1743856
1.1743808
1.174377
1.1743496
1.1744134
1.1743826
1.1743773
1.1743719
1.1743668
1.1740822
1.174092
1.1741007
1.1741077
1.1741424
1.174093
1.1740502
1.1740416
1.1740304
1.1740159
1.1739072
1.1739233
1.1739356
1.1739454
1.1739963
1.1739461
1.1738929
1.1738825
1.1738694
1.1738522
1.1737965
1.1738146
1.1738282
1.1738392
1.1738945
1.1738562
1.1738004
1.1737891
1.173775
1.1737563
1.1737198
1.1737391
1.1737535
1.173765
1.1738218
1.1737927
1.1737352
1.1737235
1.1737087
1.1736888
1.1736608
1.1736812
1.1736963
1.1737083
1.1737667
1.1737436
1.1736841
1.1736718
1.1736564
1.1736356
1.1736122
1.1736335
1.1736492
1.1736617
1.1737223
1.1737027
1.1736409
1.1736282
1.1736121
1.1735904
1.1735696
1.1735919
1.1736082
1.1736212
1.1736843
1.1736668
1.1736024
1.1735891
1.1735725
1.1735498
1.1735305
1.1735536
1.1735706
1.1735842
1.1736499
1.1736336
1.1735663
1.1735525
1.1735352
1.1735116
1.1734929
1.173517
1.1735347
1.1735488
1.1736176
1.1736018
1.1735314
1.173517
1.1734989
1.1734743
1.1734557
1.1734808
1.1734992
1.1735139
1.1735861
1.1735704
1.1734964
1.1734813
1.1734625
1.1734368
1.1734176
1.1734439
1.1734631
1.1734785
1.1735545
1.1735384
1.1734603
1.1734445
1.1734248
1.173398
1.1733778
1.1734053
1.1734254
1.1734417
1.173522
1.1735052
1.1734225
1.1734057
1.1733851
1.173357
1.1733355
1.1733643
1.1733855
1.1734027
1.173488
1.1734701
1.173382
1.1733643
1.1733426
1.173313
1.1732895
1.1733199
1.1733423
1.1733605
1.1734516
1.1734327
1.1733383
1.1733195
1.1732964
1.1732651
1.1732396
1.1732719
1.1732957
1.1733152
1.173413
1.1733922
1.1732905
1.1732703
1.1732458
1.1732125
1.1731836
1.1732179
1.1732433
1.1732643
1.1733702
1.1733752
1.1732402
1.1732168
1.1731887
1.1731514
1.173182
1.1732181
1.1732452
1.1732676
1.1733971
1.1734178
1.1732935
1.1732719
1.1732457
1.1732108
1.1732372
1.173271
1.1732963
1.1733172
1.173437
1.1734556
1.1733402
1.17332
1.1732954
1.1732627
1.1732875
1.1733192
1.173343
1.1733626
1.1734741
1.1734919
1.173384
1.173365
1.1733419
1.173311
1.1733335
1.1733636
1.1733861
1.1734045
1.173509
1.1735258
1.1734244
1.1734065
1.1733845
1.1733552
1.1733762
1.1734048
1.1734262
1.1734436
1.1735421
1.1735582
1.1734624
1.1734454
1.1734244
1.1733965
1.1734163
1.1734436
1.173464
1.1734806
1.1735739
1.1735896
1.1734986
1.1734824
1.1734624
1.1734358
1.173455
1.1734811
1.1735006
1.1735165
1.1736052
1.173621
1.1735343
1.1735188
1.1734997
1.1734741
1.1734933
1.1735183
1.1735371
1.1735522
1.1736369
1.1736533
1.1735705
1.1735556
1.1735373
1.1735128
1.1735326
1.1735566
1.1735746
1.1735891
1.1736702
1.1736878
1.1736084
1.1735942
1.1735765
1.1735531
1.1735743
1.1735973
1.1736146
1.1736285
1.1737064
1.1737262
1.1736499
1.1736362
1.1736192
1.1735967
1.1736207
1.1736427
1.1736593
1.1736727
1.1737477
1.1737713
1.1736976
1.1736844
1.1736681
1.1736466
1.1736753
1.1736963
1.1737123
1.1737252
1.1737979
1.1738276
1.1737559
1.1737432
1.1737275
1.1737071
1.1737448
1.1737645
1.1737798
1.1737922
1.173863
1.1739024
1.1738321
1.17382
1.1738051
1.173786
1.1738432
1.1738615
1.1738758
1.1738874
1.1739555
1.1740064
1.1739396
1.1739286
1.1739149
1.1738974
1.1740103
1.1740258
1.1740383
1.1740482
1.1741063
1.1741379
1.1740796
1.1740705
1.1740593
1.1740442
1.1743264
1.1743346
1.1743476
1.1743615
1.1744342
1.1740393
1.173957
1.1739537
1.1739534
1.1739514
1.1742988
1.173166
1.1730434
1.1729253
1.1727982
1.174154
1.1741652
1.1741707
1.1741703
1.1741434
1.1742828
1.174193
1.1741813
1.1741694
1.1741554
1.1740074
1.1740201
1.174031
1.1740397
1.1740875
1.1740619
1.1740044
1.1739942
1.1739813
1.1739646
1.1738695
1.1738871
1.1739009
1.1739119
1.1739762
1.1739324
1.1738654
1.1738537
1.1738392
1.1738207
1.1737689
1.1737882
1.1738032
1.1738154
1.1738849
1.1738495
1.1737792
1.1737668
1.1737514
1.1737315
1.1736968
1.1737173
1.173733
1.1737457
1.1738171
1.1737897
1.1737173
1.1737043
1.1736883
1.1736672
1.1736402
1.1736617
1.1736781
1.1736913
1.1737649
1.1737426
1.1736677
1.1736543
1.1736376
1.1736156
1.1735927
1.1736151
1.1736321
1.1736458
1.1737222
1.1737031
1.1736253
1.1736114
1.173594
1.1735711
1.1735505
1.1735739
1.1735916
1.1736058
1.1736852
1.1736681
1.1735871
1.1735725
1.1735545
1.1735306
1.1735112
1.1735356
1.173554
1.1735689
1.1736517
1.1736357
1.173551
1.1735359
1.1735171
1.1734921
1.1734732
1.1734987
1.1735179
1.1735333
1.17362
1.1736044
1.1735157
1.1734999
1.1734804
1.1734543
1.1734353
1.1734619
1.1734818
1.173498
1.1735889
1.1735734
1.1734802
1.1734636
1.1734432
1.1734159
1.1733963
1.1734241
1.173445
1.173462
1.1735577
1.1735418
1.1734434
1.1734259
1.1734046
1.173376
1.1733552
1.1733844
1.1734064
1.1734243
1.1735256
1.173509
1.1734045
1.1733862
1.1733637
1.1733337
1.1733113
1.1733421
1.1733652
1.1733841
1.1734919
1.1734743
1.1733629
1.1733434
1.1733196
1.1732879
1.1732634
1.1732961
1.1733206
1.1733407
1.173456
1.1734371
1.1733176
1.1732967
1.1732714
1.1732378
1.1732108
1.1732456
1.1732717
1.1732933
1.1734174
1.1733967
1.1732675
1.1732451
1.1732181
1.1731821
1.1731516
1.1731888
1.1732169
1.1732402
1.173375
1.1731934