/*--------------------------------*- C++ -*----------------------------------*\
  =========                 |
  \\      /  F ield         | OpenFOAM: The Open Source CFD Toolbox
   \\    /   O peration     | Website:  https://openfoam.org
    \\  /    A nd           | Version:  7
     \\/     M anipulation  |
\*---------------------------------------------------------------------------*/
FoamFile
{
    version     2.0;
    format      ascii;
    class       volVectorField;
    location    "160";
    object      U;
}
// * * * * * * * * * * * * * * * * * * * * * * * * * * * * * * * * * * * * * //

dimensions      [0 1 -1 0 0 0 0];

internalField   nonuniform List<vector> 
24789
(
(101.10991 -0.00017857314 -0.0003149651)
(108.92702 -0.00036909455 -0.00031736241)
(111.65862 -0.00059439004 -0.00037113691)
(113.11198 -0.00074449493 -0.00037457334)
(118.51863 -0.00055099579 0.00031917251)
(118.51728 -0.00069684846 6.9990616e-05)
(113.11752 -0.00092568933 -0.00060072878)
(111.66559 -0.00073437775 -0.00055063773)
(108.93715 -0.00044982032 -0.00044002493)
(101.12721 -0.0002186425 -0.00040872625)
(101.14537 -0.00044025422 -0.0002431369)
(108.94711 -0.00067379507 -0.00029127454)
(111.67237 -0.00095823449 -0.00043030971)
(113.12272 -0.0011455644 -0.00051082794)
(118.51582 -0.0008460592 1.2831743e-05)
(118.51454 -0.00096338152 -0.00010087612)
(113.12865 -0.001144357 -0.00063694082)
(111.67971 -0.00092955094 -0.00054918581)
(108.95759 -0.00061870613 -0.00040793593)
(101.16313 -0.00035951624 -0.00034996354)
(101.18186 -0.0003584017 -0.00034894901)
(108.96863 -0.00062666276 -0.00041156775)
(111.68768 -0.00095154387 -0.00056434697)
(113.13496 -0.0011815973 -0.0006648131)
(118.51341 -0.0010623091 -0.00017509632)
(118.51252 -0.001149556 -0.00023143737)
(113.14179 -0.001197297 -0.00069544754)
(111.69594 -0.00095026318 -0.00059043201)
(108.97985 -0.00061087016 -0.00043373535)
(101.19969 -0.00033160751 -0.00036850777)
(101.21827 -0.00030769399 -0.00037929372)
(108.99158 -0.00059682402 -0.0004450436)
(111.70483 -0.00095131287 -0.00060381477)
(113.14903 -0.0012156705 -0.00071019505)
(118.51185 -0.0012336208 -0.00026028803)
(118.51144 -0.0013008929 -0.00027618123)
(113.1568 -0.0012196761 -0.00073598565)
(111.71402 -0.00093919528 -0.00062885055)
(109.00347 -0.00057175262 -0.00046927268)
(101.23592 -0.0002762426 -0.00040217426)
(101.25421 -0.00025729085 -0.00042844907)
(109.01581 -0.00056172192 -0.00049854981)
(111.72379 -0.00093838756 -0.00065844661)
(113.16496 -0.0012306352 -0.00076506285)
(118.51127 -0.001353242 -0.00027855563)
(118.51136 -0.0013700428 -0.00023283309)
(113.17357 -0.0012247997 -0.00073049007)
(111.73378 -0.00092574213 -0.00062132194)
(109.02818 -0.00054745997 -0.00045473094)
(101.27134 -0.00025028471 -0.00037900021)
(101.28904 -0.00024417944 -0.00035082807)
(109.04088 -0.00053239259 -0.0004326826)
(111.74423 -0.00090679704 -0.00060008488)
(113.18243 -0.0012076061 -0.00070780095)
(118.51169 -0.0013560285 -0.00017509695)
(118.51229 -0.0013026999 -9.0096718e-05)
(113.19157 -0.0011780313 -0.0006513026)
(111.75466 -0.0008838558 -0.00054693435)
(109.0533 -0.00052178781 -0.00037876897)
(101.30516 -0.00025230446 -0.00028973777)
(101.32152 -0.000283368 -0.0001899987)
(109.06571 -0.00052206063 -0.00028353217)
(111.76524 -0.00085845734 -0.00044977387)
(113.20068 -0.001134712 -0.0005482629)
(118.51312 -0.0012079429 3.3871779e-05)
(118.51431 -0.0010792477 0.00019980099)
(113.20973 -0.0010921722 -0.00036766898)
(111.77537 -0.0008468631 -0.00027636312)
(109.07731 -0.00055062598 -0.00011529927)
(101.33563 -0.00036202394 -6.578485e-06)
(101.34929 -0.00047885418 0.00023994941)
(109.08827 -0.00060095469 0.00012785711)
(111.78515 -0.00083755757 -2.6080966e-05)
(113.21834 -0.0010341762 -0.00010900866)
(118.51599 -0.00091244448 0.00038914659)
(118.5185 -0.00076631503 0.00059001108)
(113.22639 -0.00093200771 0.00021089289)
(111.79381 -0.00080219403 0.00028048725)
(109.0976 -0.0006516601 0.00042165803)
(101.35979 -0.00061014855 0.0005476453)
(101.36866 -0.00072068389 0.00085996153)
(109.10518 -0.00067178677 0.00073828364)
(111.80122 -0.00071323343 0.00062733858)
(113.23335 -0.00075903318 0.00057853756)
(118.52228 -0.00067430286 0.00071309333)
(118.52815 -0.00074461502 0.00069110794)
(113.239 -0.00051792836 0.0010106645)
(111.80641 -0.00057419004 0.0010390709)
(109.10974 -0.00067844892 0.0011188935)
(101.37292 -0.00087374546 0.0012575384)
(101.37413 -0.0012300859 0.0018553926)
(109.11103 -0.00079916166 0.0016111365)
(111.80917 -0.00049038729 0.001531621)
(113.24286 -0.00030829068 0.0015111513)
(118.53724 -0.0011822596 0.00036601631)
(118.55139 -0.0023460969 -0.00042710313)
(113.24514 -0.00026598434 0.0021926143)
(111.80892 -0.00058539901 0.0022543116)
(109.10834 -0.0011672832 0.0023985178)
(101.37048 -0.0019258015 0.0028890096)
(101.36639 -0.0031614617 0.0044589684)
(109.10349 -0.0020546844 0.0035899021)
(111.80715 -0.0011834196 0.0032702092)
(113.24697 -0.0007524167 0.0030653928)
(118.57318 -0.0048154368 -0.0020183684)
(118.6062 -0.0094403825 -0.0048703541)
(113.25224 -0.0022739094 0.0040058107)
(111.80734 -0.0026790651 0.0045381028)
(109.10057 -0.003662752 0.0051538)
(101.36572 -0.0049116003 0.0062520978)
(101.38124 -0.0068715005 0.0078579817)
(109.10966 -0.0060496636 0.0066716646)
(111.81843 -0.0053354732 0.0056422147)
(113.26874 -0.0052763463 0.0045357105)
(118.65482 -0.017225484 -0.0096596638)
(118.72449 -0.029265493 -0.017124068)
(113.30967 -0.010247943 0.0040622817)
(111.85431 -0.009438685 0.0060911781)
(109.14595 -0.0092777667 0.0077208274)
(101.4276 -0.0089484923 0.0089033288)
(101.5297 -0.010886413 0.0089712026)
(109.23222 -0.013168907 0.0076015538)
(111.93575 -0.015003639 0.0051110974)
(113.39311 -0.017398232 0.0017541337)
(118.82175 -0.046554831 -0.028079009)
(118.95485 -0.070039897 -0.043400134)
(113.54278 -0.026774808 -0.0033193364)
(112.08852 -0.021898373 0.0018238086)
(109.39612 -0.017450162 0.0055797633)
(101.71412 -0.012521069 0.0074856524)
(102.01504 -0.013820754 0.0039626517)
(109.67014 -0.022199723 0.0013985463)
(112.34266 -0.030321605 -0.0042968564)
(113.78511 -0.038663863 -0.01186739)
(119.13249 -0.10041035 -0.064076134)
(119.36624 -0.13665916 -0.090848937)
(114.15163 -0.053918864 -0.024086744)
(112.73266 -0.041148584 -0.012989366)
(110.09111 -0.028454263 -0.0041250302)
(102.46686 -0.016193991 0.00033086394)
(103.12834 -0.020219452 -0.0026584891)
(110.71132 -0.036888663 -0.010339146)
(113.30622 -0.054627461 -0.023555459)
(114.68625 -0.072555924 -0.039464123)
(119.68373 -0.1754157 -0.1225629)
(120.09318 -0.22780035 -0.16357276)
(115.40552 -0.096716423 -0.059452143)
(114.08101 -0.071185988 -0.037306629)
(111.54906 -0.047142349 -0.019213198)
(104.03794 -0.023734428 -0.0057871725)
(105.13373 -0.02472469 -0.0086988436)
(112.60805 -0.063515794 -0.037077493)
(115.07637 -0.10403897 -0.062603638)
(116.32474 -0.14948497 -0.095214548)
(120.55606 -0.36071194 -0.24187406)
(121.49221 -0.60319797 -0.33702902)
(117.97909 -0.2282049 -0.15646343)
(116.85935 -0.14791346 -0.1141115)
(114.48341 -0.066419868 -0.079239349)
(106.75542 -0.017690765 -0.052816527)
(110.47365 -0.18308433 -0.39241333)
(118.09089 -0.010894481 -0.037555147)
(120.24837 -0.1584025 -0.079658659)
(121.10549 -0.26958947 -0.11996658)
(123.15359 -1.019756 -0.5072211)
(123.84902 -2.880739 -1.8975492)
(122.15109 -3.3460865 -2.109393)
(121.39091 -3.3790924 -2.1067479)
(119.44518 -3.3345716 -2.0429431)
(112.39039 -3.3738272 -2.1063328)
(111.80986 -3.6764645 -4.5073849)
(118.79045 -3.6097942 -4.5076331)
(120.74461 -3.8045052 -4.4892017)
(121.54562 -3.8770654 -4.3422962)
(123.58263 -3.9251042 -3.1738747)
(123.50071 -5.2966111 -4.2459993)
(121.9263 -5.9855869 -5.1059248)
(121.21158 -6.0119886 -5.1826205)
(119.36294 -5.8962078 -5.1389458)
(112.47078 -5.8520563 -5.1118089)
(112.19607 -7.7746242 -5.9418271)
(118.56432 -7.9626887 -5.8814106)
(120.34637 -8.0654296 -5.8888063)
(121.06048 -8.0265846 -5.8101962)
(122.6879 -7.0411974 -4.8158957)
(123.63244 -5.7478064 -3.2023709)
(121.41973 -6.3445872 -4.0745858)
(120.64876 -6.3662804 -4.2007594)
(118.76045 -6.2093131 -4.2666035)
(111.97419 -6.3961886 -4.4693831)
(111.47961 -5.6138102 -2.3086128)
(118.39317 -5.7345791 -2.2855358)
(120.34729 -5.7502274 -2.2868998)
(121.16904 -5.6194752 -2.2433079)
(123.60184 -4.5301181 -2.0127623)
(123.73684 -2.7008949 -1.2332242)
(121.59655 -2.5408823 -1.049167)
(120.78134 -2.4789908 -1.0102533)
(118.71643 -2.3359098 -0.94806918)
(111.34394 -2.7820956 -1.1563954)
(108.50956 -0.0022137353 -0.2523608)
(116.39844 0.082875392 -0.19146333)
(118.75031 -0.055999374 -0.23272113)
(119.7576 -0.15678199 -0.26861041)
(122.8967 -1.0419767 -0.61288349)
(121.37278 -0.62220942 -0.35682792)
(116.94232 -0.20742164 -0.1532801)
(115.74137 -0.12988226 -0.11459971)
(113.24734 -0.07132141 -0.073990641)
(105.41429 -0.01626554 -0.013659237)
(103.8964 -0.021085024 -0.016056865)
(111.53487 -0.057646549 -0.036809655)
(114.09217 -0.095325996 -0.058671749)
(115.39393 -0.14206438 -0.082307506)
(120.52148 -0.38722264 -0.19763875)
(120.10871 -0.25516977 -0.11861171)
(114.49229 -0.10006814 -0.039583767)
(113.12138 -0.070928658 -0.025196655)
(110.50643 -0.043708035 -0.013249388)
(102.84034 -0.020257443 -0.0057958705)
(101.95714 -0.018285484 0.0044985998)
(109.67879 -0.035505318 7.8936275e-06)
(112.35067 -0.055452034 -0.0087090327)
(113.77312 -0.076251719 -0.019698259)
(119.72839 -0.1992905 -0.089774744)
(119.42759 -0.15431576 -0.06953125)
(113.23692 -0.054316698 -0.011062147)
(111.77956 -0.039685532 -0.0028698263)
(109.06708 -0.026338667 0.0038437506)
(101.31449 -0.014469375 0.007930342)
(100.8748 -0.010618774 0.0073587018)
(108.65237 -0.017903462 0.0033622846)
(111.39214 -0.026090656 -0.0015851515)
(112.87026 -0.035761773 -0.0072003344)
(119.20421 -0.11366527 -0.052024619)
(119.03234 -0.079993234 -0.036741541)
(112.62772 -0.021695468 -0.0052529844)
(111.13938 -0.015629387 -0.0018104904)
(108.38166 -0.010991173 0.0015033119)
(100.58029 -0.007060613 0.0049956897)
(100.39787 -0.003967066 0.0022572728)
(108.21901 -0.0057756263 -0.00013747993)
(110.98756 -0.0080644886 -0.001876657)
(112.47851 -0.011566334 -0.0035920815)
(118.90218 -0.05379506 -0.023752514)
(118.80611 -0.034369446 -0.01396555)
(112.39753 -0.0050359077 -0.001675502)
(110.90887 -0.0033118726 -0.0010723942)
(108.13533 -0.0024868604 -0.00053813841)
(100.29796 -0.0018332004 0.00052721712)
(100.25388 -0.00080648218 0.00030218766)
(108.10284 -0.00089100541 0.00015484694)
(110.87745 -0.00089683538 0.00029666516)
(112.36108 -0.0015049661 0.00025356097)
(118.73674 -0.020739588 -0.0071153273)
(118.68793 -0.0118514 -0.0027019042)
(112.35018 -7.5928811e-06 0.0017028662)
(110.87213 1.1706474e-05 0.0015455655)
(108.09919 -0.00036501927 0.0011722009)
(100.24239 -0.00053313147 0.00084914861)
(100.24682 -0.00053111606 0.001378816)
(108.10718 -0.00030092816 0.0018512721)
(110.87733 0.00011455343 0.0022332417)
(112.35022 0.00030326552 0.0024413927)
(118.65458 -0.0063680226 -8.2292481e-05)
(118.63244 -0.0033148443 0.0012455052)
(112.35261 9.401902e-05 0.0025706017)
(110.88353 -0.00010487213 0.0024304616)
(108.11655 -0.00042540815 0.0021877968)
(100.25468 -0.00063188197 0.0018161477)
(100.26067 -0.00078869024 0.0020780754)
(108.12206 -0.00066343044 0.0022998789)
(110.8866 -0.00051252864 0.0024174836)
(112.35303 -0.00040205554 0.0024780913)
(118.61798 -0.0018875293 0.001750612)
(118.60868 -0.0012979309 0.0017977191)
(112.35065 -0.00087557954 0.0022206419)
(110.88552 -0.00087671034 0.0022358042)
(108.12271 -0.00086864685 0.0022206891)
(100.26131 -0.00088283979 0.0020790966)
(100.25729 -0.00095806671 0.0020415782)
(108.11858 -0.0010356218 0.002084007)
(110.88079 -0.0011630275 0.0020065874)
(112.34541 -0.0012619585 0.0019303386)
(118.60273 -0.0011318853 0.0016387536)
(118.59897 -0.0011163094 0.0013828)
(112.33821 -0.0015206952 0.0016146982)
(110.8733 -0.0013447313 0.0017295157)
(108.11118 -0.0011263175 0.001863563)
(100.24878 -0.00098097826 0.0018972521)
(100.23733 -0.00096588407 0.0017048754)
(108.101 -0.0011587832 0.0016121475)
(110.86388 -0.0014354084 0.0014329544)
(112.32942 -0.001664032 0.0012879162)
(118.59656 -0.0011747948 0.0010756627)
(118.59499 -0.0012762012 0.00078086368)
(112.31983 -0.0017324518 0.00098174336)
(110.85324 -0.001469976 0.0011476059)
(108.08934 -0.0011548704 0.0013545878)
(100.22307 -0.00092956306 0.0014892761)
(100.20729 -0.00089422497 0.0013033255)
(108.07631 -0.0011469095 0.0011424826)
(110.84183 -0.001486634 0.00092251588)
(112.30954 -0.001775931 0.00074946055)
(118.59394 -0.0014264234 0.00053825418)
(118.59318 -0.0015637158 0.00036249132)
(112.29907 -0.0017883466 0.00053270166)
(110.82997 -0.0014790925 0.00070117934)
(108.06268 -0.00111821 0.00092035934)
(100.18965 -0.0008488546 0.0010947984)
(100.17129 -0.00081807374 0.0009489089)
(108.04841 -0.001098767 0.0007797264)
(110.81793 -0.001472 0.00056522989)
(112.2884 -0.0017890519 0.00039887675)
(118.5927 -0.0016273153 0.0002303158)
(118.59248 -0.001631959 0.00012593939)
(112.27801 -0.0017648116 0.00029895593)
(110.806 -0.0014502745 0.00046246926)
(108.03424 -0.001074513 0.00067164819)
(100.15193 -0.00078961028 0.00083387283)
(100.13247 -0.00078664419 0.00078167414)
(108.01997 -0.0010696224 0.00061641774)
(110.79438 -0.0014378812 0.00040656969)
(112.26784 -0.0017421211 0.00024208301)
(118.59248 -0.0015825175 6.0208044e-05)
(118.59278 -0.0015082309 2.1497203e-06)
(112.25817 -0.0016971157 0.00016505095)
(110.78311 -0.0014046137 0.00032421888)
(108.00608 -0.0010434293 0.00052761975)
(100.11232 -0.000765159 0.0006874079)
(100.09234 -0.00075104988 0.00060783446)
(107.99232 -0.0010233772 0.00045485159)
(110.77234 -0.0013753503 0.00025923921)
(112.24891 -0.0016535433 0.00010783401)
(118.59328 -0.0014135269 -1.3419957e-05)
(118.59405 -0.0012921095 7.5828642e-06)
(112.24023 -0.0016078009 7.4517887e-05)
(110.76202 -0.0013455944 0.00021700568)
(107.97904 -0.0010047371 0.00040450759)
(100.07177 -0.00073963917 0.00055174698)
(100.05153 -0.00073455299 0.00051968617)
(107.96596 -0.00099092477 0.00037865325)
(110.7522 -0.0013187818 0.00020003099)
(112.23192 -0.0015637136 6.7216647e-05)
(118.59503 -0.0011732034 5.033285e-05)
(118.59624 -0.0010472198 9.9459103e-05)
(112.22427 -0.0015194265 7.3811952e-05)
(110.74289 -0.001292272 0.0001980779)
(107.95345 -0.0009780643 0.0003685206)
(100.0309 -0.00073127537 0.00050311105)
(100.01075 -0.00074166701 0.00055695212)
(107.94115 -0.00097240014 0.00043019196)
(110.73405 -0.0012655266 0.00026715944)
(112.21694 -0.0014692765 0.0001487309)
(118.59762 -0.0009135356 0.00017364845)
(118.59913 -0.00081529526 0.00021739662)
(112.21059 -0.0013606622 0.00014086532)
(110.72613 -0.0011527668 0.00025164029)
(107.92993 -0.00085670107 0.00040910546)
(99.990846 -0.00063602124 0.00052823404)
(99.970232 -0.00070595243 0.00056849058)
(107.91711 -0.00093966425 0.00044196572)
(110.71686 -0.001139082 0.00032022301)
(112.20291 -0.0012625448 0.00024265394)
(118.60036 -0.00068973933 0.00033110218)
(118.59822 0.00031986451 -7.7028807e-05)
(112.21011 0.00052369393 -0.00073927114)
(110.72564 0.00046282825 -0.00061646385)
(107.92963 0.00037143145 -0.00041491129)
(99.991594 0.00030088673 -0.00026509391)
(100.01042 0.00031321416 -0.00038863905)
(107.94085 0.00042199838 -0.00060859706)
(110.73376 0.00055559726 -0.00089692426)
(112.21661 0.00064738421 -0.0010921875)
(118.59658 0.00043085331 -0.00045833265)
(118.595 0.00044904014 -0.00057879718)
(112.22314 0.0006485291 -0.0011525526)
(110.74164 0.00055303415 -0.00094081735)
(107.95196 0.00041475999 -0.00063613282)
(100.02898 0.0003002489 -0.0004047294)
(100.04907 0.0002387726 -0.00041759069)
(107.96411 0.0003668597 -0.00065999781)
(110.75062 0.00051933929 -0.00098616056)
(112.23044 0.00062748786 -0.001222345)
(118.59358 0.00048072735 -0.00073233761)
(118.59236 0.00048912405 -0.000863922)
(112.2383 0.00057249906 -0.0012785509)
(110.75987 0.00045268171 -0.0010255314)
(107.97647 0.00028800353 -0.00068622102)
(100.06832 0.00014969418 -0.00043781207)
(100.08854 5.04735e-05 -0.00046548655)
(107.98946 0.00019549989 -0.00072075715)
(110.76989 0.00036940376 -0.0010724273)
(112.24664 0.00049785762 -0.001341903)
(118.59134 0.00047216846 -0.00099821538)
(118.5906 0.00043434431 -0.0011116953)
(112.25554 0.00042291344 -0.0014027898)
(110.78017 0.00028907108 -0.0011191844)
(108.00259 0.00010805819 -0.00075616302)
(100.10772 -4.2408958e-05 -0.00049258011)
(100.12784 -0.00012736658 -0.00051282156)
(108.01629 2.4099008e-05 -0.00078065515)
(110.79115 0.00020994177 -0.001152539)
(112.26483 0.00034807838 -0.0014484885)
(118.59007 0.00036834195 -0.0011827312)
(118.5898 0.00028058416 -0.0012269632)
(112.2746 0.00027628341 -0.0014810809)
(110.80227 0.00013704665 -0.0011753808)
(108.02996 -5.0117678e-05 -0.00079776188)
(100.14663 -0.00020045776 -0.00052310718)
(100.16602 -0.00034956547 -0.00055857652)
(108.04395 -0.00019566816 -0.00082976211)
(110.81389 -2.8833802e-06 -0.001203973)
(112.2846 0.00013961585 -0.0015117175)
(118.58974 0.00013764237 -0.0012327554)
(118.58995 -3.733082e-05 -0.0011839549)
(112.29482 1.1935855e-05 -0.0015043542)
(110.82537 -0.00012433843 -0.0012007806)
(108.05757 -0.00031132369 -0.00083462)
(100.18364 -0.00045597315 -0.00057410347)
(100.2012 -0.00059664272 -0.00059276331)
(108.07095 -0.00045637461 -0.00083771085)
(110.83692 -0.0002777733 -0.0011849247)
(112.30492 -0.00015153524 -0.0014743056)
(118.59039 -0.00026435659 -0.0010678881)
(118.59114 -0.00056635618 -0.00092503973)
(112.31477 -0.00035630655 -0.0014122682)
(110.84778 -0.00046380474 -0.0011469364)
(108.08336 -0.00062979302 -0.00082944645)
(100.21635 -0.00077135922 -0.0006182879)
(100.2308 -0.0010461029 -0.00067638997)
(108.09486 -0.00091416061 -0.00084607168)
(110.85808 -0.00076506081 -0.0011159768)
(112.32392 -0.00068305264 -0.0013479049)
(118.59233 -0.00094997799 -0.00083434846)
(118.59432 -0.0013962092 -0.00080737232)
(112.33217 -0.0011211308 -0.0012527967)
(110.86684 -0.0011700638 -0.0010724731)
(108.10429 -0.0012830618 -0.00086668836)
(100.24156 -0.0013734172 -0.00074795249)
(100.2502 -0.0017408318 -0.00082282351)
(108.11144 -0.0017346947 -0.00087243432)
(110.87389 -0.0016711319 -0.00098575708)
(112.33882 -0.001654967 -0.0010832469)
(118.59758 -0.0018333605 -0.00087370416)
(118.60297 -0.0021160116 -0.0010767346)
(112.34337 -0.0021716076 -0.00078422078)
(110.87783 -0.0021415174 -0.00079162786)
(108.11468 -0.0021223387 -0.0008019264)
(100.25334 -0.0020035281 -0.00083243124)
(100.25262 -0.0020884499 -0.00077461477)
(108.11363 -0.0023369303 -0.00065076742)
(110.87835 -0.002489224 -0.00049434677)
(112.34509 -0.0026022854 -0.0003759779)
(118.61156 -0.0022205906 -0.0016904926)
(118.62515 -0.00185972 -0.0031228402)
(112.34383 -0.0027876879 8.4565444e-05)
(110.87436 -0.0025918677 -0.00012397693)
(108.10718 -0.0022817916 -0.0004412567)
(100.24585 -0.0018116417 -0.00061090717)
(100.23808 -0.0011193614 -0.00039836916)
(108.09726 -0.0018019009 -0.00024486248)
(110.86737 -0.0023029321 0.00014381404)
(112.34054 -0.0025777241 0.0003427606)
(118.64622 -0.00058095347 -0.0061358581)
(118.67834 0.0019425852 -0.011528249)
(112.33975 -0.0016214701 0.00016362377)
(110.86145 -0.0013251302 0.00018899812)
(108.08885 -0.00067915927 -8.7234454e-05)
(100.23412 0.00021153901 -7.9762141e-05)
(100.24856 0.0023336998 0.00027635881)
(108.0938 0.0014605147 -5.5695879e-05)
(110.86726 0.00077289296 -0.00024518545)
(112.35077 0.00051959487 -0.00091465651)
(118.72574 0.006147975 -0.020124726)
(118.79347 0.012576189 -0.033140754)
(112.38892 0.0038882156 -0.0035401009)
(110.90087 0.0039538049 -0.0016792922)
(108.12946 0.0043633809 -0.00057456849)
(100.29748 0.004415911 0.00037586186)
(100.40575 0.0061723388 -9.4103656e-05)
(108.21976 0.007007512 -0.0021960125)
(110.98468 0.0074144342 -0.0047443595)
(112.4739 0.0079988062 -0.0084208683)
(118.88747 0.021544694 -0.051404448)
(119.01503 0.033265582 -0.075820412)
(112.62917 0.012644304 -0.016178356)
(111.14382 0.010988553 -0.0099306592)
(108.39086 0.009528724 -0.005167144)
(100.59687 0.0078261969 -0.0010812129)
(100.8996 0.009670457 -0.0026750252)
(108.67083 0.012001059 -0.0096867862)
(111.40499 0.014727682 -0.01770882)
(112.87846 0.017865887 -0.027460969)
(119.1835 0.047758366 -0.10727436)
(119.40162 0.064483368 -0.14602771)
(113.24826 0.024211539 -0.043360956)
(111.79665 0.019045042 -0.028851815)
(109.0893 0.01491863 -0.016028397)
(101.34021 0.012446088 -0.004788065)
(101.97026 0.018503144 -0.0067906289)
(109.69418 0.022463615 -0.023073139)
(112.363 0.028240241 -0.042268893)
(113.77945 0.035361881 -0.062981103)
(119.69365 0.082509356 -0.1898676)
(120.07416 0.10745387 -0.24314491)
(114.49478 0.059207127 -0.083336985)
(113.12825 0.049807552 -0.05446788)
(110.5125 0.040697295 -0.028616339)
(102.83566 0.028444785 -0.0081827107)
(103.87573 0.042128271 -0.0063416775)
(111.51405 0.079806995 -0.033076631)
(114.079 0.099273805 -0.06793768)
(115.38158 0.11553789 -0.11358533)
(120.48922 0.18298229 -0.36231709)
(121.27391 0.35121771 -0.60250207)
(116.82347 0.21612735 -0.18404171)
(115.60804 0.18394452 -0.10337939)
(113.07713 0.14225328 -0.044014884)
(105.26095 0.055691486 -0.005166965)
(108.09265 0.11744727 -0.084108551)
(116.20572 0.17060442 0.032652657)
(118.59785 0.22868273 -0.10662587)
(119.62158 0.27765488 -0.206488)
(122.8468 0.5619057 -1.0023404)
(124.12014 1.155348 -2.5207943)
(122.29928 0.37024306 -2.4775336)
(121.5438 0.25514523 -2.4533611)
(119.55362 0.10772551 -2.328603)
(112.23647 0.47571261 -3.0145808)
(110.11377 4.0447585 -7.1474087)
(116.82121 4.2170919 -7.6965992)
(118.85286 4.1289677 -7.6670721)
(119.78568 3.975587 -7.5002989)
(123.00315 2.8095968 -5.6777322)
(122.74993 3.091523 -5.6093936)
(119.66915 3.2709036 -5.5402577)
(118.75163 3.2633674 -5.4894646)
(116.63933 3.1718772 -5.2578079)
(109.43143 3.226433 -5.4492725)
(112.11714 3.5738338 -8.2659486)
(118.79833 3.7081532 -8.3044752)
(120.62278 3.9591395 -8.3728978)
(121.35517 4.1052058 -8.315564)
(122.97981 4.1361417 -7.0620349)
(122.33375 1.4521678 -6.7140361)
(119.14392 2.314055 -7.6270235)
(118.11745 2.4656071 -7.7252362)
(115.97242 2.5935598 -7.6392772)
(108.99465 2.705822 -7.401786)
(111.24482 0.60295071 -8.4026212)
(117.70284 0.77801938 -8.7568724)
(119.60609 0.82515958 -8.6333474)
(120.45889 0.83183596 -8.3518256)
(123.03035 0.81098304 -6.3526421)
(124.18 0.36279631 -2.6708396)
(122.84797 0.54859303 -2.7566972)
(122.17257 0.57392257 -2.7447369)
(120.31832 0.58054685 -2.6372569)
(113.243 0.70382852 -3.3377427)
(109.34815 0.21999162 -0.20278222)
(117.17945 0.16488194 -0.020049802)
(119.42302 0.15440953 -0.14598418)
(120.35536 0.14229865 -0.23208459)
(122.85298 0.12560999 -0.91800971)
(121.17905 0.053653227 -0.54983702)
(117.44867 -0.0082561002 -0.22395877)
(116.29462 -0.016519453 -0.15064478)
(113.87684 -0.01940147 -0.082348329)
(106.27491 -0.013496433 -0.045446577)
(104.77576 -0.069133946 -0.031894525)
(112.22135 -0.066010333 -0.068037917)
(114.70038 -0.05762068 -0.10325527)
(115.96161 -0.045417542 -0.14554856)
(120.35139 0.025007685 -0.339662)
(119.94624 0.01653743 -0.23366432)
(115.09299 -0.052790058 -0.10580483)
(113.75649 -0.065490637 -0.07874413)
(111.21013 -0.076712568 -0.054569391)
(103.69378 -0.083682343 -0.033321252)
(102.81792 -0.08101883 -0.028676341)
(110.4091 -0.072645016 -0.042790055)
(113.02026 -0.061493957 -0.061299124)
(114.41237 -0.049757732 -0.081236811)
(119.57487 0.014420847 -0.18564565)
(119.28883 0.010872407 -0.14524546)
(113.91936 -0.044663088 -0.059918799)
(112.49039 -0.054768431 -0.04565549)
(109.83413 -0.065000301 -0.032723818)
(102.1997 -0.073161328 -0.022857774)
(101.78102 -0.062430135 -0.01764799)
(109.44829 -0.054174735 -0.024155789)
(112.13354 -0.045472828 -0.032412282)
(113.58375 -0.037460907 -0.042054573)
(119.07421 0.0068451452 -0.10823676)
(118.90804 0.0036109535 -0.076665063)
(113.3609 -0.028851631 -0.027317)
(111.90066 -0.034689099 -0.02124866)
(109.19753 -0.041746285 -0.016531805)
(101.50373 -0.049783476 -0.012948516)
(101.33403 -0.036541336 -0.0088164823)
(109.04757 -0.029028248 -0.0102124)
(111.76064 -0.02366075 -0.012408829)
(113.22305 -0.019873444 -0.015814543)
(118.7823 0.0013481826 -0.051359193)
(118.6899 -0.00010723152 -0.032163644)
(113.1475 -0.011795364 -0.0075090922)
(111.68786 -0.013803918 -0.0059202564)
(108.97084 -0.017311155 -0.0053839179)
(101.24226 -0.023206063 -0.0052058526)
(101.20237 -0.011809649 -0.0023848907)
(108.94102 -0.0081836587 -0.0019775764)
(111.65817 -0.0063763123 -0.0016593145)
(113.11246 -0.0056724504 -0.0021576107)
(118.62365 -0.00093009886 -0.018532961)
(118.57757 -0.0013580629 -0.0097482534)
(113.10064 -0.0019564309 0.00056539935)
(111.65212 -0.0018622341 0.00053840061)
(108.93725 -0.0023562369 -7.56907e-05)
(101.19207 -0.0040784651 -0.00061936324)
(101.196 -0.00017919327 0.00017599949)
(108.94378 -0.00020036287 0.00059501491)
(111.65553 -0.00046153289 0.0011101703)
(113.09889 -0.00076523961 0.0013195161)
(118.54659 -0.0015081564 -0.0046330712)
(118.52648 -0.0015120826 -0.0022107996)
(113.09963 -0.00068794179 0.001045244)
(111.65999 -0.00041112779 0.00088051826)
(108.95141 -0.00010527368 0.00054141122)
(101.20263 0.00015729874 0.00028227014)
(101.20745 -7.4552333e-05 0.00013590125)
(108.95566 -0.00043279055 0.00024345041)
(111.66193 -0.000691958 0.00036191328)
(113.09909 -0.00086786017 0.00040363418)
(118.51367 -0.001411536 -0.0012712341)
(118.50567 -0.0012165441 -0.0010026972)
(113.09663 -0.0009621547 -0.00020299993)
(111.66063 -0.00088373596 -0.00012472929)
(108.95587 -0.00074767657 -5.9403472e-05)
(101.20753 -0.00047167091 -4.1551929e-05)
(101.2037 -0.00079111502 -0.00022766486)
(108.95219 -0.00092239229 -0.00035443842)
(111.6565 -0.00095152378 -0.00055254762)
(113.0921 -0.00095673416 -0.00072840516)
(118.50073 -0.0010071926 -0.0010465493)
(118.49779 -0.00078483558 -0.0011606505)
(113.08612 -0.00088427162 -0.0011199541)
(111.65017 -0.00093082065 -0.00087131693)
(108.94573 -0.00098998767 -0.00058161813)
(101.19577 -0.00099647067 -0.00039253554)
(101.18547 -0.0010349102 -0.00046176214)
(108.93701 -0.0009571132 -0.00068699143)
(111.64228 -0.00085311154 -0.0010401099)
(113.0789 -0.00077473766 -0.0013368357)
(118.49604 -0.00055719094 -0.0012672723)
(118.49497 -0.00036307795 -0.0014229359)
(113.07099 -0.00067152925 -0.0014948561)
(111.6333 -0.00077356339 -0.0011673275)
(108.9269 -0.00091046912 -0.00077439787)
(101.1725 -0.0010322199 -0.00051700037)
(101.15834 -0.0010122003 -0.00055946011)
(108.9156 -0.00085741229 -0.00083815275)
(111.62362 -0.00069713073 -0.0012528069)
(113.06246 -0.00057721149 -0.0016011139)
(118.49424 -0.00020151814 -0.0015936316)
(118.49379 -8.3196099e-05 -0.0016846991)
(113.05377 -0.00048771127 -0.0016533627)
(111.61356 -0.00061558588 -0.0012984741)
(108.90379 -0.00078772241 -0.00087083046)
(101.14251 -0.00096364339 -0.00058207533)
(101.12618 -0.00088834269 -0.00057628742)
(108.89145 -0.00070331901 -0.00086520046)
(111.60336 -0.00052793369 -0.0012979034)
(113.04493 -0.00039838134 -0.0016534582)
(118.49353 8.6195022e-06 -0.0017176945)
(118.49349 8.6992333e-05 -0.0017148286)
(113.0363 -0.0003310315 -0.0016718997)
(111.59322 -0.000463029 -0.0013257554)
(108.87911 -0.00064093096 -0.00090084637)
(101.10874 -0.00083224212 -0.00060659121)
(101.09121 -0.00075580063 -0.00061052955)
(108.86665 -0.00056618891 -0.00089588682)
(111.5833 -0.00039263533 -0.0013079578)
(113.02783 -0.00026570568 -0.0016422068)
(118.49366 0.0001391288 -0.0016680189)
(118.49404 0.00017672098 -0.0015767179)
(113.01985 -0.00020358771 -0.0015960112)
(111.57377 -0.00032407611 -0.0012796194)
(108.85462 -0.00049209785 -0.00088278478)
(101.07321 -0.00068109669 -0.00060772981)
(101.05531 -0.00059623761 -0.00059853152)
(108.84266 -0.00041281322 -0.00086282906)
(111.56463 -0.00025354162 -0.0012447261)
(113.01217 -0.00014182618 -0.0015402032)
(118.49463 0.00019289203 -0.0014313181)
(118.49547 0.0002034379 -0.0012699338)
(113.00505 -7.7376928e-05 -0.0014744136)
(111.55591 -0.00017919576 -0.0012018873)
(108.83113 -0.00032790625 -0.00083817517)
(101.03682 -0.0005030372 -0.0005871466)
(101.01873 -0.00040947867 -0.00057189536)
(108.81986 -0.00024670083 -0.00080850404)
(111.54771 -0.0001099731 -0.0011529153)
(112.99832 -1.8433522e-05 -0.0014026851)
(118.49653 0.00020998318 -0.001113161)
(118.49781 0.00021373238 -0.00095044292)
(112.99215 3.5085291e-05 -0.0013106118)
(111.53997 -4.5286526e-05 -0.0010866737)
(108.80911 -0.00016801868 -0.00076651928)
(101.00034 -0.00031654224 -0.00054856824)
(100.98293 -0.0002389984 -0.00050801418)
(108.79899 -0.00010858732 -0.00071195511)
(111.53301 7.9444549e-07 -0.0010168688)
(112.98662 7.1543301e-05 -0.0012274885)
(118.49925 0.00021418018 -0.00082507509)
(118.50078 0.00015041781 -0.00045586965)
(112.98119 7.5374643e-05 -0.00086792993)
(111.52608 2.9147616e-05 -0.0007366325)
(108.78919 -5.0400425e-05 -0.00052601575)
(100.966 -0.00015072323 -0.00039839861)
(101.12891 0.00062764038 0.00014678215)
(108.93739 0.00078258343 0.0001227593)
(111.66553 0.00095904271 3.0036059e-05)
(113.11728 0.001053953 -1.502766e-05)
(118.51647 0.00051258892 0.00045182078)
(118.51485 0.0008416108 0.00018257582)
(113.12255 0.0012403851 -0.00028049787)
(111.67217 0.0010636355 -0.00018794291)
(108.94698 0.00079240127 -4.048528e-05)
(101.145 0.0005702309 1.883988e-05)
(101.16243 0.00053202166 -6.2849743e-05)
(108.95674 0.00076586295 -0.00012293395)
(111.67894 0.0010524067 -0.00027228582)
(113.12778 0.001243923 -0.0003675502)
(118.51335 0.00092251682 0.00010833909)
(118.51201 0.0010188975 1.2401272e-05)
(113.13378 0.0012666178 -0.0004650927)
(111.68634 0.0010534103 -0.00036065285)
(108.96714 0.00074515229 -0.00020142681)
(101.17966 0.00049557036 -0.00013186417)
(101.19801 0.00048951809 -0.00014353601)
(108.9782 0.00074730415 -0.00022008543)
(111.69443 0.0010668524 -0.00039019531)
(113.14023 0.0012930181 -0.00050587959)
(118.51086 0.0011008404 -5.9511981e-05)
(118.50997 0.001174763 -0.00010437298)
(113.14726 0.0013291531 -0.00051438655)
(111.70288 0.0010921274 -0.00038725659)
(108.98947 0.00076294589 -0.00020720404)
(101.2155 0.00049772441 -0.00012511272)
(101.23391 0.0005071617 -9.4907083e-05)
(109.00133 0.00078081049 -0.00017956594)
(111.71197 0.0011193806 -0.00036544546)
(113.15469 0.0013670368 -0.00049862594)