/*--------------------------------*- C++ -*----------------------------------*\
  =========                 |
  \\      /  F ield         | OpenFOAM: The Open Source CFD Toolbox
   \\    /   O peration     | Website:  https://openfoam.org
    \\  /    A nd           | Version:  7
     \\/     M anipulation  |
\*---------------------------------------------------------------------------*/
FoamFile
{
    version     2.0;
    format      ascii;
    class       volScalarField;
    location    "120";
    object      k;
}
// * * * * * * * * * * * * * * * * * * * * * * * * * * * * * * * * * * * * * //

dimensions      [0 2 -2 0 0 0 0];

internalField   nonuniform List<scalar> 
24866
(
3468.0719
3534.7259
3544.0128
4134.4708
4720.5241
4709.4528
4668.8073
4720.9909
4726.3622
4663.236
4689.3411
4689.6803
4664.0807
4726.914
4720.4742
4670.7036
4704.9732
4722.0257
4706.6943
4690.998
4624.2182
4736.6221
4869.5677
4808.5674
4680.6342
4596.4657
4694.8288
4817.7239
4804.8804
4641.1206
4711.585
4709.6309
4709.624
4711.5908
4641.3288
4804.9689
4818.2785
4695.3621
4595.9065
4679.9612
4808.383
4869.5518
4736.6735
4624.2301
4691.5316
4706.4068
4722.7644
4704.3669
4671.159
4719.2838
4727.8536
4663.8191
4689.3484
4689.6094
4664.4659
4725.934
4721.4811
4667.8368
4710.6899
4719.4647
4752.6096
4724.5009
4753.0995
4755.0714
4682.0333
4715.4452
4776.2416
4764.5618
4682.5531
4685.1264
4685.3532
4682.9457
4764.7575
4776.2908
4715.6652
4681.1981
4751.0708
4750.6711
4715.2508
4735.3381
4728.9791
4629.0707
4642.9318
4701.2065
4720.5181
4783.7917
4715.4509
4654.9225
4727.182
4792.2181
4720.7441
4663.008
4703.5675
4707.4541
4700.5279
4683.5392
4671.6706
4691.7128
4686.4664
4696.1158
4692.3834
4695.637
4691.4891
4697.8625
4702.1258
4702.1823
4700.0027
4704.9692
4698.6881
4691.2085
4642.1999
4744.1191
4740.8902
4714.0632
4679.3662
4693.9759
4695.7228
4698.2191
4701.9711
4704.2194
4703.7523
4700.4511
4703.6659
4698.5237
4692.9096
4689.9203
4676.2492
4682.5733
4685.4608
4692.5695
4699.8323
4705.2313
4708.193
4706.7164
4707.282
4705.407
4701.9912
4700.0327
4695.7362
4698.7156
4679.3957
4642.2407
4744.1123
4740.8763
4537.876
4539.065
4169.7382
4112.9495
4124.462
4124.4621
4112.9426
4052.9216
4066.3552
4590.7974
4589.6349
4084.2936
4101.8257
4012.0463
4082.503
4063.0195
3947.5414
3918.9625
4025.9225
4095.7861
4121.6584
4133.4639
4110.7665
4071.3111
4118.4851
4120.6356
4047.9967
4047.7704
4047.3148
4046.9551
4119.8233
4118.5371
4070.4437
4113.8101
4179.8773
4190.8576
4548.881
4550.8814
4166.1738
4015.2356
4177.9445
4123.9046
4074.2236
4688.6135
4695.4125
4688.6251
4696.1382
4689.4324
4675.7272
4682.3905
4685.2393
4692.2844
4699.4326
4704.6923
4707.558
4708.2217
4708.8533
4707.3088
4704.2641
4702.2346
4703.6158
4705.0005
4720.7918
4691.231
4098.8537
4124.8147
4452.3976
4590.9326
4066.1363
4052.9419
3518.2734
3530.844
3536.3012
3536.2981
3530.8273
3518.2339
3493.7389
3503.8449
3512.1929
3489.532
3505.7538
3492.8274
3448.867
3432.1635
3498.1962
3522.1214
3535.9751
3542.1283
3533.1017
3534.1092
3532.6762
3535.4454
3517.4521
3513.4027
3513.3156
3516.8113
3534.5964
3532.2241
3533.441
3078.4715
3076.3703
3077.8639
3077.7895
3076.607
3535.0932
4114.5068
4070.2287
4119.0012
4119.5318
4048.2802
4047.6802
4047.3628
4047.6226
4120.5077
4117.6886
4071.8468
4110.4546
4133.9954
4121.6111
4096.1866
4026.0488
3919.0987
4440.0551
4637.0919
4568.4659
4063.3322
4082.821
4012.2053
4101.59
4083.8195
4590.0405
4466.3002
4161.6191
4120.7698
3992.2158
4156.5015
4190.0298
4199.5849
4577.796
4792.4053
4727.2992
4654.8919
4663.0403
4720.4958
4707.5184
4702.2034
4703.8243
4706.7698
4703.7404
4705.2797
4704.7135
4702.0687
4697.4916
4692.2846
4692.3447
4694.5194
4697.5096
4699.4736
4699.8945
4698.6109
4695.7479
4700.5458
4697.9638
4700.6203
4701.2253
4643.0319
4683.6784
4691.617
4691.8658
4692.5065
4693.0004
4692.6379
4692.3483
4692.3212
4692.3539
4696.1417
4689.4957
4685.3327
4685.5351
4690.0026
4696.2478
4686.6464
4715.4121
4671.8542
4629.2461
4729.3311
4735.3115
4531.8344
4176.6936
4155.7617
4525.8576
4137.917
4159.4154
3994.0056
3453.5822
3522.4196
3498.3465
3432.2666
3449.0294
3948.0413
3957.0315
4094.1067
4122.3342
4456.522
4438.2342
4123.1093
3973.833
4138.045
3423.2536
3492.9245
3505.742
3489.4934
3512.2918
3503.9263
3493.7478
3045.9136
3065.4761
3071.436
3072.1798
3072.1778
3071.4245
3065.4536
3045.9132
3047.9519
3054.1485
3046.6606
3051.5881
3041.406
3020.701
3015.5113
3053.6902
3066.3167
3072.5525
3076.3986
3075.7003
3079.0816
3075.2109
3076.9187
3071.7897
3070.6202
3070.2668
3071.012
3076.1883
3074.6676
2706.1147
2709.6712
2707.3644
2706.8901
2706.878
2707.5322
2709.8234
3078.5796
3533.4136
3532.6267
3534.8732
3517.5501
3513.3856
3513.4416
3517.3682
3535.2278
3532.1571
3534.2811
3532.9942
3542.4467
3536.067
3072.6521
3066.5212
3053.8249
3015.6122
3020.8352
3041.4975
3051.6144
3046.6566
3054.1858
3047.9667
2685.1293
2685.0002
2698.9282
2702.4262
2702.4767
2702.4762
2702.418
2698.9133
2684.9956
2685.117
2689.2479
2687.2438
2688.3789
2680.808
2669.6181
2668.2972
2691.3227
2699.4781
2703.1933
2705.8159
2707.1421
2710.2145
2706.6556
2707.7128
2706.6863
2706.3207
2706.0829
2706.1115
2707.0946
2406.9762
2406.3938
2409.1744
2407.1483
2406.1501
2406.1634
2407.2759
2409.331
2406.6525
2407.277
2707.4379
3076.5279
3071.792
3070.6268
3070.4025
3071.4309
3076.6632
3074.8367
3079.088
3075.64
3076.5676
2705.8983
2703.2709
2699.6156
2691.4304
2668.3838
2669.7187
2680.8796
2688.406
2687.2492
2689.2732
2393.0311
2390.0881
2390.7526
2400.4882
2402.6255
2402.5886
2402.5879
2402.6193
2400.4774
2390.7466
2390.0779
2393.0128
2393.2165
2392.7954
2386.9894
2380.4896
2380.8532
2395.3117
2400.8201
2403.3996
2405.3134
2407.1036
2409.6403
2406.8819
2407.4811
2407.9224
2407.9249
2407.7485
2407.4844
2162.336
2161.3399
2161.0348
2163.1062
2161.4126
2160.3848
2160.4059
2161.5135
2163.2502
2161.2503
2161.5924
2162.6317
2407.8831
2706.6583
2706.344
2706.2086
2706.4231
2707.4568
2706.3558
2710.1415
2707.0879
2407.0492
2405.3481
2403.4535
2400.9128
2395.3951
2380.9246
2380.5661
2387.0461
2392.8211
2393.2263
2151.3234
2150.3575
2148.1987
2149.2039
2156.08
2157.418
2157.4218
2157.4207
2157.4129
2156.0715
2149.1976
2148.19
2150.3438
2151.3123
2150.2707
2145.759
2141.7871
2142.8954
2152.3916
2156.2106
2158.1782
2159.6667
2161.4096
2163.4887
2161.455
2161.751
2162.6749
2162.8969
2162.7635
1959.893
1959.4075
1958.3529
1958.2154
1959.7294
1958.367
1957.4784
1957.5003
1958.4486
1959.8552
1958.3934
1958.5604
1959.6308
1960.008
2162.9134
2407.9487
2407.8539
2407.7207
2407.2595
2406.642
2409.5401
2163.3871
2161.3574
2159.6771
2158.2143
2156.2746
2152.456
2142.9536
2141.8464
2145.8044
2150.2942
1949.4108
1950.6268
1949.5364
1947.9573
1949.0575
1953.9947
1954.8853
1954.9546
1954.9534
1954.881
1953.9877
1949.0515
1947.9499
1949.5255
1950.6154
1949.3897
1945.8683
1943.3508
1944.7263
1951.2412
1953.9903
1955.5941
1956.8112
1958.3451
1960.0298
1958.5662
1958.6876
1959.674
1959.9958
1789.8572
1789.7753
1789.303
1788.3641
1788.3144
1789.4073
1788.3518
1787.6411
1787.6612
1788.4187
1789.5147
1788.4609
1788.5336
1789.4754
1789.8668
1789.8362
1959.963
2162.8478
2162.52
2161.5672
2161.2645
1958.4156
1959.9376
1958.2978
1956.8103
1955.6185
1954.0361
1951.2918
1944.774
1943.3978
1945.9052
1778.1737
1780.9131
1782.1146
1781.1558
1780.0221
1781.0814
1784.6816
1785.3318
1785.4576
1785.4564
1785.3281
1784.6757
1781.0759
1780.0155
1781.1467
1782.1035
1780.8942
1778.1432
1776.5108
1777.9042
1782.5422
1784.6098
1785.9703
1786.9964
1788.2908
1789.6335
1788.6005
1788.6369
1789.5168
1644.8951
1645.2123
1645.1468
1644.7229
1643.9487
1643.9352
1644.716
1643.9211
1643.3767
1643.3942
1643.9765
1644.8067
1644.056
1644.0868
1644.8575
1645.2199
1645.1992
1644.8235
1789.4243
1959.5549
1958.5387
1788.5176
1788.4814
1789.5541
1788.2494
1786.9909
1785.9873
1784.6439
1782.5826
1777.9436
1776.5488
1634.422
1635.4878
1637.6282
1638.7293
1637.9763
1637.1803
1638.1316
1640.791
1641.3074
1641.471
1641.4699
1641.3042
1640.7859
1638.1265
1637.1745
1637.9684
1638.7189
1637.6114
1635.4622
1634.3906
1635.6802
1639.0798
1640.6953
1641.8709
1642.7491
1643.821
1644.8793
1644.1646
1644.1707
1519.808
1520.3826
1520.6593
1520.6066
1520.2432
1519.6275
1519.6216
1520.1747
1519.585
1519.1792
1519.1942
1519.6313
1520.2511
1519.7216
1519.7401
1520.3494
1520.6655
1520.6518
1520.3272
1519.7324
1644.0756
1644.0702
1644.8126
1643.7855
1642.742
1641.8832
1640.7217
1639.1127
1635.7132
1512.9759
1511.8385
1512.5418
1514.2149
1515.186
1514.6354
1514.0888
1514.9071
1516.8937
1517.3249
1517.508
1517.507
1517.3221
1516.8892
1514.9025
1514.0837
1514.6286
1515.1763
1514.1998
1512.5199
1511.8122
1512.9481
1515.4979
1516.7945
1517.8163
1518.5726
1519.4534
1520.287
1519.8033
1411.533
1411.5487
1411.9987
1412.2316
1412.1888
1411.8852
1411.4019
1411.3907
1411.7802
1411.3433
1411.0467
1411.0595
1411.3824
1411.8447
1411.4738
1411.4941
1411.97
1412.2367
1412.2278
1411.9558
1411.4887
1411.4729
1519.7282
1520.2316
1519.4233
1518.5654
1517.8255
1516.8154
1515.5251
1407.8899
1405.9416
1404.9681
1405.434
1406.7436
1407.5824
1407.2035
1406.8361
1407.5213
1409.0215
1409.3878
1409.5761
1409.5752
1409.3852
1409.0176
1407.5172
1406.8314
1407.1974
1407.5735
1406.7302
1405.4153
1404.9458
1405.9179
1407.8672
1408.9245
1409.8134
1410.4665
1411.1892
1411.8522
1316.6128
1316.4086
1316.4384
1316.7917
1316.9842
1316.9493
1316.6989
1316.3191
1316.2985
1316.5724
1316.2449
1316.0317
1316.0426
1316.2781
1316.627
1316.3679
1316.395
1316.7673
1316.9886
1316.9829
1316.7585
1316.3906
1316.3603
1316.5749
1411.8063
1411.1637
1410.4597
1409.8204
1408.9415
1314.1582
1313.2936
1311.7792
1310.9599
1311.27
1312.2975
1313.0137
1312.7701
1312.5286
1313.0933
1314.2392
1314.5495
1314.7336
1314.7327
1314.5473
1314.2357
1313.0896
1312.5244
1312.7646
1313.0056
1312.2855
1311.2537
1310.9408
1311.759
1313.2745
1314.1443
1314.917
1315.4819
1316.0763
1231.8817
1232.3253
1232.2
1232.2424
1232.5235
1232.6813
1232.6527
1232.4473
1232.1457
1232.1161
1232.3094
1232.0586
1231.9075
1231.9169
1232.0869
1232.3558
1232.1744
1232.2084
1232.503
1232.6852
1232.6818
1232.4978
1232.2043
1232.161
1232.2939
1231.8633
1316.0547
1315.4756
1314.9223
1230.905
1230.2412
1229.5271
1228.3315
1227.6481
1227.8559
1228.6647
1229.2727
1229.131
1228.9765
1229.4382
1230.3245
1230.5844
1230.7583
1230.7575
1230.5824
1230.3215
1229.435
1228.9729
1229.1262
1229.2654
1228.6541
1227.8418
1227.6317
1228.3143
1229.511
1230.2298
1230.901
1231.3904
1156.4616
1156.8702
1157.2453
1157.1731
1157.2248
1157.4529
1157.5822
1157.5587
1157.3903
1157.1466
1157.1104
1157.2482
1157.0507
1156.9454
1156.9533
1157.0749
1157.2878
1157.1597
1157.1989
1157.436
1157.5858
1157.5838
1157.433
1157.1944
1157.1414
1157.2191
1156.8544
1156.4561
1231.3846
1232.4337
1233.4906
1231.6
1232.0725
1233.0685
1229.5164
1230.3064
1231.3626
1231.8992
1231.4026
1230.6504
1155.9518
1154.4785
1154.8551
1155.5498
1155.7645
1155.925
1155.9242
1155.7628
1155.5474
1154.8527
1154.4758
1154.5697
1154.635
1154.1172
1153.4751
1153.3324
1153.8998
1154.8586
1155.4539
1156.0368
1088.9486
1089.3177
1089.6603
1089.9842
1089.9471
1090.0048
1090.194
1090.3003
1090.2807
1090.1419
1089.9412
1089.901
1090.001
1089.8404
1089.7683
1089.7753
1089.8615
1090.0352
1089.943
1089.9852
1090.18
1090.3035
1090.3027
1090.1786
1089.9803
1089.921
1089.9621
1089.6465
1089.3126
1088.9503
1156.0396
1155.4632
1154.8719
1153.9142
1153.3461
1153.4868
1154.126
1154.641
1154.5734
1087.7345
1087.6797
1087.9876
1088.5398
1088.7144
1088.86
1088.8598
1088.7136
1088.5388
1087.9871
1087.6792
1087.7333
1087.7465
1087.3079
1086.7978
1086.6992
1087.1705
1087.949
1088.4425
1028.0795
1028.5188
1028.8401
1029.1292
1029.4144
1029.3998
1029.4603
1029.6212
1029.7096
1029.693
1029.5775
1029.4082
1029.3664
1029.4412
1029.3058
1029.2577
1029.264
1029.3245
1029.4711
1029.4029
1029.4457
1029.6096
1029.7124
1029.7123
1029.6091
1029.4402
1029.3778
1029.3954
1029.1167
1028.8344
1028.5186
1028.0833
1088.4495
1087.9594
1087.1815
1086.7094
1086.8061
1087.3137
1087.7497
1027.4863
1027.5067
1027.4783
1027.7317
1028.1774
1028.3167
1028.4478
1028.4482
1028.3179
1028.1796
1027.7358
1027.4835
1027.5118
1027.4899
1027.1179
1026.7099
1026.6395
1027.0313
1027.6711
973.10627
973.44141
973.82225
974.10178
974.34722
974.60345
974.60194
974.66247
974.80357
974.87852
974.86419
974.76611
974.61911
974.57805
974.63652
974.5175
974.48669
974.4923
974.53429
974.66317
974.61016
974.65174
974.79366
974.88096
974.88124
974.7936
974.64542
974.58281
974.58621
974.33485
974.09441
973.81828
973.43924
973.10381
1027.6771
1027.0368
1026.6432
1026.7114
1027.1167
972.61567
972.92957
972.97256
972.96038
973.1715
973.53769
973.64594
973.76384
973.76583
973.65192
973.54779
973.18679
972.97965
972.99326
972.94956
972.6332
972.30361
972.24927
972.57531
923.03768
923.48064
923.7487
924.07707
924.31913
924.52766
924.7636
924.76808
924.82589
924.9548
925.0208
925.00812
924.92184
924.78869
924.75053
924.79957
924.68858
924.67027
924.67546
924.70407
924.82389
924.77956
924.81783
924.94611
925.02283
925.02337
924.94621
924.81078
924.75066
924.74687
924.51377
924.30753
924.06537
923.73434
923.46072
923.00763
972.56947
972.23916
972.28968
922.76861
923.0336
923.30055
923.35573
923.35117
923.53091
923.83882
923.91866
924.02627
924.03189
923.93577
923.86708
923.57216
923.40316
923.41249
923.3582
923.0882
922.81697
922.76776
877.54521
877.76339
878.13054
878.32963
878.60799
878.81438
878.98993
879.21524
879.21963
879.27201
879.39736
879.45946
879.44792
879.36748
879.23891
879.20578
879.25085
879.13793
879.12876
879.1337
879.15265
879.27366
879.23272
879.26566
879.38944
879.46111
879.4618
879.3896
879.25809
879.20302
879.19766
878.97217
878.79415
878.58087
878.29053
878.0748
877.68298
877.44017
922.72715
923.78603
924.26132
924.75886
924.98657
924.77178
924.3348
878.93278
877.97954
878.13791
878.40524
878.45673
878.55889
878.57216
878.49779
878.47234
878.23467
878.10185
878.11939
878.06528
877.83367
877.60236
836.10893
836.02546
836.18813
836.48172
836.59871
836.82383
836.99286
837.13632
837.36332
837.3621
837.40658
837.53965
837.60423
837.59351
837.51199
837.37619
837.34992
837.39549
837.26697
837.26431
837.2691
837.28129
837.41737
837.37547
837.40137
837.53233
837.6056
837.6064
837.53256
837.39355
837.34578
837.34341
837.1112
836.95652
836.76768
836.51186
836.35638
836.00931
835.79341
835.84345
877.48092
877.70005
877.92708
877.98536
836.2747
836.2565
836.40265
836.64486
836.66432
836.76826
836.79642
836.75277
836.78858
836.60875
836.51785
836.56127
836.51955
836.31947
798.09332
797.88202
797.74596
797.83718
798.04651
798.0537
798.21384
798.33919
798.44821
798.69276
798.68116
798.71645
798.87233
798.94677
798.93634
798.84593
798.68808
798.66962
798.71909
798.55648
798.55775
798.56242
798.57051
798.74024
798.69403
798.71214
798.8654
798.94827
798.94916
798.86576
798.70439
798.66504
798.6691
798.41108
798.27536
798.1072
797.88149
797.79565
797.48017
797.28263
797.35475
797.52102
836.02999
836.22243
797.68263
797.71901
797.6739
797.81513
798.04557
798.02478
798.14028
798.19487
798.1988
798.32755
798.21873
798.18726
798.28191
798.26782
762.97293
762.81901
762.58333
762.36052
762.34752
762.44473
762.29892
762.37111
762.44142
762.51131
762.79169
762.76701
762.79439
762.99048
763.0835
763.07358
762.96596
762.76901
762.75692
762.81184
762.59375
762.59568
762.60017
762.60728
762.83195
762.77983
762.79171
762.98444
763.08545
763.08645
762.98495
762.78404
762.7517
762.76357
762.45756
762.33601
762.18566
761.98807
761.98667
761.69453
761.51069
761.61983
761.77728
761.91074
761.92112
761.83205
761.97172
762.19993
762.12698
762.26479
762.36152
762.4402
762.70815
762.70022
762.76215
762.94126
730.35943
730.4549
730.31759
730.03529
729.68967
729.51912
729.45203
729.09939
729.04978
729.05064
729.07783
729.40912
729.37487
729.40136
729.65218
729.77166
729.76289
729.63157
729.38227
729.37032
729.42786
729.13807
729.1362
729.1403
729.15046
729.44599
729.39061
729.40243
729.6481
729.77347
729.7745
729.64853
729.39424
729.36225
729.37838
729.00653
728.89291
728.75811
728.58971
728.68634
728.41886
728.25098
728.40873
728.56503
728.67223
728.64939
728.50294
728.63709
728.8639
728.72803
728.89521
729.05135
729.24102
729.70406
729.85068
730.0603
700.14058
700.58471
700.7509
700.62755
700.28913
699.79627
699.38507
699.06122
698.44944
698.24037
698.16213
698.15099
698.53209
698.50856
698.55237
698.85671
699.00234
698.99595
698.84344
698.54521
698.5183
698.56279
698.20766
698.19776
698.20117
698.21794
698.57746
698.53418
698.561
698.85647
699.00394
699.00478
698.85607
698.55083
698.50279
698.50576
698.07145
697.95782
697.83622
697.70094
697.89393
697.6738
697.54037
697.73845
697.88599
697.96614
697.913
697.71358
697.82597
698.03227
697.8358
698.02817
698.25391
698.59288
699.30417
699.69884
672.53373
673.35855
673.94528
674.15208
674.03881
673.67332
673.04216
672.2404
671.47643
670.55818
670.16972
670.02259
669.98599
670.38398
670.43049
670.52843
670.85331
671.01265
671.00941
670.85156
670.54096
670.46709
670.44859
670.07624
670.06498
670.06746
670.08315
670.4581
670.47641
670.54906
670.85894
671.0148
671.01471
670.85722
670.53653
670.43859
670.37615
669.92407
669.81158
669.70058
669.5949
669.85477
669.76547
669.71646
669.89237
669.98047
670.02602
669.96734
669.75732
669.81059
669.93322
669.70576
669.90787
670.19087
670.69946
671.70853
647.09886
648.78142
650.25318
650.93423
651.08801
650.98142
650.68308
649.96454
648.51531
646.88768
645.56509
645.04605
644.88015
644.81089
645.12394
645.40269
645.59558
645.85834
646.08691
646.10251
645.88495
645.63186
645.47539
645.24434
644.97782
645.01943
645.02023
644.98012
645.24711
645.47764
645.63084
645.87106
646.09005
646.10399
645.88261
645.61578
645.43145
645.15349
644.80537
644.74603
644.64303
644.52174
644.76775
645.06999
645.20102
645.17306
645.07686
645.12041
645.07919
644.953
644.86847
644.72101
644.56227
644.77618
645.0634
645.69366
622.96662
624.89399
628.96284
631.74994
632.03914
631.919
631.82962
631.8217
631.49081
628.72617
624.70899
622.85647
622.05919
621.95485
622.26306
621.79833
623.27413
623.3919
623.43378
624.40748
624.41087
623.4636
623.45294
623.38329
621.98314
622.52685
622.27905
622.27839
622.52436
621.97999
623.37721
623.43665
623.45113
624.41038
624.40837
623.45299
623.42498
623.32748
621.88193
622.35546
622.01025
621.9153
622.10183
621.84067
623.85184
623.42192
622.88641
622.72894
623.54884
622.81567
622.84163
622.78059
621.45027
622.04385
621.85748
622.07178
604.87801
605.13706
607.03735
613.8269
619.22808
618.15246
617.77307
617.67992
617.96164
619.00888
613.62012
606.89462
605.02668
604.91089
604.78502
604.88722
604.78774
605.4466
605.62548
605.71223
605.74467
605.75987
605.76543
605.70685
605.57558
605.01597
605.20603
605.27006
605.27266
605.19395
604.99727
605.55725
605.69275
605.72508
605.74822
605.75799
605.7462
605.68846
605.5259
604.89571
605.06533
604.98851
605.04704
604.81426
605.34129
609.02635
608.9198
606.13994
605.35598
605.22786
605.24413
605.19477
604.99638
604.5006
604.64125
604.71259
589.02735
588.97015
589.52001
591.36908
590.84577
590.1346
590.25965
590.0199
590.11463
590.57701
591.40822
589.29412
589.19997
588.94245
589.59572
590.21599
589.54557
589.48771
590.9917
590.32529
590.34929
591.06261
589.56717
589.69442
590.5052
589.91854
589.67326
589.70038
589.87032
590.50547
589.65029
589.54864
590.99234
590.32363
590.34929
591.03578
589.51676
589.69615
590.31679
589.96712
589.24
589.91505
589.43461
591.21501
588.62929
588.13838
590.83306
591.0979
590.04633
590.67912
589.26415
589.04925
590.10574
589.12201
588.77093
588.94462
590.68946
591.84493
594.21433
597.84673
600.47787
599.88189
597.00811
594.03188
592.1854
590.9973
589.2214
589.29584
591.13532
592.12769
594.64319
600.00034
608.56546
614.8465
615.33654
609.29413
600.29155
594.5509
592.09324
591.50653
589.12905
589.02316
603.85551
603.66409
607.37054
607.97082
617.77456
608.57184
607.86508
606.56949
608.11342
617.2584
607.68559
603.3724
603.56044
607.45025
607.19113
605.59722
590.80436
591.06644
592.82107
593.63154
593.4134
591.76956
591.53066
591.69877
589.25269
589.53287
603.78556
603.5932
607.30352
617.31511
607.66965
608.33109
607.88678
605.97161
607.20819
611.03879
619.14824
610.40981
610.3928
611.0277
608.25189
603.64671
603.66399
608.09369
610.49398
610.26703
619.18374
608.57918
608.96525
605.25457
590.57
591.59439
591.06665
591.22812
589.01485
588.58758
604.1327
608.19221
608.95523
618.69143
608.48749
604.12004
608.00009
606.4889
624.15037
625.19997
624.90728
622.49796
623.60069
623.46985
624.22787
646.38298
671.84852
673.09559
671.3191
645.71236
647.13086
649.29938
646.39677
672.27509
673.82117
671.49511
646.27283
646.89064
672.26402
672.66501
647.22042
624.97974
606.38124
609.0894
607.47309
606.99161
609.71024
606.25025
624.92511
629.32894
633.91246
626.24368
628.29357
637.37853
616.79829
613.7228
626.64736
616.12404
609.55634
606.78423
606.96839
624.96428
625.67338
630.37326
628.32907
629.95624
614.83947
607.22897
605.13859
604.82665
604.68634
604.99834
607.01776
614.6342
614.47469
614.51141
614.59515
614.652
630.83296
631.06027
631.29465
630.31644
609.494
592.39527
596.8269
607.9433
619.31848
625.53187
626.68293
626.56305
625.30696
618.97157
616.09461
606.26181
604.57872
604.66855
606.40498
616.65104
619.55589
626.22948
627.46465
627.47622
626.26359
619.69684
616.82065
606.70916
605.00397
605.01463
600.31996
594.51051
591.50183
589.04486
589.36294
591.60136
591.42288
591.43421
591.61909
589.3488
589.05625
591.47431
594.4922
600.35681
605.18339
605.19116
606.9151
617.06528
620.06395
626.90806
628.24056
628.46981
627.21834
620.51639
617.49558
607.06479
605.24552
605.08806
606.78774
616.52083
629.86551
637.18265
647.24012
657.91441
667.49532
671.61563
671.53087
667.36164
657.72894
647.1893
637.4727
630.22079
617.09099
609.30927
598.16195
593.24198
594.1894
601.04422
615.51238
626.57173
619.93903
634.25951
643.02336
657.5829
665.2707
670.9855
676.85235
680.51762
683.03829
684.09885
684.11116
683.05938
680.65183
676.9623
671.17223
665.4107
657.65505
671.07624
677.11467
683.24539
686.9492
689.58267
690.64651
690.6482
689.57528
686.90355
683.1602
676.98229
670.97693
676.79151
667.0561
652.62538
643.12329
644.79408
627.77844
627.75191
615.47885
601.03116
594.183
593.23663
598.15001
609.22126
619.78615
626.47397
643.02384
644.76927
654.85177
654.88465
671.10694
682.87505
680.39247
686.8088
683.10857
688.68892
692.73297
695.38534
696.57738
696.56594
695.36057
692.73136
688.72639
683.20538
676.84193
667.03868
680.45649
686.9201
692.71813
697.14149
699.91533
701.18266
701.26055
699.99264
697.17087
692.70276
695.36161
689.45809
690.52653
683.89285
683.89095
671.0721
682.81272
689.40804
690.52513
696.50236
696.54881
701.18718
699.94956
702.84661
704.11638
704.0479
702.77298
699.90009
695.35951
689.55232
682.90897
671.08027
683.89491
690.57496
696.5191
701.09795
704.00365
705.30169
705.35232
704.11947
704.05846
701.18101
699.86383
695.23607
692.54791
686.69219
680.29619
666.90394
652.50982
642.80024
634.0923
629.9709
616.87554
606.71587
615.63746
622.06682
637.17014
646.84907
657.2703
670.71404
676.59116
682.90985
688.42922
692.47307
696.97426
699.79967
702.71806
704.00872
705.3086
705.25661
703.95968
701.12611
696.46582
690.51781
683.82787
670.96159
682.727
689.38417
695.25806
699.83532
702.63538
703.9405
701.03364
701.04982
696.28503
695.09446
689.18072
686.53445
682.81567
676.67157
670.63076
664.94975
657.17042
666.64675
676.41638
680.07308
682.53696
683.54264
690.21677
690.19436
696.23148
695.05833
699.74818
696.99196
692.53376
686.6829
680.23551
666.73282
676.52648
682.9078
688.45245
692.47449
686.53761
689.11613
682.50006
683.51784
670.701
670.68324
654.4506
652.18805
642.68991
637.11964
629.91474
615.6407
611.81599
620.65969
623.02611
641.41645
644.70839
655.69984
657.0485
657.05198
655.75092
644.81781
641.54035
623.28459
606.94603
615.98109
612.0812
615.95451
630.29478
634.47423
643.48841
645.28409
645.44962
643.74449
634.78565
630.62645
616.01297
612.09913
615.9564
622.50191
637.81933
643.48634
653.18882
655.47739
655.31779
652.926
643.23597
637.50627
622.46446
626.84673
623.23899
641.5876
644.90011
655.91126
657.27464
657.43409
656.13443
645.16753
641.85874
623.27511
620.85126
629.43711
623.25792
626.86592
644.6842
654.48028
649.0994
660.05411
668.9478
661.81044
678.49951
674.3666
664.69137
653.83281
643.97769
641.09523
653.60489
644.32047
633.86779
642.69451
652.0242
642.42463
644.04662
654.24679
654.14711
643.92242
642.18108
651.75387
642.3042
657.16094
664.87482
670.63508
676.44693
680.10946
666.65115
657.09934
646.62155
636.66372
629.41499
633.49569
644.00861
654.69609
656.02868
656.1569
654.89721
667.61916
658.8322
648.2953
664.43115
670.96729
680.11029
689.8292
683.8484
675.87807
681.74758
675.78975
683.81364
687.27474
695.21871
692.04914
682.58036
685.75916
694.70347
702.91715
697.84501
691.77845
688.38228
693.61778
688.36637
682.46284
673.90925
691.96448
702.84442
695.15976
697.84249
694.59929
685.56258
691.78237
694.61406
688.33811
677.94943
660.53476
660.43593
667.45413
658.60072
647.94635
653.30346
640.75025
643.59422
653.35103
664.01249
673.62777
677.83566
689.10764
689.18813
698.51551
697.79837
707.68351
701.12862
701.89098
695.54873
701.52053
700.36445
697.6551
704.19251
700.04824
704.17935
697.63966
702.27596
709.10164
712.05676
706.91821
701.10454
697.88204
688.47664
689.409
698.61519
707.76026
701.82518
695.57595
694.58817
700.3326
701.54857
708.10987
713.34394
706.38522
705.11614
708.04111
705.13299
712.06686
706.95276
708.11068
713.30807
706.31084
709.3067
716.29989
715.03526
716.34591
709.31203
710.61662
717.60379
725.52868
724.30474
721.2735
715.28419
714.09396
711.31418
706.7666
715.45257
720.18875
725.53636
720.21659
711.32026
716.9505
719.97952
728.50919
722.92554
724.17968
729.78285
738.35194
731.59719
724.54337
704.29006
699.53505
688.90884
676.63374
662.89885
674.15635
684.42703
688.67406
688.57589
668.75433
661.60642
659.7898
648.86671
654.20227
644.41752
653.86801
664.54382
674.25283
678.40517
689.36148
698.59157
707.75235
697.8156
688.44378
694.60698
695.59217
701.84733
701.07388
697.85758
694.65175
685.61908
682.49629
691.99565
702.90257
695.143
688.31858
691.74867
697.65179
700.38648
701.56301
708.11802
706.95187
712.13946
713.39916
706.49735
705.21584
702.31722
709.15516
704.17077
700.04959
693.61812
697.64822
704.20544
706.97617
712.12608
715.15217
716.40102
709.40914
708.11447
709.43259
710.67649
717.67419
716.45785
713.40685
706.41143
705.15317
700.38898
701.55013
708.1521
701.82941
701.06325
697.80343
695.15157
687.21558
683.77756
675.71728
670.8605
664.5265
680.0373
689.77567
683.75684
675.70196
681.63093
688.26784
682.43456
674.1311
691.95825
702.8494
694.55783
685.53024
691.66858
694.50539
688.33594
678.19265
697.79917
707.69403
698.47987
689.19527
695.4865
695.50396
701.52185
706.42608
709.38572
710.65524
710.59531
709.27957
706.35471
701.46454
695.47665
701.77235
698.43125
707.59014
697.62683
688.15735
694.42484
700.91529
697.62422
694.39497
685.32874
691.53214
688.08732
682.17836
691.71779
702.61308
694.92607
699.79829
704.0101
706.80947
708.04082
713.27431
711.96616
705.05872
700.27113
697.4695
702.12177
708.94843
703.95536
697.42697
693.39353
688.02379
682.86058
676.67206
670.62753
675.3654
683.4512
689.42584
686.91111
681.35317
675.37175
664.06116
670.47546
679.69363
683.4729
691.64262
694.85663
702.51324
697.46813
691.40221
685.1988
673.73013
682.08628
694.23847
697.44149
700.70447
706.6721
711.88502
714.97969
716.28827
717.60064
716.29006
709.23267
707.90932
704.94057
706.26932
713.19906
707.86275
701.24541
700.03977
694.14749
695.18281
701.48172
707.33383
698.08817
677.78226
687.91736
688.80115
688.83435
695.21612
701.30856
706.3139
709.32416
716.34919
717.6633
716.39668
715.06943
708.04945
705.11128
712.06316
713.35247
708.13565
706.89633
700.26041
697.51072
702.15134
705.0475
712.00763
713.26454
707.91607
706.76499
700.12198
697.44154
704.02166
709.01215
704.08209
699.85719
693.40508
688.12336
691.60103
694.48439
701.00602
701.81359
707.65634
698.4895
678.17423
689.18374
688.26848
697.7407
694.50629
697.70112
702.71936
694.98047
691.81053
674.00914
685.42688
682.27027
675.49441
681.39045
688.02087
691.44152
694.24788
700.76072
701.51082
707.36889
698.14383
677.77973
687.97547
697.44022
694.31849
697.54324
702.57443
694.86735
691.65146
673.75316
685.20739
682.09323
675.40646
664.18224
683.50814
686.96569
689.49062
683.60311
664.28292
670.58738
679.84527
653.65188
662.79702
673.84975
684.20564
688.42779
688.42854
684.29197
674.05925
662.96437
674.03215
684.34764
699.41755
704.23312
724.55008
719.15119
736.48904
713.0578
701.04827
658.9336
636.7953
626.80707
624.20645
606.61548
607.93307
607.30126
625.23758
625.32005
625.15941
624.0631
622.45904
624.74102
628.81581
633.10871
612.88071
616.10617
633.65995
634.11281
659.25748
650.30267
638.54902
630.34425
638.63628
615.99375
599.91126
594.29398
592.37598
609.19474
610.28536
613.63673
634.78388
637.88634
615.98763
598.60742
613.21844
613.0951
598.52176
592.62217
592.72157
609.936
609.86201
631.22203
630.97721
630.63526
630.14594
609.34023
592.28206
596.681
607.71373
599.68428
594.15247
592.21817
591.45984
592.05638
594.49401
600.13185
609.07741
615.32585
615.34313
609.16899
600.30632
594.7702
592.20742
591.23431
589.34591
589.48117
591.07711
592.20859
594.50903
598.12423
600.97394
600.96097
598.0591
594.35122
591.94824
590.75114
589.12854
589.03155
603.60229
603.82699
607.82412
608.53134
607.91597
617.70414
607.30067
624.16002
624.82056
628.13332
629.72517
649.85554
650.96565
651.55078
651.64135
651.1848
650.1133
674.09087
701.21398
731.16352
733.05591
731.54673
730.38416
699.85959
701.29221
699.46906
730.11954
731.79442
734.37711
731.03544
700.46147
701.96382
699.49031
730.05922
730.74749
700.25686
700.65384
731.09717
735.7234
734.48945
732.41322
737.80858
707.63797
703.99237
675.69719
679.43308
653.03985
647.99653
650.12406
676.07562
677.41459
651.39471
661.75689
657.96072
684.42421
688.46547
716.63425
705.50651
704.18808
712.53779
742.46798
746.4741
775.77809
762.58871
748.32373
739.53031
734.56165
704.2821
701.24135
673.40422
648.01113
649.95056
676.13764
680.13714
675.37532
650.33544
654.06061
659.06631
652.745