/*--------------------------------*- C++ -*----------------------------------*\
  =========                 |
  \\      /  F ield         | OpenFOAM: The Open Source CFD Toolbox
   \\    /   O peration     | Website:  https://openfoam.org
    \\  /    A nd           | Version:  7
     \\/     M anipulation  |
\*---------------------------------------------------------------------------*/
FoamFile
{
    version     2.0;
    format      ascii;
    class       volScalarField;
    location    "120";
    object      nut;
}
// * * * * * * * * * * * * * * * * * * * * * * * * * * * * * * * * * * * * * //

dimensions      [0 2 -1 0 0 0 0];

internalField   nonuniform List<scalar> 
24866
(
7.9871356
7.9939632
7.9907859
8.1778772
8.34244
8.3402624
8.336201
8.3404646
8.3397339
8.3348703
8.3351306
8.3351673
8.3348938
8.3397677
8.3405475
8.3361861
8.3400876
8.3413815
8.3405199
8.3359941
8.3259472
8.340359
8.3708345
8.3582262
8.3324997
8.3285499
8.3363989
8.3604138
8.3556676
8.3291457
8.3383246
8.3413921
8.3413931
8.3383329
8.3291933
8.355715
8.3605212
8.3364912
8.3284418
8.3323263
8.358159
8.3707893
8.3403494
8.3259497
8.3360188
8.3405699
8.3414015
8.3401627
8.3361954
8.3404709
8.3398509
8.3349903
8.335128
8.3351426
8.3349533
8.3397322
8.3403457
8.3360847
8.3402264
8.3424875
8.3463461
8.3431123
8.3463375
8.3430537
8.3368247
8.3395651
8.3453971
8.3420151
8.334427
8.3344147
8.3344391
8.3344308
8.3420668
8.3454462
8.3395725
8.3366941
8.3425454
8.3453012
8.3417845
8.3429121
8.337668
8.3299889
8.3283386
8.33909
8.3427738
8.3480367
8.3326385
8.3287031
8.3364108
8.3485094
8.3426931
8.3379986
8.3369822
8.3377791
8.3361347
8.3335112
8.3360501
8.3350034
8.3385973
8.3361764
8.3339798
8.3336445
8.3336961
8.3343288
8.3350399
8.3350421
8.3348628
8.3377238
8.3367931
8.3364936
8.3331123
8.3401472
8.3441447
8.3419295
8.3378152
8.3354802
8.3346242
8.3341176
8.3344671
8.3347832
8.3347132
8.3341972
8.3345921
8.3338336
8.3333659
8.3340015
8.3360048
8.333551
8.332843
8.3330736
8.3339658
8.3348381
8.3353571
8.3351048
8.3351934
8.3348855
8.3344706
8.3348677
8.3346264
8.3367969
8.3378182
8.3331203
8.3401505
8.3441465
8.2387928
8.2354673
8.1650566
8.1703747
8.1771268
8.1771237
8.1703664
8.1680426
8.1366847
8.2614392
8.2641287
8.1430928
8.1679658
8.1698923
8.1639899
8.1380045
8.0966437
8.1118258
8.157695
8.168836
8.1759798
8.1755517
8.1747241
8.1727081
8.1718564
8.1691774
8.1670744
8.1591507
8.1591111
8.1670623
8.1690821
8.1715924
8.1731115
8.1744523
8.1675744
8.1752216
8.2404414
8.238721
8.1677431
8.1032951
8.1763665
8.1780564
8.1699248
8.3391133
8.3357885
8.3391203
8.336225
8.3339466
8.3359588
8.333528
8.3328141
8.3330321
8.3339021
8.334748
8.3352506
8.3353619
8.3354649
8.3351981
8.3347911
8.335051
8.33699
8.3377289
8.3427039
8.336504
8.1702162
8.1797998
8.2019915
8.2614965
8.1366384
8.1680224
8.0008547
7.9886462
7.9903558
7.9903521
7.9886383
8.0008642
7.9665349
7.9658605
7.9851513
8.0061591
7.9844738
7.9615817
7.9478303
7.9643315
7.989956
7.9881487
7.9893656
7.9881996
7.9941962
8.0056312
7.9885323
7.9860221
8.0009509
7.9921029
7.9921618
8.0010428
7.9859981
7.9882802
8.0060851
7.8414168
7.831643
7.8254416
7.8256757
7.831379
7.9936718
8.1741975
8.1732224
8.171428
8.1691632
8.1670556
8.1591279
8.1591319
8.167194
8.1689371
8.1719935
8.1727217
8.1749449
8.1754874
8.1761252
8.1688124
8.1577348
8.1118735
8.2303159
8.2760796
8.2633094
8.1381029
8.1641246
8.1699918
8.1678302
8.1428759
8.2641617
8.2086385
8.1431594
8.1401221
8.1017471
8.1681591
8.1637739
8.1957201
8.234489
8.3485552
8.3364455
8.3286825
8.3380038
8.3427635
8.337788
8.3350531
8.334726
8.3351142
8.3346056
8.3348465
8.3347517
8.3343156
8.333669
8.3332815
8.3340405
8.3335031
8.3336717
8.3339088
8.3339768
8.3338497
8.3336654
8.3342145
8.3343471
8.3361493
8.3390853
8.3283483
8.3335362
8.3337205
8.335032
8.3340041
8.3333832
8.3330863
8.3330418
8.3332864
8.3340402
8.3362193
8.3339545
8.3328266
8.3328582
8.3340186
8.3362044
8.3386353
8.3418123
8.3360815
8.3300213
8.3377099
8.3429501
8.2372555
8.172398
8.1621117
8.2333943
8.1640301
8.1730706
8.0994356
7.9851885
7.9881128
7.9900029
7.964373
7.9478597
8.096794
8.1228754
8.1330299
8.1837904
8.1918783
8.2021104
8.1662845
8.0995573
8.1359748
7.9686189
7.9616077
7.98449
8.0061799
7.9851344
7.9658568
7.9665532
7.8123593
7.8362579
7.826106
7.8251506
7.8251475
7.826101
7.8362685
7.8123485
7.8073369
7.8213871
7.8439423
7.8209396
7.8017343
7.7997501
7.818599
7.8287094
7.8253447
7.8239423
7.8231553
7.8317998
7.8409839
7.8266021
7.8238706
7.8402488
7.8349079
7.8348742
7.8402677
7.8239008
7.8264249
7.6804911
7.6913919
7.6851711
7.6789088
7.6790879
7.6849524
7.6915058
7.8415519
8.006214
7.9881282
7.9861449
8.0008614
7.9921126
7.9922199
8.0011118
7.9859167
7.9887354
8.00555
7.9944496
7.988121
7.9895323
7.8240789
7.8253026
7.828751
7.8186436
7.799769
7.80176
7.8209731
7.8439753
7.8213523
7.8073116
7.6656863
7.6713638
7.686736
7.679958
7.6785367
7.6785337
7.6799546
7.6867448
7.671355
7.665708
7.6753456
7.6955556
7.6744098
7.6588502
7.6621464
7.6796603
7.6816206
7.6790454
7.6772077
7.6768556
7.6851407
7.6909644
7.6805902
7.6782805
7.6919815
7.6886772
7.688699
7.6920767
7.6783487
7.5459963
7.5475972
7.5548588
7.5515302
7.5460857
7.5462149
7.5513584
7.5549441
7.5474838
7.5460074
7.6784078
7.8240043
7.8401371
7.8349281
7.8349407
7.8402854
7.8238252
7.8268325
7.8408868
7.8320265
7.8230826
7.6767967
7.6773085
7.6790032
7.6816517
7.6797009
7.6621548
7.6588695
7.6744441
7.6955896
7.6753134
7.5430174
7.5364763
7.5417798
7.5509681
7.5469094
7.5455852
7.5455818
7.5469066
7.5509746
7.5417734
7.5364954
7.5430458
7.5598197
7.5414265
7.5289909
7.5346259
7.5498885
7.547761
7.545922
7.5442374
7.5441875
7.5512973
7.5544266
7.5476171
7.5458879
7.556343
7.5543964
7.5544453
7.5564821
7.4331731
7.4255235
7.4266078
7.4311122
7.4297457
7.4253986
7.425488
7.4296135
7.4311695
7.4265029
7.425489
7.432923
7.5562461
7.6918769
7.6887023
7.688762
7.6920586
7.6782808
7.6808195
7.6908767
7.6853239
7.5514386
7.5441425
7.5443064
7.5458824
7.5477818
7.5499225
7.5346286
7.5290055
7.54146
7.5598528
7.4362397
7.4229315
7.4185061
7.4230276
7.4280225
7.4258173
7.4247984
7.4247949
7.4258147
7.4280265
7.4230234
7.4185229
7.4229556
7.4362088
7.4207006
7.4109349
7.4173045
7.4301557
7.4262457
7.4248497
7.4234805
7.4236092
7.4293345
7.4306657
7.4265539
7.425383
7.4330069
7.4319463
7.4320124
7.320509
7.3211472
7.3157111
7.3163636
7.3189343
7.3187855
7.3155271
7.3155872
7.3186839
7.3189673
7.3162637
7.315639
7.320895
7.3204415
7.4319607
7.5544184
7.5544968
7.5564472
7.5459292
7.5478347
7.5543641
7.4306305
7.429442
7.4235759
7.4235246
7.4248136
7.4262576
7.4301825
7.4173041
7.4109462
7.4207322
7.3109794
7.3238288
7.3136716
7.3106953
7.3143179
7.3165776
7.3155386
7.3148702
7.3148667
7.3155358
7.3165794
7.3143153
7.31071
7.3136916
7.3238006
7.31095
7.3033952
7.3096986
7.320295
7.3158133
7.314649
7.3136011
7.3138195
7.3182282
7.3184662
7.3162427
7.3155448
7.3209645
7.3204329
7.2185005
7.2185815
7.2189374
7.2151406
7.2154526
7.2167297
7.2172856
7.2149802
7.2150195
7.2172062
7.2167428
7.2153548
7.2150398
7.21869
7.2185051
7.2186002
7.3205358
7.4320499
7.4331292
7.4254582
7.4267576
7.316433
7.3184555
7.3183107
7.3137953
7.3136272
7.3146163
7.3158181
7.3203148
7.3096965
7.3034041
7.2049115
7.2106961
7.2212499
7.2137128
7.2117307
7.2144827
7.2150086
7.2146585
7.2143064
7.2143032
7.2146555
7.2150087
7.2144812
7.2117435
7.2137291
7.2212244
7.2106692
7.2049043
7.210781
7.2193979
7.2149339
7.2138769
7.2130942
7.2133409
7.2166137
7.2162357
7.2152716
7.2149524
7.2187453
7.1248413
7.1247349
7.1248188
7.1250406
7.1224205
7.1224727
7.1229158
7.1238398
7.1223126
7.1223373
7.1237763
7.1229129
7.1223749
7.1222983
7.1248002
7.1247365
7.1248295
7.1249847
7.2188847
7.3210976
7.315647
7.2150743
7.2154504
7.2162457
7.2166789
7.2133236
7.2131076
7.2138473
7.2149332
7.2194116
7.210778
7.1193622
7.1140614
7.1184155
7.1270482
7.1216027
7.1203007
7.122275
7.121734
7.1217567
7.1216558
7.1216527
7.1217534
7.1217328
7.1222743
7.1203118
7.1216158
7.1270253
7.118391
7.1140555
7.1193659
7.126301
7.1221179
7.1210968
7.1205053
7.1207384
7.1230826
7.1223951
7.1222385
7.122212
7.0361409
7.0379585
7.0379061
7.0379915
7.038163
7.0363681
7.036228
7.0361563
7.0372317
7.0363104
7.036325
7.0371791
7.0361405
7.0361289
7.0362306
7.0379309
7.0379056
7.0379947
7.0381038
7.0362866
7.1223481
7.1224079
7.1224216
7.1231361
7.1207264
7.12051
7.1210696
7.1221129
7.1263094
7.0399141
7.0343729
7.0296715
7.0328941
7.0399444
7.0361244
7.0352825
7.0365957
7.0354269
7.0356172
7.0356969
7.035694
7.0356137
7.0354246
7.0365955
7.0352921
7.0361348
7.0399239
7.032872
7.0296666
7.0343771
7.0399102
7.0361082
7.0350818
7.0346117
7.0348041
7.0364146
7.0356103
7.0359477
6.9554544
6.9558067
6.9570717
6.9570304
6.9571164
6.9572801
6.956051
6.9557741
6.9554044
6.9564946
6.9560271
6.9560347
6.9564493
6.9553782
6.955673
6.955903
6.957057
6.9570287
6.9571128
6.9572175
6.9559584
6.9556098
7.0361094
7.0356498
7.0364605
7.0347959
7.0346106
7.0350565
7.0361
6.9559071
6.9593176
6.9549331
6.9508144
6.9531503
6.9589074
6.9563251
6.9557881
6.9565598
6.9550507
6.9552789
6.9554754
6.9554727
6.9552752
6.9550477
6.9565598
6.9557963
6.9563331
6.958889
6.9531304
6.9508104
6.9549378
6.9593174
6.955918
6.9548629
6.9544574
6.9545933
6.9556387
6.9548361
6.8792701
6.8800274
6.8804895
6.8813891
6.8813408
6.8814268
6.8816004
6.8807495
6.8803806
6.8798573
6.8808797
6.8807395
6.8807422
6.8808392
6.8798228
6.8802771
6.8805947
6.8813863
6.8813386
6.8814171
6.8815339
6.8806444
6.8801775
6.8793272
6.9548856
6.9556799
6.954588
6.9544524
6.954839
6.8796701
6.8807753
6.8837978
6.8803553
6.8767793
6.8784266
6.883131
6.8814741
6.8811328
6.8814751
6.8798122
6.88
6.880261
6.8802584
6.8799962
6.8798087
6.8814752
6.8811397
6.8814804
6.8831147
6.8784088
6.8767761
6.8803605
6.8838008
6.8807884
6.8796931
6.8793103
6.8793823
6.8800019
6.8089126
6.8082888
6.8090928
6.8096258
6.810292
6.8102329
6.8103186
6.8105056
6.8098999
6.8094741
6.8088911
6.8097992
6.8098856
6.8098848
6.8097616
6.8088498
6.8093684
6.8097412
6.8103004
6.8102308
6.8103034
6.8104347
6.8097819
6.8092384
6.8083515
6.8089493
6.8800402
6.8793791
6.8793025
6.8085914
6.8089674
6.8101142
6.8127802
6.8100982
6.8070153
6.8081331
6.8119821
6.8110047
6.8107825
6.8107946
6.8090969
6.8092005
6.8094862
6.8094837
6.8091966
6.8090932
6.8107947
6.8107884
6.8110095
6.8119677
6.8081175
6.807013
6.8101041
6.8127859
6.8101291
6.8089898
6.808601
6.8086076
6.7418146
6.7418918
6.7413919
6.7421847
6.7427586
6.7432831
6.7432166
6.7433015
6.7434984
6.7430454
6.7425892
6.7420057
6.7427768
6.7430123
6.743009
6.7427408
6.7419589
6.7424817
6.742885
6.7433019
6.743215
6.7432815
6.7434229
6.7429143
6.7423262
6.7414587
6.7419275
6.7418141
6.808606
6.8121388
6.8152475
6.8122257
6.8130621
6.8147733
6.8137329
6.814274
6.8147294
6.8154428
6.81551
6.8141456
6.7471056
6.7443061
6.7440719
6.7424135
6.7424118
6.7426937
6.7426914
6.7424081
6.7424099
6.7440724
6.7443115
6.7444659
6.7449383
6.7417836
6.7410806
6.7437309
6.7458041
6.7434659
6.7422837
6.7418712
6.6787368
6.6786216
6.6785372
6.6781645
6.6789115
6.6795043
6.6799492
6.6798815
6.6799656
6.6801654
6.6798017
6.6793346
6.6787861
6.6794123
6.6797388
6.679734
6.6793774
6.6787348
6.6792257
6.6796412
6.6799775
6.6798808
6.6799413
6.6800853
6.6796582
6.679049
6.6782342
6.6785724
6.6786219
6.6787248
6.7418602
6.7422614
6.7434492
6.7457957
6.7437238
6.7410815
6.7417968
6.7449505
6.7444617
6.6814669
6.6813418
6.6809301
6.6793549
6.6792414
6.6795005
6.6794987
6.6792384
6.6793523
6.680932
6.6813484
6.6814722
6.6816045
6.6790157
6.6786137
6.680874
6.6824611
6.6804044
6.6791828
6.6193487
6.6188652
6.6186969
6.6185004
6.618251
6.618933
6.6195287
6.6199362
6.619875
6.619958
6.6201527
6.6198348
6.6193706
6.6188768
6.6193592
6.6197345
6.6197284
6.6193249
6.6188221
6.6192609
6.6196759
6.6199732
6.6198753
6.61993
6.6200681
6.6196797
6.6190665
6.6183222
6.6185348
6.6186972
6.6188513
6.6193242
6.6791602
6.6803855
6.6824495
6.6808646
6.6786119
6.679025
6.681613
6.6216077
6.6216935
6.6215745
6.6210402
6.6195723
6.6193487
6.6195738
6.6195727
6.6193477
6.6195729
6.6210464
6.6215859
6.6217044
6.6216071
6.61948
6.6192996
6.6212162
6.6224159
6.6206057
6.5637691
6.5624791
6.5619573
6.5617417
6.5614693
6.5613365
6.561944
6.5625316
6.5629307
6.5628841
6.5629658
6.5631469
6.5628443
6.5623921
6.5619628
6.5623061
6.5627003
6.5626932
6.5622722
6.5619056
6.5622823
6.562688
6.5629755
6.5628854
6.5629344
6.5630577
6.5626786
6.5620731
6.561408
6.5615021
6.5617403
6.5619396
6.5624493
6.5637376
6.6205828
6.6223986
6.6212009
6.6192911
6.6194813
6.5628667
6.5646154
6.5648492
6.5647184
6.5641046
6.5627564
6.5624282
6.5626141
6.5626147
6.5624324
6.5627654
6.5641226
6.5647444
6.5648763
6.5646335
6.562884
6.5628617
6.5644744
6.5653651
6.5110291
6.5096176
6.5082924
6.5077325
6.5074745
6.5071517
6.5071297
6.5076585
6.5082302
6.5086429
6.5086192
6.5086995
6.508858
6.5085476
6.5081133
6.5077526
6.5079612
6.5083536
6.508346
6.5079276
6.5076937
6.5080042
6.5083949
6.5086947
6.5086217
6.5086653
6.5087646
6.5083724
6.5077827
6.5071999
6.5071814
6.5074684
6.5077064
6.5082496
6.5095667
6.510972
6.5653355
6.5644445
6.5628367
6.5089834
6.5089032
6.5103412
6.5106592
6.5105022
6.5098427
6.5086197
6.508193
6.5083396
6.5083443
6.5082097
6.5086492
6.5098896
6.5105645
6.5107266
6.5104029
6.5089633
6.5090474
6.5103872
6.4587064
6.4591426
6.4578862
6.4565149
6.4559157
6.4556176
6.4552615
6.4553478
6.4557962
6.4563468
6.4567923
6.4568009
6.4568796
6.4570059
6.4566671
6.4562541
6.4559632
6.4560378
6.4564146
6.4564067
6.4560047
6.4559035
6.4561464
6.4565187
6.4568505
6.4568048
6.4568431
6.4569086
6.4564837
6.4559151
6.4554149
6.4552851
6.4556012
6.4558716
6.4564437
6.4577934
6.459026
6.4585657
6.5103228
6.5129156
6.513735
6.5142422
6.514751
6.5143583
6.5126905
6.4609852
6.4586558
6.4579773
6.4568823
6.4563607
6.4564723
6.456486
6.4564052
6.4569572
6.458089
6.4588002
6.4590118
6.4586587
6.4574739
6.4576198
6.4083609
6.409199
6.4094537
6.4083191
6.4068769
6.4062313
6.4058915
6.4055117
6.4057102
6.4060769
6.4066032
6.4071026
6.4071546
6.4072318
6.4073144
6.4069251
6.406535
6.406314
6.406248
6.4065993
6.4065912
6.4062153
6.4062539
6.4064293
6.4067815
6.4071669
6.4071602
6.4071935
6.4072136
6.4067348
6.4061903
6.4057722
6.4055246
6.4058548
6.4061517
6.4067481
6.4081414
6.4092163
6.4089019
6.4080337
6.4574695
6.4573199
6.4585009
6.4588536
6.4091627
6.4089062
6.4082294
6.4072653
6.4066473
6.4067325
6.4067645
6.4067487
6.4074333
6.4084745
6.4092199
6.4095075
6.4091693
6.4081947
6.3609449
6.3610892
6.3616651
6.3617395
6.3606837
6.3591253
6.3584155
6.3580256
6.3576258
6.3579486
6.3582318
6.3587333
6.3593126
6.3594211
6.3594965
6.3595221
6.359056
6.3586883
6.358537
6.3583139
6.3586319
6.3586236
6.3582816
6.3584768
6.3585846
6.3589175
6.3593828
6.3594292
6.3594577
6.3594185
6.3588597
6.3583397
6.3580034
6.3576213
6.357953
6.3582714
6.3588892
6.3603471
6.3612748
6.3610722
6.3604279
6.3602391
6.4078493
6.4088159
6.3610248
6.3613307
6.3609912
6.3603316
6.3595023
6.3587789
6.3588501
6.3589164
6.3589871
6.3598449
6.360828
6.3616248
6.3620276
6.3617462
6.3162852
6.3156272
6.3157047
6.3159852
6.3158528
6.3148137
6.3130693
6.3122617
6.3118048
6.3113842
6.3118508
6.3120491
6.3125288
6.3132192
6.3134003
6.3134747
6.313428
6.3128536
6.3125042
6.3124223
6.3120172
6.3122936
6.3122852
6.3119848
6.3123617
6.3124025
6.31272
6.3132961
6.3134114
6.3134352
6.3133212
6.3126512
6.3121522
6.3118967
6.3113544
6.3116757
6.3120117
6.3126518
6.3142046
6.3149947
6.3148789
6.3144638
6.3142983
6.3149293
6.3151628
6.3147098
6.3140756
6.3133842
6.3125395
6.3126105
6.3127352
6.3129288
6.3140253
6.3150051
6.3158958
6.3164675
6.2728897
6.2728484
6.2723084
6.2722743
6.2722129
6.2718131
6.2706951
6.2686741
6.2677183
6.2671681
6.2667252
6.2673556
6.2674741
6.2679426
6.268775
6.2690448
6.2691196
6.2689864
6.2682738
6.2679331
6.2679154
6.2673035
6.267529
6.2675202
6.2672703
6.2678534
6.2678319
6.2681438
6.2688602
6.2690586
6.2690774
6.2688745
6.2680631
6.267575
6.267394
6.2666656
6.2669633
6.2673146
6.2679829
6.2696635
6.2703335
6.270291
6.2701128
6.2699914
6.270488
6.2706233
6.2700272
6.2694159
6.2688572
6.2678733
6.2679549
6.2681691
6.2685367
6.2699589
6.2710264
6.2720851
6.2305517
6.2316491
6.2317752
6.2313323
6.2311577
6.2307105
6.2299326
6.2285803
6.2261844
6.2250187
6.2243496
6.2238876
6.2246847
6.2247524
6.2252347
6.2262228
6.2265889
6.2266662
6.2264425
6.2255806
6.2252277
6.2252493
6.2244307
6.2245979
6.2245884
6.2243956
6.2251844
6.2251253
6.2254519
6.2263198
6.2266062
6.2266197
6.2263219
6.2253573
6.2248578
6.2247241
6.223806
6.2240676
6.2244322
6.2251391
6.226965
6.2275601
6.2276031
6.2276484
6.2275685
6.2279435
6.2279688
6.2272203
6.2266117
6.2261529
6.2250248
6.2251177
6.2254483
6.2260496
6.2278925
6.229201
6.190199
6.1920711
6.1935
6.1937778
6.1934119
6.1931106
6.1922595
6.1908883
6.189014
6.18615
6.1847224
6.1839307
6.1834564
6.1843704
6.1844854
6.18503
6.186141
6.1866051
6.1866883
6.1863782
6.1854038
6.1849967
6.18497
6.1840096
6.1841274
6.1841167
6.1839711
6.1848999
6.1848904
6.1852717
6.1862539
6.1866274
6.1866367
6.1862447
6.1851626
6.1846072
6.18443
6.1833837
6.1836123
6.1839877
6.1847364
6.1866791
6.187345
6.1875288
6.1877134
6.187607
6.1878672
6.1877978
6.1869426
6.1862841
6.185812
6.1845804
6.1846761
6.1851241
6.1860072
6.1883641
6.1519182
6.1549381
6.1577443
6.1594743
6.1598104
6.1595067
6.1591732
6.1579614
6.155601
6.1525543
6.1491316
6.1474478
6.1465686
6.14607
6.1468788
6.1473792
6.1480458
6.1491181
6.149786
6.1498917
6.1493957
6.1484582
6.1479425
6.1475472
6.1466933
6.1468158
6.1468036
6.1466502
6.1474708
6.1478316
6.1483191
6.1492513
6.1498151
6.1498363
6.1492483
6.1481969
6.147531
6.1469902
6.1460632
6.1463127
6.1466989
6.1474614
6.1493531
6.1505679
6.1509729
6.151041
6.1507144
6.1509511
6.1507675
6.1499764
6.1491595
6.1483006
6.1471766
6.1472815
6.1478058
6.148958
6.1150899
6.1185418
6.1244613
6.1291411
6.1306879
6.1308241
6.1305857
6.130486
6.1294023
6.1251077
6.1191838
6.1152899
6.1135865
6.1126984
6.1120918
6.1121985
6.1140208
6.1148375
6.1154772
6.1167317
6.1168201
6.1157603
6.1152881
6.1146337
6.1129513
6.1127995
6.1130755
6.1130623
6.1127524
6.112868
6.1145181
6.1151429
6.1156324
6.1167668
6.116762
6.1155959
6.1150107
6.1142108
6.1123917
6.112205
6.1126268
6.1130481
6.1136855
6.11516
6.1183496
6.1187662
6.1179244
6.1172313
6.1179054
6.1171826
6.1167345
6.1157287
6.1136214
6.1131758
6.1133807
6.113891
6.0880163
6.0882696
6.0910098
6.0999541
6.1078155
6.1082225
6.1082327
6.1080152
6.1081148
6.1081395
6.1006
6.0917084
6.0885327
6.0878399
6.0869078
6.0857936
6.0859779
6.0869877
6.0878407
6.0882219
6.0882163
6.0883249
6.0885408
6.0883225
6.0876339
6.0867943
6.0865732
6.0873827
6.0873694
6.0865151
6.0866928
6.087502
6.088188
6.0883841
6.0882603
6.0882706
6.0883636
6.0880559
6.0872195
6.0862197
6.0860268
6.0869894
6.0876378
6.0877271
6.0898558
6.0953696
6.0967873
6.0927213
6.0906249
6.0898615
6.0900263
6.0897509
6.0886702
6.0874145
6.0868041
6.0875619
6.0666393
6.066937
6.0676841
6.0698844
6.0693558
6.070739
6.0721068
6.0718883
6.0710066
6.0698146
6.0706492
6.0679999
6.066854
6.0660047
6.0654679
6.0669541
6.0660652
6.0668029
6.068655
6.0685315
6.0686485
6.0689817
6.0672818
6.0667425
6.0677998
6.0663457
6.0666046
6.0665892
6.0662818
6.0677082
6.0666013
6.067132
6.0688237
6.0685758
6.0685938
6.0688001
6.066999
6.0663478
6.0672479
6.0658328
6.0663143
6.0670683
6.0679198
6.0705102
6.0680313
6.0678015
6.0716484
6.0717472
6.0705912
6.0705939
6.0687968
6.0677381
6.0683914
6.0664471
6.0660231
6.065246
6.0754743
6.0928641
6.1168173
6.1444556
6.1597794
6.1575716
6.140419
6.1150347
6.0931854
6.0755287
6.0650925
6.0658468
6.0745255
6.0932198
6.1269732
6.1759346
6.2215074
6.2326694
6.2338142
6.2242979
6.177406
6.1264324
6.0926172
6.0759156
6.0676342
6.0655021
6.0766882
6.0778649
6.0882318
6.0895737
6.1008529
6.0886314
6.0869582
6.0965594
6.0883155
6.0999876
6.087956
6.0762425
6.076426
6.0866161
6.0864966
6.094498
6.0747725
6.0827989
6.0963104
6.1037959
6.101926
6.0917908
6.0819086
6.0761497
6.0673295
6.0658548
6.0767409
6.0770234
6.0872553
6.100054
6.0868949
6.0884251
6.0884909
6.0953992
6.1030026
6.0958421
6.1065506
6.0976394
6.0980215
6.0955062
6.0895545
6.0827746
6.0821953
6.0896608
6.0965758
6.0969982
6.1090728
6.0967141
6.0955579
6.086472
6.0729307
6.0790301
6.0792505
6.0764875
6.0684337
6.0688156
6.0792628
6.0894428
6.0918965
6.1042105
6.0910061
6.0791436
6.0895974
6.0969254
6.1246973
6.1225803
6.1317546
6.1212945
6.1179127
6.1242949
6.1189888
6.1529761
6.1904345
6.1980694
6.1896662
6.1519622
6.160091
6.1785562
6.1569169
6.1947936
6.2040234
6.1924123
6.1553558
6.1589726
6.1961101
6.1980844
6.1611051
6.1275928
6.0992395
6.1251675
6.1158128
6.103517
6.1396121
6.1116795
6.1412007
6.1712249
6.2044917
6.1451533
6.1551607
6.2248621
6.1881117
6.1702381
6.2634857
6.2097831
6.1500888
6.1121139
6.0966266
6.124692
6.142125
6.171738
6.1366878
6.1302428
6.1052191
6.0883271
6.0884854
6.0892424
6.0890263
6.0885816
6.0887784
6.1056444
6.1078622
6.1091457
6.1092689
6.1078232
6.1343782
6.1362637
6.1576112
6.1502613
6.1141161
6.0905058
6.136149
6.216435
6.2447664
6.2022463
6.1989657
6.1990917
6.2023891
6.2444234
6.2402709
6.2314848
6.2210035
6.2217178
6.2329883
6.2443885
6.2493707
6.2085759
6.2058146
6.2059581
6.2089
6.2501731
6.2455078
6.2350388
6.2240677
6.2241463
6.1779692
6.1180013
6.0834879
6.0682085
6.0677117
6.0761352
6.0792888
6.0792812
6.0760669
6.0675697
6.0680371
6.0832548
6.1178472
6.1781297
6.2244287
6.2244053
6.2350581
6.2440841
6.2483897
6.2047499
6.2014857
6.2011292
6.2045442
6.2492961
6.2448874
6.2350545
6.2237946
6.2226872
6.2328733
6.2409537
6.2636305
6.2798542
6.2557276
6.1272247
5.9621085
5.8677189
5.8688445
5.9648674
6.1306806
6.2581415
6.282559
6.2669606
6.2464586
6.2259541
6.1469531
6.0978851
6.1069792
6.1645009
6.2375997
6.2108719
6.2512255
6.2686341
6.2674704
6.1338101
6.000371
5.9087257
5.763816
5.6838662
5.5977869
5.5677595
5.5671765
5.5964619
5.6817459
5.7605284
5.9044538
5.9964662
6.128515
5.9050526
5.7975577
5.6436077
5.5569749
5.4603085
5.4264448
5.4269231
5.461578
5.5592674
5.6471146
5.8025123
5.9095949
5.7672467
5.9726259
6.1549174
6.18077
6.1740437
6.2083442
6.2086334
6.2376452
6.1644883
6.1069835
6.0979713
6.1470161
6.2257293
6.2511975
6.2112328
6.181552
6.1743889
6.1365834
6.1361001
5.8811825
5.605311
5.6894159
5.5643404
5.6499606
5.5304814
5.4229855
5.3286108
5.2824589
5.2820358
5.3272737
5.42052
5.5268625
5.644695
5.7623246
5.9661198
5.6840039
5.5586597
5.4213474
5.2857647
5.1804533
5.1259135
5.1263941
5.1818805
5.288448
5.4254549
5.3329203
5.4686486
5.4350906
5.576321
5.5764664
5.8817439
5.6056582
5.4688912
5.4350933
5.287685
5.2878558
5.1291001
5.1836934
5.0680351
5.0066703
5.0061858
5.0665649
5.1808458
5.3286531
5.4625304
5.5993874
5.8729771
5.5701268
5.4286399
5.2833146
5.1261017
5.0059788
4.9425905
4.9430569
5.0075711
5.0073408
5.1289765
5.1834875
5.3328166
5.4259599
5.5651056
5.6904673
5.9743834
6.1560395
6.2681386
6.2688618
6.2669899
6.2461763
6.2351423
6.2743872
6.2981377
6.2827869
6.2593607
6.1365505
5.912996
5.7691389
5.6518557
5.5320449
5.4246161
5.2886912
5.1822172
5.0675584
5.0063462
4.942837
4.942313
5.0057607
5.1262032
5.2833251
5.4288647
5.5703374
5.8736566
5.5998087
5.4629567
5.3288239
5.180922
5.0662828
5.0058551
5.1264827
5.126746
5.2843237
5.3302567
5.4653033
5.5627365
5.6504922
5.8062348
5.9121547
6.0030606
6.1352388
5.9710035
5.7669448
5.6874177
5.6016081
5.5718364
5.4308069
5.4305678
5.2839651
5.3294206
5.1811262
5.2866672
5.422284
5.5598101
5.6852652
5.9679257
5.7645238
5.6470484
5.5289804
5.4227676
5.5612197
5.4644436
5.600858
5.5715474
5.8766504
5.8769868
6.1323193
6.1522656
6.2666742
6.2819547
6.2660809
6.2743096
6.2559535
6.2719488
6.2860932
6.2770736
6.2799291
6.1702653
6.1658347
6.1654205
6.1695945
6.2796648
6.2769412
6.2858186
6.2356101
6.274716
6.25634
6.2745221
6.2652975
6.2662697
6.1748457
6.1669709
6.1659267
6.1735129
6.2658921
6.2648251
6.2733547
6.2550593
6.2727965
6.2961887
6.2797444
6.2623889
6.1454199
6.1244962
6.1258748
6.1473428
6.2638613
6.2809008
6.2980184
6.300948
6.2857719
6.275167
6.2774553
6.1640708
6.159245
6.1579829
6.1626192
6.2768654
6.2745597
6.2842673
6.2703865
6.2980555
6.284066
6.2990562
6.2876128
6.3058399
6.2755966
6.1517478
6.1784553
6.1376139
5.8915888
5.9829726
6.1436281
6.2708968
6.2875483
6.2739594
6.3051425
6.2762061
6.2646166
6.2631924
6.1509144
6.1765508
6.1692279
6.131023
6.1317071
6.1695895
6.1770843
6.1519168
6.2641361
6.1315772
5.9996681
5.9085033
5.7645651
5.6861433
5.969448
6.1325829
6.2570964
6.2798997
6.2633866
6.2646669
6.2763722
6.1675794
6.163015
6.1626151
6.1670993
6.1836596
6.1570914
6.2760957
6.145252
5.9873402
5.9125091
5.882562
5.8619337
5.9090676
5.7996089
5.9097062
5.8620476
5.8082346
5.6080067
5.651458
5.74009
5.6780923
5.6041243
5.5980485
5.5542816
5.5534387
5.6283075
5.518956
5.6295866
5.7421717
5.9875557
5.6529088
5.5999941
5.609367
5.5560724
5.605707
5.6804934
5.5552892
5.448824
5.5818038
5.8975203
6.1437369
6.1443985
6.1839737
6.1577987
6.2767373
6.3051733
6.2737533
6.2874209
6.2715918
6.1472056
5.9885138
5.8979707
5.5588781
5.5586897
5.4644774
5.482179
5.4324554
5.4314215
5.4100771
5.4194024
5.2752763
5.3204773
5.4148745
5.4108885
5.5141364
5.4099051
5.413881
5.2742295
5.2629662
5.152441
5.3130567
5.4287872
5.4797651
5.5784939
5.5554456
5.4620296
5.4295089
5.4073229
5.4169585
5.4462856
5.3188972
5.2738736
5.2678171
5.0963227
5.1113609
5.1666737
5.0504328
5.1671988
5.1529028
5.3146605
5.2693175
5.0966288
5.1115708
4.9889595
4.9700482
5.0326232
4.9702613
4.9890255
4.9245076
4.9044166
4.8838232
4.9510454
5.0807468
5.2651198
5.3106275
5.4101954
5.5161416
5.5080839
5.3966201
5.2397702
5.3978698
5.4112677
5.2514108
5.1379101
5.1235789
5.2985395
5.2495492
5.0649332
5.0512064
5.2554748
5.4171994
5.9538612
6.0469484
6.1988085
6.3186211
6.2935969
6.1820173
6.0318089
5.9470838
5.9481145
6.1798716
6.1388883
6.1533198
6.2768383
6.3064474
6.2884303
6.2728736
6.1464858
5.9853594
5.8926165
5.5559797
5.4624745
5.4301616
5.4804595
5.5795953
5.4474829
5.4174841
5.4078614
5.4296036
5.5560852
5.6057674
5.6800123
5.742756
5.6533928
5.5999003
5.6099278
5.6311038
5.5554751
5.4160637
5.3202245
5.2742785
5.2681571
5.3140956
5.1535294
5.0966745
5.1118994
5.1680051
5.2765857
5.2649086
5.4115726
5.5165414
5.5219796
5.4182991
5.4136174
5.3174423
5.1548742
5.0339533
4.9706819
4.9895619
5.0517387
4.9904243
4.9249579
4.9048143
4.971369
5.0987168
5.1142011
5.1695422
5.3239809
5.2790094
5.2722561
5.4148105
5.4360392
5.560406
5.613539
5.8121495
5.8655733
5.912891
5.9911065
6.1482844
5.9158499
5.8860313
5.8655203
5.9140375
5.8039155
5.6341042
5.7469015
5.9906839
5.6567717
5.6038812
5.6097246
5.6857071
5.5601338
5.4540193
5.5874958
5.9011954
5.4866322
5.4368822
5.4688446
5.5645416
5.4249021
5.4249047
5.2788123
5.1141242
4.9902231
4.9247964
4.924257
4.9887462
5.1117102
5.2752507
5.4195815
5.410055
5.4644105
5.4323788
5.4819873
5.5820103
5.4489987
5.4312246
5.5564103
5.6061084
5.681463
5.5559734
5.6310567
5.7436276
5.653231
5.6000953
5.6097604
5.5147313
5.4108885
5.3143567
5.2691756
5.096426
5.1524734
5.1670115
5.3204626
5.4153666
5.2746729
5.2627992
5.4104815
5.4154475
5.520413
5.6316567
5.6478197
5.8018521
5.9088312
5.913012
5.8647827
5.8849829
5.8111173
5.8032142
5.9129679
6.1465633
5.9904414
5.9145798
5.8642699
5.6533501
5.6104635
5.6001988
5.5568217
5.5569061
5.6822406
5.9870062
5.7439976
5.6059743
5.4816169
5.4312651
5.3135511
5.1519567
5.0321284
4.9698021
4.9041205
4.9696243
4.9885967
5.0499727
5.1668387
5.1115622
5.0957769
5.2681753
5.2750425
5.3202407
5.4495706
5.4203374
5.4099215
5.4316788
5.4636147
5.8962701
5.582718
5.5596397
5.5599406
5.4206016
5.275402
5.111898
4.9891244
4.9699681
4.9046306
4.9710799
5.0331947
5.0512799
5.1693071
5.1542886
5.0983436
5.2719586
5.3170195
5.3237195
5.4184084
5.2764646
5.1679982
5.1529677
5.0961338
5.2684234
5.3142823
5.3210861
5.4170326
5.411792
5.2642352
5.4132226
5.5166861
5.5229078
5.6352171
5.5606026
5.4541522
5.4357996
5.414627
5.4365559
5.4687023
5.9015438
5.5646094
5.5875802
5.4863587
5.6098157
5.5603256
5.603545
5.6134167
5.6567263
5.9916294
5.6864133
5.7480071
5.9169668
5.8070402
5.6337426
5.5582202
5.4503998
5.4318122
5.4101521
5.4319551
5.463921
5.8965408
5.5833955
5.4819895
5.6070353
5.5579455
5.6012407
5.6117737
5.654551
5.9881172
5.683441
5.7457609
5.9162007
6.148563
5.8673549
5.814566
5.8878064
5.8678945
6.1499736
5.9936614
5.9175468
6.2734306
6.2959465
6.1872153
6.039151
5.9557958
5.9555671
6.0388056
6.1863235
6.2954976
6.1844207
6.0339427
6.0487538
5.9547995
5.4179413
5.5994111
5.605614
6.0820553
6.2283494
6.3252519
6.2228964
6.1519371
6.1265238
6.0989625
6.1217386
6.1116571
6.142263
6.1263609
6.1236015
6.1308135
6.1216601
6.1409899
6.1698431
6.2015923
6.1663142
6.1857726
6.272488
6.2734735
6.325844
6.3113712
6.2500204
6.1840309
6.248897
6.2073771
6.1740299
6.114108
6.0830818
6.1059458
6.1381827
6.1645274
6.2030937
6.2217394
6.1794657
6.1482405
6.2254083
6.2251336
6.1480267
6.0951355
6.0952408
6.1191485
6.1190599
6.1575243
6.1361381
6.1343585
6.1502665
6.1141753
6.0906247
6.1359567
6.2158552
6.1731161
6.1140088
6.08339
6.0763315
6.0927159
6.1260495
6.1766409
6.2244598
6.236008
6.2361664
6.2251565
6.1778233
6.1276639
6.0936225
6.0749585
6.066332
6.0653943
6.0757
6.0936224
6.1179731
6.1467596
6.1639486
6.1638633
6.1464131
6.1173227
6.0927445
6.075228
6.0655763
6.0678634
6.0778842
6.0766955
6.0869484
6.0886118
6.0895592
6.1007919
6.0882749
6.1189275
6.1250148
6.1369882
6.1306425
6.1613019
6.1652274
6.1673181
6.1674627
6.1652881
6.1609188
6.1961102
6.2346396
6.2758071
6.2850081
6.2770384
6.2724059
6.2303535
6.2378209
6.2298143
6.2720575
6.2793709
6.2960081
6.2763602
6.2346208
6.2431984
6.232268
6.2743421
6.277369
6.2356842
6.2374358
6.2788396
6.3042738
6.2967527
6.2841437
6.3217601
6.2833514
6.2557833
6.2168403
6.2456583
6.2077507
6.1666642
6.1814239
6.2186768
6.2272911
6.190215
6.2653682
6.2428099
6.2812649
6.3053848
6.3431738
6.265177
6.2570056
6.3183042
6.3551204
6.3799787
6.5343483
6.4891202
6.4051344
6.3359984
6.2962624
6.2562001
6.235703
6.1964311
6.1593453
6.1794902
6.2174884
6.2467109
6.2062673
6.1700966
6.2090643