/*--------------------------------*- C++ -*----------------------------------*\
  =========                 |
  \\      /  F ield         | OpenFOAM: The Open Source CFD Toolbox
   \\    /   O peration     | Website:  https://openfoam.org
    \\  /    A nd           | Version:  7
     \\/     M anipulation  |
\*---------------------------------------------------------------------------*/
FoamFile
{
    version     2.0;
    format      ascii;
    class       volScalarField;
    location    "90";
    object      alphat;
}
// * * * * * * * * * * * * * * * * * * * * * * * * * * * * * * * * * * * * * //

dimensions      [1 -1 -1 0 0 0 0];

internalField   nonuniform List<scalar> 
24789
(
0.001858642
0.012775401
0.031118787
0.05250931
0.64229043
0.6423042
0.052510171
0.03112104
0.012778167
0.0018590657
0.0018605393
0.012794305
0.031159442
0.052571133
0.64276223
0.64347939
0.052623982
0.031191134
0.012808431
0.0018618388
0.001863928
0.012832071
0.031248149
0.052716991
0.64438172
0.64546807
0.052798441
0.031296561
0.012852923
0.0018657881
0.0018683764
0.012882144
0.031366716
0.052913182
0.64673711
0.64819853
0.053019985
0.031430319
0.01290932
0.0018707925
0.001873942
0.012944907
0.031515814
0.053160519
0.64986644
0.65173183
0.053291578
0.031594161
0.012978345
0.0018769276
0.0018806742
0.013020653
0.031695779
0.053459062
0.65379486
0.6560907
0.053615367
0.031789564
0.01306066
0.0018842604
0.0018886375
0.013110018
0.031908191
0.05381144
0.65860384
0.66136288
0.053994943
0.032018281
0.013156841
0.0018928418
0.001897828
0.013212792
0.032152526
0.054216957
0.6643467
0.66759256
0.054427337
0.032278766
0.013266395
0.0019026535
0.0019082572
0.013329016
0.032428856
0.054675712
0.67108168
0.67484587
0.054913379
0.03257134
0.013389383
0.0019136967
0.0019198884
0.013458394
0.032736507
0.055186808
0.67886404
0.68315594
0.055450718
0.032894437
0.013525201
0.0019258974
0.0019325977
0.013599833
0.033072446
0.055745316
0.68770352
0.69250843
0.056029018
0.033242658
0.013672285
0.0019390949
0.0019462955
0.013753301
0.033434541
0.056345926
0.69754413
0.70280651
0.056646407
0.03361578
0.013831379
0.0019531856
0.0019607113
0.01391766
0.033818642
0.056982028
0.70823471
0.71383764
0.057288066
0.034002423
0.013997212
0.0019676215
0.0019749092
0.014078027
0.034193665
0.057606256
0.71955637
0.72539284
0.057877376
0.034350909
0.014143839
0.0019816221
0.0019892793
0.014204449
0.034506031
0.058152108
0.73163061
0.73877325
0.058365474
0.034615958
0.014244291
0.0019974475
0.0020092023
0.014280776
0.034722491
0.058590757
0.74761409
0.759867
0.058894923
0.034851456
0.014322074
0.0020275639
0.0020521748
0.014376113
0.035207577
0.05967631
0.7783816
0.81430196
0.062182184
0.036744272
0.015035305
0.0021102267
0.0021329656
0.015133973
0.036712656
0.06174932
0.83860695
0.8518973
0.063654937
0.037925671
0.01564425
0.0021727683
0.0021763567
0.016348588
0.040180681
0.068161502
0.83188234
0.9171581
0.059307557
0.035954378
0.015007511
0.0021180424
0.0020741703
0.014608926
0.035221131
0.058783641
0.91765106
0.89472129
0.055131206
0.032981757
0.013620548
0.0019959516
0.0019457883
0.013238422
0.031976522
0.05354766
0.86697694
0.85061241
0.053124651
0.031763532
0.013176152
0.0019192117
0.0019025499
0.013152765
0.031708943
0.052981266
0.83830556
0.82865952
0.052850583
0.031653513
0.013132233
0.0018923404
0.0018852118
0.013102993
0.031570903
0.05268459
0.82063935
0.81347011
0.052465569
0.031448543
0.013054748
0.0018787469
0.0018728097
0.012993535
0.031299724
0.052211819
0.80656418
0.79975581
0.051930634
0.031127315
0.012919191
0.0018663887
0.0018598705
0.012840546
0.03094449
0.051629366
0.79312174
0.78678612
0.05132322
0.030757671
0.012759689
0.0018529244
0.0018463597
0.012683034
0.030579905
0.051032951
0.7806252
0.77473418
0.050747684
0.030404767
0.012607499
0.001839708
0.0018335559
0.01253721
0.030240055
0.050477704
0.76912434
0.76380798
0.050209332
0.030076092
0.012467245
0.0018273374
0.0018216847
0.012403165
0.029925319
0.049962111
0.75884674
0.75416763
0.049717321
0.029775836
0.012339533
0.0018160134
0.0018108982
0.01228137
0.029638551
0.049491909
0.74982698
0.74583699
0.049276596
0.029506587
0.012224982
0.0018058531
0.0018013257
0.012173168
0.029383874
0.049074641
0.74210344
0.73869419
0.048881493
0.029265537
0.012122671
0.0017968353
0.0017928638
0.012076947
0.029157108
0.048702957
0.7355029
0.73261625
0.048531712
0.029052215
0.012032226
0.0017889076
0.0017854959
0.01199281
0.028958865
0.048378226
0.72997184
0.72762981
0.048234216
0.028870311
0.011954872
0.0017821285
0.0017793028
0.011922059
0.02879255
0.048106248
0.72553055
0.72361045
0.047984423
0.028717645
0.011889986
0.0017764664
0.0017741793
0.011863296
0.028654375
0.047880227
0.72200091
0.72053928
0.047778728
0.028592025
0.011836623
0.0017718279
0.0017700343
0.011815672
0.028542472
0.047697301
0.71928992
0.71823795
0.047617832
0.02849349
0.011794608
0.0017681633
0.0017668672
0.011779567
0.028458176
0.047560134
0.71740629
0.71690176
0.047512591
0.028427852
0.011765946
0.0017655886
0.0017650204
0.011760313
0.028416097
0.047495506
0.71673781
0.71806263
0.047570831
0.028458951
0.01177753
0.0017663734
0.0017672343
0.011785293
0.028474332
0.047589583
0.71800098
0.71855007
0.047626272
0.02849714
0.011796003
0.0017682478
0.0017700711
0.011816818
0.028546484
0.047705136
0.71947647
0.72065651
0.047776322
0.028589372
0.01183555
0.001771723
0.0017740767
0.011862679
0.028653979
0.047880734
0.72206986
0.72369159
0.047973862
0.028710516
0.011887285
0.0017762517
0.0017791671
0.011920909
0.028790582
0.048103821
0.72555293
0.72765055
0.048222821
0.028862896
0.011952135
0.0017819156
0.0017853906
0.011992098
0.028957888
0.048377271
0.7300175
0.73264743
0.048523998
0.02904676
0.012030149
0.0017887239
0.001792732
0.01207599
0.029155594
0.048701341
0.73555666
0.73873999
0.048869975
0.029258144
0.012120015
0.0017966208
0.0018012375
0.012172803
0.029383679
0.049075055
0.74219302
0.74593219
0.049268203
0.029501078
0.012223104
0.0018056921
0.0018108628
0.01228188
0.029640571
0.049496105
0.74997343
0.75431244
0.049712359
0.029772184
0.0123383
0.0018158783
0.001821621
0.012403419
0.029926498
0.049964536
0.7589693
0.76393961
0.050206375
0.030073384
0.012466272
0.001827193
0.0018334328
0.012536921
0.030239918
0.050478103
0.76924207
0.77485391
0.050740775
0.030399766
0.012605732
0.0018395019
0.0018462383
0.012682805
0.030579776
0.051033393
0.78077162
0.78696051
0.051314531
0.030752082
0.012757996
0.0018527518
0.0018599076
0.012842217
0.030948908
0.051637377
0.79338577
0.80008722
0.051932469
0.031127902
0.012919993
0.0018664061
0.0018730501
0.01299796
0.03131106
0.052231278
0.80703866
0.814145
0.052479368
0.031456906
0.013058516
0.001879056
0.0018860355
0.013112276
0.031595022
0.052724224
0.82160817
0.82996244
0.052893038
0.031679222
0.013142689
0.0018935944
0.001904586
0.013169922
0.031751849
0.053048428
0.83991863
0.85245771
0.053191415
0.031804059
0.013195373
0.0019219559
0.0019514093
0.013288389
0.032075495
0.053708669
0.86933169
0.896549
0.055424503
0.03312957
0.013656046
0.0020001237
0.0020822527
0.014760511
0.035670969
0.059890832
0.92280019
0.92060993
0.055918777
0.03413081
0.014340246
0.0020639754
0.0021501994
0.01616131
0.039741712
0.067257395
0.83384418
0.86667466
0.06453773
0.037964583
0.015529995
0.0021328323
0.0021897051
0.016107609
0.039556066
0.067355308
0.84432873
0.81263715
0.061597036
0.036559559
0.014966176
0.0021109348
0.0020521035
0.014361097
0.034900661
0.058872344
0.78064744
0.76152832
0.057875397
0.034346765
0.014165495
0.0020151926
0.0019926097
0.014081643
0.034151193
0.057502084
0.74838285
0.73870492
0.057256794
0.034022022
0.014028656
0.0019789931
0.0019702011
0.013987078
0.033909439
0.057041638
0.73118648
0.72466273
0.056783267
0.033765046
0.013929707
0.0019626153
0.0019559392
0.01386345
0.033606076
0.056512589
0.71854402
0.71253093
0.05619827
0.033415967
0.013781553
0.0019487492
0.0019415258
0.013696514
0.03321717
0.055867464
0.70673808
0.70121855
0.055532779
0.033015238
0.013609872
0.0019339226
0.0019267976
0.013528249
0.032824378
0.055217985
0.69585087
0.69070849
0.054906194
0.032635221
0.013447467
0.0019195949
0.0019129958
0.013373155
0.032459981
0.054616349
0.68586139
0.6812509
0.054327199
0.032285321
0.013299217
0.0019063428
0.0019002989
0.013231461
0.032124655
0.054060917
0.67693696
0.67287245
0.053797333
0.031965494
0.013164233
0.0018942386
0.0018887777
0.013102876
0.031819676
0.05355552
0.66910614
0.66555463
0.053316268
0.031675212
0.013041924
0.0018832978
0.0018784304
0.012987068
0.031544814
0.053100134
0.66231141
0.65926642
0.052886366
0.031415679
0.012932587
0.0018735479
0.0018692941
0.012884485
0.031301409
0.052697158
0.6565182
0.65397557
0.052510937
0.031188769
0.012836893
0.0018650346
0.0018613963
0.012795532
0.031090443
0.052348061
0.65168043
0.64958179
0.052187901
0.030993497
0.012754542
0.0018577354
0.001854686
0.012719704
0.030910599
0.052050469
0.64771285
0.64610214
0.051922204
0.030832427
0.012686348
0.0018516754
0.0018492344
0.01265824
0.030765311
0.051810579
0.64465109
0.64338596
0.05170207
0.030699367
0.012630231
0.0018467274
0.0018448542
0.012608807
0.030648666
0.05161839
0.64234238
0.64150174
0.051539089
0.030600016
0.012587865
0.0018429418
0.0018417842
0.012575272
0.030571498
0.05149375
0.64104045
0.64112387
0.051486325
0.030563016
0.01256957
0.0018410079
0.0018602828
0.012794345
0.031164718
0.052586779
0.64320466
0.64321564
0.052590695
0.031168903
0.01279795
0.0018607747
0.0018623293
0.012814746
0.031208325
0.052652745
0.64372889
0.64454212
0.05271216
0.031244139
0.012830705
0.0018638009
0.0018661061
0.012856767
0.031306884
0.052814691
0.64558675
0.64683257
0.052904226
0.031360602
0.012880076
0.0018682072
0.001871115
0.012913088
0.031440101
0.053034746
0.64828518
0.64992511
0.053154549
0.031511536
0.012943538
0.0018738206
0.0018772569
0.012982263
0.031604389
0.053307234
0.65180669
0.65388922
0.05345192
0.031691048
0.01301921
0.0018805566
0.0018846236
0.0130651
0.031801201
0.053633535
0.65618681
0.65871804
0.053807545
0.031905081
0.013109077
0.0018885397
0.0018931709
0.013160984
0.032029274
0.054012191
0.66147213
0.66446072
0.054212452
0.032148879
0.013211548
0.0018976907
0.001902923
0.013269941
0.032288449
0.054442677
0.66769842
0.67117831
0.054667896
0.032423232
0.013326974
0.0019080479
0.0019139076
0.013392267
0.03257942
0.054926178
0.67494633
0.67896398
0.055175697
0.032728925
0.013455611
0.0019196199
0.0019260866
0.013527665
0.032901232
0.055461031
0.68326384
0.68781902
0.055734973
0.033065355
0.013597305
0.0019323551
0.0019393528
0.013675454
0.033251192
0.056042241
0.69265376
0.69773176
0.056336696
0.033428421
0.013751348
0.0019461254
0.0019536193
0.013836432
0.033628883
0.05666703
0.703055
0.70856042
0.056983795
0.033818503
0.013917935
0.0019607374
0.0019682552
0.01400437
0.034021293
0.057319205
0.71428416
0.72014835
0.057615946
0.034197644
0.014079703
0.0019750881
0.0019824845
0.014151942
0.03437298
0.057915418
0.72621039
0.7327482
0.05816747
0.034512452
0.014207139
0.0019898618
0.0019992656
0.014258256
0.034650344
0.058423979
0.74034728
0.74984206
0.058651125
0.034760393
0.014299771
0.0020115829
0.0020325343
0.014373122
0.034954867
0.059044941
0.76290539
0.78227621
0.059962177
0.035421106
0.014492397
0.0020616656
0.0021199745
0.015154936
0.037068271
0.062737019
0.81726024
0.84242719
0.063735716
0.037740323
0.01552282
0.0021621761
0.0021718887
0.015679145
0.037998301
0.063786198
0.85534695
0.83769151
0.068579413
0.040392274
0.016402992
0.0021786621
0.63778983
0.08135527
0.046507781
0.018548689
0.0024157593
0.00225427
0.016602552
0.040691923
0.069704882
0.81587898
0.94767271
0.057901638
0.035010351
0.014685114
0.0021114792
0.0021081291
0.015089608
0.036601859
0.061873435
0.87907438
0.86858852
0.065923741
0.038664946
0.015781564
0.0021551007
0.0021606378
0.01573314
0.038532091
0.065306915
0.84419503
0.80938838
0.060825709
0.03607751
0.014787915
0.0020957205
0.0020412515
0.01424165
0.034633218
0.05848654
0.77711832
0.75890632
0.057702796
0.034227152
0.014110803
0.0020094914
0.0019896891
0.014056034
0.034095173
0.057419453
0.74662184
0.73761071
0.057220536
0.033998806
0.014018547
0.0019776214
0.0019695452
0.013982058
0.033897789
0.057022231
0.73048644
0.72426573
0.056774678
0.033759874
0.013927345
0.001962312
0.0019558012
0.013862013
0.033603204
0.056507914
0.71826138
0.712336
0.056191099
0.03341172
0.013779708
0.0019486123
0.0019414274
0.013695302
0.03321461
0.055863289
0.70660063
0.70108732
0.055523761
0.033009914
0.013607732
0.0019337652
0.0019266767
0.013526762
0.032821095
0.05521284
0.69573696
0.69063567
0.054901147
0.032632034
0.013446068
0.0019194838
0.0019129165
0.013372208
0.032457969
0.054613225
0.68578484
0.68119007
0.054324635
0.032283584
0.013298406
0.0019062778
0.001900269
0.013231132
0.032124169
0.054060407
0.67690093
0.67284919
0.053796423
0.031964757
0.01316385
0.0018942103
0.0018887653
0.013102721
0.031819494
0.053555366
0.66907808
0.66553988
0.05331798
0.031675951
0.0130421
0.0018833093
0.001878455
0.012987341
0.031545589
0.05310147
0.66229956
0.65927083
0.052888419
0.031416703
0.012932935
0.001873578
0.0018693249
0.012884794
0.031302173
0.052698359
0.65650624
0.65398852
0.052514394
0.031190594
0.012837547
0.0018650856
0.0018614571
0.012796256
0.031092249
0.052351034
0.6516904
0.64961472
0.052191498
0.030995509
0.012755325
0.0018578005
0.0018547691
0.012720728
0.030913218
0.052054963
0.64774569
0.64607845
0.051918537
0.03083054
0.012685795
0.0018516599
0.0018492095
0.01265787
0.03076438
0.051809078
0.64461565
0.64335205
0.051699026
0.030697548
0.012629532
0.0018466766
0.0018448054
0.012608248
0.030647341
0.051616223
0.64229679
0.6414722
0.051534285
0.030597176
0.012586765
0.0018428569
0.0018416953
0.012574249
0.030569008
0.051489632
0.64097033
0.64111995
0.051481591
0.03055999
0.012568301
0.0018408995
0.0017662412
0.011774811
0.028451534
0.047554833
0.71756026
0.71774901
0.047566614
0.028460174
0.011780017
0.0017668366
0.0017683656
0.011797314
0.028501046
0.047631433
0.71842537
0.71938064
0.047687213
0.028535153
0.011812602
0.0017697473
0.0017718943
0.011837455
0.028594598
0.047783449
0.72057986
0.72199834
0.04786642
0.028644929
0.011859411
0.0017738322
0.0017764918
0.011890127
0.028718195
0.047985357
0.72365451
0.72553173
0.048092696
0.028783401
0.01191834
0.0017789738
0.0017821747
0.011955245
0.028871271
0.048235562
0.72765118
0.73000614
0.048370286
0.028952671
0.011990075
0.0017852172
0.0017889173
0.012032327
0.029052734
0.048532673
0.73262479
0.7354852
0.048691819
0.02914904
0.01207348
0.0017925264
0.0017967983
0.012122138
0.029264382
0.048879652
0.73866491
0.7420961
0.049060015
0.029374146
0.012169244
0.0018009689
0.0018058658
0.01222499
0.02950652
0.049276202
0.74583139
0.7498534
0.049482099
0.029631741
0.012278602
0.0018106212
0.0018160819
0.012340497
0.029778431
0.049721598
0.75419535
0.75882939
0.0499544
0.029919471
0.012400623
0.0018213986
0.0018273342
0.012467533
0.030077196
0.050211337
0.76379904
0.76905457
0.050465229
0.0302313
0.012533495
0.0018331638
0.0018396198
0.012606624
0.030402686
0.050743959
0.77465202
0.78051424
0.051018004
0.030569759
0.01267881
0.0018459287
0.001852849
0.012758681
0.030754905
0.051317696
0.78666642
0.79301181
0.051618944
0.030937012
0.012837327
0.0018595269
0.0018664501
0.012919876
0.031129362
0.051933544
0.7996329
0.80639706
0.052209603
0.031296804
0.012992044
0.001872529
0.0018787772
0.013056164
0.031453409
0.052471954
0.81323126
0.82020169
0.052679367
0.031566028
0.013099357
0.0018847221
0.001891869
0.013125853
0.031645585
0.052842128
0.82788637
0.83697623
0.052911614
0.031656882
0.013125236
0.0019007942
0.0019168274
0.01312999
0.031673403
0.05301137
0.84882122
0.86558771
0.053363055
0.03182762
0.013169928
0.0019414314
0.001989126
0.013509184
0.032718734
0.054754272
0.89439549
0.91916164
0.057337189
0.034494756
0.014363765
0.0020605029
0.0021165023
0.014992467
0.035869685
0.059054287
0.9191204
0.83291289
0.070082944
0.041136959
0.016742011
0.0022172977
0.0021938512
0.015856751
0.038507162
0.064716754
0.85251338
0.83692792
0.060468686
0.036035527
0.014878547
0.0021219847
0.0021182103
0.015126393
0.037002026
0.062764307
0.81380554
0.77770111
0.05974961
0.035241843
0.014379732
0.0020542589
0.0020287684
0.014322478
0.034852636
0.058894615
0.75911257
0.74681543
0.058544162
0.034693487
0.01426888
0.0020089436
0.0019974683
0.014239605
0.034606519
0.05834989
0.73822276
0.73127573
0.058131365
0.0344931
0.01419867
0.0019888541
0.0019817524
0.014144875
0.034354852
0.057882719
0.72521673
0.71942046
0.05759461
0.03418651
0.014074929
0.0019745988
0.0019677809
0.013998909
0.034007296
0.057294798
0.71377192
0.70816947
0.056972306
0.033812681
0.013915237
0.0019604525
0.0019533671
0.013833438
0.033621169
0.056653997
0.70277888
0.69749091
0.056336096
0.033428706
0.01375107
0.0019460607
0.0019392487
0.013673908
0.033246711
0.056034206
0.69248641
0.68767259
0.055739183
0.033068435
0.013598173
0.0019324039
0.0019260708
0.013527011
0.03289894
0.055456721
0.68316669
0.67885776
0.055182235
0.03273336
0.013457061
0.0019197282
0.0019139156
0.01339177
0.032577358
0.054922062
0.67485716
0.67104637
0.054667837
0.032424127
0.013327215
0.0019080798
0.0019028357
0.013268289
0.03228349
0.05443375
0.6675655
0.66428279
0.054206555
0.032146371
0.013210445
0.0018976102
0.0018929932
0.0131584
0.032022252
0.054000182
0.66131978
0.65854783
0.053801161
0.031901975
0.013107576
0.001888407
0.0018844245
0.013062454
0.031794281
0.053622016
0.65606451
0.65375009
0.053449637
0.03169003
0.013018375
0.0018804563
0.0018770916
0.012980052
0.031598517
0.053297353
0.65171008
0.64981397
0.053153572
0.031511336
0.012943046
0.0018737508
0.0018709664
0.012911016
0.031434447
0.053025055
0.64818466
0.64669474
0.052908668
0.031363471
0.012880694
0.0018682113
0.0018660002
0.012855084
0.031301834
0.05280538
0.64547098
0.64435694
0.052712095
0.031244789
0.012830636
0.001863772
0.0018621185
0.012811521
0.031198954
0.052635514
0.64349567
0.64276943
0.052567177
0.031156824
0.012793267
0.0018604297
0.0018595114
0.01278353
0.031135105
0.052533202
0.64245847
0.64318568
0.052576969
0.031157888
0.012791659
0.0018599975
0.0018609088
0.01279928
0.031172315
0.052593873
0.64318685
0.64368462
0.052643547
0.031202068
0.012812407
0.0018621046
0.0018639958
0.012832918
0.031250125
0.052720368
0.64451089
0.64554278
0.052804314
0.031300004
0.012854197
0.001865869
0.0018683781
0.012882
0.031365904
0.052911409
0.64678443
0.64822755
0.053023154
0.031432488
0.01291021
0.0018708562
0.0018739614
0.012944811
0.031514705
0.053157585
0.6498795
0.65174714
0.053298726
0.031598572
0.012980082
0.0018770511
0.0018807283
0.013021034
0.03169587
0.053458148
0.65384129
0.65613634
0.053625246
0.031795495
0.013062938
0.0018844155
0.0018886888
0.013110514
0.031908736
0.053811593
0.65868189
0.66142279
0.054003707
0.032023573
0.01315887
0.0018929702
0.0018978523
0.013213107
0.032152741
0.054216749
0.66443484
0.66767252
0.05443441
0.032283024
0.01326802
0.0019027428
0.0019082515
0.013329098
0.032428528
0.054674693
0.67117108
0.6749339
0.054918694
0.032574567
0.013390638
0.0019137525
0.0019198656
0.013458384
0.032736049
0.055185841
0.67897236
0.68326597
0.055454015
0.032896586
0.013526109
0.0019259281
0.0019325884
0.013599935
0.033072072
0.05574436
0.68782686
0.6926336
0.056034505
0.033246125
0.013673755
0.0019391745
0.001946351
0.013754028
0.033435255
0.056346173
0.69769727
0.70299315
0.056658691
0.033623412
0.013834555
0.0019533966
0.001960883
0.013919885
0.033823226
0.056989193
0.70847135
0.71411934
0.057306106
0.034012967
0.014001417
0.0019678926
0.0019750099
0.014079156
0.03419585
0.057610573
0.71989721
0.72577384
0.057885505
0.034354136
0.014144979
0.001981785
0.0019894165
0.014202369
0.034499327
0.058144302
0.73212999
0.73947782
0.05836583
0.034614491
0.014245461
0.0019980962
0.0020107993
0.014290863
0.034731036
0.058597803
0.74872835
0.7614141
0.058950677
0.034901057
0.014359316
0.0020313996
0.002062911
0.014503946
0.035381775
0.05988372
0.78048892
0.81520205
0.062642038
0.037031079
0.015137452
0.0021175709
0.0021681904
0.015663595
0.038154896
0.064627348
0.84378089
0.85512025
0.062062453
0.037077637
0.015352789
0.0021392542
1.9798772
3.4571975
2.5284945
0.92278583
0.05933644
0.03597933
0.015008114
0.0021193262
0.0021730231
0.015953306
0.039199565
0.066970112
0.86577244
0.0023726813
0.01809453
0.045213147
0.078844251
0.6345835
0.55338234
0.076095929
0.04351271
0.017383877
0.0022881382
0.0022908667
0.017251596
0.043273787
0.075798514
0.5501942
0.7426353
0.07342333
0.042417284
0.017118601
0.0022614516
1.345496
1.5945896
3.1272337
2.5184756
8.3311134
8.3270088
8.5358843
8.3310303
8.9362758
8.8381233
8.6293929
8.6971654
0.0018413725
0.01257346
0.030572229
0.051500891
0.64119845
0.64115593
0.051494679
0.03057124
0.012575349
0.0018417739
0.001843358
0.012592795
0.030612476
0.051560089
0.64165674
0.64248493
0.051617065
0.030647055
0.012608359
0.001844803
0.0018471072
0.01263474
0.030710797
0.051721302
0.64351903
0.64476273
0.051808435
0.030763172
0.012657514
0.001849153
0.0018519863
0.012689889
0.030841278
0.051936941
0.6462113
0.64785223
0.05204755
0.030908028
0.012718814
0.0018545913
0.0018580328
0.012758155
0.031002888
0.052203971
0.64969758
0.65176236
0.052341682
0.031085916
0.012793875
0.001861239
0.0018652718
0.012839751
0.031196236
0.052523685
0.65404177
0.65655292
0.05268866
0.031295682
0.01288234
0.0018690942
0.0018737379
0.012934911
0.031421832
0.052896822
0.65930332
0.6622982
0.053090534
0.031538358
0.012984563
0.0018781893
0.0018834219
0.013043453
0.031679321
0.053323118
0.66554147
0.66904615
0.053544065
0.031812011
0.013099835
0.0018884818
0.001894302
0.013165077
0.031967991
0.053801604
0.67282016
0.67685626
0.054045872
0.032115009
0.013227667
0.0018999416
0.0019063701
0.01329974
0.032287239
0.054330669
0.68116906
0.68574367
0.054599593
0.032449056
0.013368707
0.0019125673
0.0019195237
0.013446782
0.032634289
0.05490505
0.69058454
0.69569452
0.055195301
0.032809924
0.013522399
0.0019262585
0.0019337805
0.01360822
0.0330117
0.055526825
0.70104929
0.70661133
0.055846141
0.033203051
0.013690523
0.001940946
0.0019485255
0.013778691
0.033410114
0.056188733
0.71240274
0.71839618
0.056480767
0.033586168
0.013855107
0.0019552455
0.0019624487
0.013926893
0.033760252
0.056777131
0.72451369
0.73099379
0.057008943
0.033888153
0.013978149
0.001969395
0.0019783101
0.014023207
0.034009831
0.057239827
0.73844744
0.74793372
0.057441436
0.034106753
0.014061432
0.0019904883
0.0020124094
0.014147658
0.034330611
0.057874156
0.76125535
0.7811328
0.058906589
0.034875524
0.014298696
0.0020431256
0.0021066396
0.015062656
0.03671576
0.061983842
0.81559774
0.84109295
0.062641108
0.037197034
0.015270424
0.0021236714
0.0021711924
0.01595998
0.039265347
0.067109897
0.8620804
0.058156216
0.035139489
0.014739101
0.0021168404
0.0020753348
0.014084655
0.03341043
0.055085159
0.93239522
0.79356279
0.063663971
0.0372988
0.015270921
0.0021691168
0.0022640689
0.017129985
0.042514011
0.073923623
0.7387505
0.87494419
0.063148549
0.037205384
0.015323994
0.0021232636
0.0021743986
0.015989719
0.039333423
0.06721803
0.86354042
0.84224219
0.062685035
0.037225079
0.015283337
0.0021252963
0.0021079262
0.015073661
0.036740738
0.062024741
0.81635977
0.78147625
0.058941559
0.034896816
0.014307299
0.0020442095
0.0020131877
0.014152128
0.034340143
0.057890322
0.76143464
0.74793983
0.057465616
0.034120668
0.014066597
0.0019912386
0.001978781
0.01402466
0.034012238
0.057244245
0.73839737
0.73089395
0.057029404
0.033900347
0.013982693
0.0019699671
0.0019629107
0.013929999
0.033766455
0.056786835
0.72449942
0.71839954
0.056505066
0.033601698
0.013861132
0.0019558571
0.001949089
0.013783808
0.033421306
0.056206285
0.71251415
0.70670526
0.055875909
0.033221681
0.013697885
0.0019416474
0.0019344054
0.013613952
0.033024799
0.055547985
0.70122813
0.69582211
0.055226681
0.032829335
0.013530005
0.0019269794
0.0019201061
0.013451988
0.032645842
0.054923077
0.69072213
0.68580063
0.054619924
0.032462389
0.013374121
0.0019131251
0.0019067762
0.013302983
0.032293998
0.05434086
0.68122973
0.67688455
0.054067183
0.032128364
0.013232814
0.0019004279
0.0018946648
0.013168134
0.031974451
0.053811395
0.67287717
0.66906278
0.053562339
0.031823674
0.013104348
0.0018889037
0.0018837261
0.013046019
0.031684617
0.053331053
0.66557335
0.66227856
0.053109348
0.031550117
0.012989032
0.0018785818
0.0018740085
0.012937204
0.031426343
0.052903223
0.65930802
0.65648701
0.0527014
0.031304166
0.012885635
0.0018693953
0.0018654137
0.012840464
0.031196604
0.05252282
0.65395952
0.651648
0.052350859
0.031092139
0.012796166
0.0018614384
0.0018581013
0.01275822
0.031001865
0.052201076
0.64960913
0.64774651
0.052057668
0.030914583
0.012721103
0.0018547668
0.0018520323
0.012689751
0.030839748
0.05193312
0.64611468
0.64460407
0.05180901
0.030764455
0.0126579
0.0018491986
0.0018470036
0.012632771
0.030704735
0.051709971
0.64333936
0.64221598
0.051611206
0.030644601
0.012607204
0.0018447127
0.0018430642
0.012588371
0.030600028
0.051537477
0.64131824
0.64058555
0.051467963
0.030557102
0.012569784
0.0018413559
0.0018402886
0.012557664
0.030528676
0.051421132
0.64010394
0.63992905
0.051396219
0.030511082
0.012548974
0.0018393459
0.64289792
0.052550308
0.031142966
0.012786298
0.0018596533
0.0018608378
0.01279841
0.031170432
0.052591138
0.64308194
0.64366665
0.052632968
0.031196204
0.012810432
0.0018619894
0.001864041
0.012833675
0.031252355
0.052724633
0.64452134
0.64558828
0.052800902
0.031298124
0.012853683
0.0018658523
0.00186847
0.012883486
0.031370139
0.052919295
0.64685037
0.64830593
0.053021945
0.031431669
0.012910028
0.0018708528
0.0018740377
0.012946291
0.031519179
0.053166222
0.64996385
0.65181696
0.053295487
0.031596634
0.012979415
0.001876996
0.0018807258
0.013021604
0.031698093
0.053462966
0.65387371
0.65613294
0.05361787
0.031791094
0.013061289
0.0018842796
0.0018886149
0.013110097
0.031908158
0.05381114
0.65862635
0.66137792
0.053994823
0.032018262
0.013156891
0.0018928088
0.0018977761
0.013212739
0.03215235
0.054216729
0.66437187
0.66760325
0.054424536
0.032277215
0.013265867
0.001902564
0.0019081629
0.013328664
0.032427988
0.054674418
0.67109071
0.67483272
0.054908985
0.032568754
0.013388429
0.0019135533
0.0019197297
0.013457482
0.032734329
0.055183534
0.67885219
0.68311471
0.05544201
0.032889442
0.013523378
0.0019256789
0.0019324064
0.013598536
0.03306903
0.055739604
0.68765255
0.69243961
0.056020824
0.033238047
0.013670634
0.0019388865
0.0019461252
0.013752171
0.03343136
0.056340216
0.69748832
0.70275713
0.056642313
0.033613521
0.013830536
0.0019530401
0.0019605931
0.013916968
0.033816882
0.056978746
0.70819976
0.71381314
0.057288757
0.034002716
0.013997126
0.0019675573
0.0019748652
0.014078451
0.034195232
0.057608423
0.71955654
0.72535496
0.057879133
0.034352388
0.014144133
0.0019815676
0.0019891712
0.014203414
0.034504846
0.058150048
0.73147055
0.73838735
0.058348368
0.034605091
0.0142392
0.0019972324
0.0020091298
0.01427302
0.034704383
0.058562366
0.74700255
0.75920615
0.058886016
0.034846201
0.014319672
0.0020282634
0.0020541923
0.014381385
0.03524679
0.059758241
0.77775358
0.81358196
0.062746013
0.036988402
0.015120158
0.0021173768
0.002121435
0.014873217
0.036020741
0.060440477
0.83645183
0.85156907
0.064705394
0.038499319
0.015851367
0.0021931996
0.0022149802
0.016706004
0.041085422
0.070019177
0.83201954
0.91834164
0.059056106
0.035865482
0.014987788
0.0021157516
0.0021537376
0.015772323
0.038649855
0.065907146
0.86790069
0.86545276
0.064422396
0.037898999
0.015505178
0.0021307034
0.0020631016
0.014324581
0.034097978
0.055870434
0.91993621
0.85538411
0.062101939
0.037096892
0.015356564
0.002139666
0.0021736576
0.015695256
0.038046315
0.063871041
0.85602436
0.92350601
0.059431625
0.036033808
0.015028059
0.0021213231
0.0021760791
0.015983623
0.039272826
0.067089146
0.86695892
0.8445478
0.061790185
0.036756197
0.015105864
0.0021146282
0.0021022635
0.015024924
0.036643301
0.061910046
0.81870556
0.78320523
0.058986979
0.034910493
0.014307531
0.0020429393
0.0020129604
0.014153325
0.034352365
0.057924796
0.76255104
0.74881649
0.057491829
0.03413436
0.014071802
0.0019914304
0.0019791597
0.01403081
0.034026851
0.057270061
0.73906754
0.73139177
0.057046444
0.033910456
0.013987264
0.0019703251
0.0019632305
0.013933718
0.033774914
0.056801287
0.72487127
0.71867486
0.056513204
0.033606686
0.013863474
0.0019560878
0.0019492618
0.013785536
0.03342524
0.056212953
0.71269107
0.70682925
0.055876991
0.033222577
0.013698467
0.0019417323
0.0019344604
0.013614426
0.033025878
0.055549901
0.70129078
0.69586534
0.055226669
0.032829391
0.013530101
0.0019270017
0.0019201211
0.013452118
0.032646185
0.054923753
0.6907453
0.68583832
0.054623371
0.032464223
0.013374778
0.0019131722
0.0019068376
0.013303762
0.032296022
0.054344378
0.68127149
0.67692984
0.054069212
0.032129576
0.013233337
0.0019004762
0.0018947207
0.01316882
0.031976212
0.053814473
0.67290885
0.669085
0.053558324
0.03182169
0.013103772
0.0018888801
0.0018836937
0.013045598
0.031683578
0.053329417
0.66555357
0.66226769
0.053099231
0.031544608
0.01298707
0.0018784494
0.0018738769
0.012935652
0.031422662
0.052897381
0.65924274
0.65645405
0.052694701
0.031300193
0.012884028
0.0018692611
0.0018653152
0.012839469
0.031194539
0.052519915
0.65393268
0.65160682
0.052348376
0.031090516
0.012795426
0.0018613666
0.0018580575
0.012757835
0.031001209
0.052200344
0.64960067
0.64771943
0.052050484
0.030910543
0.012719603
0.0018546593
0.0018519252
0.012688498
0.03083683
0.051928523
0.64606337
0.64459822
0.051805087
0.030762026
0.012656866
0.0018491058
0.001846931
0.012632034
0.030703167
0.05170768
0.6433197
0.64226302
0.051612194
0.030644924
0.012607193
0.0018446923
0.0018430685
0.012588578
0.03060078
0.051539026
0.64134643
0.64060847
0.051463266
0.030554571
0.012568906
0.0018412981
0.0018402426
0.012557227
0.030527778
0.051420058
0.64010332
0.63994934
0.051389399
0.030507206
0.012547498
0.001839241
0.6412235
0.051494326
0.030567471
0.012571809
0.0018412202
0.0018420722
0.012578889
0.03058055
0.051508509
0.64116263
0.6416436
0.051551511
0.03060667
0.012590782
0.0018431877
0.0018450961
0.012611827
0.030656269
0.051630717
0.64244989
0.64347918
0.051711008
0.0307042