/*--------------------------------*- C++ -*----------------------------------*\
  =========                 |
  \\      /  F ield         | OpenFOAM: The Open Source CFD Toolbox
   \\    /   O peration     | Website:  https://openfoam.org
    \\  /    A nd           | Version:  7
     \\/     M anipulation  |
\*---------------------------------------------------------------------------*/
FoamFile
{
    version     2.0;
    format      ascii;
    class       volScalarField;
    location    "90";
    object      omega;
}
// * * * * * * * * * * * * * * * * * * * * * * * * * * * * * * * * * * * * * //

dimensions      [0 0 -1 0 0 0 0];

internalField   nonuniform List<scalar> 
24789
(
127238.63
39959.226
23542.65
17679.371
3123.8219
3126.2116
17690.023
23554.639
39972.95
127259.85
127354.48
40005.727
23574.647
17705.521
3129.6772
3133.6503
17724.695
23598.071
40038.497
127436.78
127574.24
40085.189
23626.788
17746.79
3137.9631
3142.6096
17771.976
23658.167
40130.775
127695.59
127867.84
40189.503
23694.544
17799.846
3147.5411
3152.7834
17831.224
23734.152
40248.228
128027.99
128239.26
40320.261
23778.935
17865.431
3158.3075
3164.1322
17903.193
23827.096
40392.616
128439.16
128692.57
40478.918
23880.89
17944.197
3170.1249
3176.3277
17988.629
23938.07
40565.752
128935.09
129233.17
40667.014
24001.167
18036.543
3182.6482
3189.0534
18087.648
24067.441
40768.572
129519.79
129861.51
40884.472
24139.595
18142.184
3195.4515
3201.8219
18199.892
24214.976
41000.898
130193.05
130579.49
41131.577
24296.108
18260.867
3208.0667
3214.1559
18324.866
24380.323
41262.672
130955.95
131385.36
41407.378
24469.832
18391.708
3219.9506
3225.4362
18461.342
24562.109
41552.031
131803.62
132271.11
41709.455
24659.069
18533.216
3230.4867
3235.1588
18607.965
24758.917
41866.914
132726.47
133232.11
42037.841
24863.747
18685.186
3239.3446
3243.2333
18765.232
24971.427
42208.425
133719.29
134253.54
42393.63
25084.797
18848.133
3246.9616
3250.6972
18934.321
25200.687
42575.522
134751.26
135279.35
42770.663
25323.51
19025.793
3254.6498
3259.2144
19124.509
25453.836
42967.107
135774.37
136342.74
43187.768
25599.231
19234.488
3263.4188
3265.9776
19364.33
25768.938
43434.313
136956.02
137787.55
43784.703
25998.615
19533.139
3265.2442
3252.5149
19732.891
26299.653
44323.892
139082.66
141336.28
44875.563
26529.649
19840.491
3206.6932
3118.7133
19744.882
26465.205
44884.398
143779.89
145077.23
45636.949
26967.786
20142.775
3073.3657
3064.1075
20487.234
27676.918
47271.907
151810.04
160121.74
49193.399
28379.674
20681.152
3159.5556
2878.0371
20855.115
27780.248
47051.01
150140.85
146584.03
45720.799
27066.893
20343.159
2843.9415
2870.7385
20399.085
26923.256
45181.571
142118.43
138668.03
44389.611
26586.178
20216.888
2917.2432
2943.9508
19968.779
26198.404
43659.698
136375.83
135161.22
43112.033
25858.019
19723.051
2951.9283
2952.8061
19541.848
25620.808
42767.755
134416.58
133863.54
42522.912
25446.659
19404.499
2951.1824
2948.6852
19294.31
25304.034
42314.199
133364.71
132912.07
42132.666
25178.087
19195.398
2946.0642
2944.1785
19106.207
25061.157
41952.26
132425.64
131938.41
41774.585
24946.162
19018.826
2942.1229
2940.0141
18936.478
24834.221
41593.856
131427.17
130947.35
41424.697
24725.373
18853.542
2937.5146
2934.7537
18775.484
24621.021
41257.83
130463.76
130017.86
41102.453
24520.289
18698.058
2931.3593
2927.5316
18625.164
24423.567
40948.558
129568.6
129161.42
40806.506
24330.811
18553.323
2923.2132
2918.5973
18486.308
24242.436
40666.553
128753.93
128387.37
40538.199
24158.06
18420.46
2913.598
2908.6049
18360.2
24078.969
40413.493
128026.98
127704.66
40300.019
24003.828
18301.09
2903.3004
2898.0009
18247.328
23933.6
40189.493
127385.74
127105.04
40090.05
23867.272
18194.761
2892.4859
2887.0896
18147.397
23805.617
39993.048
126825.69
126586.44
39907.533
23748.037
18101.371
2881.6222
2876.4072
18060.942
23695.543
39825.002
126350.44
126154
39754.041
23647.16
18021.841
2871.2326
2866.3017
17988.151
23603.426
39685.028
125956.71
125799.21
39627.43
23563.583
17955.558
2861.6036
2857.1544
17927.968
23527.831
39570.743
125636.98
125515.23
39525.366
23495.854
17901.472
2852.8736
2848.9487
17879.897
23467.846
39480.603
125387.7
125301.78
39447.339
23443.595
17859.334
2845.2505
2842.1352
17844.615
23424.412
39416.462
125216.8
125183.2
39399.918
23410.486
17831.805
2839.5976
2843.2298
17850.93
23433.245
39432.785
125275.93
125329.36
39454.348
23447.286
17862.286
2845.4543
2848.862
17879.829
23468.017
39482.088
125394.11
125517.84
39525.172
23495.253
17901.192
2852.6845
2856.8455
17925.976
23525.449
39567.994
125629.31
125791.69
39624.21
23561.151
17953.869
2861.2467
2865.9242
17985.141
23599.821
39680.197
125940.9
126143.82
39750.313
23644.508
18019.993
2870.8117
2875.9279
18058.165
23692.189
39820.421
126334.68
126578.35
39904.491
23745.808
18099.822
2881.1748
2886.5613
18144.823
23802.49
39988.858
126812
127094.87
40086.447
23864.723
18192.956
2891.9773
2897.4377
18244.617
23930.361
40184.977
127369.58
127697.48
40297.518
24001.999
18299.836
2902.8209
2908.1168
18358.055
24076.484
40410.194
128014.37
128383.65
40536.739
24156.852
18419.677
2913.2205
2918.1087
18484.325
24240.156
40663.652
128742.89
129155.31
40804.516
24329.283
18552.278
2922.6744
2926.8856
18622.986
24421.013
40945.265
129556.55
130006.81
41099.085
24517.953
18696.385
2930.6281
2933.9186
18772.81
24617.848
41253.375
130446.6
130935.81
41421.457
24723.212
18852.008
2936.7008
2939.1196
18934.257
24831.795
41590.531
131411.56
131937.24
41774.763
24945.911
19018.549
2941.2914
2943.1867
19105.084
25060.58
41952.497
132422.92
132924.86
42134.906
25179.149
19195.986
2944.962
2947.1922
19294.019
25304.266
42315.513
133381.28
133914.64
42528.014
25448.858
19406.091
2949.3337
2950.0325
19542.329
25622.753
42775.458
134496.81
135297.8
43123.823
25862.637
19725.82
2948.0615
2939.9575
19980.533
26220.538
43707.886
136542.91
138935.78
44522.104
26624.524
20228.701
2911.897
2859.6693
20318.426
26847.018
45132.879
142447.92
146366.98
45634.154
26962.787
20184.511
2832.9023
2857.8054
21264.55
28090.717
47257.162
147565.97
160424.81
49341.944
28458.508
20772.89
3138.7968
2985.0039
19907.876
26945.518
45977.257
147595.61
150078.72
45904.135
26578.075
19471.889
3039.3781
3097.27
19885.613
26703.948
45520.926
145953.26
141967.51
45132.786
26679.292
19970.62
3179.4228
3224.6195
19799.242
26341.182
44325.721
139083.97
137501.55
43695.604
25985.266
19560.955
3239.0517
3242.5792
19377.008
25734.657
43312.92
136542.3
135888.93
43042.124
25547.876
19233.832
3240.8341
3236.9272
19117.881
25394.666
42812.723
135326.54
134835.08
42613.154
25260.375
19014.293
3232.7996
3229.43
18922.668
25137.729
42420.084
134309.24
133787.05
42232.978
25019.05
18834.393
3225.765
3222.24
18751.71
24904.556
42044.792
133245.02
132740.12
41869.644
24793.831
18668.832
3218.2312
3214.0688
18590.839
24687.78
41697.118
132231.79
131767.5
41537.173
24585.806
18513.81
3209.284
3204.2351
18441.435
24488.104
41379.061
131301.02
130878.38
41233.034
24394.393
18370.109
3198.6184
3192.8731
18303.604
24305.153
41089.213
130455.51
130075.72
40957.37
24219.971
18238.257
3186.6976
3180.4809
18177.786
24139.262
40827.685
129695.62
129359.49
40710.227
24062.82
18118.684
3174.0063
3167.6143
18064.555
23990.93
40594.975
129022.79
128731.04
40492.236
23923.518
18012.011
3161.0933
3154.8143
17964.64
23860.861
40391.931
128439.23
128191.55
40304.041
23802.664
17918.886
3148.4806
3142.483
17878.277
23749.093
40218.22
127942.44
127736.75
40144.546
23699.779
17839.122
3136.4997
3131.0869
17805.655
23655.699
40073.906
127533.69
127370.8
40014.862
23615.56
17773.361
3125.6659
3120.7139
17746.027
23579.591
39956.809
127203
127079.75
39910.956
23547.728
17719.996
3115.8978
3111.6224
17699.232
23520.411
39866.641
126953.39
126879.89
39836.683
23498.297
17680.483
3107.7012
3105.336
17670.395
23485.263
39816.229
126832.85
127338.68
39993.705
23564.7
17696.426
3126.9678
3129.8348
17708.934
23578.778
40010.371
127367.24
127469.19
40046.237
23600.926
17726.12
3133.5841
3137.8608
17747.671
23627.416
40083.719
127564.4
127717.36
40135.928
23659.714
17772.518
3142.4949
3147.4816
17800.682
23695.058
40187.698
127855.68
128050.25
40253.875
23736.14
17832.164
3152.7466
3158.2918
17866.832
23780.091
40319.484
128230.65
128462.02
40398.478
23829.279
17904.324
3164.0406
3170.0267
17945.537
23882.095
40478.309
128684.1
128960.23
40572.209
23940.58
17989.995
3176.1385
3182.3946
18037.816
24002.31
40666.491
129226.23
129542.55
40774.077
24069.312
18088.487
3188.6639
3194.9998
18142.811
24139.949
40882.836
129851.86
130211.47
41004.878
24215.836
18199.912
3201.2486
3207.4549
18260.661
24295.431
41128.314
130564.71
130969.8
41265.237
24380.311
18324.197
3213.4474
3219.2182
18390.973
24468.504
41402.956
131366.11
131815.71
41554.38
24561.988
18460.532
3224.627
3229.6606
18532.89
24658.261
41705.698
132253.32
132742.69
41870.563
24759.603
18607.756
3234.2064
3238.3414
18685.58
24863.965
42035.605
133218.88
133747.15
42215.203
24973.854
18766.221
3242.0786
3245.6893
18849.736
25086.955
42394.963
134253.43
134792.32
42585.883
25204.956
18936.337
3249.1132
3252.7072
19029.129
25327.855
42774.968
135288.26
135827.28
42982.35
25461.52
19128.993
3256.7067
3260.0467
19241.944
25609.82
43201.407
136371.93
137063
43469.144
25787.918
19375.928
3260.9997
3257.822
19550.198
26025.372
43829.451
137927.45
139397.51
44410.198
26343.433
19758.454
3242.3213
3193.4962
19874.367
26590.079
44995.722
141866.73
145108.33
45182.23
26551.278
19753.133
3104.8517
3060.6193
19967.46
26921.006
45870.405
146690.18
151629.98
47218.497
27619.891
20421.833
3041.2679
3129.0053
20552.686
28243.192
49051.128
160053.87
3959.3943
19300.263
27568.97
49229.229
164010.06
156855.82
49095.514
28430.183
20610.511
3217.9335
2807.1097
21743.482
29025.789
49025.832
153516.99
149426.09
47064.279
27785.488
20645.894
2973.3485
2986.8928
19876.013
27017.066
46272.764
149209.91
148535.8
45843.345
26731.615
19721.285
3039.3562
3110.318
19968.067
26756.599
45434.22
144723.47
141247.95
45041.407
26669.206
19980.629
3191.9518
3233.4785
19790.218
26317.974
44258.161
138700.38
137308.03
43657.775
25967.686
19551.273
3245.002
3246.1871
19369.026
25721.757
43289.315
136452.87
135847.41
43029.267
25539.889
19228.546
3242.9913
3238.2846
19114.455
25389.603
42805.016
135308.37
134827.36
42608.874
25257.395
19012.176
3233.7357
3230.0603
18921.098
25135.464
42416.551
134301.12
133781.37
42230.519
25017.579
18833.508
3226.2924
3222.5135
18750.376
24902.694
42041.637
133235.13
132732.58
41867.041
24792.251
18667.741
3218.4571
3214.2351
18589.73
24686.267
41694.707
132224.98
131762.68
41535.275
24584.608
18512.968
3209.4418
3204.3753
18440.7
24487.069
41377.43
131296.87
130876.52
41232.082
24393.766
18369.689
3198.813
3193.0492
18303.245
24304.65
41088.464
130453.87
130075.31
40957
24219.723
18238.121
3186.8876
3180.659
18177.896
24139.323
40827.814
129696.71
129361.28
40710.672
24063.104
18118.959
3174.26
3167.8666
18064.898
23991.322
40595.599
129024.98
128733.2
40492.923
23923.977
18012.421
3161.3378
3155.0919
17965.21
23861.522
40392.975
128442.77
128195.83
40305.352
23803.511
17919.598
3148.795
3142.8232
17879.036
23750.027
40219.686
127947.09
127742.65
40146.398
23700.956
17840.082
3136.871
3131.2775
17805.863
23655.951
40074.107
127532.74
127369.28
40014.537
23615.467
17773.364
3125.8255
3120.8197
17745.682
23579.094
39955.896
127199.72
127076.7
39909.964
23547.163
17719.626
3115.9962
3111.6859
17698.477
23519.424
39864.997
126947.93
126874.36
39834.852
23497.205
17679.706
3107.7325
3105.3273
17669.355
23483.937
39814.146
126826.49
125260.59
39427.033
23428.319
17846.581
2842.605
2845.3711
17860.167
23443.731
39445.992
125297.17
125401.21
39482.6
23466.819
17878.354
2848.849
2852.7465
17900.241
23493.258
39519.422
125493.86
125641.58
39570.397
23525.519
17925.514
2856.9211
2861.3959
17953.86
23560.372
39620.441
125773.91
125958.36
39684.134
23600.867
17985.474
2866.0763
2871.0133
18020.377
23644.277
39747.576
126129.91
126353.66
39824.709
23693.416
18058.623
2876.1
2881.3598
18100.165
23745.486
39901.788
126566.11
126826.37
39991.791
23802.895
18144.635
2886.6518
2892.1109
18192.965
23863.961
40083.061
127080.49
127382.89
40187.359
23930.444
18244.26
2897.5672
2903.0192
18299.309
24000.598
40293.012
127678.72
128027.59
40412.699
24076.708
18357.836
2908.3395
2913.5186
18419.515
24155.873
40532.892
128367.13
128758.18
40666.63
24240.623
18484.304
2918.4203
2923.027
18552.112
24328.194
40800.564
129140.11
129567.66
40946.794
24420.545
18622.212
2927.1767
2930.9716
18695.838
24516.337
41094.241
129989.13
130456.74
41254.429
24617.032
18771.769
2934.2455
2937.1513
18851.239
24721.226
41415.922
130915.98
131420.97
41590.822
24830.438
18932.905
2939.6009
2941.9533
19016.973
24942.6
41766.983
131912.89
132428.91
41949.848
25056.9
19101.923
2943.9948
2946.1474
19191.053
25171.778
42121.587
132891.67
133366.48
42303.758
25294.279
19286.251
2948.8542
2952.2667
19395.472
25432.637
42499.387
133826.89
134378.74
42740.735
25601.935
19528.173
2954.9223
2955.7282
19711.046
25837.912
43071.896
135029.97
136183.15
43641.948
26188.635
19961.767
2949.5683
2921.9064
20206.059
26570.527
44374.458
138322.36
141243.9
44972.602
26848.501
20369.806
2870.1549
2840.2003
20499.217
27127.632
45582.584
144968.96
150201.14
47179.186
27874.204
20941.38
2872.5959
3158.732
20567.406
28412.168
49445.152
161416.06
153177.89
47485.127
27699.522
20427.629
3063.0949
3076.9611
20342.735
27160.904
45849.504
144501.24
144276.01
44934.364
26456.98
19690.772
3120.296
3207.9583
19835.846
26531.798
44915.139
141485.81
139132.51
44351.461
26310.776
19738.17
3254.3082
3267.1146
19538.319
26004.108
43787.067
137749.47
136946.41
43433.713
25768.684
19363.921
3266.9675
3263.8066
19233.351
25595.911
43176.938
136308.32
135780.79
42964.697
25450.993
19121.706
3258.9697
3254.2923
19024.905
25321.313
42763.431
135256.88
134761.45
42576.397
25199.665
18932.663
3250.0744
3246.4005
18848.053
25083.949
42388.963
134235.45
133731.41
42210.503
24971.18
18764.087
3242.5041
3238.6975
18685.268
24863.189
42033.803
133215.6
132736.48
41868.639
24758.561
18606.748
3234.3809
3229.8778
18533.589
24658.882
41706.181
132257.23
131815.04
41554.389
24562.173
18460.449
3224.8266
3219.5141
18392.38
24470.066
41404.872
131373.65
130970.52
41266.048
24381.054
18324.541
3213.6316
3207.6143
18261.595
24296.428
41129.132
130567.07
130205.66
41003.765
24215.468
18199.424
3201.2297
3194.9035
18142.549
24139.424
40881.179
129846.35
129530.3
40770.688
24067.461
18086.822
3188.376
3182.0606
18036.681
24000.71
40663.314
129217.11
128946.61
40568.002
23938.095
17987.778
3175.6501
3169.5622
17944.445
23880.581
40475.465
128677.42
128450.72
40394.91
23827.121
17902.3
3163.475
3157.786
17865.979
23778.937
40317.244
128225.78
128039.86
40250.704
23734.265
17830.358
3152.2236
3147.1184
17800.662
23694.847
40186.909
127855.99
127710.03
40133.973
23658.676
17771.386
3142.0994
3137.562
17747.729
23627.267
40082.779
127562.6
127454.97
40042.621
23599.074
17724.454
3133.1735
3129.3156
17706.665
23575.466
40003.8
127344.21
127287.05
39979.313
23556.715
17690.376
3125.986
3126.6094
17697.6
23565.213
39991.684
127327.6
127381.56
40013.545
23579.107
17708.604
3129.4081
3133.2323
17726.791
23600.954
40043.585
127455.9
127579.12
40086.67
23627.582
17747.212
3137.4272
3142.0812
17772.592
23659.065
40132.313
127701.3
127867.89
40189.871
23694.793
17799.914
3146.9894
3152.3065
17831.963
23735.141
40249.701
128032.24
128240.41
40321.32
23779.724
17865.957
3157.8249
3163.6646
17904.635
23828.912
40395.39
128447.64
128696.12
40480.699
23882.073
17944.984
3169.6085
3175.7993
17990.16
23940.056
40568.928
128945.48
129236.21
40668.47
24002.089
18037.086
3182.0182
3188.3713
18088.772
24068.953
40771.043
129528.19
129862.67
40885.203
24140.007
18142.292
3194.6824
3201.0199
18200.476
24215.884
41002.483
130198.66
130578.44
41131.605
24296.069
18260.606
3207.1905
3213.2588
18325.097
24380.809
41263.556
130958.81
131382.78
41407.113
24469.617
18391.292
3219.0002
3224.4721
18461.473
24562.536
41552.73
131804.53
132268.97
41709.733
24659.286
18533.122
3229.4672
3234.0827
18608.688
24760.077
41868.663
132730.04
133233.77
42039.333
24864.759
18685.671
3238.1934
3242.0752
18766.847
24973.792
42212.256
133731.33
134262.72
42397.259
25086.914
18849.239
3245.7676
3249.5189
18936.91
25204.406
42581.304
134766.95
135282.32
42776.315
25327.89
19028.954
3253.4792
3258.17
19131.19
25462.458
42977.879
135779.26
136341.38
43204.612
25612.982
19244.915
3262.2508
3264.181
19382.606
25793.598
43467.974
136983.54
137875.24
43841.083
26036.567
19560.06
3261.9008
3248.3311
19780.368
26369.528
44434.465
139303.55
141878.78
45141.539
26649.301
19910.259
3201.4233
3110.1968
19755.179
26541.769
45160.348
144998.54
146773.67
45759.141
26825.95
19851.611
3060.9984
3041.0331
20632.01
27758.537
47186.571
150012.95
1481.3212
901.64711
1193.6307
2855.9568
20827.467
27743.03
47010.268
150149.03
150289.16
46329.396
26963.681
19768.98
2991.8359
161577.67
49046.947
27674.777
19506.232
3969.8975
4446.6558
19892.551
28101.643
49453.624
160524.67
161129.24
50010.543
28345.873
20011.545
4465.1789
3475.3443
19997.037
27847.885
48511.873
157033.54
2089.3705
1797.5978
980.49864
1193.6667
181.3286
191.18269
190.63677
181.32854
186.30342
188.75719
186.83388
182.92297
126858.38
39823.453
23487.891
17671.866
3106.4112
3108.8206
17683.494
23500.95
39838.402
126879.22
126983.04
39874.682
23523.509
17701.119
3112.577
3116.8554
17722.444
23549.746
39911.765
127076.52
127230.17
39964.011
23582.199
17747.551
3121.5104
3126.4784
17775.357
23616.997
40014.811
127365.51
127556.15
40079.793
23657.545
17806.569
3131.7411
3137.2811
17840.781
23700.894
40144.156
127730.69
127964.12
40223.559
23750.574
17878.929
3143.0978
3149.1194
17919.858
23802.888
40302.231
128181.14
128456.56
40395.966
23861.592
17964.743
3155.3306
3161.6578
18012.517
23923.136
40489.475
128717.77
129036.98
40597.956
23991.013
18064.167
3168.0752
3174.497
18118.676
24061.727
40706.366
129343.33
129705.07
40829.16
24138.424
18176.703
3180.8709
3187.139
18237.68
24218.09
40952.242
130055.94
130460.67
41089.281
24303.428
18301.855
3193.2046
3199.0172
18368.88
24391.693
41226.576
130854.17
131303.61
41378.132
24485.677
18439.146
3204.4946
3209.5529
18511.804
24582.042
41529.009
131738.53
132227.62
41694.029
24683.942
18587.434
3214.1469
3218.2999
18665.849
24788.786
41859.289
132703.5
133235.84
42040.212
24899.814
18747.615
3222.122
3225.7849
18831.442
25013.563
42221.404
133747.63
134293.75
42413.022
25131.711
18917.993
3229.1644
3232.5315
19010.142
25253.044
42598.174
134786.65
135314.68
42804.755
25387.146
19111.46
3236.4376
3240.1271
19226.878
25537.868
43024.754
135834.21
136496.32
43301.079
25723.968
19367.642
3241.7441
3238.6275
19550.52
25973.128
43677.782
137350.24
138904.52
44279.419
26299.843
19763.721
3221.7974
3171.71
19870.781
26537.884
44878.452
141534.81
144876.86
45133.783
26541.641
19767.58
3090.6249
3036.5034
19959.083
26838.925
45714.567
146534.21
150238.83
46213.055
26864.32
19695.789
3003.7201
21800.139
29169.062
49405.726
154795.6
151244.86
49424.24
29441.666
22171.071
2847.2675
3285.7497
21322.725
29040.393
49472.58
152359.17
156396.15
48152.892
27673.328
19846.327
3502.443
2998.8747
20487.913
27673.332
46937.284
149192.95
150467.66
46290.189
26908.069
19726.595
3006.935
3039.5405
19980.276
26866.704
45757.995
146648.06
144968.38
45167.42
26564.158
19785.256
3093.1107
3174.5024
19887.78
26559.192
44909.66
141612.62
138960.69
44305.846
26318.157
19777.913
3224.5402
3241.8088
19565.865
25991.906
43703.903
137403.58
136531.16
43322.243
25739.442
19379.898
3244.7571
3243.0709
19239.234
25552.665
43045.036
135876.43
135349.66
42821.418
25399.006
19120.827
3238.9604
3234.7725
19020.2
25264.889
42615.231
134831.69
134335.97
42427.94
25141.668
18925.686
3231.1053
3227.6522
18839.959
25024.13
42237.396
133798.6
133281.2
42055.021
24909.349
18754.808
3223.8342
3220.0229
18674.226
24799.153
41875.051
132754.9
132269.36
41707.76
24692.883
18594.202
3215.6647
3210.9653
18518.749
24590.621
41541.697
131778.26
131332.73
41388.122
24492.376
18444.209
3205.6474
3200.1446
18374.844
24398.937
41237.227
130888.54
130486.44
41098.148
24309.353
18306.299
3194.2325
3188.2244
18242.963
24224.508
40961.584
130085.55
129726.54
40836.753
24143.567
18180.556
3181.8531
3175.5324
18123.632
24067.662
40714.916
129370.72
129055.78
40604.788
23995.699
18067.671
3168.9906
3162.5407
18016.652
23928.033
40496.254
128738.61
128466.35
40400.146
23864.712
17967.053
3155.961
3149.714
17922.867
23806.323
40306.676
128195.09
127968.89
40225.903
23752.479
17880.252
3143.4695
3137.722
17843.259
23703.687
40147.723
127742.89
127559.23
40081.552
23659.027
17807.518
3131.9815
3126.6577
17776.639
23618.341
40015.958
127368.54
127222.84
39962.578
23581.739
17747.001
3121.4569
3116.7645
17722.29
23549.17
39909.775
127070.06
126962.35
39869.223
23520.626
17698.75
3112.2319
3108.2918
17680.482
23496.497
39829.809
126849.92
126782.15
39802.749
23476.395
17663.307
3104.5557
3101.8618
17652.652
23462.435
39779.956
126722.72
3126.7581
17694.119
23560.629
39983.75
127298.26
127373.52
40011.215
23577.794
17707.726
3129.7956
3133.6539
17725.863
23599.817
40041.499
127446.42
127581.76
40087.582
23628.223
17747.793
3137.931
3142.5831
17772.672
23659.243
40132.499
127699.91
127874.31
40191.734
23695.931
17800.842
3147.534
3152.8013
17831.998
23735.303
40250.019
128032.1
128245.92
40322.608
23780.415
17866.509
3158.3178
3164.0846
17904.007
23828.241
40394.415
128444.08
128696.27
40480.292
23881.748
17944.791
3170.019
3176.13
17988.917
23938.494
40566.379
128936.54
129231.77
40666.874
24001.147
18036.475
3182.3994
3188.8191
18087.466
24067.253
40768.18
129517.61
129857.91
40883.61
24139.101
18141.748
3195.204
3201.5626
18199.14
24214.097
40999.404
130186.8
130572.64
41129.819
24295.069
18260.019
3207.7944
3213.8438
18323.586
24378.724
41259.947
130945.36
131373.47
41404.253
24467.992
18390.264
3219.6161
3225.0673
18459.498
24559.788
41547.988
131787.41
132256.43
41705.854
24657.058
18531.674
3230.1132
3234.7442
18606.327
24756.778
41863.02
132710.2
133218.14
42034.399
24861.863
18683.746
3238.9172
3242.7767
18763.74
24969.473
42204.993
133706.8
134242.24
42389.883
25082.516
18846.324
3246.4529
3250.1919
18932.041
25197.9
42571.427
134743.34
135272.46
42764.483
25319.381
19022.623
3254.0936
3258.7947
19120.376
25448.255
42958.526
135765.73
136327.5
43177.746
25593.268
19230.346
3263.4543
3266.7418
19361.767
25764.896
43426.12
136927.89
137760.1
43785.27
25999.594
19533.799
3266.6917
3253.8861
19733.715
26303.928
44338.79
139096.92
141477.49
44906.642
26522.893
19827.885
3207.0721
3119.3031
19683.213
26446.322
44915.47
144218.28
144459.19
45833.629
27148.611
20332.286
3075.1596
3060.6214
20420.379
27689.263
47466.186
153106.98
161204.09
49411.734
28376.058
20535.737
3155.0128
2870.5566
20926.856
27857.577
47153.884
150133.97
149124.31
46230.281
26986.983
19850.581
2983.9875
2982.9637
19901.705
26932.325
45943.759
147452.87
147485.03
47250.637
28085.008
21261.462
2861.8429
3045.3372
20637.289
27762.476
47196.445
150022.03
151749.55
47262.02
27641.036
20438.017
3046.9594
2860.6921
20845.003
27766.882
47057.401
150291.91
150507.11
46406.609
27009.113
19803.082
2998.1202
3034.1802
20099.779
26946.895
45772.481
145906.67
144613.37
45098.104
26547.219
19783.059
3086.8838
3169.7745
19875.158
26541.517
44877.014
141534.31
138946.96
44312.714
26320.922
19778.109
3221.9616
3239.7088
19567.781
25996.156
43712.284
137419.58
136558.69
43332.545
25745.029
19383.244
3243.2493
3241.9885
19242.693
25558.167
43054.775
135901.19
135371.43
42829.686
25403.899
19124.126
3238.3067
3234.3582
19022.568
25268.478
42621.221
134847.32
134347.65
42432.313
25144.418
18927.656
3230.8613
3227.4746
18841.03
25025.703
42239.824
133804.22
133284.96
42056.476
24910.329
18755.533
3223.7259
3219.9153
18674.5
24799.591
41875.728
132756.48
132270.47
41708.154
24693.158
18594.416
3215.6208
3210.9851
18519.147
24591.149
41542.616
131781.63
131337.09
41389.45
24493.192
18444.85
3205.794
3200.326
18375.375
24399.667
41238.414
130892
130490.45
41099.484
24310.214
18306.99
3194.4281
3188.308
18242.886
24224.511
40961.495
130084.03
129724.48
40836.21
24143.304
18180.387
3181.8493
3175.4113
18122.39
24066.206
40712.5
129361.67
129046.84
40601.91
23993.95
18066.35
3168.783
3162.3105
18015.085
23926.088
40493.23
128729.46
128459.71
40397.709
23863.116
17965.814
3155.7767
3149.5132
17921.867
23805.054
40304.794
128190.04
127965.8
40224.674
23751.636
17879.598
3143.4056
3137.5479
17842.072
23702.263
40145.488
127735.39
127551.96
40079.157
23657.523
17806.366
3131.7887
3126.4679
17775.432
23616.869
40013.759
127362.34
127218.05
39960.776
23580.542
17746.064
3121.2813
3116.69
17721.703
23548.51
39908.987
127068.9
126962.97
39869.139
23520.469
17698.604
3112.1919
3108.1924
17679.839
23495.811
39828.803
126846.33
126779.68
39801.693
23475.712
17662.766
3104.4567
3101.6368
17651.548
23461.148
39777.984
126716.55
3106.2803
17673.111
23488.744
39822.11
126848.83
126900.84
39843.451
23502.502
17684.145
3108.6679
3112.4708
17702.116
23524.006
39872.752
126971.3
127097.24
39916.595
23551.238
17723.134
3116.7374
3121.4511
17748.437
23582.549
39961.829
127217.36
127385.44
40019.656
23618.575
17776.114
3126.4303
3131.719
17807.807
23658.374
40078.394
127545.53
127753.22
40149.831
23703.067
17842.054
3137.258
3143.1097
17880.505
23751.881
40222.98
127955.96
128206.77
40308.901
23805.659
17921.565
3149.1209
3155.3333
17966.632
23863.327
40396.297
128452.54
128743.34
40495.875
23925.651
18013.977
3161.574
3167.9466
18065.588
23992.215
40597.631
129031.86
129365.27
40711.519
24063.412
18119.432
3174.2373
3180.5792
18177.511
24138.868
40827.741
129697.33
130073.97
40956.023
24218.888
18237.725
3186.7611
3192.814
18302.051
24303.151
41086.628
130448.39
130872.37
41230.287
24392.451
18368.93
3198.5908
3204.0772
18439.342
24485.402
41375.324
131290.27
131758.7
41533.616
24583.384
18512.268
3209.1289
3213.7664
18588.585
24684.868
41693.08
132220.14
132729.65
41865.729
24791.155
18667.066
3217.8802
3221.651
18749.256
24901.325
42040.132
133231.15
133773.41
42228.151
25016.186
18832.797
3225.122
3228.3823
18920.593
25134.455
42414.435
134290.4
134823.06
42609.217
25258.081
19013.218
3231.4819
3235.1038
19115.347
25392.209
42810.55
135323.7
135887.82
43039.967
25544.582
19230.491
3238.252
3239.1975
19370.917
25729.22
43308.829
136515.15
137403.82
43692.23
25978.054
19551.896
3235.2273
3217.5375
19761.364
26299.284
44280.204
138880.14
141483.73
44845.906
26516.482
19853.916
3165.1734
3082.8202
19760.601
26518.251
45053.545
144493.75
145758.87
45719.463
26912.121
20071.712
3029.3962
2823.8169
20566.747
27115.404
45429.869
143899.74
141049.72
44557.218
26622.912
20229.204
2835.446
2892.7015
20099.345
26435.375
44169.229
138448.82
136453.95
43621.367
26146.633
19917.403
2927.7485
2940.6571
19705.842
25842.873
43105.733
135270.96
134541.63
42781.63
25619.076
19534.96
2944.4893
2945.2363
19405.368
25450.013
42532.341
133934.21
133425.2
42325.591
25306.934
19293.63
2944.0864
2942.6816
19197.533
25181.014
42136.004
132926.33
132443.49
41956.507
25061.629
19104.847
2941.4321
2939.9807
19019.075
24945.805
41771.288
131925.57
131426.74
41593.062
24831.811
18933.177
2937.9899
2935.8908
18852.11
24722.823
41418.178
130924.9
130458.54
41255.017
24617.418
18771.429
2933.1118
2929.9385
18695.938
24516.826
41094.618
129991.95
129564.55
40945.787
24419.955
18621.18
2926.1478
2922.0423
18551.727
24327.998
40799.888
129140.02
128754.41
40665.202
24239.735
18483.071
2917.4669
2912.6951
18419.899
24156.567
40533.779
128373.31
128030.9
40413.543
24077.204
18357.681
2907.5848
2902.5257
18301.135
24003.104
40296.758
127693.72
127394.3
40191.042
23932.817
18245.63
2897.2065
2891.9699
18195.727
23867.657
40088.462
127099.04
126840.95
39996.757
23806.197
18146.789
2886.5789
2881.3627
18103.253
23749.532
39907.522
126584.36
126365.8
39829.226
23696.553
18060.699
2876.0651
2871.0332
18023.913
23648.716
39753.847
126150.56
125973.26
39689.551
23604.584
17988.02
2866.1348
2861.4697
17957.333
23564.78
39626.573
125792.96
125653.83
39575.104
23528.844
17927.756
2856.9255
2852.7575
17903.577
23497.49
39525.295
125512.65
125416.45
39487.966
23470.45
17880.77
2848.8539
2845.5403
17864.496
23449.422
39454.504
125326.2
125299.88
39438.992
23435.675
17851.652
2843.2684
2843.5493
17852.603
23435.325
39435.794
125284.18
125338.46
39457.826
23449.683
17864.205
2845.7517
2849.1587
17882.238
23470.942
39486.399
125406.95
125527.66
39528.906
23497.818
17903.237
2852.952
2857.12
17928.47
23528.562
39572.577
125642.15
125804.55
39628.883
23564.269
17956.322
2861.5054
2866.1617
17987.866
23603.183
39685.387
125957.57
126153.79
39753.707
23646.702
18021.69
2870.9458
2876.0216
18059.781
23694.166
39823.559
126345.65
126581.46
39905.489
23746.459
18100.315
2881.1976
2886.5615
18145.196
23802.941
39989.439
126813.54
127094.87
40086.648
23864.948
18193.154
2891.9648
2897.4436
18244.988
23930.68
40185.299
127370.84
127694.41
40296.81
24001.672
18299.636
2902.8363
2908.1671
18358.086
24076.318
40409.734
128013.29
128376.94
40534.897
24155.84
18418.973
2913.2668
2918.1756
18483.831
24239.324
40662.102
128738.07
129146.31
40801.886
24327.758
18551.18
2922.7322
2926.9368
18621.933
24419.436
40942.576
129548.53
129993.27
41094.939
24515.449
18694.529
2930.6011
2933.8665
18770.961
24615.23
41249.081
130434.29
130917.48
41415.397
24719.448
18849.178
2936.5631
2938.9872
18931.319
24827.678
41583.948
131394.55
131911.1
41765.348
24940.075
19014.235
2941.1282
2943.089
19100.473
25054.252
41942.411
132397.3
132890.72
42122.873
25171.459
19190.139
2944.994
2947.5145
19288.229
25296.414
42303.479
133338.83
133840.33
42512.071
25439.033
19398.757
2950.1258
2951.7592
19534.544
25611.511
42754.528
134384.23
135121.64
43096.755
25847.736
19715.381
2950.9805
2943.0901
19959.132
26185.847
43640.767
136323.53
138608
44367.041
26572.043
20206.584
2916.4579
2869.9093
20387.2
26907.436
45156.838
142044.32
146499.14
45694.701
27050.674
20331.009
2842.9426
2876.7401
20842.52
27763.673
47024.471
150057.35
159880.49
49150.798
28343.142
20652.759