/*--------------------------------*- C++ -*----------------------------------*\
  =========                 |
  \\      /  F ield         | OpenFOAM: The Open Source CFD Toolbox
   \\    /   O peration     | Website:  https://openfoam.org
    \\  /    A nd           | Version:  7
     \\/     M anipulation  |
\*---------------------------------------------------------------------------*/
FoamFile
{
    version     2.0;
    format      ascii;
    class       volScalarField;
    location    "90";
    object      p;
}
// * * * * * * * * * * * * * * * * * * * * * * * * * * * * * * * * * * * * * //

dimensions      [1 -1 -2 0 0 0 0];

internalField   nonuniform List<scalar> 
24789
(
101296.7
101296.7
101296.69
101296.69
101296.7
101295.28
101295.33
101295.34
101295.34
101295.34
101293.87
101293.87
101293.87
101293.86
101293.8
101292.23
101292.29
101292.3
101292.3
101292.3
101290.62
101290.62
101290.62
101290.61
101290.55
101288.75
101288.8
101288.81
101288.81
101288.81
101286.85
101286.85
101286.85
101286.85
101286.8
101284.69
101284.73
101284.73
101284.73
101284.73
101282.42
101282.43
101282.42
101282.42
101282.4
101279.89
101279.89
101279.89
101279.9
101279.89
101277.12
101277.12
101277.12
101277.13
101277.13
101274.1
101274.08
101274.07
101274.07
101274.07
101270.7
101270.7
101270.71
101270.71
101270.75
101267.05
101266.99
101266.98
101266.98
101266.97
101262.84
101262.85
101262.85
101262.87
101262.94
101258.36
101258.28
101258.26
101258.25
101258.24
101253.12
101253.13
101253.14
101253.16
101253.25
101247.53
101247.43
101247.41
101247.4
101247.38
101240.97
101240.98
101241
101241.02
101241.13
101233.91
101233.79
101233.77
101233.75
101233.73
101225.52
101225.53
101225.55
101225.58
101225.72
101216.37
101216.14
101216.11
101216.1
101216.08
101205.09
101205.09
101205.1
101205.14
101205.56
101192.88
101192.04
101192.01
101192.02
101192.03
101176.13
101176.11
101176.08
101176.11
101177.72
101159.17
101156.3
101156.24
101156.29
101156.31
101131.71
101131.72
101131.68
101131.8
101136.38
101109.03
101102.79
101102.53
101102.47
101102.36
101063.85
101064.13
101064.41
101064.88
101071.79
101026.24
101018.92
101018.07
101017.41
101016.92
100999.62
101000.46
101002.08
101004.15
101014.82
100925.68
100927.06
100925.87
100924.94
100924.04
100300.21
100324.32
100342.69
100364.1
100561.35
100974.55
100938.22
100929.37
100920.04
100906.77
101138.72
101152.3
101157
101162.71
101167.98
101364.48
101376.51
101368.59
101358.09
101341.25
101725.21
101753.16
101775.05
101792.01
101761.93
101276.12
101110.41
101091.4
101076.82
101049.35
101196.31
101199.63
101198.22
101195.81
101183.14
100873.73
100649.43
100621.24
100593.59
100558.14
100495.35
100503.78
100509.25
100518.25
100627.26
100932.32
100925.61
100923.9
100922.67
100921.76
100996.86
100997.8
100999.32
101001.17
101011.81
101026.58
101018.82
101018.04
101017.43
101016.94
101064.33
101064.57
101064.8
101065.21
101072.81
101109.59
101102.48
101102.27
101102.26
101102.19
101131.25
101131.25
101131.18
101131.26
101136.47
101159.14
101155.79
101155.75
101155.82
101155.84
101175.89
101175.87
101175.82
101175.85
101177.69
101192.84
101191.89
101191.86
101191.88
101191.89
101205.06
101205.06
101205.07
101205.1
101205.54
101216.36
101216.16
101216.13
101216.12
101216.11
101225.55
101225.57
101225.59
101225.61
101225.71
101233.9
101233.82
101233.8
101233.78
101233.77
101241
101241.01
101241.03
101241.05
101241.12
101247.53
101247.45
101247.43
101247.42
101247.4
101253.12
101253.14
101253.15
101253.17
101253.25
101258.36
101258.28
101258.27
101258.26
101258.24
101262.84
101262.85
101262.85
101262.87
101262.93
101267.05
101267
101266.99
101266.98
101266.97
101270.7
101270.71
101270.71
101270.72
101270.76
101274.1
101274.08
101274.08
101274.07
101274.07
101277.12
101277.12
101277.12
101277.13
101277.13
101279.89
101279.89
101279.89
101279.89
101279.89
101282.42
101282.42
101282.42
101282.42
101282.4
101284.69
101284.73
101284.73
101284.73
101284.73
101286.85
101286.85
101286.85
101286.85
101286.8
101288.75
101288.8
101288.81
101288.81
101288.81
101290.62
101290.62
101290.62
101290.61
101290.55
101292.23
101292.3
101292.3
101292.31
101292.31
101293.87
101293.87
101293.87
101293.86
101293.8
101295.29
101295.36
101295.36
101295.36
101295.36
101296.72
101296.72
101296.71
101296.7
101296.7
101295.31
101295.27
101295.27
101295.28
101295.28
101293.86
101293.86
101293.86
101293.86
101293.8
101292.22
101292.28
101292.28
101292.29
101292.29
101290.62
101290.62
101290.62
101290.61
101290.55
101288.75
101288.81
101288.81
101288.81
101288.81
101286.86
101286.86
101286.86
101286.85
101286.81
101284.7
101284.74
101284.74
101284.74
101284.74
101282.43
101282.43
101282.43
101282.43
101282.4
101279.89
101279.91
101279.91
101279.91
101279.91
101277.14
101277.14
101277.14
101277.15
101277.14
101274.11
101274.1
101274.09
101274.09
101274.09
101270.72
101270.73
101270.73
101270.74
101270.76
101267.05
101267.01
101267
101267
101266.99
101262.85
101262.86
101262.87
101262.88
101262.94
101258.36
101258.29
101258.28
101258.27
101258.26
101253.14
101253.15
101253.16
101253.18
101253.25
101247.53
101247.46
101247.45
101247.43
101247.42
101241.01
101241.03
101241.04
101241.07
101241.13
101233.91
101233.85
101233.82
101233.81
101233.79
101225.6
101225.61
101225.63
101225.65
101225.74
101216.39
101216.22
101216.2
101216.19
101216.18
101205.18
101205.18
101205.18
101205.21
101205.59
101192.92
101192.05
101192.03
101192.05
101192.06
101176.11
101176.08
101176.03
101176.05
101177.82
101159.34
101156.04
101156.02
101156.1
101156.13
101131.37
101131.36
101131.28
101131.36
101136.68
101109.73
101102.63
101102.44
101102.44
101102.36
101065.29
101065.51
101065.74
101066.15
101073.74
101025.35
101018.43
101017.71
101017.12
101016.68
100990.91
100991.73
100993.12
100994.83
101004.82
100957.61
100947.26
100944.94
100943.14
100941.86
100579.31
100585.57
100588.1
100593.61
100658.54
100666.5
100259.23
100215.56
100175.69
100124.32
101923.15
101903.32
101884.27
101859.88
101591.02
101209.53
101082.31
101064.64
101051.49
101025.76
101675
101708.22
101730.56
101749.1
101703.82
101383.84
101451.85
101459.43
101465.59
101464.24
101802.27
101787.04
101770.78
101749.04
101560.77
100663.25
100336.44
100293.83
100252.43
100200.99
100511.98
100521.46
100525.79
100533.39
100618.52
100942.91
100934.14
100931.7
100930.14
100928.83
100990.19
100990.95
100992.39
100994.14
101000.93
101022.46
101016.58
101015.81
101015.16
101014.67
101064.52
101064.8
101065.06
101065.49
101072.03
101108.51
101102.48
101102.29
101102.29
101102.22
101131.83
101131.81
101131.71
101131.77
101136.15
101159.17
101156.51
101156.5
101156.59
101156.63
101176.41
101176.38
101176.33
101176.35
101177.8
101192.93
101192.21
101192.18
101192.19
101192.21
101205.21
101205.22
101205.22
101205.26
101205.61
101216.4
101216.23
101216.2
101216.18
101216.17
101225.57
101225.59
101225.61
101225.64
101225.75
101233.92
101233.82
101233.79
101233.77
101233.75
101240.98
101241
101241.02
101241.05
101241.13
101247.54
101247.45
101247.42
101247.4
101247.38
101253.12
101253.13
101253.15
101253.17
101253.26
101258.37
101258.29
101258.27
101258.26
101258.24
101262.84
101262.85
101262.86
101262.87
101262.94
101267.06
101267
101266.99
101266.99
101266.98
101270.71
101270.72
101270.72
101270.73
101270.77
101274.12
101274.1
101274.09
101274.09
101274.08
101277.13
101277.13
101277.14
101277.14
101277.15
101279.9
101279.91
101279.91
101279.91
101279.91
101282.43
101282.43
101282.43
101282.43
101282.41
101284.71
101284.74
101284.74
101284.74
101284.74
101286.86
101286.87
101286.86
101286.86
101286.82
101288.76
101288.81
101288.81
101288.81
101288.81
101290.62
101290.62
101290.62
101290.61
101290.56
101292.22
101292.27
101292.27
101292.28
101292.28
101293.84
101293.84
101293.84
101293.84
101293.8
101295.3
101295.26
101295.26
101295.27
101295.27
101295.28
101295.27
101295.27
101295.26
101295.28
101293.78
101293.84
101293.84
101293.84
101293.84
101292.26
101292.26
101292.26
101292.25
101292.2
101290.54
101290.59
101290.6
101290.6
101290.6
101288.8
101288.8
101288.79
101288.79
101288.73
101286.79
101286.84
101286.85
101286.85
101286.85
101284.73
101284.73
101284.73
101284.73
101284.69
101282.39
101282.41
101282.42
101282.42
101282.41
101279.9
101279.9
101279.9
101279.9
101279.88
101277.13
101277.13
101277.13
101277.13
101277.12
101274.07
101274.07
101274.07
101274.08
101274.09
101270.75
101270.72
101270.71
101270.71
101270.7
101266.97
101266.98
101266.99
101267
101267.04
101262.92
101262.86
101262.85
101262.84
101262.83
101258.24
101258.25
101258.26
101258.27
101258.35
101253.23
101253.14
101253.12
101253.11
101253.1
101247.38
101247.4
101247.41
101247.43
101247.52
101241.12
101241.02
101241
101240.98
101240.97
101233.75
101233.77
101233.79
101233.81
101233.92
101225.75
101225.62
101225.6
101225.58
101225.56
101216.17
101216.18
101216.2
101216.23
101216.42
101205.65
101205.28
101205.24
101205.24
101205.23
101192.22
101192.21
101192.2
101192.24
101193.01
101177.92
101176.37
101176.34
101176.38
101176.4
101156.65
101156.62
101156.56
101156.6
101159.44
101136.6
101132.08
101131.97
101132.01
101132
101102.69
101102.8
101102.87
101103.13
101109.21
101072.29
101065.78
101065.3
101064.99
101064.7
101017.55
101018.03
101018.72
101019.58
101025.95
101012.29
101002.35
101000.37
100998.81
100998.18
100929.92
100930.5
100931.39
100933
100936.78
100576.92
100423.95
100407.86
100395.43
100377.28
100631.78
100660.29
100680.12
100701.51
100872.5
101396.03
101530.65
101537.14
101540.01
101538.88
101177.33
101195.68
101203.89
101211.61
101254.01
101789.22
101815.76
101797.58
101775.34
101744.89
102137.42
102334.18
102361.3
102380.82
102388.43
102463.31
102455.43
102447.4
102424.71
102068.82
101869.42
101938.82
101932.57
101923.52
101901.4
101755.89
101763.43
101766.4
101765.27
101674.46
101483.37
101596.78
101609.01
101617.37
101624.82
101390.2
101399.91
101406.47
101408.45
101381.18
100718.74
100509.61
100481.94
100456.92
100418.4
100503.81
100513.22
100519.08
100528.75
100625.26
100940.03
100932.85
100930.53
100928.63
100926.89
100990.65
100991.54
100993
100994.75
101001.75
101022.86
101016.42
101015.61
101014.95
101014.46
101064.48
101064.76
101065.01
101065.43
101072.05
101108.56
101102.48
101102.3
101102.31
101102.24
101131.89
101131.86
101131.76
101131.82
101136.18
101159.17
101156.53
101156.51
101156.59
101156.64
101176.4
101176.37
101176.32
101176.34
101177.79
101192.92
101192.19
101192.16
101192.17
101192.18
101205.21
101205.21
101205.22
101205.26
101205.61
101216.4
101216.22
101216.19
101216.17
101216.15
101225.55
101225.57
101225.59
101225.63
101225.74
101233.92
101233.83
101233.8
101233.78
101233.76
101240.98
101241
101241.02
101241.05
101241.14
101247.54
101247.46
101247.43
101247.41
101247.4
101253.11
101253.13
101253.14
101253.16
101253.25
101258.36
101258.28
101258.26
101258.25
101258.23
101262.84
101262.85
101262.86
101262.87
101262.95
101267.06
101267
101266.99
101266.98
101266.97
101270.7
101270.71
101270.72
101270.73
101270.77
101274.12
101274.09
101274.09
101274.08
101274.08
101277.14
101277.14
101277.15
101277.15
101277.16
101279.91
101279.91
101279.91
101279.91
101279.9
101282.43
101282.44
101282.44
101282.44
101282.42
101284.71
101284.74
101284.75
101284.75
101284.74
101286.87
101286.87
101286.87
101286.86
101286.82
101288.77
101288.81
101288.82
101288.82
101288.82
101290.63
101290.63
101290.63
101290.62
101290.57
101292.23
101292.29
101292.29
101292.3
101292.3
101293.87
101293.87
101293.87
101293.87
101293.81
101295.31
101295.28
101295.29
101295.29
101295.3
101295.25
101295.25
101295.24
101295.24
101295.27
101293.8
101293.86
101293.86
101293.87
101293.87
101292.29
101292.29
101292.29
101292.28
101292.23
101290.56
101290.62
101290.62
101290.63
101290.63
101288.82
101288.82
101288.81
101288.81
101288.75
101286.81
101286.86
101286.86
101286.86
101286.86
101284.74
101284.75
101284.74
101284.74
101284.7
101282.41
101282.43
101282.44
101282.44
101282.43
101279.91
101279.91
101279.91
101279.91
101279.9
101277.15
101277.14
101277.14
101277.14
101277.14
101274.08
101274.09
101274.09
101274.1
101274.11
101270.76
101270.73
101270.72
101270.72
101270.71
101266.98
101266.99
101267
101267
101267.06
101262.94
101262.88
101262.87
101262.86
101262.85
101258.26
101258.27
101258.28
101258.29
101258.36
101253.25
101253.18
101253.16
101253.15
101253.14
101247.42
101247.43
101247.45
101247.47
101247.54
101241.13
101241.06
101241.04
101241.02
101241.01
101233.78
101233.8
101233.81
101233.84
101233.91
101225.73
101225.63
101225.61
101225.59
101225.58
101216.14
101216.15
101216.17
101216.19
101216.37
101205.55
101205.15
101205.12
101205.12
101205.12
101192
101191.99
101191.98
101192
101192.87
101177.74
101175.98
101175.96
101176.01
101176.03
101156.09
101156.06
101155.99
101156.02
101159.24
101136.62
101131.34
101131.27
101131.35
101131.36
101102.39
101102.46
101102.45
101102.63
101109.72
101073.38
101065.74
101065.37
101065.16
101064.95
101016.71
101017.2
101017.79
101018.55
101026.05
101009.61
100999.1
100997.21
100995.65
100994.6
100935.28
100936.85
100938.76
100941.2
100947.61
100642.16
100542.88
100533.76
100527.58
100518.34
100483.49
100517.39
100542.66
100570.69
100817.3
101251.09
101312.74
101314.03
101314.46
101306.54
101011.96
101044.3
101072.64
101099.86
101309.12
101838.76
102248.42
102292.11
102328.16
102363.7
101284.74
101307.24
101323.96
101336.72
101374.44
101096.72
101040.27
101028.03
101017.99
100994.17
101045.71
101048.26
101048.34
101047.47
101018.76
100558.94
100330.18
100304.1
100281.67
100253.61
100929.55
100930.6
100931.59
100932.77
100928.75
101014.99
101005.21
101003.12
101001.44
101000.64
101016.97
101017.45
101018.15
101019.02
101026.23
101072.1
101065.21
101064.75
101064.47
101064.18
101102.59
101102.7
101102.76
101103.02
101109.2
101136.53
101132.04
101131.92
101131.96
101131.95
101156.48
101156.46
101156.41
101156.46
101159.29
101177.78
101176.18
101176.15
101176.18
101176.2
101192.08
101192.07
101192.06
101192.09
101192.92
101205.59
101205.18
101205.15
101205.14
101205.14
101216.12
101216.14
101216.15
101216.18
101216.4
101225.74
101225.61
101225.58
101225.56
101225.55
101233.75
101233.77
101233.79
101233.81
101233.92
101241.14
101241.04
101241.01
101241
101240.98
101247.4
101247.42
101247.43
101247.45
101247.54
101253.25
101253.17
101253.15
101253.13
101253.12
101258.25
101258.26
101258.27
101258.28
101258.36
101262.94
101262.87
101262.86
101262.85
101262.84
101266.98
101266.99
101266.99
101267
101267.05
101270.76
101270.72
101270.71
101270.71
101270.7
101274.07
101274.08
101274.08
101274.08
101274.11
101277.14
101277.13
101277.13
101277.13
101277.13
101279.9
101279.9
101279.9
101279.9
101279.89
101282.4
101282.42
101282.42
101282.42
101282.42
101284.74
101284.74
101284.74
101284.74
101284.7
101286.81
101286.85
101286.86
101286.86
101286.86
101288.81
101288.81
101288.81
101288.81
101288.75
101290.56
101290.62
101290.62
101290.63
101290.63
101292.31
101292.3
101292.3
101292.29
101292.23
101293.8
101293.87
101293.88
101293.88
101293.88
101295.26
101295.26
101295.25
101295.25
101295.26
101295.28
101295.25
101295.26
101295.26
101295.27
101293.85
101293.85
101293.84
101293.84
101293.79
101292.21
101292.26
101292.27
101292.27
101292.27
101290.61
101290.61
101290.61
101290.6
101290.54
101288.74
101288.8
101288.8
101288.81
101288.81
101286.86
101286.86
101286.85
101286.85
101286.8
101284.7
101284.73
101284.73
101284.74
101284.74
101282.43
101282.44
101282.43
101282.43
101282.4
101279.89
101279.9
101279.9
101279.9
101279.9
101277.13
101277.13
101277.13
101277.14
101277.14
101274.11
101274.09
101274.09
101274.09
101274.08
101270.71
101270.72
101270.72
101270.73
101270.76
101267.05
101267
101267
101266.99
101266.98
101262.85
101262.86
101262.86
101262.87
101262.94
101258.36
101258.28
101258.26
101258.25
101258.24
101253.12
101253.14
101253.15
101253.16
101253.25
101247.53
101247.43
101247.41
101247.4
101247.39
101240.97
101240.99
101241.01
101241.03
101241.13
101233.91
101233.81
101233.78
101233.76
101233.75
101225.54
101225.56
101225.58
101225.61
101225.73
101216.38
101216.2
101216.16
101216.15
101216.13
101205.18
101205.19
101205.2
101205.23
101205.6
101192.95
101192.17
101192.14
101192.15
101192.16
101176.3
101176.28
101176.24
101176.27
101177.83
101159.35
101156.49
101156.44
101156.5
101156.52
101131.84
101131.85
101131.81
101131.93
101136.51
101109.13
101103.01
101102.74
101102.65
101102.53
101064.81
101065.14
101065.49
101066.02
101072.66
101025.55
101019.23
101018.31
101017.55
101017.02
100994.25
100995.03
100996.66
100998.71
101008.57
100946.4
100943.19
100941.68
100940.98
100940.3
100442.33
100456.18
100465.68
100477.88
100597.05
100741.63
100484.81
100452.21
100423.91
100383.66
101838.16
101824.59
101810.41
101790.41
101568.54
101152.17
101057.41
101044.53
101035.94
101014.63
101382.18
101226.39
101320.26
101282.99
101132.47
101112.62
101094.06
101066.09
101637.57
101631.91
101624.89
101614.45
101518.74
102040.5
102047.88
102049.52
102041.96
101985.64
101681.93
101780.97
101780
101774.42
101751.83
101287.41
101321.71
101337.05
101354.1
101432.04
101679.73
101757.8
101765.24
101767.85
101767.69
101714.27
102018.08
101594.77
101699.92
101311.41
101314.68
101306.83
101311.4
101307.53
101305.84
101307.32
101307.62
101295.19
101295.19
101295.18
101295.18
101295.22
101293.74
101293.77
101293.78
101293.78
101293.78
101292.21
101292.21
101292.21
101292.21
101292.16
101290.51
101290.56
101290.56
101290.57
101290.57
101288.77
101288.77
101288.77
101288.76
101288.72
101286.78
101286.82
101286.82
101286.82
101286.82
101284.71
101284.71
101284.71
101284.71
101284.68
101282.38
101282.39
101282.39
101282.39
101282.39
101279.86
101279.87
101279.87
101279.87
101279.87
101277.12
101277.11
101277.1
101277.1
101277.1
101274.04
101274.05
101274.05
101274.06
101274.08
101270.73
101270.68
101270.68
101270.67
101270.66
101266.93
101266.94
101266.95
101266.96
101267.02
101262.91
101262.83
101262.82
101262.81
101262.8
101258.19
101258.2
101258.22
101258.23
101258.32
101253.2
101253.11
101253.09
101253.07
101253.05
101247.33
101247.35
101247.37
101247.4
101247.49
101241.09
101240.99
101240.96
101240.94
101240.92
101233.71
101233.73
101233.75
101233.78
101233.88
101225.72
101225.6
101225.57
101225.55
101225.53
101216.15
101216.16
101216.18
101216.22
101216.39
101205.63
101205.29
101205.25
101205.24
101205.24
101192.28
101192.27
101192.26
101192.28
101192.99
101177.89
101176.49
101176.47
101176.52
101176.55
101156.93
101156.89
101156.81
101156.83
101159.37
101136.56
101132.46
101132.39
101132.47
101132.49
101103.21
101103.28
101103.3
101103.5
101109.17
101071.86
101065.67
101065.26
101065.01
101064.75
101016.3
101016.78
101017.44
101018.24
101024.71
101011.63
101004.98
101003.06
101001.42
101000.59
100908.85
100910.33
100912.18
100914.32
100915.1
100568.18
100374.69
100354.97
100339.14
100318.04
101028.33
101035.3
101035.41
101036.06
101023.64
101018.7
100877.6
100858.94
100842.86
100810.4
101517.06
101521.93
101529.13
101530.76
101523.33
101834.1
101838.64
101843.34
101832.87
101646.45
101668.5
101669.87
101674.56
101590.33
101593.04
101672.15
101660.2
101649.65
101621.71
102679.9
102633.67
102593.41
102540.96
102133.16
102023.81
102305.59
102329.66
102346.64
102364.12
101517.8
101522.68
101529.87
101531.47
101523.69
101018.44
100877.63
100858.95
100842.85
100810.37
101028.5
101035.47
101035.6
101036.27
101023.51
100567.62
100374.29
100354.49
100338.61
100317.51
100908.26
100909.82
100911.72
100913.89
100914.39
101010.99
101004.63
101002.66
101000.96
101000.12
101015.47
101015.97
101016.67
101017.52
101023.89
101071.05
101064.79
101064.36
101064.08
101063.8
101102.29
101102.38
101102.41
101102.62
101108.49
101135.97
101131.64
101131.56
101131.64
101131.65
101156.41
101156.37
101156.29
101156.31
101159.01
101177.67
101176.14
101176.12
101176.17
101176.2
101192.06
101192.05
101192.04
101192.06
101192.86
101205.56
101205.16
101205.13
101205.12
101205.12
101216.1
101216.12
101216.13
101216.17
101216.38
101225.72
101225.59
101225.55
101225.53
101225.51
101233.72
101233.74
101233.76
101233.79
101233.9
101241.11
101241.02
101240.99
101240.97
101240.95
101247.37
101247.39
101247.41
101247.43
101247.53
101253.24
101253.14
101253.12
101253.1
101253.08
101258.22
101258.23
101258.25
101258.26
101258.35
101262.93
101262.85
101262.84
101262.83
101262.82
101266.96
101266.97
101266.98
101266.99
101267.05
101270.76
101270.71
101270.7
101270.7
101270.69
101274.06
101274.07
101274.07
101274.08
101274.11
101277.13
101277.12
101277.11
101277.11
101277.1
101279.88
101279.88
101279.88
101279.89
101279.89
101282.4
101282.41
101282.41
101282.41
101282.4
101284.72
101284.73
101284.72
101284.72
101284.69
101286.8
101286.84
101286.84
101286.85
101286.84
101288.8
101288.8
101288.8
101288.79
101288.75
101290.55
101290.6
101290.6
101290.61
101290.61
101292.29
101292.29
101292.29
101292.28
101292.23
101293.79
101293.84
101293.85
101293.85
101293.85
101295.35
101295.35
101295.35
101295.35
101295.29
101296.68
101296.69
101296.7
101296.71
101296.71
101295.18
101295.16
101295.16
101295.17
101295.17
101293.78
101293.78
101293.77
101293.77
101293.72
101292.15
101292.21
101292.21
101292.22
101292.22
101290.56
101290.56
101290.55
101290.55
101290.49
101288.7
101288.75
101288.75
101288.76
101288.76
101286.81
101286.81
101286.81
101286.8
101286.76
101284.65
101284.69
101284.69
101284.69
101284.69
101282.38
101282.38
101282.38
101282.38
101282.36
101279.85
101279.85
101279.85
101279.86
101279.85
101277.07
101277.07
101277.08
101277.08
101277.09
101274.06
101274.03
101274.03
101274.03
101274.02
101270.65
101270.66
101270.66
101270.67
101270.71
101267
101266.95
101266.94
101266.93
101266.92
101262.78
101262.8
101262.8
101262.82
101262.89
101258.3
101258.22
101258.2
101258.19
101258.18
101253.05
101253.06
101253.08
101253.1
101253.19
101247.47
101247.37
101247.35
101247.33
101247.32
101240.9
101240.92
101240.93
101240.96
101241.07
101233.85
101233.74
101233.71
101233.69
101233.68
101225.47
101225.49
101225.51
101225.54
101225.67
101216.34
101216.15
101216.12
101216.1
101216.09
101205.18
101205.18
101205.19
101205.23
101205.57
101192.96
101192.24
101192.21
101192.22
101192.22
101176.53
101176.51
101176.48
101176.51
101177.94
101159.57
101156.94
101156.89
101156.94
101156.97
101132.64
101132.65
101132.6
101132.71
101136.97
101109.76
101103.75
101103.51
101103.45
101103.36
101065.03
101065.3
101065.56
101066
101072.79
101026.91
101019.73
101018.88
101018.21
101017.74
101001.28
101002.06
101003.72
101005.79
101015.6
100929.12
100932.92
100931.74
100930.74
100929.72
100254.72
100282.79
100305.15
100331.18
100559.54
101019.25
101047.79
101048.66
101048.59
101046.03
100994.68
101018.48
101028.51
101040.75
101097.25
101374.59
101336.87
101324.15
101307.48
101285.08
102362.65
102327.19
102291.16
102247.5
101838.36
101308.46
101098.88
101071.75
101043.5
101011.28
101619.22
101612.09
101603.98
101592.05
101481.76
101383.82
101450.13
101457.37
101463.15
101461.59
101026.5
101052.28
101065.49
101083.22
101210.44
101151.61
101056.47
101043.58
101034.99
101013.61
101178.41
101196.75
101204.94
101212.63
101254.69
101283.12
101132.59
101112.78
101094.26
101066.29
101639.35
101633.63
101626.53
101616
101519.55
101042.22
100918.69
100897.63
100876.14
100842.83
101006.2
101012.8
101014.43
101016.84
101023.3
100558.65
100366.57
100346.98
100331.32
100308.98
100910.45
100912.29
100914.47
100916.6
100915.76
101011.02
101004.25
101002.21
101000.48
100999.68
101015.05
101015.55
101016.27
101017.12
101023.51
101071.02
101064.76
101064.33
101064.06
101063.78
101102.31
101102.39
101102.42
101102.64
101108.49
101135.95
101131.64
101131.57
101131.65
101131.66
101156.38
101156.34
101156.26
101156.29
101159.03
101177.65
101176.13
101176.11
101176.15
101176.19
101192.04
101192.03
101192.01
101192.04
101192.84
101205.54
101205.14
101205.11
101205.1
101205.1
101216.09
101216.1
101216.12
101216.15
101216.36
101225.7
101225.57
101225.54
101225.52
101225.5
101233.71
101233.73
101233.75
101233.78
101233.89
101241.11
101241.01
101240.98
101240.96
101240.94
101247.36
101247.37
101247.39
101247.42
101247.52
101253.24
101253.14
101253.12
101253.11
101253.09
101258.21
101258.22
101258.24
101258.26
101258.35
101262.93
101262.85
101262.84
101262.83
101262.81
101266.95
101266.96
101266.97
101266.98
101267.04
101270.75
101270.7
101270.69
101270.69
101270.68
101274.04
101274.05
101274.05
101274.06
101274.09
101277.13
101277.11
101277.11
101277.11
101277.1
101279.87
101279.88
101279.88
101279.88
101279.88
101282.39
101282.41
101282.41
101282.41
101282.41
101284.71
101284.71
101284.71
101284.71
101284.68
101286.79
101286.83
101286.83
101286.83
101286.83
101288.79
101288.79
101288.79
101288.78
101288.74
101290.54
101290.6
101290.6
101290.6
101290.6
101292.3
101292.3
101292.29
101292.29
101292.23
101293.79
101293.85
101293.85
101293.86
101293.86
101295.35
101295.35
101295.35
101295.34
101295.28
101296.63
101296.61
101296.62
101296.62
101296.63
101295.27
101295.24
101295.24
101295.25
101295.25
101293.82
101293.82
101293.82
101293.82
101293.77
101292.19
101292.24
101292.24
101292.25
101292.25
101290.59
101290.59
101290.59
101290.58
101290.53
101288.73
101288.78
101288.78
101288.78
101288.78
101286.84
101286.84
101286.84
101286.83
101286.79
101284.69
101284.71
101284.71
101284.72
101284.71
101282.41
101282.41
101282.41
101282.41
101282.39
101279.88
101279.89
101279.89
101279.89
101279.88
101277.1
101277.11
101277.11
101277.11
101277.12
101274.09
101274.07
101274.06
101274.06
101274.05
101270.69
101270.69
101270.7
101270.71
101270.75
101267.03
101266.98
101266.97
101266.96
101266.95
101262.8
101262.81
101262.82
101262.84
101262.91
101258.33
101258.25
101258.23
101258.22
101258.2
101253.07
101253.09
101253.1
101253.13
101253.22
101247.5
101247.41
101247.38
101247.37
101247.35
101240.95
101240.97
101240.99
101241.02
101241.11
101233.9
101233.8
101233.77
101233.75
101233.73
101225.54
101225.56
101225.58
101225.62
101225.73
101216.41
101216.23
101216.2
101216.18
101216.16
101205.23
101205.24
101205.25
101205.28
101205.63
101192.98
101192.25
101192.22
101192.24
101192.25
101176.48
101176.45
101176.41
101176.44
101177.85
101159.31
101156.8
101156.77
101156.85
101156.89
101132.36
101132.35
101132.27
101132.35
101136.49
101109.1
101103.46
101103.26
101103.23
101103.16
101064.68
101064.94
101065.19
101065.6
101071.75
101024.23
101017.74
101016.94
101016.28
101015.8
101000.04
101000.82
101002.5
101004.48
101011.64
100916.22
100916.63
100914.56
100912.46
100910.66
100308.62
100330.87
100346.44
100365.95
100558.89
101023.42
101016.41
101014.06
101012.49
101005.89
100841.72
100875.02
100896.47
100917.52
101041.84
101171.49
101118.04
101110.05
101100.65
101084.55
100766.94
100787.75
100800.53
100815.49
100929.08
100620.87
100467.7
100453.84
100443.25
100428.58
100922.29
100923.57
100925.31
100927.6
100936.07
101012.87
101003.86
101002.1
101000.64
100999.9
101017.63
101018.06
101018.64
101019.38
101026.58
101073.25
101066.06
101065.69
101065.47
101065.24
101103
101103.05
101103.05
101103.23
101109.96
101136.78
101131.77
101131.69
101131.75
101131.75
101156.34
101156.31
101156.24
101156.28
101159.4
101177.82
101176.13
101176.11
101176.15
101176.17
101192.08
101192.07
101192.06
101192.08
101192.93
101205.59
101205.21
101205.19
101205.18
101205.18
101216.17
101216.18
101216.19
101216.22
101216.38
101225.72
101225.64
101225.61
101225.59
101225.58
101233.77
101233.79
101233.81
101233.83
101233.9
101241.11
101241.04
101241.02
101241
101240.99
101247.39
101247.41
101247.42
101247.44
101247.52
101253.23
101253.15
101253.14
101253.12
101253.11
101258.24
101258.25
101258.26
101258.27
101258.34
101262.92
101262.86
101262.85
101262.84
101262.83
101266.97
101266.98
101266.98
101266.99
101267.04
101270.75
101270.72
101270.71
101270.71
101270.7
101274.07
101274.08
101274.08
101274.08
101274.1
101277.13
101277.13
101277.13
101277.13
101277.13
101279.89
101279.9
101279.9
101279.9
101279.88
101282.39
101282.42
101282.42
101282.42
101282.42
101284.73
101284.73
101284.73
101284.73
101284.69
101286.79
101286.84
101286.84
101286.85
101286.85
101288.79
101288.79
101288.79
101288.78
101288.73
101290.53
101290.58
101290.59
101290.59
101290.59
101292.24
101292.24
101292.24
101292.23
101292.19
101293.77
101293.81
101293.81
101293.82
101293.82
101295.22
101295.22
101295.21
101295.21
101295.27
101295.22
101295.17
101295.17
101295.18
101295.18
101293.79
101293.79
101293.79
101293.78
101293.73
101292.16
101292.21
101292.21
101292.22
101292.22
101290.57
101290.57
101290.56
101290.56
101290.5
101288.71
101288.76
101288.76
101288.77
101288.77
101286.82
101286.82
101286.82
101286.82
101286.77
101284.66
101284.7
101284.7
101284.7
101284.7
101282.39
101282.4
101282.39
101282.39
101282.37
101279.86
101279.87
101279.87
101279.87
101279.87
101277.09
101277.1
101277.1
101277.1
101277.1
101274.07
101274.05
101274.05
101274.05
101274.04
101270.67
101270.68
101270.68
101270.69
101270.72
101267.01
101266.96
101266.95
101266.95
101266.94
101262.8
101262.81
101262.82
101262.83
101262.9
101258.32
101258.24
101258.23
101258.22
101258.2
101253.08
101253.09
101253.1
101253.12
101253.2
101247.49
101247.41
101247.39
101247.37
101247.36
101240.96
101240.97
101240.99
101241.01
101241.09
101233.87
101233.8
101233.77
101233.75
101233.74
101225.55
101225.56
101225.58
101225.61
101225.7
101216.36
101216.2
101216.17
101216.16
101216.15
101205.18
101205.18
101205.19
101205.21
101205.59
101192.95
101192.13
101192.1
101192.12
101192.13
101176.25
101176.23
101176.19
101176.21
101177.9
101159.5
101156.37
101156.34
101156.41
101156.44
101132.05
101132.05
101131.98
101132.04
101137.01
101110.26
101103.35
101103.16
101103.15
101103.09
101065.35
101065.57
101065.8
101066.19
101073.66
101027.54
101019.78
101019.01
101018.42
101017.94
100997.71
100998.64
101000.14
101001.98
101012.66
100933.06
100926.24
100924.54
100923.31
100922.4
100496.15
100504.57
100510.02
100519.01
100628.08
100874.25
100650.07
100621.92
100594.31
100558.9
101196.36
101199.69
101198.28
101195.88
101183.37
101275.76
101109.91
101090.88
101076.27
101048.82
101725.72
101753.56
101775.37
101792.28
101762.2
101364.15
101375.91
101367.98