/*--------------------------------*- C++ -*----------------------------------*\
  =========                 |
  \\      /  F ield         | OpenFOAM: The Open Source CFD Toolbox
   \\    /   O peration     | Website:  https://openfoam.org
    \\  /    A nd           | Version:  7
     \\/     M anipulation  |
\*---------------------------------------------------------------------------*/
FoamFile
{
    version     2.0;
    format      ascii;
    class       volScalarField;
    location    "90";
    object      rho;
}
// * * * * * * * * * * * * * * * * * * * * * * * * * * * * * * * * * * * * * //

dimensions      [1 -3 0 0 0 0 0];

internalField   nonuniform List<scalar> 
24789
(
1.1736482
1.1736532
1.1736557
1.1736568
1.1736619
1.1736361
1.1736306
1.1736294
1.1736265
1.1736213
1.1735918
1.1735977
1.1736009
1.1736024
1.1736095
1.173582
1.1735724
1.1735705
1.1735668
1.1735604
1.1735277
1.1735347
1.1735389
1.1735413
1.1735535
1.1735241
1.1735086
1.1735056
1.173501
1.1734934
1.1734581
1.1734663
1.1734715
1.1734751
1.173494
1.1734636
1.1734407
1.1734364
1.1734306
1.1734219
1.1733856
1.1733947
1.173401
1.173406
1.1734332
1.173403
1.173371
1.1733651
1.1733582
1.1733487
1.1733126
1.1733224
1.1733299
1.1733366
1.1733735
1.173345
1.1733027
1.1732951
1.1732871
1.1732771
1.173243
1.1732532
1.1732618
1.1732703
1.1733177
1.1732923
1.1732393
1.1732298
1.1732208
1.1732106
1.1731803
1.1731905
1.1732001
1.1732105
1.1732689
1.1732477
1.1731838
1.1731724
1.1731625
1.1731525
1.1731283
1.1731381
1.1731484
1.1731606
1.1732294
1.173213
1.1731386
1.1731255
1.1731149
1.1731056
1.1730875
1.1730964
1.1731073
1.1731212
1.1731996
1.1731889
1.1731066
1.1730921
1.1730811
1.1730729
1.1730616
1.1730691
1.1730801
1.1730952
1.1731803
1.1731726
1.1730856
1.1730703
1.1730595
1.1730533
1.1730466
1.1730516
1.1730621
1.1730776
1.173165
1.1731553
1.173068
1.1730526
1.1730427
1.1730392
1.1730241
1.1730274
1.1730372
1.1730528
1.1731406
1.1731156
1.1730221
1.1730057
1.1729948
1.1729895
1.1729155
1.1729291
1.1729445
1.172964
1.173075
1.173019
1.1728686
1.1728423
1.1728174
1.1727862
1.1725657
1.1726271
1.172669
1.172708
1.1729212
1.1727777
1.1724664
1.1724091
1.1723463
1.1722565
1.1721915
1.1722837
1.1723694
1.172454
1.1729066
1.1726904
1.1722814
1.1721984
1.1721179
1.1720396
1.1675322
1.1679385
1.1682716
1.1685514
1.1704014
1.1749378
1.1757521
1.1756155
1.1754949
1.175316
1.1766637
1.176848
1.1769461
1.1770532
1.1776851
1.1789804
1.178704
1.17864
1.1785626
1.1784267
1.1814379
1.1816417
1.1817935
1.1819049
1.1818059
1.178528
1.1766881
1.1765016
1.176344
1.1760556
1.1773686
1.177463
1.1774989
1.1775294
1.1777696
1.1740268
1.1734835
1.1731726
1.1728799
1.172497
1.1690775
1.1693527
1.1695525
1.1697173
1.1710003
1.1728041
1.1722779
1.1721988
1.1721274
1.1720716
1.1722412
1.172315
1.1723846
1.1724562
1.1729284
1.1728168
1.1724876
1.1724371
1.1723834
1.1723096
1.1726064
1.1726585
1.1726952
1.1727298
1.1729525
1.1730484
1.1728891
1.1728656
1.172844
1.1728183
1.1729393
1.1729494
1.1729623
1.1729796
1.1730953
1.173134
1.1730354
1.173021
1.1730125
1.1730106
1.1730397
1.1730401
1.1730479
1.1730618
1.1731536
1.1731675
1.1730741
1.1730602
1.1730524
1.1730518
1.1730545
1.1730569
1.1730657
1.17308
1.1731736
1.1731807
1.1730854
1.1730711
1.1730621
1.1730583
1.1730623
1.1730679
1.1730778
1.1730921
1.1731859
1.1731946
1.173102
1.1730882
1.1730783
1.1730717
1.1730833
1.1730912
1.1731015
1.173115
1.1732039
1.1732174
1.1731321
1.1731193
1.1731093
1.1731009
1.1731213
1.1731306
1.1731408
1.1731529
1.1732328
1.1732512
1.1731762
1.173165
1.1731552
1.1731457
1.1731729
1.173183
1.1731926
1.1732031
1.1732718
1.1732954
1.1732325
1.173223
1.173214
1.1732039
1.1732361
1.1732464
1.1732552
1.1732638
1.1733205
1.1733477
1.1732971
1.1732894
1.1732813
1.1732712
1.1733067
1.1733168
1.1733245
1.1733314
1.1733759
1.1734055
1.1733666
1.1733606
1.1733535
1.1733439
1.1733808
1.1733903
1.1733969
1.1734021
1.1734353
1.1734658
1.1734376
1.1734331
1.1734272
1.1734183
1.1734547
1.1734632
1.1734686
1.1734724
1.173496
1.173526
1.1735066
1.1735034
1.1734986
1.1734908
1.1735252
1.1735326
1.1735369
1.1735395
1.1735552
1.1735837
1.1735712
1.1735692
1.1735654
1.1735587
1.17359
1.1735962
1.1735996
1.1736013
1.173611
1.1736375
1.1736301
1.1736288
1.1736257
1.1736202
1.1736477
1.1736526
1.1736549
1.1736558
1.173663
1.1736404
1.1736314
1.1736301
1.1736272
1.1736218
1.1735942
1.1736
1.1736031
1.1736046
1.173614
1.1735865
1.1735742
1.1735722
1.1735686
1.1735622
1.1735295
1.1735366
1.1735407
1.1735432
1.1735583
1.1735295
1.1735106
1.1735075
1.1735029
1.1734953
1.17346
1.1734682
1.1734734
1.173477
1.1734998
1.1734701
1.1734427
1.1734384
1.1734326
1.173424
1.1733875
1.1733966
1.1734029
1.1734079
1.17344
1.1734107
1.1733732
1.1733674
1.1733606
1.1733512
1.1733152
1.1733249
1.1733322
1.1733388
1.1733816
1.1733542
1.1733055
1.173298
1.1732902
1.1732805
1.1732469
1.1732567
1.173265
1.1732732
1.1733275
1.1733032
1.173243
1.1732338
1.1732252
1.1732156
1.1731861
1.1731956
1.1732046
1.1732146
1.1732803
1.1732609
1.1731894
1.1731786
1.1731694
1.1731603
1.1731375
1.1731461
1.1731556
1.173167
1.173243
1.1732289
1.1731476
1.1731354
1.1731258
1.1731181
1.1731025
1.1731095
1.173119
1.1731318
1.1732163
1.1732086
1.1731203
1.1731071
1.1730978
1.173092
1.1730849
1.1730896
1.1730986
1.173112
1.173201
1.1731976
1.1731073
1.1730938
1.1730854
1.1730824
1.1730808
1.1730823
1.17309
1.1731034
1.1731913
1.173188
1.1730999
1.1730868
1.1730797
1.1730796
1.1730694
1.1730692
1.1730762
1.1730892
1.1731755
1.1731604
1.173065
1.1730511
1.1730427
1.1730404
1.1729677
1.1729792
1.1729923
1.1730094
1.1731243
1.1730828
1.1729174
1.1728931
1.1728699
1.1728408
1.1726282
1.1726852
1.1727242
1.1727604
1.1729946
1.1728567
1.1725137
1.1724612
1.1724046
1.1723241
1.1722343
1.172304
1.1723724
1.1724442
1.1729224
1.1730139
1.1724354
1.1723497
1.1722767
1.1722355
1.1700434
1.1702535
1.170388
1.170499
1.1714037
1.1724544
1.1705476
1.1701181
1.1697395
1.1692586
1.1834588
1.1833155
1.183149
1.1829471
1.1812389
1.1780387
1.1763096
1.1761058
1.175924
1.1756022
1.1812872
1.1815096
1.1816561
1.1817711
1.1814525
1.1791971
1.1791395
1.1791272
1.1790846
1.1789201
1.1826428
1.1825157
1.1823717
1.1821902
1.1809164
1.1724614
1.1712902
1.1708867
1.1705206
1.1700846
1.1696165
1.1698405
1.1699654
1.1700826
1.1710447
1.1728506
1.1723687
1.1722767
1.1721923
1.1721226
1.1722223
1.1723013
1.1723765
1.1724519
1.172858
1.172826
1.1725248
1.1724707
1.1724112
1.1723255
1.1726433
1.1727017
1.1727412
1.1727775
1.1729791
1.1730746
1.1729317
1.1729077
1.1728853
1.1728575
1.1729797
1.1729897
1.1730025
1.1730195
1.1731192
1.1731572
1.1730714
1.1730572
1.1730489
1.1730473
1.1730722
1.1730725
1.1730802
1.1730938
1.1731727
1.1731847
1.1731041
1.1730905
1.1730829
1.1730824
1.1730829
1.1730852
1.1730938
1.1731077
1.1731876
1.1731935
1.1731122
1.1730985
1.1730897
1.1730862
1.1730891
1.1730943
1.1731037
1.1731173
1.1731965
1.1732042
1.1731263
1.1731131
1.1731037
1.1730977
1.1731079
1.1731151
1.1731248
1.1731376
1.1732119
1.1732247
1.1731535
1.1731414
1.1731319
1.1731243
1.1731428
1.1731513
1.1731608
1.1731723
1.1732388
1.173257
1.173195
1.1731844
1.1731754
1.1731667
1.1731916
1.173201
1.1732099
1.1732198
1.1732766
1.1732998
1.173248
1.1732391
1.1732307
1.1732214
1.173252
1.1732616
1.1732697
1.1732779
1.1733242
1.1733512
1.1733099
1.1733027
1.1732952
1.1732858
1.1733196
1.173329
1.1733362
1.1733427
1.1733788
1.1734083
1.1733769
1.1733713
1.1733648
1.1733558
1.1733913
1.1734002
1.1734062
1.1734111
1.1734378
1.1734681
1.1734456
1.1734415
1.173436
1.1734277
1.173463
1.173471
1.173476
1.1734795
1.173498
1.1735279
1.1735127
1.1735099
1.1735054
1.173498
1.1735316
1.1735385
1.1735426
1.1735449
1.1735569
1.1735852
1.1735757
1.1735739
1.1735704
1.1735641
1.1735953
1.1736011
1.1736042
1.1736056
1.1736129
1.1736395
1.1736325
1.1736313
1.1736286
1.1736234
1.1736231
1.1736283
1.173631
1.1736321
1.1736386
1.1736122
1.1736051
1.1736036
1.1736005
1.1735948
1.1735634
1.1735697
1.1735733
1.1735752
1.1735846
1.1735564
1.1735444
1.173542
1.1735379
1.173531
1.1734974
1.1735049
1.1735094
1.1735124
1.1735274
1.1734977
1.1734792
1.1734756
1.1734705
1.1734625
1.1734271
1.1734356
1.1734412
1.1734454
1.1734677
1.1734376
1.1734109
1.1734059
1.1733997
1.1733908
1.1733552
1.1733645
1.1733712
1.1733769
1.173408
1.1733788
1.1733427
1.1733361
1.1733288
1.1733193
1.1732846
1.1732944
1.1733023
1.1733097
1.1733509
1.1733241
1.1732776
1.1732692
1.1732609
1.1732511
1.1732194
1.1732294
1.1732382
1.1732474
1.1732992
1.1732761
1.1732188
1.1732086
1.1731994
1.1731896
1.1731628
1.1731726
1.1731822
1.1731933
1.1732557
1.1732373
1.1731695
1.1731576
1.1731475
1.1731381
1.1731172
1.1731263
1.1731367
1.1731495
1.1732218
1.1732087
1.1731319
1.1731184
1.1731078
1.1730993
1.173085
1.1730932
1.1731039
1.1731182
1.1731986
1.1731903
1.1731067
1.1730919
1.1730812
1.1730741
1.1730659
1.1730722
1.1730828
1.173098
1.1731834
1.1731761
1.1730898
1.1730744
1.1730642
1.1730594
1.1730522
1.173056
1.1730659
1.1730814
1.1731676
1.1731534
1.1730659
1.1730504
1.1730406
1.1730375
1.1730037
1.1730096
1.1730208
1.1730374
1.1731301
1.1730907
1.1729793
1.1729598
1.1729443
1.1729304
1.1728022
1.172834
1.1728594
1.1728861
1.1730357
1.17294
1.1727283
1.1726898
1.1726483
1.1725882
1.1722907
1.1723771
1.1724385
1.1724948
1.1727947
1.1729069
1.1724789
1.172399
1.1723188
1.1722337
1.1720968
1.1721788
1.1722646
1.1723542
1.1727979
1.1706529
1.1692034
1.1690035
1.1687791
1.1684663
1.1732447
1.173517
1.1737193
1.1739562
1.1741907
1.1795928
1.1801252
1.1801438
1.1801354
1.180068
1.1769324
1.1771397
1.1772437
1.1773385
1.1781912
1.182029
1.1821713
1.1820638
1.1819238
1.1817095
1.1849277
1.186382
1.1866055
1.1867602
1.1868251
1.1865623
1.1865974
1.1865856
1.1864521
1.1842654
1.1828046
1.1825352
1.1824471
1.1823384
1.1820944
1.1808745
1.1810567
1.1811561
1.1812155
1.1813229
1.1798826
1.1802166
1.1802547
1.1802496
1.1801756
1.1791254
1.1792282
1.179288
1.179317
1.1794453
1.1728142
1.172541
1.1722488
1.1719962
1.1716251
1.1694353
1.1696557
1.1698009
1.1699386
1.1710101
1.1728019
1.1723507
1.1722657
1.1721867
1.1721219
1.1722349
1.1723128
1.172385
1.1724573
1.1728494
1.1728138
1.1725236
1.1724716
1.1724152
1.1723357
1.1726471
1.1727013
1.1727387
1.1727736
1.1729687
1.1730646
1.1729256
1.172902
1.1728805
1.1728546
1.1729727
1.1729822
1.1729947
1.1730117
1.1731113
1.1731499
1.1730635
1.1730491
1.1730406
1.1730388
1.1730641
1.1730647
1.1730727
1.1730866
1.1731667
1.173179
1.1730975
1.1730836
1.1730755
1.1730746
1.1730767
1.1730793
1.1730881
1.1731021
1.1731832
1.1731892
1.1731071
1.1730931
1.1730841
1.1730802
1.1730836
1.1730892
1.1730988
1.1731128
1.173193
1.1732009
1.1731222
1.1731088
1.1730992
1.173093
1.1731037
1.1731111
1.173121
1.173134
1.1732091
1.1732221
1.1731503
1.1731381
1.1731286
1.1731208
1.1731394
1.1731481
1.1731578
1.1731694
1.1732365
1.1732549
1.1731922
1.1731814
1.1731722
1.1731633
1.1731891
1.1731985
1.1732076
1.1732175
1.1732749
1.1732982
1.1732459
1.1732369
1.1732284
1.173219
1.1732499
1.1732596
1.1732678
1.173276
1.1733228
1.1733498
1.1733082
1.173301
1.1732934
1.1732839
1.1733183
1.1733278
1.1733349
1.1733414
1.1733777
1.1734071
1.1733756
1.1733699
1.1733633
1.1733543
1.17339
1.1733989
1.1734051
1.1734099
1.1734368
1.1734672
1.1734445
1.1734404
1.1734349
1.1734265
1.1734619
1.17347
1.173475
1.1734785
1.1734972
1.1735272
1.1735119
1.1735091
1.1735046
1.1734973
1.1735311
1.173538
1.173542
1.1735442
1.1735563
1.1735848
1.1735753
1.1735735
1.1735702
1.173564
1.1735957
1.1736012
1.1736041
1.1736054
1.1736126
1.1736394
1.1736326
1.1736317
1.1736293
1.1736244
1.1736199
1.1736254
1.1736283
1.1736297
1.1736385
1.1736123
1.1736027
1.1736011
1.1735979
1.173592
1.1735601
1.1735667
1.1735704
1.1735724
1.1735847
1.1735565
1.173541
1.1735384
1.1735342
1.173527
1.1734927
1.1735005
1.1735052
1.1735083
1.1735273
1.1734976
1.1734743
1.1734706
1.1734653
1.173457
1.1734207
1.1734296
1.1734355
1.1734398
1.1734674
1.1734374
1.1734046
1.1733994
1.173393
1.1733838
1.1733471
1.1733567
1.1733637
1.1733696
1.1734075
1.1733785
1.1733346
1.1733279
1.1733204
1.1733106
1.1732751
1.1732852
1.1732932
1.1733008
1.1733502
1.1733236
1.1732679
1.1732594
1.1732509
1.1732409
1.1732087
1.1732188
1.1732277
1.1732371
1.1732984
1.1732755
1.173208
1.1731978
1.1731885
1.1731787
1.1731517
1.1731612
1.1731709
1.1731819
1.1732549
1.1732372
1.1731586
1.1731468
1.1731369
1.173128
1.1731077
1.1731161
1.173126
1.1731386
1.1732216
1.1732097
1.1731219
1.1731088
1.1730988
1.1730914
1.1730791
1.1730858
1.1730957
1.1731093
1.1731994
1.1731927
1.1730998
1.1730858
1.1730763
1.1730709
1.1730657
1.1730699
1.1730791
1.1730932
1.1731862
1.1731814
1.1730877
1.1730736
1.173065
1.1730626
1.1730575
1.1730591
1.1730673
1.1730813
1.1731732
1.1731629
1.1730681
1.1730539
1.1730458
1.1730445
1.1730099
1.1730145
1.1730244
1.1730395
1.1731398
1.1731061
1.172981
1.1729625
1.172948
1.1729349
1.1728052
1.1728359
1.1728601
1.1728856
1.173054
1.1729684
1.172725
1.1726878
1.1726479
1.1725903
1.1722827
1.172364
1.1724217
1.1724752
1.1728184
1.1729253
1.1724221
1.1723473
1.1722756
1.1721989
1.1721337
1.1721829
1.1722581
1.1723428
1.1728949
1.1711475
1.1699267
1.1697489
1.1695258
1.1692381
1.1719429
1.1722997
1.1725663
1.1728703
1.1735572
1.1783253
1.1785081
1.1784888
1.1784624
1.1783345
1.1757555
1.1760791
1.1763374
1.1765884
1.1787924
1.1824873
1.1854997
1.1858622
1.1861462
1.1863576
1.1780586
1.1781781
1.1782817
1.178376
1.1790378
1.177141
1.1761122
1.1759402
1.1757773
1.1754632
1.1764599
1.1765521
1.1765987
1.1766557
1.1753637
1.1703972
1.1683079
1.1679933
1.167629
1.1672004
1.1720867
1.1721698
1.1722527
1.1723359
1.1727203
1.1729135
1.1724608
1.1723757
1.1722901
1.1722015
1.1722551
1.1723449
1.1724088
1.1724674
1.1727825
1.1729265
1.1727081
1.1726685
1.1726259
1.1725639
1.1727832
1.1728159
1.172842
1.1728692
1.1730233
1.173079
1.1729649
1.1729451
1.1729294
1.1729153
1.1729896
1.1729956
1.1730071
1.173024
1.1731193
1.173144
1.1730545
1.1730388
1.173029
1.1730259
1.1730407
1.1730446
1.1730548
1.1730705
1.1731586
1.173168
1.1730801
1.1730647
1.1730544
1.1730499
1.173056
1.1730623
1.1730731
1.1730886
1.1731755
1.1731828
1.1730977
1.1730829
1.1730722
1.1730653
1.1730757
1.1730839
1.1730948
1.1731093
1.1731913
1.1732018
1.1731235
1.1731098
1.1730992
1.1730909
1.1731086
1.1731178
1.1731283
1.1731414
1.1732151
1.173231
1.1731621
1.17315
1.1731399
1.1731306
1.1731545
1.1731644
1.1731744
1.1731857
1.1732494
1.1732703
1.173212
1.1732018
1.1731924
1.1731825
1.1732123
1.1732224
1.1732315
1.1732409
1.1732937
1.1733189
1.1732715
1.1732631
1.1732547
1.1732448
1.1732785
1.1732885
1.1732965
1.1733041
1.173346
1.1733744
1.1733377
1.173331
1.1733237
1.173314
1.1733498
1.1733593
1.1733662
1.173372
1.1734038
1.1734339
1.1734067
1.1734017
1.1733954
1.1733864
1.1734227
1.1734315
1.1734372
1.1734415
1.1734643
1.1734946
1.1734757
1.1734721
1.173467
1.1734589
1.173494
1.1735017
1.1735063
1.1735093
1.1735247
1.173554
1.1735418
1.1735394
1.1735353
1.1735284
1.1735609
1.1735674
1.173571
1.1735729
1.1735824
1.17361
1.173603
1.1736015
1.1735984
1.1735926
1.1736205
1.1736259
1.1736287
1.1736299
1.1736363
1.1736386
1.1736321
1.1736309
1.1736281
1.1736229
1.1735951
1.1736008
1.1736038
1.1736053
1.1736122
1.1735846
1.1735752
1.1735733
1.1735698
1.1735636
1.1735313
1.1735381
1.1735421
1.1735445
1.1735564
1.1735273
1.1735123
1.1735094
1.1735048
1.1734974
1.1734627
1.1734707
1.1734757
1.1734792
1.1734976
1.1734676
1.1734453
1.1734411
1.1734355
1.1734271
1.1733913
1.1734002
1.1734063
1.1734111
1.1734376
1.1734079
1.1733767
1.173371
1.1733643
1.1733551
1.1733196
1.1733292
1.1733364
1.1733429
1.1733789
1.173351
1.17331
1.1733026
1.1732949
1.1732853
1.1732516
1.1732615
1.1732698
1.1732781
1.1733243
1.1732996
1.1732479
1.1732387
1.17323
1.1732202
1.1731906
1.1732004
1.1732096
1.1732197
1.1732766
1.1732563
1.173194
1.173183
1.1731734
1.1731639
1.1731402
1.1731494
1.1731593
1.1731712
1.1732384
1.1732231
1.1731509
1.1731383
1.1731281
1.1731194
1.173102
1.1731104
1.1731208
1.1731342
1.1732103
1.1732006
1.1731206
1.1731066
1.1730962
1.1730886
1.1730782
1.1730851
1.1730956
1.1731101
1.1731927
1.1731863
1.1731017
1.1730869
1.1730767
1.1730713
1.1730656
1.17307
1.1730798
1.1730948
1.1731797
1.1731719
1.173087
1.1730722
1.1730629
1.1730603
1.1730473
1.1730497
1.1730588
1.1730738
1.1731586
1.1731367
1.1730466
1.1730311
1.1730212
1.1730174
1.1729484
1.17296
1.1729739
1.1729923
1.1730983
1.173045
1.1729011
1.1728764
1.1728535
1.1728261
1.17262
1.1726754
1.1727138
1.1727502
1.1729527
1.1728054
1.1725165
1.1724635
1.1724062
1.1723259
1.1722543
1.1723336
1.1724085
1.1724848
1.1728946
1.1728745
1.1724452
1.1723621
1.1722871
1.1722259
1.1689453
1.1692515
1.1694709
1.1696509
1.170849
1.1731363
1.1723315
1.1720129
1.171756
1.1714257
1.182537
1.1824611
1.182352
1.1822016
1.1809116
1.1774215
1.1760597
1.175905
1.1757746
1.1755198
1.1798603
1.1778116
1.179422
1.1786459
1.1770464
1.1768757
1.1767207
1.1764957
1.1806807
1.1807136
1.1806878
1.1806265
1.1802432
1.184014
1.1840629
1.1840581
1.1839833
1.1837049
1.1812886
1.1818126
1.1817917
1.1817177
1.181464
1.1773866
1.1778188
1.1780537
1.1782765
1.1793262
1.1812659
1.1812604
1.1812251
1.1811366
1.1809629
1.182639
1.1850638
1.1817053
1.1830674
1.1738949
1.1739261
1.1738816
1.1738949
1.1738541
1.1738596
1.1738735
1.1738615
1.173623
1.1736285
1.1736315
1.1736329
1.1736397
1.1736137
1.1736063
1.1736047
1.1736014
1.1735956
1.1735647
1.1735711
1.1735747
1.1735767
1.173586
1.1735581
1.1735459
1.1735436
1.1735395
1.1735327
1.1734995
1.1735069
1.1735114
1.1735142
1.1735292
1.1734996
1.173481
1.1734775
1.1734725
1.1734647
1.1734297
1.173438
1.1734435
1.1734475
1.1734697
1.1734396
1.173413
1.1734081
1.1734021
1.1733934
1.1733582
1.1733672
1.1733737
1.1733792
1.1734101
1.1733811
1.1733451
1.1733388
1.1733318
1.1733226
1.1732883
1.1732977
1.1733052
1.1733123
1.173353
1.1733266
1.1732806
1.1732726
1.1732646
1.1732551
1.1732244
1.1732338
1.1732422
1.173251
1.1733018
1.1732792
1.1732228
1.1732131
1.1732044
1.1731953
1.1731696
1.1731785
1.1731876
1.1731981
1.1732589
1.1732413
1.1731752
1.1731639
1.1731546
1.1731462
1.173127
1.1731349
1.1731443
1.1731563
1.173226
1.1732146
1.1731408
1.1731282
1.1731186
1.1731115
1.1731001
1.1731064
1.1731159
1.1731289
1.1732053
1.1731994
1.1731206
1.1731072
1.173098
1.1730928
1.173089
1.1730929
1.1731017
1.1731152
1.173194
1.1731905
1.1731106
1.1730969
1.1730887
1.1730866
1.1730844
1.1730852
1.173093
1.1731064
1.1731844
1.1731766
1.1730974
1.1730839
1.1730765
1.1730762
1.1730511
1.173053
1.1730612
1.173075
1.173156
1.1731254
1.173025
1.1730082
1.1729959
1.1729863
1.1728698
1.1728964
1.1729179
1.1729411
1.1730744
1.1729874
1.1727916
1.1727567
1.1727193
1.1726648
1.1723714
1.172448
1.1725038
1.1725554
1.172835
1.1729552
1.1725637
1.17249
1.1724179
1.1723475
1.1720982
1.1721716
1.1722501
1.1723294
1.1726883
1.170553
1.1687666
1.168578
1.1684041
1.1681679
1.176502
1.176632
1.1766741
1.1767319
1.1753522
1.1765014
1.1750748
1.1748633
1.1746656
1.1743
1.1799085
1.1799664
1.1800254
1.1800433
1.1802449
1.181558
1.1815044
1.1814422
1.1812159
1.1795264
1.1799334
1.1800868
1.1802401
1.180821
1.1806742
1.1804203
1.1802248
1.180019
1.1796008
1.1881945
1.187986
1.1877357
1.1873714
1.1847721
1.1839498
1.185232
1.1853497
1.1854025
1.1853904
1.1798675
1.1799263
1.1799868
1.1800052
1.1802062
1.1764645
1.175044
1.1748327
1.1746352
1.174273
1.176456
1.1765876
1.1766289
1.1766865
1.1753073
1.1704923
1.1687159
1.1685283
1.1683562
1.1681239
1.1720586
1.1721311
1.1722087
1.1722867
1.1726376
1.1729106
1.1725271
1.172454
1.1723827
1.1723134
1.172335
1.1724105
1.1724658
1.172517
1.172794
1.172952
1.172757
1.1727222
1.1726853
1.1726321
1.1728376
1.1728638
1.1728854
1.1729088
1.1730436
1.1730989
1.1729961
1.1729791
1.1729667
1.1729576
1.1730216
1.1730237
1.1730325
1.1730471
1.1731326
1.1731554
1.1730716
1.1730576
1.1730497
1.1730495
1.173058
1.1730594
1.173068
1.1730823
1.1731651
1.1731731
1.1730884
1.173074
1.1730651
1.1730625
1.1730642
1.1730689
1.1730786
1.1730932
1.1731774
1.1731841
1.1731006
1.1730863
1.1730765
1.1730707
1.1730787
1.1730858
1.1730961
1.1731101
1.1731908
1.1732014
1.1731234
1.1731101
1.1731
1.1730924
1.1731086
1.1731172
1.1731274
1.1731401
1.1732138
1.1732297
1.1731602
1.1731483
1.1731385
1.1731295
1.1731532
1.1731628
1.1731726
1.1731837
1.1732478
1.1732691
1.1732101
1.1731999
1.1731908
1.1731811
1.1732106
1.1732206
1.1732295
1.1732389
1.1732923
1.173318
1.1732699
1.1732615
1.1732532
1.1732433
1.1732772
1.1732872
1.1732951
1.1733025
1.1733451
1.1733738
1.1733364
1.1733298
1.1733225
1.1733129
1.1733488
1.1733583
1.1733652
1.173371
1.1734033
1.1734336
1.173406
1.173401
1.1733947
1.1733857
1.1734223
1.173431
1.1734367
1.173441
1.1734641
1.1734947
1.1734755
1.1734719
1.1734668
1.1734587
1.1734938
1.1735015
1.1735061
1.1735091
1.1735247
1.1735542
1.1735417
1.1735393
1.1735352
1.1735282
1.1735608
1.1735674
1.173571
1.173573
1.1735827
1.1736102
1.1736028
1.1736012
1.173598
1.1735921
1.1736219
1.1736273
1.1736302
1.1736314
1.1736368
1.1736622
1.1736571
1.1736564
1.1736545
1.1736501
1.1736377
1.1736313
1.1736301
1.1736274
1.1736221
1.1735946
1.1736003
1.1736034
1.1736049
1.1736117
1.1735845
1.1735751
1.1735732
1.1735696
1.1735633
1.1735315
1.1735384
1.1735424
1.1735448
1.1735565
1.1735277
1.1735127
1.1735098
1.1735052
1.1734979
1.1734635
1.1734715
1.1734765
1.1734799
1.1734981
1.1734683
1.173446
1.1734418
1.1734363
1.1734279
1.1733924
1.1734013
1.1734073
1.1734122
1.1734383
1.1734088
1.1733777
1.1733721
1.1733654
1.1733563
1.1733211
1.1733305
1.1733377
1.1733442
1.1733796
1.173352
1.1733111
1.1733038
1.1732961
1.1732866
1.1732538
1.1732635
1.1732717
1.1732798
1.1733253
1.1733007
1.1732495
1.1732404
1.1732318
1.1732222
1.1731934
1.1732029
1.173212
1.1732219
1.1732776
1.1732575
1.1731959
1.1731851
1.1731757
1.1731665
1.1731433
1.1731523
1.1731619
1.1731735
1.1732391
1.1732243
1.1731533
1.1731409
1.1731309
1.1731226
1.1731062
1.1731142
1.1731243
1.1731373
1.1732113
1.1732023
1.1731237
1.17311
1.1730998
1.1730927
1.1730828
1.1730894
1.1730995
1.1731137
1.1731938
1.1731887
1.1731051
1.1730906
1.1730806
1.1730753
1.1730701
1.1730744
1.1730841
1.1730988
1.1731813
1.1731751
1.1730898
1.1730749
1.1730655
1.1730625
1.1730487
1.1730519
1.1730614
1.1730764
1.1731608
1.1731415
1.1730466
1.1730303
1.1730193
1.1730136
1.1729411
1.1729557
1.1729715
1.172991
1.1731016
1.1730545
1.1728969
1.1728696
1.1728434
1.1728103
1.1725927
1.1726559
1.1726991
1.1727389
1.1729554
1.1728238
1.1724993
1.1724403
1.172376
1.1722857
1.1722298
1.1723205
1.172407
1.1724926
1.1729461
1.1727635
1.1723611
1.172276
1.1721911
1.1721055
1.1672432
1.1676727
1.1680371
1.1683513
1.1704332
1.1754065
1.176697
1.1766391
1.1765901
1.1764947
1.1754966
1.1758127
1.1759772
1.1761505
1.1771884
1.1790388
1.1784048
1.1783116
1.1782083
1.1780908
1.1863602
1.1861491
1.1858643
1.1855015
1.1824894
1.1787799
1.1765873
1.1763373
1.1760797
1.1757578
1.1801603
1.1802385
1.1802455
1.1802108
1.1799178
1.1792161
1.1791265
1.1791105
1.1790641
1.178896
1.1756
1.1759222
1.1761033
1.1763075
1.1780587
1.1773943
1.1760176
1.1758636
1.1757347
1.1754794
1.1768755
1.1770841
1.1771879
1.1772828
1.1781415
1.1786035
1.1770102
1.1768382
1.1766822
1.1764553
1.1806126
1.1806449
1.1806235
1.1805681
1.1802119
1.1766259
1.175274
1.1750393
1.1747945
1.1744115
1.1762349
1.1763734
1.1764284
1.176502
1.1753127
1.1704351
1.1686635
1.1684759
1.1682999
1.1680502
1.1720822
1.1721548
1.1722327
1.1723103
1.1726498
1.172914
1.1725367
1.1724642
1.1723933
1.1723254
1.1723441
1.1724176
1.1724718
1.172522
1.1727896
1.1729512
1.1727618
1.1727279
1.1726921
1.1726408
1.1728434
1.1728681
1.172889
1.1729117
1.173042
1.1730979
1.1729974
1.1729807
1.1729687
1.1729604
1.1730223
1.173024
1.1730326
1.173047
1.173131
1.1731548
1.1730716
1.1730575
1.1730498
1.1730496
1.1730574
1.1730589
1.1730674
1.1730817
1.1731642
1.173173
1.1730879
1.1730734
1.1730645
1.1730618
1.1730636
1.1730684
1.1730781
1.1730928
1.1731771
1.1731843
1.1731002
1.1730859
1.173076
1.1730702
1.1730782
1.1730855
1.1730958
1.1731098
1.1731908
1.1732015
1.1731233
1.1731099
1.1730998
1.1730921
1.173108
1.1731167
1.173127
1.1731398
1.1732135
1.1732297
1.1731604
1.1731485
1.1731387
1.1731298
1.1731531
1.1731627
1.1731724
1.1731836
1.1732477
1.173269
1.1732101
1.1731999
1.1731907
1.1731811
1.1732105
1.1732205
1.1732295
1.1732388
1.1732921
1.1733179
1.1732699
1.1732615
1.1732532
1.1732433
1.1732768
1.1732868
1.1732948
1.1733023
1.1733449
1.1733738
1.1733363
1.1733297
1.1733224
1.1733128
1.1733487
1.1733582
1.1733651
1.1733709
1.1734032
1.1734336
1.173406
1.1734011
1.1733949
1.1733859
1.1734221
1.1734309
1.1734366
1.1734408
1.173464
1.1734946
1.1734754
1.1734718
1.1734667
1.1734586
1.1734937
1.1735014
1.173506
1.173509
1.1735247
1.1735542
1.1735417
1.1735393
1.1735353
1.1735283
1.1735612
1.1735676
1.1735712
1.173573
1.1735827
1.1736103
1.1736029
1.1736015
1.1735985
1.1735928
1.1736229
1.1736281
1.1736306
1.1736316
1.1736368
1.1736617
1.1736566
1.1736559
1.1736537
1.1736492
1.1736401
1.1736335
1.1736323
1.1736297
1.1736246
1.1735965
1.1736021
1.1736051
1.1736066
1.1736137
1.173586
1.1735766
1.1735747
1.1735712
1.173565
1.1735328
1.1735396
1.1735436
1.1735459
1.1735579
1.1735289
1.1735138
1.1735109
1.1735065
1.1734991
1.1734644
1.1734723
1.1734773
1.1734807
1.1734992
1.1734693
1.1734468
1.1734427
1.1734372
1.1734289
1.173393
1.1734018
1.1734078
1.1734126
1.1734393
1.1734097
1.1733783
1.1733727
1.1733661
1.173357
1.1733212
1.1733307
1.1733379
1.1733443
1.1733805
1.1733526
1.1733113
1.1733041
1.1732964
1.1732869
1.1732535
1.1732631
1.1732712
1.1732793
1.1733258
1.1733011
1.1732493
1.1732403
1.1732318
1.1732223
1.1731925
1.173202
1.173211
1.1732209
1.1732779
1.1732579
1.1731958
1.1731851
1.1731758
1.1731668
1.1731429
1.1731517
1.1731612
1.1731728
1.1732395
1.1732248
1.1731534
1.1731412
1.1731315
1.1731234
1.1731069
1.1731145
1.1731242
1.1731371
1.173212
1.1732034
1.1731252
1.1731117
1.173102
1.1730953
1.173086
1.1730918
1.1731015
1.1731154
1.1731957
1.1731913
1.1731096
1.1730955
1.1730863
1.173082
1.1730781
1.1730811
1.1730899
1.173104
1.1731855
1.1731806
1.1730997
1.1730858
1.1730777
1.1730765
1.173066
1.1730668
1.1730747
1.1730884
1.1731682
1.1731503
1.1730662
1.173052
1.1730435
1.1730414
1.1729768
1.1729863
1.1729988
1.1730156
1.1731136
1.1730675
1.1729337
1.1729106
1.1728893
1.1728637
1.1726598
1.1727125
1.1727491
1.1727834
1.172971
1.1728227
1.1725488
1.1724984
1.1724441
1.1723705
1.1723519
1.1724196
1.1724903
1.1725625
1.1729356
1.1726876
1.1723443
1.1722673
1.1721908
1.1721185
1.1680924
1.1683441
1.1685209
1.1687073
1.1704608
1.175366
1.1765661
1.1764951
1.1764417
1.176304
1.1744671
1.174839
1.1750785
1.1753109
1.1766725
1.1776984
1.1768516
1.1767231
1.1765842
1.1763617
1.1741718
1.1744387
1.1746044
1.1748002
1.174547
1.171035
1.1693739
1.1691959
1.1690042
1.1687336
1.1720885
1.1721655
1.1722443
1.1723266
1.1728397
1.1729504
1.1724861
1.1724138
1.1723429
1.1722708
1.1723146
1.1723908
1.1724464
1.1724977
1.1728202
1.1729667
1.1727382
1.1727027
1.1726648
1.1726105
1.1728206
1.1728491
1.1728722
1.1728965
1.1730551
1.1731082
1.1729882
1.1729704
1.1729568
1.1729453
1.1730171
1.1730208
1.1730303
1.1730451
1.1731424
1.1731651
1.1730717
1.1730578
1.17305
1.1730495
1.1730613
1.1730627
1.1730709
1.173085
1.1731763
1.1731845
1.1730907
1.1730766
1.1730682
1.173066
1.173069
1.1730732
1.1730825
1.1730967
1.1731897
1.1731965
1.1731034
1.1730894
1.17308
1.1730747
1.1730829
1.1730897
1.1730997
1.1731134
1.1732035
1.1732137
1.1731261
1.1731129
1.1731031
1.1730957
1.1731118
1.1731202
1.1731303
1.1731429
1.1732259
1.1732416
1.1731628
1.173151
1.1731413
1.1731326
1.1731563
1.1731658
1.1731755
1.1731866
1.1732594
1.1732799
1.1732124
1.1732022
1.1731931
1.1731835
1.1732132
1.1732232
1.1732321
1.1732415
1.1733026
1.1733275
1.1732721
1.1732637
1.1732553
1.1732455
1.1732793
1.1732893
1.1732973
1.1733049
1.173354
1.173382
1.1733385
1.1733318
1.1733244
1.1733147
1.1733506
1.1733603
1.1733672
1.1733731
1.1734108
1.1734405
1.1734079
1.1734028
1.1733965
1.1733874
1.1734238
1.1734326
1.1734385
1.1734428
1.1734703
1.1735002
1.1734772
1.1734735
1.1734682
1.17346
1.173495
1.1735028
1.1735076
1.1735107
1.1735296
1.1735585
1.1735431
1.1735406
1.1735364
1.1735292
1.1735616
1.1735682
1.1735721
1.1735742
1.1735865
1.1736142
1.1736046
1.1736029
1.1735996
1.1735937
1.1736216
1.1736271
1.17363
1.1736314
1.1736405
1.1736402
1.1736315
1.1736301
1.1736271
1.1736217
1.173594
1.1735999
1.1736032
1.1736049
1.1736141
1.1735868
1.1735747
1.1735726
1.1735689
1.1735624
1.1735301
1.1735372
1.1735414
1.1735439
1.1735589
1.1735303
1.1735116
1.1735085
1.1735039
1.1734963
1.1734613
1.1734695
1.1734746
1.1734783
1.1735008
1.1734712
1.1734441
1.1734398
1.1734341
1.1734255
1.1733892
1.1733983
1.1734045
1.1734095
1.1734413
1.1734121
1.1733748
1.1733691
1.1733623
1.1733531
1.1733172
1.1733268
1.1733341
1.1733407
1.1733831
1.1733557
1.1733073
1.1732999
1.1732921
1.1732825
1.173249
1.1732588
1.173267
1.1732753
1.1733291
1.1733048
1.1732449
1.1732358
1.1732272
1.1732177
1.1731884
1.1731978
1.1732068
1.1732167
1.173282
1.1732624
1.1731912
1.1731805
1.1731713
1.1731624
1.1731392
1.1731477
1.1731571
1.1731686
1.1732444
1.1732301
1.1731493
1.1731372
1.1731277
1.1731201
1.1731046
1.1731116
1.1731211
1.1731338
1.1732178
1.1732096
1.1731218
1.1731087
1.1730995
1.1730936
1.1730861
1.173091
1.1731
1.1731134
1.173202
1.1731981
1.1731078
1.1730943
1.1730859
1.1730828
1.1730805
1.1730823
1.1730902
1.1731036
1.173192
1.1731877
1.1730989
1.1730857
1.1730784
1.173078
1.1730674
1.1730677
1.1730749
1.1730881
1.1731755
1.1731589
1.1730628
1.1730488
1.1730404
1.173038
1.1729685
1.1729792
1.1729921
1.1730091
1.173124
1.1730818
1.1729202
1.1728964
1.1728743
1.1728474
1.1726371
1.1726905
1.1727279
1.172763
1.1729905
1.1728607
1.1725224
1.1724711
1.1724161
1.1723406
1.1722719
1.1723474
1.1724185
1.1724913
1.1729737
1.1728465
1.1723073
1.172227
1.1721547
1.1720976
1.1691195
1.169397
1.1695983
1.1697644
1.1710548
1.1740718
1.1735325
1.1732209
1.1729271
1.1725432
1.1774065
1.177502
1.1775382
1.177569
1.177808
1.1785587
1.1767342
1.1765474
1.1763896
1.1761033
1.1814244
1.1816268
1.1817787
1.1818914
1.1818075