/*--------------------------------*- C++ -*----------------------------------*\
  =========                 |
  \\      /  F ield         | OpenFOAM: The Open Source CFD Toolbox
   \\    /   O peration     | Website:  https://openfoam.org
    \\  /    A nd           | Version:  7
     \\/     M anipulation  |
\*---------------------------------------------------------------------------*/
FoamFile
{
    version     2.0;
    format      ascii;
    class       volVectorField;
    location    "90";
    object      U;
}
// * * * * * * * * * * * * * * * * * * * * * * * * * * * * * * * * * * * * * //

dimensions      [0 1 -1 0 0 0 0];

internalField   nonuniform List<vector> 
24789
(
(104.07621 0.00031208945 -0.00012105722)
(111.17378 0.00042401796 1.650351e-05)
(113.54393 0.00054620159 0.00019117154)
(114.73534 0.00066603718 0.00038472016)
(119.0232 0.001183448 0.0013308312)
(119.0234 0.00089941475 0.00088345014)
(114.73635 0.00040448849 -3.0530341e-05)
(113.5451 0.00036040165 -0.0001541041)
(111.1754 0.00032779785 -0.0002362006)
(104.07835 0.00028332715 -0.00029081379)
(104.08255 -0.00020915179 0.00017027853)
(111.17685 -0.00016464206 0.00018677634)
(113.54594 -0.00012005206 0.00021463377)
(114.73684 -4.8876369e-05 0.00027489447)
(119.02374 0.00065210481 0.00079999506)
(119.02457 0.00041565703 0.00063177404)
(114.73843 -0.0001235043 0.00015735954)
(113.5477 -0.00016778211 0.00010879816)
(111.17946 -0.0001827063 9.5857841e-05)
(104.08759 -0.00020691474 8.6067403e-05)
(104.09537 -0.00030097568 0.00015098649)
(111.18332 -0.00029741495 0.00014466571)
(113.55053 -0.00030081234 0.00013602301)
(114.74071 -0.0002732759 0.00015869684)
(119.02592 0.00015829042 0.00046818389)
(119.02793 -0.00010925717 0.00027142953)
(114.74392 -0.00037399977 9.7855069e-05)
(113.55405 -0.0003798547 9.5264836e-05)
(111.18805 -0.00035498076 0.00012268217)
(104.10363 -0.0003411521 0.00014201987)
(104.11458 -0.00038804446 0.00014364712)
(111.19416 -0.00042306821 0.0001101043)
(113.55884 -0.00047275167 6.0948256e-05)
(114.74806 -0.0004915106 3.9604454e-05)
(119.03065 -0.00041423324 5.2892733e-05)
(119.03418 -0.00075932395 -0.00020603212)
(114.75335 -0.00060606517 -5.3267974e-05)
(113.56456 -0.00055728033 -7.6033835e-06)
(111.20142 -0.00047838698 6.3725134e-05)
(104.12638 -0.00042220118 0.00011081191)
(104.14108 -0.00045549702 5.3100891e-05)
(111.21029 -0.00054277555 -1.2925102e-05)
(113.57179 -0.00065513229 -0.00010767128)
(114.7598 -0.00073852768 -0.00017950026)
(119.03859 -0.0011574962 -0.00051366816)
(119.04399 -0.0015962479 -0.00083647173)
(114.76765 -0.00087238633 -0.00028115578)
(113.58021 -0.00074846142 -0.00017699089)
(111.22057 -0.00059806934 -5.2649149e-05)
(104.15686 -0.0004831219 3.4149955e-05)
(104.17587 -0.00049512206 -4.2548968e-05)
(111.23277 -0.00064580948 -0.00015226107)
(113.59041 -0.00084102871 -0.00030609223)
(114.77691 -0.0010136961 -0.00044238337)
(119.05043 -0.0020925562 -0.0012106531)
(119.05806 -0.0026434892 -0.0016250475)
(114.78786 -0.0011751856 -0.00061886618)
(113.60209 -0.00094740934 -0.0004455985)
(111.24663 -0.00070168837 -0.0002562901)
(104.19618 -0.0005124621 -0.00011791152)
(104.22007 -0.00053634397 -0.00018820039)
(111.26275 -0.00076688672 -0.00036144441)
(113.61586 -0.0010680138 -0.00059149188)
(114.8005 -0.0013573978 -0.00080672607)
(119.06689 -0.0032450076 -0.0020668506)
(119.07704 -0.0038828682 -0.0025215053)
(114.81512 -0.0015628603 -0.00099594886)
(113.63141 -0.0012069193 -0.0007341382)
(111.28083 -0.00084464426 -0.0004577361)
(104.24545 -0.00057098847 -0.00024560801)
(104.27458 -0.00060199477 -0.00030745965)
(111.30143 -0.00092511206 -0.00055600542)
(113.64934 -0.0013533622 -0.00087900497)
(114.83172 -0.0017802816 -0.0011892122)
(119.0885 -0.0045392718 -0.0029731963)
(119.10133 -0.0051865248 -0.0034024812)
(114.85051 -0.0019954696 -0.0013828269)
(113.66931 -0.0014963406 -0.0010251959)
(111.32421 -0.00099834354 -0.00065758001)
(104.30534 -0.00062038116 -0.00037929301)
(104.33971 -0.00062633751 -0.00045823606)
(111.34956 -0.001062842 -0.00075843318)
(113.69173 -0.0016299276 -0.0011638216)
(114.87137 -0.0022005398 -0.0015641012)
(119.11545 -0.0057993268 -0.0037781321)
(119.13084 -0.0063493729 -0.0040842767)
(114.89438 -0.0023586642 -0.0017293532)
(113.71616 -0.0017188715 -0.0012934596)
(111.37699 -0.0010854586 -0.0008564144)
(104.37545 -0.00060105215 -0.00054444894)
(104.41388 -0.00056236301 -0.00067244173)
(111.40639 -0.0010935185 -0.0010009231)
(113.74258 -0.0017860893 -0.0014625364)
(114.91906 -0.0024892466 -0.0019243735)
(119.14731 -0.0068321535 -0.0043334394)
(119.1648 -0.0072124827 -0.0044561618)
(114.94514 -0.0025585256 -0.0020196512)
(113.77018 -0.0018080762 -0.0015415885)
(111.43681 -0.0010750576 -0.0010606466)
(104.45211 -0.00052359256 -0.00071917676)
(104.49036 -0.00044369049 -0.00073072659)
(111.46743 -0.00099191268 -0.0010598968)
(113.79844 -0.0017368 -0.0015342572)
(114.97181 -0.0025101527 -0.0020090466)
(119.18333 -0.0074585746 -0.0044490203)
(119.20335 -0.0075375508 -0.0043136628)
(114.99799 -0.0022106689 -0.0018389976)
(113.82555 -0.0014677798 -0.0014086965)
(111.49602 -0.00077066274 -0.0009940425)
(104.52413 -0.00027771874 -0.00071609071)
(104.55067 3.3418246e-05 -0.00069615422)
(111.51911 -0.00029100432 -0.00088781294)
(113.84885 -0.00081556734 -0.0011728423)
(115.02118 -0.0014416206 -0.0014776548)
(119.22591 -0.0075197604 -0.004157246)
(119.25327 -0.0077828099 -0.0042466636)
(115.03768 -8.847659e-05 -0.00087409132)
(113.86316 0.00030097431 -0.00078656153)
(111.53059 0.00047783554 -0.00074134919)
(104.56199 0.00038553442 -0.00067847072)
(104.55522 0.00018147865 4.270378e-05)
(111.5241 0.0010945407 -0.00040140762)
(113.86272 0.0015244641 -0.0002348161)
(115.04268 0.0014424376 -5.4602823e-05)
(119.2898 -0.0096818175 -0.0053991521)
(119.34385 -0.016312571 -0.0094766243)
(115.036 0.0012060631 0.0012830763)
(113.84567 0.0010371443 0.0012035061)
(111.49883 -0.00034928026 0.0015701726)
(104.53337 -0.0029141576 0.003677837)
(104.52475 -0.011622117 0.012962)
(111.47269 -0.007103348 0.0073635354)
(113.826 -0.0048038242 0.0049859306)
(115.03059 -0.0048058172 0.0037243178)
(119.42806 -0.032701135 -0.019752725)
(119.55863 -0.063138609 -0.039690965)
(115.067 -0.02212422 0.0078572937)
(113.84771 -0.021059115 0.013072473)
(111.49607 -0.023512806 0.020121427)
(104.58457 -0.029578409 0.03151194)
(104.81852 -0.057518804 0.059618927)
(111.66904 -0.052024017 0.041809882)
(114.00193 -0.051070333 0.027536135)
(115.22726 -0.054076053 0.014992501)
(119.76879 -0.1064984 -0.069501443)
(120.08717 -0.16044668 -0.1072074)
(115.59349 -0.098471722 0.02231686)
(114.38077 -0.091683943 0.044846248)
(112.09156 -0.088256499 0.06642279)
(105.34325 -0.085247155 0.08591134)
(106.15118 -0.10672438 0.10398071)
(112.79695 -0.12970877 0.078438036)
(115.02531 -0.14829005 0.04671981)
(116.19658 -0.17068708 0.0087411269)
(120.4629 -0.28654679 -0.18525612)
(121.28039 -0.56088346 -0.31994976)
(117.5682 -0.28103053 -0.044750389)
(116.49431 -0.2215886 0.012346585)
(114.35137 -0.16355835 0.059404456)
(107.54426 -0.1223387 0.10230876)
(111.23844 -0.25756553 -0.1642265)
(117.935 -0.1462104 0.13171776)
(119.85046 -0.26037281 0.0867086)
(120.66276 -0.34521287 0.020551406)
(122.85524 -0.96201958 -0.49447196)
(123.55843 -2.8288019 -1.8810128)
(121.70246 -3.3263774 -2.071474)
(120.97739 -3.3661319 -2.0704455)
(119.23321 -3.3326562 -2.0336692)
(112.97397 -3.3262313 -2.1129891)
(112.12566 -3.4674896 -4.7025489)
(118.37887 -3.469043 -4.6571415)
(120.1657 -3.6680138 -4.595371)
(120.9554 -3.755234 -4.4297991)
(123.25439 -3.891283 -3.1612678)
(123.18503 -5.2679144 -4.2546177)
(121.32262 -5.8848844 -5.2375175)
(120.60161 -5.8833028 -5.3247659)
(118.89641 -5.7527404 -5.3095602)
(112.64963 -5.6554055 -5.2948781)
(112.39688 -7.5166013 -6.3193724)
(118.22693 -7.7000404 -6.2176931)
(119.89516 -7.8084149 -6.1721945)
(120.58991 -7.790257 -6.0455566)
(122.42767 -6.9361366 -4.8163897)
(123.30869 -5.6788 -3.110058)
(120.90618 -6.2058974 -4.192976)
(120.15776 -6.2242206 -4.3525895)
(118.42871 -6.0755858 -4.4621616)
(112.27804 -6.235884 -4.7049943)
(111.84036 -5.5573457 -2.3792031)
(118.03471 -5.6943158 -2.3305479)
(119.81332 -5.694264 -2.3020128)
(120.61156 -5.564157 -2.2462741)
(123.27144 -4.4673191 -1.9459027)
(123.45801 -2.689527 -1.21366)
(121.14691 -2.5161594 -1.0199759)
(120.37273 -2.4551274 -0.98254018)
(118.53034 -2.3298018 -0.94165682)
(112.02678 -2.6872623 -1.1463171)
(109.40436 0.025097278 -0.20027297)
(116.34337 0.04247277 -0.16465882)
(118.42733 -0.082744699 -0.19849716)
(119.37022 -0.18786553 -0.2405606)
(122.62715 -1.0522598 -0.59385945)
(121.18253 -0.59787816 -0.32903928)
(116.6859 -0.23035031 -0.073151206)
(115.56484 -0.1614848 -0.03019917)
(113.33565 -0.10401195 0.008018179)
(106.45501 -0.048967781 0.032095734)
(105.18638 -0.047368115 0.045826718)
(111.9587 -0.068763653 0.018006127)
(114.24446 -0.095571328 -0.007101216)
(115.43876 -0.13065248 -0.02942337)
(120.4643 -0.33053686 -0.1602191)
(120.12697 -0.19370408 -0.084324479)
(114.87322 -0.063343666 -0.023720671)
(113.64496 -0.045543059 -0.015333741)
(111.30693 -0.032673925 -0.0024019884)
(104.44807 -0.025661013 0.018472438)
(103.97223 -0.0052656777 -0.0095134444)
(110.919 -0.0089985247 -0.018583586)
(113.29496 -0.015224445 -0.022167701)
(114.53197 -0.024693968 -0.023956193)
(119.82482 -0.12116297 -0.051322033)
(119.62273 -0.067697504 -0.027763503)
(114.39463 -0.0029638807 -0.01618562)
(113.16565 0.00061593865 -0.017257603)
(110.77425 0.0022037845 -0.018403974)
(103.77299 0.0035695688 -0.017466782)
(103.73341 0.0044490325 -0.013446898)
(110.76989 0.0045746574 -0.011079293)
(113.16248 0.0051010887 -0.0084442854)
(114.37656 0.0046033322 -0.0067904631)
(119.49449 -0.033992119 -0.011838092)
(119.40993 -0.016570772 -0.002624436)
(114.39507 0.0044899725 -0.0011300817)
(113.19505 0.0042329657 -0.0026221533)
(110.80899 0.0035810556 -0.0049640126)
(103.75423 0.0033630559 -0.0081834167)
(103.78341 0.0016711794 -0.003425052)
(110.84297 0.0016849335 -0.0012732956)
(113.22118 0.0019547164 0.00012941704)
(114.41099 0.0020652909 0.0010585322)
(119.3549 -0.010095531 0.0005373651)
(119.31762 -0.0085712469 0.00076653704)
(114.41258 -0.00052337143 0.0013775401)
(113.2285 -0.00022410829 0.001008669)
(110.85659 -4.3448258e-06 0.00040846924)
(103.79643 0.00021422485 -0.00066484128)
(103.78885 -0.00067269024 0.00061857524)
(110.84985 -0.0011538472 0.001093341)
(113.21901 -0.0017449909 0.0012407464)
(114.40063 -0.0023662993 0.0012641356)
(119.29015 -0.0085978676 0.00026106296)
(119.26788 -0.0088470172 -0.00046860943)
(114.38053 -0.0033965463 0.0010633666)
(113.19917 -0.0026070878 0.0012514912)
(110.8305 -0.0018274526 0.0013928012)
(103.76545 -0.0012193504 0.0012768092)
(103.7329 -0.0014879147 0.0015158852)
(110.80387 -0.0021519773 0.0014670205)
(113.17412 -0.0029993713 0.0011995274)
(114.35615 -0.0038477028 0.00089143273)
(119.2483 -0.0089268929 -0.0011480156)
(119.23023 -0.0087977511 -0.0015986023)
(114.33078 -0.003931862 0.00075538531)
(113.14743 -0.00309412 0.0011200346)
(110.7749 -0.0022568977 0.0014545444)
(103.69553 -0.0015973876 0.0015950925)
(103.6573 -0.0016149525 0.0015944957)
(110.74533 -0.0022342475 0.0013982363)
(113.1209 -0.0030205536 0.0010363897)
(114.30556 -0.0038123938 0.00065480833)
(119.21317 -0.0084724596 -0.0018434114)
(119.19709 -0.0079601837 -0.0019495032)
(114.28173 -0.0035450148 0.0004932713)
(113.09558 -0.0028134673 0.00085870379)
(110.71711 -0.0020939742 0.001218989)
(103.61932 -0.0015298614 0.0014524426)
(103.58322 -0.0014460593 0.0013640817)
(110.69017 -0.0019419239 0.001105902)
(113.0719 -0.0025847148 0.00075574429)
(114.25933 -0.0032440171 0.00041343727)
(119.18207 -0.0073328576 -0.0019230444)
(119.16823 -0.0065809676 -0.0018046167)
(114.23911 -0.0029031169 0.00033255941)
(113.05037 -0.0023234806 0.00064005244)
(110.66582 -0.0017585769 0.00095876749)
(103.54931 -0.0013258768 0.0012100868)
(103.51801 -0.001202057 0.0010675773)
(110.64325 -0.0015790861 0.00084525226)
(113.03089 -0.0020688072 0.000565613)
(114.22072 -0.0025657001 0.00029320822)
(119.15566 -0.0057675357 -0.0016219342)
(119.14438 -0.0049390582 -0.0013973565)
(114.20459 -0.0022501355 0.00029431713)
(113.01361 -0.0018347017 0.00053415143)
(110.62337 -0.0014163075 0.00077495996)
(103.48911 -0.0010899452 0.00095784959)
(103.46296 -0.00099411965 0.00089291461)
(110.60526 -0.0012714351 0.00074654229)
(112.99831 -0.0016212442 0.0005392266)
(114.1902 -0.0019588619 0.00032938717)
(119.1344 -0.0041331992 -0.0011429109)
(119.12569 -0.0033757421 -0.00088130188)
(114.17787 -0.0016834452 0.00035978421)
(112.985 -0.001416193 0.00053812562)
(110.58963 -0.0011308344 0.00071508535)
(103.43905 -0.0009026004 0.0008349334)
(103.41785 -0.00083272824 0.00083050291)
(110.57558 -0.001013396 0.00072477944)
(112.97344 -0.0012395682 0.00057000823)
(114.16706 -0.0014430569 0.00041814304)
(119.11818 -0.0026780299 -0.00061630227)
(119.1118 -0.0020491618 -0.00038081014)
(114.15808 -0.00121063 0.00044529243)
(112.96364 -0.0010625075 0.00057020699)
(110.56383 -0.00088870119 0.00070248752)
(103.39886 -0.00075179904 0.00079526309)
(103.3824 -0.00068945807 0.00077965919)
(110.55343 -0.00078801851 0.00069572971)
(112.95536 -0.00091593644 0.00058097464)
(114.15039 -0.0010146678 0.00047832844)
(119.10644 -0.0014702232 -0.00015909363)
(119.1021 -0.00096396748 2.5246438e-05)
(114.1442 -0.00081699443 0.00045441635)
(112.94849 -0.00075816089 0.0005309973)
(110.54497 -0.00066783049 0.00062341395)
(103.36772 -0.00060084138 0.00069275966)
(103.35534 -0.00052166167 0.00061091651)
(110.53759 -0.0005608933 0.00055235046)
(112.94289 -0.00061844913 0.00047906674)
(114.13906 -0.00064214707 0.0004264617)
(119.09859 -0.00052432464 0.00018577931)
(119.0959 -0.00012332783 0.00033310518)
(114.13518 -0.00048309005 0.00040065496)
(112.93842 -0.0004893887 0.00043158327)
(110.53184 -0.00046006661 0.00048638059)
(103.34435 -0.00044591588 0.0005358426)
(103.33546 -0.00038156916 0.00048428293)
(110.52689 -0.00037475114 0.0004450614)
(112.93491 -0.00037830688 0.00040664057)
(114.132 -0.00034581702 0.00039348595)
(119.0939 0.00021650127 0.00046169745)
(119.09257 0.00052494392 0.00057225444)
(114.12994 -0.00021724775 0.00038041116)
(112.93237 -0.00027256086 0.00037927415)
(110.5234 -0.00029150358 0.00040484583)
(103.32779 -0.00031750209 0.00043612365)
(103.32202 -0.00026898325 0.0004566594)
(110.52041 -0.00021892988 0.00044319829)
(112.93047 -0.00016965912 0.00043215175)
(114.12828 -8.5330566e-05 0.00044476795)
(119.09175 0.00080863 0.00069092203)
(119.09138 0.0010266641 0.00074401825)
(114.12818 0.00010888946 0.00036928392)
(112.93011 3.0427483e-05 0.0003449274)
(110.51955 -1.9632969e-05 0.00034705216)
(103.31821 -8.3459681e-05 0.00035469287)
(103.3143 -6.0026818e-05 0.00025468286)
(110.51645 4.0382587e-05 0.00030058386)
(112.9277 0.00024282747 0.00039640832)
(114.12607 0.00045081011 0.00051116256)
(119.09091 0.0014251252 0.0010171082)
(119.09075 -0.00066262279 0.0017770886)
(114.12803 -0.0003131524 0.00066890396)
(112.93001 -0.00023960219 0.00044673111)
(110.51999 -0.00016719829 0.00023999051)
(103.32097 -0.00010455642 7.0529825e-05)
(103.32382 -9.815477e-06 -7.9462111e-05)
(110.52146 -1.3563985e-05 -2.9889573e-05)
(112.93121 -2.1446871e-05 2.7498668e-05)
(114.12882 -4.4134662e-05 0.00011923048)
(119.09102 -0.0003705162 0.0010689168)
(119.09165 -0.00027737634 0.00083243321)
(114.12934 -2.2043477e-05 1.0341035e-05)
(112.93173 -5.1138727e-06 -6.7029162e-05)
(110.52275 -3.5805279e-06 -0.00010576627)
(103.32734 -3.6001606e-06 -0.00014045895)
(103.33453 -3.6623914e-05 -0.0001906094)
(110.52598 -2.0467636e-05 -0.00018175532)
(112.93401 -2.4607832e-06 -0.00017830681)
(114.1311 -1.183295e-06 -0.00013539822)
(119.09276 -0.00014919149 0.00050397582)
(119.09448 -2.0777457e-05 0.00015003246)
(114.1337 -1.5632669e-05 -0.00027757849)
(112.93682 -3.5594826e-05 -0.00029176747)
(110.53003 -7.0999726e-05 -0.00026756633)
(103.34224 -9.9827211e-05 -0.00025473052)
(103.35298 -0.00016469841 -0.00032545405)
(110.5356 -0.00012732206 -0.00036513077)
(112.94106 -7.4279222e-05 -0.00042179574)
(114.13729 -3.3157938e-05 -0.00044176657)
(119.09688 0.00012691797 -0.00026427306)
(119.1001 0.00029417837 -0.00072532837)
(114.14201 -3.9264361e-05 -0.0006230754)
(112.9461 -0.0001018819 -0.00056630257)
(110.54225 -0.00017347149 -0.00047398262)
(103.36442 -0.00022071658 -0.00040194493)
(103.37918 -0.00025713564 -0.00047102128)
(110.55064 -0.00019620964 -0.0005740229)
(112.95276 -0.00010474283 -0.00070765247)
(114.14788 -1.9765881e-05 -0.00080802337)
(119.10414 0.0004888245 -0.0012307459)
(119.10916 0.00070844946 -0.0017937831)
(114.1551 3.0993849e-05 -0.0010063346)
(112.96046 -7.4721033e-05 -0.00085535166)
(110.56034 -0.00018352877 -0.0006739972)
(103.39484 -0.00025605841 -0.00052847203)
(103.41391 -0.00031331491 -0.00061170169)
(110.57196 -0.00022124565 -0.00079602221)
(112.96998 -8.665923e-05 -0.0010287933)
(114.16369 4.5992696e-05 -0.0012345334)
(119.11515 0.00093136195 -0.0024160277)
(119.12224 0.0011878303 -0.0030984367)
(114.17387 0.00011891659 -0.0014603624)
(112.9808 -3.7225525e-05 -0.0011908886)
(110.58514 -0.00019695763 -0.00090200598)
(103.43414 -0.00031752414 -0.00067947637)
(103.45777 -0.00034905276 -0.00076050612)
(110.60041 -0.00019178492 -0.0010288445)
(112.99367 3.4225579e-07 -0.0013785664)
(114.1857 0.00018450452 -0.0017183217)
(119.13047 0.0014599469 -0.003828581)
(119.13992 0.0017431628 -0.0045921791)
(114.19935 0.00021872436 -0.0020033534)
(113.00812 -3.9013345e-07 -0.001591196)
(110.61753 -0.00023174499 -0.0011763277)
(103.48283 -0.0004270745 -0.00086046618)
(103.51159 -0.00052692897 -0.00097059254)
(110.63701 -0.00030896466 -0.0013415877)
(113.02484 -4.0136746e-05 -0.0018257667)
(114.21483 0.00021928241 -0.0023135518)
(119.15061 0.0020260116 -0.005375773)
(119.16256 0.0022745748 -0.0061387285)
(114.23228 0.00019764111 -0.0026345513)
(113.04326 -0.0001018601 -0.0020699656)
(110.65837 -0.00040072725 -0.0015098556)
(103.5416 -0.00061977834 -0.0010730727)
(103.57507 -0.00073019696 -0.0011820999)
(110.68203 -0.00052547572 -0.0016841377)
(113.06396 -0.00020092284 -0.0023210191)
(114.25159 0.00013839672 -0.0029602052)
(119.17572 0.0024561445 -0.0068570686)
(119.19004 0.0025439588 -0.00747916)
(114.27276 0.00014459114 -0.0032218565)
(113.08624 -0.00021537553 -0.0025076452)
(110.70739 -0.00054948579 -0.0017917082)
(103.60947 -0.00073806181 -0.0012205804)
(103.64649 -0.000656312 -0.0012083613)
(110.73451 -0.00049414249 -0.0018411206)
(113.11036 -0.00017262265 -0.0026291019)
(114.29537 0.00018429771 -0.003414341)
(119.20536 0.0024854332 -0.0079889149)
(119.22164 0.0021837665 -0.0083396682)
(114.3191 0.00023512001 -0.0034833804)
(113.13525 -7.6330484e-05 -0.0026391587)
(110.76228 -0.00034927999 -0.0017896003)
(103.68288 -0.0004336189 -0.001108127)
(103.71896 -0.00021831525 -0.00093594575)
(110.78984 -0.00018677514 -0.0016156635)
(113.16049 1.2475044e-05 -0.0024877077)
(114.34307 0.00023221463 -0.0033639953)
(119.2389 0.0015485674 -0.0085024558)
(119.25763 0.00052395794 -0.0084346553)
(114.36593 -5.1460446e-05 -0.0029688733)
(113.18386 -0.00011976648 -0.0021363567)
(110.81467 -0.00021733798 -0.0013362082)
(103.74976 -0.00019209893 -0.00075929777)
(103.77238 -0.00021783557 -0.00047373608)
(110.83296 -0.00043939639 -0.00084531305)
(113.2025 -0.0005518255 -0.0014229143)
(114.3848 -0.0007067306 -0.0020783268)
(119.2789 -0.00077963346 -0.0081816037)
(119.30524 -0.0019164086 -0.0080932988)
(114.39549 -0.0015247812 -0.00044209573)
(113.21062 -0.0010219224 -0.00013759062)
(110.83823 -0.00040403508 6.0490145e-05)
(103.77845 0.00057298337 0.00022441506)
(103.76485 0.0039707054 0.0019413385)
(110.82359 0.001279444 0.0017987711)
(113.2021 -0.00035450332 0.0020484192)
(114.39257 -0.0014319486 0.0021909128)
(119.34097 -0.0023238589 -0.0094434216)
(119.39383 0.00063070429 -0.015886115)
(114.37388 0.0018066852 0.0053208396)
(113.17309 0.0037563853 0.0050760638)
(110.78667 0.0070084928 0.0045967447)
(103.7337 0.011915992 0.005135334)
(103.71486 0.024644839 0.0092227468)
(110.7455 0.01822786 0.007854192)
(113.13729 0.013521585 0.0076765257)
(114.35195 0.010623969 0.0068910263)
(119.47589 0.0091720679 -0.033454099)
(119.60179 0.024828653 -0.067691963)
(114.36992 0.025561055 0.0021320902)
(113.14106 0.028883955 0.0063665711)
(110.75335 0.033604828 0.0092525112)
(103.76535 0.038556722 0.01224019)
(103.99391 0.051179023 0.012917664)
(110.91928 0.051045218 0.0058860394)
(113.2858 0.04830118 -0.0027332511)
(114.51972 0.045667561 -0.013829754)
(119.79949 0.047240938 -0.12025801)
(120.10312 0.07610622 -0.18815612)
(114.90465 0.068640734 -0.040831256)
(113.6854 0.068877948 -0.020074013)
(111.36336 0.066967351 -0.003567696)
(104.52557 0.058400776 0.008308509)
(105.34752 0.06380798 0.0023583872)
(112.09421 0.089637106 -0.017326076)
(114.35969 0.10184391 -0.045965779)
(115.53768 0.1093406 -0.083720403)
(120.45257 0.14334186 -0.30608045)
(121.11622 0.311481 -0.5693369)
(116.75734 0.18503797 -0.17470255)
(115.652 0.15768288 -0.10095348)
(113.42962 0.12464484 -0.044071592)
(106.5822 0.064629295 -0.0089400271)
(109.27182 0.1221032 -0.034567046)
(116.39773 0.16142121 0.0073403215)
(118.50458 0.20755929 -0.11505488)
(119.4374 0.25359786 -0.21941044)
(122.5983 0.53902488 -1.0018495)
(123.87301 1.1098983 -2.4703073)
(122.11182 0.34423749 -2.4356227)
(121.42871 0.23105614 -2.4199189)
(119.67021 0.099261941 -2.3240433)
(113.19384 0.38380959 -2.9107526)
(110.54363 4.1757428 -7.1558121)
(116.59075 4.2592918 -7.6346864)
(118.45586 4.1390747 -7.5986636)
(119.34855 3.9710193 -7.4231467)
(122.70782 2.7330907 -5.5737385)
(122.4246 3.0398188 -5.5633271)
(119.16815 3.3592196 -5.4436808)
(118.28571 3.377412 -5.3876419)
(116.33968 3.3272164 -5.1815476)
(109.7867 3.3976198 -5.3163369)
(112.42278 3.7725128 -8.1245584)
(118.54508 3.9050911 -8.1307748)
(120.23927 4.1208061 -8.1920276)
(120.94683 4.2322369 -8.1424408)
(122.68217 4.127113 -6.9578914)
(121.99428 1.4508381 -6.585052)
(118.57093 2.346069 -7.5179875)
(117.56317 2.5029521 -7.6307255)
(115.5556 2.6502257 -7.5809822)
(109.18951 2.7995461 -7.3622842)
(111.63657 0.56684121 -8.4280783)
(117.50812 0.70727122 -8.7251738)
(119.26068 0.74728797 -8.5745558)
(120.07509 0.75888818 -8.27531)
(122.73734 0.78027469 -6.1934748)
(123.92736 0.36226215 -2.61286)
(122.65666 0.51265205 -2.7100774)
(122.04258 0.53522194 -2.7078234)
(120.39075 0.54715964 -2.627208)
(114.07908 0.66609009 -3.2202345)
(110.34429 0.1384799 -0.15566072)
(117.26294 0.09524753 -0.049936931)
(119.25357 0.089887464 -0.15934995)
(120.11253 0.088436395 -0.25307942)
(122.5847 0.12504365 -0.93881881)
(121.01088 0.046976902 -0.54709268)
(117.2706 -0.061644935 -0.23136714)
(116.19825 -0.079926003 -0.16044612)
(114.0448 -0.090697581 -0.095159242)
(107.33374 -0.089802042 -0.051628118)
(105.99221 -0.12860766 -0.040932913)
(112.62543 -0.11629071 -0.06962203)
(114.8478 -0.10006759 -0.099913473)
(116.0103 -0.082351861 -0.13522265)
(120.3079 0.01303966 -0.29887281)
(119.98074 0.0047821061 -0.18567927)
(115.40922 -0.066028298 -0.078885647)
(114.19914 -0.079014239 -0.061264149)
(111.90989 -0.09420502 -0.046856353)
(105.15988 -0.10869454 -0.033723375)
(104.63787 -0.075856391 -0.021076862)
(111.48784 -0.058447537 -0.024584802)
(113.82422 -0.047038977 -0.03001701)
(115.05027 -0.039524995 -0.03821699)
(119.68973 0.0018804651 -0.11392108)
(119.50139 -0.0011262971 -0.0591778)
(114.91333 -0.018511252 -0.010650778)
(113.69332 -0.021367331 -0.0086046925)
(111.33732 -0.027221362 -0.0087659865)
(104.42442 -0.038427018 -0.0094650392)
(104.3822 -0.011448288 -0.0020624029)
(111.33394 -0.0071271424 -9.7763733e-05)
(113.6916 -0.0057047509 0.001942023)
(114.8964 -0.005654041 0.0025920983)
(119.38244 -0.0029015462 -0.024772181)
(119.30566 -0.0033680286 -0.009872397)
(114.91313 -0.00059172896 0.0050957553)
(113.72295 0.00034063036 0.0041446123)
(111.37269 0.0010205751 0.0024880976)
(104.40337 0.00087162753 0.00096303768)
(104.43074 0.0039314939 0.0013117488)
(111.40314 0.0026651804 0.0019745268)
(113.74502 0.0015675389 0.0026422396)
(114.92504 0.00059729422 0.0029796375)
(119.2568 -0.0030575845 -0.0061968457)
(119.22398 -0.0023861872 -0.0065466068)
(114.92334 0.00069072155 0.00014340051)
(113.74868 0.0013930911 0.00046406151)
(111.41287 0.0021626772 0.00061427847)
(104.44078 0.0030652096 0.00063860249)
(104.431 0.0021238751 2.3694286e-06)
(111.40389 0.0015935086 -0.00042797247)
(113.73733 0.0011659509 -0.0011004387)
(114.90995 0.00072187533 -0.0018635322)
(119.19955 -0.0014830358 -0.0076545409)
(119.17946 -0.00062370045 -0.0085135183)
(114.88994 0.00078113584 -0.0030413177)
(113.71729 0.0010302267 -0.0020564538)
(111.38393 0.0012202269 -0.0011263616)
(104.40674 0.0014240135 -0.00047241382)
(104.37479 0.00098052193 -0.00075718858)
(111.35797 0.00093301179 -0.0014983485)
(113.69306 0.00087905805 -0.0025154004)
(114.86661 0.00076975586 -0.0035706687)
(119.16151 6.3351082e-05 -0.0089136586)
(119.14474 0.00055145986 -0.0088967921)
(114.84269 0.00072737102 -0.0036574829)
(113.66774 0.00074293089 -0.0026149877)
(111.33032 0.00072209315 -0.0016009561)
(104.33896 0.00070568156 -0.00085565069)
(104.30255 0.00047295628 -0.00089131361)
(111.30221 0.00052474052 -0.0016094625)
(113.64257 0.00059170109 -0.0025712223)
(114.81896 0.00063663798 -0.0035572576)
(119.12875 0.00083322708 -0.0086026499)
(119.1136 0.00095779641 -0.0080911399)
(114.79651 0.00057074104 -0.0033178774)
(113.6186 0.00049842576 -0.0024097919)
(111.27541 0.00040894574 -0.0015226586)
(104.26651 0.00033486808 -0.00085856411)
(104.23224 0.00022282208 -0.00084107838)
(111.24979 0.00031735625 -0.0014490471)
(113.59607 0.00041691506 -0.0022475633)
(114.77534 0.00049759531 -0.0030633133)
(119.09932 0.00095685312 -0.007447565)
(119.08617 0.00088813355 -0.0066895742)
(114.75616 0.00042930351 -0.0027751231)
(113.57552 0.00035122223 -0.0020598215)
(111.22646 0.00025161055 -0.0013555977)
(104.19974 0.00014672433 -0.00081721788)
(104.16988 0.00014816775 -0.00072901933)
(111.2049 0.00024448558 -0.0011909533)
(113.55689 0.0003319611 -0.0018038524)
(114.7387 0.00039817438 -0.0024223951)
(119.07416 0.00079700846 -0.0058511456)
(119.0634 0.00069487646 -0.0050146717)
(114.7233 0.00035939379 -0.0021002415)
(113.54031 0.00030463208 -0.0015765381)
(111.18576 0.00023243975 -0.0010506243)
(104.14208 0.00015237281 -0.00065172832)
(104.11712 0.00013267296 -0.00058431648)
(111.16842 0.00019333791 -0.00092307396)
(113.52562 0.00025206199 -0.0013669633)
(114.70957 0.00029900573 -0.0018016862)
(119.05385 0.00058991517 -0.0042072316)
(119.04553 0.00049241125 -0.0034362041)
(114.69785 0.00023362388 -0.0015244415)
(113.51291 0.0001912744 -0.0011710875)
(111.15346 0.00014229502 -0.00080079986)
(104.09431 9.8592262e-05 -0.00051874262)
(104.07419 8.2282993e-05 -0.00043519106)
(111.14008 0.00011151633 -0.00066272823)
(113.50185 0.00015176901 -0.00096708741)
(114.68757 0.00018884741 -0.0012488709)
(119.03835 0.00041081572 -0.0027170327)
(119.03229 0.00033817301 -0.002071257)
(114.67902 0.0001456662 -0.0010429507)
(113.49248 0.00011176678 -0.00082962739)
(111.12879 7.563165e-05 -0.00058710701)
(104.05596 5.0267265e-05 -0.00039955022)
(104.0402 4.6055435e-05 -0.00034399749)
(111.1188 6.4860176e-05 -0.00048575607)
(113.48449 9.4324732e-05 -0.00067265937)
(114.67167 0.00012192861 -0.00082740411)
(119.02724 0.00026962498 -0.0014886468)
(119.02312 0.00020352302 -0.0009542366)
(114.66585 0.00010808472 -0.0006273844)
(113.47802 8.8329238e-05 -0.00052653121)
(111.11082 6.6088981e-05 -0.00038968567)
(104.0264 5.2743441e-05 -0.00028902401)
(104.01477 7.3110808e-05 -0.00023306764)
(111.10387 8.087011e-05 -0.00029976106)
(113.47271 9.5198719e-05 -0.00039349311)
(114.66102 0.000106137 -0.00044724572)
(119.01985 0.00014308535 -0.00046092887)
(119.0174 9.1167363e-05 -2.9164179e-05)
(114.65746 0.0001063659 -0.00028081558)
(113.4686 0.00010370563 -0.00026909395)
(111.09853 9.7354869e-05 -0.00021536144)
(104.00454 9.5879241e-05 -0.00018228555)
(103.99653 0.00011105831 -0.00013157565)
(111.09415 0.00010573094 -0.00013589824)
(113.46551 0.00010495604 -0.00015457302)
(114.65471 0.00010106109 -0.0001311022)
(119.01566 4.4337398e-05 0.00034656124)
(119.01455 6.7293393e-06 0.00067818612)
(114.65298 0.00011007285 3.4197208e-05)
(113.46337 0.00012314205 -2.486366e-05)
(111.09118 0.00013396594 -4.4525732e-05)
(103.98986 0.00014897929 -7.1482808e-05)
(103.98597 0.00013915776 -1.057564e-06)
(111.08951 0.00011866526 4.4235349e-05)
(113.46252 0.00010406087 8.307742e-05)
(114.65227 8.9132017e-05 0.00015441456)
(119.01395 -3.1677319e-05 0.00091021288)
(119.01373 -0.00019221434 0.0016301039)
(114.6516 8.8582384e-06 0.00074662255)
(113.46157 5.5781705e-05 0.00053566835)
(111.08844 0.00010634269 0.00033275951)
(103.98383 0.0001590418 0.00016310866)
(104.08208 0.00040018605 0.0006528729)
(111.17634 0.00023135162 0.00071896085)
(113.54541 3.0625664e-05 0.00081890142)
(114.73638 -0.00017672347 0.0009339222)
(119.02296 -0.0011994183 0.0014221558)
(119.02321 -0.00057265781 0.00096620477)
(114.73746 0.00020588964 0.0005462082)
(113.54663 0.00028527305 0.00051257862)
(111.17794 0.00034302506 0.00050770291)
(104.08419 0.00039809361 0.00050897538)
(104.08886 0.00043152524 0.00046013705)
(111.17972 0.00039161786 0.00046063408)
(113.54776 0.00034736672 0.00046317509)
(114.73824 0.00027641438 0.00049270168)
(119.0239 -0.00040359242 0.00084014073)
(119.02506 -0.0001533933 0.00064212014)
(114.74028 0.00036796945 0.00035488057)
(113.55001 0.00040845565 0.00033979435)
(111.18292 0.00041897713 0.00035364586)
(104.09482 0.00043049609 0.00036222109)
(104.10372 0.00046270725 0.00032546034)
(111.18749 0.0004737581 0.00030475929)
(113.55343 0.00048761989 0.00027377678)
(114.74311 0.00047099674 0.00027109417)
(119.02681 0.00012598351 0.00043787573)
(119.02931 0.00045512675 0.00022129679)
(114.74706 0.00059872739 0.0001985534)
(113.55774 0.00058745498 0.00022307921)
(111.19314 0.00054528667 0.00027465647)
(104.11335 0.00050947785 0.0003104351)
(104.12606 0.00057336725 0.00031743545)
(111.20039 0.00063425141 0.00025816978)
(113.56345 0.00070803861 0.00018239779)
(114.75203 0.00075174419 0.00013311182)
(119.03257 0.00084146965 -1.449045e-05)