/*--------------------------------*- C++ -*----------------------------------*\
  =========                 |
  \\      /  F ield         | OpenFOAM: The Open Source CFD Toolbox
   \\    /   O peration     | Website:  https://openfoam.org
    \\  /    A nd           | Version:  7
     \\/     M anipulation  |
\*---------------------------------------------------------------------------*/
FoamFile
{
    version     2.0;
    format      ascii;
    class       volVectorField;
    location    "270";
    object      U;
}
// * * * * * * * * * * * * * * * * * * * * * * * * * * * * * * * * * * * * * //

dimensions      [0 1 -1 0 0 0 0];

internalField   nonuniform List<vector> 
24789
(
(97.659957 -0.00081518976 -0.00039227816)
(106.5152 -0.00109185 -0.00045914999)
(109.75284 -0.0014303385 -0.00061583507)
(111.50682 -0.0015540488 -0.00062055839)
(118.0259 -0.00018840731 0.00077999797)
(118.02253 -0.00021685278 0.00069198605)
(111.5118 -0.0017024873 -0.00070130947)
(109.76124 -0.0015703133 -0.0006683897)
(106.53166 -0.0012091284 -0.00047650077)
(97.69541 -0.00092306235 -0.00039789682)
(97.732011 -0.0010594632 -0.00036203485)
(106.54802 -0.0013524639 -0.00045536748)
(109.76935 -0.001708336 -0.00065554392)
(111.51639 -0.0018279891 -0.00069494953)
(118.01911 -0.00024285402 0.00066262037)
(118.01589 -0.00030338164 0.00057838878)
(111.52144 -0.0018615303 -0.00077807145)
(109.77796 -0.0017350354 -0.0007339595)
(106.56523 -0.0013672118 -0.0005253154)
(97.769874 -0.0010638803 -0.00042090111)
(97.809494 -0.0011123792 -0.00041841765)
(106.58313 -0.0014215365 -0.00053381112)
(109.78706 -0.0017957516 -0.00075455703)
(111.52684 -0.0019240545 -0.0008076712)
(118.013 -0.00039220276 0.00048584784)
(118.01057 -0.00052359714 0.00036171161)
(111.53273 -0.0019869121 -0.00084012037)
(109.79665 -0.001855478 -0.00077653716)
(106.60185 -0.0014766263 -0.00054303541)
(97.850408 -0.0011631917 -0.00041232412)
(97.89314 -0.0012315129 -0.00037931899)
(106.62139 -0.0015490372 -0.00052776603)
(109.80688 -0.0019315976 -0.0007771114)
(111.53916 -0.0020664624 -0.00085590592)
(118.00881 -0.00071488613 0.00019826189)
(118.00796 -0.00099108964 -2.5589718e-05)
(111.54632 -0.0021620178 -0.0008717069)
(109.81782 -0.002022025 -0.00077259439)
(106.64193 -0.0016370344 -0.00050516014)
(97.937373 -0.0013144456 -0.00034065848)
(97.983623 -0.0014208599 -0.0002971133)
(106.66351 -0.0017578647 -0.00047989157)
(109.82965 -0.0021477732 -0.00076874952)
(111.55433 -0.002295475 -0.00089304299)
(118.00829 -0.001387746 -0.00033063852)
(118.01017 -0.0019124026 -0.00071533427)
(111.56351 -0.0024505011 -0.00087727513)
(109.84257 -0.0022870966 -0.00071577046)
(106.68644 -0.001889799 -0.00039723449)
(98.03175 -0.0015430962 -0.00019024107)
(98.082492 -0.0016690067 -0.00012680661)
(106.71104 -0.0020442706 -0.00035322823)
(109.85701 -0.0024621404 -0.00070331872)
(111.57417 -0.0026533679 -0.00090892559)
(118.01404 -0.0026299587 -0.0012417641)
(118.02042 -0.0035957741 -0.0019350819)
(111.58691 -0.0029236386 -0.00097652178)
(109.87342 -0.0026837125 -0.00071193984)
(106.73788 -0.0022274962 -0.00032245469)
(98.13606 -0.0018041701 -7.4078306e-05)
(98.193653 -0.0019414216 -5.9491445e-05)
(106.76779 -0.0024465463 -0.00033103507)
(109.8927 -0.0029728041 -0.00077224456)
(111.60248 -0.0032922218 -0.0011138934)
(118.02992 -0.0048837453 -0.0028442893)
(118.04326 -0.0065728952 -0.0040256999)
(111.62198 -0.0037893843 -0.0013579429)
(109.9159 -0.0033441146 -0.00091434176)
(106.80199 -0.0026984969 -0.00040938461)
(98.256152 -0.0020568945 -0.00012865018)
(98.325415 -0.0020933902 -0.00037987)
(106.84202 -0.0029485019 -0.00063621512)
(109.9446 -0.003792359 -0.0012104125)
(111.64678 -0.004426115 -0.0017801329)
(118.06122 -0.0087487067 -0.0055376184)
(118.0847 -0.011514085 -0.0074346583)
(111.67864 -0.005191076 -0.0024882868)
(109.98059 -0.0042783536 -0.0017745867)
(106.88991 -0.0031339479 -0.0011323443)
(98.403159 -0.001970498 -0.00093059961)
(98.492045 -0.0016778638 -0.0017930985)
(106.94808 -0.0032365747 -0.0019583424)
(110.02628 -0.0047891837 -0.0026852459)
(111.7197 -0.0060916688 -0.0035590728)
(118.11472 -0.014984463 -0.0097665343)
(118.15243 -0.019133962 -0.012597016)
(111.77251 -0.0071442842 -0.0049841763)
(110.08435 -0.0053411473 -0.0039137623)
(107.01947 -0.0032912216 -0.0030514922)
(98.594702 -0.0012900202 -0.002854644)
(98.714379 -0.00083951558 -0.0041414455)
(107.10722 -0.0033570452 -0.0044564789)
(110.15791 -0.005993487 -0.0055093922)
(111.83981 -0.0083992878 -0.0068272567)
(118.19911 -0.024011715 -0.016028304)
(118.25623 -0.029820627 -0.020106039)
(111.92477 -0.0098860832 -0.009072987)
(110.25031 -0.0067442122 -0.0074568114)
(107.21493 -0.0033882882 -0.0061711734)
(98.854429 -0.00023214321 -0.0057436037)
(99.019238 0.00054555944 -0.0077378353)
(107.34685 -0.0033953036 -0.0083031051)
(110.36561 -0.0076334278 -0.0098622563)
(112.03106 -0.011673597 -0.011829839)
(118.32557 -0.036784865 -0.024968375)
(118.40932 -0.045222798 -0.030790309)
(112.16307 -0.013867658 -0.015181539)
(110.50853 -0.0087281388 -0.012792717)
(107.50803 -0.0034180819 -0.010895171)
(99.213868 0.0014567965 -0.010133107)
(99.445066 0.0024263899 -0.012914394)
(107.7049 -0.0035389029 -0.013994813)
(110.68509 -0.010156616 -0.016336784)
(112.32629 -0.016647222 -0.019246381)
(118.51019 -0.055616492 -0.037839727)
(118.63171 -0.068642419 -0.046523868)
(112.52797 -0.0203085 -0.024149833)
(110.90317 -0.012144587 -0.020557448)
(107.94599 -0.0039321814 -0.017594162)
(99.721625 0.0032995303 -0.015978949)
(100.05608 0.003822535 -0.019084435)
(108.24322 -0.0049270283 -0.02157528)
(111.17384 -0.015068933 -0.025444881)
(112.77827 -0.025290056 -0.029994541)
(118.77881 -0.085124317 -0.057467527)
(118.95805 -0.10583483 -0.071605568)
(113.09057 -0.032156542 -0.036854536)
(111.51165 -0.019470888 -0.030877115)
(108.61243 -0.0070437938 -0.025624868)
(100.46529 0.0036557131 -0.021898762)
(100.96968 0.0015494588 -0.023303404)
(109.073 -0.011174602 -0.028957729)
(111.93444 -0.026299458 -0.036559758)
(113.48102 -0.0418773 -0.044804319)
(119.17619 -0.13131239 -0.090135313)
(119.44537 -0.16146856 -0.11353516)
(113.97549 -0.055874266 -0.054037647)
(112.47049 -0.036852299 -0.042268618)
(109.65567 -0.018453513 -0.030849434)
(101.59935 -0.0040819405 -0.022021937)
(102.40997 -0.012283304 -0.018392807)
(110.40878 -0.028925639 -0.032304443)
(113.16348 -0.050798078 -0.048553675)
(114.61475 -0.073976627 -0.065140374)
(119.79329 -0.19586632 -0.14105222)
(120.22646 -0.24722234 -0.18087817)
(115.41097 -0.09858279 -0.079957718)
(114.0262 -0.069027643 -0.056469249)
(111.3452 -0.043228319 -0.034715585)
(103.4356 -0.020851412 -0.01203771)
(104.61559 -0.026380435 -0.0028607717)
(112.47906 -0.068329795 -0.041064401)
(115.08893 -0.10619162 -0.072965306)
(116.38974 -0.15395648 -0.10766735)
(120.70887 -0.37715539 -0.25722166)
(121.68089 -0.61593089 -0.34359113)
(118.10547 -0.24173977 -0.15934267)
(116.94029 -0.15572903 -0.11834734)
(114.43183 -0.080556222 -0.06552022)
(106.32082 -0.018967594 -0.065767099)
(110.13915 -0.18453914 -0.43370766)
(118.10736 0.014820509 -0.076220322)
(120.3852 -0.15976366 -0.097236847)
(121.28518 -0.27423804 -0.13480169)
(123.403 -1.0650523 -0.52681549)
(124.13954 -2.9192861 -1.9157362)
(122.42396 -3.386795 -2.097607)
(121.63539 -3.4207361 -2.0873989)
(119.59931 -3.3723718 -2.0114404)
(112.25128 -3.416132 -2.0737767)
(111.83785 -3.7456405 -4.4528961)
(119.07666 -3.6722548 -4.4566308)
(121.10527 -3.8713426 -4.4484222)
(121.92184 -3.9394577 -4.3097592)
(123.9249 -3.9572791 -3.194685)
(123.83439 -5.3296403 -4.2609344)
(122.29572 -6.0348181 -5.0806056)
(121.57051 -6.0660194 -5.1519691)
(119.65731 -5.9483922 -5.1036702)
(112.53904 -5.8995206 -5.0771079)
(112.24879 -7.8169403 -5.892737)
(118.83124 -8.0247208 -5.834288)
(120.67574 -8.1306866 -5.8482878)
(121.40618 -8.0888638 -5.7803509)
(123.00436 -7.0809716 -4.829356)
(123.97307 -5.7836952 -3.2415592)
(121.7618 -6.3999495 -4.0345591)
(120.97165 -6.4227185 -4.148711)
(119.01396 -6.2586902 -4.2067922)
(112.00486 -6.4360337 -4.4201894)
(111.47123 -5.6423731 -2.2691839)
(118.63747 -5.7699705 -2.2450047)
(120.66877 -5.7934073 -2.2555225)
(121.5125 -5.6630979 -2.2222278)
(123.94314 -4.5689311 -2.0540194)
(124.02641 -2.7231321 -1.2591651)
(121.83914 -2.5701578 -1.0357313)
(120.98965 -2.5073995 -0.98996276)
(118.82337 -2.3559156 -0.92079892)
(111.13554 -2.8177153 -1.1371132)
(108.12341 -0.060483945 -0.13591655)
(116.37055 0.03871088 -0.068530792)
(118.84694 -0.098553732 -0.12969335)
(119.90112 -0.19024399 -0.18262256)
(123.14405 -1.0499824 -0.64242885)
(121.56825 -0.62825025 -0.37432533)
(117.02074 -0.21789687 -0.13893834)
(115.76557 -0.14101618 -0.094675413)
(113.13002 -0.082369685 -0.051884002)
(104.91214 -0.032039802 0.010493038)
(103.28595 -0.026072512 -0.0078577297)
(111.32487 -0.061563107 -0.03957876)
(114.03555 -0.099943781 -0.065406335)
(115.39875 -0.14882002 -0.09110346)
(120.66903 -0.40242205 -0.21392977)
(120.23213 -0.2697927 -0.1326078)
(114.42615 -0.10408701 -0.060356019)
(112.9854 -0.071778347 -0.045614375)
(110.20775 -0.042399526 -0.030286317)
(102.12749 -0.019350087 -0.014371567)
(101.11477 -0.014866536 -0.01211759)
(109.26928 -0.033063645 -0.021870658)
(112.11474 -0.056755163 -0.032661573)
(113.61888 -0.081681141 -0.043403229)
(119.83101 -0.21760911 -0.10341955)
(119.5009 -0.17923143 -0.086739933)
(112.96223 -0.063197034 -0.033905326)
(111.40745 -0.043681174 -0.025441388)
(108.50774 -0.025287584 -0.017379895)
(100.3069 -0.010811368 -0.010262503)
(99.673856 -0.0078881004 -0.0091662677)
(107.91347 -0.019179294 -0.014626066)
(110.85608 -0.033224117 -0.02083045)
(112.45051 -0.048325127 -0.027418928)
(119.24483 -0.14454832 -0.071376256)
(119.03569 -0.11640612 -0.057989247)
(112.04351 -0.037671965 -0.022512796)
(110.41768 -0.025779914 -0.01741335)
(107.43923 -0.014791876 -0.012659621)
(99.160864 -0.0059312741 -0.008481739)
(98.738971 -0.0046756451 -0.0074935279)
(107.05458 -0.011746176 -0.010631096)
(110.06372 -0.020510853 -0.014294215)
(111.71483 -0.029972289 -0.018300714)
(118.86224 -0.094000765 -0.047071991)
(118.71906 -0.076301812 -0.038149917)
(111.44873 -0.024282947 -0.01458943)
(109.77699 -0.016719655 -0.011391214)
(106.74116 -0.0096686948 -0.0085224756)
(98.389594 -0.003961026 -0.0061676842)
(98.097139 -0.0035640378 -0.0047863407)
(106.48396 -0.0082000151 -0.0065902799)
(109.54349 -0.01390665 -0.0088830955)
(111.23223 -0.019981932 -0.011466876)
(118.60027 -0.06231835 -0.030907122)
(118.50132 -0.051070365 -0.025025076)
(111.05559 -0.016587765 -0.008947154)
(109.35271 -0.011699405 -0.0068471457)
(106.27184 -0.0070707152 -0.0049820592)
(97.850185 -0.0032985315 -0.0035653088)
(97.640636 -0.0030736461 -0.0025839382)
(106.0967 -0.0061382174 -0.0037269817)
(109.19709 -0.0098838584 -0.0052514289)
(110.91174 -0.013802915 -0.0069572567)
(118.41894 -0.041836561 -0.020205636)
(118.35056 -0.034126948 -0.016203887)
(110.79536 -0.011462224 -0.0053985685)
(109.07085 -0.0083436864 -0.0040269868)
(105.95251 -0.0053271779 -0.0027850796)
(97.462261 -0.0028474897 -0.001858282)
(97.310171 -0.0026221264 -0.0013373719)
(105.83424 -0.0046243538 -0.0020682977)
(108.96926 -0.0070423787 -0.0030641584)
(110.70202 -0.0094962919 -0.0041521238)
(118.29411 -0.027629759 -0.012843136)
(118.24788 -0.022132824 -0.010035091)
(110.62802 -0.0078542056 -0.0031489056)
(108.88831 -0.0059495031 -0.0022934418)
(105.73778 -0.0040171067 -0.0015097177)
(97.18019 -0.0023934637 -0.00096964692)
(97.06873 -0.0022604885 -0.00053402328)
(105.65922 -0.0035761829 -0.0009380829)
(108.82434 -0.0051147074 -0.0015641927)
(110.56996 -0.0065699533 -0.0022402352)
(118.21043 -0.017526764 -0.0076915027)
(118.18053 -0.013712328 -0.0057637336)
(110.52491 -0.005563637 -0.0015079871)
(108.77414 -0.004464674 -0.00097692067)
(105.59536 -0.0032369569 -0.00047011634)
(96.972468 -0.0021745902 -0.00015575942)
(96.888605 -0.0020974181 0.00014301027)
(105.54301 -0.0029620897 -0.00010328708)
(108.73481 -0.0039544498 -0.00051427839)
(110.49013 -0.0047776989 -0.00092744458)
(118.1571 -0.010580654 -0.0041648642)
(118.13914 -0.0080466166 -0.0028893266)
(110.46332 -0.0041832913 -0.00049071599)
(108.70375 -0.0035688831 -0.00015632506)
(105.49965 -0.0027509136 0.00018190957)
(96.814439 -0.0020255827 0.00036101094)
(96.747855 -0.0019676627 0.00054353292)
(105.46277 -0.0025850751 0.0003862227)
(108.67876 -0.0032725346 7.4688475e-05)
(110.4423 -0.0037350422 -0.00020381504)
(118.12581 -0.006032074 -0.0019071946)
(118.11629 -0.0044595846 -0.0011700933)
(110.42554 -0.0033894126 -6.2147515e-05)
(108.65804 -0.0030300367 0.00016964575)
(105.43068 -0.0024298113 0.00046236952)
(96.686832 -0.0018965039 0.00062648676)
(96.630093 -0.0018278008 0.00065968894)
(105.40174 -0.0023010163 0.00049458931)
(108.64024 -0.002848743 0.00021897477)
(110.41164 -0.0031383197 2.0300148e-05)
(118.1099 -0.0032490095 -0.00061723407)
(118.10601 -0.0023280566 -0.0002127872)
(110.39982 -0.0029411694 5.2449789e-05)
(108.62444 -0.0026976276 0.00022697998)
(105.37517 -0.0021847162 0.00048813232)
(96.576435 -0.0017494893 0.00064490749)
(96.525373 -0.0016923541 0.00064953009)
(105.35013 -0.0021008529 0.00049462195)
(108.61002 -0.0025876756 0.00024102169)
(110.38936 -0.0027981605 8.2198839e-05)
(118.10413 -0.0016304438 8.5134726e-05)
(118.10381 -0.0011114981 0.00029819385)
(110.38 -0.0026676772 6.6269319e-05)
(108.59663 -0.0024764232 0.00020838322)
(105.32645 -0.002008947 0.00045055065)
(96.476265 -0.0016164155 0.00060189158)
(96.429101 -0.0015549058 0.00056810627)
(105.30365 -0.0019335045 0.00041872467)
(108.584 -0.0023850238 0.0001841611)
(110.37136 -0.0025608232 5.2198479e-05)
(118.10468 -0.00073351099 0.00043593749)
(118.10646 -0.00045545268 0.00054112397)
(110.36344 -0.0024684059 5.1965783e-05)
(108.57205 -0.0023048355 0.00017622461)
(105.28189 -0.0018668763 0.00040245989)
(96.383479 -0.0015004957 0.00054659799)
(96.339618 -0.0014529417 0.00053951069)
(105.26081 -0.0018078255 0.00040060703)
(108.56065 -0.0022323983 0.00018160571)
(110.35595 -0.0023863537 6.3505479e-05)
(118.10891 -0.00026051419 0.00062170607)
(118.11184 -0.0001287347 0.00068312271)
(110.34902 -0.0023111223 8.3331366e-05)
(108.5498 -0.0021644614 0.00019653254)
(105.24068 -0.0017534987 0.00041020992)
(96.297201 -0.0014108425 0.00054728133)
(96.25648 -0.0013740687 0.00059101737)
(105.22113 -0.0017026955 0.00045617422)
(108.53935 -0.0020964648 0.00024752712)
(110.34234 -0.0022352237 0.00013716459)
(118.1151 -4.3475495e-05 0.00073787167)
(118.11854 -3.5790217e-05 0.00074796236)
(110.33628 -0.002122742 0.00013984807)
(108.52955 -0.0019685438 0.00024910296)
(105.20264 -0.001567567 0.00045529101)
(96.21717 -0.0012494672 0.00058624169)
(96.17828 -0.0012964686 0.00061162729)
(105.18315 -0.0016648006 0.00046858553)
(108.51864 -0.0020168574 0.00028116319)
(110.32906 -0.0021260692 0.00018829146)
(118.12178 -8.2946989e-05 0.00076229057)
(118.11684 -0.00052262896 0.00050988619)
(110.3347 0.00042382703 -0.0017118334)
(108.528 0.00038022922 -0.0016053151)
(105.20139 0.00021916427 -0.0012571874)
(96.217012 8.181378e-05 -0.00099443205)
(96.256307 -3.9507948e-05 -0.001174718)
(105.22019 0.00012877479 -0.0014752006)
(108.53814 0.00032529941 -0.0018626254)
(110.34104 0.00039193802 -0.0019973455)
(118.11332 -0.00053404771 0.0002923082)
(118.10991 -0.00056998932 0.00018828388)
(110.34734 0.00031253069 -0.0020983048)
(108.54816 0.00024025913 -0.0019619548)
(105.23929 3.8829181e-05 -0.0015649961)
(96.296635 -0.00012920709 -0.0012545327)
(96.338985 -0.00023412071 -0.0013281094)
(105.25934 -6.1553458e-05 -0.0016540488)
(108.55891 0.00015180786 -0.0020656488)
(110.35415 0.00023553347 -0.0022115333)
(118.10681 -0.00057664632 1.5450003e-05)
(118.10417 -0.00056288139 -0.00021348126)
(110.36145 0.00014464668 -0.0023290836)
(108.57011 4.9104536e-05 -0.0021749706)
(105.28022 -0.00017434233 -0.0017520471)
(96.382693 -0.00035041784 -0.0014114289)
(96.428329 -0.00047250834 -0.0015039566)
(105.30194 -0.00029268496 -0.0018596593)
(108.58198 -5.8302395e-05 -0.00229569)
(110.36926 5.0758538e-05 -0.0024616118)
(118.10217 -0.00051373366 -0.00052158077)
(118.10106 -0.00041848968 -0.00092829701)
(110.37774 -3.7967434e-05 -0.002607103)
(108.59444 -0.0001626755 -0.0024272075)
(105.3246 -0.00040902207 -0.0019773386)
(96.475449 -0.00059213829 -0.0016040135)
(96.524648 -0.00070490806 -0.0017043629)
(105.34826 -0.00052269777 -0.0020970291)
(108.60774 -0.00026457776 -0.0025655362)
(110.38696 -0.00012077336 -0.0027650647)
(118.10111 -0.00025538597 -0.0014604006)
(118.10268 -6.2760326e-07 -0.002163884)
(110.39724 -0.00016362357 -0.0029456264)
(108.62199 -0.00032818467 -0.0027146935)
(105.37318 -0.00059560975 -0.0022195068)
(96.575711 -0.00077486322 -0.0017940532)
(96.629497 -0.0008794231 -0.0019037507)
(105.39972 -0.00069527317 -0.0023669046)
(108.63769 -0.0004099658 -0.0028971517)
(110.4089 -0.00021457655 -0.0031714231)
(118.1062 0.00035460813 -0.0030868351)
(118.11217 0.00086431111 -0.0042804582)
(110.42261 -0.00017122986 -0.003432731)
(108.65532 -0.00040039885 -0.003090371)
(105.42857 -0.00069915702 -0.0025063976)
(96.686324 -0.00087572678 -0.0019886507)
(96.747579 -0.00078301593 -0.0020539011)
(105.46068 -0.00061093407 -0.0026503276)
(108.67596 -0.00029714178 -0.0033207678)
(110.43922 -2.8931123e-05 -0.0037639454)
(118.1212 0.0015560342 -0.005808173)
(118.13397 0.0024657332 -0.0077397584)
(110.46006 0.00022694999 -0.0041849822)
(108.70084 -9.0651678e-05 -0.0035964838)
(105.49757 -0.00043291141 -0.0028049281)
(96.814406 -0.00063290388 -0.0021137468)
(96.888931 -0.00041993763 -0.0021780558)
(105.54106 -0.00017187252 -0.0029979004)
(108.73188 0.00023136817 -0.0039514817)
(110.48676 0.00061940041 -0.0047356186)
(118.15125 0.0036379607 -0.01014808)
(118.17391 0.0051063675 -0.013108662)
(110.52135 0.001163931 -0.0054435461)
(108.77112 0.00067878533 -0.0044012244)
(105.59344 0.0001984322 -0.003229353)
(96.973031 -0.00010673265 -0.0022361885)
(97.069423 0.00019512301 -0.0023480618)
(105.65725 0.00061613999 -0.0035458218)
(108.82114 0.0012140765 -0.0050002168)
(110.56611 0.0018248302 -0.0063729578)
(118.20287 0.0068939921 -0.016723892)
(118.23921 0.0090991885 -0.021089995)
(110.62364 0.0026485893 -0.0075594172)
(108.88466 0.0018722318 -0.00576765)
(105.73543 0.001108632 -0.0039627423)
(97.180655 0.00051122412 -0.0024989315)
(97.310002 0.00083228655 -0.0027233377)
(105.83115 0.0016260524 -0.0045207254)
(108.96483 0.0025957148 -0.0067684032)
(110.69677 0.0035830576 -0.009072401)
(118.28413 0.011731581 -0.026319069)
(118.33905 0.014861466 -0.032539976)
(110.78864 0.0047112084 -0.010915966)
(109.06494 0.0034645116 -0.0079893307)
(105.94793 0.0022542275 -0.005195206)
(97.460692 0.0012457631 -0.0029731133)
(97.636811 0.0018096837 -0.0032358213)
(106.08972 0.0030604957 -0.0059803304)
(109.18884 0.0045511522 -0.0094419706)
(110.90275 0.00610516 -0.013121087)
(118.40561 0.018586268 -0.039953189)
(118.4859 0.023039907 -0.048865569)
(111.04334 0.0078208376 -0.015785163)
(109.34103 0.0058986089 -0.011190995)
(106.26131 0.0040763287 -0.0069141936)
(97.843068 0.0025413073 -0.0035229686)
(98.085808 0.0035622693 -0.0038143273)
(106.46879 0.0054310667 -0.0080228151)
(109.5273 0.0076474126 -0.013310917)
(111.21575 0.010010614 -0.01903341)
(118.58246 0.028441315 -0.059729717)
(118.69855 0.03507684 -0.073224207)
(111.42702 0.0128255 -0.023122018)
(109.7552 0.0099205859 -0.015972901)
(106.72027 0.0072234872 -0.0094006085)
(98.373154 0.0049500106 -0.0041331804)
(98.716633 0.0065901621 -0.0046007775)
(107.02704 0.0093864269 -0.011261277)
(110.03539 0.012711717 -0.019507361)
(111.68702 0.016313161 -0.02849593)
(118.83856 0.043281782 -0.090312198)
(119.00842 0.053585859 -0.1120783)
(112.0091 0.020596056 -0.035721218)
(110.38228 0.016068387 -0.024345454)
(107.40453 0.011910166 -0.013886129)
(99.132042 0.0084755607 -0.0053547293)
(99.638507 0.010843523 -0.0063877376)
(107.87167 0.015020781 -0.017533508)
(110.81368 0.020279445 -0.031017889)
(112.40957 0.026045469 -0.045564122)
(119.2138 0.066294166 -0.13948159)
(119.46487 0.080817132 -0.17341679)
(112.91373 0.034076698 -0.059108697)
(111.35698 0.026653219 -0.04015857)
(108.45749 0.020012531 -0.022351963)
(100.26322 0.014727714 -0.0076549153)
(101.05834 0.02038513 -0.009458139)
(109.20959 0.029134952 -0.027931174)
(112.05607 0.038054744 -0.051195278)
(113.56278 0.047081879 -0.075819428)
(119.7877 0.096705773 -0.21168759)
(120.19047 0.12269075 -0.26051936)
(114.37354 0.070638013 -0.094155798)
(112.92925 0.058824562 -0.062084024)
(110.14826 0.045403833 -0.033398484)
(102.06498 0.026648432 -0.011340358)
(103.22586 0.030194026 -0.011488387)
(111.25647 0.076478643 -0.041413907)
(113.97639 0.10148131 -0.077416342)
(115.34679 0.12170361 -0.1257919)
(120.62993 0.20312085 -0.3816756)
(121.46555 0.37178783 -0.61824558)
(116.88366 0.21597901 -0.19832255)
(115.60975 0.17933233 -0.11537608)
(112.93473 0.13191647 -0.054033635)
(104.73604 0.038659223 -0.016157468)
(107.71848 0.11749321 -0.098775747)
(116.19332 0.16359156 0.034913398)
(118.70581 0.22391023 -0.11454371)
(119.77477 0.27593784 -0.21351221)
(123.08908 0.57862642 -1.011154)
(124.39595 1.1774254 -2.5427792)
(122.56813 0.3635294 -2.5040759)
(121.78496 0.24409993 -2.4778007)
(119.70125 0.090979427 -2.3436392)
(112.07408 0.48504594 -3.0498626)
(110.19476 4.0360827 -7.1527132)
(117.15462 4.2207018 -7.7272415)
(119.25515 4.1362577 -7.703237)
(120.19831 3.9862665 -7.5384125)
(123.33775 2.8375457 -5.7161171)
(123.08875 3.1009871 -5.6097988)
(120.06391 3.2698352 -5.5505913)
(119.13356 3.2622681 -5.5038096)
(116.95189 3.171704 -5.2656183)
(109.51394 3.2435309 -5.4589189)
(112.13725 3.6147865 -8.2517273)
(119.03568 3.7354573 -8.3080849)
(120.92603 3.9834278 -8.3855704)
(121.6751 4.1270796 -8.3301397)
(123.29627 4.1470141 -7.0787907)
(122.6862 1.443551 -6.7315306)
(119.62195 2.2553043 -7.6665315)
(118.59894 2.3969481 -7.7682133)
(116.39683 2.5151036 -7.6784897)
(109.19032 2.6174794 -7.4342608)
(111.41059 0.54817177 -8.4272075)
(118.1015 0.73417336 -8.8020079)
(120.06014 0.78931134 -8.6863455)
(120.91266 0.80281377 -8.4084142)
(123.37348 0.81557725 -6.4126787)
(124.46074 0.3624837 -2.7071791)
(123.14967 0.52056751 -2.7929836)
(122.4562 0.53943376 -2.7763053)
(120.52578 0.53845301 -2.6574579)
(113.17088 0.6620569 -3.3831887)
(109.06222 0.19473999 -0.2299078)
(117.22398 0.14390397 -0.021332945)
(119.57048 0.13990794 -0.15721771)
(120.5405 0.13095766 -0.24255686)
(123.10507 0.12772072 -0.93012472)
(121.37775 0.056527928 -0.56560266)
(117.55047 -0.0091556491 -0.23594619)
(116.34692 -0.018387841 -0.1597623)
(113.80314 -0.024496975 -0.088320239)
(105.8514 -0.023973798 -0.050722331)
(104.23656 -0.069837381 -0.034046642)
(112.04292 -0.062800886 -0.073573414)
(114.65898 -0.05298269 -0.11125284)
(115.97782 -0.040824296 -0.15672331)
(120.49577 0.027813667 -0.35916469)
(120.06144 0.019516073 -0.24923664)
(115.0312 -0.044096788 -0.11631549)
(113.62797 -0.056022746 -0.086196763)
(110.93469 -0.067623307 -0.058814689)
(103.04058 -0.076705326 -0.035201218)
(102.02776 -0.071199748 -0.030863896)
(110.01896 -0.06177055 -0.04736028)
(112.79097 -0.050475139 -0.069931414)
(114.26263 -0.039512725 -0.093264375)
(119.66635 0.018450473 -0.20431168)
(119.34831 0.016080821 -0.16952246)
(113.65804 -0.035228502 -0.074399363)
(112.13379 -0.044907297 -0.056024997)
(109.30116 -0.055079948 -0.038302763)
(101.24641 -0.063869734 -0.025440677)
(100.64498 -0.056230217 -0.02104035)
(108.75181 -0.048408516 -0.031212855)
(111.63054 -0.039580242 -0.044934516)
(113.19424 -0.031303882 -0.059329794)
(119.09928 0.012997016 -0.1384923)
(118.89448 0.010178615 -0.11268981)
(112.82869 -0.027276368 -0.047875255)
(111.23495 -0.034257241 -0.036455567)
(108.31945 -0.041741535 -0.025618775)
(100.16576 -0.048673204 -0.017487534)
(99.778401 -0.041853021 -0.014631167)
(107.97385 -0.035935222 -0.02117169)
(110.91957 -0.029618989 -0.029850623)
(112.5367 -0.023730436 -0.03901172)
(118.72488 0.0078550148 -0.091956649)
(118.58471 0.0061444746 -0.075382797)
(112.30226 -0.020543255 -0.032037134)
(110.66658 -0.025505101 -0.024657021)
(107.69542 -0.030820768 -0.017656375)
(99.46159 -0.035783469 -0.012353018)
(99.198483 -0.030411228 -0.010431522)
(107.46861 -0.026257065 -0.014752265)
(110.46186 -0.021786728 -0.020441886)
(112.11253 -0.017615589 -0.026418383)
(118.46825 0.004891883 -0.06201729)
(118.37122 0.003907831 -0.051111952)
(111.9582 -0.014987399 -0.021907822)
(110.29526 -0.01848104 -0.017067124)
(107.28239 -0.022246987 -0.012434808)
(98.977341 -0.025756501 -0.0088857544)
(98.790025 -0.021711636 -0.0076029331)
(107.12898 -0.018718251 -0.010507115)
(110.15963 -0.015547387 -0.014266864)
(111.83274 -0.012644077 -0.018171312)
(118.29049 0.0030803802 -0.042048601)
(118.22351 0.002376334 -0.034399853)
(111.73114 -0.010519427 -0.014979925)
(110.04955 -0.012899142 -0.011852499)
(107.0026 -0.015556268 -0.008817849)
(98.630324 -0.018130682 -0.0064683457)
(98.493603 -0.014958426 -0.0054983822)
(106.89859 -0.0127301 -0.0073879707)
(109.9607 -0.010518866 -0.0098171631)
(111.64942 -0.0086023175 -0.012293345)
(118.16823 0.0017779072 -0.02792192)
(118.12299 0.0012759017 -0.02241504)
(111.58435 -0.0068538652 -0.01000645)
(109.88956 -0.0083588638 -0.0080689773)
(106.81331 -0.010180216 -0.0061412484)
(98.37603 -0.012122187 -0.0046418525)
(98.274465 -0.0096046682 -0.0039358594)
(106.74338 -0.0079080016 -0.005125493)
(109.83299 -0.0064288192 -0.006646831)
(111.53299 -0.0052849057 -0.0081410679)
(118.0864 0.00085782125 -0.017786401)
(118.05728 0.00052374966 -0.013918587)
(111.49291 -0.0039059724 -0.006624938)
(109.78831 -0.0047410607 -0.0054859161)
(106.68611 -0.0059137397 -0.0042839879)
(98.186057 -0.0073757006 -0.0033436063)
(98.108316 -0.0054364693 -0.0028068793)
(106.63868 -0.00420944 -0.0035460321)
(109.75295 -0.0033098659 -0.0045111906)
(111.4617 -0.002733 -0.0053758415)
(118.03453 0.00026195004 -0.010713525)
(118.01718 5.8855827e-05 -0.0081326538)
(111.43744 -0.0018240806 -0.0044369776)
(109.72476 -0.0022001392 -0.0037800803)
(106.59897 -0.0028553367 -0.0029815301)
(98.038905 -0.0038255585 -0.0023782918)
(97.976085 -0.0025622804 -0.0020520307)
(106.5649 -0.001892537 -0.0025692616)
(109.7019 -0.0014426989 -0.0032576053)
(111.41834 -0.0012069732 -0.0037618689)
(118.00437 -9.5816354e-05 -0.0060962996)
(117.99533 -0.00021085636 -0.0045220374)
(111.40313 -0.00085394053 -0.0032966719)
(109.68293 -0.00100755 -0.0029003837)
(106.53512 -0.0013120502 -0.0022844995)
(97.918179 -0.0017516167 -0.0018206754)
(97.864121 -0.0012773822 -0.0016474024)
(106.5082 -0.0010076296 -0.0020729514)
(109.66665 -0.00079341173 -0.0026427708)
(111.39061 -0.00068214291 -0.0029642604)
(117.98935 -0.00029208971 -0.0033175369)
(117.98586 -0.0003526196 -0.0024257164)
(111.38013 -0.00063814135 -0.0027791277)
(109.65233 -0.00073728862 -0.0025136416)
(106.48355 -0.0009131633 -0.0019795709)
(97.812914 -0.0011037453 -0.0015720853)
(97.764184 -0.0010631009 -0.0015124067)
(106.4604 -0.00089788234 -0.0018974797)
(109.63941 -0.00073199864 -0.0024041268)
(111.37104 -0.00063383359 -0.0026315918)
(117.98432 -0.00039387033 -0.0017568241)
(117.9843 -0.00041521434 -0.0012551615)
(111.36312 -0.0006287581 -0.0025128236)
(109.6276 -0.00072858098 -0.0023134508)
(106.43866 -0.00089454912 -0.0018290078)
(97.717405 -0.0010504782 -0.0014631248)
(97.672567 -0.0010378826 -0.0014135085)
(106.41787 -0.00088401431 -0.001762441)
(109.61661 -0.00071612605 -0.0022285389)
(111.35598 -0.00061502643 -0.0024069361)
(117.98544 -0.00042303933 -0.00086921591)
(117.98747 -0.00041660098 -0.00058149095)
(111.3496 -0.00058885265 -0.0023123761)
(109.60636 -0.00068993278 -0.0021499838)
(106.39814 -0.00085903254 -0.0017004231)
(97.629298 -0.0010143876 -0.0013665979)
(97.587791 -0.00097318444 -0.0013176903)
(106.37915 -0.00081818583 -0.0016370341)
(109.59668 -0.00065036273 -0.0020712139)
(111.3437 -0.00055100037 -0.0022212148)
(117.99015 -0.00040003073 -0.00036758351)
(117.99328 -0.00037471087 -0.00021308585)
(111.33832 -0.00049945983 -0.0021230375)
(109.58755 -0.00059490071 -0.0019840673)
(106.36108 -0.00075817371 -0.0015666621)
(97.547712 -0.00091046648 -0.0012633088)
(97.509441 -0.00083561902 -0.0012001707)
(106.34376 -0.00068834994 -0.0014936901)
(109.57899 -0.0005303352 -0.001902597)
(111.33338 -0.00043902566 -0.0020407526)
(117.99671 -0.00033950111 -0.00013064022)
(118.00026 -0.00033314129 4.8839456e-05)
(111.3284 -0.00038261149 -0.0018084186)
(109.57041 -0.00045734422 -0.0017062207)
(106.32686 -0.00059724615 -0.0013457329)
(97.472343 -0.00073531339 -0.0010964994)
(97.695956 0.00087139459 -0.00049104082)
(106.53088 0.0011441959 -0.00054402023)
(109.7601 0.0014464631 -0.00070279421)
(111.51051 0.0015075424 -0.00072774764)
(118.02081 -0.00027476551 0.00061387444)
(118.01726 -0.00017864315 0.00040704981)
(111.51521 0.0015560003 -0.00094803521)
(109.76828 0.001453405 -0.00090102088)
(106.54732 0.0010987826 -0.00071186239)
(97.732004 0.00079478628 -0.00064010936)
(97.769777 0.0007413541 -0.00078756609)
(106.56411 0.0010555194 -0.00085355574)
(109.77655 0.0014205703 -0.0010415792)
(111.51988 0.0015247917 -0.0010842397)
(118.01389 -0.00018854154 0.00029026979)
(118.01081 -0.00014308673 0.00013057644)
(111.52512 0.0015060563 -0.0012477216)
(109.78543 0.0013914274 -0.0012038728)
(106.58187 0.0010097998 -0.0010148818)
(97.809013 0.00067578023 -0.00094803847)
(97.850097 0.00061831064 -0.001092974)
(106.60042 0.0009696214 -0.0011594075)
(109.79489 0.0013663684 -0.0013484996)
(111.5308 0.0014905562 -0.0013932349)
(118.00817 -5.1871106e-05 -5.4286709e-05)
(118.00618 0.00010364032 -0.00027461245)
(111.53709 0.0014783451 -0.0015380668)
(109.80494 0.001340762 -0.0014911308)
(106.61989 0.000928681 -0.0013019013)
(97.8926 0.00055990103 -0.0012342145)
(97.937028 0.00050493122 -0.0013717761)
(106.64028 0.000891818 -0.0014451155)
(109.81575 0.0013207157 -0.0016353266)
(111.54405 0.0014750447 -0.0016860281)
(118.00507 0.00034499423 -0.000544878)
(118.00512 0.00068889238 -0.00087564393)
(111.55193 0.001468942 -0.0018319336)
(109.82742 0.0012893393 -0.0017752283)
(106.66181 0.00084179728 -0.0015796491)
(97.983104 0.00044601436 -0.0015015789)
(98.031405 0.00040903163 -0.0016790996)
(106.68459 0.00083854391 -0.0017730311)