/*--------------------------------*- C++ -*----------------------------------*\
  =========                 |
  \\      /  F ield         | OpenFOAM: The Open Source CFD Toolbox
   \\    /   O peration     | Website:  https://openfoam.org
    \\  /    A nd           | Version:  7
     \\/     M anipulation  |
\*---------------------------------------------------------------------------*/
FoamFile
{
    version     2.0;
    format      ascii;
    class       volScalarField;
    location    "350";
    object      k;
}
// * * * * * * * * * * * * * * * * * * * * * * * * * * * * * * * * * * * * * //

dimensions      [0 2 -2 0 0 0 0];

internalField   nonuniform List<scalar> 
25278
(
1046.9921
987.64404
989.98185
989.9803
935.13587
987.64233
1045.4737
1046.9897
1045.4788
1029.6734
1032.2363
1034.5249
1007.8543
978.24211
901.27654
989.68915
987.5393
928.48807
917.3664
953.07012
967.57198
971.53315
974.78506
1004.379
996.83315
1004.3779
974.78545
968.21886
960.04211
974.84358
971.4435
956.57802
946.63119
953.1948
967.40352
963.29412
971.12087
969.17217
961.36392
955.75624
958.65657
966.55434
963.93758
971.39512
976.27611
985.72629
1001.4173
997.53857
982.64531
968.22717
965.98047
950.88914
936.47285
940.78683
959.22492
967.20801
965.17012
957.13987
949.74453
952.78134
961.10028
958.33461
956.03798
963.68262
955.55546
954.65945
962.74945
954.72944
945.98918
947.37682
936.68531
940.52463
945.04362
949.39486
953.46103
959.35915
967.42345
974.85476
971.53716
946.01737
919.24633
901.3501
928.54773
917.64966
941.51356
914.78265
887.64102
856.8626
872.30013
886.9039
901.12531
886.42696
872.13591
842.14567
858.55276
886.58503
902.12177
915.0163
929.82064
916.6325
901.95389
875.83851
893.35171
916.7968
903.23381
888.27423
871.74408
819.96477
801.99472
761.12558
843.52729
858.00676
778.22417
797.01755
838.99737
858.51447
816.64289
890.73662
875.90797
875.89127
917.61506
941.46514
935.04171
871.92666
841.97386
801.92223
761.01634
843.50339
887.6064
914.73742
919.11714
945.87327
928.42262
901.22824
872.22676
856.84245
871.74557
857.98955
778.09728
819.95267
839.05091
796.87623
816.46412
890.72288
903.27098
888.29964
902.09618
886.54479
858.45466
886.28511
901.03905
886.75986
901.00485
914.90403
928.26389
929.7253
916.79771
893.42585
858.62903
772.55363
624.08853
624.44934
772.2777
857.25383
902.62623
887.71567
874.70396
889.45198
811.76332
792.45546
837.76364
749.58362
600.065
611.76144
374.54261
359.73293
611.48541
611.22004
364.29514
379.24812
612.0193
599.48729
749.6014
837.3669
875.82711
901.85882
916.60501
902.53779
857.04939
809.33548
789.96005
873.97931
917.10105
887.50841
888.87456
908.46448
831.23588
628.05864
403.63788
399.02513
626.6418
833.5302
908.79308
920.13747
932.80557
944.25632
953.21661
960.05827
956.62697
971.47846
963.34545
946.72939
958.72255
966.60976
971.16171
969.24646
961.45562
955.87805
964.0403
971.48092
973.74321
982.00636
988.80956
1001.4184
1004.0111
996.21356
992.20323
1000.4261
985.7486
978.04822
985.37795
981.01098
978.57355
983.42908
976.33689
974.42704
982.68975
997.54876
967.5939
953.16545
968.29572
959.3529
941.01979
952.97859
961.26934
967.31559
965.31748
957.3171
950.03052
958.58063
956.3446
963.85692
966.07481
951.02028
936.83283
955.75933
947.73242
946.38555
954.87987
962.93849
955.06477
962.78871
964.05116
966.2356
968.84368
975.99004
981.52585
979.53244
972.51898
971.065
980.60081
995.00014
997.27563
988.3991
990.3832
997.47487
999.62115
994.93547
987.84934
985.41067
992.17111
989.33307
995.43138
993.3187
986.41812
980.03537
982.71261
978.61661
980.06441
981.22831
983.15053
988.2407
996.2036
1004.0063
988.80141
981.99144
978.01345
985.3484
983.37895
978.50332
980.97063
973.69674
969.07483
973.97993
976.49227
974.41303
970.9937
966.96808
958.05987
961.81152
955.28443
946.80525
940.69966
950.27203
939.97509
948.81143
955.33596
961.8696
953.53254
932.94283
946.86384
940.89481
949.55251
958.19646
950.43421
940.12735
930.1235
939.70729
911.79675
929.93676
914.97675
926.36292
942.38477
947.53482
952.76394
956.94992
960.98205
964.25348
968.33041
966.82118
969.79728
965.73626
962.64051
958.94284
963.11751
965.18579
963.1559
970.22805
968.60932
971.81295
975.26894
977.95823
976.73126
973.29369
970.42097
973.75116
970.03749
972.09343
968.06236
964.68289
961.17212
958.62276
954.20651
948.97716
953.30624
957.08224
956.83458
963.19794
969.12279
976.53316
970.26125
968.69064
971.89372
974.489
971.07751
967.06205
964.35785
968.42187
966.95797
969.91607
965.86511
962.79635
959.11438
961.09066
965.27847
961.26585
957.06101
954.39665
958.78497
963.26774
966.85631
970.53996
973.39809
976.82566
978.02778
975.34236
973.85903
970.15132
972.16224
968.13168
964.75827
962.38906
965.6557
968.7779
971.29658
977.07
983.38873
990.11114
987.84574
984.63044
981.82002
978.54848
977.08362
980.22448
983.33282
986.54317
989.83059
991.27491
988.29926
985.0047
983.39553
986.55142
982.56814
984.87304
981.5886
978.55744
975.29186
973.31346
976.39977
971.79756
974.4087
977.4559
980.58755
977.8305
974.81204
979.47813
977.03362
981.47036
985.00906
981.86565
978.35981
975.25968
972.07912
975.43311
972.00504
968.52126
964.36864
954.37481
945.33249
920.68703
934.25165
944.21365
937.45489
950.38543
940.98776
926.72039
906.31294
919.04492
879.28376
897.03059
908.66147
929.45954
917.45013
887.19437
873.6779
847.03053
893.55726
920.20854
937.3099
909.91658
935.13925
944.80562
946.88482
931.20513
927.18108
915.80825
883.88473
838.61794
815.69781
830.64726
860.94024
905.13569
895.66412
917.67389
921.10539
925.57741
930.33216
935.44735
940.25967
945.02092
949.17114
952.86019
957.16602
951.86445
947.60112
942.60353
947.21979
953.46598
957.10052
960.68514
964.20937
960.61814
963.98996
960.22587
965.53727
962.25396
966.72462
964.38211
968.61184
971.86256
975.87404
981.4528
974.33857
972.39527
979.43652
973.21406
966.02958
968.70109
964.19586
954.12074
949.9745
936.74312
943.83188
933.82216
925.91176
918.99942
930.12262
946.33251
944.19295
934.44486
914.37357
925.9079
892.44932
902.7705
916.20016
928.93344
918.45829
878.05089
904.95213
871.48044
896.44062
908.09272
885.12818
855.51955
841.70094
891.07215
880.59053
805.93934
820.43314
863.92251
893.90766
915.52422
930.04245
941.36835
949.27028
955.3085
962.50996
970.02333
980.53852
994.96455
997.25009
1000.4122
992.17822
999.60158
997.44224
990.34085
985.35317
987.81505
994.90811
992.12337
989.25999
995.38519
988.34035
986.34204
993.26292
986.4593
979.90724
982.61622
978.5046
979.98063
981.16612
983.11534
990.08342
987.79466
984.57479
983.25692
980.1375
981.76162
978.48374
976.98409
973.21354
975.23272
977.04412
983.36897
981.54136
984.95604
988.25214
991.22802
989.76638
986.47241
983.31781
986.4821
982.4973
984.83143
980.54844
977.41501
974.35675
978.50551
976.30843
971.70394
968.66932
971.23781
967.07148
970.60589
976.90075
973.16434
970.17421
966.30813
963.32329
957.08026
961.91802
958.70279
955.53734
951.80845
947.06226
942.41955
935.39515
939.91329
946.80265
940.02366
935.52031
926.66354
931.63204
935.39817
943.63424
950.75735
956.9692
952.74472
959.13276
955.45893
960.73237
964.98209
968.36635
966.62723
962.43091
958.55611
960.7584
956.50962
953.70889
958.0596
962.92212
966.57379
970.17651
973.57985
975.30932
971.93028
969.8876
967.7445
971.95803
968.53915
964.99353
960.738
958.97292
963.23446
958.60623
960.74883
956.39853
954.12238
947.93666
950.87715
955.22021
952.40026
944.32412
948.13136
951.91004
947.20648
951.01007
944.69279
949.04078
944.29327
939.72715
930.0163
936.76683
941.38734
935.05943
938.89441
948.06635
955.62198
961.73848
965.04183
967.68241
962.41254
958.92514
955.25587
962.26869
958.93807
964.42809
962.31545
966.82771
970.21526
965.64519
959.52345
956.16971
948.18767
951.9119
943.07928
939.20771
934.65461
943.45757
939.38271
935.77963
945.31737
952.17987
957.49582
963.79372
970.92122
977.96586
977.02448
969.71598
970.99271
977.66247
984.82493
991.72921
990.75554
983.90874
976.37994
982.86122
984.16422
978.27057
979.70943
981.44702
983.13913
984.91767
981.7662
979.98153
976.78923
973.06266
975.12565
978.23968
976.14555
979.23377
981.36174
984.47302
988.18463
986.32553
982.30371
980.08682
984.62279
982.8264
977.95715
974.93715
977.04709
973.98278
978.33237
975.14035
973.4286
976.5738
971.88552
968.82182
970.91723
965.39439
968.16324
970.81714
973.87488
971.19431
965.01337
968.51067
965.50553
962.01469
958.37731
961.38437
968.42166
965.71076
962.67295
954.77756
951.60164
948.17424
957.00058
963.73351
968.80092
965.39599
961.79892
960.481
956.17412
950.4366
955.00392
956.64275
960.38337
958.77143
964.11807
967.50636
962.14141
961.00797
966.68039
963.27963
959.6402
959.15608
954.82468
948.62639
953.22234
953.82444
957.61873
957.02661
962.81467
966.20993
960.42534
952.55075
953.34263
954.87402
951.41841
953.59416
949.77162
947.54626
942.98877
932.40374
937.58339
940.7176
944.67628
941.63785
945.23757
943.07336
939.3866
949.84606
945.92946
945.09439
940.49957
928.72927
934.03446
935.24733
920.66863
924.28476
928.89841
934.00101
929.19853
915.45898
923.20807
928.20823
920.99336
925.19342
938.00856
941.5313
946.48345
951.38097
956.02563
948.41551
954.00687
946.89761
953.71913
958.74512
964.04753
960.34727
954.11645
950.88764
955.58412
950.46408
943.73132
946.98007
938.68918
941.74488
949.94953
956.78424
961.95192
967.12121
970.21443
964.82091
960.09689
966.39826
963.42765
957.17406
950.019
952.93186
959.71885
964.78915
960.01977
962.96534
969.29007
974.7343
979.3987
976.91165
979.95637
977.20041
974.19798
967.96693
971.49305
974.46876
977.76232
972.25009
976.2555
970.74856
967.90275
962.66532
967.9236
973.19834
976.28477
970.77012
965.922
972.31613
969.36175
963.0264
955.82006
958.6841
965.56715
958.64722
965.87079
960.22923
967.92529
964.99421
962.06484
959.0933
954.47489
957.45687
948.37657
954.43095
951.48763
945.37923
942.26044
935.69802
932.19997
918.99189
927.97175
936.18962
945.13425
932.39357
927.94878
919.22186
924.03479
911.13161
921.98701
917.17569
905.65183
893.51864
910.041
914.82906
904.79089
899.48071
878.60673
885.02072
898.92477
903.27888
915.18472
925.85934
929.24076
939.52135
931.4121
918.73958
907.13352
922.64909
913.25385
928.91359
932.3592
944.81012
949.63948
952.67449
947.93449
957.83049
960.81001
968.70173
971.40591
974.38815
971.6692
963.76002
967.2754
970.91327
963.29501
960.38891
951.31106
957.34369
948.4539
955.78147
952.87174
944.67172
947.54728
950.40178
941.13737
951.3299
943.53103
954.21746
948.02773
958.56133
955.63328
964.33799
950.97534
953.95788
941.9284
938.82325
945.06495
942.04625
938.9494
926.03985
934.59956
942.6012
945.5643
937.64819
925.15443
935.35363
932.37376
922.01942
910.7126
914.12157
929.2759
920.53357
935.65052
929.38615
943.48002
954.55363
963.24724
969.98791
975.15878
972.00526
970.74002
973.86688
968.42693
965.34865
966.9251
960.18152
958.10397
961.20273
951.8007
948.59355
951.43516
940.20199
936.7696
933.07125
928.63196
932.51444
915.49434
922.07311
918.07832
913.59942
908.01823
924.06581
919.20142
900.199
906.38612
911.16315
905.26108
925.18214
929.23237
927.46879
941.9459
938.21754
949.03389
949.07825
957.04598
962.82328
969.71407
977.01515
980.50983
997.47954
967.51573
928.3655
917.37915
902.03749
914.9085
901.99578
887.92569
874.92512
889.70142
902.83185
858.12612
813.47351
793.98502
838.68065
876.039
893.45912
916.62541
929.66585
928.2972
916.65369
903.04551
858.61465
774.3797
619.10969
606.42776
751.75087
615.18748
374.63985
391.34929
628.12743
816.49213
797.17147
839.27972
888.18134
917.3935
875.76512
887.39826
837.04461
748.98984
612.30832
366.72381
381.25223
624.86622
771.91071
607.05664
595.35362
789.08604
808.33734
856.74227
902.45562
917.0546
873.85362
888.74663
908.36753
830.16319
622.272
404.82306
418.06698
634.90241
835.39567
909.01229
936.49383
950.87235
965.95675
968.15316
953.00667
940.76996
957.10497
955.54233
954.65521
962.74101
963.66311
956.0497
954.73692
946.01013
947.39792
949.74871
958.32091
965.12265
967.13099
959.15664
952.74402
961.04933
968.63631
974.25402
982.56448
997.16202
994.93557
983.89862
990.7424
991.68953
984.789
977.93429
970.89462
970.01349
962.51201
963.79415
970.9812
977.63871
976.37304
982.84961
984.13399
986.39673
993.19225
986.27403
979.37554
972.33949
966.00304
973.1739
975.80161
981.36101
988.24518
995.28331
989.16575
982.53295
979.8542
973.41177
972.00624
970.74945
969.92569
969.45556
969.45448
969.91133
973.0442
972.57257
966.74388
967.31726
964.23344
963.65578
955.83736
956.60991
959.74234
958.9837
948.76009
949.79886
946.51135
945.4293
931.37078
933.03159
936.1403
939.60079
923.51924
919.59023
925.81757
907.36568
916.98813
898.23105
894.15619
889.81649
909.27514
898.7028
893.8011
888.3841
875.90564
881.86915
848.1982
868.61743
862.1786
840.38945
815.60199
822.74726
869.90634
900.2198
896.61529
918.72974
913.49453
890.02023
855.75094
861.68397
799.08978
791.86517
686.35137
747.12733
797.14741
831.71057
855.43858
875.19833
891.04136
905.48253
917.42607
928.29327
937.12138
941.70085
949.32399
955.71636
960.95673
965.17735
960.97172
958.84808
962.66114
966.83747
963.1851
966.80572
968.78002
964.58149
967.86042
962.61071
959.35432
955.96968
962.02396
958.37798
954.0649
956.76077
951.29952
947.65168
952.29971
948.68325
955.6525
961.09119
965.25401
961.02648
956.77216
954.59175
959.32362
963.55338
959.02615
962.68639
964.73023
968.77405
970.36373
973.74469
970.0914
965.29342
959.23097
955.68618
962.60266
968.00913
972.16043
973.38178
971.19663
978.08086
977.14785
970.18265
970.16869
980.57079
997.48799
987.53539
989.68216
1046.6545
1045.354
977.86947
974.51826
971.38084
967.53636
950.99645
966.04939
954.87128
936.81808
946.37605
955.05361
962.93309
963.82393
955.73244
947.71097
956.31755
958.52545
965.25645
968.21667
953.09627
940.96937
957.25843
949.98561
952.92244
959.275
967.22968
961.20157
968.75777
966.17208
964.01465
962.77949
969.92275
969.93805
976.54459
977.8151
984.91104
991.79309
984.27653
986.55425
981.57566
983.25175
980.11112
976.93406
973.24185
976.30327
979.37037
982.42029
984.5681
988.26684
986.42346
984.73269
980.22525
977.2119
974.17627
978.48067
975.31724
971.1428
969.10131
973.64151
970.46191
967.1139
965.72034
962.16183
957.89121
952.72188
957.1359
955.55055
960.87787
956.60983
951.04125
943.8361
946.05247
948.54931
951.35812
944.06926
940.21798
945.07176
952.9532
956.66245
959.32533
952.3998
948.84887
952.18195
959.95898
965.96947
964.11648
969.08556
967.81753
964.47698
959.26245
960.82515
954.19562
950.4428
941.66312
936.82308
933.65355
938.71461
948.31509
952.11294
955.47898
957.52897
948.92659
945.51871
942.65289
946.14137
944.06219
953.98999
961.46483
962.5766
965.71967
967.25334
972.24432
975.35599
976.75258
972.11877
975.13352
979.85674
982.94931
978.11737
971.8784
974.55934
977.34185
980.06151
974.5804
971.62285
968.66701
974.01552
970.97219
965.6845
962.28525
968.38017
971.38618
965.24263
968.15881
974.36402
971.61649
968.67074
965.68374
958.75095
961.70414
958.25437
966.02377
963.04914
955.27802
945.51628
950.13353
954.79673
959.29065
956.24888
952.99647
945.40031
948.65856
942.70657
951.74879
948.48189
944.76635
935.62453
930.65471
919.95037
924.6964
932.69701
922.22012
911.80811
906.39458
895.02256
911.32959
924.235
929.15216
939.92405
935.02991
922.44406
917.04896
901.6472
906.8273
916.02998
900.35609
887.6995
881.4439
867.03684
891.77298
910.2993
915.73478
930.29842
926.0482
909.3091
903.31729
881.00272
886.86669
897.062
873.39802
856.48681
848.76399
828.45014
870.72763
897.68195
903.78306
922.67835
936.48196
946.74885
954.40754
960.0567
955.76453
949.91038
949.26343
955.28034
959.57353
953.80158
957.54305
958.14039
963.65388
967.01136
966.53881
963.19133
963.18262
959.57067
955.27172
944.79323
935.12646
909.8998
915.78132
927.15188
931.17113
946.85745
937.29118
920.18898
893.47424
883.76721
838.38378
815.03865
829.83002
895.51771
905.02277
860.46182
846.69704
873.8679
906.40042
926.74572
940.97005
920.71194
945.31889
954.34187
950.35347
937.46709
944.26131
934.31373
919.2291
879.46256
897.41222
909.0708
887.37346
917.52675
929.64706
940.37177
935.51741
930.33926
925.51736
920.98879
917.55329
915.57815
915.63446
930.08654
931.40851
942.2717
941.39718
945.91333
935.2631
939.32251
940.49932
950.57904
949.77073
953.19855
960.8855
964.0495
964.63079
970.19341
971.00578
974.08737
968.73584
970.26557
973.26926
978.43739
981.52492
976.23527
974.69623
980.23485
977.18561
971.73926
964.59769
966.57273
968.96233
961.16329
964.60755
967.48902
971.07301
963.47472
968.04002
965.13596
962.23218
954.6066
951.68627
945.77006
948.70223
957.72499
960.61067
951.57278
957.48062
960.34666
954.42105
943.77264
951.43148
948.58565
945.72294
942.80052
939.75467
936.46213
926.06671
929.42501
919.29161
931.93528
928.5587
939.39903
933.04513
943.72247
947.05092
936.4551
930.0965
942.351
938.92923
926.51587
911.15175
920.09268
923.6371
908.3364
904.5963
915.79904
900.96662
914.11172
910.1105
896.2756
879.39525
896.78383
891.59984
880.10782
867.98359
797.28004
826.91517
841.16742
782.89077
843.45003
829.34223
764.64887
668.64862
765.21175
779.23039
657.53334
654.46622
482.36504
485.88638
686.28242
563.90852
692.78238
788.18459
773.94168
640.46469
675.09615
503.90702
676.94051
681.76269
508.26214
408.30121
395.68314
549.66995
388.86225
403.48791
443.41576
391.26604
404.33318
407.63644
492.43324
662.55526
808.80879
881.26574
914.56304
934.50356
944.24306
946.42594
936.79612
919.3664
930.44768
926.08265
893.17601
903.8311
892.12726
844.81881
858.83416
823.80546
857.15981
890.58097
913.73058
928.8402
940.55136
948.65284
954.83805
959.17019
959.67277
955.34584
949.35008
953.89549
953.24122
945.14464
946.05928
941.51461
930.34179
935.52044
934.13741
938.31349
942.03383
952.5857
960.4395
966.21856
966.70477
963.31137
957.67559
961.05425
962.1974
967.52868
964.14868
960.52231
956.22034
957.54452
961.83674
956.73363
955.09165
950.54224
952.28713
945.51359
943.18968
947.72522
949.94342
941.04841
937.92732
932.77553
936.15074
939.69018
948.10502
954.21639
959.00925
950.04193
940.60931
920.29675
945.06142
954.11635
943.92278
936.98345
926.19746
933.94572
918.75881
905.6503
878.87353
873.06267
886.61654
916.8459
929.1784
908.55128
896.96887
915.05808
929.9889
940.69253
949.34128
955.67041
961.26211
971.30876
971.37716
1001.2446
985.5822
1000.2625
1003.7946
996.533
988.59518
974.64707
967.94035
959.85523
956.45502
946.52967
963.15468
967.21106
970.97328
969.06189
963.839
966.41446
958.52506
953.34165
959.16558
961.68035
957.99105
950.24087
955.16587
946.69707
932.75695
944.07218
953.0076
932.75887
911.8339
939.61904
948.69605
939.98088
926.38802
939.98636
930.00606
940.69998
946.69548
955.15392
961.64501
953.31543
949.32408
957.96061
950.22844
956.87119
963.00952
973.77522
968.93407
966.86994
971.28964
976.15794
983.25529
985.18936
981.78721
977.8601
973.54788
980.81761
978.38901
985.2308
990.21247
997.30947
999.43429
995.99251
992.01425
987.65345
994.74092
991.99164
986.36457
984.83096
983.06453
981.39032
979.66543
978.24578
976.98776
976.16797
975.70606
975.71039
976.17333
977.00364
980.08591
981.38696
976.05418
973.04077
971.48692
974.49815
973.39708
979.26143
978.7826
972.82704
969.81358
970.38631
962.80137
964.23623
966.25087
969.22929
967.2316
957.96597
960.58484
957.59115
954.91092
952.98129
956.08936
965.81638
965.08411
962.05452
951.97912
955.12941
942.18607
943.54079
946.17495
949.73721
946.64908
942.93211
927.30385
932.82514
936.15253
930.96566
926.67125
922.65872
940.14566
936.65882
935.09296
915.72657
918.56968
914.32812
909.90731
906.65018
901.8235
923.31965
923.5483
918.96816
921.25297
916.12744
895.27352
901.56054
897.20412
902.42239
907.25568
927.68184
929.7439
943.28863
953.43758
949.96049
939.62987
941.94353
951.57033
958.8445
960.45237
965.42377
968.81646
963.78342
957.11109
954.99682
945.50194
948.41366
944.95703
953.7355
956.2803
962.36634
966.84089
963.26045
964.99457
960.75294
956.45955
960.79606
958.67478
952.54232
955.31723
950.99421
943.66432
948.31093
944.5891
948.41108
951.78179
959.60734
965.6755
970.21499
971.93461
968.53245
964.45501
967.75544
969.86884
973.5377
970.14137
966.60506
962.41336
964.14879
968.31037
964.96169
962.93126
958.57889
960.74081
956.52357
953.77358
958.10973
960.7354
955.48877
952.00306
947.32924
951.05335
944.78079
939.93292
935.00743
929.71873
924.72889
919.93157
924.97944
929.52191
914.75933
907.81038
901.66383
909.2333
890.5022
878.75867
866.93913
873.14714
863.26859
803.37061
795.51537
822.60865
830.46782
837.35127
879.0549
906.59693
925.73026
929.27459
933.09429
937.26499
933.63503
919.15941
912.54491
916.7972
911.21602
884.63702
875.18783
873.31778
881.06317
892.21211
903.1706
879.02113
874.024
854.16798
887.2243
875.6428
867.58632
804.63123
828.73336
834.48599
859.87588
865.44374
897.01214
901.63333
911.40171
888.46416
902.14179
905.88555
923.95716
932.3937
940.61897
928.18338
938.26858
926.81598
938.37176
935.48595
932.52582
922.50922
935.04992
938.02409
925.5655
928.5152
940.91591
932.99531
945.51476
955.9718
953.08654
942.59913
939.59845
933.40314
936.53561
948.53679
951.46507
954.33747
958.82994
948.37894
942.48488
939.54318
925.05363
921.86368
930.00969
926.90273
911.78485
915.04624
904.03297
900.37327
918.51154
914.97291
896.50385
892.3508
878.63614
901.79325
920.04042
934.34036
937.89844
923.86435
918.01707
933.96095
930.24467
913.89891
892.06035
896.82952
906.0292
883.4406
868.15399
862.46722
842.64947
882.39304
908.63546
927.02428
930.89226
913.04541
909.82422
929.1147
942.93193
946.2816
947.37357
949.37475
952.08284
960.63746
963.63686
955.10799
952.46693
961.64773
958.62283
957.16727
960.21147
967.64863
973.28031
972.80662
969.74076
969.72738
976.52942
983.98899
984.00485
990.82208
982.9749
976.36432
979.41185
973.60557
970.64954
970.08166
975.90107
978.93018
973.03461
965.37562
966.11323
967.51726
969.48331
960.93561
964.04004
966.91428
970.38475
974.00562
977.56775
980.90276
983.74488
990.20529
1002.2309
1011.0294
1018.1097
1026.6323
1032.2351
1064.5
1067.1408
1064.5014
1058.1117
1062.405
1029.6729
1018.1119
1034.1153
1026.0455
1011.0356
1006.6186
1014.7948
1030.3641
1021.4627
1014.1989
1009.2137
1001.9517
999.09906
1004.5397
1011.8312
1006.0923
1013.3624
1016.5022
1024.1878
1029.4611
1026.9397
1019.2478
1016.985
1027.0666
1026.2179
1059.0019
1042.6559
1045.9513
1049.3428
1066.4218
1058.2334
1041.9935
1037.063
1045.3094
1039.9076
1031.8915
1028.4549
1034.6676
1042.6578
1036.2564
1044.4053
1047.9586
1053.1811
1062.6779
1061.7713
1056.5518
1059.1176
1050.7513
1048.2978
1059.4251
1056.584
1040.7031
1032.6548
1040.2642
1032.2953
1024.6313
1017.3724
1020.7667
1015.6166
1018.6732
1017.3252
1026.0418
1034.1143
1030.3587
1014.7881
1006.6031
1014.1866
1011.8109
1004.5144
999.06056
1001.9286
1009.1974
1006.0617
1013.34
1019.2309
1021.4542
1029.4548
1026.9294
1020.7504
1024.1793
1016.4889
1011.0485
1003.982
996.76952
994.4804
997.96466
996.39243
993.04348
989.70973
991.49045
994.83784
992.93424
996.24751
999.74423
1001.3158
1004.9099
1003.1972
999.57684
1001.6302
998.16749
994.48623
996.75953
990.18756
987.97178
991.31159
988.80161
985.64116
980.84203
983.71308
986.89269
983.9342
987.10064
992.02761
995.30097
997.94937
993.40695
990.09841
985.59992
989.80299
996.77026
1003.9984
996.79372
994.52272
998.0038
994.87704
991.5335
989.77321
993.1011
996.44624
992.99082
996.29869
998.2036
1001.3523
1004.9429
1001.6645
999.62276
1003.2409
999.79425
998.0666
1002.9608
1009.65
1011.5844
1002.4027
996.09614
993.20995
1000.2973
1007.4027
999.96842
1006.9995
1010.0844
1004.8765
1006.7052
1008.3784
1011.0606
1004.0221
1011.0035
1008.2636
1012.1909
1008.6438
1012.0602
1010.2431
1006.467
1003.0447
1005.1014
1001.3224
997.97854
994.51517
991.3436
988.00992
985.70226
988.85783
983.9822
986.91987
990.11327
993.42193
990.33998
995.34338
992.07659
987.13853
981.45151
985.61364
982.48333
983.22617
979.30126
982.46835
978.30213
975.26684
968.83861
973.90683
976.82725
971.81377
974.89198
981.42292
984.57154
990.31216
993.60595
998.65176
1003.0064
1006.6648
1008.3491
1012.037
1010.2148
1006.4413
1008.6245
1005.0725
1001.3004
1004.0155
1010.999
1018.6649
1015.5992
1019.4045
1017.4554
1013.7862
1009.982
1012.1762
1015.8564
1013.5375
1009.0055
1011.945
1008.2528
1004.8551
1002.0337
996.92699
1000.1915
996.79441
992.14862
996.55944
1003.6144
998.92563
1003.6335
1007.1784
1003.7945
1000.3378
1005.4912
1002.5316
1007.584
1011.8733
1017.3516
1024.6153
1027.058
1026.2165
1059.0029
1062.4074
1049.3414
1045.946
1037.0571
1041.9887
1045.3057
1042.6475
1034.6596
1028.4414
1031.8861
1039.9038
1036.2372
1032.6744
1026.1055
1034.1308
1030.7218
1026.9604
1023.0565
1021.1494
1024.9161
1020.8628
1023.2963
1019.5245
1017.2008
1012.6018
1015.5327
1018.6955
1026.1353
1022.9535
1027.0677
1030.9648
1034.7439
1032.5836
1028.7037
1024.6347
1028.4095
1023.6752
1026.8792
1021.9334
1018.1459
1014.4606
1019.3288
1016.2294
1010.9252
1007.3493
1010.8138
1005.9812
1010.8615
1018.7009
1026.1125
1034.1458
1026.1449
1022.9696
1027.0781
1030.7332
1026.9646
1023.0643
1019.4166
1015.8653
1013.5494
1017.469
1013.8068
1009.9971
1005.5072
1002.0567
1004.8699
1000.1977
996.8038
993.63189
998.68868
995.8377
1000.7553
997.40242
1001.4861
999.45951
996.13009
992.85369
994.78941
991.46688
987.72221
990.89099
988.64299
985.52432
989.61604
987.87759
991.09282
986.36923
983.28996
981.15555
986.10409
989.25368
984.19731
987.32013
989.52049
991.83705
994.13643
989.36767
986.21798
983.11753
980.34696
983.39098
976.9817
980.59626
983.68029
986.82199
992.57439
989.6357
995.05545
992.69882
997.63497
994.31772
992.48797
995.7353
990.46241
983.86479
986.68004
983.57407
986.48744
980.00776
983.09551
979.33709
976.29874
973.31482
980.52564
977.52013
974.81538
977.78273
969.8175
972.7607
980.80211
978.3307
985.3686
990.99116
997.55931
1005.8117
1009.3693
1024.6587
1013.1015
1014.7495
1022.2711
1014.1995
1011.6775
1020.6109
1019.5519
1012.1034
1004.7863
997.77524
998.73166
990.86891
989.53617
996.19193
1003.1368
1004.5319
997.5544
999.09656
1000.9841
1002.8524
1006.2884
1008.3964
1004.1333
1001.6931
998.35762
992.85067
996.12515
999.15838
993.29911
996.94666
1000.3495
1003.6335
1007.182
1011.9516
1009.0145
1003.8034
997.88456
1002.4555
998.92283
995.54463
992.15104
988.88509
983.13075
980.09926
976.84475
973.92227
979.32831
975.32486
978.35218
971.85105
968.89148
961.59531
968.54298
971.53013
964.50735
961.56647
953.27874
956.20096
964.53217
967.54901
974.61246
980.09138
983.12719
988.883
977.99123
970.59904
977.72182
970.61221
978.00512
984.59923
987.83369
991.10206
984.43798
989.68887
986.52736
981.21316
973.76936
980.9298
986.52771
989.68804
995.55076
991.09258
987.8153
981.1962
984.43002
987.7786
994.46938
997.87843
1002.4567
996.51159
993.22132
987.53376
993.21747
996.51219
991.15515
987.78394
994.47145
989.76555
996.64364
1002.5496
1007.6019
1011.897
1015.5392
1011.1114
1008.5906
1013.3549
1009.7953
1005.1232
999.47366
1002.8904
1006.0071
1000.0511
996.14199
992.76808
989.47023
986.24345
990.03226
983.23093
980.0731
976.97672
973.94373
970.97149
963.23926
966.17111
960.16955
969.2855
966.36028
957.27961
946.63106
954.30392
957.20713
946.99033
944.08688
941.21942
931.41187
921.18359
935.91242
928.11008
910.77056
907.49128
918.16707
900.76599
914.26587
911.19725
923.86602
920.81062
917.60148
904.21187
900.49532
883.86958
887.80893
904.63079
890.31531
886.32243
881.79219
876.70174
854.16866
873.22303
853.13322
859.15233
880.35117
861.59602
834.81557
827.21327
797.19919
829.0636
834.89764
860.17088
837.6415
864.67287
858.66376
830.18099
799.10607
806.36087
769.42133
804.5932
810.72873
840.41683
866.77739
884.97075
889.07448
871.49551
845.53625
868.47373
864.07246
840.29923
865.03463
869.36091
848.06716
874.2562
869.70715
843.11465
812.4058
817.8848
845.12524
816.31738
782.42402
776.22545
730.20428
772.5893
809.80152
843.92125
837.92128
804.64109
756.24779
803.17868
795.6099
746.15281
669.35434
676.50737
752.3132
686.11239
551.6735
552.96676
446.32794
605.7961
697.31903
757.81673
765.25512
707.668
654.45699
722.2178
712.91646
760.14307
715.7301
762.67852
801.70269
837.77431
843.936
809.18737
768.11701
816.20082
808.69186
758.19348
707.20979
717.05056
769.90801
724.92505
661.57637
649.71607
557.61376
622.51211
690.79883
767.63772
773.86678
836.08382
876.73403
869.01643
900.23594
920.72797
925.16001
905.23787
874.85038
880.41708
887.68301
849.13345
827.96411
821.45624
815.16894
807.28845
863.013
893.85113
893.71147
900.0865
920.66846
935.22962
945.8947
953.7884
949.25163
949.88543
955.74386
960.03418
954.38305
958.11224
957.53941
960.8713
966.54182
966.98852
963.63809
964.43745
971.15393
978.04063
977.13769
971.03339
972.4494
982.60488
997.18032
994.96823
990.80604
982.95538
984.22179
991.74414
984.87056
977.76814
979.95494
986.33933
979.46153
973.30371
975.89274
981.42162
974.33387
976.21734
985.60324
1001.2421
1000.2685
990.24244
988.29024
995.31298
993.23659
986.46473
989.2118
982.6024
985.27435
978.45058
983.29969
985.21666
981.80892
977.90166
971.02517
969.14089
971.34598
956.50738
946.63783
961.35299
955.80113
963.94853
966.49219
967.2505
963.21714
958.61615
953.46623
949.52166
932.93961
940.94998
950.4807
958.15119
961.78974
959.24496
946.87814
955.34051
948.92547
940.3188
930.30246
911.94516
915.32546
926.75101
940.25303
930.18122
939.82204
946.83978
932.80765
944.15249
953.05791
967.94537
959.87844
974.66249
988.60099
996.52942
1003.7912
995.99703
992.03198
999.44203
997.32844
992.02012
994.75612
987.67821
980.85801
973.60728
971.37628
965.79512
964.30727
962.60401
960.97516
959.27286
957.85469
956.5798
960.8477
955.51179
951.01248
952.68522
957.09244
962.11042
965.66898
969.02713
967.78147
962.52938
961.44535
953.9554
953.1888
949.75292
939.29715
942.90013
944.00098
940.43955
950.55204
946.71445
942.23678
941.37914
930.05429
931.35121
936.42605
938.64869
948.27516
943.79876
933.5916
936.78552
946.01748
950.40013
941.6246
945.47284
942.58939
952.06442
959.22344
960.76799
964.063
957.47293
955.43543
946.06988
948.87258
952.0269
949.30234
947.30947
946.25842
956.38202
956.39935
959.45686
967.07881
967.06282
972.80257
973.2537
970.17491
964.59672
964.04281
967.62001
970.61988
970.07206
975.88815
978.92166
973.01938
973.5735
979.38181
976.33803
977.14529
974.05222
970.96526
965.67689
968.68836
970.20705