/*--------------------------------*- C++ -*----------------------------------*\
  =========                 |
  \\      /  F ield         | OpenFOAM: The Open Source CFD Toolbox
   \\    /   O peration     | Website:  https://openfoam.org
    \\  /    A nd           | Version:  7
     \\/     M anipulation  |
\*---------------------------------------------------------------------------*/
FoamFile
{
    version     2.0;
    format      ascii;
    class       surfaceScalarField;
    location    "340";
    object      phi;
}
// * * * * * * * * * * * * * * * * * * * * * * * * * * * * * * * * * * * * * //

dimensions      [1 0 -1 0 0 0 0];

internalField   nonuniform List<scalar> 
76358
(
36.22101
-0.011022053
2.0234065
1.4729736
-1.4801392
-2.0331863
0.060727851
-34.801519
0.00024489218
2.142671
2.1294214
-2.0925095
-2.0997395
-1.4918485
1.4728785
2.0309917
-2.0574315
-0.059727741
-36.221173
-1.4920452
1.4726441
-2.0574832
2.0309575
-34.675936
-2.0405874
2.0188566
-2.0333443
1.9931142
0.0011230095
-34.802097
2.1294189
-2.0925701
-2.0992619
2.1433598
0.00087907591
0.010576435
0.00045386039
-2.0831053
2.0763228
2.0777056
-2.0873627
1.4728346
2.0233811
-2.0332359
-1.4802366
2.0763115
2.0773406
-2.087321
-2.0830175
0.00023920904
-0.053569095
10.408713
0.36944893
-0.37455413
-0.53877672
0.53242089
-0.0096827861
-8.2576886
-0.0055080471
9.6652936
-0.0078549981
-7.6820931
10.34011
0.0056840419
-7.4054936
7.425608
-0.034823951
-0.034567958
0.00066615109
0.00097803012
-9.2589203
0.37598367
-0.38792534
-0.52736981
0.51591218
-0.061122911
-36.220904
1.4731131
2.0311607
-1.4916392
-2.0572451
-2.0997335
2.1426386
2.1295408
-2.0923347
-34.801438
0.0099827911
-2.4923748
-2.5119455
-2.1925412
-2.3389072
0.3849534
-0.38294791
-0.39069957
0.5337141
-2.5294529
-2.4595807
-2.19909
-2.2190027
-0.38862241
0.54368057
0.54244225
-0.38399699
5.8896427e-05
-0.42586255
-0.015670392
-2.0485682
-0.00036755137
-0.038984209
0.010638754
-7.809586
-0.52227951
-0.50326947
0.41245249
3.36992e-05
0.13005367
0.3253474
-0.3755742
-0.52828251
0.41883599
-8.247424
-7.6929641
-0.13158247
-0.024218567
-0.095707422
0.024485538
9.383053
0.37603114
0.36838335
-0.38052764
-0.3865503
-0.38671002
-0.38070515
0.36817392
0.37585465
-9.385707
7.6930144
-0.095213706
-9.6653663
-0.13191538
-0.12943166
0.33157663
-0.37597307
0.41554721
-0.36775528
-0.3675786
-0.37575143
0.41572819
0.33179346
-1.8167494
-0.0036240182
-0.015077347
-0.047225645
-0.045465803
-2.4756052
2.0866968
0.086684656
-0.09786232
-0.13080509
0.10673488
-2.6284925
0.0015353709
-0.025707081
0.019401184
-0.6397407
-0.61834195
-0.55983956
-0.61101613
0.022474104
0.16881478
-2.0832955
0.16425937
0.083718519
-0.096776102
0.10148237
-0.12933292
-0.11206171
-2.3435468
-0.47676067
0.0019220467
0.0055011049
-0.0041888828
-0.0022602729
-0.66494994
0.5214557
0.00014462067
-0.65514853
-0.001445755
0.0068091738
0.0049614957
0.00027175215
-0.57156914
0.0047535419
0.013513456
-0.51616565
0.012404742
-0.013278764
-0.62334194
-0.011138131
-0.57670711
-0.00012259362
-0.0078735727
-0.00081167995
-0.57610186
0.010923746
-0.024012155
0.020576723
-0.032561442
0.025615462
-0.00033590577
-0.12861251
0.0015015447
-0.52794212
-0.00090712757
-0.52617314
-0.0067163127
-0.006432181
0.095135397
-0.097550539
-0.13159081
-2.0837774
-0.0095659109
-0.37312527
0.36635843
-0.53676828
0.53335833
0.51222129
-0.51902858
-0.53946643
7.8482654e-05
-9.9060545
2.5266364
-0.13228525
0.13073284
0.13346566
-0.13521505
-0.0024075478
-1.994285
0.0029249383
0.10747358
-0.13144275
-0.13457632
0.11294465
2.0132565
-0.13421637
0.11247116
0.10737026
-0.12971764
-2.4694935
-1.4919321e-05
-0.034223672
-1.5623396e-05
-0.0058519132
-0.64137096
-0.61833506
-0.56458405
-0.57430783
0.17116274
-2.6568972e-05
-0.62649487
-0.64171835
-0.57405433
-0.56885241
0.1697553
-0.52586858
0.00507952
0.006729265
8.1429561e-05
0.00081104037
-0.65964955
0.53214783
0.00081540356
0.00019749657
-0.66765562
0.0069233281
0.0015303219
-0.0045754274
-0.57705331
0.0016142276
0.012883505
-0.575161
0.013215965
0.0012715437
-0.56324198
-0.012502117
0.00044376228
-0.56291544
-0.012494682
-0.00091414379
-0.00034458969
0.57606636
-0.012279208
-0.56208466
0.53098335
0.00029645311
-0.66621281
-0.0033777185
0.0069915855
-0.52155271
0.0072186717
-8.472586e-06
0.00096862143
-0.65193388
-8.6403927e-06
0.57273477
-0.012096052
-0.56000545
-9.2405234e-06
0.002502724
0.012876481
-9.8122365e-06
0.012867067
-0.0015899078
0.58433156
0.010454296
-0.57760471
-0.0027241654
-0.0048885756
0.58412608
-0.57843787
0.010493967
-0.0041804071
0.58018014
-0.57860134
0.010928995
0.0019702338
0.57215811
-0.57549188
0.010696585
-0.10008695
0.62553893
-0.52052516
0.0094481519
0.11226312
2.2125345
-2.369211
-0.12836908
-0.093063812
0.08738117
-0.093008945
-0.12828889
0.10016959
0.087444673
0.045546234
2.083312
0.083800949
0.10155495
-0.12926771
-0.096696416
-2.3435655
0.37565658
1.8167679
-0.046994668
-2.475635
10.417218
0.32528157
0.41889757
-0.52821638
-8.2475655
-0.0099716686
8.3790776
-0.20155823
-0.009552216
-0.063632171
-0.013067756
-9.2590446
-0.0037272552
0.51593478
0.375839
-0.38808532
-0.52738891
0.011049378
0.53370569
0.38477745
-0.38313317
-0.3907616
-2.3389854
-2.4924245
-2.5119326
-2.1925447
0.30144951
8.8017563
-0.38863295
0.54378153
-0.38366129
0.54301682
0.00080364606
-2.5295989
-2.2191276
-2.4596517
-2.199086
8.3869101
0.00066939522
-10.129026
-0.075510289
0.00064961017
0.5189375
-0.52776403
0.51660009
-0.52410949
0.00067991162
-0.0031895683
-2.0948242
0.0025480881
0.00099919724
-0.0045898531
0.00081406997
-2.0931677
-1.8942794
0.0044290715
-0.0031022158
-0.0029285437
-2.6642593
2.0931072
0.0032408286
-2.6276112
0.00089634295
-2.3250013
0.0026731526
-0.0031291257
-2.3264986
0.0040293689
-2.6276915
0.0010772334
-0.0063572623
0.012596404
-2.1038203
0.0035953013
-1.9070574
0.0061717219
-0.01579872
-0.015600723
-2.641739
2.1037537
-0.013855095
-0.0011901509
-2.4952067
0.012732797
0.0032954913
-2.3077248
0.0033605358
0.0031948856
0.014004279
-0.00094621644
-0.0010991488
-2.3335389
-0.00091873659
-2.4952596
2.1046537
-0.0021255324
0.0023003644
-2.4943802
2.6291072
0.021738936
0.0011844005
0.0066631837
0.00093306376
2.3137054
0.0019896323
-2.31326
0.0017720377
-0.0026872045
-2.3039313
0.00029449014
-2.0878673
0.00025928689
0.0072463935
-2.6186057
0.00031550323
-2.3036538
0.00035081178
-0.0019169888
-2.2885129
-0.023297902
0.00041052442
0.0096635592
-2.2989946
0.0089170472
0.0028046719
0.0070713601
-2.3119424
-0.0014240237
0.00048229709
0.0097602779
-2.2945268
2.0980501
0.00036764307
-2.4812027
0.00034772317
-0.54327315
2.6182783
0.024039605
-2.0977732
-0.00092377073
0.30033588
8.801255
-0.01045152
-0.38321088
-0.38769561
0.54450203
-2.4597467
-2.1990351
-2.5295841
-2.2188385
2.0330342
8.3868532
0.010202704
-10.129085
1.993428
2.0197873
-2.0396625
-34.676209
0.0014544027
-2.0924459
-0.51642056
-0.0050505714
0.0031074172
-0.0017234767
-2.323945
0.0015972159
-0.0036163639
-2.312487
-0.0032331437
-2.3032419
-0.5168035
-0.00078234284
-2.0876167
0.074429685
0.0042192207
0.5195499
-0.52687115
-0.52377533
0.013708221
-8.3790726
-0.062037851
-0.19996166
-10.417382
9.2584936
0.53445998
0.38536057
-0.38247998
-0.38982652
-2.5119964
-2.1922967
-2.33885
-2.4924969
0.51658783
-0.52645546
0.37638095
-0.38739421
0.0033227215
-2.092622
-0.0048623469
-2.0942869
0.00068223663
0.0078358662
-2.6284441
-0.0012320073
0.0078839976
-0.0017927556
-2.302874
-2.311978
-0.0044998259
0.0017370034
-0.023007595
-2.2976672
0.010883287
-0.0039234609
-2.287675
0.010988093
-0.002347185
-0.0026434085
0.011336181
-2.2935383
-0.00201478
-2.4809489
2.1041113
0.00072451367
-0.00070740359
-2.4938388
-0.0037621708
2.6270447
-0.0066688578
-2.1033218
0.013643852
0.0041119429
0.0026232072
-0.0038223003
-2.3254135
0.52655154
0.0024342319
-2.6268312
0.37618986
-0.38756851
-9.2581675
-1.8939404
-2.6638457
-0.38519559
-1.9067884
0.0068300268
-0.38261494
0.53428192
-0.38995002
0.011247406
-2.3388503
-2.1922267
-2.5119276
-2.492478
-0.015244928
-0.015101477
-2.6415369
-0.012871199
-2.4947976
-0.00027379829
2.3066401
0.013154868
8.106506e-05
-2.3324734
0.0092352865
-2.3105271
0.01110873
0.013486091
2.2664581
-0.0085852612
-2.2732324
-0.0013433108
2.2214939
0.021546763
-2.2192524
-0.011388527
0.018077065
2.2239669
-2.2222385
-0.0072931693
2.2695299
0.010096586
-2.2766505
0.0020904449
0.0023910917
2.2985755
-2.3114493
2.1044287
0.0019309532
-2.4940818
0.00083786823
0.0216941
-2.0976604
0.022746603
-3.1037714e-05
0.0010179261
-2.4807073
-3.7091686e-05
2.2870771
0.0092159552
-2.2928153
-6.878156e-05
-0.0015053639
0.008868233
-5.0050861e-05
0.0090505178
0.0079538415
0.0091679374
-2.2196106
0.012378732
-0.00053300705
0.016730743
-2.2165098
-0.00051904798
1.9916183
-0.0017953195
-1.9512281
-0.0037870723
-0.013826644
-0.001564029
-0.0031675212
0.001134441
0.016717982
-0.008820144
-1.9940827
-0.013951679
-0.0018548716
-0.017522569
-1.9546105
-0.0021982304
2.2134677
-0.01002602
-2.2091422
0.0016640601
-0.011161007
-0.0099830026
0.0012957354
-0.010223316
-0.0042990374
-2.2966332
0.0023743446
-0.022702188
-0.013352097
-2.103145
0.0040735987
-0.00046615671
-2.4945754
-0.0010192649
0.38776736
2.1034914
0.0024216711
-2.4931273
0.0032822785
-2.309439
2.2844077
-0.0019999517
-2.2897525
0.00060098516
-0.023799262
0.00051755663
-0.5430827
-0.0013193656
-2.0964886
0.00027859391
0.54417143
-0.38300964
0.00049317667
-2.218624
-2.1985129
-2.5294542
-2.4594849
-2.4793569
0.00028044253
0.0087268589
0.00031742151
-0.57233416
-0.57890471
-0.0054719093
-0.58416476
-0.57554111
-0.17198458
0.017556885
0.00069932723
-0.56501377
-0.56857989
-0.0064665616
-0.58165494
-0.5775667
0.024114386
0.0019513481
-0.016715153
-0.56338448
-0.55447169
-0.52859955
-0.55448016
0.0020024697
-0.0026766482
-0.030200901
-0.53138605
-0.4973709
-0.38425295
-0.48661112
-0.024248271
-0.0045417388
-0.025170812
-0.49756796
-0.53309189
-0.48843598
-0.37616894
-0.016493679
-0.00043200388
-0.013694758
-0.55688949
-0.56481864
-0.55618946
-0.53224002
-0.0077017982
-0.0054807077
-0.56950994
-0.58218805
-0.57823696
-0.56614265
-4.8829652e-05
-0.0049872748
-0.57930396
-0.57576435
-0.572827
-3.2196991e-05
-0.013927232
-0.57854834
-0.57943376
0.0069017989
0.050552084
-0.59919658
-0.57458349
-0.019394135
-0.16406996
-0.050323088
0.015149844
-0.019164941
-0.0034317228
-2.0867177
-0.025724391
0.015975351
0.086662609
-0.097889212
-0.13078916
0.10674882
-2.6285365
0.0018747118
0.63976041
0.0054836809
-0.47676892
0.0019883846
-0.6110435
-0.61833756
-0.55983635
0.022810091
0.1687337
-0.51617282
-0.00019901846
0.012366967
0.0022793252
-0.013197035
-0.62334824
-0.011174583
-0.0041138225
-0.6649614
0.52146364
0.0001358386
-0.65515856
-0.0013439048
0.0068015399
0.0050617521
-0.57157992
0.004855523
0.013490575
-0.57671445
-3.188961e-05
-0.0078947824
0.010835053
-0.57610972
-0.000804278
-0.00023301253
-0.024023765
0.020566918
-0.032560552
0.025614912
-0.12421433
0.00087427049
-0.4813422
-0.0078309242
-0.00487608
-2.0753401
0.091104239
-0.095475474
-0.1290234
0.12186212
-0.36629245
-1.7524811
0.0066458454
-0.37319462
-0.53671382
0.52625625
-0.009057125
-10.408932
-0.01199079
-0.017755679
-2.4764569
0.093461621
-0.093799919
-0.12656329
0.12663461
-0.13082777
-2.3427865
-0.097947737
0.66469126
0.001174256
-0.47521631
0.00076015416
2.0838304
-0.00092886553
0.13191615
-0.13049882
-0.096809608
-2.6399264
0.095112712
-0.097576762
-0.13157126
0.12863435
-0.0064031322
-0.47644516
-0.0014250151
-0.0021316938
-0.0026744468
-0.0017012738
-0.60487458
-0.0059214326
0.0014434241
-0.00059901923
-0.57758338
0.023278769
0.031858175
-0.032364297
-0.023844668
0.52795135
-0.0016704103
-0.65908322
-0.00080215755
-0.13073807
0.65966779
0.0022191796
-0.53258964
0.00063859177
-0.53345208
2.5267157
-0.13228598
-0.1351493
0.13353438
-0.0021366459
-1.9943673
7.8098565
0.5125634
-0.51877584
-0.53941626
0.00049555982
-9.9064944
0.42596465
-0.52222159
-0.50295177
0.41278668
0.00064018311
-2.0486249
-0.038901989
-0.00013204351
0.10748272
-0.13144682
-0.13451888
0.11300657
0.003220329
0.62653268
0.0067375032
-0.52588376
0.0051580485
-0.56889265
-0.64173024
-0.57405317
0.006202638
0.16978662
-0.5751796
0.0046662902
0.013213685
-0.00082204494
0.0013723519
-0.56325577
-0.012506023
0.00017126168
0.53216419
0.0008505807
0.00031276088
-0.66767515
0.0069544803
0.0016440955
-0.5770801
0.001737759
0.01290994
0.00055303311
-0.56293494
-0.012475263
-0.00098681634
0.57610012
-0.00023271466
-0.56210934
-0.012218209
0.13417099
0.53100801
0.000389751
-0.66624281
2.0133195
0.11253909
0.10750144
-0.12959901
-2.4696013
0.00027989822
-0.033932096
0.00025452663
-0.6414326
-0.57434974
-0.56456494
-0.61836553
0.17156815
0.00032917451
0.0070540903
-0.0032954934
-0.0024006673
0.012942892
-0.0073266116
-0.57276821
0.013023705
0.00010551491
-0.52157503
8.8834811e-05
0.0010895224
-0.6519634
8.9584739e-05
-0.5600303
-0.011972857
9.1754259e-05
-0.00016152234
-0.002588031
0.00010039426
-0.54469013
-0.032477817
0.026102036
0.026105579
-0.032420812
-0.00038176769
-0.002492244
-0.54655272
-0.032575325
0.026094003
-0.032483783
0.026120974
-0.00051455977
-0.0023670081
-0.032652338
0.026002902
0.026107445
-0.032560948
-0.5473322
-0.54832979
-0.032742031
0.02589625
0.026019999
-0.032628595
0.0012223383
-0.54941616
-0.032566559
0.032080814
0.031939937
-0.032372957
0.00018377488
-0.0006784338
-0.66464526
0.53611286
-0.67082246
-0.0011599499
4.1817935e-05
0.00024367447
-0.13321474
-0.53475748
-0.000519173
-1.9567743
-0.1346539
-0.13010072
0.12888692
0.00025263743
-0.0015551669
0.13587678
-0.13405614
0.13145759
-0.12956715
-2.4779173
0.00021129027
0.13340482
-0.13180567
-0.13451626
0.1362493
-2.5395998
-0.00065746611
-0.5319556
0.00068053912
0.00069208799
-0.52719996
0.0005496763
0.0011040287
0.00065642618
-0.00079391639
-0.65866532
-0.00015936412
-0.66456244
0.48120217
0.00046194059
-0.003786773
-0.60459999
5.3516305e-05
0.0036688417
-0.57729028
8.3425406e-05
0.032456879
0.023824328
-0.023747022
-0.032307519
0.00018900962
0.023889051
0.032559096
-0.032340938
-0.02378598
-0.57668215
-0.0007300327
0.54933836
0.032724274
0.00016372984
0.032620888
-0.032594442
-0.032425932
-0.54890784
-0.00057739297
-0.66470782
0.53485286
2.2554622e-05
0.00079863931
-0.67076771
0.0007883381
0.00017190722
-0.00020231956
0.54783617
0.00024720113
-0.54776134
-0.032319743
0.032592607
0.032642722
-0.032246963
0.032701963
-0.032502871
-0.032305816
0.032602124
-0.00016792342
-0.1313466
0.00015516862
0.16396298
9.8340594e-05
-0.00022470631
0.16351452
0.00011188045
-0.13111274
-0.023541964
0.16521751
-0.11862559
0.00054966631
-0.13112432
0.64885951
-0.00069006417
-0.51339037
-0.023562122
-0.032795319
0.032829558
0.13063851
2.1288678
0.098639762
-0.09825869
-0.13089587
0.1310298
-0.13098653
0.098566495
-0.098333717
-2.3912196
0.011924938
2.0753178
0.093379911
-0.093871458
0.1265616
-0.12662996
-2.3427544
1.7524535
-0.017945443
-2.4764135
0.0049483985
0.091021906
-0.095556945
-0.12909415
0.12414417
0.12205908
-0.47643582
-0.0008552782
-0.0027528457
-0.0021137638
-0.66467669
-0.0014381783
-0.0017788555
-0.65906874
0.0017918748
0.02328961
-0.023833544
-0.032366651
0.031855806
-0.00070259018
-0.57757455
0.48133674
-0.0058856261
-0.60486716
-0.007792561
-0.13194415
-0.51142041
-0.024023791
0.019809003
0.64652169
0.025715462
-0.033143676
0.00069330387
-0.13220455
0.1013202
-0.099426586
0.10138291
0.13203268
-0.13211298
-0.099357896
0.023103362
0.00028377808
0.032330399
-0.032778218
-0.02359581
-0.6488541
0.16450988
0.00030252043
-0.11847223
5.280175e-05
0.11805644
-0.00079656336
-0.00078593476
0.15600307
0.0016764064
0.00076269087
0.01534777
0.0073294564
-0.15543931
-0.15415481
-0.14248735
0.002041863
0.0018370866
0.52727337
-0.015525497
-0.030826254
-0.57214835
-0.0019135099
0.02681963
-0.57954945
0.010407029
0.003342003
0.0068069211
-0.15367539
-0.15633792
-0.14457972
-0.14271464
0.0027552667
0.012849813
0.58126215
-0.00058582222
-0.14792952
-0.15571735
-0.14320789
0.0031959871
-0.14306044
0.030891089
-0.012782865
0.58316101
-0.61924567
-0.001796109
0.52728075
-0.015449865
-0.57215263
0.5205334
-0.015264645
-0.64652834
0.62555817
0.0094100708
-0.0018982854
-0.59923106
-0.57459832
-0.57215137
-0.019561497
0.014251475
-0.0018498687
0.026754302
-0.010664905
-0.57957072
0.010355078
0.0034323523
-0.57550758
0.004283592
0.0072913911
-0.15600836
-0.15544803
-0.15415247
-0.14248693
0.0021373993
0.0067543738
-0.14457623
-0.15634359
-0.15368511
-0.14271695
0.0028383258
0.58128312
-0.00064893937
0.0032686782
-0.14320493
-0.15572197
-0.14793989
-0.14306457
0.00033150541
0.5856653
0.002364482
0.0032769154
0.63745448
-0.00038803379
-0.58567285
-0.57840564
0.0074487252
0.0072550524
0.002412048
0.0031962545
-0.58122933
0.0038320585
0.0037681625
-0.1563153
0.0033187348
0.0032509425
-0.1444306
-0.14442483
-0.14386304
-0.0061529805
-0.0061308279
0.0009960278
-0.14604218
0.0010146536
-0.0010823243
-0.022173807
-0.13199745
0.0011710741
-0.0019052273
0.0012498379
-0.13023599
-0.025908296
-0.00099426417
-0.025530672
-0.13017292
0.0011172369
-0.0018207695
0.00098978592
-0.1312289
-0.025272301
-0.13074089
0.00087267981
-0.00071658379
2.9615382e-05
-0.16399417
0.00044516257
0.14368194
0.00045636836
-0.14550274
0.00020268824
0.13014618
-0.16295525
-9.3147923e-05
0.0014498223
0.00091970509
0.0021395882
0.001377502
-0.14414767
0.0010840653
0.001613256
0.00076839155
0.0005458387
-0.14528447
0.0002789334
0.033043425
-0.16380977
0.00033545493
-0.49421483
-0.032336658
0.038657101
0.032182129
-0.03260704
-0.031955425
0.031856638
-0.032431179
-0.56040277
-0.000273026
-0.13158286
0.00029767678
-6.9434069e-05
-0.13155335
-8.0925515e-05
0.00047799431
0.00010784174
-0.00016665565
-0.16475075
-0.00020866834
-0.16521492
0.13093972
8.4294586e-05
-0.16351326
-8.6073395e-05
-7.9124439e-05
-2.7799531e-05
-0.14581831
0.00013521543
2.0303768e-05
0.00016551493
-0.14587288
8.118633e-05
-0.00013978795
0.0002279662
0.14556488
-0.14561117
0.00012362892
6.496399e-05
-0.16456131
0.13005265
6.5206758e-05
0.00017822062
-0.16218654
0.16183655
0.00038612692
-1.5707395e-05
-0.00066806186
0.00033048837
0.14377695
0.00052651331
-0.14477228
0.00034658541
0.0015412963
0.00172232
-0.14309296
0.00095255087
0.0017236489
0.0003768993
0.00039064308
-0.14376634
0.00043235111
0.032367454
-0.16199058
9.4525486e-05
-0.038579945
0.025933056
-0.03234184
-0.023957154
0.022193171
-0.52557608
-0.023974429
-0.00064644803
-0.4942185
0.025298703
-0.033017222
-0.032317647
0.025551447
-0.51142568
-0.023997471
0.019834388
0.025738345
-0.03312261
0.00023721001
0.032353813
0.023131644
-0.023568264
-0.032754988
0.032211474
-0.032577618
-0.031932824
0.03187856
-0.56040494
-0.032513835
-0.00026011452
0.16381251
-4.2021187e-05
-0.1315842
0.00028530386
-0.00029450104
0.16399652
-5.3888013e-05
-0.13155443
0.16451271
7.6998413e-05
-0.11847379
0.11805886
-0.00080462309
-0.00076276922
0.0016691399
0.00078266837
-0.13074339
0.00089437264
0.0018084717
-0.00069107631
1.697099e-05
0.00045155852
0.14368474
0.00044739689
-0.1455049
0.00023012075
0.13014793
-0.16295703
-6.2658432e-05
0.0014439425
0.00094909513
0.0021297255
0.0014064022
-0.0010112544
0.0010740115
-0.14415099
0.0016417234
-0.13123158
0.00098390238
0.00032354711
-0.00074286845
0.13017565
-0.00064307981
-0.16183902
0.00031235304
0.0011377536
0.0018881335
-0.14378088
0.00152613
0.0017495588
-0.00053434363
-0.1447751
0.0005121554
0.00037333099
-0.14528694
0.00030614084
-0.00012636637
-0.14556641
0.00027279578
9.1021889e-05
8.5192004e-05
-0.14581982
4.9475857e-05
-0.13094077
4.1002522e-06
0.00018350835
7.8676284e-05
-5.2731109e-05
-0.00048570931
0.00013634895
-0.00017935604
-0.16475212
0.00015698052
-0.14587401
0.00011223183
-0.00016919424
0.00021629284
-0.14561199
0.00015546114
5.2444143e-05
-0.16456281
0.13005361
0.00020810627
-0.16218734
4.5239354e-05
1.1582883e-05
0.00036686994
-0.14492693
0.00029567633
0.00014053058
-0.14495471
0.00025462742
0.00019755593
-0.00010192087
-0.00017780214
-0.14506005
0.00021364238
0.00017141553
-0.032237387
-0.00018807631
-0.13018543
0.00032163938
-0.49562906
-0.032637178
0.032710993
-0.032029168
0.032891786
-0.00078626895
-0.032573358
0.032919304
0.032385522
-0.03203408
-0.032452616
-0.56134626
0.023848973
-0.023471804
-0.032698282
0.033126824
-0.64966499
0.16522719
0.00042362943
-0.11849212
0.00057932042
-0.00044891028
-0.00025863002
0.13172597
9.6486116e-06
-0.16479639
-0.00018345471
3.010523e-06
0.00035005815
-0.14599754
0.00014421542
9.4208414e-05
-9.7698146e-05
-0.14608439
0.0001120116
8.2190302e-05
-0.16373606
-4.052242e-05
-0.13104875
8.2965551e-05
0.00021244652
0.0001277536
3.8135703e-05
-4.8346403e-05
-0.16350723
-0.00047627047
-0.16514588
0.13164468
0.00015802293
-0.00024394242
-0.16473331
0.00019580408
0.00035862631
-0.14599339
8.5291451e-05
0.00010247595
3.3843872e-05
7.2569177e-05
-0.14590365
-0.00014276941
2.9900873e-05
0.14574096
7.6896945e-05
-0.14567114
0.13168708
-6.1739535e-05
-0.16458541
0.16461916
0.00015981106
0.00018603705
0.13174366
4.7389387e-05
7.478784e-06
5.3821565e-05
-0.14572303
0.00013126983
0.00013389771
-0.1458068
0.00010927713
-8.3218186e-05
-0.14514275
0.00015952378
0.00014029439
-0.16228902
-1.3197007e-06
-0.1301767
0.00018042124
0.00025258801
0.00013222297
-0.00013115813
-0.16227358
0.14509801
2.5821477e-05
8.2930307e-05
-0.14504464
-9.1407638e-05
9.8385405e-05
0.00012870697
0.00011407896
-9.3568151e-05
-0.14440084
0.00010541683
0.14439689
0.00010618154
-8.6149429e-05
0.14567637
8.7289163e-05
-0.1456686
0.16407794
8.3230466e-05
-0.1313106
0.0001309419
5.7008889e-05
0.14563409
0.00010814012
0.00014727188
0.14556619
0.00012608174
0.00019119778
-0.00011315332
0.14545773
0.00019962367
0.00013421442
0.13116736
6.3176131e-05
0.16322705
-7.6684893e-05
0.0001019056
0.13079431
-0.00052186132
0.00014990883
0.15582111
0.0015059497
0.00031259543
0.57863197
0.0072163299
0.0020847659
-0.14418232
-0.14326863
-0.15502963
0.58023908
0.010909971
0.004980197
-0.57862837
-0.58416215
-0.57950847
0.0068150415
0.0053808889
-0.58016822
0.004130815
0.011751362
0.0022274848
0.0064569015
-0.14501596
-0.14617878
-0.14439584
-0.14320737
-0.0070760566
0.57853458
0.0062028574
0.0010488619
-0.14489604
-0.14518871
-0.14336845
-0.14302955
0.57848749
0.00082283831
-0.15519997
-0.14341345
-0.14314659
-0.15501687
0.010494269
0.0017212113
0.011859232
0.001791961
-0.0029905452
0.58316643
-0.57497989
0.0047200414
0.0019431994
0.58574623
0.0041428046
-0.5778513
-0.57658505
-0.57130106
0.0059182432
0.013201927
-0.57555752
0.002525527
0.0044218092
-0.0048065322
0.0028365639
-0.14370772
-0.14451814
-0.14319972
-0.14259163
0.0037483901
0.0024125028
-0.1435856
-0.14486467
-0.14404425
-0.14285024
0.0048266907
0.0014879944
-0.14337843
-0.14375954
-0.14299117
-0.14255008
0.57208102
0.0023797682
-0.14271073
-0.14335427
-0.1428584
-0.14211981
0.0042456828
0.0027361226
0.0052894062
-0.0048936734
0.5700383
0.001845145
-0.56975171
0.0054980533
-0.011918792
-0.00012452945
0.58253357
-0.57344073
-0.010497864
0.57945728
-0.57747487
-0.0016113763
0.58445224
-0.0026133188
-0.57767268
-0.575841
-0.57291943
0.0079736322
0.00044269421
-0.57612558
0.010572189
0.00012278108
9.0418692e-05
0.0074009507
-0.1548564
-0.14307597
-0.14301772
-0.15475369
0.00011397283
0.0072437996
-0.15506056
-0.14319437
-0.1548969
-0.14306961
0.00023935078
0.0063896504
-0.14483678
-0.14496877
-0.14308965
-0.14291601
0.57630527
0.0066777613
0.0001321622
-0.14286032
-0.14294017
-0.14486644
-0.14480796
0.012194895
0.00015175346
0.5786004
0.0056145904
-0.57233438
0.00018976364
-0.56687067
0.00063083871
0.016777147
-0.56770411
0.0003374631
0.0079557037
-0.0019081311
-0.0060279203
-0.14146699
-0.14263756
0.00028583935
0.007428284
-0.14096083
-0.1424168
-0.0053010473
-0.14216351
-0.14296116
-0.14258843
-0.1415447
0.0052787783
0.00079063099
-0.1432624
-0.14346443
-0.1426131
-0.14231483
-0.14331404
-0.14234323
0.00017286573
-0.1432211
-0.14218841
-0.00024590766
0.0010913998
-0.14283668
0.00012392547
-0.0014467716
-0.00025401229
-0.0013948663
-0.14289007
0.0010306435
-0.00038677885
-0.0013256396
0.00094444932
-0.14295047
-0.00035482164
-0.0012662103
-0.14302442
0.00088024487
-0.00062272018
-0.0012267988
0.0008342089
-0.14309905
-0.00060427553
-0.0012042036
-0.1432163
0.00081645684
-0.0017501552
0.00097060919
-0.14330549
-0.0013839042
-0.0012696567
0.00093815911
-0.14309746
-0.13023863
0.0010681924
7.7476086e-05
-0.00035250364
-0.16199309
0.13199947
-3.2267496e-05
-0.0091325689
-0.14671431
0.0011901173
-0.14373518
0.0011997262
0.001599159
-0.00037322057
0.00035375881
-0.14427381
0.00052582238
-0.14376961
0.00045858974
-0.00012147572
-0.1438816
0.0003083971
0.00022074322
-0.03231748
-0.12958265
0.00015244256
0.032288125
-0.03225677
-0.59144586
-0.024096342
0.02447677
-0.024074963
-0.032226285
0.024496749
-0.12958165
0.00017094768
9.4374577e-05
0.0002325799
-0.16224356
0.00023776467
-0.00027013687
-0.14391209
0.14387965
0.00022043997
0.00031471653
0.14492527
-0.14495407
0.00016485657
-0.00028450529
0.00031070229
0.00011108463
6.1686053e-05
-0.00016880424
0.00033901501
0.14390589
0.00017277175
-0.14418719
7.3656515e-05
0.14511114
0.0001221336
-0.14545543
-0.032087001
0.16322332
7.4362781e-05
-0.13116482
0.0012409181
6.7426724e-05
0.54831849
-0.54940471
0.031930371
-0.032382597
-0.032559491
0.53257414
-0.00077419653
-0.66462313
0.0005454285
0.0022048675
-0.53609621
0.0023270981
0.00012458342
-0.0012067334
-0.67079824
-8.0481112e-05
0.54731608
-0.54782116
-0.032385551
0.031930523
0.031977637
-0.032322383
0.00016554379
-0.00039938777
-0.032649322
0.026001665
0.026092726
-0.032575253
0.00025730679
0.025901437
-0.032733944
-0.032635387
0.026013981
0.15581209
-0.13079074
0.00029005897
0.0015097278
0.0019776425
0.0072386915
-0.15502879
-0.14326713
-0.14416992
0.0070788008
0.00070366109
-0.15518602
-0.15501177
-0.14339725
-0.14314233
-0.0021348435
0.5784423
0.00094195146
0.0062352169
-0.1448847
-0.14516869
-0.14334232
-0.14301011
0.58011913
0.0064996901
-0.1461677
-0.14501373
-0.14319879
-0.14437949
0.0040505359
0.011791258
0.0016675662
0.011885476
-0.577333
-0.0017299816
0.011880881
-0.0072048213
0.00010947196
0.0063890339
-0.14304925
-0.14493572
-0.14481414
-0.14288562
-0.00021981877
-0.14317417
-0.1550401
-0.15488671
-0.14306428
0.57605606
0.0072832256
-0.14305695
-0.15483109
-0.15474015
-0.14301815
-8.8120631e-06
0.010454013
-9.9880839e-06
-0.57614589
0.012053114
-1.01906e-05
0.0065827264
-0.14289287
-0.14482237
-0.144779
-0.14283555
-6.1218943e-06
-0.00064994853
0.57195859
0.0059773534
-0.142225
-0.14322538
-0.14314765
-0.14209408
-1.1148297e-05
-0.0013929277
0.0053550024
0.57314869
-0.14253254
-0.14340501
-0.14320486
-0.14222927
-0.002332088
0.57482063
0.0048895223
-0.14372967
-0.14335041
-0.14250591
-0.14294978
0.57778117
0.0048688647
-0.14485168
-0.14357779
-0.1428332
-0.14402377
0.585657
0.0029202787
0.0041914038
-0.58303511
-0.57108797
-0.57647812
0.013485009
0.0047728302
0.0018184478
-0.0024678251
-0.57185191
0.0026173058
0.0053872973
-0.57548778
0.0045014038
0.0027523534
-0.14450595
-0.14318921
-0.14368853
-0.1425733
0.0038366644
0.0022715872
-0.1426554
-0.14331214
-0.14280886
-0.14205357
0.0043483336
0.5691992
0.0016917222
-0.14285306
-0.14246149
-0.14202184
-0.14136399
0.0054360495
-0.0049091877
0.0016586263
0.0055571292
-0.00024921257
0.0055475915
-2.206503e-05
-0.56674496
0.0078912665
-8.2738364e-05
-0.14243151
-0.14116372
-0.14222165
-0.14066008
0.0074498988
-4.8817976e-05
-0.0015280415
-0.00045506578
0.0014371442
-0.1421007
0.00021515717
-0.0010861138
-0.00031565932
-0.14249167
0.0001403967
-0.0014280929
-0.14276427
-0.0002038577
8.4723732e-05
-0.0011634978
-0.00014316645
5.6536439e-05
-0.14307084
-0.0025076151
-9.1935876e-05
-0.14341831
3.1991804e-05
-0.0017301362
-6.1920329e-05
1.8291655e-05
-0.1437908
-0.02607342
-2.8776117e-05
-0.13045724
-1.7951943e-06
-0.0024611262
-3.5150443e-05
-0.54466437
-0.03249859
-0.032465765
0.026056924
-1.0798291e-05
-0.1287553
0.00061493469
-0.52624616
-8.4816195e-06
-1.9566533
0.13315597
-0.13470451
-0.13022564
-7.5862859e-06
-0.0013225945
0.13580768
-0.13410668
-0.12968
0.1313175
8.0522575e-06
-2.4777058
0.0012064815
-0.13180726
0.1333934
0.13617165
-0.13457972
-2.5394586
0.097967291
-0.096787216
-0.13051781
0.13188922
-2.6398361
-0.4752041
0.0010979571
0.00077665485
-0.0011757442
-0.00014461535
-0.66454242
0.52718458
0.00065618551
-0.00089408994
-0.65864023
0.0005518313
0.00055118013
3.7908863e-05
-0.57727733
-2.3240012e-05
0.032453052
0.0238344
-0.023736176
-0.032311334
-0.48119423
0.0037032358
0.0003722369
-0.0037548627
-0.60458617
8.2987356e-05
0.023898391
-0.023776025
-0.032345536
0.032553574
-0.5766623
-0.00070305146
4.2871716e-05
0.54932197
0.032605335
0.032727439
-0.032589649
-0.032440641
-0.54888129
0.53193366
-0.0006662467
-0.66467182
0.00058653295
0.0006685721
-0.53482713
0.0007344452
5.2621734e-05
0.00073889514
-8.898505e-05
-0.67072301
0.54774009
5.0155752e-05
0.032619156
0.03260603
-0.032440822
-0.03241499
-0.54737785
-8.1506927e-05
0.00011758052
-0.032321932
0.032590085
0.032620041
-0.032270894
0.032706979
-0.032497118
-0.032318636
0.032589864
-0.00013338586
0.16395995
-0.13134406
6.8148391e-05
0.0001563239
-0.00019888113
-0.13111157
0.00011686399
-0.023513284
-0.11862328
0.00055715309
-0.51338428
-0.02359136
-0.03282091
0.032804874
-0.00064266805
0.02381879
0.00083276021
0.033099912
-0.032723856
-0.023499948
-0.64965333
0.1652237
0.00058615962
-0.11848932
0.00039663797
-0.00028539459
-0.00044171679
0.00010202247
-0.16373396
-7.6363217e-05
2.1701417e-05
0.14599636
-0.14608286
0.00011938108
4.7438649e-05
0.13172461
-0.16479456
-0.00017097859
-2.6834586e-05
0.00036272753
0.00015222881
6.1285123e-05
-2.2456785e-05
-0.14572246
0.000189223
9.6753713e-05
-0.032679482
-0.13174236
0.00020080403
-0.49562638
-0.032055661
-0.032669938
0.032212706
0.032980849
0.032884791
-0.032606832
-0.032062419
0.032357283
-0.032359602
-0.56134056
-0.00037081699
-0.13168531
0.00017248241
0.16461739
0.00015104693
-0.1316429
0.00016359902
0.00046993976
0.00012554958
-0.00023242263
-0.16472983
-0.00015467807
-0.16514067
0.13104633
4.1114508e-05
-8.4942422e-05
-0.16350271
8.6533535e-05
0.00017604431
-0.145991
6.6377522e-05
9.1895821e-05
3.9767251e-05
3.5795628e-05
-0.1458999