/*--------------------------------*- C++ -*----------------------------------*\
  =========                 |
  \\      /  F ield         | OpenFOAM: The Open Source CFD Toolbox
   \\    /   O peration     | Website:  https://openfoam.org
    \\  /    A nd           | Version:  7
     \\/     M anipulation  |
\*---------------------------------------------------------------------------*/
FoamFile
{
    version     2.0;
    format      ascii;
    class       volScalarField;
    location    "250";
    object      p;
}
// * * * * * * * * * * * * * * * * * * * * * * * * * * * * * * * * * * * * * //

dimensions      [1 -1 -2 0 0 0 0];

internalField   nonuniform List<scalar> 
24789
(
101299.96
101299.97
101299.96
101299.95
101299.76
101298.52
101298.72
101298.73
101298.74
101298.73
101297.45
101297.45
101297.45
101297.44
101297.22
101295.86
101296.08
101296.09
101296.1
101296.1
101294.66
101294.66
101294.65
101294.64
101294.41
101292.87
101293.1
101293.12
101293.12
101293.12
101291.47
101291.47
101291.46
101291.45
101291.22
101289.43
101289.66
101289.67
101289.68
101289.68
101287.73
101287.74
101287.73
101287.72
101287.5
101285.38
101285.58
101285.59
101285.6
101285.6
101283.24
101283.25
101283.24
101283.22
101283.05
101280.48
101280.61
101280.62
101280.63
101280.63
101277.7
101277.71
101277.7
101277.69
101277.61
101274.4
101274.4
101274.41
101274.42
101274.42
101270.7
101270.71
101270.7
101270.7
101270.78
101266.68
101266.51
101266.51
101266.51
101266.5
101261.72
101261.74
101261.74
101261.75
101262.03
101256.72
101256.32
101256.29
101256.28
101256.26
101250.01
101250.04
101250.07
101250.1
101250.63
101243.63
101242.97
101242.91
101242.87
101242.82
101234.54
101234.6
101234.66
101234.75
101235.56
101226.16
101225.18
101225.07
101224.98
101224.9
101213.6
101213.7
101213.82
101213.98
101215.15
101202.16
101200.75
101200.54
101200.38
101200.24
101184.23
101184.4
101184.62
101184.89
101186.6
101167.74
101165.67
101165.32
101165.03
101164.82
101141.72
101141.99
101142.37
101142.82
101145.3
101117.44
101114.83
101114.25
101113.75
101113.38
101074.15
101074.63
101075.28
101075.99
101078.28
101036.62
101033.25
101032.21
101031.3
101030.73
101013.29
101013.89
101015.46
101017.43
101025.37
100921.08
100914.79
100912.97
100912.19
100911.07
100315.86
100339.04
100355.08
100374.07
100548.69
100867.88
100815.95
100805.87
100796.32
100782.64
100961.73
100975.93
100981.9
100989.48
101019.11
101180.33
101139.07
101129.26
101118.98
101101.99
101468.47
101495.49
101517.38
101536.08
101544.16
101119.28
100928.06
100907.17
100890.8
100863.78
101009.92
101015.23
101015.64
101015.86
101027.84
100787.24
100563.78
100536.46
100510.35
100476.29
100490.72
100499.11
100503.03
100510.93
100612.44
100927.33
100920.01
100918.82
100918.17
100917.7
101011.77
101012.5
101013.85
101015.51
101023.22
101036.43
101034.21
101033.34
101032.57
101032.05
101075.32
101075.72
101076.28
101076.9
101078.76
101118.33
101115.83
101115.32
101114.9
101114.59
101142.77
101143
101143.32
101143.71
101146.23
101168.51
101166.32
101166.01
101165.78
101165.6
101184.81
101184.95
101185.12
101185.36
101187.2
101202.61
101201.07
101200.89
101200.76
101200.65
101213.9
101213.98
101214.08
101214.22
101215.5
101226.44
101225.37
101225.27
101225.2
101225.13
101234.73
101234.78
101234.83
101234.91
101235.78
101243.82
101243.11
101243.06
101243.02
101242.98
101250.12
101250.15
101250.17
101250.21
101250.77
101256.81
101256.38
101256.36
101256.35
101256.33
101261.76
101261.78
101261.78
101261.79
101262.09
101266.73
101266.54
101266.54
101266.54
101266.53
101270.72
101270.73
101270.73
101270.72
101270.81
101274.41
101274.42
101274.43
101274.44
101274.43
101277.72
101277.72
101277.72
101277.71
101277.62
101280.48
101280.63
101280.64
101280.65
101280.64
101283.26
101283.26
101283.26
101283.24
101283.05
101285.37
101285.6
101285.61
101285.62
101285.61
101287.75
101287.76
101287.75
101287.74
101287.49
101289.42
101289.68
101289.7
101289.7
101289.7
101291.49
101291.49
101291.48
101291.47
101291.2
101292.86
101293.13
101293.14
101293.14
101293.14
101294.68
101294.68
101294.67
101294.66
101294.4
101295.85
101296.1
101296.12
101296.12
101296.12
101297.47
101297.47
101297.47
101297.46
101297.21
101298.51
101298.75
101298.76
101298.76
101298.76
101300.03
101300.03
101300.02
101300.01
101299.76
101298.56
101298.78
101298.79
101298.79
101298.79
101297.51
101297.52
101297.51
101297.5
101297.25
101295.88
101296.14
101296.15
101296.16
101296.15
101294.72
101294.72
101294.72
101294.7
101294.43
101292.89
101293.17
101293.18
101293.18
101293.18
101291.53
101291.53
101291.53
101291.51
101291.24
101289.45
101289.72
101289.74
101289.75
101289.74
101287.79
101287.8
101287.79
101287.78
101287.52
101285.41
101285.64
101285.66
101285.67
101285.66
101283.31
101283.31
101283.3
101283.29
101283.08
101280.51
101280.67
101280.68
101280.69
101280.69
101277.77
101277.77
101277.76
101277.75
101277.65
101274.45
101274.48
101274.48
101274.49
101274.48
101270.78
101270.79
101270.78
101270.78
101270.84
101266.76
101266.6
101266.6
101266.6
101266.59
101261.83
101261.84
101261.84
101261.85
101262.13
101256.84
101256.45
101256.43
101256.42
101256.4
101250.19
101250.21
101250.23
101250.26
101250.79
101243.83
101243.15
101243.1
101243.08
101243.04
101234.77
101234.82
101234.86
101234.93
101235.78
101226.42
101225.38
101225.29
101225.22
101225.16
101213.91
101213.99
101214.08
101214.21
101215.47
101202.57
101201.04
101200.87
101200.75
101200.64
101184.81
101184.94
101185.11
101185.33
101187.17
101168.49
101166.3
101166.02
101165.8
101165.63
101142.73
101142.95
101143.24
101143.62
101146.12
101118.51
101115.95
101115.47
101115.07
101114.79
101076.28
101076.66
101077.18
101077.78
101079.65
101033.85
101032.36
101031.58
101030.87
101030.41
101005.68
101006.29
101007.57
101009.15
101016.61
100950.8
100944.36
100942.82
100941.86
100941.19
100562.45
100569.04
100570.3
100574.91
100632.35
100600.4
100195.74
100152.2
100112.74
100062.62
101661.55
101644.09
101628.32
101607.95
101383.05
101072.01
100929.77
100911.87
100899.31
100874.39
101420.42
101452.54
101475.55
101495.86
101492.93
101207.11
101255.41
101259.91
101263.79
101261.03
101537.65
101525.65
101513.1
101496.25
101347.09
100587.82
100254.9
100211.03
100168.85
100118.01
100498.27
100508.18
100511.24
100517.89
100593.48
100933.21
100926.33
100924.71
100924.02
100923.01
101000.24
101000.81
101002.03
101003.58
101009.94
101030.45
101028.47
101027.65
101026.89
101026.38
101073.83
101074.27
101074.85
101075.49
101077.47
101116.68
101114.37
101113.85
101113.42
101113.07
101141.47
101141.73
101142.06
101142.46
101144.63
101167.39
101165.55
101165.24
101164.99
101164.79
101184.22
101184.37
101184.57
101184.81
101186.34
101201.95
101200.67
101200.49
101200.34
101200.22
101213.59
101213.69
101213.8
101213.94
101215.01
101226.08
101225.2
101225.09
101225.01
101224.93
101234.6
101234.66
101234.72
101234.8
101235.53
101243.64
101243.04
101242.98
101242.95
101242.9
101250.08
101250.12
101250.14
101250.18
101250.66
101256.75
101256.38
101256.35
101256.34
101256.32
101261.77
101261.79
101261.79
101261.8
101262.06
101266.72
101266.56
101266.56
101266.56
101266.55
101270.74
101270.75
101270.75
101270.74
101270.82
101274.44
101274.44
101274.45
101274.46
101274.45
101277.74
101277.74
101277.74
101277.73
101277.65
101280.52
101280.65
101280.66
101280.67
101280.66
101283.28
101283.28
101283.27
101283.26
101283.1
101285.43
101285.62
101285.63
101285.64
101285.64
101287.77
101287.77
101287.77
101287.75
101287.54
101289.48
101289.7
101289.71
101289.72
101289.72
101291.5
101291.51
101291.5
101291.49
101291.26
101292.91
101293.14
101293.15
101293.16
101293.15
101294.69
101294.69
101294.69
101294.68
101294.45
101295.89
101296.11
101296.12
101296.13
101296.12
101297.48
101297.48
101297.48
101297.47
101297.26
101298.57
101298.75
101298.76
101298.76
101298.76
101298.75
101298.75
101298.75
101298.74
101298.54
101297.24
101297.46
101297.47
101297.48
101297.48
101296.12
101296.12
101296.12
101296.1
101295.88
101294.44
101294.67
101294.69
101294.69
101294.69
101293.16
101293.16
101293.15
101293.14
101292.9
101291.25
101291.49
101291.5
101291.51
101291.51
101289.72
101289.73
101289.72
101289.7
101289.47
101287.53
101287.75
101287.77
101287.78
101287.77
101285.65
101285.65
101285.64
101285.63
101285.42
101283.09
101283.28
101283.29
101283.3
101283.3
101280.68
101280.68
101280.67
101280.66
101280.52
101277.66
101277.74
101277.75
101277.77
101277.76
101274.48
101274.48
101274.47
101274.46
101274.44
101270.82
101270.76
101270.77
101270.78
101270.77
101266.57
101266.59
101266.58
101266.58
101266.73
101262.07
101261.81
101261.81
101261.8
101261.79
101256.34
101256.37
101256.38
101256.4
101256.77
101250.68
101250.18
101250.15
101250.13
101250.1
101242.92
101242.97
101243
101243.06
101243.69
101235.61
101234.83
101234.75
101234.69
101234.63
101224.98
101225.06
101225.14
101225.25
101226.21
101215.18
101214.01
101213.86
101213.75
101213.65
101200.26
101200.39
101200.54
101200.74
101202.17
101186.6
101184.83
101184.57
101184.37
101184.22
101164.74
101164.94
101165.2
101165.53
101167.72
101145.18
101142.52
101142.1
101141.77
101141.51
101113.17
101113.5
101113.94
101114.47
101117.31
101078.29
101075.75
101075.09
101074.51
101074.08
101029
101029.47
101030.28
101031.2
101035.03
101020.68
101011.35
101009.63
101008.33
101007.96
100924.78
100924.94
100924.37
100924.69
100924.24
100558.27
100413.09
100397.56
100385.9
100367.7
100522.59
100551.45
100572.7
100595.81
100776.97
101215.53
101318.78
101323.87
101326.73
101325.07
100959.52
100978.59
100987.59
100998.04
101085.54
101570.43
101557.8
101537.8
101514.53
101485.05
101844.29
101991.44
102011.78
102026.18
102030.1
102120.96
102114.1
102106.64
102087.37
101793.97
101628.59
101659.84
101652.21
101643.52
101621.42
101510.23
101518.41
101521.82
101522.66
101462.4
101290.55
101371.84
101380.15
101385.52
101390.79
101169.4
101180
101189.03
101194.18
101196.08
100640.46
100425.87
100397.67
100372.64
100334.63
100499.73
100509.37
100513.87
100522.4
100606.41
100932.86
100928.18
100926.57
100925.46
100924.28
101004.45
101005.25
101006.59
101008.24
101013
101032.14
101030.89
101029.98
101029.13
101028.55
101074.69
101075.16
101075.8
101076.48
101077.99
101117
101114.95
101114.4
101113.92
101113.56
101141.75
101142.02
101142.38
101142.81
101144.85
101167.47
101165.68
101165.35
101165.08
101164.87
101184.22
101184.38
101184.59
101184.84
101186.37
101201.97
101200.68
101200.48
101200.32
101200.19
101213.57
101213.67
101213.79
101213.94
101215.02
101226.08
101225.17
101225.06
101224.97
101224.89
101234.56
101234.62
101234.68
101234.76
101235.52
101243.63
101243.02
101242.96
101242.92
101242.87
101250.05
101250.09
101250.11
101250.15
101250.65
101256.74
101256.36
101256.34
101256.32
101256.3
101261.74
101261.76
101261.77
101261.78
101262.05
101266.71
101266.54
101266.53
101266.54
101266.52
101270.73
101270.74
101270.74
101270.73
101270.81
101274.43
101274.43
101274.44
101274.45
101274.44
101277.73
101277.74
101277.73
101277.72
101277.65
101280.52
101280.64
101280.65
101280.66
101280.66
101283.28
101283.28
101283.27
101283.26
101283.1
101285.42
101285.61
101285.62
101285.63
101285.63
101287.76
101287.77
101287.76
101287.75
101287.54
101289.47
101289.7
101289.71
101289.72
101289.71
101291.5
101291.5
101291.5
101291.49
101291.26
101292.91
101293.14
101293.15
101293.16
101293.15
101294.69
101294.7
101294.69
101294.68
101294.45
101295.9
101296.12
101296.13
101296.14
101296.13
101297.5
101297.5
101297.49
101297.48
101297.27
101298.58
101298.77
101298.78
101298.78
101298.78
101298.77
101298.77
101298.76
101298.75
101298.53
101297.23
101297.48
101297.49
101297.5
101297.49
101296.14
101296.14
101296.13
101296.12
101295.86
101294.42
101294.68
101294.7
101294.7
101294.7
101293.16
101293.16
101293.16
101293.15
101292.88
101291.22
101291.49
101291.51
101291.51
101291.51
101289.72
101289.72
101289.72
101289.7
101289.44
101287.5
101287.76
101287.77
101287.78
101287.77
101285.64
101285.64
101285.63
101285.62
101285.39
101283.06
101283.27
101283.28
101283.29
101283.28
101280.66
101280.67
101280.66
101280.65
101280.49
101277.63
101277.73
101277.74
101277.75
101277.74
101274.45
101274.46
101274.45
101274.44
101274.43
101270.82
101270.75
101270.75
101270.76
101270.75
101266.56
101266.57
101266.56
101266.56
101266.74
101262.11
101261.82
101261.81
101261.81
101261.79
101256.36
101256.38
101256.39
101256.41
101256.84
101250.79
101250.23
101250.2
101250.18
101250.15
101243.01
101243.05
101243.08
101243.13
101243.84
101235.8
101234.93
101234.85
101234.8
101234.75
101225.15
101225.22
101225.29
101225.39
101226.46
101215.53
101214.25
101214.11
101214.01
101213.92
101200.69
101200.8
101200.93
101201.12
101202.65
101187.26
101185.43
101185.19
101185
101184.86
101165.7
101165.88
101166.13
101166.45
101168.61
101146.34
101143.92
101143.51
101143.18
101142.93
101114.96
101115.29
101115.75
101116.28
101118.58
101079.35
101078.03
101077.37
101076.76
101076.33
101032.09
101032.62
101033.48
101034.39
101035.38
101019.78
101013.71
101011.9
101010.44
101009.69
100932.22
100932.74
100933.09
100934.66
100937.08
100628.37
100532.03
100523.98
100518.6
100508.84
100413.08
100445.34
100468.68
100495.61
100736.81
101087.09
101109.28
101107.87
101106.58
101097.45
100842.83
100873.77
100901.85
100929.25
101152.74
101595.99
101952.02
101992.91
102028.37
102063.4
101055.49
101078.28
101095.76
101110.6
101194.86
100958.58
100884.25
100871.65
100862.24
100838.94
100903.14
100906.21
100906.85
100907.48
100901.83
100552.45
100341.72
100316.62
100294.9
100267.05
100916.35
100916.95
100916.72
100917.41
100917.91
101022.71
101015.06
101013.15
101011.64
101011.06
101029.56
101030.12
101031.07
101032.12
101035.69
101078.17
101075.88
101075.16
101074.51
101074.03
101113.19
101113.57
101114.07
101114.66
101117.33
101145.21
101142.69
101142.23
101141.84
101141.56
101164.75
101164.97
101165.26
101165.62
101167.72
101186.6
101184.89
101184.61
101184.39
101184.21
101200.25
101200.38
101200.55
101200.76
101202.17
101215.17
101214.01
101213.85
101213.73
101213.62
101224.92
101225.01
101225.1
101225.21
101226.17
101235.57
101234.77
101234.69
101234.63
101234.56
101242.84
101242.89
101242.93
101242.99
101243.65
101250.64
101250.12
101250.08
101250.06
101250.02
101256.27
101256.3
101256.31
101256.33
101256.73
101262.03
101261.75
101261.74
101261.74
101261.73
101266.51
101266.52
101266.52
101266.52
101266.69
101270.78
101270.71
101270.71
101270.72
101270.71
101274.42
101274.43
101274.42
101274.41
101274.4
101277.62
101277.7
101277.71
101277.72
101277.71
101280.64
101280.64
101280.63
101280.62
101280.49
101283.06
101283.23
101283.25
101283.26
101283.25
101285.61
101285.61
101285.6
101285.59
101285.39
101287.5
101287.72
101287.73
101287.74
101287.74
101289.69
101289.69
101289.69
101289.67
101289.44
101291.23
101291.46
101291.47
101291.48
101291.48
101293.13
101293.13
101293.13
101293.11
101292.88
101294.42
101294.65
101294.67
101294.67
101294.67
101296.11
101296.11
101296.11
101296.09
101295.87
101297.24
101297.45
101297.47
101297.47
101297.47
101298.73
101298.73
101298.73
101298.72
101298.53
101298.54
101298.73
101298.74
101298.75
101298.74
101297.48
101297.48
101297.48
101297.46
101297.24
101295.88
101296.11
101296.12
101296.13
101296.12
101294.69
101294.69
101294.69
101294.67
101294.44
101292.9
101293.14
101293.15
101293.16
101293.15
101291.51
101291.51
101291.5
101291.49
101291.25
101289.46
101289.7
101289.71
101289.72
101289.72
101287.78
101287.78
101287.77
101287.76
101287.53
101285.41
101285.62
101285.63
101285.64
101285.64
101283.28
101283.29
101283.28
101283.26
101283.08
101280.51
101280.66
101280.67
101280.68
101280.67
101277.75
101277.76
101277.75
101277.73
101277.64
101274.43
101274.46
101274.46
101274.47
101274.47
101270.76
101270.77
101270.76
101270.76
101270.81
101266.72
101266.57
101266.57
101266.57
101266.56
101261.8
101261.81
101261.81
101261.82
101262.07
101256.76
101256.39
101256.37
101256.36
101256.34
101250.1
101250.13
101250.15
101250.19
101250.68
101243.69
101243.07
101243.01
101242.98
101242.93
101234.65
101234.71
101234.77
101234.85
101235.61
101226.21
101225.28
101225.16
101225.08
101225.01
101213.69
101213.79
101213.91
101214.06
101215.19
101202.18
101200.8
101200.61
101200.45
101200.33
101184.3
101184.46
101184.67
101184.93
101186.62
101167.76
101165.67
101165.34
101165.07
101164.86
101141.61
101141.87
101142.23
101142.66
101145.23
101117.46
101114.58
101114.02
101113.55
101113.2
101074.16
101074.62
101075.22
101075.92
101078.63
101033.95
101030.35
101029.39
101028.55
101028.03
101004.98
101005.49
101006.87
101008.71
101018.1
100935.13
100936.22
100935.91
100936.57
100936.54
100428.96
100443.18
100450.95
100461.95
100572.57
100661.69
100395.48
100361.05
100331.06
100291.22
101586.61
101574.72
101562.12
101545.19
101363.92
101007.56
100886.5
100873.02
100864.52
100844.48
101223.36
101139.19
101208.94
101125.88
100948.02
100926.56
100907.01
100879.3
101382.18
101378.91
101375.37
101369.53
101314.36
101717.9
101727.53
101732.46
101730.38
101709.83
101458.8
101526.58
101523.2
101517.14
101495.2
101074.96
101108.82
101125.01
101143.49
101234.51
101460.72
101503.91
101507.15
101506.38
101503.93
101486.53
101772.44
101442.97
101519.49
101310.31
101312.57
101305.84
101310.29
101307.26
101305.47
101306.75
101307.2
101298.68
101298.68
101298.68
101298.67
101298.5
101297.21
101297.42
101297.43
101297.43
101297.42
101296.08
101296.09
101296.08
101296.07
101295.86
101294.43
101294.65
101294.66
101294.67
101294.66
101293.14
101293.14
101293.14
101293.12
101292.9
101291.25
101291.48
101291.5
101291.5
101291.5
101289.72
101289.72
101289.72
101289.7
101289.48
101287.54
101287.76
101287.77
101287.78
101287.77
101285.65
101285.65
101285.64
101285.63
101285.44
101283.12
101283.29
101283.3
101283.31
101283.31
101280.7
101280.7
101280.69
101280.68
101280.55
101277.68
101277.76
101277.77
101277.78
101277.77
101274.49
101274.5
101274.49
101274.48
101274.47
101270.86
101270.79
101270.79
101270.8
101270.79
101266.58
101266.59
101266.59
101266.59
101266.76
101262.1
101261.83
101261.82
101261.82
101261.8
101256.35
101256.37
101256.39
101256.41
101256.79
101250.69
101250.2
101250.15
101250.13
101250.1
101242.91
101242.96
101243
101243.06
101243.68
101235.56
101234.81
101234.73
101234.67
101234.6
101224.93
101225.01
101225.1
101225.21
101226.11
101215.04
101213.98
101213.82
101213.7
101213.6
101200.21
101200.35
101200.5
101200.7
101201.98
101186.35
101184.83
101184.57
101184.36
101184.2
101164.79
101165.01
101165.28
101165.61
101167.42
101144.82
101142.7
101142.27
101141.91
101141.63
101113.19
101113.55
101114.03
101114.58
101116.73
101076.84
101075.2
101074.54
101073.92
101073.46
101030.17
101030.71
101031.56
101032.49
101034.33
101021.41
101017.34
101015.62
101014.19
101013.48
100899.06
100900.22
100901.25
100902.81
100904.97
100559.13
100383.92
100365.23
100350.29
100329.85
100890.15
100898.39
100899.36
100901.7
100905.85
100877.75
100724.54
100704.53
100687.37
100655.03
101263.26
101270.21
101281.44
101288.33
101321.2
101555.72
101558.51
101563.31
101551.58
101382.28
101404.61
101403.79
101409.13
101359.28
101375.87
101421.8
101410.33
101402.55
101375.88
102345.91
102303.59
102267.17
102220.62
101860.27
101770.49
102018.38
102039.65
102055.2
102071.25
101262.83
101269.81
101281.06
101287.98
101321.07
100877.7
100724.41
100704.4
100687.26
100654.92
100890.21
100898.45
100899.42
100901.75
100905.91
100559.19
100383.95
100365.26
100350.34
100329.89
100899.21
100900.37
100901.41
100902.97
100905.16
101021.57
101017.51
101015.79
101014.36
101013.66
101030.3
101030.84
101031.69
101032.62
101034.44
101076.93
101075.3
101074.64
101074.02
101073.56
101113.27
101113.64
101114.11
101114.66
101116.79
101144.86
101142.76
101142.34
101141.98
101141.7
101164.84
101165.06
101165.33
101165.66
101167.46
101186.36
101184.86
101184.6
101184.39
101184.23
101200.22
101200.35
101200.51
101200.71
101201.97
101215.01
101213.96
101213.8
101213.68
101213.58
101224.9
101224.98
101225.07
101225.18
101226.07
101235.5
101234.77
101234.68
101234.62
101234.55
101242.85
101242.9
101242.94
101243
101243.61
101250.62
101250.13
101250.09
101250.06
101250.02
101256.26
101256.29
101256.3
101256.33
101256.71
101262.02
101261.74
101261.73
101261.72
101261.7
101266.49
101266.51
101266.5
101266.51
101266.68
101270.78
101270.7
101270.7
101270.71
101270.69
101274.41
101274.42
101274.41
101274.4
101274.41
101277.62
101277.69
101277.69
101277.7
101277.7
101280.63
101280.63
101280.62
101280.61
101280.49
101283.06
101283.22
101283.23
101283.24
101283.24
101285.59
101285.6
101285.59
101285.58
101285.39
101287.5
101287.71
101287.72
101287.73
101287.72
101289.68
101289.68
101289.67
101289.66
101289.44
101291.22
101291.45
101291.46
101291.47
101291.46
101293.11
101293.11
101293.11
101293.1
101292.87
101294.41
101294.63
101294.64
101294.65
101294.64
101296.08
101296.09
101296.08
101296.07
101295.86
101297.22
101297.42
101297.43
101297.44
101297.43
101298.72
101298.73
101298.73
101298.72
101298.51
101299.76
101299.97
101299.98
101299.99
101299.99
101298.46
101298.65
101298.66
101298.67
101298.67
101297.41
101297.41
101297.41
101297.4
101297.18
101295.83
101296.05
101296.07
101296.07
101296.07
101294.64
101294.65
101294.64
101294.63
101294.39
101292.86
101293.1
101293.12
101293.12
101293.12
101291.48
101291.48
101291.47
101291.46
101291.22
101289.44
101289.68
101289.69
101289.7
101289.7
101287.76
101287.76
101287.75
101287.74
101287.51
101285.4
101285.62
101285.63
101285.64
101285.64
101283.29
101283.29
101283.28
101283.27
101283.08
101280.51
101280.66
101280.67
101280.69
101280.68
101277.77
101277.77
101277.76
101277.75
101277.65
101274.45
101274.47
101274.48
101274.49
101274.49
101270.78
101270.79
101270.78
101270.77
101270.84
101266.75
101266.58
101266.59
101266.59
101266.58
101261.8
101261.82
101261.82
101261.82
101262.1
101256.79
101256.39
101256.37
101256.37
101256.34
101250.09
101250.12
101250.14
101250.18
101250.7
101243.7
101243.03
101242.98
101242.94
101242.89
101234.59
101234.65
101234.71
101234.79
101235.61
101226.2
101225.22
101225.11
101225.02
101224.94
101213.6
101213.71
101213.83
101213.99
101215.17
101202.15
101200.72
101200.51
101200.34
101200.2
101184.14
101184.31
101184.54
101184.82
101186.56
101167.65
101165.51
101165.16
101164.86
101164.64
101141.41
101141.7
101142.08
101142.55
101145.11
101117.18
101114.47
101113.88
101113.38
101113
101073.8
101074.29
101074.94
101075.67
101078
101035.47
101031.88
101030.82
101029.87
101029.31
101010.82
101011.39
101012.91
101014.82
101022.47
100917.67
100917.2
100916.51
100916.74
100916.14
100266.85
100294.71
100316.44
100341.54
100552.22
100901.64
100907.25
100906.61
100905.96
100902.88
100838.75
100862.05
100871.45
100884.05
100958.28
101194.53
101110.77
101096
101078.59
101055.9
102062.2
102027.26
101991.88
101950.97
101594.99
101152.19
100929.06
100901.73
100873.7
100842.87
101385.56
101380.58
101375.49
101367.48
101288.87
101206.97
101253.81
101258.07
101261.68
101258.82
100874.91
100899.86
100912.46
100930.4
101072.96
101007.19
100885.64
100872.14
100863.63
100843.5
100960.05
100979.14
100988.15
100998.61
101086.17
101126.24
100947.93
100926.43
100906.84
100879.1
101382.61
101379.33
101375.79
101369.95
101314.56
100899.77
100756.58
100734.25
100712.11
100679.34
100875.55
100883.15
100885.45
100889.15
100907.89
100548.7
100370.45
100351.74
100337.03
100315.09
100902.89
100904.19
100905.45
100906.85
100906.16
101021.95
101018.09
101016.3
101014.79
101014.13
101030.06
101030.61
101031.5
101032.47
101034.04
101077.01
101075.64
101074.97
101074.34
101073.87
101113.66
101114.02
101114.5
101115.05
101116.97
101144.96
101143.03
101142.61
101142.25
101141.97
101165.02
101165.23
101165.51
101165.83
101167.51
101186.39
101184.97
101184.72
101184.51
101184.35
101200.3
101200.43
101200.59
101200.78
101201.99
101215.02
101214.01
101213.86
101213.74
101213.64
101224.94
101225.02
101225.1
101225.22
101226.07
101235.51
101234.79
101234.7
101234.64
101234.58
101242.87
101242.92
101242.96
101243.02
101243.61
101250.62
101250.14
101250.1
101250.08
101250.04
101256.27
101256.3
101256.31
101256.34
101256.71
101262.03
101261.77
101261.75
101261.75
101261.73
101266.49
101266.51
101266.51
101266.51
101266.68
101270.78
101270.7
101270.7
101270.71
101270.7
101274.41
101274.42
101274.41
101274.4
101274.4
101277.62
101277.68
101277.69
101277.7
101277.69
101280.62
101280.62
101280.61
101280.6
101280.49
101283.06
101283.22
101283.23
101283.24
101283.24
101285.59
101285.6
101285.59
101285.57
101285.39
101287.51
101287.71
101287.73
101287.73
101287.73
101289.67
101289.67
101289.67
101289.65
101289.44
101291.22
101291.44
101291.45
101291.46
101291.46
101293.11
101293.11
101293.1
101293.09
101292.87
101294.41
101294.63
101294.64
101294.65
101294.64
101296.08
101296.09
101296.08
101296.07
101295.85
101297.21
101297.42
101297.43
101297.44
101297.43
101298.72
101298.72
101298.72
101298.71
101298.5
101299.72
101299.89
101299.9
101299.9
101299.9
101298.53
101298.72
101298.73
101298.73
101298.73
101297.46
101297.46
101297.46
101297.45
101297.24
101295.88
101296.1
101296.11
101296.11
101296.11
101294.68
101294.69
101294.68
101294.67
101294.44
101292.9
101293.14
101293.15
101293.15
101293.15
101291.51
101291.51
101291.5
101291.49
101291.26
101289.48
101289.7
101289.72
101289.72
101289.72
101287.78
101287.79
101287.78
101287.77
101287.55
101285.44
101285.64
101285.65
101285.66
101285.66
101283.3
101283.31
101283.3
101283.28
101283.12
101280.55
101280.67
101280.68
101280.69
101280.69
101277.77
101277.78
101277.77
101277.76
101277.68
101274.47
101274.48
101274.49
101274.5
101274.49
101270.78
101270.79
101270.78
101270.78
101270.85
101266.76
101266.59
101266.59
101266.59
101266.58
101261.8
101261.82
101261.82
101261.83
101262.1
101256.78
101256.41
101256.38
101256.37
101256.35
101250.11
101250.14
101250.17
101250.21
101250.69
101243.67
101243.07
101243.01
101242.97
101242.92
101234.62
101234.68
101234.74
101234.83
101235.56
101226.11
101225.24
101225.13
101225.05
101224.97
101213.64
101213.75
101213.86
101214.01
101215.05
101202
101200.78
101200.58
101200.43
101200.3
101184.33
101184.49
101184.7
101184.95
101186.39
101167.49
101165.8
101165.47
101165.2
101164.99
101141.94
101142.21
101142.57
101143
101144.94
101116.93
101115.01
101114.46
101113.98
101113.61
101073.81
101074.28
101074.91
101075.59
101076.96
101033.94
101032.37
101031.41
101030.51
101029.96
101014.02
101014.66
101016.17
101017.97
101021.83
100905.93
100906.69
100905.28
100904.04
100902.75
100314.88
100336.83
100351.55
100370.25
100548.46
100907.77
100889.06
100885.36
100883.06
100875.48
100679.43
100712.17
100734.29
100756.59
100899.71
101022.17
100945.78
100936.23
100926.73
100910.08
100668.21
100688.19
100700.27
100714.84
100831.73
100604.33
100460.63
100447.49
100438.02
100423.36
100917.36
100917.96
100918.82
100920.35
100927.17
101023.38
101017.51
101015.91
101014.57
101014.04
101031.82
101032.27
101033.05
101033.88
101035.37
101078.42
101076.88
101076.28
101075.72
101075.33
101114.67
101114.97
101115.38
101115.88
101118.26
101146.18
101143.72
101143.34
101143.04
101142.82
101165.66
101165.83
101166.06
101166.35
101168.5
101187.2
101185.39
101185.16
101184.99
101184.86
101200.71
101200.81
101200.94
101201.11
101202.62
101215.52
101214.27
101214.14
101214.05
101213.97
101225.21
101225.27
101225.34
101225.44
101226.46
101235.82
101234.98
101234.91
101234.86
101234.81
101243.07
101243.11
101243.14
101243.19
101243.86
101250.82
101250.29
101250.26
101250.24
101250.21
101256.43
101256.45
101256.45
101256.47
101256.87
101262.15
101261.88
101261.87
101261.87
101261.86
101266.62
101266.63
101266.62
101266.62
101266.79
101270.86
101270.8
101270.81
101270.82
101270.81
101274.51
101274.51
101274.51
101274.5
101274.47
101277.67
101277.77
101277.78
101277.79
101277.79
101280.7
101280.71
101280.7
101280.69
101280.52
101283.09
101283.3
101283.31
101283.32
101283.32
101285.67
101285.67
101285.66
101285.65
101285.41
101287.52
101287.78
101287.79
101287.8
101287.8
101289.74
101289.74
101289.74
101289.72
101289.46
101291.24
101291.51
101291.52
101291.53
101291.53
101293.17
101293.17
101293.17
101293.16
101292.88
101294.42
101294.69
101294.7
101294.7
101294.7
101296.13
101296.13
101296.13
101296.11
101295.86
101297.22
101297.47
101297.48
101297.48
101297.48
101298.74
101298.74
101298.73
101298.73
101298.52
101298.48
101298.69
101298.7
101298.71
101298.7
101297.45
101297.45
101297.45
101297.44
101297.19
101295.83
101296.09
101296.1
101296.11
101296.1
101294.68
101294.69
101294.68
101294.67
101294.4
101292.87
101293.14
101293.15
101293.16
101293.15
101291.51
101291.52
101291.51
101291.5
101291.22
101289.44
101289.72
101289.73
101289.74
101289.73
101287.79
101287.8
101287.79
101287.78
101287.51
101285.41
101285.65
101285.66
101285.67
101285.67
101283.32
101283.32
101283.31
101283.3
101283.09
101280.53
101280.69
101280.7
101280.71
101280.71
101277.79
101277.8
101277.79
101277.78
101277.67
101274.47
101274.5
101274.51
101274.52
101274.51
101270.81
101270.82
101270.81
101270.81
101270.87
101266.8
101266.62
101266.62
101266.63
101266.62
101261.85
101261.87
101261.87
101261.88
101262.17
101256.89
101256.47
101256.45
101256.44
101256.42
101250.2
101250.23
101250.24
101250.28
101250.84
101243.88
101243.17
101243.11
101243.08
101243.05
101234.78
101234.83
101234.88
101234.95
101235.83
101226.47
101225.4
101225.3
101225.23
101225.16
101213.9
101213.99
101214.09
101214.23
101215.52
101202.61
101201.06
101200.87
101200.74
101200.63
101184.76
101184.9
101185.08
101185.31
101187.18
101168.47
101166.25
101165.95
101165.71
101165.53
101142.67
101142.91
101143.22
101143.62
101146.16
101118.23
101115.71
101115.2
101114.77
101114.46
101075.18
101075.58
101076.14
101076.77
101078.64
101036.3
101034.08
101033.21
101032.44
101031.91
101011.58
101012.31
101013.66
101015.32
101023.03
100927.06
100919.73
100918.53
100917.89
100917.42
100490.64
100499.04
100502.97
100510.87
100612.43
100787.11
100563.76
100536.44
100510.33
100476.27
101009.74
101015.07
101015.49
101015.71
101027.67
101119.18
100927.99
100907.1
100890.73
100863.7
101469.07
101496.02
101517.83
101536.48