/*--------------------------------*- C++ -*----------------------------------*\
  =========                 |
  \\      /  F ield         | OpenFOAM: The Open Source CFD Toolbox
   \\    /   O peration     | Website:  https://openfoam.org
    \\  /    A nd           | Version:  7
     \\/     M anipulation  |
\*---------------------------------------------------------------------------*/
FoamFile
{
    version     2.0;
    format      ascii;
    class       volScalarField;
    location    "390";
    object      rho;
}
// * * * * * * * * * * * * * * * * * * * * * * * * * * * * * * * * * * * * * //

dimensions      [1 -3 0 0 0 0 0];

internalField   nonuniform List<scalar> 
25201
(
1.1738737
1.1738643
1.173874
1.1738653
1.1738424
1.1738508
1.1738578
1.1738596
1.1738507
1.1738356
1.1738504
1.1738502
1.1738418
1.1738914
1.173901
1.1738383
1.1738517
1.1738553
1.1738398
1.1738934
1.1738617
1.1738585
1.1738399
1.173882
1.1738915
1.1738799
1.1738601
1.1738505
1.1738579
1.1738696
1.173873
1.173856
1.1739267
1.1739171
1.1739048
1.1739044
1.1738529
1.1738649
1.1739161
1.1739239
1.1738619
1.1738665
1.1738772
1.1739324
1.1739285
1.1739174
1.1738873
1.173867
1.1738404
1.1738433
1.1738395
1.1738338
1.1738391
1.1738394
1.1738382
1.1738353
1.1738447
1.1738576
1.1738407
1.1738579
1.1738276
1.1738637
1.1738426
1.1738413
1.173815
1.1738233
1.1738189
1.1738182
1.1738378
1.1738406
1.1738648
1.1738341
1.1738598
1.1738403
1.1738426
1.1738697
1.1738407
1.1738467
1.1738839
1.1738697
1.1738741
1.1738574
1.1738932
1.1738675
1.1738936
1.1738462
1.1738926
1.1738939
1.1738811
1.1738775
1.1738454
1.1739177
1.173886
1.1739212
1.1738983
1.1738499
1.1738711
1.1739207
1.1739277
1.1739357
1.1739161
1.1739279
1.1739384
1.1739373
1.1739093
1.1739517
1.1739371
1.1738947
1.1739187
1.173938
1.1739109
1.1738946
1.1739384
1.1739389
1.1739664
1.1739839
1.1739517
1.1739657
1.1739687
1.1739417
1.1739182
1.1739808
1.1739426
1.1739631
1.1739768
1.1739303
1.1739329
1.1739182
1.1738769
1.1739122
1.1739196
1.1739247
1.1739159
1.1739107
1.1739066
1.1738948
1.1738906
1.1738912
1.1738626
1.1738433
1.1738347
1.1738422
1.1738573
1.1738265
1.1738558
1.17384
1.1738391
1.1738376
1.1738389
1.1738229
1.1738148
1.173841
1.1738377
1.1738182
1.1738187
1.1738157
1.1738331
1.1738376
1.173857
1.1738388
1.1738643
1.1738321
1.173845
1.1738718
1.1738547
1.1738662
1.1738809
1.1738454
1.173907
1.1738868
1.1738931
1.1738671
1.1738663
1.1738687
1.173853
1.1738791
1.1738666
1.1738924
1.1739382
1.1738991
1.1739281
1.1738688
1.1739226
1.1739531
1.1739068
1.1739684
1.1739232
1.1739712
1.1739673
1.1739741
1.1739562
1.1739385
1.1739371
1.1738905
1.1739165
1.1738441
1.1738772
1.1739663
1.1739779
1.1739138
1.173934
1.1739095
1.1739503
1.1738837
1.1739182
1.1739355
1.1739389
1.1739355
1.1738935
1.173942
1.1739618
1.173976
1.1739302
1.1739559
1.1739276
1.1739362
1.173865
1.1738733
1.173842
1.1738489
1.1738578
1.1738773
1.1739138
1.1738715
1.1738679
1.1738605
1.1738667
1.1739279
1.1739316
1.1739244
1.1739219
1.1739132
1.1738637
1.1738506
1.1738533
1.1739007
1.1739008
1.1738899
1.1738564
1.1738501
1.1736478
1.1736595
1.1736906
1.1737277
1.1740127
1.1745483
1.1745464
1.1745387
1.1745293
1.1745254
1.1742359
1.1742441
1.1742477
1.1742503
1.1742729
1.1742673
1.1742562
1.1742533
1.1742485
1.174242
1.1741338
1.1741425
1.1741483
1.1741522
1.174172
1.1741256
1.174105
1.1741006
1.1740941
1.1740845
1.1740291
1.1740396
1.1740467
1.1740516
1.1740743
1.1740362
1.174013
1.1740079
1.1740004
1.1739892
1.1739523
1.1739641
1.173972
1.1739774
1.1740014
1.1739718
1.1739471
1.1739415
1.1739332
1.1739208
1.173892
1.173905
1.1739136
1.1739194
1.1739449
1.1739207
1.1738942
1.1738882
1.1738793
1.1738657
1.1738413
1.1738553
1.1738646
1.1738708
1.1738983
1.1738773
1.1738487
1.1738422
1.1738327
1.1738181
1.173796
1.173811
1.1738209
1.1738277
1.1738573
1.1738381
1.1738072
1.1738002
1.17379
1.1737744
1.1737535
1.1737695
1.1737801
1.1737874
1.1738194
1.1738011
1.1737677
1.1737601
1.1737492
1.1737327
1.1737121
1.1737292
1.1737404
1.1737483
1.1737831
1.1737651
1.1737288
1.1737207
1.173709
1.1736915
1.1736706
1.1736887
1.1737007
1.1737091
1.173747
1.1737288
1.1736893
1.1736805
1.1736682
1.1736495
1.1736285
1.1736476
1.1736604
1.1736695
1.1737106
1.1736918
1.1736488
1.1736393
1.1736261
1.1736064
1.173584
1.1736043
1.1736179
1.1736278
1.1736727
1.1736534
1.1736063
1.1735961
1.173582
1.173561
1.1735375
1.1735591
1.1735737
1.1735844
1.1736335
1.1736127
1.1735613
1.1735502
1.1735351
1.1735128
1.1734857
1.1735088
1.1735245
1.1735362
1.1735904
1.1735691
1.1735112
1.173499
1.1734826
1.1734584
1.1734368
1.1734617
1.1734784
1.1734909
1.1735499
1.173524
1.1734612
1.1734479
1.1734302
1.1734045
1.1735259
1.1734429
1.1734281
1.1734087
1.1733811
1.1734133
1.17344
1.1734584
1.1734724
1.1735513
1.1735704
1.1734929
1.1734792
1.1734611
1.173435
1.1734607
1.1734857
1.1735033
1.1735165
1.17359
1.1736125
1.1735438
1.1735313
1.1735145
1.1734905
1.173516
1.1735392
1.1735554
1.1735675
1.1736333
1.1736531
1.17359
1.1735783
1.1735626
1.17354
1.1735637
1.1735856
1.1736008
1.173612
1.1736725
1.1736917
1.1736338
1.1736231
1.1736084
1.1735871
1.1736098
1.1736304
1.1736445
1.1736549
1.1737104
1.1737287
1.1736752
1.1736653
1.1736515
1.1736315
1.1736532
1.1736726
1.1736859
1.1736954
1.1737468
1.173765
1.1737158
1.1737066
1.1736937
1.1736748
1.173696
1.1737143
1.1737267
1.1737356
1.1737829
1.1738008
1.1737553
1.1737468
1.1737347
1.1737169
1.1737381
1.1737553
1.1737669
1.1737752
1.1738189
1.1738374
1.1737953
1.1737873
1.173776
1.1737594
1.1737812
1.1737973
1.1738082
1.1738158
1.1738565
1.1738762
1.1738371
1.1738297
1.1738191
1.1738035
1.1738268
1.1738418
1.173852
1.1738591
1.1738969
1.173919
1.1738824
1.1738756
1.1738657
1.1738512
1.1738772
1.1738912
1.1739007
1.1739073
1.1739427
1.1739689
1.1739344
1.173928
1.1739189
1.1739055
1.1739362
1.173949
1.1739578
1.1739639
1.1739978
1.1740315
1.1739983
1.1739924
1.1739841
1.1739719
1.1740101
1.1740216
1.1740296
1.1740352
1.1740682
1.1741168
1.1740855
1.1740803
1.1740729
1.1740621
1.1741104
1.17412
1.1741267
1.1741314
1.1741615
1.1742464
1.1742214
1.1742174
1.1742116
1.1742028
1.1742377
1.1742434
1.1742475
1.1742504
1.1742704
1.1744603
1.1743965
1.1743895
1.1743823
1.1743745
1.1743224
1.1743401
1.1743411
1.1743349
1.174272
1.1745339
1.1732579
1.1731385
1.1730182
1.172884
1.1746103
1.1746168
1.1746191
1.1746149
1.1745495
1.1746243
1.1745633
1.1745572
1.1745518
1.1745473
1.1743615
1.174364
1.1743669
1.1743685
1.174376
1.1743192
1.1743004
1.1742972
1.1742921
1.174285
1.1741682
1.1741767
1.1741827
1.1741868
1.1742118
1.1741534
1.1741258
1.174121
1.174114
1.1741041
1.1740416
1.1740525
1.1740601
1.1740654
1.1740954
1.1740524
1.1740216
1.1740159
1.1740078
1.1739961
1.1739552
1.1739676
1.1739762
1.1739822
1.1740141
1.173982
1.173949
1.1739428
1.1739338
1.1739207
1.1738895
1.1739033
1.1739126
1.1739191
1.1739534
1.1739278
1.1738922
1.1738854
1.1738757
1.1738613
1.1738353
1.1738502
1.1738603
1.1738674
1.1739043
1.1738824
1.1738441
1.1738368
1.1738263
1.1738108
1.1737876
1.1738035
1.1738144
1.1738219
1.1738618
1.1738421
1.1738006
1.1737928
1.1737816
1.173765
1.1737432
1.1737602
1.1737718
1.17378
1.1738231
1.1738045
1.1737596
1.1737512
1.1737392
1.1737216
1.1737003
1.1737184
1.1737308
1.1737395
1.1737862
1.1737681
1.1737195
1.1737103
1.1736976
1.1736789
1.1736575
1.1736767
1.1736899
1.1736994
1.17375
1.173732
1.1736794
1.1736695
1.1736559
1.1736361
1.1736143
1.1736347
1.1736487
1.1736589
1.1737135
1.1736944
1.1736373
1.1736267
1.1736122
1.1735911
1.1735675
1.1735892
1.1736043
1.1736153
1.173675
1.1736555
1.1735932
1.1735817
1.1735661
1.1735437
1.1735196
1.1735426
1.1735587
1.1735706
1.1736356
1.1736147
1.1735469
1.1735345
1.1735179
1.1734941
1.1734644
1.1734893
1.1735066
1.1735197
1.1735922
1.1735727
1.1734964
1.1734829
1.173465
1.1734391
1.1734182
1.1734446
1.1734628
1.1734766
1.1735541
1.1735296
1.1734484
1.1734338
1.1734146
1.1733873
1.1733502
1.1733789
1.1733991
1.1734147
1.1735022
1.1733705
1.1733972
1.1734156
1.1734297
1.1734985
1.1735262
1.173462
1.1734487
1.1734312
1.1734056
1.1734333
1.1734581
1.1734751
1.1734877
1.1735495
1.1735698
1.1735106
1.1734984
1.1734821
1.1734579
1.1734813
1.1735047
1.1735206
1.1735324
1.1735893
1.173612
1.1735589
1.1735476
1.1735323
1.1735099
1.173535
1.1735567
1.1735715
1.1735822
1.1736331
1.173653
1.1736044
1.173594
1.1735797
1.1735585
1.1735818
1.1736024
1.1736162
1.1736261
1.1736726
1.1736922
1.1736477
1.1736382
1.1736248
1.1736049
1.1736273
1.1736466
1.1736595
1.1736687
1.1737112
1.1737297
1.1736889
1.1736801
1.1736676
1.1736488
1.1736698
1.173688
1.1737001
1.1737086
1.1737478
1.1737659
1.1737284
1.1737202
1.1737085
1.1736908
1.1737118
1.1737289
1.1737403
1.1737481
1.1737842
1.1738026
1.173768
1.1737604
1.1737494
1.1737327
1.1737539
1.1737701
1.1737807
1.173788
1.1738212
1.1738404
1.1738085
1.1738014
1.1737911
1.1737754
1.1737975
1.1738127
1.1738227
1.1738294
1.1738602
1.1738809
1.1738513
1.1738448
1.1738352
1.1738205
1.1738446
1.1738588
1.1738681
1.1738744
1.1739028
1.1739264
1.1738991
1.173893
1.173884
1.1738704
1.1738983
1.1739114
1.17392
1.1739258
1.1739522
1.173981
1.1739556
1.17395
1.1739417
1.1739292
1.1739636
1.1739755
1.1739834
1.1739887
1.1740134
1.1740521
1.1740282
1.1740232
1.1740157
1.1740046
1.1740505
1.1740608
1.1740677
1.1740724
1.1740959
1.1741555
1.1741339
1.1741297
1.1741234
1.1741141
1.1741816
1.1741893
1.1741947
1.1741982
1.174218
1.1743339
1.1743217
1.1743193
1.1743151
1.1743096
1.1744181
1.1744173
1.1744182
1.1744185
1.1744233
1.1747434
1.1747488
1.1747511
1.1747549
1.1747619
1.1749959
1.1749715
1.1749495
1.1749323
1.1748768
1.1739166
1.1735945
1.1735607
1.1735412
1.1735556
1.174674
1.174675
1.1746863
1.1746962
1.1746907
1.1743093
1.1742852
1.1742825
1.1742776
1.1742669
1.1742784
1.1742838
1.1742884
1.1742912
1.1743013
1.1741935
1.1741735
1.1741698
1.174164
1.1741555
1.1741027
1.174112
1.1741184
1.1741227
1.1741429
1.1740877
1.1740652
1.1740604
1.1740534
1.174043
1.1740008
1.1740119
1.1740194
1.1740244
1.1740472
1.1740104
1.1739868
1.1739815
1.1739736
1.1739618
1.173929
1.1739414
1.1739496
1.1739551
1.1739794
1.1739515
1.1739263
1.1739206
1.173912
1.1738991
1.173872
1.1738855
1.1738944
1.1739003
1.1739264
1.1739033
1.1738761
1.1738699
1.1738607
1.1738467
1.1738231
1.1738377
1.1738472
1.1738536
1.1738818
1.1738613
1.173832
1.1738253
1.1738155
1.1738005
1.1737788
1.1737942
1.1738044
1.1738113
1.1738418
1.1738228
1.1737912
1.173784
1.1737735
1.1737575
1.1737367
1.1737531
1.1737639
1.1737714
1.1738043
1.1737861
1.1737518
1.1737441
1.1737329
1.173716
1.1736953
1.1737128
1.1737243
1.1737323
1.173768
1.17375
1.1737127
1.1737044
1.1736925
1.1736745
1.1736536
1.1736721
1.1736844
1.173693
1.1737318
1.1737135
1.173673
1.173664
1.1736513
1.1736323
1.1736105
1.1736301
1.1736431
1.1736525
1.1736948
1.1736758
1.1736315
1.1736217
1.1736082
1.173588
1.1735651
1.1735859
1.1735999
1.17361
1.1736563
1.1736364
1.1735879
1.1735773
1.1735628
1.1735414
1.1735168
1.173539
1.173554
1.173565
1.1736158
1.1735943
1.1735408
1.1735293
1.1735138
1.1734909
1.1734648
1.1734886
1.1735047
1.1735167
1.1735727
1.1735511
1.1734924
1.1734798
1.173463
1.1734383
1.173409
1.1734346
1.1734521
1.1734653
1.1735271
1.1735013
1.1734356
1.1734218
1.1734036
1.173377
1.1733695
1.1733963
1.1734148
1.1734289
1.1734979
1.1735257
1.1734613
1.1734481
1.1734305
1.1734049
1.1734326
1.1734575
1.1734745
1.1734872
1.173549
1.1735692
1.1735098
1.1734976
1.1734812
1.173457
1.1734802
1.1735037
1.1735196
1.1735314
1.1735885
1.1736111
1.1735578
1.1735466
1.1735313
1.1735088
1.1735337
1.1735555
1.1735703
1.1735811
1.1736322
1.1736522
1.1736033
1.1735929
1.1735785
1.1735573
1.1735806
1.1736011
1.173615
1.173625
1.1736718
1.1736914
1.1736467
1.1736371
1.1736236
1.1736037
1.1736261
1.1736455
1.1736584
1.1736677
1.1737105
1.1737291
1.173688
1.1736791
1.1736665
1.1736477
1.1736687
1.1736869
1.1736991
1.1737077
1.1737472
1.1737654
1.1737275
1.1737192
1.1737075
1.1736897
1.1737107
1.1737279
1.1737393
1.1737473
1.1737836
1.173802
1.1737671
1.1737595
1.1737484
1.1737317
1.1737529
1.1737691
1.1737798
1.1737871
1.1738207
1.1738398
1.1738075
1.1738004
1.1737901
1.1737743
1.1737965
1.1738117
1.1738217
1.1738286
1.1738595
1.1738802
1.1738504
1.1738438
1.1738341
1.1738194
1.1738435
1.1738577
1.1738671
1.1738734
1.173902
1.1739255
1.173898
1.1738919
1.1738829
1.1738692
1.1738969
1.1739101
1.1739187
1.1739245
1.1739511
1.1739798
1.1739542
1.1739486
1.1739403
1.1739277
1.1739619
1.1739738
1.1739817
1.173987
1.174012
1.1740504
1.1740264
1.1740213
1.1740138
1.1740027
1.1740484
1.1740587
1.1740657
1.1740704
1.174094
1.1741535
1.1741319
1.1741277
1.1741214
1.1741122
1.1741794
1.1741871
1.1741924
1.1741959
1.1742158
1.1743328
1.1743206
1.1743183
1.1743143
1.1743089
1.1744133
1.1744127
1.1744136
1.1744139
1.1744192
1.1747583
1.1747605
1.1747631
1.1747672
1.1747756
1.1749693
1.1749447
1.1749231
1.174907
1.1748486
1.1743967
1.1744495
1.1744597
1.1744732
1.1744904
1.1746475
1.1746442
1.1746482
1.1746525
1.1746833
1.1743633
1.1743527
1.1743508
1.1743473
1.1743432
1.1742817
1.174288
1.1742929
1.1742959
1.1743122
1.1742024
1.1741772
1.174173
1.1741668
1.1741581
1.1740967
1.1741066
1.1741136
1.1741184
1.1741457
1.1740888
1.1740588
1.1740535
1.1740458
1.1740349
1.1739906
1.1740023
1.1740105
1.1740162
1.1740469
1.1740095
1.1739776
1.1739716
1.173963
1.1739505
1.1739167
1.1739299
1.1739389
1.1739451
1.1739781
1.17395
1.1739158
1.1739093
1.1738999
1.1738861
1.1738584
1.1738728
1.1738825
1.1738893
1.1739248
1.1739017
1.1738647
1.1738577
1.1738476
1.1738326
1.1738085
1.1738239
1.1738344
1.1738417
1.1738801
1.1738597
1.1738198
1.1738122
1.1738013
1.1737853
1.173763
1.1737795
1.1737908
1.1737986
1.1738402
1.1738213
1.173778
1.1737698
1.1737582
1.1737412
1.1737197
1.1737373
1.1737493
1.1737578
1.1738028
1.1737845
1.1737377
1.1737289
1.1737165
1.1736983
1.1736769
1.1736957
1.1737085
1.1737176
1.1737664
1.1737483
1.1736974
1.1736879
1.1736747
1.1736554
1.173634
1.1736539
1.1736676
1.1736774
1.1737303
1.1737119
1.1736569
1.1736467
1.1736326
1.1736121
1.173589
1.1736101
1.1736247
1.1736354
1.1736928
1.1736734
1.1736132
1.1736021
1.1735869
1.1735651
1.1735413
1.1735638
1.1735795
1.173591
1.1736539
1.1736339
1.1735683
1.1735563
1.1735401
1.173517
1.1734913
1.1735152
1.173532
1.1735445
1.1736129
1.1735902
1.1735169
1.1735037
1.1734862
1.1734612
1.1734359
1.1734619
1.1734799
1.1734936
1.1735708
1.1735523
1.1734739
1.1734599
1.1734415
1.1734149
1.1733835
1.1734111
1.1734304
1.1734451
1.1735274
1.1734997
1.1734113
1.1733955
1.1733751
1.1733461
1.1734982
1.1734316
1.1734176
1.1733992
1.1733724
1.1734055
1.1734312
1.1734488
1.1734621
1.1735248
1.1735505
1.1734913
1.1734788
1.173462
1.1734372
1.1734585
1.1734826
1.173499
1.1735113
1.1735693
1.1735905
1.1735363
1.1735246
1.1735089
1.1734857
1.173513
1.1735353
1.1735504
1.1735615
1.1736129
1.1736337
1.1735846
1.1735739
1.1735593
1.1735376
1.1735614
1.1735824
1.1735965
1.1736067
1.1736536
1.173673
1.1736282
1.1736184
1.1736047
1.1735844
1.173607
1.1736268
1.17364
1.1736494
1.1736922
1.1737112
1.1736702
1.1736612
1.1736484
1.1736292
1.1736504
1.1736691
1.1736814
1.1736901
1.1737295
1.1737476
1.1737099
1.1737015
1.1736895
1.1736714
1.1736924
1.17371
1.1737215
1.1737296
1.1737658
1.1737839
1.1737492
1.1737414
1.1737302
1.1737131
1.1737339
1.1737505
1.1737613
1.1737688
1.1738021
1.1738205
1.1737885
1.1737813
1.1737708
1.1737547
1.1737759
1.1737915
1.1738017
1.1738086
1.1738394
1.1738588
1.1738292
1.1738225
1.1738127
1.1737976
1.1738201
1.1738346
1.1738441
1.1738506
1.1738791
1.1739005
1.173873
1.1738668
1.1738576
1.1738436
1.1738686
1.1738821
1.173891
1.1738969
1.1739234
1.1739483
1.1739227
1.1739169
1.1739084
1.1738954
1.1739251
1.1739375
1.1739457
1.1739511
1.173976
1.1740068
1.1739825
1.1739773
1.1739695
1.1739577
1.1739963
1.1740074
1.1740147
1.1740196
1.1740433
1.1740838
1.1740603
1.1740557
1.1740488
1.1740385
1.1740977
1.1741068
1.1741131
1.1741172
1.1741389
1.174191
1.1741692
1.1741657
1.1741602
1.174152
1.1742737
1.1742789
1.1742829
1.1742852
1.1742986
1.1743181
1.1742918
1.1742895
1.1742851
1.1742759
1.1746745
1.1746732
1.1746826
1.1746902
1.1746904
1.1740188
1.1737418
1.1737152
1.1737039
1.1737237
1.1738153
1.1738267
1.1738589
1.1738957
1.1741796
1.1746577
1.1746521
1.1746452
1.1746375
1.174634
1.1743007
1.1743078
1.1743115
1.1743136
1.1743375
1.1743138
1.1743012
1.1742987
1.1742943
1.1742887
1.1741667
1.1741748
1.1741803
1.1741838
1.1742045
1.1741502
1.1741293
1.1741252
1.1741189
1.1741098
1.1740483
1.1740586
1.1740655
1.1740701
1.174093
1.174051
1.1740279
1.174023
1.1740156
1.1740046
1.1739646
1.1739764
1.1739842
1.1739894
1.1740133
1.1739815
1.173957
1.1739515
1.1739434
1.173931
1.1739005
1.1739135
1.173922
1.1739277
1.173953
1.1739276
1.1739013
1.1738954
1.1738865
1.173873
1.1738476
1.1738616
1.1738708
1.173877
1.1739042
1.1738823
1.1738541
1.1738477
1.1738382
1.1738236
1.1738009
1.1738159
1.1738258
1.1738324
1.1738618
1.1738421
1.1738116
1.1738047
1.1737945
1.173779
1.1737577
1.1737737
1.1737842
1.1737914
1.1738231
1.1738045
1.1737715
1.1737641
1.1737532
1.1737368
1.1737161
1.173733
1.1737442
1.1737519
1.1737862
1.1737681
1.1737323
1.1737243
1.1737128
1.1736954
1.1736746
1.1736925
1.1737044
1.1737127
1.17375
1.1737319
1.1736931
1.1736844
1.1736722
1.1736537
1.1736327
1.1736516
1.1736643
1.1736732
1.1737135
1.1736946
1.1736525
1.1736432
1.1736301
1.1736106
1.1735882
1.1736083
1.1736218
1.1736314
1.1736754
1.173656
1.17361
1.1735999
1.1735859
1.1735652
1.1735417
1.173563
1.1735775
1.173588
1.173636
1.1736153
1.173565
1.1735541
1.1735392
1.1735171
1.1734902
1.1735132
1.1735287
1.1735401
1.1735932
1.173572
1.1735153
1.1735033
1.1734871
1.1734632
1.1734418
1.1734662
1.1734827
1.173495
1.1735529
1.1735276
1.173466
1.173453
1.1734356
1.1734102
1.1733776
1.173404
1.1734221
1.1734359
1.1735013
1.1738653
1.1738515
1.1738651
1.1738511
1.1738264
1.1738408
1.1738479
1.1738471
1.1738401
1.173841
1.1738222
1.1738113
1.17384
1.1738201
1.1737965
1.1738056
1.1738186
1.1738085
1.173785
1.1737785
1.1737955
1.1738134
1.1737982
1.1737941
1.1738102
1.1738193
1.1738098
1.1737795
1.1737867
1.1737761
1.1737892
1.17376
1.1737769
1.1737593
1.1737419
1.1737256
1.1737645
1.1737603
1.1737769
1.1737854
1.1737889
1.1737706
1.1737674
1.1737927
1.1738092
1.1738145
1.1738412
1.1738386
1.1738407
1.1738179
1.1738186
1.1738435
1.1738701
1.1738382
1.1738644
1.1738419
1.1738415
1.173837
1.1738636
1.1738726
1.1738482
1.1738401
1.1744971
1.1745366
1.1745511
1.1745703
1.1745823
1.1745669
1.1745646
1.1745622
1.1745609
1.1745597
1.1742989
1.17429
1.1742887
1.1742868
1.1742852
1.1742297
1.1742367
1.1742415
1.1742445
1.1742589
1.1741653
1.1741431
1.1741391
1.1741332
1.1741246
1.1740751
1.1740849
1.1740916
1.1740962
1.1741195
1.1740698
1.1740447
1.1740397
1.1740325
1.1740218
1.1739836
1.173995
1.1740027
1.1740079
1.1740331
1.1739993
1.1739734
1.1739679
1.1739599
1.1739478
1.1739173
1.17393
1.1739384
1.1739441
1.1739705
1.1739442
1.173917
1.173911
1.1739023
1.1738891
1.1738633
1.173877
1.1738861
1.1738923
1.1739204
1.1738982
1.1738691
1.1738627
1.1738534
1.1738391
1.1738162
1.1738309
1.1738406
1.1738472
1.1738774
1.1738575
1.1738262
1.1738194
1.1738093
1.1737941
1.1737728
1.1737885
1.1737988
1.173806
1.1738384
1.1738198
1.1737861
1.1737787
1.173768
1.1737518
1.1737312
1.1737478
1.1737589
1.1737665
1.1738016
1.1737836
1.1737471
1.1737391
1.1737277
1.1737105
1.17369
1.1737077
1.1737194
1.1737277
1.1737656
1.1737477
1.1737081
1.1736996
1.1736875
1.1736693
1.1736483
1.1736671
1.1736796
1.1736884
1.1737296
1.1737113
1.1736684
1.1736592
1.1736463
1.173627
1.1736052
1.1736251
1.1736384
1.173648
1.1736927
1.1736738
1.173627
1.1736171
1.1736033
1.1735828
1.1735599
1.173581
1.1735952
1.1736055
1.1736543
1.1736343
1.1735832
1.1735725
1.1735577
1.1735359
1.1735113
1.1735337
1.173549
1.1735602
1.1736137
1.1735924
1.1735363
1.1735245
1.1735087
1.1734854
1.1734586
1.1734827
1.1734992
1.1735115
1.1735704
1.1735477
1.1734858
1.1734729
1.1734558
1.1734308
1.173401
1.173427
1.1734449
1.1734583
1.1735236
1.173498
1.1734288
1.1734147
1.173396
1.1733691
1.1734013
1.173427
1.1734447
1.173458
1.173523
1.1735473
1.1734849
1.1734721
1.1734551
1.1734301
1.1734561
1.1734803
1.1734968
1.173509
1.1735687
1.1735884
1.1735311
1.1735192
1.1735031
1.1734796
1.1735078
1.1735303
1.1735457
1.173557
1.1736107
1.1736316
1.1735802
1.1735693
1.1735545
1.1735326
1.1735561
1.1735773
1.1735917
1.1736021
1.1736514
1.1736707
1.1736235
1.1736135
1.1735995
1.1735789
1.1736015
1.1736215
1.173635
1.1736446
1.1736897
1.1737082
1.173665
1.1736557
1.1736427
1.1736233
1.1736448
1.1736636
1.1736761
1.1736851
1.1737265
1.1737449
1.1737052
1.1736966
1.1736844
1.1736661
1.1736873
1.173705
1.1737168
1.1737251
1.1737631
1.1737807
1.1737442
1.1737362
1.1737247
1.1737075
1.173728
1.1737447
1.1737558
1.1737635
1.1737986
1.1738167
1.173783
1.1737756
1.1737648
1.1737486
1.1737694
1.1737852
1.1737955
1.1738026
1.1738351
1.173854
1.1738227
1.1738159
1.1738058
1.1737906
1.1738123
1.1738271
1.1738368
1.1738434
1.1738735
1.1738939
1.1738649
1.1738585
1.1738491
1.1738348
1.1738585
1.1738723
1.1738813
1.1738875
1.1739155
1.1739387
1.1739116
1.1739057
1.173897
1.1738838
1.1739112
1.1739239
1.1739322
1.1739379
1.1739642
1.173992
1.1739664
1.1739609
1.1739529
1.1739408
1.173975
1.1739865
1.1739941
1.1739993
1.1740244
1.1740593
1.1740345
1.1740295
1.1740223
1.1740115
1.1740611
1.1740711
1.1740778
1.1740822
1.1741054
1.1741475
1.1741257
1.1741218
1.1741158
1.174107
1.1741977
1.1742053
1.1742102
1.1742132
1.1742284
1.174261
1.1742515
1.1742499
1.1742474
1.1742441
1.1744534
1.1744534
1.174453
1.1744533
1.1744622
1.1744101
1.1744343
1.174446
1.174459
1.1744627
1.1740691
1.1740798
1.1741371
1.1742271
1.1746048
1.1782738
1.1799569
1.180122
1.1802391
1.1803092
1.1733193
1.1733082
1.1733288
1.1733646
1.1737197
1.1745892
1.1745977
1.174589
1.1745793
1.1745776
1.174167
1.1741776
1.1741831
1.1741864
1.174213
1.1742342
1.1742231
1.1742201
1.1742153
1.1742089
1.1740992
1.1741085
1.1741145
1.1741185
1.1741399
1.1741029
1.1740815
1.174077
1.1740704
1.1740605
1.1740098
1.1740206
1.1740278
1.1740327
1.1740562
1.1740228
1.1739991
1.1739939
1.1739863
1.1739749
1.1739413
1.1739533
1.1739613
1.1739667
1.1739911
1.1739641
1.1739391
1.1739334
1.1739251
1.1739125
1.1738858
1.1738989
1.1739075
1.1739134
1.1739392
1.1739165
1.1738898
1.1738838
1.1738748
1.1738612
1.173838
1.1738521
1.1738614
1.1738677
1.1738953
1.1738752
1.1738466
1.1738401
1.1738305
1.1738159
1.1737946
1.1738097
1.1738196
1.1738263
1.173856
1.1738374
1.1738066
1.1737996
1.1737894
1.1737738
1.1737535
1.1737695
1.17378
1.1737873
1.1738193
1.1738015
1.1737681
1.1737606
1.1737498
1.1737333
1.1737133
1.1737302
1.1737414
1.1737492
1.1737838
1.1737662
1.1737301
1.173722
1.1737105
1.173693
1.1736727
1.1736907
1.1737026
1.173711
1.1737485
1.1737306
1.1736915
1.1736828
1.1736705
1.173652
1.1736309
1.17365
1.1736627
1.1736717
1.1737125
1.173694
1.1736514
1.173642
1.1736289
1.1736093
1.1735872
1.1736074
1.173621
1.1736307
1.1736752
1.1736559
1.1736093
1.1735992
1.1735851
1.1735643
1.1735408
1.1735623
1.1735768
1.1735874
1.1736361
1.1736157
1.1735647
1.1735536
1.1735386
1.1735163
1.1734909
1.173514
1.1735296
1.1735411
1.1735946
1.1735729
1.1735167
1.1735047
1.1734884
1.1734645
1.173437
1.1734618
1.1734786
1.1734912
1.1735502
1.173526
1.1734639
1.1734507
1.1734332
1.1734077
1.1733763
1.1734025
1.1734207
1.1734345
1.1735005
1.1733987
1.1734246
1.1734424
1.1734559
1.1735218
1.1735463
1.173484
1.1734711
1.1734539
1.1734289
1.1734567
1.1734808
1.1734973
1.1735096
1.173569
1.1735906
1.1735341
1.1735223
1.1735065
1.1734832
1.1735094
1.1735319
1.1735472
1.1735584
1.1736122
1.1736328
1.1735813
1.1735705
1.1735558
1.173534
1.1735577
1.1735788
1.1735931
1.1736034
1.1736526
1.1736718
1.1736248
1.1736149
1.1736012
1.1735806
1.1736027
1.1736227
1.173636
1.1736455
1.1736905
1.1737069
1.1736627
1.1736532
1.1736401
1.1736205
1.1736431
1.173662
1.1736747
1.1736837
1.1737251
1.1737444
1.1737049
1.1736962
1.1736839
1.1736657
1.173689
1.1737066
1.1737183
1.1737265
1.1737639
1.1737809
1.1737442
1.1737363
1.1737248
1.1737075
1.1737277
1.1737445
1.1737555
1.1737632
1.1737984
1.1738163
1.1737826
1.1737752
1.1737644
1.1737482
1.1737688
1.1737846
1.1737949
1.173802
1.1738345
1.1738532
1.1738219
1.173815
1.1738049
1.1737897
1.1738111
1.1738259
1.1738356
1.1738422
1.1738724
1.1738925
1.1738633
1.173857
1.1738476
1.1738333
1.1738566
1.1738704
1.1738794
1.1738856
1.1739138
1.1739365
1.1739091
1.1739032
1.1738944
1.1738812
1.1739079
1.1739206
1.173929
1.1739348
1.1739614
1.1739884
1.1739623
1.1739568
1.1739487
1.1739365
1.1739697
1.1739813
1.173989
1.1739943
1.1740198
1.1740534
1.1740281
1.174023
1.1740157
1.1740048
1.1740526
1.1740627
1.1740695
1.1740741
1.1740978
1.1741378
1.1741155
1.1741114
1.1741054
1.1740963
1.1741837
1.1741915
1.1741966
1.1741997
1.1742155
1.1742449
1.1742347
1.1742329
1.1742302
1.1742266
1.1744338
1.174434
1.1744336
1.1744337
1.1744417
1.1743932
1.1744192
1.1744297
1.1744414
1.174443
1.1740499
1.1740598
1.1741285
1.1742119
1.1746038
1.1745967
1.1735882
1.173461
1.1733647
1.1732386
1.1769206
1.1769493
1.1768926
1.1767978
1.1762024
1.1771036
1.1781935
1.1783126
1.1783506
1.1783755
1.1746174
1.1746023
1.1745838
1.1745701
1.1745155
1.1745992
1.1745953
1.1745967
1.1745997
1.1746036
1.1743074
1.174309
1.1743106
1.1743114
1.1743177
1.1742745
1.1742613
1.1742587
1.1742543
1.1742476
1.1741382
1.1741466
1.1741522
1.1741559
1.1741766
1.1741279
1.1741057
1.1741013
1.1740948
1.1740852
1.1740294
1.17404
1.1740471
1.1740519
1.1740761
1.174038
1.1740134
1.1740082
1.1740007
1.1739894
1.1739524
1.1739643
1.1739723
1.1739777
1.174003
1.1739734
1.1739474
1.1739418
1.1739335
1.1739209
1.173892
1.1739051
1.1739138
1.1739197
1.1739465
1.1739222
1.1738945
1.1738884
1.1738793
1.1738656
1.173841
1.1738552
1.1738645
1.1738709
1.1738997
1.1738786
1.1738487
1.1738421
1.1738324
1.1738177
1.1737954
1.1738106
1.1738206
1.1738274
1.1738585
1.1738392
1.1738069
1.1737998
1.1737894
1.1737737
1.1737526
1.1737688
1.1737795
1.1737869
1.1738205
1.1738021
1.1737671
1.1737595
1.1737484
1.1737317
1.1737111
1.1737283
1.1737396
1.1737476
1.173784
1.1737659
1.173728
1.1737198
1.1737081
1.1736904
1.1736696
1.1736878
1.1736999
1.1737085
1.1737479
1.1737298
1.1736887
1.1736798
1.1736673
1.1736486
1.1736272
1.1736465
1.1736594
1.1736686
1.1737114
1.1736927
1.1736481
1.1736385
1.1736252
1.1736054
1.173583
1.1736034
1.1736172
1.1736271
1.1736737
1.1736542
1.1736055
1.1735952
1.173581
1.1735599
1.1735362
1.1735579
1.1735727
1.1735834
1.1736343
1.1736137
1.1735604
1.1735492
1.1735339
1.1735115
1.1734858
1.173509
1.1735248
1.1735365
1.1735924
1.1735706
1.1735119
1.1734997
1.1734832
1.1734592
1.1734315
1.1734565
1.1734736
1.1734864
1.1735481
1.1735242
1.1734591
1.1734457
1.1734279
1.173402
1.1733699
1.1733968
1.1734154
1.1734295
1.1734985
1.1735019
1.1734132
1.1733975
1.173377
1.173348
1.1733815
1.1734093
1.1734289
1.1734439
1.1735274
1.1735513
1.1734722
1.173458
1.1734392
1.1734124
1.1734407
1.1734664
1.1734844
1.173498
1.1735734
1.1735949
1.1735232
1.1735102
1.1734929
1.1734681
1.1734948
1.1735188
1.1735355
1.1735479
1.1736161
1.1736367
1.1735715
1.1735596
1.1735435
1.1735203
1.1735449
1.1735673
1.1735828
1.1735943
1.1736566
1.173676
1.1736163
1.1736053
1.1735903
1.1735686
1.1735916
1.1736127
1.1736272
1.1736378
1.173695
1.1737136
1.1736587
1.1736485
1.1736345
1.173614
1.1736359
1.1736558
1.1736694
1.1736792
1.1737319
1.1737499
1.1736993
1.1736898
1.1736767
1.1736573
1.1736786
1.1736974
1.1737101
1.1737193
1.1737679
1.1737859
1.1737391
1.1737303
1.1737179
1.1736998
1.1737209
1.1737386
1.1737506
1.173759
1.1738041
1.1738225
1.1737792
1.173771
1.1737593
1.1737422
1.1737639
1.1737805
1.1737917
1.1737996
1.1738413
1.1738608
1.1738206
1.173813
1.1738021
1.173786
1.1738089
1.1738244
1.173835
1.1738423
1.173881
1.1739024
1.173865
1.1738579
1.1738477
1.1738327
1.173858
1.1738725
1.1738823
1.1738891
1.1739252
1.1739499
1.1739149
1.1739084
1.1738989
1.173885
1.1739147
1.173928
1.1739371
1.1739434
1.1739773
1.1740077
1.1739746
1.1739685
1.1739598
1.1739471
1.1739852
1.1739972
1.1740055
1.1740113
1.1740436
1.174083
1.1740509
1.1740454
1.1740375
1.1740262
1.1740834
1.1740939
1.1741012
1.1741062
1.1741364
1.1741858
1.1741562
1.1741517
1.1741451
1.1741359
1.1742489
1.1742566
1.174262
1.1742655
1.1742871
1.1743113
1.1742887
1.174286
1.174282
1.1742761
1.1745629
1.1745643
1.1745705
1.1745771
1.1746187
1.174192
1.1741427
1.174143
1.1741474
1.1741522
1.1744589
1.1732446
1.1731334
1.1730224
1.1728993
1.1743744
1.1743816
1.1743807
1.1743738
1.1742986
1.1744637
1.1744053
1.1743988
1.1743926
1.1743851
1.1742378
1.1742423
1.1742461
1.1742485
1.1742602
1.1742413
1.1742205
1.1742168
1.174211
1.1742023
1.174107
1.1741164
1.174123
1.1741276
1.1741545
1.1741123
1.1740833
1.1740782
1.1740707
1.1740601
1.1740085
1.1740199
1.1740278
1.1740334
1.1740646
1.1740293
1.1739975
1.1739917
1.1739833
1.1739712
1.1739361
1.1739488
1.1739576
1.1739637
1.1739965
1.1739684
1.1739348
1.1739284
1.1739193
1.1739059
1.173878
1.1738919
1.1739014
1.173908
1.1739428
1.1739195
1.1738835
1.1738767
1.1738668
1.1738523
1.1738282
1.1738432
1.1738534
1.1738604
1.1738977
1.1738773
1.1738386
1.1738312
1.1738207
1.1738052
1.173783
1.1737991
1.17381
1.1738176
1.1738577
1.1738389
1.1737972
1.1737893
1.173778
1.1737615
1.1737403
1.1737574
1.173769
1.1737772
1.1738205
1.1738025
1.1737574
1.1737489
1.173737
1.1737194
1.1736985
1.1737166
1.173729
1.1737378
1.1737846
1.1737668
1.1737181
1.173709
1.1736962
1.1736776
1.1736565
1.1736757
1.1736889
1.1736983
1.173749
1.173731
1.1736783
1.1736684
1.1736549
1.1736351
1.1736133
1.1736337
1.1736477
1.1736579
1.1737129
1.1736944
1.1736371
1.1736265
1.173612
1.173591
1.1735681
1.1735898
1.1736047
1.1736157
1.1736755
1.1736562
1.1735938
1.1735823
1.1735669
1.1735445
1.1735201
1.1735432
1.1735592
1.1735712
1.1736364
1.173616
1.1735477
1.1735352
1.1735186
1.1734947
1.1734683
1.173493
1.1735103
1.1735233
1.1735949
1.1735731
1.1734979
1.1734843
1.1734664
1.1734406
1.1734118
1.1734386
1.1734573
1.1734715
1.1735505
1.1735266
1.1734433
1.1734284
1.1734088
1.173381
1.1733477
1.1733767
1.1733971
1.1734128
1.1735012
1.1733756