/*--------------------------------*- C++ -*----------------------------------*\
  =========                 |
  \\      /  F ield         | OpenFOAM: The Open Source CFD Toolbox
   \\    /   O peration     | Website:  https://openfoam.org
    \\  /    A nd           | Version:  7
     \\/     M anipulation  |
\*---------------------------------------------------------------------------*/
FoamFile
{
    version     2.0;
    format      ascii;
    class       volScalarField;
    location    "70";
    object      p;
}
// * * * * * * * * * * * * * * * * * * * * * * * * * * * * * * * * * * * * * //

dimensions      [1 -1 -2 0 0 0 0];

internalField   nonuniform List<scalar> 
25201
(
101315.91
101315.07
101315.93
101315.15
101313.53
101314.01
101314.5
101314.86
101314.27
101313.66
101314.25
101313.96
101313.5
101315.95
101317.5
101312.36
101312.71
101313.47
101309.31
101314.75
101311.98
101313.94
101311.51
101316.44
101315.29
101314.14
101313.64
101312.71
101313.8
101314.44
101314.63
101311.82
101320.81
101318.84
101316.67
101317.98
101313.5
101315.72
101319.88
101321.47
101315.35
101316.47
101315.97
101322
101322.45
101323.06
101318.25
101315.76
101313.9
101313.63
101313.86
101313.94
101314.93
101314.64
101314.05
101313.48
101313.15
101314.22
101314.36
101316.08
101312.66
101315.27
101314.93
101315.17
101313.12
101312.98
101312.99
101313.83
101315.39
101316.21
101317.39
101314.17
101314.6
101314.67
101315.41
101318.42
101315.38
101315.92
101317.3
101315.06
101315.35
101312.86
101317.6
101316.67
101318.98
101315.04
101317.82
101316.32
101313.08
101315.39
101313.22
101319.96
101317.92
101318.7
101317.73
101311.44
101310.36
101317.31
101323.04
101320.92
101320.73
101323.22
101323.22
101321.6
101319.97
101323.97
101325.16
101318.85
101322.18
101323.28
101320.76
101320.34
101327.43
101327.69
101334.24
101331.31
101329.33
101333.41
101332.14
101326.63
101321.32
101330.39
101326.85
101330.51
101334.83
101326.94
101324.7
101322.11
101315.27
101319.31
101320.85
101321.83
101322.96
101322.01
101320.78
101318.93
101317.61
101317.39
101315.17
101313
101313.42
101314.9
101316.06
101312.53
101313.99
101314.29
101314.62
101314
101313.81
101312.96
101313.12
101315.15
101315.41
101313.86
101313
101313.13
101313.89
101313.65
101314.27
101314.55
101317.4
101313.97
101314.91
101315.07
101312.56
101314.68
101316.93
101315.79
101321.52
101318.89
101318.92
101316.64
101316.13
101315.79
101315.96
101317.07
101316.16
101317.3
101323.48
101320.91
101323.31
101317.12
101319.97
101325.61
101322.34
101328.63
101323.81
101328.07
101329.33
101332.77
101327.61
101324.17
101323.38
101317.14
101319.85
101313.06
101312.63
101331.95
101330.14
101320.96
101321.25
101319.93
101323.78
101317.66
101318.31
101322.91
101326.37
101325
101318.72
101326.8
101330.42
101334.81
101326.93
101329.87
101329.4
101325.6
101315.17
101315.94
101312.95
101312.81
101313.83
101315.99
101319.01
101314.79
101314.56
101315.39
101316.49
101322.46
101322.03
101320.9
101321.53
101319.97
101315.8
101313.61
101312.05
101316.89
101318.11
101316.48
101314.07
101312.86
101358.53
101358.63
101358.51
101359.39
101382.34
101438.71
101436.23
101435.07
101433.79
101432.79
101395.89
101395.95
101395.86
101395.99
101399.39
101392.72
101391.34
101391.16
101391.01
101390.92
101374.32
101374.37
101374.43
101374.55
101376.15
101366.31
101365.13
101365.02
101364.96
101364.91
101355.61
101355.65
101355.7
101355.79
101356.8
101349.53
101348.78
101348.71
101348.67
101348.63
101342.56
101342.59
101342.62
101342.68
101343.28
101338.13
101337.66
101337.61
101337.59
101337.56
101333.3
101333.32
101333.34
101333.38
101333.76
101330.06
101329.75
101329.72
101329.7
101329.69
101326.58
101326.59
101326.61
101326.63
101326.89
101324.13
101323.93
101323.91
101323.89
101323.88
101321.52
101321.52
101321.54
101321.55
101321.72
101319.58
101319.45
101319.43
101319.42
101319.42
101317.53
101317.54
101317.54
101317.56
101317.65
101315.91
101315.84
101315.83
101315.82
101315.82
101314.24
101314.25
101314.26
101314.26
101314.31
101312.81
101312.78
101312.78
101312.77
101312.77
101311.35
101311.35
101311.36
101311.37
101311.38
101310.02
101310.02
101310.01
101310.01
101310
101308.72
101308.72
101308.72
101308.72
101308.7
101307.36
101307.38
101307.38
101307.38
101307.38
101306.06
101306.06
101306.06
101306.06
101306.05
101304.73
101304.74
101304.74
101304.74
101304.74
101303.42
101303.42
101303.42
101303.42
101303.41
101302.03
101302.06
101302.06
101302.06
101302.06
101300.55
101300.55
101300.56
101300.57
101300.56
101299.3
101299.25
101299.23
101299.22
101299.2
101298.47
101298.46
101298.45
101298.44
101298.24
101296.26
101296.28
101296.29
101296.3
101296.31
101296.36
101296.5
101296.53
101296.56
101296.59
101298.63
101298.61
101298.59
101298.57
101298.32
101299.39
101299.28
101299.26
101299.25
101299.23
101300.29
101300.32
101300.33
101300.36
101300.46
101301.96
101302.01
101302.01
101302
101301.99
101303.35
101303.35
101303.36
101303.36
101303.34
101304.66
101304.65
101304.64
101304.63
101304.63
101305.93
101305.93
101305.94
101305.94
101305.96
101307.3
101307.3
101307.29
101307.29
101307.29
101308.62
101308.62
101308.62
101308.62
101308.63
101309.95
101309.92
101309.92
101309.92
101309.92
101311.25
101311.25
101311.26
101311.26
101311.31
101312.75
101312.7
101312.7
101312.7
101312.69
101314.15
101314.15
101314.16
101314.17
101314.24
101315.82
101315.72
101315.71
101315.7
101315.7
101317.37
101317.37
101317.38
101317.39
101317.54
101319.43
101319.25
101319.23
101319.22
101319.21
101321.27
101321.28
101321.29
101321.31
101321.54
101323.91
101323.62
101323.6
101323.59
101323.58
101326.21
101326.22
101326.23
101326.26
101326.61
101329.72
101329.28
101329.25
101329.23
101329.22
101332.71
101332.73
101332.75
101332.79
101333.33
101337.59
101336.9
101336.85
101336.83
101336.8
101341.58
101341.6
101341.64
101341.69
101342.57
101348.6
101347.49
101347.42
101347.38
101347.35
101353.94
101353.99
101354.03
101354.12
101355.59
101364.65
101362.86
101362.75
101362.69
101362.64
101371.55
101371.6
101371.66
101371.78
101374.08
101389.23
101386.71
101386.55
101386.47
101386.38
101394.53
101394.59
101394.64
101394.81
101397.57
101427.84
101419.67
101419.04
101418.6
101418.26
101400.05
101401.11
101401.94
101402.65
101406.08
101428.08
101295.51
101276.89
101258.4
101238.37
101451.41
101452.4
101453.56
101454.26
101452.35
101455.57
101448.62
101448.11
101447.82
101447.66
101415.14
101415.08
101415.08
101415.12
101416.15
101401.82
101400.27
101400.19
101400.15
101400.14
101381.18
101381.18
101381.2
101381.26
101382.79
101370.91
101369.67
101369.61
101369.58
101369.56
101359.07
101359.09
101359.11
101359.17
101360.22
101352.08
101351.29
101351.25
101351.22
101351.2
101344.52
101344.53
101344.56
101344.6
101345.22
101339.64
101339.15
101339.12
101339.1
101339.08
101334.49
101334.5
101334.52
101334.55
101334.94
101330.99
101330.68
101330.65
101330.64
101330.63
101327.33
101327.34
101327.35
101327.37
101327.62
101324.72
101324.52
101324.51
101324.5
101324.49
101322.01
101322.01
101322.02
101322.03
101322.2
101319.97
101319.84
101319.83
101319.82
101319.82
101317.86
101317.87
101317.87
101317.88
101317.98
101316.18
101316.11
101316.1
101316.1
101316.09
101314.47
101314.47
101314.47
101314.48
101314.53
101312.99
101312.96
101312.96
101312.96
101312.95
101311.53
101311.53
101311.53
101311.54
101311.55
101310.18
101310.19
101310.19
101310.19
101310.19
101308.86
101308.86
101308.86
101308.86
101308.83
101307.45
101307.46
101307.46
101307.46
101307.46
101306.05
101306.05
101306.06
101306.06
101306.08
101304.75
101304.73
101304.72
101304.72
101304.71
101303.41
101303.41
101303.42
101303.42
101303.41
101302.01
101302.05
101302.04
101302.04
101302.03
101300.34
101300.37
101300.39
101300.41
101300.5
101299.4
101299.31
101299.29
101299.27
101299.25
101298.75
101298.73
101298.72
101298.69
101298.43
101296.74
101297.1
101297.13
101297.15
101297.18
101294.6
101294.59
101294.58
101294.58
101294.59
101294.6
101294.6
101294.59
101294.58
101294.59
101296.75
101297
101297.02
101297.04
101297.06
101298.4
101298.4
101298.4
101298.4
101298.27
101299.43
101299.45
101299.44
101299.43
101299.42
101300.39
101300.41
101300.42
101300.44
101300.51
101302.01
101302.04
101302.04
101302.03
101302.03
101303.43
101303.43
101303.43
101303.44
101303.42
101304.77
101304.77
101304.77
101304.77
101304.77
101306.13
101306.13
101306.13
101306.13
101306.11
101307.48
101307.51
101307.51
101307.51
101307.52
101308.88
101308.88
101308.88
101308.88
101308.85
101310.2
101310.22
101310.22
101310.22
101310.22
101311.55
101311.55
101311.56
101311.56
101311.57
101313.01
101312.98
101312.98
101312.97
101312.97
101314.48
101314.48
101314.49
101314.49
101314.54
101316.19
101316.12
101316.12
101316.11
101316.11
101317.88
101317.89
101317.89
101317.9
101317.99
101319.99
101319.87
101319.86
101319.86
101319.85
101322.04
101322.04
101322.05
101322.07
101322.22
101324.76
101324.57
101324.55
101324.54
101324.53
101327.38
101327.39
101327.41
101327.43
101327.67
101331.05
101330.75
101330.73
101330.71
101330.7
101334.59
101334.6
101334.62
101334.65
101335.02
101339.77
101339.3
101339.26
101339.24
101339.23
101344.73
101344.75
101344.78
101344.82
101345.42
101352.37
101351.61
101351.56
101351.53
101351.51
101359.52
101359.54
101359.57
101359.63
101360.65
101371.62
101370.41
101370.34
101370.3
101370.28
101382.51
101382.51
101382.53
101382.6
101384.11
101404.41
101403.32
101403.26
101403.25
101403.27
101423.7
101423.43
101423.22
101423.08
101423.34
101473.38
101476.12
101476.62
101477.16
101477.85
101512.57
101511.1
101509.61
101508.14
101503.05
101385.91
101368.08
101370.13
101373.41
101377.2
101456.02
101457.18
101458.66
101459.98
101459.85
101404.72
101401.19
101401.11
101401.18
101401.19
101395.64
101395.73
101395.89
101396.06
101397.27
101378.89
101377.24
101377.13
101377.08
101377.04
101367.04
101367.08
101367.14
101367.24
101368.41
101358.35
101357.35
101357.27
101357.22
101357.19
101349.85
101349.88
101349.92
101349.99
101350.73
101344.21
101343.62
101343.57
101343.54
101343.51
101338.32
101338.34
101338.37
101338.41
101338.88
101334.36
101333.99
101333.96
101333.93
101333.92
101330.18
101330.19
101330.21
101330.24
101330.54
101327.27
101327.02
101327
101326.98
101326.97
101324.21
101324.22
101324.23
101324.25
101324.44
101321.97
101321.81
101321.8
101321.79
101321.78
101319.63
101319.64
101319.65
101319.66
101319.78
101317.83
101317.74
101317.73
101317.72
101317.71
101315.97
101315.97
101315.98
101315.99
101316.06
101314.43
101314.38
101314.37
101314.37
101314.37
101312.87
101312.87
101312.88
101312.88
101312.91
101311.48
101311.47
101311.46
101311.46
101311.46
101310.1
101310.11
101310.11
101310.11
101310.11
101308.78
101308.79
101308.79
101308.79
101308.79
101307.47
101307.47
101307.48
101307.48
101307.46
101306.15
101306.16
101306.16
101306.16
101306.16
101304.84
101304.84
101304.84
101304.84
101304.82
101303.49
101303.52
101303.52
101303.52
101303.52
101302.17
101302.17
101302.17
101302.17
101302.13
101300.72
101300.77
101300.77
101300.76
101300.76
101299.42
101299.42
101299.43
101299.43
101299.36
101298.05
101298.16
101298.16
101298.15
101298.15
101296.63
101296.62
101296.62
101296.61
101296.49
101294.56
101294.52
101294.53
101294.54
101294.54
101294.62
101294.61
101294.6
101294.58
101294.59
101296.76
101297.02
101297.04
101297.06
101297.08
101298.42
101298.42
101298.42
101298.42
101298.3
101299.43
101299.44
101299.44
101299.43
101299.42
101300.35
101300.37
101300.39
101300.41
101300.49
101301.98
101302
101301.99
101301.99
101301.98
101303.37
101303.37
101303.38
101303.38
101303.38
101304.73
101304.72
101304.72
101304.71
101304.71
101306.06
101306.06
101306.07
101306.07
101306.07
101307.44
101307.47
101307.47
101307.47
101307.47
101308.84
101308.84
101308.84
101308.84
101308.81
101310.17
101310.19
101310.19
101310.19
101310.19
101311.52
101311.52
101311.53
101311.53
101311.54
101312.98
101312.96
101312.95
101312.95
101312.95
101314.46
101314.46
101314.46
101314.47
101314.52
101316.17
101316.1
101316.09
101316.08
101316.08
101317.85
101317.85
101317.86
101317.87
101317.96
101319.95
101319.83
101319.81
101319.81
101319.8
101322
101322
101322.01
101322.03
101322.18
101324.71
101324.51
101324.49
101324.48
101324.47
101327.31
101327.32
101327.34
101327.36
101327.6
101330.97
101330.67
101330.64
101330.63
101330.61
101334.48
101334.5
101334.52
101334.55
101334.92
101339.64
101339.17
101339.13
101339.11
101339.1
101344.57
101344.59
101344.62
101344.66
101345.27
101352.19
101351.42
101351.37
101351.34
101351.32
101359.31
101359.33
101359.36
101359.42
101360.43
101371.39
101370.2
101370.13
101370.1
101370.08
101382.32
101382.31
101382.32
101382.38
101383.85
101404.29
101403.24
101403.19
101403.19
101403.22
101423.42
101423.14
101422.92
101422.78
101423
101475
101477.18
101477.68
101478.23
101478.94
101514.64
101513.27
101511.81
101510.26
101502.76
101442.66
101446.97
101448.55
101450.36
101452.33
101457.3
101457.57
101458.14
101458.74
101463.07
101414.6
101413.36
101413.37
101413.41
101413.52
101399.55
101399.54
101399.57
101399.64
101400.91
101381.61
101380.09
101380.03
101380.02
101380.02
101368.68
101368.69
101368.72
101368.79
101369.97
101359.45
101358.43
101358.37
101358.34
101358.33
101350.62
101350.63
101350.66
101350.71
101351.47
101344.74
101344.13
101344.1
101344.07
101344.06
101338.72
101338.73
101338.75
101338.78
101339.25
101334.63
101334.25
101334.23
101334.21
101334.2
101330.4
101330.4
101330.42
101330.44
101330.75
101327.42
101327.18
101327.16
101327.15
101327.14
101324.33
101324.34
101324.35
101324.36
101324.56
101322.06
101321.91
101321.89
101321.88
101321.88
101319.71
101319.72
101319.72
101319.73
101319.86
101317.88
101317.79
101317.78
101317.77
101317.77
101316.01
101316.02
101316.02
101316.03
101316.1
101314.46
101314.41
101314.41
101314.4
101314.4
101312.89
101312.89
101312.9
101312.9
101312.93
101311.49
101311.48
101311.47
101311.47
101311.47
101310.14
101310.14
101310.15
101310.15
101310.13
101308.78
101308.82
101308.82
101308.82
101308.83
101307.43
101307.43
101307.43
101307.43
101307.41
101306.05
101306.04
101306.04
101306.03
101306.03
101304.7
101304.7
101304.7
101304.71
101304.72
101303.38
101303.4
101303.39
101303.39
101303.38
101302
101302.01
101302.01
101302.02
101301.97
101300.46
101300.35
101300.33
101300.31
101300.29
101299.22
101299.24
101299.26
101299.28
101299.38
101298.42
101298.67
101298.69
101298.7
101298.72
101297.07
101297.05
101297.02
101296.99
101296.67
101294.49
101294.48
101294.49
101294.5
101294.5
101294.42
101294.36
101294.37
101294.37
101294.37
101296.61
101296.6
101296.59
101296.58
101296.44
101298.3
101298.45
101298.46
101298.47
101298.48
101299.16
101299.17
101299.19
101299.21
101299.28
101300.55
101300.55
101300.55
101300.54
101300.54
101302.04
101302.04
101302.04
101302.04
101302.02
101303.41
101303.42
101303.42
101303.42
101303.42
101304.77
101304.77
101304.77
101304.77
101304.76
101306.09
101306.1
101306.1
101306.1
101306.1
101307.44
101307.44
101307.44
101307.45
101307.42
101308.77
101308.8
101308.8
101308.79
101308.79
101310.09
101310.09
101310.09
101310.1
101310.1
101311.46
101311.44
101311.44
101311.43
101311.43
101312.85
101312.85
101312.85
101312.86
101312.9
101314.42
101314.35
101314.35
101314.34
101314.34
101315.94
101315.94
101315.95
101315.96
101316.04
101317.81
101317.69
101317.68
101317.68
101317.67
101319.6
101319.6
101319.61
101319.62
101319.77
101321.95
101321.76
101321.75
101321.74
101321.74
101324.16
101324.16
101324.17
101324.19
101324.42
101327.25
101326.96
101326.94
101326.93
101326.92
101330.12
101330.12
101330.14
101330.16
101330.52
101334.35
101333.9
101333.87
101333.85
101333.84
101338.25
101338.26
101338.28
101338.31
101338.88
101344.24
101343.52
101343.48
101343.45
101343.44
101349.79
101349.81
101349.84
101349.89
101350.8
101358.51
101357.29
101357.23
101357.2
101357.18
101367.09
101367.1
101367.14
101367.22
101368.69
101379.55
101377.52
101377.45
101377.43
101377.43
101396.16
101396.18
101396.26
101396.38
101398.18
101407.74
101403.64
101403.63
101403.73
101403.81
101457.84
101458.89
101460.17
101461.23
101461.92
101400.09
101384.31
101386.76
101390.7
101395.06
101383.26
101383.12
101382.88
101383.65
101406.95
101456.56
101454.7
101453.8
101452.9
101451.88
101406.21
101406.12
101406.01
101406.06
101409.91
101400.11
101398.33
101398.18
101398.07
101398.03
101379.21
101379.22
101379.25
101379.33
101381.24
101370.06
101368.68
101368.6
101368.56
101368.54
101358.33
101358.35
101358.38
101358.44
101359.59
101351.66
101350.8
101350.75
101350.72
101350.71
101344.16
101344.18
101344.2
101344.24
101344.92
101339.42
101338.89
101338.86
101338.84
101338.83
101334.3
101334.31
101334.33
101334.35
101334.78
101330.87
101330.53
101330.51
101330.49
101330.48
101327.23
101327.23
101327.25
101327.26
101327.53
101324.65
101324.43
101324.41
101324.4
101324.4
101321.94
101321.94
101321.95
101321.96
101322.14
101319.92
101319.78
101319.77
101319.77
101319.76
101317.82
101317.82
101317.83
101317.84
101317.94
101316.15
101316.07
101316.06
101316.06
101316.06
101314.44
101314.45
101314.45
101314.46
101314.51
101312.98
101312.96
101312.95
101312.95
101312.94
101311.53
101311.53
101311.54
101311.54
101311.55
101310.18
101310.19
101310.19
101310.18
101310.18
101308.88
101308.88
101308.88
101308.89
101308.84
101307.49
101307.53
101307.53
101307.52
101307.52
101306.17
101306.18
101306.18
101306.18
101306.15
101304.81
101304.83
101304.83
101304.83
101304.83
101303.48
101303.48
101303.48
101303.48
101303.45
101302.07
101302.1
101302.1
101302.1
101302.1
101300.61
101300.62
101300.62
101300.63
101300.61
101299.32
101299.26
101299.25
101299.23
101299.21
101298.51
101298.49
101298.48
101298.47
101298.29
101296.55
101296.68
101296.69
101296.7
101296.71
101294.53
101294.52
101294.51
101294.51
101294.56
101314.98
101313.4
101314.97
101313.38
101312.37
101312.99
101313.49
101313.21
101312.35
101313
101312.11
101310.22
101312.34
101310.92
101310.03
101310.98
101312.62
101312.43
101309.84
101310.11
101310.3
101312.52
101312.09
101312.17
101312.57
101312.33
101310.41
101308.98
101309.35
101307.32
101308.46
101305.95
101308.75
101307.95
101305.54
101304.66
101306.64
101306.41
101308.86
101310.04
101310.17
101309.92
101309.89
101312.33
101312.7
101313.35
101315.55
101314.9
101316.29
101314.31
101314.7
101317.02
101318.56
101315.17
101315.41
101315.38
101315.4
101313.66
101315.09
101315.93
101314.02
101313.56
101437.01
101438.53
101439.45
101440.47
101441.4
101440.58
101440.12
101439.79
101439.54
101437.99
101398.75
101397.71
101397.72
101397.81
101397.99
101386.85
101386.9
101386.98
101387.11
101388.61
101372.75
101370.88
101370.76
101370.7
101370.67
101361.83
101361.87
101361.94
101362.05
101363.52
101354.62
101353.39
101353.3
101353.24
101353.21
101346.76
101346.79
101346.84
101346.91
101347.84
101341.95
101341.21
101341.15
101341.11
101341.08
101336.39
101336.42
101336.45
101336.5
101337.08
101332.92
101332.46
101332.42
101332.39
101332.37
101328.94
101328.96
101328.98
101329.01
101329.39
101326.35
101326.05
101326.02
101326
101325.99
101323.4
101323.41
101323.43
101323.45
101323.69
101321.36
101321.17
101321.15
101321.14
101321.13
101319.1
101319.11
101319.12
101319.14
101319.29
101317.42
101317.31
101317.29
101317.28
101317.28
101315.61
101315.61
101315.62
101315.63
101315.72
101314.16
101314.09
101314.08
101314.07
101314.07
101312.63
101312.63
101312.64
101312.64
101312.69
101311.3
101311.27
101311.27
101311.26
101311.26
101309.94
101309.94
101309.95
101309.95
101309.96
101308.66
101308.66
101308.66
101308.65
101308.65
101307.37
101307.38
101307.38
101307.38
101307.37
101306.08
101306.1
101306.1
101306.1
101306.1
101304.81
101304.82
101304.82
101304.82
101304.78
101303.46
101303.51
101303.51
101303.51
101303.5
101302.18
101302.18
101302.18
101302.19
101302.13
101300.75
101300.82
101300.81
101300.81
101300.81
101299.41
101299.41
101299.42
101299.42
101299.35
101297.95
101298.02
101298.02
101298.02
101298.02
101296.47
101296.47
101296.47
101296.46
101296.37
101294.48
101294.42
101294.43
101294.44
101294.44
101296.47
101296.45
101296.42
101296.4
101296.3
101298.13
101298.25
101298.26
101298.26
101298.27
101299.47
101299.48
101299.48
101299.48
101299.45
101300.53
101300.45
101300.44
101300.42
101300.4
101302.01
101302.01
101302.02
101302.02
101301.99
101303.36
101303.39
101303.38
101303.38
101303.37
101304.65
101304.65
101304.66
101304.66
101304.66
101305.95
101305.94
101305.93
101305.93
101305.93
101307.24
101307.24
101307.25
101307.25
101307.25
101308.53
101308.52
101308.52
101308.52
101308.52
101309.81
101309.81
101309.81
101309.81
101309.84
101311.22
101311.19
101311.19
101311.19
101311.19
101312.6
101312.61
101312.61
101312.62
101312.66
101314.11
101314.04
101314.03
101314.02
101314.02
101315.56
101315.56
101315.57
101315.58
101315.67
101317.36
101317.25
101317.23
101317.22
101317.22
101319.03
101319.04
101319.05
101319.07
101319.22
101321.28
101321.08
101321.07
101321.05
101321.04
101323.3
101323.31
101323.32
101323.34
101323.59
101326.21
101325.91
101325.88
101325.86
101325.85
101328.77
101328.79
101328.81
101328.84
101329.22
101332.72
101332.25
101332.22
101332.19
101332.17
101336.15
101336.17
101336.2
101336.25
101336.83
101341.64
101340.89
101340.84
101340.8
101340.78
101346.32
101346.35
101346.39
101346.46
101347.4
101354.03
101352.79
101352.7
101352.66
101352.62
101360.89
101360.93
101360.99
101361.1
101362.6
101371.45
101369.53
101369.41
101369.36
101369.32
101383.78
101383.83
101383.91
101384.05
101385.82
101395.09
101393.58
101393.53
101393.57
101393.66
101426.95
101426.6
101426.35
101426.23
101426.84
101424.92
101423.47
101423.99
101424.55
101424.94
101383.2
101389.5
101396.13
101402.88
101450.19
101892.13
102039.08
102051.39
102059.29
102065.79
101339.62
101335.72
101332.34
101330.31
101350.9
101438.22
101438.45
101437.13
101435.72
101434.51
101382.5
101382.47
101382.39
101382.45
101386.05
101383.7
101382.38
101382.19
101382.05
101381.96
101366.07
101366.11
101366.16
101366.28
101368.15
101360.22
101358.87
101358.76
101358.69
101358.65
101350.56
101350.6
101350.65
101350.73
101351.9
101345.67
101344.79
101344.71
101344.67
101344.64
101339.37
101339.4
101339.43
101339.49
101340.2
101335.68
101335.12
101335.08
101335.04
101335.02
101331.25
101331.27
101331.29
101331.33
101331.78
101328.47
101328.1
101328.07
101328.04
101328.03
101325.23
101325.25
101325.26
101325.29
101325.59
101323.08
101322.83
101322.81
101322.79
101322.78
101320.61
101320.62
101320.63
101320.65
101320.85
101318.87
101318.71
101318.7
101318.69
101318.68
101316.92
101316.93
101316.94
101316.95
101317.07
101315.44
101315.34
101315.33
101315.32
101315.32
101313.84
101313.84
101313.85
101313.85
101313.92
101312.49
101312.45
101312.45
101312.44
101312.44
101311.1
101311.1
101311.11
101311.11
101311.13
101309.82
101309.81
101309.81
101309.8
101309.8
101308.52
101308.52
101308.53
101308.53
101308.53
101307.24
101307.25
101307.25
101307.25
101307.25
101305.97
101305.97
101305.97
101305.98
101305.96
101304.67
101304.69
101304.69
101304.68
101304.68
101303.39
101303.39
101303.4
101303.4
101303.37
101302.04
101302.09
101302.09
101302.08
101302.08
101300.74
101300.74
101300.74
101300.75
101300.69
101299.32
101299.38
101299.38
101299.37
101299.37
101297.99
101297.99
101297.99
101297.99
101297.92
101296.26
101296.34
101296.35
101296.35
101296.35
101294.32
101294.32
101294.32
101294.32
101294.37
101296.02
101296.02
101296.01
101296.01
101296.05
101297.9
101297.99
101297.99
101297.99
101297.99
101299.42
101299.42
101299.43
101299.43
101299.37
101300.69
101300.75
101300.75
101300.75
101300.75
101302.16
101302.16
101302.16
101302.16
101302.11
101303.44
101303.48
101303.48
101303.48
101303.48
101304.78
101304.78
101304.78
101304.78
101304.75
101306.03
101306.06
101306.06
101306.06
101306.06
101307.29
101307.29
101307.29
101307.29
101307.29
101308.33
101308.16
101308.14
101308.12
101308.1
101309.49
101309.5
101309.51
101309.52
101309.6
101311.06
101311.03
101311.02
101311.01
101311.01
101312.73
101312.72
101312.72
101312.72
101312.66
101314.06
101313.99
101313.98
101313.97
101313.97
101315.45
101315.46
101315.46
101315.48
101315.57
101317.23
101317.11
101317.1
101317.09
101317.08
101318.86
101318.86
101318.88
101318.89
101319.05
101321.06
101320.86
101320.84
101320.83
101320.82
101323.02
101323.03
101323.05
101323.07
101323.32
101325.89
101325.58
101325.55
101325.53
101325.52
101328.37
101328.39
101328.41
101328.44
101328.83
101332.23
101331.75
101331.71
101331.68
101331.66
101335.51
101335.53
101335.56
101335.61
101336.21
101340.85
101340.09
101340.03
101339.99
101339.96
101345.32
101345.35
101345.4
101345.47
101346.42
101352.8
101351.56
101351.47
101351.41
101351.38
101359.34
101359.38
101359.45
101359.56
101361.04
101369.49
101367.64
101367.52
101367.46
101367.42
101381.4
101381.44
101381.52
101381.67
101383.38
101392.21
101390.82
101390.77
101390.82
101390.93
101423.85
101423.47
101423.19
101423.03
101423.23
101423.72
101423
101423.47
101423.97
101424.2
101384.43
101390.06
101395.96
101402.13
101448.69
101432.92
101316.78
101300.2
101283.49
101265.04
101671.13
101672.21
101674.24
101674.22
101627.06
101746.45
101848.23
101855.59
101860.06
101864.82
101453.78
101452.9
101451.89
101450.8
101444.92
101445.1
101445.39
101445.62
101445.98
101446.47
101402.26
101402.07
101401.95
101401.91
101402.71
101391.74
101390.26
101390.15
101390.1
101390.09
101373.13
101373.15
101373.18
101373.28
101375.05
101365.27
101363.86
101363.77
101363.72
101363.68
101354.61
101354.64
101354.68
101354.76
101355.95
101348.87
101347.97
101347.9
101347.87
101347.84
101341.93
101341.96
101341.99
101342.04
101342.76
101337.72
101337.16
101337.12
101337.09
101337.07
101332.91
101332.93
101332.95
101332.98
101333.43
101329.8
101329.44
101329.41
101329.39
101329.38
101326.33
101326.34
101326.36
101326.38
101326.67
101323.97
101323.73
101323.71
101323.7
101323.69
101321.36
101321.37
101321.38
101321.4
101321.58
101319.47
101319.32
101319.31
101319.3
101319.29
101317.44
101317.44
101317.45
101317.46
101317.57
101315.85
101315.76
101315.75
101315.75
101315.74
101314.18
101314.18
101314.19
101314.2
101314.26
101312.77
101312.73
101312.72
101312.72
101312.72
101311.33
101311.33
101311.33
101311.34
101311.36
101310.01
101310
101310
101309.99
101309.99
101308.69
101308.69
101308.69
101308.69
101308.69
101307.39
101307.4
101307.39
101307.39
101307.39
101306.1
101306.1
101306.1
101306.1
101306.09
101304.78
101304.8
101304.8
101304.8
101304.79
101303.49
101303.49
101303.5
101303.5
101303.46
101302.12
101302.17
101302.17
101302.16
101302.16
101300.81
101300.81
101300.81
101300.82
101300.75
101299.37
101299.44
101299.44
101299.43
101299.43
101298.07
101298.07
101298.07
101298.07
101297.99
101296.43
101296.54
101296.54
101296.55
101296.55
101294.52
101294.52
101294.51
101294.5
101294.54
101294.53
101294.44
101294.45
101294.46
101294.46
101296.55
101296.55
101296.55
101296.54
101296.43
101298.02
101298.12
101298.12
101298.11
101298.11
101299.44
101299.44
101299.44
101299.44
101299.38
101300.75
101300.81
101300.81
101300.8
101300.8
101302.18
101302.18
101302.18
101302.18
101302.13
101303.48
101303.52
101303.52
101303.52
101303.52
101304.85
101304.85
101304.85
101304.85
101304.81
101306.14
101306.17
101306.16
101306.16
101306.16
101307.46
101307.47
101307.47
101307.47
101307.44
101308.76
101308.77
101308.77
101308.77
101308.77
101310.07
101310.07
101310.08
101310.08
101310.08
101311.44
101311.42
101311.42
101311.41
101311.41
101312.8
101312.81
101312.81
101312.82
101312.86
101314.36
101314.29
101314.29
101314.28
101314.28
101315.86
101315.86
101315.87
101315.88
101315.97
101317.73
101317.6
101317.59
101317.58
101317.57
101319.46
101319.47
101319.48
101319.49
101319.66
101321.82
101321.61
101321.59
101321.58
101321.57
101323.95
101323.96
101323.97
101323.99
101324.26
101327.04
101326.71
101326.69
101326.67
101326.66
101329.77
101329.79
101329.81
101329.83
101330.25
101333.99
101333.47
101333.43
101333.41
101333.4
101337.66
101337.68
101337.71
101337.75
101338.4
101343.61
101342.77
101342.72
101342.68
101342.66
101348.74
101348.77
101348.81
101348.88
101349.94
101357.32
101355.89
101355.81
101355.77
101355.73
101365.08
101365.13
101365.19
101365.29
101367.02
101377.15
101374.85
101374.73
101374.68
101374.64
101391.93
101392.01
101392.1
101392.26
101394.5
101403.23
101400.1
101400
101400.05
101400.09
101440.92
101441.4
101442.03
101442.83
101449.4
101408.47
101402.94
101403.67
101404.85
101405.83
101426.65
101299.33
101282.17
101265.16
101247.03
101405.14
101406.2
101407.26
101407.93
101406.37
101424.72
101418.28
101417.79
101417.5
101417.32
101391.56
101391.53
101391.58
101391.68
101392.99
101385.65
101383.86
101383.72
101383.64
101383.6
101368.79
101368.82
101368.86
101368.96
101370.72
101362.02
101360.61
101360.51
101360.46
101360.42
101352.1
101352.13
101352.17
101352.25
101353.44
101346.91
101346
101345.93
101345.9
101345.87
101340.38
101340.4
101340.43
101340.48
101341.21
101336.49
101335.93
101335.89
101335.86
101335.84
101331.93
101331.94
101331.97
101332
101332.46
101329.01
101328.65
101328.62
101328.6
101328.59
101325.69
101325.7
101325.72
101325.74
101326.04
101323.44
101323.21
101323.19
101323.17
101323.16
101320.93
101320.94
101320.95
101320.96
101321.16
101319.12
101318.97
101318.96
101318.95
101318.94
101317.15
101317.15
101317.16
101317.17
101317.28
101315.61
101315.52
101315.51
101315.51
101315.5
101313.98
101313.98
101313.99
101314
101314.06
101312.61
101312.57
101312.56
101312.56
101312.55
101311.19
101311.19
101311.2
101311.2
101311.22
101309.9
101309.89
101309.88
101309.88
101309.88
101308.59
101308.59
101308.6
101308.6
101308.6
101307.31
101307.32
101307.32
101307.31
101307.31
101306.03
101306.03
101306.04
101306.04
101306.02
101304.73
101304.75
101304.75
101304.75
101304.75
101303.45
101303.46
101303.46
101303.46
101303.42
101302.09
101302.15
101302.15
101302.14
101302.14
101300.8
101300.8
101300.8
101300.8
101300.73
101299.34
101299.42
101299.42
101299.41
101299.41
101298.02
101298.02
101298.02
101298.02
101297.93
101296.34
101296.45
101296.46
101296.46
101296.47
101294.41
101294.4
101294.39
101294.39
101294.46
101294.38