/*--------------------------------*- C++ -*----------------------------------*\
  =========                 |
  \\      /  F ield         | OpenFOAM: The Open Source CFD Toolbox
   \\    /   O peration     | Website:  https://openfoam.org
    \\  /    A nd           | Version:  7
     \\/     M anipulation  |
\*---------------------------------------------------------------------------*/
FoamFile
{
    version     2.0;
    format      ascii;
    class       volScalarField;
    location    "70";
    object      T;
}
// * * * * * * * * * * * * * * * * * * * * * * * * * * * * * * * * * * * * * //

dimensions      [0 0 0 1 0 0 0];

internalField   nonuniform List<scalar> 
25201
(
299.99592
299.99625
299.99593
299.99629
299.99985
299.99858
299.99721
299.99664
299.99912
300.00229
299.9991
299.99855
299.99926
299.98851
299.98705
299.99554
299.99378
299.99215
299.9898
299.98474
299.98819
299.99131
299.99251
299.99013
299.98654
299.98319
299.98814
299.99261
299.99164
299.98452
299.98543
299.98691
299.97946
299.98087
299.98273
299.98715
299.99041
299.9895
299.98595
299.98504
299.98892
299.98854
299.98388
299.9787
299.98458
299.98951
299.9918
299.99625
299.99967
299.99933
300.00096
300.00259
300.00308
300.00267
300.00227
300.0009
299.99813
299.99721
300.00075
299.99955
299.99731
299.99641
300.00025
300.00249
300.0048
300.00385
300.00481
300.00517
300.00255
300.00252
299.99912
299.99634
299.9967
300.00081
300.00081
299.99896
299.99583
299.9959
299.99247
299.99311
299.99376
299.99463
299.99281
299.99574
299.99487
299.99658
299.992
299.98857
299.98549
299.98774
299.98792
299.98972
299.9868
299.98423
299.98203
299.98342
299.98104
299.97949
299.97654
299.97811
299.9809
299.97935
299.98207
299.98323
299.98586
299.98464
299.98287
299.9843
299.98413
299.97792
299.9752
299.97837
299.97643
299.97311
299.9693
299.97145
299.97541
299.97332
299.97706
299.97962
299.98113
299.97859
299.98215
299.98062
299.97848
299.98036
299.9806
299.98411
299.9877
299.98578
299.98479
299.98422
299.98917
299.9895
299.99015
299.99092
299.99192
299.99276
299.99638
299.99807
300.00086
300.00022
299.99949
299.99723
299.99711
300.00068
300.00263
300.00224
300.00093
300.00384
300.00479
300.00247
300.00252
300.00515
300.00479
300.00549
300.00253
299.99955
299.99655
300.00071
299.99902
299.99622
299.99649
299.99366
299.99456
299.99298
299.99227
299.99573
299.99363
299.99422
299.99479
299.99568
299.99473
299.99446
299.99915
299.99699
299.99478
299.99114
299.98865
299.99286
299.99138
299.9893
299.98654
299.98545
299.98832
299.98657
299.9876
299.98476
299.98375
299.98197
299.98323
299.98636
299.98862
299.99111
299.98965
299.98787
299.98547
299.97702
299.97857
299.98112
299.98323
299.98582
299.98459
299.98675
299.98421
299.98205
299.97959
299.98282
299.98426
299.98211
299.98056
299.97842
299.98033
299.97634
299.9727
299.97311
299.99632
299.99596
299.9966
299.99269
299.99167
299.9839
299.98098
299.98552
299.98458
299.98898
299.98856
299.98461
299.97872
299.97953
299.98511
299.98605
299.98958
299.99052
299.98701
299.98286
299.98728
299.98872
299.99144
299.9939
300.09282
300.10611
300.10445
300.09984
300.0674
300.0164
299.99324
299.98718
299.97901
299.96798
300.02558
300.02422
300.02473
300.02558
300.02818
300.01898
300.01617
300.01558
300.01534
300.0153
300.01679
300.01606
300.01582
300.01604
300.01721
300.01327
300.01195
300.01171
300.01183
300.01222
300.01045
300.01002
300.00986
300.01001
300.01084
300.00843
300.00766
300.00752
300.00763
300.00795
300.00617
300.00589
300.00579
300.00591
300.00656
300.00497
300.00437
300.00426
300.00434
300.00457
300.00326
300.00306
300.00301
300.00311
300.00369
300.00268
300.00213
300.00204
300.00208
300.00226
300.00144
300.00129
300.00126
300.00136
300.00193
300.00142
300.00085
300.00075
300.00078
300.00093
300.00061
300.00047
300.00045
300.00055
300.00115
300.00112
300.00048
300.00039
300.00041
300.00056
300.00069
300.00054
300.00052
300.00063
300.00134
300.00182
300.00102
300.00089
300.00091
300.00109
300.00176
300.00155
300.00153
300.00167
300.00259
300.00368
300.00266
300.00251
300.00254
300.0028
300.00417
300.00386
300.00382
300.00399
300.00513
300.00701
300.00575
300.00556
300.00564
300.00604
300.00828
300.0078
300.0077
300.00791
300.00934
300.01219
300.01054
300.01031
300.01043
300.01101
300.01438
300.01366
300.0135
300.01377
300.01561
300.01967
300.01771
300.01743
300.01765
300.01855
300.02333
300.02229
300.02201
300.02231
300.02441
300.02988
300.02759
300.02727
300.0276
300.02877
300.03504
300.03375
300.03338
300.03374
300.03622
300.04368
300.04137
300.04104
300.04153
300.04323
300.05359
300.05116
300.0503
300.05047
300.05225
300.06157
300.06018
300.0601
300.06113
300.06377
300.06119
300.06078
300.06087
300.06215
300.06515
300.05451
300.05182
300.05079
300.05084
300.05183
300.04331
300.04133
300.04105
300.04158
300.04337
300.03424
300.03314
300.03288
300.03328
300.03592
300.02964
300.02719
300.02687
300.02716
300.02817
300.02318
300.02215
300.02185
300.02212
300.0242
300.01949
300.01763
300.0174
300.01766
300.0186
300.0145
300.0137
300.01348
300.01371
300.01546
300.01207
300.01046
300.01026
300.01043
300.01108
300.0084
300.00782
300.00767
300.00784
300.00924
300.00692
300.00569
300.00553
300.00563
300.00608
300.00423
300.00388
300.0038
300.00395
300.00507
300.00364
300.00262
300.00248
300.00252
300.00278
300.00182
300.00159
300.00154
300.00166
300.00255
300.00177
300.00101
300.00091
300.00094
300.00112
300.00079
300.0006
300.00055
300.00064
300.00128
300.00105
300.00046
300.00037
300.0004
300.00055
300.00064
300.00046
300.00042
300.00049
300.00105
300.0013
300.00074
300.00065
300.00069
300.00083
300.00136
300.00118
300.00113
300.00121
300.00176
300.00246
300.00192
300.00183
300.00188
300.00205
300.00306
300.00284
300.00276
300.00285
300.00339
300.00457
300.00401
300.00391
300.00399
300.00423
300.00577
300.00545
300.00533
300.00543
300.00601
300.00769
300.00699
300.00687
300.007
300.00733
300.0096
300.00914
300.00895
300.00907
300.0098
300.01188
300.01063
300.01043
300.01059
300.01104
300.01461
300.01394
300.0137
300.01389
300.01509
300.01639
300.01377
300.01332
300.01332
300.01376
300.01892
300.01863
300.01901
300.0197
300.02262
300.01547
300.00916
300.00751
300.00564
300.00363
299.98364
299.97241
299.9743
299.98044
300.04344
300.02032
299.62945
299.57713
299.52845
299.4784
300.00645
299.99758
300.00082
300.00818
300.07673
300.03547
300.03145
300.03003
300.02844
300.02675
300.03015
300.03033
300.03088
300.0317
300.0348
300.02427
300.02199
300.02155
300.02155
300.02187
300.01951
300.01899
300.0188
300.01904
300.02034
300.01549
300.01411
300.01388
300.014
300.01437
300.01167
300.01129
300.01115
300.01131
300.01224
300.00943
300.0086
300.00845
300.00855
300.00884
300.00665
300.0064
300.00632
300.00644
300.00717
300.00539
300.00472
300.00461
300.00467
300.00488
300.00337
300.0032
300.00315
300.00326
300.00392
300.00283
300.0022
300.0021
300.00213
300.00228
300.00135
300.00122
300.0012
300.0013
300.00196
300.00142
300.00076
300.00066
300.00068
300.00082
300.00043
300.00031
300.0003
300.0004
300.00107
300.00103
300.00032
300.00022
300.00024
300.00037
300.00047
300.00031
300.00029
300.00041
300.0012
300.00167
300.00086
300.00075
300.00077
300.00096
300.00162
300.0014
300.00137
300.00149
300.00241
300.0035
300.0025
300.00237
300.00243
300.0027
300.00409
300.00374
300.00367
300.00381
300.00493
300.00679
300.00559
300.00544
300.00556
300.00602
300.00822
300.00766
300.00751
300.00768
300.00909
300.01189
300.01028
300.01009
300.01027
300.01092
300.01422
300.01343
300.01322
300.01345
300.01524
300.01923
300.01739
300.01717
300.01745
300.01841
300.02301
300.02195
300.02164
300.02188
300.02387
300.0292
300.027
300.02672
300.02705
300.0281
300.03395
300.03287
300.03259
300.03295
300.03533
300.04256
300.04069
300.04042
300.04094
300.04268
300.05308
300.05054
300.04957
300.04964
300.05083
300.05987
300.05908
300.05912
300.06032
300.06312
300.07411
300.0711
300.0698
300.06969
300.06956
300.07338
300.07051
300.06932
300.06929
300.0698
300.06004
300.05876
300.05869
300.05974
300.06237
300.05208
300.04985
300.04907
300.04926
300.05096
300.0427
300.04071
300.04044
300.04101
300.0428
300.03432
300.03307
300.03275
300.03311
300.0354
300.02921
300.02696
300.02665
300.02698
300.02811
300.02278
300.02172
300.02144
300.02174
300.02386
300.01922
300.01719
300.01691
300.01712
300.01802
300.01391
300.01318
300.01303
300.01331
300.01523
300.01187
300.01016
300.00992
300.01004
300.01061
300.00801
300.00751
300.0074
300.00761
300.00908
300.0068
300.00555
300.00537
300.00546
300.00587
300.00409
300.00374
300.00368
300.00384
300.00493
300.00351
300.00253
300.00238
300.00242
300.00267
300.00167
300.00144
300.00141
300.00154
300.00242
300.00168
300.00087
300.00074
300.00075
300.00092
300.00051
300.00035
300.00034
300.00045
300.00121
300.00104
300.00033
300.00021
300.00022
300.00034
300.00046
300.00033
300.00031
300.00042
300.00109
300.00144
300.00079
300.00068
300.00069
300.0008
300.00143
300.00128
300.00126
300.00136
300.00199
300.00289
300.00226
300.00215
300.00217
300.00232
300.00349
300.00329
300.00324
300.00335
300.00398
300.00549
300.00482
300.00469
300.00475
300.00496
300.00683
300.00655
300.00646
300.00659
300.0073
300.00963
300.00878
300.00862
300.00872
300.00901
300.01196
300.01156
300.01142
300.01159
300.01254
300.01601
300.01459
300.01433
300.01443
300.01478
300.02026
300.01976
300.01958
300.01983
300.02119
300.02604
300.02437
300.02407
300.02426
300.02459
300.04157
300.04079
300.0399
300.03964
300.03807
300.04498
300.05407
300.05619
300.05991
300.06479
300.08414
300.07324
300.07451
300.07689
300.08148
300.07293
300.17074
300.18283
300.18929
300.18013
299.96821
299.9807
299.98919
299.99513
300.01583
300.03208
300.02868
300.02768
300.0271
300.02861
300.01766
300.01772
300.01787
300.01842
300.02092
300.01882
300.01753
300.01731
300.01754
300.01827
300.01303
300.01271
300.01263
300.01289
300.01432
300.0116
300.01069
300.01053
300.01068
300.01109
300.00836
300.00806
300.00797
300.00812
300.00896
300.00693
300.00623
300.00611
300.0062
300.00647
300.00469
300.00448
300.00442
300.00454
300.0052
300.00383
300.00322
300.00311
300.00316
300.00335
300.00219
300.00205
300.00202
300.00213
300.00275
300.00193
300.0013
300.00119
300.00121
300.00133
300.00073
300.00062
300.00061
300.00072
300.00137
300.00106
300.00038
300.00027
300.00027
300.00038
300.00025
300.00014
300.00014
300.00026
300.001
300.0012
300.0004
300.00028
300.00028
300.00041
300.0008
300.00064
300.00064
300.00078
300.00166
300.00242
300.00146
300.00131
300.00132
300.00151
300.00251
300.00227
300.00226
300.00242
300.00351
300.00496
300.00375
300.00357
300.0036
300.0039
300.00568
300.00531
300.00525
300.00546
300.00681
300.00912
300.00764
300.00742
300.00751
300.00799
300.01083
300.01022
300.0101
300.01033
300.01195
300.01535
300.01363
300.01339
300.01358
300.01436
300.01857
300.01761
300.01735
300.01759
300.01938
300.02409
300.02226
300.02202
300.02237
300.02353
300.02909
300.02779
300.02738
300.02763
300.02953
300.03581
300.03376
300.03349
300.03396
300.03542
300.04268
300.04101
300.04047
300.04077
300.04297
300.05106
300.04891
300.04865
300.04934
300.05137
300.06164
300.05916
300.05826
300.05843
300.06007
300.06991
300.06925
300.06928
300.07047
300.07341
300.07375
300.07086
300.06965
300.06961
300.07009
300.06026
300.05902
300.05896
300.06003
300.06268
300.05227
300.05004
300.04925
300.04944
300.05112
300.04281
300.04081
300.04053
300.04109
300.04287
300.03432
300.03309
300.03279
300.03316
300.03549
300.02927
300.02699
300.02666
300.02697
300.02807
300.02275
300.02173
300.02146
300.02177
300.02393
300.01927
300.01724
300.01695
300.01716
300.01805
300.01394
300.01322
300.01307
300.01335
300.01527
300.01191
300.01022
300.00998
300.0101
300.01069
300.0081
300.00759
300.00748
300.00768
300.00912
300.00684
300.00563
300.00545
300.00555
300.00597
300.00419
300.00384
300.00376
300.00392
300.00497
300.00354
300.00259
300.00245
300.00249
300.00276
300.00174
300.0015
300.00146
300.00159
300.00244
300.0017
300.00091
300.00078
300.0008
300.00097
300.00055
300.00038
300.00037
300.00048
300.00122
300.00105
300.00034
300.00022
300.00022
300.00034
300.00048
300.00035
300.00033
300.00044
300.0011
300.00144
300.0008
300.00069
300.0007
300.00081
300.00143
300.00129
300.00126
300.00136
300.00199
300.00286
300.00224
300.00213
300.00216
300.00231
300.00348
300.00328
300.00323
300.00334
300.00396
300.00545
300.00479
300.00467
300.00473
300.00495
300.0068
300.00652
300.00643
300.00655
300.00725
300.00955
300.00874
300.00859
300.00869
300.009
300.01199
300.01156
300.0114
300.01155
300.01244
300.01585
300.0145
300.01426
300.0144
300.01479
300.02045
300.01985
300.0196
300.01981
300.02101
300.0257
300.02407
300.02378
300.02402
300.02448
300.04155
300.04065
300.03975
300.03949
300.03797
300.04357
300.05083
300.05266
300.05618
300.06078
300.09432
300.08438
300.08445
300.08518
300.08329
300.08512
300.09387
300.09506
300.09681
300.1026
300.01573
300.02005
300.02259
300.02473
300.03222
300.03487
300.03523
300.03506
300.03534
300.03637
300.02074
300.0207
300.02077
300.02125
300.02343
300.01984
300.01898
300.01885
300.01919
300.02001
300.01395
300.01361
300.01349
300.01371
300.01501
300.01194
300.01113
300.01098
300.01114
300.01154
300.00863
300.00833
300.00822
300.00836
300.00915
300.00703
300.00638
300.00626
300.00636
300.00664
300.00479
300.00457
300.0045
300.00461
300.00526
300.00387
300.00326
300.00316
300.00322
300.00341
300.00226
300.0021
300.00206
300.00216
300.00278
300.00197
300.00136
300.00126
300.00129
300.00144
300.00084
300.0007
300.00068
300.00078
300.00142
300.00112
300.00046
300.00037
300.00039
300.00052
300.00042
300.00028
300.00026
300.00036
300.00106
300.00127
300.00053
300.00043
300.00045
300.00061
300.00103
300.00084
300.00081
300.00092
300.00173
300.00249
300.00162
300.0015
300.00154
300.00176
300.00279
300.00252
300.00247
300.0026
300.00358
300.00503
300.00396
300.00382
300.0039
300.00425
300.00607
300.00562
300.00551
300.00567
300.00689
300.0092
300.00779
300.00761
300.00776
300.00831
300.01088
300.01025
300.0101
300.01031
300.012
300.01536
300.01352
300.01329
300.01348
300.01425
300.01834
300.01741
300.01716
300.0174
300.01936
300.02403
300.022
300.02175
300.02206
300.02312
300.0282
300.02716
300.02683
300.02713
300.0294
300.03562
300.03329
300.03294
300.03324
300.03437
300.04321
300.04146
300.04093
300.04119
300.04295
300.05137
300.05032
300.05028
300.05128
300.05385
300.06418
300.06126
300.06004
300.05999
300.06059
300.07047
300.07058
300.07072
300.07206
300.07516
300.07131
300.07081
300.07085
300.07206
300.07503
300.0635
300.06094
300.05993
300.06003
300.0613
300.05199
300.05043
300.05031
300.05121
300.05359
300.04348
300.04173
300.0412
300.04149
300.04353
300.03612
300.03384
300.03353
300.03396
300.03537
300.02892
300.02766
300.02729
300.0276
300.02981
300.02437
300.02221
300.02191
300.0222
300.02329
300.01839
300.01748
300.01726
300.01756
300.01963
300.01558
300.01362
300.01333
300.01347
300.01418
300.01084
300.01027
300.01017
300.01043
300.01218
300.00934
300.00784
300.00762
300.0077
300.00816
300.006
300.0056
300.00553
300.00572
300.00701
300.00513
300.00398
300.00381
300.00385
300.00416
300.00282
300.00255
300.00251
300.00266
300.00367
300.00257
300.00167
300.00153
300.00155
300.00175
300.00111
300.00091
300.00088
300.001
300.0018
300.00133
300.00059
300.00047
300.00048
300.00063
300.00053
300.00037
300.00035
300.00045
300.00112
300.00117
300.00054
300.00043
300.00045
300.00057
300.00094
300.00079
300.00076
300.00086
300.00146
300.002
300.0014
300.0013
300.00132
300.00146
300.00233
300.00215
300.0021
300.0022
300.0028
300.00387
300.00324
300.00313
300.00318
300.00337
300.00477
300.00452
300.00445
300.00456
300.00522
300.00692
300.00621
300.00608
300.00617
300.00645
300.00839
300.00806
300.00794
300.00809
300.00895
300.01159
300.01064
300.01048
300.01064
300.01107
300.01314
300.01278
300.01267
300.01292
300.01438
300.01888
300.01759
300.01739
300.01766
300.01844
300.01747
300.01762
300.01784
300.01844
300.02137
300.03221
300.03043
300.0299
300.02983
300.03177
299.97146
299.98364
299.99194
299.99786
300.01917
300.07512
300.16385
300.17487
300.18048
300.17094
300.10548
300.11898
300.11768
300.11339
300.08261
300.02532
300.00149
299.99544
299.98703
299.97503
300.02957
300.02888
300.02974
300.03089
300.03449
300.02294
300.02019
300.01958
300.01935
300.01915
300.01973
300.01884
300.01856
300.01874
300.01996
300.01516
300.01364
300.01337
300.01346
300.01376
300.01153
300.01112
300.01098
300.01116
300.01214
300.00936
300.00847
300.00832
300.00841
300.00871
300.00665
300.00638
300.0063
300.00644
300.00719
300.0054
300.00471
300.00459
300.00465
300.00486
300.00341
300.00323
300.00319
300.0033
300.00396
300.00286
300.00222
300.00211
300.00214
300.00228
300.0014
300.00126
300.00124
300.00135
300.002
300.00144
300.00078
300.00067
300.00067
300.00078
300.00041
300.0003
300.0003
300.00041
300.00111
300.00105
300.00032
300.0002
300.00021
300.00032
300.00046
300.00031
300.0003
300.00043
300.00123
300.0017
300.00086
300.00074
300.00075
300.00092
300.00164
300.00142
300.0014
300.00154
300.00245
300.00354
300.00255
300.0024
300.00244
300.0027
300.00408
300.00375
300.0037
300.00387
300.00499
300.00686
300.0056
300.00542
300.00549
300.00589
300.00809
300.0076
300.00751
300.00772
300.00918
300.01199
300.01031
300.01006
300.01018
300.01075
300.01409
300.01338
300.01322
300.0135
300.01538
300.01941
300.01741
300.01713
300.01736
300.01826
300.02309
300.02201
300.02172
300.02201
300.0241
300.0295
300.02731
300.02701
300.02738
300.02859
300.0348
300.03346
300.03307
300.0334
300.03571
300.04298
300.04081
300.0405
300.041
300.0427
300.05243
300.05012
300.04928
300.04944
300.05123
300.06022
300.05865
300.05853
300.05949
300.06195
300.07343
300.07056
300.0694
300.06938
300.07003
299.99509
299.99438
299.99508
299.99437
300.00026
299.99791
299.99567
299.99377
299.995
299.99792
300.00271
300.00055
299.995
299.99734
300.00425
300.00489
300.0043
300.00625
300.00805
300.00985
300.0072
300.00581
300.00747
300.0082
300.00686
300.00244
300.00002
300.00926
300.0073
300.00732
300.00336
300.00976
300.00884
300.01204
300.01401
300.01734
300.00978
300.01157
300.01059
300.00972
300.0087
300.01118
300.01204
300.00867
300.00752
300.00594
300.0032
300.00301
300.00247
300.00542
300.00564
300.00248
299.99881
299.99563
299.99602
300.00067
300.00066
299.99954
299.99626
299.99594
299.99856
299.99925
300.04509
300.03542
300.03313
300.03294
300.04894
300.04651
300.04004
300.03537
300.03261
300.02141
300.02491
300.02642
300.02677
300.02778
300.02884
300.01535
300.01489
300.01467
300.01497
300.01667
300.01519
300.01406
300.01386
300.01409
300.01467
300.0106
300.01024
300.01013
300.01036
300.01166
300.00961
300.0088
300.00865
300.0088
300.00922
300.00699
300.00668
300.00658
300.00672
300.00746
300.00583
300.00523
300.00512
300.00521
300.00548
300.00395
300.00374
300.00367
300.00378
300.00437
300.00323
300.00268
300.00258
300.00263
300.00281
300.00178
300.00164
300.00161
300.00171
300.00228
300.00158
300.001
300.00091
300.00093
300.00106
300.00047
300.00037
300.00036
300.00047
300.00109
300.00084
300.00017
300.00006
300.00006
300.00017
300.00003
299.99994
299.99995
300.00007
300.00081
300.00102
300.00022
300.00009
300.00008
300.0002
300.00058
300.00044
300.00046
300.0006
300.00149
300.00226
300.00127
300.00112
300.00112
300.00129
300.00226
300.00205
300.00205
300.00222
300.00334
300.00478
300.00356
300.00337
300.0034
300.00368
300.00547
300.00512
300.00507
300.00528
300.00662
300.00893
300.00749
300.00728
300.00737
300.00785
300.01074
300.01013
300.00999
300.01021
300.01175
300.01513
300.01355
300.01334
300.01355
300.01434
300.01854
300.01757
300.01729
300.01751
300.01914
300.02382
300.02214
300.02193
300.02229
300.02345
300.02894
300.02762
300.0272
300.02743
300.02923
300.03545
300.0335
300.03325
300.03373
300.03522
300.04233
300.04065
300.0401
300.04038
300.04253
300.05051
300.04841
300.04815
300.04884
300.05085
300.06091
300.05847
300.05759
300.05777
300.05943
300.06912
300.06846
300.06847
300.06964
300.07253
300.06423
300.06145
300.06033
300.06036
300.06136
300.05199
300.05036
300.05019
300.05102
300.05332
300.0434
300.04159
300.04104
300.04134
300.04346
300.03602
300.03349
300.0331
300.0334
300.03462
300.02822
300.02715
300.02687
300.02723
300.02964
300.02417
300.02202
300.02171
300.02197
300.02296
300.01826
300.01738
300.01718
300.01746
300.01943
300.01539
300.01356
300.01329
300.01344
300.01414
300.0108
300.01021
300.01009
300.01033
300.01198
300.00914
300.00769
300.00748
300.00757
300.00804
300.00589
300.00548
300.0054
300.00558
300.00684
300.00505
300.0039
300.00372
300.00376
300.00407
300.00276
300.0025
300.00246
300.00261
300.00363
300.00254
300.00165
300.00151
300.00153
300.00173
300.0011
300.0009
300.00087
300.00098
300.00173
300.00124
300.00059
300.00049
300.00051
300.00066
300.00054
300.00037
300.00033
300.00042
300.001
300.00101
300.00047
300.00039
300.00042
300.00056
300.00083
300.00066
300.00062
300.0007
300.00122
300.00167
300.00115
300.00106
300.00109
300.00125
300.00193
300.00174
300.00169
300.00178
300.00231
300.00324
300.0027
300.00261
300.00266
300.00286
300.00398
300.00373
300.00365
300.00374
300.0043
300.00569
300.00511
300.00501
300.00511
300.00541
300.00683
300.00647
300.00634
300.00647
300.00718
300.00917
300.00837
300.00823
300.0084
300.00884
300.00998
300.00953
300.00939
300.00961
300.01092
300.01392
300.01258
300.01235
300.01254
300.01314
300.01287
300.01243
300.01233
300.01273
300.01493
300.02077
300.02098
300.02093
300.02138
300.02194
300.03138
300.02698
300.02376
300.02208
300.01639
300.03225
300.00681
300.00142
299.99882
300.01041
299.69612
299.75066
299.79818
299.83584
299.98131
299.92283
299.98429
299.99198
300.00995
300.04836
300.17261
300.18028
300.17322
300.16045
300.05722
300.00284
299.98224
299.9763
299.96777
299.95522
300.02087
300.01857
300.01867
300.01936
300.02217
300.01397
300.01139
300.01086
300.01069
300.01057
300.01329
300.01252
300.01229
300.01249
300.01375
300.01047
300.00911
300.00887
300.00896
300.0093
300.00814
300.00773
300.0076
300.00776
300.00866
300.00677
300.006
300.00586
300.00596
300.00627
300.00491
300.00463
300.00454
300.00465
300.00527
300.00409
300.00351
300.0034
300.00347
300.00369
300.00253
300.00236
300.00232
300.00242
300.00299
300.00214
300.00157
300.00147
300.00151
300.00166
300.00092
300.00079
300.00078
300.00088
300.00147
300.00108
300.00046
300.00036
300.00037
300.00049
300.00017
300.00006
300.00006
300.00017
300.00082
300.00085
300.00013
300.00001
300.00001
300.00013
300.00024
300.00012
300.00013
300.00026
300.00106
300.00158
300.00072
300.00058
300.00058
300.00074
300.00144
300.00126
300.00125
300.0014
300.00236
300.00348
300.00242
300.00225
300.00228
300.00252
300.0039
300.0036
300.00357
300.00375
300.00494
300.00682
300.00552
300.00533
300.00539
300.00579
300.00809
300.0076
300.0075
300.00771
300.00914
300.01198
300.01045
300.01023
300.01038
300.01102
300.01448
300.0137
300.0135
300.01373
300.01538
300.0194
300.01766
300.01743
300.0177
300.01864
300.02344
300.02233
300.022
300.02225
300.0241
300.02954
300.02758
300.02732
300.02772
300.02901
300.0353
300.03384
300.03338
300.03367
300.0358
300.04295
300.04071
300.04042
300.04097
300.0427
300.05136
300.0493
300.04861
300.04887
300.05104
300.06014
300.05842
300.05828
300.0592
300.06164
300.07338
300.07057
300.06943
300.06942
300.07007
300.06334
300.0608
300.05984
300.05996
300.0613
300.05196
300.04997
300.04974
300.05048
300.05258
300.04335
300.04158
300.04101
300.04131
300.04354
300.03618
300.03402
300.03374
300.03421
300.03571
300.02929
300.02798
300.02757
300.02783
300.02977
300.02423
300.02245
300.02221
300.02255
300.02368
300.01879
300.01784
300.01756
300.01779
300.01946
300.01541
300.01382
300.0136
300.01382
300.01462
300.0109
300.01025
300.01013
300.01037
300.01195
300.00904
300.00726
300.00694
300.00687
300.00711
300.00469
300.00457
300.00464
300.00494
300.00673
300.00503
300.00354
300.0033
300.00326
300.00335
300.00306
300.00266
300.00254
300.00266
300.00367
300.00257
300.00182
300.00172
300.00178
300.00209
300.00126
300.00102
300.00098
300.00107
300.00173
300.00122
300.00063
300.00053
300.00056
300.00071
300.00055
300.00038
300.00034
300.00043
300.00096
300.00096
300.00046
300.00038
300.00041
300.00056
300.0008
300.00062
300.00058
300.00066
300.00115
300.00159
300.00109
300.00101
300.00105
300.00121
300.00184
300.00165
300.00159
300.00167
300.00217
300.0031
300.00258
300.00248
300.00254
300.00273
300.00377
300.00352
300.00343
300.00353
300.00407
300.00538
300.00483
300.00472
300.00483
300.00512
300.00642
300.00606
300.00593
300.00605
300.00673
300.00861
300.00785
300.00772
300.00789
300.00834
300.00934
300.00886
300.0087
300.0089
300.01013
300.01295
300.01171
300.0115
300.01173
300.01238
300.01151
300.01107
300.01098
300.01138
300.01364
300.01902
300.019
300.01904
300.01963
300.02042
300.02933
300.0246
300.02139
300.01981
300.01431
300.02901
300.00452
299.99937
299.99653
300.00808
299.69883
299.75372
299.80128
299.83789
299.97825
299.98818
299.64974
299.59992
299.55413
299.50925
300.0044
299.96174
299.93689
299.93104
299.98743
299.94718
300.00995
300.02812
300.05363
300.09699
300.07039
300.05633
300.05459
300.05444
300.05172
300.02239
300.02951
300.03156
300.03544
300.04039
300.03089
300.02988
300.02906
300.02877
300.02686
300.01793
300.01637
300.01611
300.01638
300.01694
300.01575
300.01507
300.01481
300.015
300.01617
300.01244
300.01113
300.01091
300.01104
300.01145
300.0098
300.00937
300.00921
300.00935
300.01018
300.00791
300.00715
300.00701
300.00712
300.00743
300.00575
300.00547
300.00538
300.0055
300.00613
300.00462
300.00401
300.0039
300.00397
300.00419
300.00292
300.00274
300.0027
300.0028
300.00339
300.00242
300.00183
300.00173
300.00177
300.00191
300.00107
300.00095
300.00094
300.00105
300.00167
300.00117
300.00053
300.00042
300.00043
300.00054
300.0002
300.00009
300.00009
300.00021
300.00088
300.00085
300.00012
300.00001
300
300.00011
300.00022
300.0001
300.00011
300.00025
300.00105
300.00153
300.00066
300.00052
300.00052
300.00066
300.00134
300.00116
300.00116
300.00131
300.00228
300.00337
300.00229
300.00213
300.00214
300.00237
300.00372
300.00344
300.00341
300.00359
300.0048
300.00664
300.00532
300.00512
300.00518
300.00555
300.00782
300.00735
300.00726
300.00748
300.00893
300.01174
300.01019
300.00997
300.0101
300.01071
300.0142
300.01344
300.01324
300.01347
300.01512
300.01913
300.01743
300.0172
300.01748
300.01843
300.0233
300.02217
300.02183
300.02206
300.02381
300.02922
300.02739
300.02715
300.02757
300.02887
300.0351
300.03363
300.03316
300.03343
300.03544
300.04252
300.04036
300.04009
300.04064
300.04235
300.05079
300.04878
300.0481
300.04836
300.0505
300.05941
300.05775
300.0576
300.0585
300.06092
300.0726
300.06972
300.06855
300.06854
300.06911
300.06902
300.06919
300.0693
300.0706
300.07366
300.06177
300.05919
300.05819
300.05827
300.05934
300.0505
300.04871
300.04854
300.04932
300.05146
300.04282
300.04102
300.04039
300.04062
300.04254
300.03545
300.03362
300.03341
300.03395
300.03551
300.0292
300.02781
300.02734
300.02754
300.02924
300.02383
300.02217
300.02198
300.02238
300.02358
300.01869
300.01766
300.01734
300.01753
300.01916
300.01516
300.01355
300.01335
300.01358
300.0144
300.0109
300.01024
300.01007
300.01026
300.0118
300.009
300.00757
300.00739
300.0075
300.00801
300.00576
300.00533
300.00524
300.00541
300.00671
300.00488
300.00369
300.00353
300.00359
300.0039
300.00256
300.00228
300.00223
300.00237
300.00343
300.00235
300.00138
300.00125
300.00127
300.00146
300.00079
300.0006
300.00058
300.0007
300.00158
300.00112
300.00029
300.00016
300.00016
300.00027
300.00018
300.00004
300.00003
300.00013
300.0009
300.00096
300.00023
300.00012
300.00012
300.00022
300.0006
300.00047
300.00045
300.00055
300.00124
300.00177
300.00112
300.00101
300.00103
300.00114
300.00203
300.00186
300.00182
300.00191
300.00254
300.00357
300.00297
300.00287
300.00291
300.00309
300.00443
300.0042
300.00411
300.00422
300.00483
300.00645
300.00581
300.0057
300.00579
300.00606
300.00785
300.00753
300.00741
300.00754
300.00831
300.01075
300.00994
300.00981
300.00997
300.01039
300.01217
300.01178
300.01165
300.01186
300.01317
300.01718
300.01607
300.0159
300.01615
300.01682
300.01742
300.01702
300.01689
300.01723
300.01898
300.02856
300.02813
300.02792
300.02819
300.0294
299.99624
300.00165
300.00491
300.00763
300.01834
300.06725
300.08648
300.08976
300.09391
300.10213
300.01924
299.66418
299.61403
299.56758
299.51794
299.98865
299.97796
299.97944
299.98522
300.04534
300.01528
300.01359
300.01282
300.01211
300.0116
300.01969
300.01931
300.01947
300.01999
300.02211
300.01514
300.01307
300.01268
300.01275
300.01322
300.01373
300.01311
300.01287
300.01305
300.01417
300.01094
300.00972
300.00952
300.00966
300.01005
300.00868
300.00827
300.00811
300.00824
300.009
300.00706
300.00636
300.00624
300.00636
300.00667
300.00516
300.00489
300.00479
300.0049
300.00549
300.00417
300.00359
300.00349
300.00356
300.00378
300.0026
300.00242
300.00237
300.00247
300.00305
300.00218
300.00159
300.0015
300.00153
300.00167
300.00091
300.00078
300.00076
300.00086
300.00149
300.00105
300.0004
300.0003
300.00031
300.00042
300.0001
300
299.99999
300.0001
300.0008
300.0008
300.00003
299.99992
299.99992
300.00003
300.00014
300.00001
300.00002
300.00015
300.00102
300.00152
300.00058
300.00045
300.00046
300.0006
300.00129
300.0011
300.00109
300.00124
300.00228
300.00338
300.00224
300.00209
300.00211
300.00234
300.00375
300.00345
300.00341
300.00357
300.00482
300.00668
300.00535
300.00517
300.00525
300.00565
300.008
300.00749
300.00737
300.00755
300.00899
300.01181
300.01032
300.01014
300.01032
300.01097
300.01453
300.01371
300.01346
300.01365
300.01519
300.0192
300.01764
300.01746
300.01778
300.01879
300.02364
300.02246
300.02206
300.02225
300.02386
300.02927
300.02757
300.02738
300.02784
300.0292
300.03543
300.0339
300.03338
300.0336
300.03547
300.04253
300.04054
300.04032
300.04094
300.04272
300.05127
300.04917
300.04841
300.04861
300.05048
300.05936
300.05811
300.05803
300.05902
300.06154
300.07339
300.07039
300.06913
300.06904
300.06903
300.0731
300.07026