/*--------------------------------*- C++ -*----------------------------------*\
  =========                 |
  \\      /  F ield         | OpenFOAM: The Open Source CFD Toolbox
   \\    /   O peration     | Website:  https://openfoam.org
    \\  /    A nd           | Version:  7
     \\/     M anipulation  |
\*---------------------------------------------------------------------------*/
FoamFile
{
    version     2.0;
    format      ascii;
    class       volVectorField;
    location    "70";
    object      U;
}
// * * * * * * * * * * * * * * * * * * * * * * * * * * * * * * * * * * * * * //

dimensions      [0 1 -1 0 0 0 0];

internalField   nonuniform List<vector> 
25201
(
(120.04095 0.0087497707 0.0069222054)
(120.04349 0.014830674 0.0051490659)
(120.04077 0.0071483814 0.0086027149)
(120.04284 0.0050912414 0.014628576)
(120.02547 0.007227513 0.006800545)
(120.03758 0.003661958 0.0038760437)
(120.04077 0.0048153228 0.0044892023)
(120.04316 0.011799219 0.011655863)
(120.03962 0.006991927 0.0087744119)
(120.02326 0.0038957249 0.0038750216)
(120.03978 0.008903295 0.0069411158)
(120.03792 0.0041169383 0.0032125132)
(120.03195 0.010058569 0.0055278537)
(120.02358 0.056718775 0.028765243)
(120.01795 0.072949101 0.030302369)
(120.03678 0.010151283 0.014512962)
(120.0366 0.011886215 0.023053969)
(120.03362 0.021886224 0.030535229)
(120.04286 0.018977588 0.036154338)
(120.03754 0.030268729 0.056587223)
(120.04164 0.021153194 0.043886153)
(120.02701 0.020727309 0.044746044)
(120.02901 0.019404962 0.036805271)
(120.02351 0.028326858 0.047588903)
(120.03894 0.028991126 0.049130061)
(120.03386 0.045078285 0.064325768)
(120.02644 0.049444251 0.048286426)
(120.03336 0.013440808 0.037828942)
(120.02962 0.0056304181 0.050782409)
(120.03134 0.013932862 0.081970155)
(120.03431 0.019846748 0.070855159)
(120.03882 0.022412774 0.055996364)
(120.01923 0.020447883 0.11162129)
(120.02525 0.028724124 0.09441207)
(120.03193 0.032412681 0.075195773)
(120.01503 0.029942567 0.071162735)
(120.02347 0.020897484 0.055284056)
(120.01854 0.018101604 0.067792138)
(120.00803 0.025882152 0.086525689)
(120.00184 0.017945098 0.099897749)
(120.01514 0.012400774 0.076575696)
(120.01253 0.0045044265 0.082275519)
(120.02874 0.0052259607 0.089150066)
(120.01552 0.0074697612 0.1206795)
(119.99823 0.0063726205 0.10674136)
(119.9863 0.0054544564 0.094560889)
(120.00034 0.0040277837 0.073996916)
(120.00943 0.0047207975 0.042627953)
(120.02409 0.0033871439 0.018589532)
(120.03109 0.0057081006 0.0096662702)
(120.03102 0.0061537407 0.011274264)
(120.02284 0.00249442 0.015614309)
(119.99924 0.0045655354 0.017639902)
(120.00535 0.005428647 0.013221372)
(120.01476 0.0049973606 0.0090724702)
(120.01682 0.0073250559 0.012227735)
(120.02464 0.0097790777 0.015472998)
(120.01932 0.011735692 0.023252966)
(120.00849 0.0085774384 0.019077821)
(119.99438 0.015312904 0.028046439)
(120.00914 0.016321805 0.030863944)
(120.01443 0.018097548 0.026492241)
(120.00329 0.012940213 0.018060821)
(119.99938 0.0069032895 0.010442731)
(119.99862 0.0021337366 0.0046518067)
(120.01524 0.0024024604 0.005652921)
(120.00515 0.0023592393 0.0082389284)
(119.98871 0.0029884215 0.0076826806)
(119.9893 0.0078018913 0.015468582)
(119.98096 0.0071616287 0.022903504)
(119.98466 0.013734501 0.041481896)
(120.00075 0.016541448 0.04654934)
(120.01419 0.011243996 0.034230086)
(120.00257 0.0075043271 0.02589363)
(119.99763 0.003080144 0.031255819)
(119.97769 0.005526217 0.050077992)
(119.99225 0.0092321951 0.060516522)
(119.99543 0.013941204 0.055230027)
(120.00632 0.016424961 0.062437039)
(120.01142 0.019089351 0.05196538)
(120.01536 0.019485833 0.042920797)
(120.01877 0.01820034 0.034846283)
(120.01164 0.026474973 0.044226083)
(120.00175 0.023700946 0.038091279)
(119.99766 0.024109198 0.047417234)
(120.00464 0.01729873 0.038875508)
(120.00847 0.026880287 0.053323775)
(120.02141 0.029027278 0.055548924)
(120.02159 0.038863884 0.063543521)
(120.01739 0.041196767 0.058953213)
(120.01424 0.037508939 0.061539804)
(119.99912 0.038674172 0.063679199)
(120.00969 0.036929464 0.068459217)
(120.01752 0.038218369 0.070249845)
(120.02577 0.039834304 0.072212893)
(120.02937 0.040416042 0.065338509)
(120.03958 0.041905806 0.066507327)
(120.03609 0.041649914 0.073666798)
(120.02955 0.052239722 0.085469035)
(120.03364 0.053081431 0.077910004)
(120.02287 0.050242619 0.075434638)
(120.01866 0.049282154 0.082791699)
(120.00996 0.046116431 0.079370882)
(120.01418 0.047557483 0.072470174)
(120.00668 0.045104234 0.068798643)
(120.00223 0.044021486 0.076205787)
(119.99366 0.052454083 0.083347779)
(119.99945 0.052691013 0.075671817)
(120.0038 0.062108058 0.07507079)
(120.02144 0.073389157 0.085791732)
(120.02773 0.066957212 0.088403363)
(120.01577 0.062098631 0.084527878)
(120.00972 0.06319427 0.093561935)
(120.0215 0.068194234 0.097859261)
(120.01224 0.084659135 0.11197131)
(120.01935 0.08493393 0.10146146)
(120.00685 0.07782986 0.095687738)
(119.99955 0.077536317 0.10571115)
(119.99008 0.069605652 0.098857688)
(120.00027 0.057565667 0.088619505)
(120.00666 0.057613931 0.080457331)
(119.9972 0.071253864 0.089998226)
(119.99064 0.063984236 0.083376565)
(119.98375 0.06281921 0.092060603)
(119.97303 0.076035205 0.099742386)
(119.98253 0.075793526 0.089279709)
(119.99072 0.08527504 0.085151209)
(120.00438 0.075673331 0.061875827)
(120.01845 0.0598634 0.040733457)
(120.01175 0.089271698 0.026922296)
(120.00621 0.10403122 0.019690065)
(120.00304 0.11243959 0.0085855354)
(119.98878 0.10090417 0.0080840507)
(119.99185 0.093987674 0.017825728)
(119.99762 0.082047825 0.024650528)
(120.0036 0.068543946 0.028006064)
(120.00997 0.05470514 0.027446364)
(120.01271 0.045145749 0.026550105)
(120.015 0.027092387 0.017848111)
(120.02541 0.01602582 0.0093079036)
(120.01726 0.012682657 0.0073708154)
(120.00354 0.018378321 0.013179544)
(119.99479 0.028919974 0.016164314)
(120.0101 0.031811268 0.016633591)
(120.02085 0.024123578 0.011681864)
(120.00924 0.019916335 0.0090416459)
(120.00568 0.013834337 0.0060045363)
(120.015 0.0093908716 0.0052275079)
(120.03135 0.011627292 0.006348518)
(120.01534 0.0058405623 0.0026992168)
(119.99865 0.0046771615 0.0025012116)
(119.99948 0.010597106 0.0072648214)
(119.98937 0.015972787 0.0086326513)
(119.98865 0.0079542318 0.0036728453)
(120.00524 0.0086406883 0.0028813023)
(119.99929 0.011452709 0.0028463371)
(120.02328 0.016472981 0.0030539105)
(120.02566 0.019599477 0.003783627)
(120.01631 0.03581585 0.011788695)
(120.0035 0.027402536 0.0084083961)
(119.98502 0.043542968 0.015363749)
(120.00214 0.048468964 0.017613589)
(120.00583 0.040215178 0.017963766)
(120.01715 0.044167767 0.019699345)
(120.02009 0.035767963 0.01803695)
(120.01361 0.053744796 0.019696016)
(120.00892 0.065046434 0.017500285)
(119.99694 0.058004206 0.015416608)
(119.98616 0.072009156 0.021705121)
(119.9924 0.060633461 0.024494809)
(119.99857 0.048767712 0.025072207)
(120.00244 0.038950068 0.024231322)
(119.9966 0.044397777 0.032597386)
(120.00472 0.036669642 0.036341492)
(119.99282 0.022594419 0.022706802)
(119.99091 0.026200243 0.035916094)
(119.9962 0.031974371 0.043767732)
(120.00522 0.037169744 0.052402133)
(119.9933 0.050198613 0.063031683)
(119.98755 0.041918864 0.050636835)
(119.98067 0.042159354 0.062031813)
(119.99057 0.044239881 0.065882996)
(119.9942 0.048705173 0.071601178)
(119.9879 0.048252395 0.078987711)
(119.98474 0.044258572 0.073599046)
(119.97694 0.051030961 0.07868688)
(119.98264 0.051958685 0.070461122)
(119.98586 0.057491317 0.077246097)
(119.97971 0.055762804 0.085060418)
(119.96989 0.066500948 0.0908002)
(119.97843 0.067479966 0.081520463)
(119.9824 0.067650209 0.067925814)
(119.99367 0.063431993 0.050561377)
(120.00593 0.053204426 0.03737453)
(120.00013 0.064959282 0.039622513)
(120.01573 0.062637972 0.037575988)
(120.02335 0.064479522 0.038418266)
(119.99146 0.099571468 0.070297896)
(119.99818 0.09050837 0.071412774)
(120.00787 0.081138451 0.057548545)
(120.01566 0.073260401 0.047325912)
(120.00788 0.069713944 0.04538086)
(120.00369 0.077374019 0.044658063)
(120.01143 0.069762994 0.037353887)
(120.01964 0.071304273 0.038105471)
(120.01179 0.080355496 0.046262735)
(120.00186 0.08948345 0.057962196)
(119.99484 0.084375469 0.053361505)
(120.00036 0.07641478 0.053148927)
(119.99132 0.08388558 0.064645988)
(119.9847 0.092848511 0.064002148)
(119.97373 0.10019972 0.077529971)
(119.98297 0.089494243 0.076608267)
(119.98947 0.097976551 0.08554932)
(119.99948 0.10568671 0.09355982)
(120.01011 0.10200297 0.1010457)
(120.0427 -0.0049316658 0.01461522)
(120.04065 -0.0070750931 0.0085515635)
(120.04131 -0.0030412989 0.00046441976)
(120.03247 -0.012886309 0.037885984)
(120.02934 -0.0049171573 0.05079498)
(120.02854 -0.0043056085 0.089155068)
(120.02393 -0.028040355 0.09428639)
(120.03323 -0.01909439 0.070950322)
(120.03063 -0.013058047 0.082035603)
(120.01465 -0.011907841 0.076418226)
(120.01238 -0.0040118889 0.082226619)
(119.99805 -0.0060526346 0.10661018)
(120.01523 -0.006675555 0.12063411)
(120.01839 -0.019672331 0.11150328)
(120.00128 -0.017590299 0.099557554)
(120.00714 -0.025508416 0.086038986)
(120.01777 -0.017645306 0.067566003)
(120.02245 -0.020503868 0.055009738)
(120.0374 -0.021831994 0.056135665)
(120.03026 -0.031882883 0.07508147)
(120.01387 -0.029587557 0.070609311)
(120.02005 -0.028754778 0.054927911)
(120.02582 -0.020446818 0.044430665)
(120.03544 -0.011680752 0.023074929)
(103.43638 0.15936483 0.17722979)
(110.29563 0.17249299 0.20085641)
(112.60192 0.17801654 0.21826785)
(113.76075 0.17599633 0.23263152)
(118.07008 0.052887615 0.21938001)
(118.58771 -0.18332714 0.11729701)
(114.98975 -0.17646059 0.25891722)
(113.92449 -0.17134568 0.28738161)
(111.68026 -0.17041803 0.31374077)
(104.74619 -0.18245644 0.33187801)
(104.6354 -0.062664468 0.096177035)
(111.49423 -0.064758626 0.10156265)
(113.74231 -0.064306063 0.098584135)
(114.83362 -0.064210739 0.094868932)
(118.6059 -0.082518761 0.063108891)
(118.75248 -0.074196246 0.040139466)
(115.01375 -0.067818087 0.073462035)
(113.92722 -0.067714453 0.079463188)
(111.68287 -0.069188869 0.085778768)
(104.81866 -0.072186076 0.093241063)
(104.8758 -0.043350303 0.054243185)
(111.73589 -0.043241273 0.052001908)
(113.98019 -0.042941904 0.049079748)
(115.06774 -0.043400476 0.046130019)
(118.83143 -0.053890829 0.025528261)
(118.91086 -0.042496642 0.017737792)
(115.14268 -0.034204693 0.035113359)
(114.05605 -0.033755985 0.037813951)
(111.81217 -0.034060066 0.040683336)
(104.94858 -0.035054122 0.043828365)
(104.99776 -0.025361544 0.031521531)
(111.86259 -0.025026958 0.029725202)
(114.1068 -0.024949448 0.027736117)
(115.19327 -0.025401592 0.025799986)
(118.96932 -0.032881704 0.012642924)
(119.01872 -0.026083817 0.0091347389)
(115.24011 -0.019808233 0.019570822)
(114.1536 -0.019362578 0.021152349)
(111.90921 -0.019365605 0.022817645)
(105.04191 -0.019728004 0.024483075)
(105.07844 -0.015190557 0.018770112)
(111.94664 -0.014959117 0.017504487)
(114.19133 -0.01500026 0.016205832)
(115.27773 -0.015400338 0.014970487)
(119.05804 -0.020705649 0.0067607473)
(119.09056 -0.01662018 0.0050533728)
(115.30994 -0.012151216 0.011588367)
(114.22333 -0.011789219 0.012579443)
(111.97847 -0.011723113 0.013628559)
(105.10868 -0.011899694 0.014669031)
(105.13486 -0.0093712456 0.011518036)
(112.005 -0.0092418313 0.010673693)
(114.25005 -0.0093171809 0.0098300632)
(115.33652 -0.0096363178 0.0090402151)
(119.11713 -0.013406144 0.0038316396)
(119.1391 -0.010875663 0.0029364754)
(115.35878 -0.0077076496 0.0071141078)
(114.27211 -0.0074281496 0.0077501781)
(112.02697 -0.0073523167 0.008438653)
(105.15567 -0.0074561917 0.0091427924)
(105.17429 -0.005994601 0.0073326819)
(112.04554 -0.0059064238 0.0067361032)
(114.29076 -0.0059736862 0.006167283)
(115.37723 -0.0062125025 0.0056509668)
(119.15717 -0.0088409559 0.0022793284)
(119.1721 -0.0071920289 0.0018037404)
(115.39263 -0.0050514982 0.0045716664)
(114.306 -0.0048544073 0.0049988609)
(112.06075 -0.0048029459 0.00547506)
(105.1886 -0.0048815237 0.0059804227)
(105.20181 -0.0040250912 0.0049457964)
(112.07376 -0.0039572266 0.0045265397)
(114.31905 -0.0039921635 0.0041244547)
(115.40544 -0.004147453 0.0037644321)
(119.18437 -0.0058403326 0.0014560808)
(119.19448 -0.0047394113 0.0011939477)
(115.41616 -0.0034328773 0.0031473505)
(114.32965 -0.0033136565 0.0034566895)
(112.08437 -0.0032853096 0.003793981)
(105.21163 -0.0033313776 0.0041251166)
(105.22118 -0.0026786019 0.0033713308)
(112.09362 -0.0026686032 0.0031291422)
(114.33889 -0.0027099833 0.0028609658)
(115.42513 -0.0028099944 0.0025995477)
(119.20272 -0.003840931 0.00098779412)
(119.20947 -0.0030899295 0.00084267496)
(115.43267 -0.0021915234 0.002037451)
(114.34637 -0.00208512 0.0022382482)
(112.10115 -0.0020083001 0.0024272506)
(105.22803 -0.0019651608 0.0025737332)
(105.23498 -0.0012940859 0.0017754557)
(112.10775 -0.0013697612 0.001699837)
(114.35293 -0.0014727653 0.0015847429)
(115.43893 -0.0015978082 0.0014612432)
(119.21486 -0.0024593392 0.00077526357)
(119.21919 -0.0019322799 0.0008235956)
(115.44417 -0.001109132 0.0010610985)
(114.35813 -0.00097494693 0.0011211547)
(112.11303 -0.00088562032 0.0012140426)
(105.23961 -0.00088145426 0.0013436631)
(105.24458 -0.00072643185 0.0011806687)
(112.11775 -0.00065047234 0.00099700421)
(114.36286 -0.00070128486 0.00090145002)
(115.44858 -0.00082509756 0.00088460134)
(119.22262 -0.0015110879 0.00094834642)
(119.22529 -0.0011671545 0.0010099983)
(115.45229 -0.00066488164 0.00075777482)
(114.36656 -0.00056522186 0.00075430848)
(112.12153 -0.0005518206 0.00085458029)
(105.24764 -0.00068168896 0.0010799014)
(105.25114 -0.00074044777 0.0011941156)
(112.12492 -0.00055285388 0.00087715727)
(114.36997 -0.00051554135 0.00075428545)
(115.45537 -0.00058347958 0.00076009617)
(119.22723 -0.00084135538 0.0010525232)
(119.22875 -0.00044338727 0.0011469145)
(115.45817 -0.00047397007 0.0010597985)
(114.37279 -0.00045894971 0.0010855927)
(112.12778 -0.00055560974 0.001254117)
(105.25307 -0.0008261549 0.001592526)
(105.25583 -0.0010512215 0.0019154684)
(112.13053 -0.00081482808 0.0016571849)
(114.37559 -0.0006698354 0.0014860067)
(115.46061 -0.00060824692 0.0014179965)
(119.2299 -0.00016524035 0.0012138501)
(119.23076 -1.5436412e-05 0.0011779328)
(115.46257 -0.00069665077 0.001546999)
(114.37755 -0.00080472145 0.0016316565)
(112.13251 -0.00094110265 0.0017544269)
(105.25692 -0.0010909714 0.0018784035)
(105.25924 -0.00092357155 0.0016087993)
(112.13475 -0.00088662448 0.0016047429)
(114.37978 -0.00080077532 0.0015385358)
(115.46443 -0.00069980067 0.0014556055)
(119.23138 -1.8272234e-05 0.0010792403)
(119.23201 -0.00012590021 0.00095112914)
(115.46694 -0.0006182121 0.001273155)
(114.38241 -0.0006607944 0.0013549493)
(112.13748 -0.00067303945 0.0014033749)
(105.26078 -0.00063782202 0.0013898484)
(105.26409 -0.00032422071 0.00106367)
(112.14136 -0.00033484222 0.001073058)
(114.38633 -0.00038517252 0.0009945994)
(115.47029 -0.00042781031 0.00090891132)
(119.23274 -0.00025550888 0.00071143445)
(119.23283 -0.00049239042 0.00014125723)
(115.47244 -0.00044844411 -0.00029194951)
(114.38869 -0.00035894727 -0.00031842357)
(112.14371 -0.00020530108 -0.00034331854)
(105.26513 -0.00021871724 -0.00052500251)
(105.26238 -0.0017824146 -0.0012197156)
(112.14174 -0.0020668277 -0.0011301469)
(114.38724 -0.0021050255 -0.0010368285)
(115.47093 -0.0020415232 -0.00095609168)
(119.23143 -0.00091583721 -4.7099037e-07)
(119.23001 0.0005032855 0.0010996734)
(115.46848 -0.00021981218 0.00067507727)
(114.38488 -0.00036409588 0.00054727955)
(112.13823 -0.0004620397 0.00035140773)
(105.25436 -0.00039084159 0.00013554622)
(119.29002 0.00049845032 0.00062484372)
(114.98496 -0.0012994024 -0.00074189762)
(113.90301 -0.0016533442 -0.00098628449)
(111.62406 -0.0019572077 -0.0012652535)
(104.64418 -0.0017599394 -0.0014080363)
(104.65515 -0.0045415902 -0.00074552673)
(111.62987 -0.0047537288 -0.00080880333)
(113.90735 -0.0044972687 -0.00073861159)
(114.98928 -0.0041221823 -0.00063586764)
(119.29161 -0.00098643478 0.000386045)
(119.29329 -0.00032840184 0.00032501223)
(114.9927 -0.0016964421 -0.00042009073)
(113.91092 -0.001819172 -0.00050104047)
(111.63432 -0.0018546727 -0.00056453894)
(104.66043 -0.0021428485 -0.00079005316)
(104.65935 0.00086218112 0.00059827919)
(111.63194 0.001104727 0.00082514891)
(113.9086 0.00090778375 0.00081733055)
(114.99058 0.00076139934 0.00076444914)
(119.29336 0.00030114737 0.0006361339)
(119.29256 6.8512194e-05 0.0006170024)
(114.98581 0.00046888313 0.0013985496)
(113.90316 0.00064130021 0.0015718549)
(111.62665 0.00082194794 0.0016750978)
(104.65483 0.00091755178 0.0015969515)
(104.65191 0.00062943205 0.0019383429)
(111.6223 0.00053501181 0.001947581)
(113.89908 0.00041351918 0.0018265825)
(114.98201 0.0002864411 0.0016473801)
(119.29202 -6.8531626e-06 0.00067551732)
(119.29153 3.6771345e-05 0.00084574256)
(114.97986 0.00032817761 0.0018104429)
(113.89659 0.00041694332 0.0019753188)
(111.61989 0.00048191268 0.0021283914)
(104.64946 0.00048030975 0.0022039339)
(104.64798 0.00044776382 0.0023060785)
(111.6177 0.00051625179 0.0021308605)
(113.89463 0.00048143676 0.0019520919)
(114.97791 0.00039808891 0.0018163601)
(119.29076 -1.2564121e-06 0.0010302453)
(119.28971 -0.00025214163 0.0011143139)
(114.97601 0.0002117798 0.0015629691)
(113.8925 0.00029273617 0.001650264)
(111.6158 0.00030811593 0.0018233453)
(104.64605 0.00025995053 0.0020841856)
(104.64456 -0.00026052917 0.0019660009)
(111.61329 -0.00020407404 0.0016811559)
(113.89009 -0.00018579767 0.0015357623)
(114.97358 -0.00023006772 0.0014924123)
(119.28832 -0.00059150008 0.0012723044)
(119.28644 -0.00086704536 0.0014268271)
(114.97103 -0.0005057389 0.0016106333)
(113.88734 -0.00048148474 0.001639843)
(111.61084 -0.00051412694 0.0017679468)
(104.64221 -0.00060472798 0.0020257663)
(104.63922 -0.00061141 0.0020051742)
(111.60703 -0.0005362072 0.0017764701)
(113.88368 -0.00052236435 0.0016615009)
(114.96736 -0.00057907918 0.0016418139)
(119.28379 -0.0011817325 0.0014656112)
(119.28042 -0.0017530738 0.0013500428)
(114.96308 -0.00077529548 0.0015529727)
(113.87915 -0.00065787373 0.0015801303)
(111.60268 -0.00060219439 0.0016969544)
(104.63471 -0.00062587007 0.0019168529)
(104.62978 -0.00084056034 0.002217376)
(111.5971 -0.00087787909 0.0020241474)
(113.87381 -0.0009819541 0.0019063115)
(114.95776 -0.0011390213 0.001845509)
(119.27623 -0.0024536978 0.0013575686)
(119.27099 -0.003233696 0.0015034261)
(114.95161 -0.0016358924 0.0024988015)
(113.86741 -0.0014554607 0.00262057)
(111.59086 -0.001315934 0.0027524923)
(104.62328 -0.0012204904 0.0028744858)
(104.6159 -0.0017356787 0.0039030442)
(111.58292 -0.0018350564 0.003750389)
(113.85974 -0.0019832394 0.0035557216)
(114.94395 -0.0021807 0.0033628735)
(119.26445 -0.0040967283 0.001785136)
(119.2564 -0.0050859569 0.0021941529)
(114.93525 -0.0027477766 0.0042520185)
(113.85088 -0.0025218315 0.0045011303)
(111.5743 -0.0023645715 0.0047798273)
(104.60725 -0.0022860072 0.0050241327)
(104.59721 -0.0028286653 0.0061551002)
(111.5636 -0.0029015256 0.0058128373)
(113.84039 -0.0030829172 0.0054586115)
(114.92472 -0.0033585851 0.0051653413)
(119.24657 -0.0062714819 0.0027138663)
(119.23463 -0.0077144806 0.0033670951)
(114.91244 -0.0040987226 0.0062882463)
(113.82797 -0.003759195 0.0066348978)
(111.5514 -0.0035382813 0.0070592952)
(104.58487 -0.0034509782 0.0074879447)
(104.57042 -0.0042280514 0.0091763833)
(111.53627 -0.0043472515 0.0086773297)
(113.81302 -0.0046194679 0.0081731206)
(114.89741 -0.0050332012 0.007752087)
(119.22013 -0.0094694209 0.0041895034)
(119.20263 -0.011631578 0.0052560045)
(114.87967 -0.006235302 0.009735541)
(113.79515 -0.0057415274 0.010265623)
(111.51862 -0.0054162473 0.010879357)
(104.5527 -0.005265206 0.0114704)
(104.53205 -0.0065877842 0.014375551)
(111.49703 -0.0067724966 0.013686142)
(113.77369 -0.0071553337 0.012934957)
(114.85809 -0.0077398885 0.012268037)
(119.1814 -0.014291478 0.0066235343)
(119.1558 -0.017632314 0.0083935155)
(114.83269 -0.0096439941 0.015506264)
(113.74821 -0.0089484033 0.01634698)
(111.47187 -0.0084982386 0.017280879)
(104.50716 -0.0082863207 0.018118024)
(104.47785 -0.010422876 0.02282677)
(111.44111 -0.010658523 0.021812941)
(113.71748 -0.011176805 0.020659001)
(114.80183 -0.01199817 0.019618002)
(119.12461 -0.021813258 0.010738547)
(119.0871 -0.027241842 0.013868259)
(114.76626 -0.015121856 0.024995249)
(113.68184 -0.014129188 0.026304809)
(111.40589 -0.013511442 0.027772197)
(104.4435 -0.013264718 0.029094088)
(104.4015 -0.016726873 0.036791999)
(111.36164 -0.017056227 0.035327728)
(113.63765 -0.017737757 0.033580025)
(114.72216 -0.018886167 0.031993674)
(119.04037 -0.033958272 0.018193652)
(118.98529 -0.043216001 0.024230793)
(114.67464 -0.02480885 0.042252394)
(113.58981 -0.023404883 0.044411195)
(111.31416 -0.02257939 0.046834735)
(104.35547 -0.022345552 0.049189771)
(104.29046 -0.027191922 0.060493205)
(111.24663 -0.028083847 0.059021607)
(113.52294 -0.028969756 0.056550385)
(114.60866 -0.030542224 0.054120081)
(118.91239 -0.053226173 0.032701751)
(118.83748 -0.070868684 0.046369446)
(114.54639 -0.044557839 0.079614853)
(113.45974 -0.042492244 0.083857104)
(111.18227 -0.041241687 0.088495373)
(104.2238 -0.041384177 0.092534397)
(104.10205 -0.030198988 0.08337154)
(111.06853 -0.033407248 0.085882421)
(113.34877 -0.035541099 0.083171711)
(114.43532 -0.038623346 0.07949386)
(118.71714 -0.074065438 0.056629469)
(118.6623 -0.10778262 0.10478408)
(114.32956 -0.048525372 0.16338137)
(113.23791 -0.044173472 0.17011909)
(110.94904 -0.043294319 0.17605909)
(103.97388 -0.049080442 0.1781097)
(104.25283 0.092772717 -0.22443898)
(111.1729 0.097985209 -0.18989048)
(113.40485 0.086543574 -0.16449931)
(114.44307 0.073747886 -0.142109)
(118.48059 0.020535403 0.0045019889)
(118.72967 -0.38089733 0.59553997)
(115.08628 0.49645884 1.9789748)
(114.07955 0.6378365 2.2074175)
(111.73863 0.73690347 2.4287547)
(104.28973 0.42696365 2.445018)
(103.99491 0.86357755 0.36960131)
(110.91774 0.80635462 0.3598466)
(113.14483 0.74913493 0.33769004)
(114.17452 0.6969125 0.31266071)
(118.15943 0.33863192 0.20695545)
(118.44178 0.11256567 0.008536097)
(114.10573 0.12509141 0.079545093)
(113.01581 0.12783204 0.085306645)
(110.72945 0.13256771 0.087309467)
(103.76493 0.13902722 0.084952241)
(103.98784 0.12633966 0.060529374)
(110.94965 0.11799869 0.054237752)
(113.22789 0.11080036 0.050503673)
(114.31208 0.10532299 0.045892311)
(118.5822 0.079066847 0.0057728128)
(118.748 0.046415166 -0.016833228)
(114.46152 0.041003594 0.010437791)
(113.37602 0.041122933 0.013051908)
(111.09968 0.041586534 0.014863223)
(104.14476 0.040511864 0.016627509)
(104.23939 0.031398415 0.012858753)
(111.19314 0.030616134 0.010943498)
(113.46844 0.029836458 0.0095941791)
(114.55308 0.029441909 0.0078098847)
(118.85165 0.032871165 -0.013966953)
(118.94299 0.023495612 -0.014328673)
(114.63628 0.018115208 0.002937449)
(113.55213 0.017947243 0.0044731207)
(111.27705 0.017944687 0.0056369859)
(104.31982 0.017684787 0.0067544974)
(104.37711 0.012517324 0.0047183711)
(111.33608 0.01262057 0.0038298996)
(113.61152 0.012622096 0.0029116612)
(114.69537 0.012788001 0.0017102774)
(119.0101 0.017444066 -0.01212032)
(119.06501 0.013251565 -0.010596574)
(114.7469 0.0089465133 0.00047880728)
(113.66291 0.0086995656 0.0015109412)
(111.38723 0.0085968642 0.0023214421)
(104.42542 0.0084751693 0.0030509097)
(104.46485 0.0060070001 0.0020917946)
(111.42783 0.0060911254 0.0014856247)
(113.70397 0.0061996505 0.00081335874)
(114.7879 0.0064428915 -3.1377452e-05)
(119.10826 0.010177025 -0.008940182)
(119.14352 0.0079353863 -0.0075691384)
(114.82233 0.0047598861 -0.00034434575)
(113.73806 0.0045300921 0.00036507529)
(111.4617 0.004411358 0.00093709542)
(104.49682 0.0043270426 0.0014444839)
(104.52435 0.003202266 0.0010306398)
(111.48968 0.0032775835 0.0006090063)
(113.76632 0.0033893038 0.00013223244)
(114.85047 0.0035931876 -0.00045474219)
(119.17208 0.0062587453 -0.0063318478)
(119.19548 0.0049819468 -0.0052801027)
(114.87384 0.002740057 -0.00049503599)
(113.7894 0.0025597132 -9.089055e-06)
(111.51265 0.0024563298 0.00038884804)
(104.54595 0.002390903 0.00073852267)
(104.56518 0.0018021421 0.00053097672)
(111.53195 0.0018560823 0.00024174303)
(113.80888 0.0019478907 -8.8910032e-05)
(114.89312 0.0021050277 -0.00048927464)
(119.21459 0.0039816652 -0.0043732374)
(119.23027 0.0031961652 -0.0035956485)
(114.9091 0.0016523817 -0.00044683076)
(113.82461 0.0015200622 -0.00011663325)
(111.54765 0.001442986 0.00015931157)
(104.57983 0.0014020756 0.0004027706)
(104.59338 0.0010491216 0.00028607768)
(111.56102 0.0010810104 8.6092283e-05)
(113.83809 0.0011482309 -0.00014142038)
(114.92232 0.0012627966 -0.00041057551)
(119.24309 0.0025514787 -0.0029363926)
(119.25359 0.0020396458 -0.0023751317)
(114.93329 0.00098892083 -0.00035953871)
(113.84886 0.00089361506 -0.00013991884)
(111.57182 0.00083968989 4.8561831e-05)
(104.60329 0.00082074155 0.00021580925)
(104.61292 0.00061361865 0.00016190477)
(111.58115 0.00062372372 2.0339504e-05)
(113.85826 0.000668793 -0.00013672974)
(114.9424 0.00075170289 -0.00031541789)
(119.26212 0.0016229714 -0.0018961567)
(119.26905 0.0012949816 -0.0014698664)
(114.95001 0.00061009901 -0.00024973025)
(113.86571 0.00054336934 -0.00010424632)
(111.58867 0.00051118964 2.8201497e-05)
(104.61968 0.0005124219 0.00014828385)
(104.62677 0.00045920307 0.00015518572)
(111.59537 0.00045094172 5.707841e-05)
(113.87243 0.00047133276 -5.4385385e-05)
(114.9564 0.00052196781 -0.0001731869)
(119.2746 0.0010305264 -0.0010852035)
(119.27902 0.00081596257 -0.00071993641)
(114.96173 0.00048738697 -7.4278007e-05)
(113.87765 0.00045358783 1.7008026e-05)
(111.60068 0.00044142104 0.0001036058)
(104.63135 0.00045453657 0.0001761762)
(104.63642 0.00049685758 0.00020461157)
(111.60534 0.00047802086 0.00015085729)
(113.88233 0.00047472167 8.6876263e-05)
(114.96605 0.00048951672 2.259566e-05)
(119.28242 0.00063384859 -0.00038223976)
(119.28497 0.00043759973 -6.749302e-05)
(114.96935 0.00050328538 0.00014627653)
(113.88552 0.00050971673 0.00019021475)
(111.6086 0.00052596614 0.00023058916)
(104.63891 0.00052674254 0.00028393243)
(104.64173 3.9489707e-05 0.00054154037)
(111.61133 0.00015662926 0.00050983195)
(113.88842 0.00018287115 0.00050050109)
(114.97197 0.00018386277 0.00046026931)
(119.28679 0.00014491431 0.00027244542)
(119.28826 -0.00018930292 0.00068205257)
(114.97429 -0.00026839339 0.00099984076)
(113.89062 -0.00029405955 0.0010504844)
(111.61352 -0.00037535733 0.0010546187)
(104.64289 -0.00056482517 0.00097103332)
(104.64538 -0.0011330173 0.0011390428)
(111.61575 -0.00096004901 0.001283596)
(113.89294 -0.00082967254 0.0012971163)
(114.97628 -0.00076245381 0.0012492457)
(119.28941 -0.00046200683 0.00093599998)
(119.29026 -0.00054520857 0.00089274795)
(114.9778 -0.0010068438 0.0011547247)
(113.89432 -0.0011044199 0.0012047406)
(111.61725 -0.0012480308 0.001201863)
(104.64626 -0.0014134077 0.0010863606)
(104.64903 -0.001609425 0.0010494778)
(111.61952 -0.0014750109 0.0010816093)
(113.8965 -0.0013181107 0.0010323934)
(114.97959 -0.0011794567 0.00094546534)
(119.29087 -0.00052470873 0.00071696407)
(119.29152 -0.00048095002 0.00057842779)
(114.98299 -0.0012945376 0.00086923467)
(113.90004 -0.0014744279 0.0010110651)
(111.62333 -0.0016503398 0.0011278172)
(104.65181 -0.0017418437 0.0011303761)
(104.65777 -0.00056775943 0.0010342627)
(111.62952 -0.00089212424 0.0012321171)
(113.90609 -0.00088575601 0.0010205558)
(114.98826 -0.00078601183 0.00088329744)
(119.29251 -0.0002934826 0.00056436068)
(119.29272 0.00043931139 -0.00014286114)
(114.99151 0.0014860546 -0.0013835195)
(113.90958 0.0016092882 -0.0014366459)
(111.6332 0.0017397068 -0.0013800502)
(104.66064 0.0020583405 -0.0015924652)
(104.65901 0.0023359289 -0.003995815)
(111.63144 0.0023954221 -0.0043161122)
(113.90813 0.0022587913 -0.0041560568)
(114.98981 0.0020827408 -0.0038553405)
(119.29109 0.00070417882 -0.00088833666)
(119.28992 0.00028900418 0.00045377762)
(114.98762 0.0020338619 -0.0014618387)
(113.9058 0.0022531567 -0.0016192625)
(111.62892 0.0024885391 -0.0017031709)
(104.65513 0.00257308 -0.0012843066)
(104.64885 -1.5623672e-05 0.00017022555)
(111.62741 -0.00013765755 0.0003238639)
(113.90575 -0.00026423746 0.00057609864)
(114.98725 -0.00036400078 0.00083346618)
(119.28997 -0.00073005874 0.0018174342)
(105.18734 0.00013585182 7.8721977e-05)
(112.07728 6.307514e-05 0.0002710892)
(114.32562 -1.0253618e-05 0.00054702593)
(115.40636 -7.465309e-05 0.0008215868)
(119.2235 -0.00033996184 0.0017189393)
(119.22358 -0.00011468545 5.5988061e-05)
(115.4071 0.0001674901 -0.001846833)
(114.32621 0.00020870761 -0.0020417951)
(112.07918 0.00024242047 -0.0021818002)
(105.19325 0.00023641777 -0.002022189)
(105.19485 -0.0014083357 -0.0029640045)
(112.07966 -0.0011296823 -0.0029781901)
(114.32671 -0.0009378861 -0.0029500836)
(115.40769 -0.00080872067 -0.0028382828)
(119.22467 -0.00021843961 -0.0012287815)
(119.22619 -9.2399201e-05 -0.0010133502)
(115.40801 -5.3737735e-05 -0.0019065046)
(114.32669 -7.2172538e-05 -0.0019320577)
(112.07989 -0.00020016112 -0.0018782293)
(105.1952 -0.00039337974 -0.0019701953)
(105.19256 0.00029659661 0.00071426942)
(112.07651 0.00055184694 0.00092578939)
(114.3236 0.00062350479 0.00079439973)
(115.40527 0.00051941135 0.00066331023)
(119.22612 -0.00019951944 0.00030834607)
(119.2251 -0.00021502053 0.00075801148)
(115.40122 0.00093185901 0.0011076686)
(114.31898 0.0011212598 0.0012338901)
(112.07178 0.001165917 0.0013335402)
(105.18784 0.00097293706 0.0013341039)
(105.18531 0.0011326131 0.0013170049)
(112.06852 0.0011976679 0.0013344492)
(114.31606 0.0011089159 0.0012899643)
(115.3985 0.00092633859 0.0012215637)
(119.22436 -0.00022897433 0.0010192493)
(119.22371 -0.00021908159 0.0011694651)
(115.39707 0.00060245047 0.0012774831)
(114.31442 0.00074602943 0.0013188995)
(112.06696 0.00090549625 0.0013510506)
(105.18345 0.0010052871 0.0013319585)
(105.18206 0.00058803886 0.0012251403)
(112.06498 0.00030504361 0.0012020262)
(114.31262 0.00015101655 0.0011625661)
(115.39532 9.4562808e-05 0.0011263697)
(119.22283 -0.0001972391 0.0010754849)
(119.22165 -0.0001403167 0.00072116836)