/*--------------------------------*- C++ -*----------------------------------*\
  =========                 |
  \\      /  F ield         | OpenFOAM: The Open Source CFD Toolbox
   \\    /   O peration     | Website:  https://openfoam.org
    \\  /    A nd           | Version:  7
     \\/     M anipulation  |
\*---------------------------------------------------------------------------*/
FoamFile
{
    version     2.0;
    format      ascii;
    class       volScalarField;
    location    "420";
    object      nut;
}
// * * * * * * * * * * * * * * * * * * * * * * * * * * * * * * * * * * * * * //

dimensions      [0 2 -1 0 0 0 0];

internalField   nonuniform List<scalar> 
24789
(
0.0012050013
0.006172496
0.014966046
0.02569027
0.33504099
0.33700997
0.025858312
0.015066665
0.006212008
0.0012077728
0.0012106205
0.0062524274
0.01516935
0.0260298
0.33903102
0.34110628
0.026205349
0.015274502
0.0062938355
0.001213553
0.001216576
0.0063362795
0.015382053
0.026384892
0.34323952
0.34543405
0.026568949
0.015492346
0.0063798349
0.0012196962
0.0012229198
0.0064245485
0.015605359
0.026757535
0.34769389
0.35002287
0.026951108
0.015721379
0.006470489
0.0012262538
0.0012297069
0.0065177164
0.015840455
0.027149779
0.35242604
0.35490817
0.027353916
0.015962824
0.006566305
0.0012332866
0.0012370011
0.0066163253
0.016088629
0.027563801
0.35747518
0.36013265
0.027779801
0.016218097
0.0066678575
0.001240861
0.0012448778
0.0067209779
0.01635142
0.028002296
0.36288738
0.36574663
0.02823159
0.016488783
0.0067757716
0.0012490633
0.0012534319
0.006832322
0.016630448
0.028468159
0.36871912
0.37181371
0.028712382
0.01677662
0.0068907239
0.0012579996
0.0012627851
0.0069510634
0.016927632
0.02896491
0.37504152
0.37841472
0.029226048
0.017083632
0.007013421
0.0012678099
0.0012731004
0.0070778885
0.017245007
0.029496556
0.38194825
0.38565897
0.029776874
0.017411926
0.0071445275
0.0012786861
0.0012846034
0.0072133953
0.017584801
0.03006794
0.38956855
0.39370354
0.030370239
0.017763765
0.0072845187
0.0012908966
0.0012976204
0.0073578771
0.017949177
0.030684774
0.39809784
0.40279532
0.031012084
0.018141053
0.0074333841
0.0013048413
0.0013126459
0.0075108626
0.018339598
0.031353225
0.40785507
0.41335711
0.031708499
0.018544481
0.0075899962
0.0013211427
0.0013304676
0.0076702847
0.018755114
0.032077901
0.41941073
0.42616965
0.032460003
0.01897004
0.0077509568
0.0013408292
0.0013525531
0.0078310391
0.019188052
0.032853154
0.43385438
0.44276015
0.033254568
0.019407996
0.0079095613
0.0013660234
0.0013826084
0.0079921033
0.019632844
0.033675462
0.4533878
0.46717039
0.034252635
0.019936148
0.0081048687
0.0014066159
0.0014412901
0.0082606394
0.020506396
0.035315153
0.48635886
0.5154718
0.037321814
0.021768388
0.0087990365
0.0014808653
0.0015065887
0.0090763522
0.022285674
0.037917934
0.5363708
0.55302279
0.040384831
0.023696039
0.0096209032
0.0015341477
0.0015221067
0.010067179
0.025104062
0.043146517
0.55176196
0.58994258
0.03719192
0.022297101
0.009182251
0.0015004109
0.0014660953
0.0087593582
0.021368746
0.036105195
0.58225991
0.56153068
0.033021711
0.019493704
0.0079492003
0.0014172556
0.0013771483
0.0076076583
0.018572177
0.031555686
0.53968272
0.52278094
0.030786812
0.018117987
0.0074543034
0.0013437644
0.0013213286
0.0073515396
0.017869945
0.030352054
0.50926172
0.4980919
0.030015768
0.017683431
0.007277841
0.0013057046
0.0012929262
0.0072095872
0.017500601
0.029684655
0.48838175
0.47979712
0.029348858
0.017313677
0.0071402478
0.00128193
0.0012722402
0.007068729
0.017123835
0.029013045
0.47212234
0.46516833
0.02868108
0.016933128
0.0069957894
0.0012634886
0.0012554738
0.0069228602
0.016744848
0.028357444
0.4588033
0.4529303
0.028044469
0.016560991
0.0068509335
0.0012480856
0.0012412405
0.0067806536
0.016382802
0.027743401
0.44747493
0.44237816
0.027454017
0.016210594
0.0067123837
0.0012348699
0.0012289171
0.0066462632
0.016044513
0.027176117
0.43759252
0.43307897
0.026908772
0.015884255
0.0065823265
0.0012233324
0.0012180731
0.0065205477
0.015729712
0.026651611
0.42880666
0.42474939
0.026403726
0.015580497
0.0064608791
0.0012131043
0.0012083962
0.0064032282
0.01543642
0.026164708
0.42088612
0.41719801
0.025933766
0.015297088
0.0063475055
0.0012039211
0.0011996587
0.0062936315
0.015162346
0.025710628
0.41366995
0.41028771
0.025494601
0.015031845
0.0062414965
0.0011955887
0.0011916953
0.0061910294
0.014905401
0.025285371
0.40704005
0.40391601
0.025082444
0.014782751
0.0061421287
0.0011879643
0.0011843821
0.0060947203
0.014663714
0.024885554
0.40090684
0.39800389
0.024694321
0.01454811
0.0060487372
0.0011809392
0.0011776245
0.006004084
0.014435698
0.024508393
0.39519994
0.39248857
0.024327524
0.014326375
0.0059607147
0.0011744301
0.0011713478
0.0059185377
0.014219889
0.024151347
0.38986332
0.38731888
0.023979784
0.014116218
0.0058775166
0.0011683697
0.0011654893
0.0058375772
0.014015078
0.023812396
0.38485003
0.3824519
0.023649197
0.013916506
0.0057986804
0.0011627008
0.0011599981
0.0057607463
0.013820149
0.023489639
0.38011969
0.37784821
0.023333756
0.01372604
0.0057237119
0.001157374
0.0011548185
0.005687592
0.013633965
0.023181165
0.37563719
0.37794504
0.023338484
0.013728912
0.0057248423
0.0011574331
0.0011600655
0.0057619668
0.013823244
0.023494742
0.38022163
0.38256186
0.023654697
0.013919847
0.0058000026
0.0011627756
0.0011655693
0.0058389892
0.014018634
0.023818266
0.38496847
0.38744638
0.02398603
0.014120008
0.0058790243
0.0011684548
0.0011714383
0.0059201481
0.014223928
0.024158003
0.390001
0.39263847
0.024334653
0.014330708
0.0059624425
0.0011745276
0.0011777292
0.0060059524
0.014440358
0.024516053
0.39536427
0.39818463
0.024702588
0.014553138
0.0060507544
0.0011810515
0.0011845037
0.0060969186
0.014669177
0.024894535
0.40110685
0.4041385
0.025092232
0.014788703
0.0061445266
0.0011880958
0.001191839
0.0061936506
0.014911891
0.025296025
0.40728824
0.41056574
0.025506283
0.015038976
0.0062443882
0.0011957461
0.0011998315
0.0062968235
0.015170217
0.025723518
0.41398207
0.41754936
0.025948044
0.015305804
0.0063510487
0.0012041118
0.0012086059
0.0064071576
0.015446062
0.026180476
0.42128181
0.42519531
0.026421214
0.015591203
0.0064652498
0.001213336
0.0012183283
0.0065254302
0.015741641
0.026671072
0.42930871
0.43364362
0.026930452
0.015897553
0.0065877798
0.0012236131
0.001229225
0.0066523722
0.016059355
0.02720023
0.43822586
0.44308546
0.027480822
0.01622713
0.0067192096
0.0012352037
0.0012415985
0.0067882666
0.016401178
0.027773085
0.44825995
0.45379401
0.028077172
0.016581294
0.0068593695
0.001248464
0.0012558647
0.0069321455
0.016767105
0.028393146
0.45974357
0.46617725
0.028719461
0.016957157
0.007005871
0.0012638774
0.0012726042
0.0070794053
0.017149015
0.029053026
0.47318333
0.48088135
0.029388043
0.017338643
0.007151134
0.0012822343
0.0012931349
0.0072199005
0.017522613
0.029718397
0.4894446
0.4990774
0.030037489
0.017698659
0.0072865028
0.0013058486
0.0013214576
0.0073569038
0.017871909
0.030351682
0.51006594
0.52321947
0.030754373
0.018096281
0.0074522912
0.0013437482
0.0013786928
0.0076301918
0.018575724
0.031575521
0.54035779
0.56295381
0.033263989
0.019606556
0.0079730445
0.0014227592
0.0014600013
0.0087877047
0.021477462
0.036592815
0.58359823
0.59165353
0.034877328
0.021088056
0.0087453474
0.0014661231
0.0015062914
0.0099506978
0.024834754
0.042574856
0.55252258
0.55998838
0.039870326
0.023121748
0.0093482351
0.0014976486
0.001520423
0.009623117
0.023977811
0.041534187
0.53788074
0.51409445
0.037404423
0.021902781
0.0088293833
0.001487317
0.001441228
0.0083443673
0.02049574
0.035070155
0.48838308
0.46969505
0.033848324
0.019791821
0.0080921655
0.0014019284
0.0013756736
0.0079426607
0.019429751
0.033211878
0.4559112
0.44491459
0.032750325
0.019166444
0.0078382687
0.001357596
0.001343247
0.00774819
0.018929835
0.032331916
0.43564698
0.42764412
0.031930306
0.018702986
0.0076622654
0.0013311968
0.0013207321
0.00757757
0.018481317
0.031541207
0.42060173
0.41429592
0.03116512
0.018264791
0.0074940248
0.0013113775
0.001302873
0.007412198
0.018054838
0.030803859
0.40857162
0.40331858
0.030457809
0.017852133
0.0073325181
0.0012950636
0.0012878386
0.0072552791
0.017657017
0.030126811
0.39845492
0.39391907
0.029809837
0.017469287
0.0071806344
0.0012811143
0.0012748251
0.0071086157
0.017288807
0.029506212
0.38966487
0.3856551
0.029214711
0.017115064
0.0070391646
0.0012689169
0.0012633467
0.0069722212
0.016947832
0.028934718
0.38186124
0.37825907
0.02866513
0.016786581
0.0069076635
0.0012580779
0.0012530791
0.0068453857
0.016631071
0.028405458
0.3748295
0.37155551
0.028154755
0.016480823
0.0067852562
0.0012483233
0.0012437883
0.0067271567
0.016335593
0.02791261
0.36842318
0.36541993
0.027678293
0.016195011
0.006670978
0.001239455
0.0012353062
0.006616615
0.016058865
0.027451471
0.36253554
0.35976043
0.027231544
0.015926848
0.0065639679
0.0012313277
0.0012275067
0.006512942
0.015798751
0.027018196
0.35708671
0.35450694
0.026811023
0.015674373
0.0064634606
0.0012238317
0.0012202923
0.0064154282
0.015553477
0.026609668
0.352015
0.34960428
0.026413824
0.015435911
0.0063687766
0.0012168799
0.0012135862
0.0063234278
0.01532144
0.026223122
0.34726982
0.34500662
0.026037427
0.015210001
0.006279324
0.0012104042
0.0012073265
0.0062363852
0.015101298
0.025856275
0.34281012
0.3406761
0.025679622
0.014995327
0.0061945579
0.0012043468
0.0012014576
0.0061537607
0.014891746
0.02550693
0.33860054
0.3365819
0.025338338
0.014790651
0.0061139659
0.0011986534
0.0012078994
0.0062138251
0.015071209
0.025865922
0.33710176
0.33912975
0.026037322
0.015173864
0.0062541938
0.0012107358
0.0012136631
0.006295605
0.015278937
0.026212751
0.3412134
0.34335527
0.026392672
0.015386733
0.0063381167
0.0012166864
0.0012198106
0.0063817559
0.015497172
0.026576994
0.34555957
0.34783043
0.026766174
0.01561055
0.0064265947
0.0012230412
0.0012263843
0.0064726711
0.015726864
0.026960253
0.35017227
0.35258999
0.027159644
0.01584638
0.0065200653
0.0012298475
0.0012334394
0.0065688447
0.015969203
0.027364551
0.35508894
0.35767473
0.027575364
0.01609557
0.006619089
0.0012371684
0.0012410439
0.0066708606
0.016225638
0.027792392
0.36035449
0.36313486
0.028015972
0.016359625
0.0067242597
0.0012450783
0.0012492845
0.0067793751
0.016497795
0.028246611
0.36602393
0.36903038
0.028484669
0.016640355
0.0068362987
0.001253677
0.0012582719
0.0068951373
0.01678763
0.028730742
0.37216473
0.37543869
0.028985153
0.016939788
0.0069559651
0.0012630885
0.0012681497
0.0070189214
0.017097269
0.029248725
0.3788658
0.38246139
0.029521847
0.017260231
0.0070840615
0.00127348
0.0012791118
0.0071514977
0.017429118
0.029805407
0.38624502
0.3902396
0.030099916
0.01760412
0.0072212893
0.0012850818
0.0012914373
0.0072935185
0.01778575
0.030406519
0.3944745
0.39898648
0.030725903
0.017974203
0.0073682093
0.0012982344
0.0013055451
0.007445358
0.018169934
0.031059307
0.40382378
0.40905022
0.031407587
0.018373076
0.0075248868
0.0013134614
0.0013221015
0.0076066553
0.018583887
0.031771895
0.41475194
0.421044
0.03215233
0.018801957
0.0076903895
0.0013316169
0.0013422445
0.0077756859
0.019026716
0.032548644
0.4280867
0.43610933
0.0329609
0.019258328
0.0078623754
0.0013543707
0.0013685002
0.0079513232
0.019499584
0.033391578
0.4454212
0.45651323
0.033859866
0.019760224
0.0080515002
0.0013860784
0.0014112569
0.0081934696
0.020120019
0.034508437
0.47069461
0.48996696
0.035686386
0.020774776
0.0083912279
0.0014478885
0.0014906479
0.0089420592
0.0221537
0.03796866
0.51794427
0.53854734
0.039442415
0.023053444
0.0093535974
0.0015192165
0.001536194
0.0096920809
0.023852116
0.040645786
0.5564629
0.55631249
0.043602822
0.025353817
0.010149907
0.0015267242
0.42970281
0.053271296
0.029948589
0.011743281
0.001688428
0.0015860717
0.010392348
0.025799128
0.044807514
0.54447934
0.62227625
0.037340516
0.022385217
0.0092639633
0.0015131011
0.0014929989
0.0092293085
0.022604382
0.038659154
0.57376258
0.56351105
0.040834709
0.023580711
0.0095043646
0.0015071611
0.0015065336
0.0093822333
0.023316538
0.040119054
0.54016498
0.51261223
0.036776549
0.021508851
0.0086880724
0.0014740965
0.0014326241
0.0082365061
0.020241699
0.034701909
0.4858488
0.4673735
0.033631395
0.019642241
0.0080282821
0.0013963457
0.0013720121
0.0079018561
0.019330771
0.03306584
0.45389481
0.44324289
0.032645419
0.019096988
0.0078103086
0.0013551318
0.0013414977
0.0077280587
0.018879697
0.03225438
0.43429158
0.42655155
0.031871606
0.018665727
0.0076474507
0.00132992
0.0013197799
0.0075664358
0.018453062
0.031496026
0.41972145
0.41358581
0.031129941
0.018243054
0.0074855125
0.0013106548
0.0013023138
0.0074055343
0.018037785
0.030776027
0.40799611
0.40284861
0.030435402
0.017838487
0.0073271902
0.0012946229
0.0012874862
0.0072509638
0.017645953
0.030108542
0.39806844
0.39359897
0.029794714
0.017460163
0.0071770728
0.001280829
0.0012745916
0.0071056402
0.01728119
0.029493557
0.38939775
0.38543085
0.029204041
0.017108661
0.0070366642
0.0012687246
0.0012631865
0.0069700932
0.016942392
0.028925646
0.38167187
0.3780982
0.028657354
0.01678192
0.0069058353
0.0012579426
0.0012529636
0.0068437931
0.016627019
0.028398693
0.37469204
0.37143724
0.028148821
0.016477268
0.0067838566
0.0012482247
0.0012437036
0.0067259303
0.016332482
0.027907426
0.36832091
0.36533098
0.027673723
0.016192265
0.0066698925
0.0012393815
0.0012352424
0.0066156495
0.016056426
0.027447412
0.3624579
0.35969237
0.027227909
0.015924668
0.0065631052
0.0012312716
0.0012274569
0.0065121705
0.015796801
0.027014944
0.35702699
0.35445412
0.026808082
0.015672606
0.0064627601
0.0012237873
0.0012202525
0.0064147905
0.01555187
0.026606995
0.3519677
0.34956192
0.026411381
0.015434444
0.0063681952
0.0012168438
0.001213553
0.0063228932
0.015320091
0.026220883
0.34723189
0.34497267
0.026035356
0.015208754
0.0062788301
0.0012103732
0.0012072969
0.0062359252
0.015100136
0.025854347
0.34277988
0.34064953
0.025677823
0.014994243
0.0061941305
0.0012043177
0.0012014284
0.0061533639
0.014890738
0.025505252
0.33857793
0.33656346
0.025336748
0.014789695
0.006113587
0.0011986223
0.0011574084
0.0057241494
0.013727046
0.023335375
0.37787916
0.3801474
0.023491274
0.013821175
0.0057611461
0.0011600259
0.0011627223
0.0057990359
0.013917334
0.023650548
0.38247822
0.38487559
0.023813811
0.014015949
0.0058379118
0.0011655064
0.0011683842
0.005877826
0.014116959
0.023981023
0.38734403
0.38988839
0.024152654
0.014220682
0.0059188461
0.0011713605
0.001174442
0.0059610101
0.014327096
0.024328731
0.39251356
0.39522505
0.024509641
0.014436458
0.0060043856
0.0011776352
0.0011809479
0.0060490256
0.01454882
0.024695521
0.398029
0.40093174
0.024886749
0.014664433
0.0060950077
0.0011843893
0.0011879695
0.0061424044
0.014783446
0.025083627
0.40394084
0.40706454
0.025286497
0.014906067
0.0061912938
0.0011916991
0.0011955908
0.006241754
0.015032507
0.025495743
0.41031194
0.41369319
0.025711671
0.015162952
0.00629387
0.0011996584
0.0012039182
0.0063477187
0.01529768
0.025934826
0.41721981
0.42090461
0.026165565
0.015436881
0.0064033943
0.0012083897
0.0012130947
0.0064609832
0.01558089
0.026404527
0.42476295
0.4288119
0.026652038
0.015729863
0.0065205621
0.0012180578
0.0012233081
0.0065822008
0.01588418
0.02690891
0.43307223
0.43756779
0.027175528
0.016043949
0.0066459301
0.0012288805
0.0012348165
0.0067117611
0.016209489
0.027452689
0.44232854
0.44738981
0.027740649
0.016380721
0.0067795949
0.0012411624
0.0012479741
0.0068492457
0.016557635
0.028039924
0.45279708
0.45860541
0.028349918
0.01673942
0.0069202384
0.0012553139
0.0012632592
0.0069917578
0.016924691
0.028669312
0.46488665
0.47173664
0.028994712
0.017110717
0.0070625798
0.0012719149
0.0012814765
0.0071311107
0.017293949
0.029321325
0.479292
0.48775433
0.029644009
0.017471357
0.0071962922
0.0012923043
0.0013048905
0.0072589689
0.017641462
0.029957967
0.49737535
0.50854271
0.03027109
0.017810134
0.0073247855
0.0013202497
0.0013421811
0.0074171856
0.018032614
0.030674925
0.52226049
0.54000332
0.031416784
0.018462501
0.0075682158
0.0013752769
0.0014156669
0.0078856197
0.019318948
0.032751343
0.56294466
0.58428443
0.035174241
0.020935497
0.0086234715
0.0014611219
0.00150341
0.0092348654
0.022390602
0.037257626
0.59272027
0.55377538
0.044801386
0.025888013
0.0103841
0.0015457828
0.0015514419
0.0098212769
0.024235357
0.041355661
0.55455428
0.53668403
0.037250823
0.021981521
0.0089740198
0.0015065856
0.0014875069
0.0089063259
0.022063022
0.037972312
0.51562359
0.48677876
0.03553134
0.020638944
0.0083088371
0.0014462903
0.001409586
0.0081359928
0.02000232
0.03434187
0.46756521
0.45349651
0.033700485
0.019653691
0.0080028989
0.0013842635
0.0013668326
0.0079118497
0.019411737
0.033256893
0.44271575
0.43375111
0.032849138
0.019186405
0.0078306082
0.0013529329
0.0013409999
0.0077496989
0.018967308
0.032455315
0.42605576
0.41930575
0.032073801
0.018752473
0.0076689466
0.0013305386
0.001321168
0.0075888411
0.018542372
0.0317054
0.41326828
0.40778354
0.031350816
0.018337915
0.0075099415
0.0013126511
0.0013048383
0.0074326854
0.018139864
0.03101046
0.40274038
0.39805677
0.030683536
0.017948265
0.0073573611
0.0012976144
0.0012908911
0.0072841544
0.017763194
0.030369526
0.39367424
0.38954808
0.030067395
0.017584367
0.0072131403
0.0012845982
0.0012786823
0.007144365
0.017411719
0.029776682
0.38564579
0.38194021
0.029496417
0.017244865
0.0070777959
0.0012730984
0.0012678088
0.0070133805
0.017083638
0.029226144
0.37841112
0.3750407
0.028964947
0.01692762
0.0069510427
0.0012627833
0.001257998
0.0068907267
0.016776691
0.028712564
0.37181525
0.36872188
0.028468289
0.016630506
0.0068323403
0.0012534307
0.0012490626
0.0067757995
0.016488885
0.028231808
0.36575058
0.36289197
0.028002492
0.016351522
0.0067210154
0.0012448771
0.0012408607
0.006667903
0.016218227
0.027780055
0.36013811
0.35748119
0.027564075
0.016088788
0.0066163848
0.0012370011
0.0012332874
0.0065663712
0.015962988
0.027354213
0.35491493
0.35243314
0.027150145
0.015840673
0.0065177978
0.0012297094
0.0012262578
0.0064705779
0.015721587
0.026951469
0.3500303
0.34770157
0.026758016
0.01560565
0.006424654
0.0012229245
0.0012197023
0.0063799469
0.015492599
0.026569374
0.3454419
0.3432476
0.026385519
0.01538244
0.0063364197
0.0012165847
0.0012135662
0.0062940009
0.015274866
0.026205944
0.341114
0.33903779
0.026030732
0.01516993
0.0062526449
0.0012106409
0.001207802
0.0062122758
0.015067265
0.025859287
0.33701559
0.33711158
0.02586423
0.015070186
0.0062133801
0.001207842
0.0012107011
0.0062539151
0.015173138
0.026036144
0.3391353
0.34121607
0.02621216
0.015278583
0.0062954458
0.0012136432
0.0012166741
0.0063380114
0.015386419
0.026392165
0.34335625
0.34556015
0.026576719
0.015497015
0.0063816904
0.0012198013
0.0012230323
0.0064265334
0.015610342
0.02676583
0.34783069
0.35017235
0.026959997
0.015726724
0.0064726248
0.001226375
0.0012298367
0.0065200242
0.015846203
0.027159336
0.35258986
0.35508854
0.027364235
0.015969036
0.0065688031
0.001233426
0.0012371521
0.0066190488
0.016095378
0.027575011
0.35767418
0.36035352
0.027792027
0.016225463
0.0066708419
0.0012410252
0.0012450561
0.0067242532
0.016359457
0.028015613
0.36313358
0.36602219
0.028246167
0.016497603
0.0067793851
0.001249257
0.0012536429
0.0068363311
0.016640191
0.028484242
0.36902824
0.37216147
0.028730152
0.016787405
0.0068951869
0.001258229
0.0012630344
0.0069560501
0.016939596
0.028984554
0.37543367
0.3788572
0.029247813
0.017096938
0.0070190082
0.0012680801
0.0012733906
0.0070841652
0.017259846
0.029520747
0.3824474
0.38622198
0.029803753
0.017428478
0.007151595
0.0012789953
0.0012849296
0.0072213631
0.017603255
0.03009774
0.3902032
0.39441762
0.030403257
0.017784343
0.0072935118
0.0012912358
0.0012979662
0.0073680561
0.017972129
0.030721311
0.39889945
0.40369203
0.031052371
0.018166605
0.0074449056
0.0013051844
0.001312975
0.0075239171
0.018367945
0.031397358
0.40885412
0.41446467
0.031756374
0.01857577
0.0076048133
0.0013214453
0.0013307395
0.0076871619
0.018789422
0.032129085
0.4206319
0.4275098
0.032514001
0.019007597
0.0077704271
0.0013410964
0.001352933
0.0078545838
0.019230361
0.03291092
0.43532596
0.44439954
0.033323075
0.019460951
0.0079415261
0.0013668469
0.0013841943
0.0080400849
0.019711902
0.033772906
0.45523957
0.46914733
0.034396385
0.020056863
0.0081800783
0.0014092206
0.001446976
0.0084021763
0.02071247
0.035574138
0.4884808
0.51674406
0.037865476
0.022106858
0.008922183
0.0014899228
0.001516914
0.0094013563
0.023179533
0.039847941
0.53818846
0.5555149
0.039311546
0.023150806
0.0094508592
0.0015144408
1.3057338
2.2731423
1.6525595
0.59450532
0.037314958
0.022377297
0.0092068724
0.0015038647
0.0015215551
0.0096529215
0.024019201
0.04168683
0.56123272
0.0016612769
0.011409301
0.028982818
0.051360676
0.42729295
0.37120335
0.048530246
0.027385679
0.010787163
0.0015997289
0.0016106588
0.010781207
0.027437527
0.048685805
0.37003011
0.49227167
0.046538024
0.026492782
0.01056683
0.0015795207
0.89253817
1.068358
2.0853625
1.6601184
6.9598847
7.0385163
7.0132641
6.9598485
6.9138792
6.9647494
6.9714074
6.925524
0.0011986649
0.0061141971
0.014791262
0.025339484
0.33656971
0.33858666
0.025507755
0.01489221
0.0061539086
0.0012014621
0.0012043453
0.0061946229
0.014995478
0.025679906
0.3406592
0.34278885
0.025856371
0.015101371
0.0062363928
0.0012073207
0.0012103943
0.0062792603
0.015209821
0.026037109
0.34498004
0.34723706
0.026222585
0.015321153
0.0063233055
0.0012135722
0.0012168612
0.0063685694
0.015435375
0.02641288
0.34956444
0.3519671
0.026608411
0.01555277
0.006415145
0.001220269
0.001223803
0.0064630871
0.015673422
0.026809368
0.35445057
0.35702018
0.027016117
0.015797568
0.0065124795
0.0012274722
0.0012312865
0.0065633895
0.015925371
0.027228991
0.35968242
0.36244426
0.027448296
0.016057032
0.0066159049
0.0012352561
0.0012393946
0.0066701256
0.016192825
0.027674527
0.36531364
0.368299
0.027908017
0.016332939
0.0067261406
0.0012437158
0.0012482354
0.0067840492
0.016477687
0.028149362
0.37141077
0.37466043
0.028398897
0.016627269
0.0068439486
0.0012529717
0.0012579475
0.0069059632
0.016782101
0.028657417
0.37806178
0.38163053
0.028925377
0.016942403
0.0069701945
0.0012631872
0.0012687216
0.0070367637
0.017108649
0.029203701
0.38538595
0.3893505
0.029492892
0.017281035
0.0071057488
0.0012745847
0.0012808187
0.0071772229
0.017460034
0.029794017
0.39355289
0.39802859
0.030107679
0.017645799
0.0072512026
0.0012874743
0.001294613
0.0073276199
0.017838605
0.030434839
0.4028237
0.40799907
0.03077583
0.018038261
0.0074062735
0.0013023126
0.0013106771
0.0074868161
0.018244494
0.031131012
0.41363778
0.41985417
0.031499567
0.018456299
0.0075687472
0.0013198526
0.0013300939
0.0076516265
0.018672843
0.031880773
0.42681291
0.43474933
0.03227497
0.018894418
0.0077355746
0.0013418482
0.0013557262
0.007823732
0.019126055
0.032688577
0.44398241
0.45506082
0.033155484
0.019387471
0.0079254867
0.0013729974
0.0013982099
0.0080723261
0.019768273
0.033835568
0.46937002
0.48878304
0.035086959
0.020467838
0.008288465
0.0014344375
0.0014715923
0.0088629234
0.021869242
0.037427879
0.51625344
0.53832248
0.038367498
0.022498905
0.0091234734
0.0014916019
0.0015179608
0.0096182456
0.023953427
0.041576287
0.55759878
0.037809165
0.022631513
0.0093883035
0.001520718
0.0014956234
0.0089097114
0.021337419
0.035446291
0.60965852
0.52785447
0.040411001
0.023401167
0.0094732595
0.0015429933
0.0015669181
0.010409059
0.026145825
0.046261273
0.48576454
0.56703065
0.039250717
0.022822077
0.0093223138
0.0014924283
0.0015179532
0.0096177812
0.02395252
0.041575027
0.55771674
0.53839268
0.038367096
0.02249819
0.0091230659
0.0014916184
0.0014716024
0.0088623265
0.021867996
0.037426337
0.51629164
0.4888038
0.035084402
0.020466311
0.0082878682
0.0014344389
0.0013981957
0.0080713303
0.019765986
0.033832014
0.46937426
0.45505521
0.033151762
0.019385107
0.0079244914
0.0013729785
0.0013557061
0.0078227778
0.019123758
0.032684909
0.44396775
0.43472672
0.032271142
0.018892024
0.0077345726
0.0013418245
0.0013300649
0.0076505786
0.018670333
0.031876762
0.42678395
0.41982071
0.031495455
0.018453738
0.0075676811
0.0013198197
0.0013106405
0.0074857339
0.018241891
0.03112684
0.4136017
0.40796118
0.030771651
0.018035665
0.0074051958
0.0013022728
0.0012945714
0.0073265657
0.017836052
0.030430722
0.40278495
0.39798931
0.030103648
0.017643308
0.0072501766
0.0012874321
0.0012807764
0.0071762306
0.017457612
0.029790095
0.39351391
0.38931195
0.029489037
0.017278667
0.0071047807
0.0012745419
0.0012686793
0.0070358247
0.017106336
0.029199927
0.3853482
0.38159353
0.028921691
0.016940153
0.0069692813
0.0012631457
0.0012579069
0.0069050719
0.016779901
0.028653831
0.37802564
0.37462467
0.028395307
0.016625077
0.006843062
0.001252932
0.0012481957
0.0067831673
0.016475504
0.028145793
0.37137532
0.36826347
0.027904483
0.016330774
0.0067252696
0.0012436766
0.0012393559
0.0066692568
0.016190668
0.02767101
0.36527789
0.36240808
0.027444742
0.016054868
0.0066150387
0.0012352174
0.0012312473
0.0065625101
0.015923171
0.027225378
0.35964567
0.35698239
0.027012466
0.015795341
0.0065115865
0.0012274319
0.0012237622
0.0064621943
0.015671184
0.026805698
0.35441181
0.35192685
0.026604692
0.015550501
0.0064142394
0.0012202276
0.0012168193
0.0063676554
0.015433071
0.026409088
0.34952231
0.34719308
0.026218699
0.015318794
0.0063223678
0.0012135287
0.0012103489
0.0062783102
0.015207417
0.026033126
0.34493439
0.34274175
0.025852277
0.015098901
0.0062354215
0.0012072734
0.0012042949
0.0061936269
0.014992938
0.025675664
0.34061066
0.3385375
0.025503339
0.01488958
0.0061528854
0.0012014083
0.001198606
0.0061131093
0.014788433
0.025334669
0.33651804
0.3345525
0.025170131
0.014689828
0.0060743644
0.0011958809
0.33705508
0.025863293
0.015069692
0.0062132188
0.0012078431
0.0012106785
0.0062534812
0.015172025
0.026034236
0.33907398
0.34114822
0.02620952
0.01527703
0.0062948361
0.001213602
0.001216618
0.0063372287
0.015384456
0.026388846
0.34327945
0.3454716
0.026572742
0.015494658
0.0063807514
0.0012197333
0.0012229526
0.0064254259
0.015607572
0.026761161
0.34772876
0.350055
0.026954589
0.01572351
0.0064713372
0.0012262836
0.001229733
0.0065185341
0.015842498
0.027153117
0.35245521
0.35493451
0.027357105
0.015964784
0.0065670913
0.0012333086
0.0012370204
0.006617072
0.016090499
0.027566842
0.3574984
0.36015256
0.027782716
0.01621989
0.0066685783
0.0012408778
0.0012448916
0.006721669
0.016353134
0.028005075
0.36290454
0.36576117
0.028234235
0.016490424
0.006776433
0.0012490756
0.0012534434
0.0068329706
0.016632067
0.028470774
0.36873112
0.37182338
0.028714952
0.016778201
0.0068913494
0.00125801
0.0012627957
0.006951669
0.016929166
0.0289674
0.37504886
0.37841924
0.029228488
0.017085145
0.0070140146
0.001267821
0.0012731115
0.0070784569
0.017246501
0.029498993
0.38194892
0.38565496
0.029779276
0.01741338
0.0071450638
0.0012786973
0.001284615
0.0072138867
0.017586192
0.030070257
0.38955877
0.39368593
0.030372411
0.017765072
0.0072849564
0.0012909098
0.0012976344
0.0073582435
0.017950373
0.030686778
0.39806956
0.40275331
0.031013773
0.018142049
0.0074336313
0.001304858
0.0013126706
0.0075109654
0.018340313
0.031354437
0.4077962
0.41327915
0.031709076
0.018544851
0.0075899417
0.0013211857
0.0013305532
0.0076701448
0.018755175
0.032077747
0.41931348
0.42605764
0.032459306
0.01897011
0.0077509853
0.00134101
0.0013529386
0.0078320151
0.019189422
0.032853329
0.43374401
0.44269478
0.033261195
0.019414923
0.0079134103
0.0013668333
0.0013842559
0.0080046814
0.019657319
0.033705279
0.4534556
0.46749559
0.034347403
0.020006626
0.0081381344
0.0014095654
0.0014462492
0.0083112968
0.020643738
0.035537397
0.48665843
0.51540869
0.037979197
0.02206737
0.008908399
0.0014874357
0.0015064496
0.0089754763
0.021983507
0.037252213
0.53642302
0.55420223
0.041354076
0.024235374
0.0098213678
0.0015513768
0.0015459367
0.010380083
0.025893959
0.044817756
0.5533873
0.59231298
0.037271211
0.022398082
0.0092377249
0.0015034066
0.0015070212
0.0095113261
0.023595452
0.040860323
0.5630541
0.55958467
0.039856163
0.023114354
0.0093463427
0.0014970969
0.0014660057
0.0087432222
0.021085447
0.034873188
0.59119058
0.55511296
0.039307919
0.023149389
0.0094490765
0.0015144499
0.0015362237
0.0096868992
0.023845714
0.040635514
0.5561535
0.59417241
0.037308477
0.02237282
0.0092029362
0.0015039609
0.0015215008
0.0096473941
0.024010279
0.041673701
0.56106255
0.54036061
0.037720495
0.022156425
0.0089916933
0.0014874217
0.001468056
0.0088016853
0.021733001
0.03723562
0.51817103
0.49058383
0.035096662
0.020459534
0.0082793299
0.0014332791
0.0013975515
0.008064821
0.019761431
0.033842617
0.47045168
0.45578988
0.033159286
0.019383223
0.0079212594
0.0013726781
0.0013555932
0.007821918
0.01912468
0.032692437
0.44452608
0.43518005
0.032279444
0.018894938
0.0077351749
0.0013418104
0.001330115
0.0076520936
0.018674766
0.031886189
0.42717344
0.42016636
0.031505742
0.018459163
0.0075697279
0.0013199135
0.0013107612
0.0074880451
0.018247807
0.031137464
0.41391179
0.40823939
0.030782116
0.018041654
0.0074075692
0.0013024067
0.0012947074
0.0073288667
0.017841832
0.030440668
0.40303356
0.39821047
0.030112896
0.017648734
0.0072523436
0.001287564
0.0012809005
0.0071782241
0.017462604
0.029798551
0.39370974
0.38948465
0.02949669
0.017283205
0.0071065947
0.0012746563
0.0012687834
0.0070374583
0.017110427
0.029206811
0.38550013
0.38172705
0.028927859
0.016943826
0.0069707488
0.0012632397
0.001257991
0.006906383
0.016783189
0.028659344
0.37814274
0.37472769
0.028400281
0.016628053
0.006844252
0.0012530072
0.0012482634
0.0067842361
0.016478179
0.028150255
0.37146596
0.3683432
0.027908477
0.01633317
0.0067262234
0.0012437371
0.0012394099
0.0066701148
0.016192817
0.027674582
0.36534812
0.36247001
0.027447947
0.016056794
0.0066158047
0.0012352657
0.0012312903
0.0065631962
0.015924899
0.027228261
0.35970023
0.35703075
0.027015095
0.015796918
0.0065122148
0.0012274713
0.0012237975
0.0064627616
0.015672615
0.026808079
0.35445449
0.35196485
0.026606846
0.015551803
0.0064147598
0.0012202591
0.0012168468
0.006368117
0.01543424
0.02641103
0.34955628
0.34722356
0.026220452
0.015319853
0.0063227876
0.0012135529
0.0012103703
0.0062786891
0.015208373
0.026034714
0.34496217
0.34276716
0.025853713
0.015099768
0.0062357648
0.0012072921
0.0012043109
0.0061939393
0.014993728
0.025676969
0.34063437