/*--------------------------------*- C++ -*----------------------------------*\
  =========                 |
  \\      /  F ield         | OpenFOAM: The Open Source CFD Toolbox
   \\    /   O peration     | Website:  https://openfoam.org
    \\  /    A nd           | Version:  7
     \\/     M anipulation  |
\*---------------------------------------------------------------------------*/
FoamFile
{
    version     2.0;
    format      ascii;
    class       volScalarField;
    location    "420";
    object      p;
}
// * * * * * * * * * * * * * * * * * * * * * * * * * * * * * * * * * * * * * //

dimensions      [1 -1 -2 0 0 0 0];

internalField   nonuniform List<scalar> 
24789
(
101301.19
101301.22
101301.23
101301.24
101301.02
101299.85
101300.05
101300.04
101300.03
101300
101298.75
101298.77
101298.79
101298.8
101298.61
101297.28
101297.45
101297.44
101297.42
101297.4
101295.94
101295.97
101295.98
101296
101295.84
101294.29
101294.42
101294.41
101294.39
101294.36
101292.65
101292.68
101292.7
101292.71
101292.6
101290.76
101290.85
101290.83
101290.81
101290.78
101288.74
101288.77
101288.79
101288.81
101288.74
101286.53
101286.57
101286.54
101286.52
101286.49
101284.01
101284.04
101284.07
101284.1
101284.09
101281.39
101281.36
101281.33
101281.3
101281.26
101278.21
101278.25
101278.29
101278.32
101278.39
101275.05
101274.93
101274.89
101274.85
101274.81
101271
101271.04
101271.09
101271.14
101271.31
101267.11
101266.87
101266.81
101266.76
101266.71
101261.87
101261.93
101261.99
101262.05
101262.37
101257
101256.59
101256.51
101256.44
101256.38
101250.12
101250.19
101250.27
101250.36
101250.87
101243.85
101243.22
101243.11
101243.01
101242.94
101234.63
101234.72
101234.83
101234.97
101235.74
101226.32
101225.38
101225.22
101225.09
101224.98
101213.66
101213.79
101213.95
101214.15
101215.29
101202.28
101200.91
101200.66
101200.46
101200.3
101184.31
101184.5
101184.76
101185.06
101186.72
101167.95
101165.94
101165.56
101165.24
101165
101142.07
101142.37
101142.78
101143.26
101145.62
101117.62
101115.18
101114.57
101114.04
101113.65
101074.52
101075.01
101075.7
101076.44
101078.52
101037.21
101033.99
101032.93
101031.98
101031.42
101013.13
101013.78
101015.35
101017.35
101025.18
100920.13
100914.21
100912.4
100911.65
100910.53
100312.66
100335.9
100352
100371.03
100545.93
100862.23
100810.14
100800.02
100790.43
100776.7
100955.97
100970.19
100976.17
100983.74
101013.52
101177.97
101136
101126.19
101115.92
101098.92
101463.69
101490.72
101512.6
101531.33
101538.98
101117.81
100925.81
100904.89
100888.54
100861.5
101004.72
101010.04
101010.44
101010.65
101022.73
100781.5
100557.7
100530.33
100504.16
100470.04
100487.56
100496
100499.92
100507.84
100609.64
100926.59
100919.65
100918.46
100917.82
100917.36
101011.83
101012.57
101013.93
101015.61
101023.2
101036.96
101034.98
101034.09
101033.31
101032.77
101075.67
101076.09
101076.67
101077.31
101078.9
101118.48
101116.19
101115.66
101115.21
101114.89
101143.2
101143.44
101143.78
101144.2
101146.55
101168.66
101166.57
101166.24
101165.98
101165.79
101184.85
101185.01
101185.21
101185.48
101187.25
101202.67
101201.2
101200.98
101200.82
101200.68
101213.95
101214.06
101214.2
101214.37
101215.59
101226.56
101225.56
101225.42
101225.31
101225.22
101234.83
101234.91
101235
101235.12
101235.93
101243.99
101243.34
101243.24
101243.17
101243.1
101250.27
101250.33
101250.39
101250.48
101250.99
101257.1
101256.7
101256.63
101256.57
101256.52
101262
101262.05
101262.1
101262.16
101262.46
101267.19
101266.98
101266.92
101266.88
101266.84
101271.12
101271.16
101271.19
101271.24
101271.38
101275.11
101275.03
101274.99
101274.96
101274.92
101278.32
101278.36
101278.39
101278.42
101278.45
101281.44
101281.46
101281.43
101281.4
101281.37
101284.11
101284.14
101284.17
101284.19
101284.14
101286.57
101286.66
101286.64
101286.62
101286.59
101288.84
101288.86
101288.88
101288.9
101288.79
101290.8
101290.94
101290.92
101290.91
101290.88
101292.75
101292.77
101292.79
101292.8
101292.64
101294.32
101294.51
101294.5
101294.48
101294.46
101296.04
101296.06
101296.07
101296.08
101295.88
101297.31
101297.54
101297.53
101297.51
101297.49
101298.84
101298.86
101298.88
101298.88
101298.65
101299.89
101300.14
101300.14
101300.13
101300.11
101301.35
101301.36
101301.37
101301.37
101301.08
101299.96
101300.22
101300.21
101300.2
101300.18
101298.91
101298.93
101298.94
101298.95
101298.71
101297.37
101297.6
101297.59
101297.58
101297.56
101296.09
101296.12
101296.13
101296.14
101295.92
101294.36
101294.56
101294.55
101294.53
101294.51
101292.79
101292.82
101292.83
101292.85
101292.67
101290.83
101290.98
101290.96
101290.95
101290.92
101288.87
101288.9
101288.92
101288.94
101288.81
101286.6
101286.7
101286.67
101286.65
101286.63
101284.15
101284.18
101284.2
101284.22
101284.16
101281.46
101281.49
101281.46
101281.43
101281.4
101278.35
101278.38
101278.41
101278.45
101278.46
101275.12
101275.06
101275.02
101274.99
101274.95
101271.14
101271.18
101271.22
101271.26
101271.39
101267.19
101267
101266.94
101266.9
101266.86
101262.03
101262.08
101262.12
101262.18
101262.45
101257.08
101256.72
101256.65
101256.6
101256.54
101250.29
101250.35
101250.41
101250.49
101250.97
101243.96
101243.35
101243.26
101243.19
101243.12
101234.86
101234.93
101235.02
101235.13
101235.89
101226.52
101225.58
101225.44
101225.34
101225.25
101214.01
101214.11
101214.23
101214.4
101215.56
101202.63
101201.22
101201.02
101200.87
101200.74
101184.92
101185.07
101185.26
101185.5
101187.21
101168.61
101166.6
101166.29
101166.05
101165.87
101143.23
101143.46
101143.78
101144.16
101146.45
101118.67
101116.38
101115.88
101115.47
101115.17
101076.62
101077
101077.54
101078.14
101079.72
101034.53
101033.3
101032.51
101031.8
101031.34
101006.17
101006.79
101008.07
101009.65
101016.96
100949.2
100943.13
100941.61
100940.66
100940.01
100559.38
100565.97
100567.22
100571.8
100629.17
100594.79
100189.38
100145.77
100106.24
100056.01
101656.74
101639.25
101623.42
101603.02
101377.82
101070.37
100927.89
100910.01
100897.48
100872.57
101414.88
101447.02
101470.06
101490.38
101487.16
101203.93
101251.99
101256.52
101260.44
101257.69
101532.38
101520.37
101507.81
101490.93
101341.54
100582.26
100248.72
100204.77
100162.51
100111.59
100495.39
100505.32
100508.35
100514.96
100590.49
100931.43
100924.92
100923.32
100922.67
100921.68
101000.36
101000.93
101002.16
101003.71
101009.96
101031.03
101029.28
101028.45
101027.68
101027.17
101074.01
101074.47
101075.06
101075.7
101077.46
101116.74
101114.64
101114.11
101113.66
101113.3
101141.82
101142.1
101142.45
101142.87
101144.85
101167.48
101165.8
101165.47
101165.19
101164.97
101184.28
101184.46
101184.68
101184.94
101186.34
101201.94
101200.79
101200.57
101200.39
101200.25
101213.6
101213.72
101213.87
101214.05
101215
101226.08
101225.3
101225.15
101225.03
101224.93
101234.59
101234.68
101234.78
101234.91
101235.54
101243.67
101243.17
101243.06
101242.98
101242.9
101250.1
101250.16
101250.24
101250.33
101250.73
101256.88
101256.57
101256.49
101256.43
101256.37
101261.87
101261.93
101261.98
101262.05
101262.28
101267.05
101266.87
101266.82
101266.77
101266.72
101271
101271.05
101271.09
101271.14
101271.26
101275.01
101274.94
101274.9
101274.86
101274.81
101278.22
101278.26
101278.3
101278.33
101278.36
101281.37
101281.38
101281.34
101281.31
101281.27
101284.02
101284.06
101284.08
101284.11
101284.08
101286.53
101286.6
101286.57
101286.54
101286.51
101288.76
101288.79
101288.82
101288.84
101288.75
101290.77
101290.88
101290.86
101290.84
101290.81
101292.68
101292.71
101292.73
101292.75
101292.62
101294.32
101294.47
101294.45
101294.43
101294.4
101295.99
101296.01
101296.03
101296.04
101295.88
101297.32
101297.5
101297.49
101297.47
101297.45
101298.81
101298.83
101298.84
101298.85
101298.67
101299.93
101300.13
101300.12
101300.1
101300.08
101300.08
101300.1
101300.12
101300.12
101299.92
101298.67
101298.86
101298.85
101298.84
101298.82
101297.47
101297.49
101297.5
101297.52
101297.33
101295.89
101296.06
101296.05
101296.03
101296.01
101294.43
101294.45
101294.47
101294.48
101294.34
101292.64
101292.77
101292.76
101292.74
101292.71
101290.84
101290.87
101290.89
101290.91
101290.8
101288.78
101288.86
101288.84
101288.82
101288.79
101286.55
101286.58
101286.6
101286.63
101286.57
101284.12
101284.15
101284.12
101284.1
101284.06
101281.31
101281.35
101281.38
101281.41
101281.42
101278.42
101278.37
101278.33
101278.3
101278.26
101274.86
101274.9
101274.94
101274.98
101275.07
101271.33
101271.18
101271.13
101271.09
101271.05
101266.77
101266.82
101266.86
101266.92
101267.13
101262.38
101262.09
101262.03
101261.97
101261.92
101256.44
101256.5
101256.56
101256.63
101257.01
101250.88
101250.4
101250.32
101250.25
101250.18
101243
101243.08
101243.16
101243.27
101243.86
101235.76
101235.02
101234.89
101234.79
101234.71
101225.06
101225.16
101225.28
101225.43
101226.34
101215.31
101214.19
101214.01
101213.86
101213.74
101200.36
101200.51
101200.69
101200.92
101202.3
101186.73
101185.02
101184.74
101184.51
101184.33
101164.97
101165.19
101165.48
101165.83
101167.94
101145.52
101142.99
101142.55
101142.19
101141.92
101113.47
101113.82
101114.28
101114.83
101117.5
101078.49
101076.11
101075.44
101074.85
101074.4
101029.78
101030.26
101031.09
101032.03
101035.76
101020.6
101011.33
101009.59
101008.29
101007.92
100923.8
100923.92
100923.27
100923.52
100922.57
100555.57
100410.2
100394.61
100382.87
100364.6
100516.69
100545.61
100566.91
100590.08
100771.38
101209.87
101313.35
101318.47
101321.36
101319.7
100956.89
100975.96
100984.96
100995.44
101083.63
101565.2
101553.24
101533.23
101509.94
101480.45
101840.98
101987.95
102008.3
102022.7
102026.63
102116.56
102109.7
102102.24
102082.95
101789.2
101623.84
101655.28
101647.67
101638.97
101616.85
101506.99
101515.16
101518.55
101519.36
101459.05
101287.5
101368.52
101376.84
101382.22
101387.51
101163.93
101174.55
101183.6
101188.75
101190.34
100634.79
100419.9
100391.65
100366.58
100328.5
100497.09
100506.75
100511.24
100519.74
100603.65
100931.29
100926.99
100925.41
100924.32
100923.16
101004.67
101005.46
101006.81
101008.46
101013.06
101032.78
101031.77
101030.86
101030
101029.42
101074.93
101075.41
101076.06
101076.75
101078.02
101117.07
101115.25
101114.68
101114.18
101113.81
101142.13
101142.42
101142.81
101143.25
101145.09
101167.58
101165.97
101165.61
101165.31
101165.08
101184.3
101184.49
101184.72
101185.01
101186.38
101201.97
101200.82
101200.59
101200.4
101200.24
101213.6
101213.72
101213.88
101214.07
101215.02
101226.08
101225.29
101225.13
101225.01
101224.9
101234.56
101234.65
101234.75
101234.88
101235.53
101243.66
101243.15
101243.04
101242.95
101242.87
101250.07
101250.14
101250.21
101250.31
101250.72
101256.87
101256.55
101256.47
101256.41
101256.34
101261.84
101261.9
101261.95
101262.02
101262.27
101267.03
101266.85
101266.79
101266.74
101266.69
101270.98
101271.03
101271.07
101271.13
101271.25
101275
101274.92
101274.88
101274.84
101274.79
101278.2
101278.24
101278.28
101278.32
101278.35
101281.36
101281.36
101281.33
101281.3
101281.26
101284.01
101284.05
101284.08
101284.11
101284.07
101286.52
101286.58
101286.55
101286.52
101286.49
101288.74
101288.78
101288.8
101288.82
101288.74
101290.76
101290.87
101290.85
101290.83
101290.8
101292.67
101292.7
101292.72
101292.74
101292.61
101294.31
101294.46
101294.44
101294.42
101294.39
101295.98
101296.01
101296.02
101296.04
101295.87
101297.32
101297.5
101297.49
101297.47
101297.45
101298.81
101298.84
101298.85
101298.86
101298.67
101299.93
101300.14
101300.13
101300.12
101300.1
101300.14
101300.16
101300.17
101300.17
101299.93
101298.67
101298.91
101298.9
101298.89
101298.87
101297.51
101297.53
101297.55
101297.56
101297.33
101295.89
101296.1
101296.09
101296.07
101296.05
101294.47
101294.49
101294.51
101294.52
101294.34
101292.65
101292.81
101292.79
101292.78
101292.75
101290.89
101290.91
101290.93
101290.95
101290.81
101288.79
101288.91
101288.89
101288.87
101288.84
101286.59
101286.62
101286.64
101286.66
101286.58
101284.14
101284.19
101284.16
101284.14
101284.11
101281.36
101281.4
101281.42
101281.45
101281.44
101278.45
101278.42
101278.38
101278.35
101278.31
101274.91
101274.95
101274.98
101275.02
101275.12
101271.38
101271.23
101271.18
101271.15
101271.1
101266.82
101266.87
101266.91
101266.97
101267.19
101262.46
101262.15
101262.08
101262.04
101261.99
101256.5
101256.56
101256.61
101256.69
101257.09
101250.99
101250.46
101250.38
101250.31
101250.25
101243.08
101243.15
101243.23
101243.33
101243.99
101235.93
101235.11
101234.99
101234.9
101234.82
101225.22
101225.31
101225.42
101225.57
101226.57
101215.6
101214.39
101214.21
101214.07
101213.96
101200.71
101200.84
101201.01
101201.23
101202.69
101187.28
101185.53
101185.26
101185.05
101184.88
101165.86
101166.06
101166.33
101166.67
101168.7
101146.61
101144.35
101143.92
101143.57
101143.31
101115.21
101115.54
101116.02
101116.57
101118.66
101079.45
101078.39
101077.71
101077.08
101076.65
101032.87
101033.41
101034.28
101035.2
101035.99
101019.72
101013.73
101011.91
101010.44
101009.68
100930.8
100931.34
100931.7
100933.27
100935.68
100625.74
100529.49
100521.47
100516.11
100506.38
100407.28
100439.62
100463.02
100490.01
100731.58
101080.91
101103.56
101102.16
101100.88
101091.76
100840.01
100870.98
100899.1
100926.51
101150.02
101590.8
101946.86
101987.79
102023.28
102058.34
101052.4
101075.18
101092.68
101107.5
101191.69
100952.39
100878.19
100865.57
100856.16
100832.81
100897.72
100900.8
100901.45
100902.09
100896.37
100549.85
100338.98
100313.86
100292.14
100264.23
100915.26
100915.87
100915.67
100916.38
100916.76
101022.36
101014.82
101012.89
101011.36
101010.78
101030.18
101030.75
101031.73
101032.81
101036.24
101078.39
101076.31
101075.57
101074.89
101074.39
101113.49
101113.88
101114.41
101115.02
101117.5
101145.51
101143.11
101142.62
101142.21
101141.91
101164.91
101165.15
101165.47
101165.85
101167.9
101186.69
101185
101184.7
101184.44
101184.25
101200.26
101200.42
101200.62
101200.86
101202.25
101215.27
101214.12
101213.92
101213.76
101213.63
101224.95
101225.06
101225.19
101225.36
101226.3
101235.72
101234.95
101234.81
101234.7
101234.61
101242.92
101243
101243.09
101243.2
101243.83
101250.86
101250.35
101250.26
101250.18
101250.11
101256.38
101256.44
101256.5
101256.58
101256.99
101262.36
101262.04
101261.97
101261.91
101261.86
101266.7
101266.75
101266.8
101266.86
101267.1
101271.31
101271.13
101271.08
101271.03
101270.99
101274.8
101274.84
101274.88
101274.92
101275.04
101278.39
101278.32
101278.28
101278.24
101278.2
101281.26
101281.29
101281.32
101281.36
101281.39
101284.09
101284.1
101284.07
101284.04
101284
101286.48
101286.52
101286.54
101286.57
101286.53
101288.74
101288.81
101288.78
101288.76
101288.73
101290.78
101290.81
101290.83
101290.85
101290.76
101292.6
101292.72
101292.7
101292.68
101292.65
101294.37
101294.39
101294.41
101294.43
101294.29
101295.85
101296
101295.99
101295.97
101295.95
101297.41
101297.43
101297.45
101297.46
101297.29
101298.62
101298.81
101298.8
101298.79
101298.76
101300.03
101300.05
101300.06
101300.07
101299.87
101299.91
101300.11
101300.1
101300.09
101300.07
101298.81
101298.83
101298.85
101298.86
101298.66
101297.33
101297.51
101297.5
101297.48
101297.46
101296
101296.03
101296.04
101296.05
101295.89
101294.33
101294.48
101294.46
101294.45
101294.42
101292.7
101292.73
101292.75
101292.76
101292.63
101290.79
101290.9
101290.88
101290.86
101290.83
101288.79
101288.82
101288.84
101288.86
101288.77
101286.55
101286.61
101286.59
101286.56
101286.53
101284.05
101284.08
101284.11
101284.14
101284.11
101281.41
101281.41
101281.37
101281.35
101281.31
101278.26
101278.29
101278.33
101278.36
101278.41
101275.07
101274.97
101274.93
101274.89
101274.85
101271.05
101271.09
101271.13
101271.18
101271.33
101267.12
101266.91
101266.85
101266.8
101266.76
101261.93
101261.98
101262.04
101262.1
101262.38
101257
101256.63
101256.56
101256.5
101256.44
101250.19
101250.25
101250.32
101250.41
101250.88
101243.86
101243.28
101243.17
101243.09
101243.02
101234.73
101234.81
101234.91
101235.04
101235.76
101226.34
101225.46
101225.31
101225.18
101225.08
101213.78
101213.9
101214.05
101214.23
101215.32
101202.31
101200.99
101200.76
101200.57
101200.43
101184.43
101184.61
101184.84
101185.13
101186.75
101167.98
101165.98
101165.62
101165.33
101165.11
101142.02
101142.31
101142.68
101143.14
101145.58
101117.62
101114.92
101114.34
101113.85
101113.49
101074.5
101074.97
101075.59
101076.3
101078.79
101034.69
101031.22
101030.25
101029.39
101028.87
101005.11
101005.61
101007.01
101008.86
101018.14
100933.31
100935.13
100934.89
100935.63
100935.63
100425.44
100439.71
100447.5
100458.53
100569.53
100656.17
100389.57
100355.05
100324.95
100285.02
101581.53
101569.61
101556.96
101539.96
101358.23
101005.79
100884.2
100870.68
100862.17
100842.13
101219.57
101135.43
101205.73
101124.51
100945.97
100924.48
100904.93
100877.22
101379.67
101376.4
101372.86
101367.03
101311.99
101714.24
101723.88
101728.81
101726.74
101706.32
101454.04
101521.72
101518.34
101512.27
101490.32
101070.55
101104.45
101120.65
101139.15
101230.31
101456.67
101499.94
101503.18
101502.4
101499.93
101481.04
101768.47
101439.2
101515.19
101310.3
101312.61
101306.41
101310.27
101307.28
101305.97
101307.09
101307.14
101300.05
101300.07
101300.09
101300.1
101299.91
101298.67
101298.85
101298.84
101298.83
101298.8
101297.46
101297.49
101297.5
101297.52
101297.34
101295.91
101296.07
101296.05
101296.04
101296.01
101294.44
101294.46
101294.48
101294.5
101294.35
101292.66
101292.79
101292.77
101292.75
101292.72
101290.85
101290.88
101290.9
101290.92
101290.81
101288.78
101288.87
101288.85
101288.82
101288.79
101286.54
101286.57
101286.6
101286.63
101286.56
101284.12
101284.15
101284.12
101284.1
101284.06
101281.31
101281.34
101281.37
101281.41
101281.4
101278.39
101278.36
101278.32
101278.28
101278.24
101274.83
101274.88
101274.92
101274.96
101275.03
101271.28
101271.17
101271.11
101271.07
101271.02
101266.73
101266.78
101266.83
101266.89
101267.06
101262.3
101262.07
101262
101261.94
101261.88
101256.38
101256.45
101256.51
101256.59
101256.9
101250.75
101250.34
101250.25
101250.17
101250.1
101242.91
101242.99
101243.08
101243.19
101243.69
101235.56
101234.93
101234.8
101234.69
101234.6
101224.94
101225.05
101225.18
101225.33
101226.11
101215.04
101214.1
101213.91
101213.76
101213.63
101200.28
101200.44
101200.63
101200.86
101202
101186.42
101185.05
101184.76
101184.52
101184.34
101165.08
101165.31
101165.61
101165.97
101167.62
101145.16
101143.25
101142.79
101142.41
101142.11
101113.57
101113.95
101114.45
101115.02
101116.93
101077.09
101075.72
101075.03
101074.39
101073.92
101031.11
101031.66
101032.54
101033.49
101035.01
101021.38
101017.61
101015.88
101014.43
101013.73
100898.9
100900.07
100901.1
100902.65
100904.36
100556.53
100381.21
100362.5
100347.55
100327.06
100884.4
100892.66
100893.63
100895.98
100900.15
100873.06
100719.46
100699.4
100682.21
100649.83
101260.65
101267.62
101278.9
101285.83
101318.94
101551.41
101554.24
101559.06
101547.31
101377.33
101399.68
101398.84
101404.17
101354.49
101372.09
101418.01
101406.57
101398.82
101372.15
102341.55
102299.2
102262.75
102216.15
101855.12
101765.11
102013.62
102034.96
102050.55
102066.61
101260.17
101267.17
101278.47
101285.43
101318.78
100872.93
100719.24
100699.19
100682.01
100649.63
100884.31
100892.58
100893.55
100895.89
100900.1
100556.54
100381.13
100362.41
100347.45
100326.96
100899.02
100900.18
100901.2
100902.75
100904.46
101021.43
101017.62
101015.89
101014.45
101013.73
101031.15
101031.71
101032.58
101033.53
101035.05
101077.12
101075.74
101075.06
101074.42
101073.95
101113.59
101113.97
101114.47
101115.05
101116.96
101145.18
101143.27
101142.82
101142.43
101142.14
101165.1
101165.33
101165.63
101165.99
101167.64
101186.43
101185.06
101184.77
101184.54
101184.35
101200.3
101200.46
101200.65
101200.88
101202.02
101215.06
101214.12
101213.93
101213.77
101213.64
101224.96
101225.06
101225.19
101225.35
101226.12
101235.56
101234.94
101234.81
101234.7
101234.61
101242.92
101243
101243.09
101243.2
101243.7
101250.75
101250.35
101250.26
101250.18
101250.11
101256.38
101256.45
101256.51
101256.59
101256.9
101262.29
101262.05
101261.98
101261.93
101261.87
101266.72
101266.77
101266.82
101266.88
101267.05
101271.26
101271.14
101271.09
101271.05
101271
101274.81
101274.86
101274.9
101274.94
101275.01
101278.36
101278.33
101278.29
101278.26
101278.22
101281.27
101281.31
101281.34
101281.37
101281.37
101284.07
101284.11
101284.08
101284.05
101284.01
101286.49
101286.53
101286.55
101286.58
101286.52
101288.73
101288.82
101288.79
101288.77
101288.74
101290.79
101290.82
101290.84
101290.86
101290.75
101292.6
101292.72
101292.7
101292.68
101292.66
101294.37
101294.4
101294.41
101294.43
101294.29
101295.84
101296
101295.99
101295.97
101295.94
101297.4
101297.42
101297.44
101297.45
101297.28
101298.61
101298.8
101298.79
101298.77
101298.75
101300.01
101300.03
101300.05
101300.06
101299.86
101301.05
101301.28
101301.28
101301.27
101301.25
101299.88
101300.09
101300.08
101300.06
101300.04
101298.8
101298.82
101298.83
101298.84
101298.65
101297.33
101297.5
101297.49
101297.48
101297.45
101296
101296.03
101296.04
101296.05
101295.89
101294.34
101294.48
101294.47
101294.45
101294.43
101292.71
101292.74
101292.76
101292.77
101292.65
101290.81
101290.91
101290.89
101290.87
101290.84
101288.79
101288.82
101288.84
101288.87
101288.79
101286.58
101286.62
101286.6
101286.57
101286.54
101284.05
101284.08
101284.11
101284.14
101284.13
101281.43
101281.4
101281.37
101281.34
101281.3
101278.24
101278.28
101278.32
101278.36
101278.43
101275.08
101274.96
101274.92
101274.88
101274.84
101271.02
101271.07
101271.11
101271.16
101271.34
101267.13
101266.89
101266.83
101266.78
101266.73
101261.89
101261.95
101262
101262.07
101262.39
101257.01
101256.61
101256.53
101256.46
101256.4
101250.14
101250.21
101250.29
101250.38
101250.89
101243.86
101243.24
101243.13
101243.03
101242.96
101234.64
101234.74
101234.85
101234.98
101235.76
101226.34
101225.41
101225.24
101225.11
101225
101213.69
101213.82
101213.98
101214.18
101215.32
101202.31
101200.94
101200.7
101200.49
101200.34
101184.34
101184.54
101184.79
101185.09
101186.76
101167.99
101165.96
101165.58
101165.26
101165.02
101142.04
101142.34
101142.75
101143.23
101145.62
101117.62
101115.16
101114.55
101114.03
101113.64
101074.57
101075.06
101075.74
101076.48
101078.53
101036.43
101033.03
101031.96
101030.99
101030.42
101011.04
101011.62
101013.14
101015.06
101022.55
100916.82
100916.61
100915.94
100916.19
100915.59
100264.83
100292.73
100314.47
100339.6
100550.39
100896.84
100902.6
100901.97
100901.34
100898.26
100833.58
100856.89
100866.29
100878.89
100952.91
101191.91
101108.41
101093.67
101076.25
101053.56
102058.1
102023.2
101987.77
101946.81
101590.52
101149.99
100927.19
100899.88
100871.86
100841.03
101383.21
101378.21
101373.09
101365.03
101286.53
101204.64
101251.32
101255.64
101259.3
101256.48
100873.94
100898.86
100911.41
100929.32
101072.05
101006.08
100884.1
100870.57
100862.02
100841.9
100958.29
100977.38
100986.37
100996.84
101084.86
101125.27
100946.15
100924.61
100905.02
100877.27
101380.31
101377.03
101373.49
101367.65
101312.39
100895.08
100751.44
100729.06
100706.88
100674.06
100870
100877.61
100879.91
100883.62
100902.28
100546.17
100367.67
100348.93
100334.19
100312.18
100902.68
100903.96
100905.2
100906.59
100905.41
101021.87
101018.32
101016.51
101014.98
101014.34
101031.04
101031.6
101032.52
101033.5
101034.74
101077.25
101076.17
101075.48
101074.83
101074.34
101114.07
101114.45
101114.96
101115.53
101117.19
101145.33
101143.61
101143.16
101142.78
101142.49
101165.34
101165.57
101165.87
101166.22
101167.73
101186.5
101185.22
101184.94
101184.71
101184.52
101200.44
101200.59
101200.77
101201
101202.07
101215.1
101214.21
101214.03
101213.88
101213.75
101225.04
101225.15
101225.27
101225.42
101226.16
101235.6
101235
101234.88
101234.77
101234.68
101242.97
101243.05
101243.14
101243.25
101243.73
101250.77
101250.39
101250.3
101250.23
101250.16
101256.42
101256.48
101256.54
101256.62
101256.92
101262.31
101262.09
101262.03
101261.97
101261.92
101266.74
101266.79
101266.84
101266.9
101267.06
101271.28
101271.17
101271.12
101271.07
101271.03
101274.83
101274.88
101274.92
101274.96
101275.02
101278.37
101278.35
101278.31
101278.27
101278.23
101281.28
101281.32
101281.35
101281.38
101281.37
101284.08
101284.12
101284.09
101284.07
101284.03
101286.51
101286.54
101286.57
101286.59
101286.52
101288.74
101288.84
101288.81
101288.79
101288.76
101290.8
101290.83
101290.85
101290.87
101290.76
101292.6
101292.73
101292.72
101292.7
101292.67
101294.38
101294.41
101294.43
101294.44
101294.29
101295.85
101296.01
101296
101295.98
101295.96
101297.41
101297.44
101297.45
101297.47
101297.29
101298.62
101298.81
101298.8
101298.79
101298.76
101300.02
101300.04
101300.05
101300.06
101299.86
101301.02
101301.22
101301.21
101301.2
101301.18
101299.93
101300.13
101300.12
101300.11
101300.09
101298.83
101298.85
101298.87
101298.88
101298.69
101297.35
101297.53
101297.52
101297.51
101297.48
101296.02
101296.05
101296.06
101296.08
101295.91
101294.35
101294.5
101294.49
101294.47
101294.44
101292.72
101292.75
101292.77
101292.79
101292.66
101290.81
101290.92
101290.9
101290.88
101290.85
101288.8
101288.83
101288.86
101288.88
101288.79
101286.56
101286.63
101286.61
101286.58
101286.55
101284.06
101284.09
101284.12
101284.15
101284.11
101281.4
101281.41
101281.38
101281.35
101281.31
101278.26
101278.3
101278.34
101278.37
101278.4
101275.04
101274.98
101274.94
101274.9
101274.85
101271.03
101271.08
101271.12
101271.18
101271.29
101267.07
101266.91
101266.85
101266.8
101266.75
101261.91
101261.97
101262.02
101262.09
101262.31
101256.91
101256.62
101256.54
101256.47
101256.41
101250.15
101250.22
101250.29
101250.38
101250.76
101243.71
101243.23
101243.12
101243.04
101242.96
101234.66
101234.75
101234.85
101234.98
101235.57
101226.13
101225.4
101225.24
101225.12
101225.01
101213.71
101213.83
101213.99
101214.17
101215.06
101202.03
101200.95
101200.73
101200.54
101200.39
101184.47
101184.66
101184.89
101185.17
101186.45
101167.67
101166.15
101165.8
101165.5
101165.27
101142.4
101142.69
101143.08
101143.53
101145.26
101117.1
101115.43
101114.86
101114.35
101113.97
101074.22
101074.7
101075.36
101076.05
101077.15
101034.6
101033.34
101032.36
101031.44
101030.88
101014.24
101014.88
101016.41
101018.22
101021.75
100905.12
100906.42
100905.04
100903.79
100902.5
100311.61
100333.6
100348.33
100367.07
100545.72
100902.04
100883.37
100879.67
100877.37
100869.78
100673.84
100706.62
100728.77
100751.13
100894.77
101017.18
100940.49
100930.89
100921.37
100904.66
100662.5
100682.47
100694.53
100709.08
100825.96
100601.73
100457.53
100444.3
100434.75
100420.05
100917.15
100917.73
100918.54
100919.99
100926.03
101023.34
101017.66
101016.05
101014.71
101014.17
101032.7
101033.16
101033.95
101034.8
101036.04
101078.62
101077.39
101076.77
101076.2
101075.8
101115.05
101115.36
101115.8
101116.31
101118.45
101146.53
101144.27
101143.87
101143.54
101143.31
101165.9
101166.08
101166.33
101166.65
101168.65
101187.24
101185.55
101185.3
101185.11
101184.95
101200.79
101200.91
101201.07
101201.27
101202.67
101215.59
101214.45
101214.28
101214.16
101214.05
101225.3
101225.39
101225.49
101225.63
101226.55
101235.92
101235.17
101235.06
101234.97
101234.9
101243.16
101243.23
101243.3
101243.4
101243.99
101250.99
101250.53
101250.45
101250.39
101250.33
101256.58
101256.63
101256.68
101256.75
101257.11
101262.47
101262.21
101262.15
101262.11
101262.06
101266.89
101266.93
101266.97
101267.02
101267.21
101271.4
101271.29
101271.25
101271.21
101271.17
101274.98
101275.01
101275.04
101275.08
101275.14
101278.48
101278.47
101278.44
101278.41
101278.38
101281.43
101281.46
101281.48
101281.51
101281.47
101284.18
101284.25
101284.22
101284.2
101284.17
101286.65
101286.68
101286.7
101286.72
101286.62
101288.83
101288.96
101288.95
101288.93
101288.9
101290.95
101290.97
101290.99
101291
101290.85
101292.69
101292.87
101292.85
101292.84
101292.81
101294.53
101294.55
101294.57
101294.58
101294.38
101295.94
101296.15
101296.14
101296.13
101296.11
101297.56
101297.58
101297.59
101297.6
101297.37
101298.7
101298.95
101298.94
101298.93
101298.91
101300.16
101300.18
101300.19
101300.19
101299.94
101299.94
101300.19
101300.18
101300.17
101300.15
101298.9
101298.92
101298.94
101298.94
101298.7
101297.37
101297.6
101297.59
101297.58
101297.56
101296.11
101296.13
101296.14
101296.15
101295.94
101294.39
101294.58
101294.57
101294.55
101294.53
101292.81
101292.84
101292.85
101292.87
101292.7
101290.86
101291
101290.99
101290.97
101290.94
101288.9
101288.92
101288.94
101288.96
101288.84
101286.63
101286.72
101286.69
101286.67
101286.64
101284.16
101284.19
101284.22
101284.24
101284.19
101281.49
101281.5
101281.47
101281.45
101281.41
101278.36
101278.4
101278.42
101278.46
101278.49
101275.15
101275.07
101275.03
101274.99
101274.95
101271.14
101271.18
101271.22
101271.27
101271.41
101267.22
101267
101266.95
101266.9
101266.86
101262.02
101262.07
101262.12
101262.18
101262.48
101257.12
101256.72
101256.65
101256.59
101256.53
101250.28
101250.34
101250.4
101250.49
101251
101244
101243.36
101243.25
101243.18
101243.11
101234.84
101234.92
101235.01
101235.13
101235.93
101226.57
101225.58
101225.44
101225.33
101225.23
101213.97
101214.08
101214.21
101214.39
101215.6
101202.68
101201.21
101201
101200.84
101200.7
101184.88
101185.03
101185.24
101185.5
101187.27
101168.68
101166.6
101166.27
101166.01
101165.82
101143.23
101143.48
101143.81
101144.23
101146.58
101118.52
101116.23
101115.7
101115.26
101114.93
101075.72
101076.14
101076.72
101077.36
101078.95
101036.99
101035.01
101034.12
101033.33
101032.8
101011.88
101012.6
101013.97
101015.65
101023.23
100926.63
100919.67
100918.48
100917.84
100917.34
100487.76
100496.18
100500.1
100508.02
100609.74
100781.7
100558.04
100530.68
100504.53
100470.41
101004.88
101010.2
101010.61
101010.83
101022.92
101118
100926.11
100905.19
100888.79
100861.76
101465.05
101491.96
101513.75
101532.39
101539.36
101178.18
101136.58
101126.79
101116.53
101099.55
100956.46