/*--------------------------------*- C++ -*----------------------------------*\
  =========                 |
  \\      /  F ield         | OpenFOAM: The Open Source CFD Toolbox
   \\    /   O peration     | Website:  https://openfoam.org
    \\  /    A nd           | Version:  7
     \\/     M anipulation  |
\*---------------------------------------------------------------------------*/
FoamFile
{
    version     2.0;
    format      ascii;
    class       surfaceScalarField;
    location    "420";
    object      phi;
}
// * * * * * * * * * * * * * * * * * * * * * * * * * * * * * * * * * * * * * //

dimensions      [1 0 -1 0 0 0 0];

internalField   nonuniform List<scalar> 
74673
(
1.7353322e-06
-0.0022055524
-2.213364e-07
2.9844631e-06
-0.0026637834
-2.3714911e-07
3.9966635e-06
-0.003040112
-2.4357703e-07
4.8928162e-06
-0.0034229133
-2.5159281e-07
-0.056256111
-2.9624889e-06
8.036605e-06
-4.9665017e-06
-0.056259442
-2.473342e-06
2.1822088e-06
8.5891346e-06
-4.0487317e-06
-0.0034238257
-2.2339218e-07
2.1806938e-07
-3.0197961e-06
-0.0030411201
-2.1802228e-07
1.9716038e-07
-1.7531977e-06
-0.0026650116
-2.1367936e-07
1.7519904e-07
-0.0022072523
-1.9927174e-07
1.459955e-07
1.7845118e-06
-0.0022089934
-1.5863346e-07
1.1517728e-07
3.078816e-06
-0.0026662777
-1.6561289e-07
1.3747645e-07
4.1389868e-06
-0.0030421702
-1.6424733e-07
1.5422618e-07
5.0877783e-06
-0.0034247807
-1.6412801e-07
1.7031294e-07
-0.05626346
-1.4655951e-06
1.688166e-06
8.8829137e-06
-5.2580528e-06
-0.056268113
-3.8637724e-07
1.1023886e-06
9.1955007e-06
-4.2630478e-06
-0.0034257813
-1.0146536e-07
1.0703972e-07
-3.162988e-06
-0.0030432589
-1.0785477e-07
9.645334e-08
-1.8272916e-06
-0.0026675837
-1.1549076e-07
8.5782278e-08
-0.0022107759
-1.167001e-07
7.1963471e-08
1.875129e-06
-0.0022126068
-8.3690078e-08
3.9460937e-08
3.2564598e-06
-0.002668936
-7.5519047e-08
4.6537108e-08
4.4048014e-06
-0.0030443971
-6.2471326e-08
5.2425226e-08
5.448037e-06
-0.0034268322
-5.1089288e-08
5.8807646e-08
-0.056273438
4.9566947e-07
6.4167604e-07
9.6353556e-06
-5.6640297e-06
-0.056279472
1.0945685e-06
3.5064099e-07
1.0253432e-05
-4.566936e-06
-0.0034279393
-1.944118e-08
2.94892e-08
-3.3642192e-06
-0.0030455913
-3.4412382e-08
2.5903615e-08
-1.9287795e-06
-0.0026703436
-5.1012151e-08
2.3190073e-08
-0.002214492
-6.3732585e-08
2.0201543e-08
1.9863024e-06
-0.0022164349
-5.5732861e-08
1.2364522e-08
3.4807874e-06
-0.0026718107
-4.044995e-08
1.3133764e-08
4.7425311e-06
-0.0030468457
-2.1662867e-08
1.4294259e-08
5.9048725e-06
-0.0034291133
-4.6604516e-09
1.6274698e-08
-0.056286242
1.4380627e-06
2.0149198e-07
1.1034675e-05
-6.1757348e-06
-0.056293827
1.6329086e-06
1.5718999e-07
1.1970675e-05
-4.9415309e-06
-0.0034303605
-3.4080047e-10
1.3407999e-08
-3.6121461e-06
-0.0030481683
-1.8653571e-08
1.1917988e-08
-2.0541208e-06
-0.0026733413
-3.870473e-08
1.1343186e-08
-0.0022184449
-5.5344708e-08
1.1271807e-08
2.1276628e-06
-0.0022205409
-5.7510484e-08
2.5893815e-08
3.7574568e-06
-0.0026749579
-4.0051952e-08
2.6925665e-08
5.1665841e-06
-0.0030495863
-1.8957567e-08
2.7853479e-08
6.4780011e-06
-0.0034317019
3.825189e-10
2.9615833e-08
-0.056302469
1.7859213e-06
2.3313617e-07
1.3101355e-05
-6.8209457e-06
-0.056312105
1.9282014e-06
1.6303911e-07
1.4365683e-05
-5.416116e-06
-0.0034331231
-7.65598e-10
1.7085389e-08
-3.9237612e-06
-0.0030510731
-2.133874e-08
1.5846021e-08
-2.2094929e-06
-0.0026766444
-4.333713e-08
1.5534012e-08
-0.0022227046
-6.1542578e-08
1.5847917e-08
2.3006056e-06
-0.0022249583
-6.7027479e-08
2.019338e-08
4.1100768e-06
-0.002678426
-4.8076182e-08
2.027529e-08
5.7007527e-06
-0.0030526595
-2.4989377e-08
2.076273e-08
7.2053428e-06
-0.0034346464
-3.3355379e-09
2.2088972e-08
-0.056322904
2.0636156e-06
1.9028239e-07
1.5751048e-05
-7.6434403e-06
-0.056334959
2.1891331e-06
2.3162372e-07
1.7276959e-05
-6.0198489e-06
-0.0034362893
-8.4706114e-09
2.7803968e-08
-4.3183057e-06
-0.0030543559
-3.1309726e-08
2.6143515e-08
-2.4050439e-06
-0.0026803094
-5.5134116e-08
2.5358332e-08
-0.0022273135
-7.4527991e-08
2.4664976e-08
2.52479e-06
-0.0022297833
-8.3916614e-08
2.8971144e-08
4.5601714e-06
-0.0026823109
-6.409065e-08
3.0217971e-08
6.3911558e-06
-0.0030561792
-3.9140569e-08
3.1514428e-08
8.1438607e-06
-0.0034380606
-1.4965529e-08
3.3592204e-08
-0.056348433
2.3126067e-06
2.784094e-07
1.9027485e-05
-8.726647e-06
-0.056363602
2.453229e-06
3.3147021e-07
2.1110204e-05
-6.8166934e-06
-0.0034399865
-2.3476778e-08
3.9395151e-08
-4.8402051e-06
-0.0030581436
-4.8990743e-08
3.6944252e-08
-2.6617245e-06
-0.0026844494
-7.4991163e-08
3.5045241e-08
-0.0022323823
-9.5553578e-08
3.2836715e-08
2.8229537e-06
-0.0022351325
-1.087741e-07
3.6043079e-08
5.1681847e-06
-0.0026867462
-8.7388733e-08
3.9014697e-08
7.3201784e-06
-0.0030602773
-5.9832433e-08
4.1543757e-08
9.4092334e-06
-0.0034420875
-3.2530883e-08
4.4546255e-08
-0.056380714
2.6248302e-06
3.8865658e-07
2.3508232e-05
-1.0219042e-05
-0.056399973
2.831367e-06
4.4310015e-07
2.6203461e-05
-7.913409e-06
-0.0034443986
-4.3238804e-08
4.8694558e-08
-5.5570235e-06
-0.0030626059
-7.2919086e-08
4.5106477e-08
-3.0112164e-06
-0.0026892318
-1.0218228e-07
4.1992506e-08
-0.0022380572
-1.2469429e-07
3.8201204e-08
3.239602e-06
-0.0022411934
-1.4164699e-07
3.8323878e-08
6.0211283e-06
-0.0026919388
-1.1724532e-07
4.2671111e-08
8.6279102e-06
-0.0030651735
-8.5485266e-08
4.6300672e-08
1.11861e-05
-0.0034469543
-5.3015354e-08
5.0491884e-08
-0.056421736
3.1204387e-06
4.8304917e-07
2.9346234e-05
-1.2360075e-05
-0.056446453
3.5108118e-06
4.4489821e-07
3.3120535e-05
-9.4921572e-06
-0.0034497949
-6.3430033e-08
3.6144901e-08
-6.5892468e-06
-0.0030680083
-9.9783567e-08
3.1757895e-08
-3.516219e-06
-0.0026949047
-1.3501089e-07
2.8079964e-08
-0.002244572
-1.6206068e-07
2.4411332e-08
3.8560762e-06
-0.0022482772
-1.8918934e-07
3.8414993e-08
7.2844574e-06
-0.0026982182
-1.5949606e-07
4.4624732e-08
1.0556087e-05
-0.0030712096
-1.2046127e-07
5.0190354e-08
1.3801954e-05
-0.0034530175
-7.948176e-08
5.6298395e-08
-0.056474828
3.9432339e-06
6.1676197e-07
3.7616937e-05
-1.559296e-05
-0.05650734
4.4741824e-06
7.2568121e-07
4.2905915e-05
-1.1884539e-05
-0.003456685
-1.017371e-07
6.0778527e-08
-8.1516303e-06
-0.0030748468
-1.487901e-07
5.3059966e-08
-4.2774796e-06
-0.0027019454
-1.9305017e-07
4.6126252e-08
-0.0022523667
-2.265664e-07
3.8610444e-08
4.813637e-06
-0.0022569445
-2.7205546e-07
3.6249985e-08
9.2480754e-06
-0.0027061924
-2.3268384e-07
4.5350559e-08
1.3554144e-05
-0.0030790253
-1.8125896e-07
5.37489e-08
1.7847823e-05
-0.0034609155
-1.2637881e-07
6.3209093e-08
-0.056544821
5.1976395e-06
8.3296108e-07
4.9297569e-05
-2.0693924e-05
-0.056588387
6.1967814e-06
9.4479372e-07
5.7118896e-05
-1.5667058e-05
-0.0034658546
-1.5171134e-07
6.3939663e-08
-1.0637413e-05
-0.0030838905
-2.1717452e-07
5.2693606e-08
-5.4905663e-06
-0.0027111036
-2.7803531e-07
4.2427283e-08
-0.0022621413
-3.2501052e-07
3.1294025e-08
6.3625123e-06
-0.0022681418
-3.841494e-07
2.2156243e-08
1.2418335e-05
-0.0027168672
-3.2796945e-07
3.5720729e-08
1.8376382e-05
-0.0030896418
-2.5473191e-07
4.802611e-08
2.4336199e-05
-0.0034717007
-1.7537035e-07
6.1734162e-08
-0.056639503
7.5892134e-06
1.0620205e-06
6.6800636e-05
-2.9036189e-05
-0.056700058
9.4817986e-06
1.1403869e-06
7.8969145e-05
-2.1877389e-05
-0.0034787172
-1.9376374e-07
5.1474103e-08
-1.4723533e-05
-0.0030965399
-2.9128012e-07
3.5524405e-08
-7.482697e-06
-0.002723749
-3.8011633e-07
2.1128097e-08
-0.0022751828
-4.4707811e-07
5.3947575e-09
8.9437883e-06
-0.0022836002
-5.0113848e-07
-2.5253746e-08
1.7709676e-05
-0.0027320844
-4.1990544e-07
-1.0584962e-08
2.6413744e-05
-0.0031049374
-3.1112486e-07
4.5533796e-09
3.5129197e-05
-0.0034872641
-1.9093991e-07
2.2314127e-08
-0.056772663
1.2083937e-05
1.1093178e-06
9.4541366e-05
-4.2998142e-05
-0.056861236
1.5791254e-05
8.1401453e-07
0.00011496527
-3.228185e-05
-0.0034978003
-1.3353841e-07
-4.6547835e-08
-2.1575852e-05
-0.0031152977
-2.8169175e-07
-6.393718e-08
-1.0835037e-05
-0.0027423323
-4.1654657e-07
-7.6339639e-08
-0.0022938312
-5.222818e-07
-8.1667485e-08
1.3284115e-05
-0.0023064597
-4.655391e-07
-1.9018702e-07
2.6606711e-05
-0.0027551311
-3.2235774e-07
-2.014946e-07
3.9926594e-05
-0.0031282668
-1.5372783e-07
-1.9704937e-07
5.3263126e-05
-0.0035109811
2.8328381e-08
-1.8405795e-07
-0.056971193
2.0959225e-05
-1.1261063e-08
0.00014227256
-6.6775888e-05
-0.057110537
2.8800144e-05
-1.6899943e-06
0.00017900971
-4.9983442e-05
-0.0035277184
3.5981008e-07
-4.149394e-07
-3.3214425e-05
-0.0031447501
1.2986688e-07
-4.1560482e-07
-1.6482017e-05
-0.0027713823
-7.6870932e-08
-4.0423708e-07
-0.0023223297
-2.4419329e-07
-3.6778818e-07
2.0734158e-05
-0.0023425175
4.1209744e-08
-5.8757392e-07
4.1658331e-05
-0.002791863
2.0104573e-07
-6.4453468e-07
6.268598e-05
-0.0031655413
4.3942979e-07
-6.7589865e-07
8.3769354e-05
-0.0035488299
7.2101835e-07
-6.9287572e-07
-0.057291324
3.8028585e-05
-4.0458276e-06
0.00023057354
-0.00010660372
-0.0575376
4.7672678e-05
-6.7935947e-06
0.00031200009
-7.9451246e-05
-0.0035760775
1.0193132e-06
-9.2428259e-07
-5.2611952e-05
-0.0031921881
6.9739737e-07
-8.8992951e-07
-2.6133232e-05
-0.0028179575
4.6652287e-07
-8.508957e-07
-0.0023682022
3.7610694e-07
-8.2460758e-07
3.4697616e-05
-0.0024022122
8.0567333e-07
-1.4934535e-06
7.4001596e-05
-0.0028568078
7.8687323e-07
-1.2406466e-06
0.00011436466
-0.0032323031
9.661868e-07
-1.2143095e-06
0.0001552541
-0.0036171344
1.4580564e-06
-1.2905767e-06
-0.057872629
6.9662084e-05
-1.2261054e-05
0.00043288266
-0.00023410611
-0.058187635
9.3177203e-05
-1.4706373e-05
0.00047064052
-0.0001721034
-0.0036783381
8.4418702e-07
-1.6432225e-06
-0.00010888274
-0.0032939094
-5.4649335e-08
-1.5597175e-06
-4.8884924e-05
-0.0029145355
-4.0883674e-07
-1.8612915e-06
-0.0024472551
-1.1001206e-06
-2.7419149e-06
9.7497068e-05
-0.0025307166
-1.3856496e-05
-1.7923041e-07
0.0001799668
-0.0029870471
-8.1062311e-06
-1.8519309e-06
0.00025632464
-0.0033640113
-4.4146781e-06
-1.8413244e-06
0.00033439235
-0.0037513535
-4.016277e-06
-1.0360048e-06
-0.058302663
5.9654386e-05
1.2205371e-05
0.00037756115
0.00010201804
-0.059688464
3.255408e-05
-2.8927209e-05
0.0012801563
7.1305337e-05
-0.0037244395
1.1169077e-05
-7.370296e-06
4.6065323e-05
-0.0033416531
1.0123484e-05
-7.2415896e-06
2.3169047e-05
-0.0029685946
1.2275898e-05
-7.8319534e-06
-0.0025188217
2.202026e-05
-1.0746056e-05
-2.5289539e-05
-0.0024018033
-0.00010092751
9.1987051e-06
-5.4203078e-05
-0.0028295424
-0.00011349999
3.3613607e-06
-8.979804e-05
-0.0031864901
-0.000121443
1.8750698e-06
-0.00013225613
-0.0035539231
-0.0001301902
2.1318822e-06
-0.059748028
-0.0018944104
3.2769364e-05
0.0017889486
0.00056477201
-0.05648874
-0.0031147577
6.9233457e-05
-0.00077853538
0.00039250745
-0.003194076
-0.00020020435
1.2621846e-05
0.00024241431
-0.0028610947
-0.00018715912
1.1856816e-05
0.0001109379
-0.0025393136
-0.00017124093
1.2488586e-05
-0.0021615129
-0.00014454668
1.5194238e-05
-2.0399892e-05
0.0020320585
-0.0021313384
-0.0020418331
-4.9446325e-05
0.002414748
-0.0025181436
-0.0024068716
-8.0321888e-05
0.0027562866
-0.0028559654
-0.0027305403
-0.00011149805
0.0031217052
-0.0032103778
-0.0030742272
0.071681379
-0.027762134
-0.034787382
-0.065732102
0.00028822879
0.08711717
-0.014463393
-0.0043753847
0.00018957721
0.0038360962
-0.00081594378
9.9951537e-05
0.003382584
-0.00072383089
2.8889925e-05
0.0029557662
-0.00064119739
0.0024704851
-0.00055408339
-9.8096074e-05
0.0024750853
-7.4316665e-06
-0.00019636076
0.0029651077
-2.4576855e-05
-0.00029729803
0.003398364
-3.6285782e-05
-0.00040773848
0.0038627531
-4.6406582e-05
0.085481035
-0.0016059614
0.00093994742
-0.00025230024
0.085075724
-0.00055989089
0.0012500566
-0.00020206681
0.0038678397
-4.4150998e-05
-0.00015370189
0.0034006493
-4.0526711e-05
-9.4473146e-05
0.0029602122
-4.2057414e-05
0.002453114
-5.0481643e-05
6.1263826e-05
0.002384274
-6.2802834e-06
0.0001333965
0.0028913947
-1.1421378e-05
0.00021284677
0.0033300915
-1.3307187e-05
0.00029658317
0.0037934803
-1.3393245e-05
0.084857427
-0.00013504211
0.00070957641
-0.00022248258
0.084409999
-3.6442901e-05
0.00079953117
-0.00015841386
0.0037316825
-1.4266973e-06
-9.7458749e-05
0.0032702095
-1.1276906e-06
-4.2110248e-05
0.0028362437
-6.0633512e-07
0.0023403656
6.9802671e-07
3.2345778e-05
0.0023088027
2.2748652e-08
6.9665599e-05
0.0027997936
-8.2788694e-08
0.0001095825
0.0032314787
-2.199259e-07
0.00015211054
0.0036909594
-3.4695772e-07
0.083969424
-7.2436255e-06
0.0006695909
-0.00010700946
0.083644362
4.9974197e-06
0.00047474669
-7.8077964e-05
0.0036627148
3.3248955e-07
-5.0720492e-05
0.0032044892
3.2935473e-07
-2.4763628e-05
0.0027739467
3.5648141e-07
0.0022840334
3.8174681e-07
1.9302092e-05
0.0022642524
5.2012543e-07
3.969397e-05
0.0027532427
5.1321446e-07
6.1182064e-05
0.0031829305
5.1008764e-07
8.3806626e-05
0.0036402943
5.1690452e-07
0.08340157
4.832248e-06
0.00035979483
-6.6044728e-05
0.083211372
1.2514211e-06
0.00028379211
-4.8088719e-05
0.0036222924
4.0573412e-07
-3.1087283e-05
0.0031656352
4.2376327e-07
-1.5001941e-05
0.0027366413
4.3912227e-07
0.0022485487
4.5757366e-07
1.1854955e-05
0.0022358843
3.4386154e-07
2.4465466e-05
0.0027234017
3.0679805e-07
3.7806e-05
0.0031518677
2.7314588e-07
5.1935188e-05
0.0036079547
2.3682739e-07
0.083059308
-1.3734694e-06
0.00022633191
-4.1792027e-05
0.082935333
-2.723534e-06
0.00018428145
-3.0458506e-05
0.0035963675
1.201006e-07
-1.9779991e-05
0.0031407437
1.6380653e-07
-9.6572789e-06
0.0027126576
2.0479687e-07
0.0022254582
2.4656018e-07
8.0188915e-06
0.0022167513
1.8687335e-07
1.6311739e-05
0.0027038003
1.4459764e-07
2.5030596e-05
0.0031316104
1.0330325e-07
3.4289903e-05
0.0035868578
5.9498017e-08
0.082832753
-3.1679778e-06
0.00015212147
-2.8599845e-05
0.082746656
-3.0930897e-06
0.00012727225
-2.0928083e-05
0.0035789575
3.476368e-08
-1.3698642e-05
0.0031240143
7.539365e-08
-6.7829507e-06
0.0026963911
1.1337437e-07
0.0022093696
1.5171893e-07
5.8453122e-06
0.0022030089
1.3123435e-07
1.1696976e-05
0.0026901139
9.7613778e-08
1.7777226e-05
0.0031176154
6.3977773e-08
2.4218729e-05
0.0035723128
2.787639e-08
0.082673688
-2.8088984e-06
0.00010758426
-2.0790526e-05
0.082611373
-2.4302553e-06
9.1732832e-05
-1.531542e-05
0.0035666557
3.0287977e-08
-1.0135026e-05
0.0031121562
6.156693e-08
-5.1098459e-06
0.0026847201
9.0557727e-08
0.0021974549
1.1909528e-07
4.5373852e-06
0.0021925349
1.1055316e-07
8.911645e-06
0.002680026
8.7157369e-08
1.3385716e-05
0.0031074383
6.2652165e-08
1.8099132e-05
0.0035617801
3.5807329e-08
0.082557685
-2.0579065e-06
7.9042776e-05
-1.5966236e-05
0.082511064
-1.7237437e-06
6.8784968e-05
-1.1857117e-05
0.003557528
4.1217218e-08
-7.9437254e-06
0.0031033119
6.4232276e-08
-4.0802057e-06
0.0026758846
8.4792287e-08
0.0021881243
1.0388295e-07
3.7172863e-06
0.0021841199
9.7961648e-08
7.1671404e-06
0.0026721931
8.2182456e-08
1.063192e-05
0.0030996619
6.4673429e-08
1.4251992e-05
0.0035537832
4.5185786e-08
0.082470338
-1.431282e-06
6.0352921e-05
-1.285137e-05
0.082434688
-1.2188076e-06
5.3230465e-05
-9.6282209e-06
0.0035504527
4.3963097e-08
-6.5330034e-06
0.003096406
6.091756e-08
-3.4130124e-06
0.0026688621
7.6020799e-08
0.0021804554
8.9394366e-08
3.1664954e-06
0.0021770664
8.0845899e-08
6.0058887e-06
0.0026658369
6.8500156e-08
8.8031553e-06
0.0030934684
5.4909853e-08
1.1698096e-05
0.0035474648
3.9934739e-08
0.082403357
-1.0699372e-06
4.7219974e-05
-1.0735309e-05
0.082375636
-9.0196971e-07
4.2189891e-05
-8.1141174e-06
0.0035447602
4.0211477e-08
-5.5694301e-06
0.0030907976
5.3209184e-08
-2.9590928e-06
0.0026630594
6.5019614e-08
0.0021739071
7.5553437e-08
2.7802947e-06
0.0021709436
7.4419098e-08
5.1994892e-06
0.0026604873
6.5532513e-08
7.5315606e-06
0.0030883503
5.541989e-08
9.9221109e-06
0.0035422928
4.4318108e-08
0.082351016
-7.038301e-07
3.7870818e-05
-9.2309399e-06
0.082329177
-5.5021603e-07
3.4073445e-05
-7.0366832e-06
0.0035400282
4.6901707e-08
-4.8842355e-06
0.0030860924
5.6400133e-08
-2.6333959e-06
0.0026580962
6.5224846e-08
0.0021681417
7.2908857e-08
2.4986569e-06
0.0021654876
7.1584486e-08
4.6117703e-06
0.0026558542
6.4858383e-08
6.6127871e-06
0.0030839952
5.7072675e-08
8.6369541e-06
0.0035379402
4.8866809e-08
0.082309776
-4.2308097e-07
3.0773707e-05
-8.1212282e-06
0.082292439
-3.2800776e-07
2.7975383e-05
-6.2403348e-06
0.0035360007
5.0102281e-08
-4.3753994e-06
0.0030820417
5.7281874e-08
-2.3867206e-06
0.0026537464
6.4025446e-08
0.0021629565
6.9821993e-08
2.2862379e-06
0.0021605363
6.6955964e-08
4.1694928e-06
0.0026517539
6.1098227e-08
5.9185934e-06
0.003080213
5.4586774e-08
7.6691843e-06
0.0035341987
4.8058697e-08
0.082276924
-2.7850875e-07
2.5525641e-05
-7.2667935e-06
0.082263103
-2.7512931e-07
2.3291737e-05
-5.6283212e-06
0.0035325161
4.3420767e-08
-3.982284e-06
0.003078496
4.9627971e-08
-2.194127e-06
0.0026498665
5.5937057e-08
0.0021582188
6.1822352e-08
2.1166216e-06
0.0021559875
5.7250795e-08
3.8192619e-06
0.0026480729
5.0893168e-08
5.3747348e-06
0.0030768771
4.4530506e-08
6.9103867e-06
0.0035309422
3.8631607e-08
0.082250841
-2.8288683e-07
2.1240488e-05
-6.5901885e-06
0.082239961
-2.9263577e-07
1.9396184e-05
-5.1405484e-06
0.0035294578
3.4411111e-08
-3.6693504e-06
0.003075347
4.0169433e-08
-2.0396558e-06
0.0026463581
4.643067e-08
0.0021538396
5.2837425e-08
1.9756159e-06
0.0021517615
4.6770247e-08
3.5358019e-06
0.0026447179
3.9613439e-08
4.9342407e-06
0.0030738939
3.3018697e-08
6.3039501e-06
0.0035280563
2.713881e-08
0.082230271
-3.4595482e-07
1.7778445e-05
-6.0411175e-06
0.082221662
-5.4226729e-07
1.6286104e-05
-4.7472804e-06
0.0035267339
9.1119301e-09
-3.4136868e-06
0.0030725099
1.6035871e-08
-1.9148616e-06
0.002643144
2.4028292e-08
0.0021497496
3.3336781e-08
1.8597294e-06
0.0021477977
8.4998993e-09
3.3006858e-06
0.0026416326
-5.0726458e-09
4.5735869e-06
0.0030711907
-1.6126211e-08
5.8021477e-06
0.00352548
-2.5775425e-08
0.082214043
-9.7844106e-07
1.4895224e-05
-5.5924972e-06
0.082207319
-1.6716417e-06
1.3601847e-05
-4.4193489e-06
0.0035242843
-7.8886329e-08
-3.2007378e-06
0.0030699291
-6.4865424e-08
-1.8090653e-06
0.0026401745
-4.9086313e-08
0.0021459009
-2.8964091e-08
1.7642689e-06
0.0021440523
-7.4300931e-08
3.115928e-06
0.0026387597
-1.0239586e-07
4.2885048e-06
0.0030687163
-1.2401675e-07
5.4116097e-06
0.0035231408
-1.4376399e-07
0.082201406
-2.5376872e-06
1.2396792e-05
-5.3197777e-06
0.082196257
-3.2786132e-06
1.1274092e-05
-4.2211424e-06
0.0035220195
-2.007044e-07
-3.0677278e-06
0.0030675213
-1.7648275e-07
-1.7398081e-06
0.0026373678
-1.4972448e-07
0.0021422277
-1.1445016e-07
1.7011514e-06
-1.2415542e-07
2.997048e-06
-1.6053474e-07
4.1171868e-06
-1.8816373e-07
5.1799655e-06
-2.1330302e-07
-3.4230842e-06
1.0110032e-05
-5.2748215e-06
-0.082199148
-6.8245125e-06
8.0395432e-06
-4.1872596e-06
-0.003523014
-4.4632487e-07
5.5149491e-07
-3.0466731e-06
-0.0030686097
-3.9866386e-07
5.158536e-07
-1.7276075e-06
-0.0026386814
-3.4619741e-07
4.7918733e-07
-0.0021440095
-2.7632766e-07
4.218452e-07
1.7518413e-06
-0.0021458971
-1.5645679e-07
2.9226024e-07
3.0845504e-06
-0.0026401348
-2.0604696e-07
3.2676679e-07
4.2435094e-06
-0.0030698711
-2.4363566e-07
3.4607299e-07
5.3493428e-06
-0.0035242075
-2.7726963e-07
3.649969e-07
-0.082205438
-4.5712759e-06
4.926746e-06
1.1284104e-05
-5.5066811e-06
-0.082212312
-2.5753636e-06
2.1713744e-06
1.2785292e-05
-4.3563329e-06
-0.0035254295
-1.2905775e-07
2.0076188e-07
-3.1590875e-06
-0.0030711572
-1.0795358e-07
1.9682628e-07
-1.7892928e-06
-0.0026416137
-8.372379e-08
1.9292736e-07
-0.002147813
-5.2285059e-08
1.7889644e-07
1.8374444e-06
-0.0021497722
2.4742717e-08
9.7116655e-08
3.2574015e-06
-0.0026431362
6.4271252e-09
9.6121764e-08
4.5041523e-06
-0.0030724842
-8.158936e-09
8.8551972e-08
5.708092e-06
-0.0035266947
-2.021972e-08
8.1443662e-08
-0.082219916
-1.1224836e-06
1.5556923e-07
1.4279062e-05
-5.9391937e-06
-0.082228426
-2.3010292e-07
-1.1196974e-06
1.5799094e-05
-4.6727779e-06
-0.0035280182
4.8480345e-08
8.5962063e-09
-3.3669416e-06
-0.0030738678
5.5143322e-08
2.2567848e-08
-1.8919959e-06
-0.0026447122
6.376311e-08
3.734243e-08
-0.0021517858
7.389861e-08
4.7684508e-08
1.9525994e-06
-0.0021538632
1.0340017e-07
2.1511476e-08
3.4868704e-06
-0.0026463501
9.7509325e-08
6.179027e-09
4.8574045e-06
-0.0030753173
9.1749187e-08
-1.2693928e-08
6.1964447e-06
-0.0035294142
8.780811e-08
-3.0777629e-08
-0.082237968
2.4762501e-07
-1.8533216e-06
1.7343964e-05
-6.4793113e-06
-0.082248685
4.7526517e-07
-2.2670397e-06
1.8988275e-05
-5.0613619e-06
-0.0035308927
1.1036852e-07
-4.9815553e-08
-3.6182477e-06
-0.0030768442
1.1322228e-07
-2.9388845e-08
-2.0184696e-06
-0.0026480592
1.1761518e-07
-8.2301581e-09
-0.0021560131
1.216263e-07
9.8222848e-09
2.0890898e-06
-0.002158241
1.3327561e-07
5.6557534e-09
3.762993e-06
-0.0026498494
1.2982901e-07
-1.338267e-08
5.2849494e-06
-0.003078456
1.2561758e-07
-3.5720412e-08
6.7884961e-06
-0.0035324615
1.2285556e-07
-5.7613677e-08
-0.082260754
5.6515621e-07
-2.5179021e-06
2.0809828e-05
-7.1431584e-06
-0.082274297
5.6727979e-07
-2.6883193e-06
2.2807768e-05
-5.5393204e-06
-0.0035341357
1.2968321e-07
-5.9285655e-08
-3.9259783e-06
-0.0030801659
1.329702e-07
-3.6395751e-08
-2.1682547e-06
-0.0026517317
1.3761105e-07
-1.3057939e-08
-0.0021605577
1.4154402e-07
6.8863279e-09
2.2557979e-06
-0.0021629731
1.5216996e-07
7.5693981e-09
4.1057388e-06
-0.002653716
1.4747855e-07
-1.2999142e-08
5.8174897e-06
-0.0030819824
1.4208865e-07
-3.7239935e-08
7.5312587e-06
-0.0035359265
1.3835144e-07
-6.1279183e-08
-0.082289454
5.7484364e-07
-2.868596e-06
2.4981736e-05
-7.9607906e-06
-0.082306471
6.3176079e-07
-3.1049553e-06
2.7450514e-05
-6.1266776e-06
-0.003537848
1.5257238e-07
-6.5156538e-08
-4.3016621e-06
-0.0030839247
1.568162e-07
-3.9502114e-08
-2.3515881e-06
-0.0026558144
1.6251506e-07
-1.4107375e-08
-0.002165499
1.6700087e-07
7.2873974e-09
2.4598322e-06
-0.0021681521
1.8389108e-07
9.3918983e-09
4.526484e-06
-0.0026580467
1.7899243e-07
-1.3334806e-08
6.4793679e-06
-0.0030860103
1.7294495e-07
-4.025013e-08
8.4551371e-06
-0.0035399244
1.683684e-07
-6.7741081e-08
-0.082325608
6.8986302e-07
-3.3629718e-06
3.0265654e-05
-9.0079316e-06
-0.082347071
7.137617e-07
-3.6458211e-06
3.3402964e-05
-6.8750456e-06
-0.0035421716
1.8340928e-07
-6.9055599e-08
-4.7796619e-06
-0.0030882551
1.8896363e-07
-3.95564e-08
-2.5806753e-06
-0.0026604307
1.9601142e-07
-1.094429e-08
-0.0021709474
2.0170343e-07
1.2916322e-08
2.7203253e-06
-0.0021739087
2.2485597e-07
1.6241807e-08
5.0711305e-06
-0.0026629905
2.1832658e-07
-9.2945024e-09
7.3333617e-06
-0.0030906876
2.1038503e-07
-4.0015823e-08
9.6513888e-06
-0.0035446216
2.0395696e-07
-7.1967446e-08
-0.082371162
7.6474809e-07
-3.9970543e-06
3.6975205e-05
-1.0395027e-05
-0.082398373
8.5956032e-07
-4.4170967e-06
4.1162603e-05
-7.8633883e-06
-0.0035473092
2.3179769e-07
-7.5779565e-08
-5.4063453e-06
-0.0030933432
2.3928632e-07
-4.070014e-08
-2.8802077e-06
-0.0026657574
2.4823797e-07
-7.423532e-09
-0.0021770643
2.550535e-07
2.0379356e-08
3.0684588e-06
-0.0021804483
2.8922797e-07
2.6276003e-08
5.8039158e-06
-0.0026687706
2.8125797e-07
-3.4905762e-09
8.4926773e-06
-0.0030962632
2.7080709e-07
-3.9609737e-08
1.1277101e-05
-0.0035502772
2.6179169e-07
-7.8257568e-08
-0.082429156
9.1701901e-07
-4.8910258e-06
4.6034748e-05
-1.2325534e-05
-0.082464053
9.2170992e-07
-5.4075504e-06
5.1707972e-05
-9.2420745e-06
-0.0035535757
2.9094979e-07
-7.5925054e-08
-6.2777667e-06
-0.0030994963
3.0210551e-07
-3.3275203e-08
-3.2912914e-06
-0.0026720782
3.147307e-07
6.3958171e-09
-0.0021841037
3.2491099e-07
3.918108e-08
3.560984e-06
-0.0021880906
3.6816955e-07
5.7774939e-08
6.8490106e-06
-0.0026757442
3.5621607e-07
2.177663e-08
1.0144387e-05
-0.0031031106
3.4138113e-07
-2.2438311e-08
1.3594827e-05
-0.0035572834
3.2785054e-07
-7.0523554e-08
-0.082503799
9.6782565e-07
-6.0316688e-06
5.8405215e-05
-1.5139466e-05
-0.082549388
1.090376e-06
-6.8218856e-06
6.6459712e-05
-1.1246398e-05
-0.0035614888
3.7504407e-07
-6.267558e-08
-7.5459092e-06
-0.0031071945
3.9091046e-07
-7.4136973e-09
-3.88787e-06
-0.0026798532
4.0801938e-07
4.3182592e-08
-0.0021924847
4.2199137e-07
8.430205e-08
4.2883665e-06
-0.0021973778
4.8406432e-07
1.2076765e-07
8.4010102e-06
-0.0026845058
4.6737687e-07
7.2668379e-08
1.2608654e-05
-0.0031118633
4.4740518e-07
1.3820146e-08
1.7050727e-05
-0.0035663088
4.2892983e-07
-5.0977592e-08
-0.082601952
1.2402071e-06
-7.8373396e-06
7.6211851e-05
-1.946979e-05
-0.082662899
1.3407415e-06
-9.1064914e-06
8.8182922e-05
-1.4334283e-05
-0.0035718947
4.852788e-07
-3.4792334e-08
-9.4897103e-06
-0.0031172571
5.0746831e-07
4.1822388e-08
-4.7953482e-06
-0.0026898431
5.3179178e-07
1.1123321e-07
-0.0022028944
5.5297462e-07
1.68271e-07
5.4467986e-06
-0.0022092007
6.3248587e-07
2.2712395e-07
1.0886595e-05
-0.0026960481
6.0537208e-07
1.5984201e-07
1.6546686e-05
-0.0031235702
5.7584871e-07
7.7217667e-08
2.2563795e-05
-0.0035784465
5.4931991e-07
-1.4683915e-08
-0.08273419
1.436737e-06
-1.0731024e-05
0.00010314851
-2.656055e-05
-0.082818346
1.6299545e-06
-1.2844765e-05
0.00012193206
-1.9410557e-05
-0.0035862314
6.2934869e-07
5.6187301e-09
-1.2696475e-05
-0.0031310617
6.6060297e-07
1.1677341e-07
-6.2917447e-06
-0.0027033642
6.954724e-07
2.1591341e-07
-0.0022165147
7.2746801e-07
2.9480274e-07
7.4096784e-06
-0.002225131
8.4426462e-07
3.6232278e-07
1.5078305e-05
-0.0027121082
8.0738434e-07
2.6795421e-07
2.3170985e-05
-0.0031400702
7.6749139e-07
1.4835778e-07
3.1793485e-05
-0.0035955994
7.3229272e-07
1.3174497e-08
-0.08291871
2.0171088e-06
-1.5602971e-05
0.00014574287
-3.8752372e-05
-0.083040051
2.6641714e-06
-1.9136862e-05
0.00017656663
-2.8182252e-05
-0.0036070219
8.6857664e-07
-1.6191796e-08
-1.8267147e-05
-0.0031510375
9.058893e-07
1.4631292e-07
-8.9055663e-06
-0.0027227108
9.5012753e-07
2.9080368e-07
-0.0022354383
9.8993532e-07
4.1173525e-07
1.0945732e-05
-0.0022479524
1.16294e-06
4.0533771e-07
2.2639029e-05
-0.0027357809
1.1228646e-06
2.539374e-07
3.5062871e-05
-0.0031646184
1.0747102e-06
8.2291965e-08
4.8276937e-05
-0.0036211646
1.0373254e-06
-1.0871073e-07
-0.083189171
3.7960772e-06
-2.3481394e-05
0.00021708178
-6.1741381e-05
-0.083376237
5.3544643e-06
-2.9004036e-05
0.00027245728
-4.4834762e-05
-0.0036389866
1.1869204e-06
-2.7159286e-07
-2.8888181e-05
-0.0031817359
1.2223871e-06
-5.146821e-08
-1.3882728e-05
-0.0027522027
1.2673591e-06
1.4892173e-07
-0.0022634713
1.3110897e-06
3.251724e-07
1.7995304e-05
-0.0022830496
1.4234819e-06
1.5939939e-07
3.7250763e-05
-0.0027728186
1.3307217e-06
2.976291e-08
5.7666202e-05
-0.0032032536
1.2755439e-06
-1.7329216e-07
7.9227988e-05
-0.0036613798
1.2536347e-06
-4.2221557e-07
-0.083614946
7.3134887e-06
-3.5012393e-05
0.00034563574
-0.00010150203
-0.083934772
7.7181147e-06
-3.912472e-05
0.0004527342
-7.3848756e-05
-0.0036896974
1.0406511e-06
-3.7640276e-07
-4.7760555e-05
-0.0032302722
1.0649235e-06
-1.3460598e-07
-2.3216974e-05
-0.0027985526
1.1884951e-06
1.7676113e-09
-0.0023076676
1.4543058e-06
-5.3269334e-08
3.0408601e-05
-0.0023388785
1.160568e-06
-3.5835818e-07
6.5390652e-05
-0.0028342012
4.5018905e-07
2.1630638e-07
0.00010331181
-0.0032685703
1.4067639e-07
2.3617737e-07
0.00014383313
-0.0037302396
4.4131343e-08
-2.3184524e-08
-0.084384913
-6.2266246e-07
-4.4121425e-05
0.00063871892
-0.00023321856
-0.084861218
-2.4155622e-05
-5.7860898e-05
0.00079153942
-0.00016663486
-0.0037946321
-2.3065408e-06
1.1527508e-07
-0.00010314609
-0.0033304715
-2.1511418e-06
5.6358396e-07
-4.5044386e-05
-0.0028914454
-1.5194295e-06
6.6195313e-07
-0.0023836482
2.9165648e-07
-5.663475e-07
6.4990955e-05
-0.0024477771
-2.416136e-06
1.5539418e-06
0.00014340483
-0.0029635956
-7.0077679e-06
7.4400752e-07
0.00022861847
-0.0034063554
-8.1473201e-06
-1.1824314e-06
0.00031597358
-0.0038722569
-8.5124311e-06
-1.2178229e-06
-0.08503967
-7.1692968e-05
-7.3199597e-05
0.00063931852
-0.00023449979
-0.085518341
-0.00035526075
0.00012600449
0.00094242685
-0.0001888238
-0.0038916371
-6.0679158e-06
-2.0227757e-05
-0.00014750504
-0.0034228122
-2.9292793e-06
-2.1932564e-05
-9.5180596e-05
-0.0029909721
-8.7177839e-07
-2.4075887e-05
-0.0025102595
-2.9651665e-06
-2.9733009e-05
-0.00016579088
-0.0024082026
-4.2003655e-05
0.00010573754
-0.00032403916
-0.0028956234
-5.3462741e-05
0.00011636229
-0.00048833375
-0.0033214057
-6.3129383e-05
0.00012601749
-0.00067241948
-0.0037696435
-7.3285339e-05
0.00013537742
-0.088139317
-0.0017350742
0.0020351379
0.001648493
-1.1046108e-05
-0.07182113
-0.014734186
0.0029246143
-0.0044975693
-3.2470608e-05
-0.0031147744
-0.00080518194
0.00017173741
-4.7431452e-05
-0.0027500117
-0.0007140215
0.00015758835
-4.3851701e-05
-0.0024093695
-0.00063147723
0.00014164354
-0.0020254266
-0.00054156495
0.00011493729
1.5961473e-05
0.002121066
2.9417082e-05
0.002500378
4.3510692e-05
0.0028229158
5.5263168e-05
0.0031584309
0.056236903
0.00060107701
0.070442217
-0.00013812607
-0.0084591826
0.00042414195
0.0037781219
-2.0943188e-05
0.00026452174
0.0033491086
-2.0810389e-05
0.00012219801
0.0029406486
-2.2074847e-05
0.0024702328
-2.6365492e-05
-0.00021848963
0.0025710338
7.5684986e-05
-0.00043499864
0.0030357796
6.7915279e-05
-0.00065694645
0.0034430984
6.4828543e-05
-0.00089385238
0.0038776254
6.4117073e-05
0.067656967
0.00034324272
-0.00018692024
-4.3818199e-05
0.066897175
8.7566352e-05
0.00036078398
-4.5245997e-05
0.0038527142
2.0271112e-05
-4.7265466e-05
0.0034208532
2.1335449e-05
-3.8835406e-05
0.0030055234
2.0954443e-05
0.0025113635
1.786974e-05
5.7927727e-05
0.0024394292
1.1590399e-05
0.0001164452
0.0029277585
1.2239592e-05
0.00017689602
0.0033404837
1.1771333e-05
0.00023946212
0.0037705941
1.1041527e-05
0.06675694
1.2207302e-05
0.00029579601
-0.0001932673
0.066371177
1.56276e-05
0.00053924717
-0.00013945728
0.0037061285
8.3490745e-06
-8.725524e-05
0.0032773315
8.799025e-06
-3.8526959e-05
0.0028683578
9.1529772e-06
0.0023920375
9.1564622e-06
2.7903407e-05
0.0023589458
6.3488458e-06
5.8754563e-05
0.0028316915
6.2653591e-06
9.1353322e-05
0.0032388702
6.0031737e-06
0.00012560897
0.0036662411
5.6758855e-06
0.066011321
9.8381523e-06
0.0004750041
-9.222301e-05
0.065761844
6.1680672e-06
0.00034324988
-6.816173e-05
0.0036394251
3.7953821e-06
-4.5005137e-05
0.0032127543
4.024213e-06
-2.2530189e-05
0.0028061784
4.2266313e-06
0.0023335462
4.3237252e-06
1.8079311e-05
0.0023139064
2.9839209e-06
3.6399695e-05
0.002786282
2.9067087e-06