/*--------------------------------*- C++ -*----------------------------------*\
  =========                 |
  \\      /  F ield         | OpenFOAM: The Open Source CFD Toolbox
   \\    /   O peration     | Website:  https://openfoam.org
    \\  /    A nd           | Version:  7
     \\/     M anipulation  |
\*---------------------------------------------------------------------------*/
FoamFile
{
    version     2.0;
    format      ascii;
    class       volVectorField;
    location    "180";
    object      U;
}
// * * * * * * * * * * * * * * * * * * * * * * * * * * * * * * * * * * * * * //

dimensions      [0 1 -1 0 0 0 0];

internalField   nonuniform List<vector> 
24866
(
(120.00023 -0.0005930461 -0.00071553875)
(120.00035 -0.00037505713 -0.00054123282)
(120.00033 -0.00043533599 -0.00044980424)
(120.00012 -0.0002314333 -0.00023102218)
(120.00002 -6.4459239e-05 -6.766746e-05)
(120.00003 -5.9610183e-05 -8.1360076e-05)
(120.00002 -4.7544406e-05 -9.2858252e-05)
(120.00002 -4.7063127e-05 -8.6901332e-05)
(120.00003 -2.8452923e-05 -9.3650844e-05)
(120.00003 -1.9603457e-05 -0.00010618057)
(120.00003 -5.9625732e-06 -0.00010492716)
(120.00003 6.1720727e-06 -0.00010485038)
(120.00003 2.0024114e-05 -0.00010592112)
(120.00003 2.917888e-05 -9.3266459e-05)
(120.00002 4.8132181e-05 -8.6757073e-05)
(120.00002 4.8928277e-05 -9.131555e-05)
(120.00003 6.2463621e-05 -8.0250478e-05)
(120.00002 6.7074453e-05 -6.5051639e-05)
(120.00003 7.2348768e-05 -6.3003213e-05)
(120.00003 8.9876973e-05 -5.4002264e-05)
(120.00003 0.00010846055 -5.1058151e-05)
(120.00004 0.00012134006 -3.7946879e-05)
(120.00003 0.00010846232 -2.496613e-05)
(120.00004 9.5498821e-05 -4.0724956e-05)
(120.00003 0.00012058928 -1.0212239e-05)
(120.00003 0.00013040998 3.0388977e-06)
(120.00003 0.00011236743 1.7026256e-05)
(120.00004 8.8117256e-05 4.6132535e-05)
(120.00004 0.00010225011 2.8095105e-05)
(120.00003 0.00010375616 5.4529979e-05)
(120.00003 8.3220542e-05 5.4832295e-05)
(120.00003 6.9054046e-05 6.5372498e-05)
(120.00003 6.6275414e-05 6.8340869e-05)
(120.00003 5.5786322e-05 8.2538953e-05)
(120.00003 5.5518118e-05 0.00010295791)
(120.00004 2.8896021e-05 0.0001015506)
(120.00004 4.7019627e-05 8.7635266e-05)
(120.00003 1.7929484e-05 0.00011181568)
(120.00003 3.8924368e-06 0.00013001626)
(120.00003 -9.2941368e-06 0.00012021918)
(120.00004 -4.0001751e-05 9.5258413e-05)
(120.00003 -2.4592342e-05 0.00010820114)
(120.00004 -3.7637e-05 0.0001209525)
(120.00003 -5.0832353e-05 0.00010807465)
(120.00003 -5.3869121e-05 8.9386336e-05)
(120.00003 -6.3023144e-05 7.2017131e-05)
(120.00002 -6.4930918e-05 6.6502483e-05)
(120.00003 -8.0325523e-05 6.2004219e-05)
(120.00002 -9.1217773e-05 4.8324786e-05)
(120.00002 -8.6911596e-05 4.7767773e-05)
(120.00003 -9.3018759e-05 2.8674826e-05)
(120.00003 -0.00010585846 1.9489452e-05)
(120.00003 -0.00010476168 5.7617035e-06)
(120.00003 -0.00010468693 -6.4287946e-06)
(120.00003 -0.00010564545 -2.0117931e-05)
(120.00003 -9.347924e-05 -2.90573e-05)
(120.00002 -8.6493804e-05 -4.7639098e-05)
(120.00002 -9.2514643e-05 -4.8239091e-05)
(120.00003 -8.0674869e-05 -6.0120329e-05)
(120.00002 -6.7319328e-05 -6.5269071e-05)
(120.00003 -0.00012021872 -9.3696412e-05)
(120.00001 -0.00012169233 -0.00012226314)
(120.00003 -9.3081617e-05 -0.00012078434)
(120.00003 -9.6755103e-05 -0.00011490702)
(120.00001 -0.00010036786 -0.00015486198)
(120.00002 -7.3693874e-05 -0.00017203336)
(120.00002 -6.2532622e-05 -0.00015635659)
(120.00002 -5.3249581e-05 -0.00014116931)
(120.00001 -4.0113319e-05 -0.00017852838)
(120.00001 -1.3648025e-05 -0.00018890434)
(120.00001 1.3869888e-05 -0.00018885776)
(120.00001 4.0557185e-05 -0.00017837801)
(120.00002 5.3970527e-05 -0.00014083545)
(120.00002 6.3169581e-05 -0.00015600344)
(120.00002 7.4880369e-05 -0.00017148709)
(120.00001 0.00010253445 -0.00015394043)
(120.00003 9.9666837e-05 -0.00011397022)
(120.00003 9.547428e-05 -0.0001185673)
(120.00001 0.00012568423 -0.00012014406)
(120.00003 0.0001257203 -9.386489e-05)
(120.00003 0.00012373178 -9.7937624e-05)
(120.00001 0.00017274122 -0.00010438655)
(120.00002 0.00020196252 -8.5243926e-05)
(120.00002 0.00020839732 -6.2731913e-05)
(120.00002 0.00020616136 -1.2020688e-05)
(120.00001 0.00018750051 -2.6129755e-05)
(120.00002 0.00018639486 -1.1491359e-05)
(120 0.00019299486 1.0839014e-05)
(120.00002 0.00017110528 3.2584149e-05)
(120.00001 0.00017215806 4.8706404e-05)
(120.00002 0.00018985408 4.4392185e-05)
(120.00001 0.00021657747 1.6093906e-05)
(120.00001 0.0002488605 2.4499795e-05)
(120.00001 0.00024890843 -2.9745346e-05)
(120.00001 0.00023265996 -8.1649216e-05)
(120.00001 0.00020941033 -0.00011832331)
(120.00001 0.00016784288 -0.00012836588)
(120.00001 0.00017401139 -0.00017019509)
(120.00001 0.00013189314 -0.00016122314)
(120.00001 0.00011694489 -0.00020638488)
(120.00001 0.00014998156 -0.00020767334)
(120 0.00018372169 -0.00018247826)
(120.00001 0.00021148239 -0.00014912733)
(120.00001 0.0002392541 -0.00010392054)
(120.00001 0.00025466469 -3.8767717e-05)
(120 0.00025424053 3.3960793e-05)
(120.00001 0.00023762246 0.00010079096)
(120.00001 0.00023344671 7.5849821e-05)
(120.00001 0.00020380463 0.00011569581)
(120.00002 0.00018162499 7.8978487e-05)
(120.00001 0.00016539872 0.00010349295)
(120.00003 0.00011621446 9.5777487e-05)
(120.00003 0.00012134728 9.4096467e-05)
(120.00001 0.00012220773 0.000121388)
(120.00001 0.00016407488 0.00012850374)
(120.00001 0.00017211146 0.00017120117)
(120.00001 0.00020908577 0.00014768567)
(120 0.00018261178 0.00018164533)
(119.99999 0.00020916669 0.00012412615)
(119.99999 0.00022425037 4.2812332e-05)
(119.99999 0.00022470919 -4.7095049e-05)
(120 0.00020974214 -0.00012668407)
(119.99998 0.000144705 -0.00014499465)
(119.99999 0.00012635093 -0.00020869227)
(120.00001 0.00010356035 -0.00023810201)
(120.00001 7.9123865e-05 -0.00023742124)
(120.00001 5.6630271e-05 -0.00020617965)
(120.00002 2.2449989e-05 -0.00022552499)
(120.00001 2.8550537e-05 -0.00025520184)
(120 3.6935408e-05 -0.00025506296)
(119.99999 4.5276926e-05 -0.00022382345)
(119.99997 5.1861718e-05 -0.00015565584)
(119.99996 5.5631216e-05 -5.7373481e-05)
(119.99997 0.00015527218 -5.35414e-05)
(119.99997 0.00015490846 4.9953378e-05)
(119.99998 0.00014392896 0.00014290425)
(119.99999 0.0001251035 0.00020816057)
(120.00001 0.00010171429 0.00023668839)
(120.00001 0.00014862349 0.00020816414)
(120.00001 0.00011659755 0.00020296334)
(120.00001 0.00012941312 0.00016318663)
(120.00001 0.00010445924 0.0001646506)
(120.00003 9.6703368e-05 0.00011551394)
(120.00003 9.4811376e-05 0.00012049868)
(120.00003 0.00018194498 0.00024832284)
(120.00003 0.00020401604 0.00023325413)
(120.00006 0.0002880336 0.00034965083)
(120.00014 0.00018587614 0.00028246242)
(120.00012 0.00023330414 0.00023199691)
(120.00012 0.00023421939 0.00023084697)
(120.00014 0.00028439978 0.00018303276)
(120.00011 0.00031834531 0.00014600371)
(120.00012 0.00037413493 0.00015941288)
(120.00004 0.00022094833 6.9648552e-05)
(120.00005 0.00018949495 8.9215821e-05)
(120.00012 0.00038701656 0.00011966999)
(120.00012 0.00037744432 7.5706331e-05)
(120.00011 0.00038763731 1.1401053e-05)
(120.00012 0.00040288515 -5.1180723e-05)
(120.00011 0.00042600638 -0.00010925807)
(120.00015 0.00051307547 -0.00012105892)
(120.00014 0.00043263456 -0.0001825733)
(120.00012 0.00033537397 -0.00013720885)
(120.00014 0.00029937118 -0.00018069979)
(120.00012 0.0002454752 -0.00022616054)
(120.00012 0.00024126506 -0.00022392484)
(120.00014 0.00020475688 -0.00027113688)
(120.00011 0.0001567709 -0.00028297531)
(120.00013 0.00016771719 -0.00030353655)
(120.00013 9.2089723e-05 -0.00033237869)
(120.00013 6.800218e-05 -0.00034331396)
(120.00013 2.1374919e-05 -0.00036144581)
(120.00013 -2.0508444e-05 -0.00036164178)
(120.00013 -6.6584667e-05 -0.00034386196)
(120.00013 -8.981411e-05 -0.00033351595)
(120.00013 -0.00016456006 -0.00030474975)
(120.00011 -0.00015212204 -0.00028607263)
(120.00014 -0.00019666097 -0.00027507113)
(120.00007 -0.00029084074 -0.00034587601)
(120.00007 -0.00026633678 -0.00032655311)
(120.00003 -0.00018037266 -0.00024982231)
(120.00003 -0.00020432335 -0.00023249008)
(120.00006 -0.0003497861 -0.00037299829)
(120.00013 -0.00034316688 -0.00041028928)
(120.00007 -0.0002897575 -0.0003801421)
(120.00005 -0.00035083766 -0.00035236661)
(120.00001 -0.00050488785 -0.0004108251)
(120.00001 -0.00016193953 -0.00012994457)
(120.00001 -0.00017000735 -0.00017072547)
(120.00001 -0.0001292472 -0.00016255857)
(120.00001 -0.00011539006 -0.00020706755)
(120.00001 -7.8177456e-05 -0.0002377232)
(120.00001 -5.5917554e-05 -0.00020645309)
(120.00002 -2.2082841e-05 -0.0002255692)
(120.00001 -2.8035057e-05 -0.00025528247)
(120 -3.6323512e-05 -0.00025511427)
(119.99999 -4.4750874e-05 -0.00022378348)
(119.99997 -5.1683504e-05 -0.00015549812)
(119.99996 -5.5992714e-05 -5.711735e-05)
(119.99996 -5.6357032e-05 5.4458533e-05)
(119.99996 5.5267688e-05 5.418225e-05)
(119.99997 5.0944314e-05 0.00015381722)
(119.99999 4.3736934e-05 0.0002232091)
(120 3.4832403e-05 0.00025329208)
(120.00001 2.532216e-05 0.00024803249)
(120.00001 7.6744724e-05 0.0002326146)
(120.00002 4.5277681e-05 0.00018908795)
(120.00002 7.9894769e-05 0.00018089828)
(120.00005 0.00022305491 0.00052397781)
(120.00011 0.00017844349 0.00050560901)
(120.00004 9.9536048e-05 0.00032526694)
(120.00004 7.1364485e-05 0.00021971123)
(120.00012 0.00016218043 0.00037231674)
(120.00011 0.00014861382 0.00031629483)
(120.00029 0.00031020603 0.00062675852)
(120.00034 0.00036777843 0.00055289411)
(120.00032 0.00043944062 0.00045189876)
(120.00032 0.00045566604 0.00043491316)
(120.00034 0.00055664109 0.00036304193)
(120.00029 0.00063042747 0.00030572627)
(120.00029 0.00064894845 0.00029957901)
(120.0003 0.00070687163 0.00020095274)
(120.0003 0.00071037951 0.00013763249)
(120.00029 0.00074441348 2.8683959e-05)
(120.00029 0.00074730148 -7.938504e-05)
(120.00027 0.00076453644 -0.00017990445)
(120.00031 0.00082400871 -0.0002194917)
(120.00031 0.00071895808 -0.00032832995)
(120.0003 0.00066271777 -0.00029982879)
(120.00034 0.00057965181 -0.00035404471)
(120.00032 0.00047154021 -0.00042597612)
(120.00032 0.0004524342 -0.00044159042)
(120.00035 0.00038819044 -0.00053511746)
(120.00031 0.00032225878 -0.00058963323)
(120.00033 0.00030324478 -0.00058796108)
(120.00034 0.00018505934 -0.00065456657)
(120.00032 0.00013531668 -0.00069379047)
(120.00033 3.9476132e-05 -0.00073368475)
(120.00033 -3.7740679e-05 -0.00073380601)
(120.00033 -0.00013296725 -0.00069441772)
(120.00034 -0.00018135214 -0.00065604367)
(120.00033 -0.00029751893 -0.00059014543)
(120.00031 -0.00031439276 -0.00059389739)
(120.00062 -0.00057200713 -0.0010620358)
(120.00068 -0.00068187728 -0.000992474)
(120.00065 -0.0008017492 -0.00082642418)
(120.00065 -0.00082277386 -0.00080620598)
(120.00068 -0.00098856492 -0.00068627103)
(120.00035 -0.00053864875 -0.00037814926)
(120.00014 -0.00027360753 -0.00019851433)
(120.00011 -0.00028461114 -0.00015379698)
(120.00013 -0.00030361794 -0.00016623262)
(120.00013 -0.0003328921 -9.1663299e-05)
(120.00013 -0.00034273101 -6.8189956e-05)
(120.00013 -0.00036093298 -2.2027153e-05)
(120.00013 -0.00036100509 1.9926492e-05)
(120.00013 -0.00034283417 6.6369491e-05)
(120.00013 -0.00033202345 9.054816e-05)
(120.00013 -0.00030336968 0.00016614981)
(120.00011 -0.00028273928 0.00015507317)
(120.00014 -0.00027094048 0.00020316045)
(120.00012 -0.00022368801 0.00023967462)
(120.00012 -0.00022588385 0.00024418602)
(120.00014 -0.00018029655 0.00029796713)
(120.00012 -0.00013665335 0.00033410712)
(120.00014 -0.00018150354 0.0004311488)
(120.00005 -7.309615e-05 0.00025391622)
(120.00002 -5.9424895e-05 0.00026073239)
(120.00004 -6.758565e-05 0.00022318963)
(120.0001 -0.00010768348 0.00042447557)
(120.00012 -4.9272667e-05 0.00040106242)
(120.00011 1.3793845e-05 0.00038617539)
(120.00012 7.8257341e-05 0.00037630224)
(120.00012 0.00012235654 0.00038560986)
(120.00005 9.0930938e-05 0.00018854036)
(120.00004 0.000103334 0.00029714876)
(120.00009 0.00014748553 0.00047008268)
(120.00011 0.00020290621 0.00048499243)
(120.00014 0.00019355189 0.00057304307)
(120.0001 0.00013718313 0.00050911388)
(120.0001 0.00010658329 0.00054108283)
(120.00009 8.7316026e-05 0.00059785156)
(120.00003 4.8977068e-05 0.0004088265)
(120.00001 4.9582463e-05 0.00017140455)
(120.00002 3.3642167e-05 0.00017036969)
(120 1.1636329e-05 0.00019237438)
(120.00001 1.6894992e-05 0.0002158574)
(120.00002 -1.1398029e-05 0.00020557388)
(120.00001 -2.903025e-05 0.00024811102)
(120.00001 -3.7998355e-05 0.00025372783)
(119.99999 -4.6268347e-05 0.00022364684)
(119.99997 -5.2635633e-05 0.00015412485)
(119.99998 -0.00014421129 0.00014354004)
(119.99997 -0.00015476563 5.0650131e-05)
(119.99997 -0.0001544965 -5.2865414e-05)
(119.99998 -0.00014356077 -0.00014463024)
(119.99999 -0.00012500803 -0.00020865933)
(120.00001 -0.00010234848 -0.00023832577)
(120.00001 -0.00014792753 -0.00020820631)
(120 -0.000181542 -0.00018243655)
(119.99999 -0.0002077496 -0.00012606536)
(119.99999 -0.00022294466 -4.5901561e-05)
(119.99999 -0.00022309003 4.410745e-05)
(119.99999 -0.00020805485 0.00012523675)
(120 -0.00018191821 0.00018270911)
(120 -0.00012598633 0.00020868145)
(120.00001 -0.0001032738 0.00023833248)
(120.00001 -8.1040173e-05 0.00023189286)
(120.00002 -6.2128493e-05 0.00020774733)
(120.00002 -8.4771892e-05 0.00020126962)
(120.00001 -0.000117841 0.00020865726)
(120.00001 -0.00014860869 0.0002105952)
(120.00001 -0.00016979711 0.00017319312)
(120.00001 -0.0002072345 0.00014906572)
(120.00001 -0.00023759035 0.00010258103)
(120 -0.00025447316 3.5903808e-05)
(120 -0.00025443167 -3.7341462e-05)
(120.00001 -0.0002375932 -0.0001032829)
(120.00001 -0.00020746009 -0.00014876589)
(120.00001 -0.00020648252 -0.00011614487)
(120.00001 -0.00023713396 -7.8967213e-05)
(120.00001 -0.00025472784 -2.8858708e-05)
(120.00001 -0.00025471927 2.7716836e-05)
(120.00001 -0.00023700099 7.8313902e-05)
(120.00001 -0.00020602621 0.00011614835)
(120.00001 -0.00016093395 0.00013116633)
(120.00001 -0.0001199029 0.00012508192)
(120.00001 -0.00012804582 0.00016715346)
(120.00001 -0.00010403474 0.00017208661)
(120.00003 -9.7714071e-05 0.00012313613)
(120.00003 -9.369596e-05 0.00012517243)
(120.00003 -0.00017795975 0.00025640755)
(120.00006 -0.00026166043 0.00033596438)
(120.00006 -0.00028860758 0.00036923369)
(120.00003 -0.00020446629 0.00024666081)
(120.00006 -0.00034948019 0.00039749262)
(120.00006 -0.00028703928 0.00038774426)
(120.00012 -0.00034165152 0.00042924256)
(120.00022 -0.000586857 0.00074185709)
(120.00034 -0.00035336243 0.00057718345)
(120.00029 -0.00029874404 0.0006603414)
(120.0003 -0.0003265561 0.0007166493)
(120.0003 -0.00021747591 0.00082161421)
(120.00014 -0.00011977908 0.00051126228)
(120.00007 -0.00021104812 0.00062020874)
(120.00014 -0.00015935609 0.00055341607)
(120.00012 -0.00012801708 0.00056870315)
(120.00005 -7.1347069e-05 0.00040391283)
(120.00003 -6.9808207e-05 0.00037118716)
(120.0001 -8.3872648e-05 0.00057443381)
(120.00015 -0.00014019096 0.00063659646)
(120.00008 -0.00010945677 0.0005309708)
(120.00019 -0.00022990007 0.0010477647)
(120.00027 -0.00017726443 0.0007622177)
(120.00029 -7.6168708e-05 0.0007449703)
(120.00029 3.2575411e-05 0.00074218528)
(120.00029 0.00014180212 0.000707869)
(120.0003 0.00020527954 0.00070376917)
(120.00029 0.00030423374 0.0006459483)
(120.00058 0.00053903829 0.0010956154)
(120.00057 0.00057010602 0.0010938821)
(120.00065 0.00068043105 0.0010052972)
(120.00063 0.00080757891 0.00082822862)
(120.00063 0.00083397394 0.00080061732)
(120.00065 0.0010113563 0.00067348664)
(120.00058 0.0010994802 0.00056339899)
(120.00058 0.0011000964 0.00053208688)
(120.00061 0.001242178 0.00034051901)
(120.00058 0.0012533756 0.00023495504)
(120.00058 0.001299088 6.0333301e-05)
(120.00057 0.0013016722 -0.00010815992)
(120.00056 0.0013001244 -0.00028252415)
(120.0006 0.0013273882 -0.00036667705)
(120.00058 0.0011534889 -0.00054941532)
(120.00058 0.0011294634 -0.00056229242)
(120.00066 0.0010366233 -0.00066749032)
(120.00064 0.00085191546 -0.00079155771)
(120.00064 0.00082415348 -0.00081822909)
(120.00067 0.0006986413 -0.00098461157)
(120.00061 0.00058204959 -0.001056941)
(120.00063 0.00054313661 -0.0010452621)
(120.00065 0.00033544332 -0.0011870238)
(120.00062 0.000239981 -0.0012211328)
(120.00061 7.4718279e-05 -0.001263573)
(120.00061 -7.2857616e-05 -0.0012642631)
(120.00062 -0.00023712651 -0.0012224255)
(120.00066 -0.0003305871 -0.0011887209)
(120.00063 -0.00053562406 -0.0010480457)
(120.00103 -0.00086454501 -0.0016903417)
(120.001 -0.00093180336 -0.0016974209)
(120.0011 -0.0011188291 -0.0016114811)
(120.00107 -0.0013094584 -0.0013531643)
(120.00107 -0.0013482932 -0.0013152686)
(120.0011 -0.0016062766 -0.0011245834)
(120.001 -0.0016927113 -0.00093750562)
(120.00062 -0.0010584679 -0.00057631337)
(120.00031 -0.00059147511 -0.00031734218)
(120.00033 -0.00058834792 -0.00030053769)
(120.00034 -0.00065442423 -0.00018430704)
(120.00033 -0.00069288204 -0.00013584256)
(120.00033 -0.00073260407 -4.0678571e-05)
(120.00033 -0.00073250623 3.6541194e-05)
(120.00032 -0.00069270262 0.00013243123)
(120.00034 -0.00065380709 0.00018229084)
(120.00033 -0.00058747277 0.00030027049)
(120.0003 -0.00058927381 0.00031938566)
(120.00035 -0.00053477852 0.00038537297)
(120.00032 -0.00044116853 0.00044968235)
(120.00032 -0.00042554036 0.00046921753)
(120.00063 -0.00079068107 0.00084807996)
(120.00065 -0.00066628325 0.0010325671)
(120.00057 -0.00056046739 0.0011256552)
(120.00057 -0.00054673602 0.0011500009)
(120.00059 -0.00036358422 0.0013237332)
(120.00056 -0.00027850671 0.0012964569)
(120.00057 -0.0001033437 0.0012979831)
(120.00057 6.5908128e-05 0.0012953802)
(120.00058 0.00024104874 0.0012493916)
(120.00061 0.00034711133 0.0012373504)
(120.00099 0.00055535288 0.0019665895)
(120.00096 0.00086510462 0.0017311707)
(120.00094 0.00093187224 0.0017272374)
(120.00105 0.0011206691 0.0016248854)
(120.00102 0.0013169234 0.001354165)
(120.00102 0.0013622664 0.0013072719)
(120.00106 0.0016335433 0.0011111852)
(120.00095 0.0017350727 0.00092267516)
(120.00096 0.0017375469 0.0008555572)
(120.001 0.0019735177 0.00054629534)
(120.00094 0.0019907157 0.00038092713)
(120.00093 0.0020483945 0.00010691205)
(120.00092 0.0020514449 -0.00015188669)
(120.00092 0.0020264211 -0.00042670954)
(120.00098 0.0020346962 -0.00057465671)
(120.00096 0.0017775325 -0.00087239265)
(120.00095 0.0017604555 -0.00092969816)
(120.00106 0.0016557622 -0.001110689)
(120.00104 0.0013791934 -0.0013015456)
(120.00105 0.0013342803 -0.0013456976)
(120.00109 0.001137162 -0.0016034671)
(120.00099 0.00094260424 -0.001692242)
(120.00102 0.00087259924 -0.0016874841)
(120.00105 0.00055312178 -0.001921396)
(120.00099 0.00039327884 -0.0019501175)
(120.00097 0.00012496819 -0.0020035969)
(120.00097 -0.00012364452 -0.0020040386)
(120.001 -0.00039059262 -0.001951181)
(120.00106 -0.00054812809 -0.0019228726)
(120.0016 -0.00085251559 -0.00291952)
(120.00156 -0.0013101352 -0.002572805)
(120.00152 -0.001425685 -0.0025622434)
(120.00167 -0.001717689 -0.0024459611)
(120.00162 -0.001997221 -0.0020732818)
(120.00162 -0.0020671859 -0.0020043253)
(120.00167 -0.0024394955 -0.0017247871)
(120.00152 -0.002556379 -0.0014328024)
(120.00156 -0.002567721 -0.0013177257)
(120.0016 -0.0029145031 -0.00086054274)
(120.00105 -0.0019189487 -0.00055436225)
(120.00066 -0.0011859904 -0.00033512306)
(120.00062 -0.0012196443 -0.00024145906)
(120.00061 -0.0012618004 -7.7143357e-05)
(120.00061 -0.0012622548 7.0379662e-05)
(120.00062 -0.0012199984 0.00023550594)
(120.00065 -0.0011858821 0.00033091456)
(120.00063 -0.0010444258 0.00053831933)
(120.00061 -0.0010562391 0.00057752905)
(120.00067 -0.0009839621 0.00069414477)
(120.00064 -0.00081742503 0.00081968811)
(120.00104 -0.001344432 0.0013277338)
(120.00103 -0.0013001152 0.0013734901)
(120.00106 -0.0011088435 0.0016497783)
(120.00094 -0.00092704603 0.0017549118)
(120.00095 -0.00086868733 0.0017725076)
(120.00097 -0.00057040645 0.0020294199)
(120.00092 -0.00042122586 0.0020211221)
(120.00091 -0.00014533713 0.0020461004)
(120.00092 0.00011446482 0.0020429437)
(120.00094 0.00038923178 0.0019849129)
(120.00143 0.00059997498 0.0029806411)
(120.00151 0.00085354843 0.0029557192)
(120.00148 0.0013099398 0.0026062798)
(120.00145 0.0014275581 0.0025870109)
(120.0016 0.0017221371 0.0024576092)
(120.00156 0.0020067446 0.0020726077)
(120.00156 0.0020835243 0.0019939671)
(120.00161 0.0024692623 0.0017096385)
(120.00145 0.0025975044 0.0014154468)
(120.00149 0.0026149697 0.0012973948)
(120.00152 0.0029651056 0.00084166195)
(120.00144 0.0029886154 0.00058913503)
(120.00141 0.003063675 0.0001728208)
(120.0014 0.0030669432 -0.00021777393)
(120.00142 0.0030154563 -0.0006340465)
(120.00151 0.0030079934 -0.0008732432)
(120.00149 0.0026442572 -0.0013187896)
(120.00146 0.0026176461 -0.0014293732)
(120.00162 0.0024871785 -0.0017147494)
(120.00159 0.0020976608 -0.0019930776)
(120.00159 0.0020218793 -0.0020669906)
(120.00165 0.0017357276 -0.0024390711)
(120.00151 0.0014359462 -0.0025577838)
(120.00155 0.0013173663 -0.0025705282)
(120.00159 0.00085631807 -0.002918792)
(120.0015 0.00060609038 -0.0029478811)
(120.00147 0.00019304743 -0.0030200989)
(120.00148 -0.00019326471 -0.0030203574)
(120.00151 -0.00060482227 -0.0029486119)
(120.00222 -0.00089797149 -0.0042964823)
(120.00235 -0.0012673489 -0.0042583492)
(120.00231 -0.0019096844 -0.0037639816)
(120.00225 -0.0020918468 -0.0037236304)
(120.00245 -0.0025205392 -0.0035593767)
(120.00239 -0.0029161394 -0.0030387629)
(120.00239 -0.0030315323 -0.0029244583)
(120.00245 -0.0035516951 -0.002528896)
(120.00225 -0.0037165843 -0.0021002966)
(120.00231 -0.0037577667 -0.0019188883)
(120.00235 -0.0042520686 -0.0012772449)
(120.00222 -0.0042911423 -0.00090829059)
(120.00151 -0.0029443519 -0.00061299782)
(120.00099 -0.0019477194 -0.00039677784)
(120.00097 -0.0020009728 -0.00012973361)
(120.00097 -0.0020012796 0.00011873903)
(120.00099 -0.0019481148 0.00038663021)
(120.00105 -0.001919757 0.00054644991)
(120.00101 -0.0016863613 0.00086558805)
(120.00098 -0.0016911251 0.00093607546)
(120.00108 -0.0016024308 0.0011305779)
(120.00164 -0.0024375501 0.0017266045)
(120.00158 -0.0020651818 0.0020128098)
(120.00158 -0.0019910439 0.0020896746)
(120.00161 -0.0017122103 0.0024788548)
(120.00145 -0.0014258349 0.0026099579)
(120.00148 -0.0013139536 0.0026372893)
(120.0015 -0.00086770581 0.0030006858)
(120.00141 -0.00062694381 0.0030081421)
(120.00139 -0.00020929287 0.0030595587)
(120.0014 0.0001826391 0.0030561317)
(120.00208 0.00027648176 0.004426176)
(120.00213 0.00089009707 0.0043229381)
(120.00225 0.0012645326 0.0042863698)
(120.00221 0.0019091149 0.0037905048)
(120.00216 0.0020950014 0.0037422944)
(120.00237 0.0025273907 0.0035674039)
(120.00231 0.0029279356 0.0030355805)
(120.00232 0.0030498303 0.002911452)
(120.00238 0.0035825827 0.0025112915)
(120.00217 0.0037559599 0.0020794506)
(120.00222 0.0038019654 0.0018930644)
(120.00226 0.0042986936 0.0012493476)
(120.00214 0.0043335115 0.00087632958)
(120.00209 0.0044362455 0.00026408196)
(120.00209 0.0044393045 -0.00031229989)
(120.00213 0.0043531999 -0.0009235309)
(120.00225 0.0043276233 -0.001286166)
(120.00223 0.0038225483 -0.0019206554)
(120.00218 0.0037705285 -0.0020997401)
(120.0024 0.0035953555 -0.0025224554)
(120.00235 0.003060175 -0.0029165338)
(120.00236 0.0029388452 -0.0030340865)
(120.00243 0.0025368118 -0.0035545818)
(120.00223 0.0021003406 -0.0037206757)
(120.00229 0.0019147112 -0.0037629354)
(120.00234 0.0012684845 -0.0042587826)
(120.00222 0.00089636827 -0.0042962581)
(120.00217 0.00028589276 -0.0043973214)
(120.00218 -0.00028913036 -0.004397372)
(120.00313 -0.00041824954 -0.0062082468)
(120.0032 -0.0012883201 -0.0060640787)
(120.00337 -0.0018159259 -0.0060100686)
(120.00333 -0.0026916954 -0.0053266035)
(120.00325 -0.0029632737 -0.0052354776)
(120.00351 -0.0035670071 -0.0050057516)
(120.00344 -0.004109456 -0.0042967945)
(120.00344 -0.0042885459 -0.0041188498)
(120.00351 -0.0049968852 -0.0035764524)
(120.00325 -0.0052272384 -0.0029729003)
(120.00332 -0.0053191839 -0.0027024461)
(120.00337 -0.0060022135 -0.0018276639)
(120.0032 -0.0060572479 -0.0013008155)
(120.00313 -0.0062018387 -0.00043197972)
(120.00217 -0.0043924517 -0.00030015859)
(120.00147 -0.0030164915 -0.00020171457)
(120.00147 -0.0030167945 0.00018430172)
(120.0015 -0.002944908 0.00059684417)
(120.00158 -0.0029164491 0.00084698504)
(120.00155 -0.0025688244 0.0013077081)
(120.0015 -0.0025561526 0.0014269327)
(120.00222 -0.0037184181 0.0020882387)
(120.00242 -0.0035525177 0.0025245622)
(120.00234 -0.0030316537 0.0029266252)
(120.00234 -0.0029138753 0.003049361)
(120.00238 -0.0025191832 0.0035841248)
(120.00217 -0.0020952795 0.0037601643)
(120.00221 -0.0019146048 0.0038131453)
(120.00224 -0.001279226 0.0043177887)
(120.00211 -0.0009146261 0.0043433963)
(120.00207 -0.00030164404 0.0044294286)
(120.00301 -0.00042809309 0.0062325056)
(120.00302 0.00040242061 0.0062297943)
(120.00309 0.0012769591 0.0060843617)
(120.00326 0.0018101016 0.0060308662)
(120.00321 0.0026904619 0.0053471296)
(120.00314 0.0029671071 0.0052484668)
(120.00341 0.0035758541 0.0050095894)
(120.00334 0.0041235286 0.0042905687)
(120.00334 0.004308792 0.0041025803)
(120.00342 0.0050289842 0.0035554158)
(120.00315 0.0052659428 0.0029474438)
(120.00322 0.0053619043 0.0026702278)
(120.00327 0.0060467156 0.0017910141)
(120.0031 0.0060980697 0.0012597637)
(120.00304 0.0062429264 0.00038703274)
(120.00303 0.0062454533 -0.00044122403)
(120.0031 0.0061118576 -0.0013121093)
(120.00327 0.0060647528 -0.0018348765)
(120.00323 0.0053749494 -0.0027053732)
(120.00317 0.0052746472 -0.0029747843)
(120.00345 0.0050358444 -0.0035735569)
(120.00338 0.004314558 -0.0041147063)
(120.00339 0.0041290292 -0.0042944309)
(120.00348 0.0035803727 -0.0050039849)
(120.00322 0.0029688374 -0.0052348189)
(120.0033 0.0026931356 -0.0053274575)
(120.00336 0.0018128217 -0.0060121558)
(120.00319 0.0012821595 -0.0060645759)
(120.00313 0.00041023894 -0.0062084755)
(120.00438 0.00057139852 -0.0085052486)
(120.00438 -0.00058618969 -0.0085047132)
(120.00448 -0.0017898276 -0.0082979683)
(120.00469 -0.0025165062 -0.0082200652)
(120.00464 -0.0036679559 -0.0073045545)
(120.00455 -0.004059795 -0.007126379)
(120.00486 -0.004881147 -0.0068135618)
(120.00477 -0.0055984703 -0.0058772965)
(120.00477 -0.0058681914 -0.005608743)
(120.00486 -0.0068035493 -0.0048914686)
(120.00455 -0.0071168768 -0.0040703269)
(120.00464 -0.0072957974 -0.0036800512)
(120.00469 -0.0082102339 -0.0025300007)
(120.00448 -0.0082890575 -0.0018044787)
(120.00438 -0.0084961588 -0.00060280362)
(120.00438 -0.0084970816 0.00055291241)
(120.00312 -0.0062024681 0.00039538949)
(120.00217 -0.0043928595 0.00027425339)
(120.00221 -0.0042921491 0.00088406801)
(120.00233 -0.0042555989 0.0012559742)
(120.00229 -0.0037604372 0.0019017275)
(120.00329 -0.0053238801 0.0026759445)
(120.00321 -0.0052317827 0.0029528763)
(120.00346 -0.0050012859 0.0035641894)
(120.00338 -0.0042913132 0.0041128005)
(120.00336 -0.0041114134 0.0043001758)
(120.00343 -0.003569537 0.0050209272)
(120.00315 -0.002969367 0.0052608702)
(120.00321 -0.0026980105 0.0053624759)
(120.00325 -0.0018263951 0.0060517332)
(120.00308 -0.0013011822 0.0060989754)
(120.00434 -0.0018000519 0.0083221336)
(120.00425 -0.00059364794 0.0085214605)
(120.00426 0.00056589166 0.0085195085)
(120.00435 0.0017743935 0.0083125816)
(120.00456 0.0025078064 0.0082348696)
(120.00451 0.0036658543 0.0073200238)
(120.00442 0.0040640419 0.0071344276)
(120.00474 0.0048918324 0.006813262)
(120.00466 0.0056149946 0.0058677392)
(120.00466 0.0058907428 0.0055886448)
(120.00475 0.0068377588 0.0048661139)
(120.00444 0.0071565113 0.0040393816)
(120.00452 0.007338769 0.0036405332)
(120.00458 0.0082549648 0.0024839939)
(120.00437 0.0083300477 0.0017530996)
(120.00428 0.008536361 0.00054698354)
(120.00428 0.0085381664 -0.00060964838)
(120.00437 0.0083388519 -0.0018132445)
(120.00458 0.0082641278 -0.002536854)
(120.00454 0.0073452526 -0.0036848719)
(120.00446 0.0071592434 -0.0040749519)
(120.00479 0.0068381558 -0.0048923764)
(120.00471 0.0058912479 -0.0056088995)
(120.00472 0.0056142816 -0.0058782086)
(120.00482 0.0048907697 -0.0068157747)
(120.00452 0.00406131 -0.0071289182)
(120.00461 0.0036644198 -0.0073080699)
(120.00467 0.0025074972 -0.0082244396)
(120.00447 0.0017772637 -0.0082995663)
(120.00605 0.0023738937 -0.010959753)
(120.00595 0.00076799731 -0.011245573)
(120.00595 -0.00079155166 -0.011244469)
(120.00606 -0.0023946849 -0.010956445)
(120.00629 -0.0033619842 -0.010852312)
(120.00624 -0.0048046013 -0.0096765207)
(120.00615 -0.0053598966 -0.0093520461)
(120.00647 -0.0064408403 -0.0089446506)
(120.00637 -0.0073481017 -0.0077591551)
(120.00637 -0.0077492816 -0.0073589987)
(120.00647 -0.0089334347 -0.0064517133)
(120.00615 -0.0093411548 -0.0053709519)
(120.00624 -0.0096661214 -0.0048177124)
(120.00629 -0.010839933 -0.0033770564)
(120.00606 -0.010944698 -0.0024114278)
(120.00595 -0.011232738 -0.00081135405)
(120.00594 -0.011234198 0.00074514278)
(120.00604 -0.010949555 0.0023482647)
(120.00446 -0.0082922256 0.0017570658)
(120.00318 -0.0060591137 0.0012662701)
(120.00335 -0.0060079407 0.0017964717)
(120.00466 -0.0082187554 0.0024864328)
(120.0046 -0.0073030272 0.0036418815)
(120.0045 -0.0071248299 0.0040404108)
(120.0048 -0.0068122833 0.0048695642)
(120.0047 -0.0058742942 0.0055929193)
(120.00469 -0.0056049162 0.0058722898)
(120.00476 -0.0048875669 0.0068185004)
(120.00443 -0.004068572 0.0071411187)
(120.00451 -0.0036761173 0.0073288874)
(120.00455 -0.0025267133 0.0082471118)
(120.00614 -0.0033725409 0.010867196)
(120.00591 -0.0024029296 0.01097122)
(120.0058 -0.00079659263 0.011254301)
(120.00581 0.00076554375 0.011253353)
(120.00591 0.0023745577 0.010966295)
(120.00614 0.0033503086 0.010862511)
(120.00609 0.0048016647 0.0096879101)
(120.006 0.0053646878 0.0093560271)
(120.00633 0.0064537463 0.0089406692)
(120.00624 0.0073678669 0.0077462161)
(120.00624 0.0077750855 0.0073347529)
(120.00634 0.0089713216 0.0064214796)
(120.00602 0.0093836537 0.0053337853)
(120.00611 0.0097113653 0.0047699388)
(120.00617 0.010887595 0.0033206926)
(120.00594 0.010988174 0.0023482528)
(120.00584 0.011274595 0.00074238834)