/*--------------------------------*- C++ -*----------------------------------*\
  =========                 |
  \\      /  F ield         | OpenFOAM: The Open Source CFD Toolbox
   \\    /   O peration     | Website:  https://openfoam.org
    \\  /    A nd           | Version:  7
     \\/     M anipulation  |
\*---------------------------------------------------------------------------*/
FoamFile
{
    version     2.0;
    format      ascii;
    class       volScalarField;
    location    "40";
    object      nut;
}
// * * * * * * * * * * * * * * * * * * * * * * * * * * * * * * * * * * * * * //

dimensions      [0 2 -1 0 0 0 0];

internalField   nonuniform List<scalar> 
25278
(
7.3423914
8.011194
7.4744726
7.4737329
8.068328
8.0104008
7.8398314
7.3427985
7.8393837
8.7539288
8.3410504
7.7600247
7.8930669
7.9487817
8.273355
7.4752721
8.0130347
8.628486
8.157336
8.9257487
8.9432238
8.8480017
8.5191426
8.4939558
9.0450217
8.4930654
8.5186526
8.9860374
9.0646166
9.1973654
9.2102591
9.0331008
8.7033336
8.9337759
9.100703
9.070541
9.1814794
9.1107199
8.9960348
8.7125395
8.8783849
8.9943671
8.8521884
8.9691096
9.2183194
9.3228473
8.8742188
9.036778
9.291878
9.1433401
9.0846493
8.854111
8.194165
8.4183117
8.9004539
9.0309542
8.9430297
8.8077988
8.3867741
8.5486948
8.6951034
8.5504383
8.4290991
8.8805003
8.7331668
8.6895084
8.838103
8.3582309
8.1815056
8.2585918
7.694515
7.9093647
8.1552292
8.4034496
8.647573
8.8445568
9.1007039
9.1968634
8.8462114
8.7763335
8.6094975
8.2763307
8.630627
8.171034
8.7763026
8.5528091
7.737236
6.8025019
7.3384606
7.9314383
8.062922
7.440523
7.3308567
6.3479131
6.5030248
7.4478687
7.6721972
8.2593641
8.4052158
7.8130892
7.6631609
6.6939515
6.9284232
7.8230946
7.2327637
7.1112433
6.8991377
5.5217205
5.4151767
4.7400222
6.3833454
6.4324355
4.7519117
4.7883309
5.6635613
5.843004
4.8433432
6.709159
6.6358904
6.6296234
8.1656579
8.7751387
8.0679985
7.3082994
6.3245922
5.3983556
4.7326613
6.3781945
7.7317269
8.5515303
8.6064361
8.7742741
8.6229886
8.2672148
7.3222313
6.7894956
6.8848282
6.4268453
4.7428466
5.5029371
5.6421206
4.7773714
4.8294395
6.7010683
7.2153752
7.0961758
7.6552887
7.4309983
6.478298
7.416918
8.2584172
7.915601
8.047495
8.2450118
8.6157901
8.3915932
7.8053474
6.9004699
5.8177889
4.1287978
2.6924128
2.7041271
4.1472782
5.8032398
7.2011875
7.0859146
6.5920933
6.6549637
4.7489639
4.7119649
5.6313134
4.0980684
2.8150974
2.6274196
1.2534685
1.4798523
2.8760744
2.8673305
1.4894049
1.2657916
2.6430134
2.8211682
4.0824638
5.601084
6.6678703
7.6399205
7.789157
7.166739
5.7694027
4.7150464
4.6814959
6.5499537
8.1319123
7.0539207
6.6076869
6.8958145
4.7704289
2.4571634
1.0695572
1.0548986
2.4304981
4.8097646
6.94746
7.4897334
8.1082529
8.6268623
8.9349996
9.0644581
9.0344192
9.210918
9.0725796
8.7087992
8.8822815
8.9973035
9.1825715
9.1140605
8.9998818
8.7207206
8.8589837
8.9742698
9.1090214
9.2524197
9.2568981
8.8734404
9.2720401
9.3093789
9.3718384
9.3643698
9.3229281
9.2678561
9.3175056
9.1806004
9.0656385
9.2745887
9.2207947
9.1543132
9.2928862
9.0354129
8.9405549
8.9296556
9.1455183
8.9077834
8.433142
8.5627637
8.7076298
9.0368572
8.9519589
8.8179277
8.4074027
8.5689623
8.452096
8.8910316
9.0875475
8.8591646
8.2158155
8.7457346
8.2840165
8.2064992
8.7012291
8.8478081
8.3806776
8.5361514
8.6026829
8.7099675
8.8359365
8.9427396
9.2185636
9.1541598
9.0823929
9.028177
9.2593437
9.3399244
9.357567
9.296862
9.3460356
9.37129
9.3974853
9.2896186
9.2563672
9.137474
9.1906387
9.0900346
9.3308363
9.2852251
9.2449353
8.9242733
9.0249722
8.8728402
8.9467049
9.0241853
9.0932191
9.1661294
9.3104354
9.2728483
9.2572453
9.2528488
9.26747
9.3177153
9.2733836
9.0624243
9.179941
9.1074687
8.9206938
9.0514063
9.0116975
8.9354763
8.8767583
8.8118295
8.5653513
8.790463
8.4928199
8.3433069
8.0135866
8.2149307
7.7921155
8.2018618
8.497345
8.7949965
8.6527088
8.1183194
8.3483546
8.0291919
8.4155733
8.5761876
8.2290894
7.8049047
7.5848058
8.0161286
7.2284811
7.5712013
6.9982004
7.2590775
7.7546492
7.9692922
8.1825445
8.3576822
8.5267471
8.6758543
8.7434601
8.6331078
8.7845292
8.7170239
8.552505
8.3836605
8.467564
8.605249
8.6596867
8.7588913
8.6704179
8.8086567
8.8503391
8.9747037
8.8906741
8.8509101
8.6976734
8.7479691
8.5922298
8.7204258
8.5651865
8.5140165
8.4397269
8.2848893
8.1874675
7.9796755
8.0785418
8.2751946
8.3801625
8.6635593
8.9238136
9.0134691
8.7618348
8.6782188
8.8150224
8.9399181
8.8820855
8.8182126
8.6841041
8.7506682
8.6444874
8.7934076
8.7271483
8.5652409
8.3989668
8.5362083
8.6139065
8.4495821
8.3678948
8.2053779
8.3014765
8.4816867
8.549345
8.7077546
8.8584921
8.8969322
8.9781331
8.8556267
8.7567587
8.6037926
8.7272254
8.57321
8.5228495
8.3747574
8.43379
8.486434
8.6313017
8.8693107
8.9185111
9.1407309
9.0850196
9.0484796
8.931297
8.9056755
8.801652
8.8374636
8.9716363
9.0137182
9.0338866
9.1052557
8.9937868
8.9715843
8.8744146
8.9057461
8.768549
8.8785983
8.8486379
8.8104592
8.7775867
8.6514603
8.6922666
8.5318455
8.6647806
8.7110843
8.7418189
8.6180825
8.5766113
8.7317372
8.6191295
8.7840422
8.9458438
8.9025446
8.7441054
8.7036246
8.6564009
8.8218768
8.7787932
8.711243
8.6372042
8.3510643
8.1773836
7.5239086
7.6910004
7.8934044
7.5292843
8.1292087
7.9433484
7.3057003
6.5429194
7.1032144
6.0826841
6.3526858
6.5808376
7.3151023
6.7417332
5.7514269
5.5352861
4.7227816
5.9906217
6.9643113
7.7382149
7.0056391
7.6093756
7.7966595
7.9264009
7.1676419
6.9169326
6.7168328
5.5800118
4.9240836
4.018303
4.0012552
4.7989102
6.1218598
5.6549229
6.2470596
6.4629793
6.7405878
7.0202663
7.3044478
7.5555993
7.7926436
7.9979994
8.191882
8.2842252
8.0700021
7.9754316
7.7457014
7.8590746
8.0958831
8.1754529
8.3613786
8.5142824
8.3531973
8.4111009
8.2247416
8.4197376
8.3592253
8.5362899
8.3998616
8.5880895
8.7680052
8.9354667
9.2156347
9.1493762
9.0755625
9.1489841
8.8169961
8.6939376
8.8254255
8.6232448
8.3299711
8.0961384
7.4746173
7.8617876
7.6591818
7.2512139
6.8907397
7.0913262
7.8832999
7.7524696
7.5643412
6.6374215
6.8345054
5.519781
6.0042842
6.6649338
7.2764695
7.066273
6.0353549
6.4710535
5.4587742
6.3244432
6.5489132
5.6673206
4.6535629
4.5952477
5.8845506
5.4593291
3.8580948
3.8203667
4.4234646
5.2924774
6.1176003
6.7621738
7.3243233
7.7501467
8.1158401
8.5165856
8.9821289
9.2583524
9.3412887
9.3581533
9.3649725
9.3724665
9.3985932
9.3721738
9.3456381
9.135971
9.2567493
9.290442
9.1906411
9.0883601
9.3312361
9.2956048
9.2418969
9.2845365
8.9971726
8.9157897
9.0207022
8.8651777
8.9416363
9.0213911
9.092168
9.1408446
9.0839476
9.0466093
8.9679161
8.8315749
8.9278103
8.9013828
8.7943152
8.6415192
8.7717084
8.8671843
8.9172806
8.8448712
8.9692049
8.9923334
9.1050423
9.0325176
9.0109574
8.8699488
8.9027117
8.763382
8.8758319
8.7379815
8.706106
8.658836
8.8055553
8.683808
8.5210671
8.473887
8.6240883
8.4701403
8.6227021
8.6993795
8.5622709
8.5128081
8.3370476
8.2838342
8.064918
8.2785015
8.2100994
8.1521846
8.063671
7.8431706
7.7290031
7.463017
7.5754735
7.8605402
7.5859373
7.4739207
7.1367126
7.2658281
7.3598666
7.6661814
7.92908
8.1589133
7.9479065
8.1894388
8.1106039
8.326129
8.5193711
8.6986046
8.6010759
8.5226176
8.3084791
8.4355148
8.2386345
8.0809011
8.1759391
8.4016576
8.4747973
8.6761851
8.7230987
8.8125462
8.6429269
8.5339349
8.4204798
8.6437932
8.5922306
8.5142473
8.4296463
8.3305953
8.4165726
8.1557212
8.2796479
8.1855744
8.053438
7.7467201
7.9191018
8.0141139
7.8459284
7.4772656
7.705212
7.9179843
7.8059883
8.0115445
7.762872
7.8628198
7.6188748
7.510057
7.149146
7.4686847
7.5798865
7.2752586
7.3670518
7.7071902
8.0009381
8.2535664
8.3189636
8.4602509
8.2551891
8.0719826
7.8675544
8.1662619
8.0960782
8.3567561
8.2363704
8.4994935
8.553428
8.303869
8.0049026
7.9303936
7.5650319
7.7915801
7.4325112
7.3419309
7.2409893
7.5974115
7.3591954
7.1383014
7.5840685
7.9361206
8.2466761
8.5825621
9.019618
9.1008819
9.066841
8.6554571
8.7158043
8.8261603
9.1996131
9.2505854
9.2262723
9.1710726
8.7724868
8.8749037
8.9206989
8.6635717
8.7252807
8.7992017
8.8668028
8.9414695
8.8965625
8.8155344
8.7814644
8.5878163
8.6921807
8.734654
8.6352777
8.6827089
8.7765757
8.8147013
8.9679268
8.8962685
8.726464
8.6370874
8.834591
8.7655566
8.5461161
8.4880033
8.5862825
8.5326141
8.7443782
8.7049776
8.6206313
8.6637049
8.4272202
8.3678964
8.479212
8.2307001
8.3773607
8.5132881
8.5616119
8.4320322
8.1989634
8.3680554
8.313641
8.1366321
7.9389936
8.009832
8.2924598
8.1446723
8.0751961
7.722153
7.6444098
7.4133337
7.8430816
8.1911842
8.4799472
8.4224467
8.3370614
8.2583439
8.1675135
7.8257771
7.932261
8.036726
8.1200908
8.0173827
8.3469256
8.4059601
8.0907668
8.0156707
8.3593537
8.2984847
8.2085104
8.1791606
8.0864051
7.7079533
7.8143215
7.854366
7.9404663
7.9009081
8.2701512
8.3314744
7.9766119
7.5212052
7.5811499
7.6951713
7.616067
7.7654207
7.6791612
7.5298898
7.4337501
6.9187785
7.0315182
7.2455108
7.3322118
7.1149503
7.195
7.0211963
6.9433134
7.5012577
7.4156485
7.3562124
7.2650274
6.6714866
6.7745726
6.8638823
6.1739132
6.4182052
6.7202391
7.0382379
6.9355345
6.4103663
6.813746
6.9240397
6.5289742
6.613518
7.1268183
7.2091785
7.5131972
7.7836188
8.0192113
7.7460699
7.9997049
7.7425127
8.0171718
8.2156495
8.4186657
8.2398696
8.0140018
7.9441317
8.1579227
7.9490573
7.6763575
7.7521868
7.4412122
7.5174173
7.8128273
8.0835815
8.2834601
8.4768395
8.5187692
8.3272414
8.1359756
8.3489782
8.2974596
8.0777993
7.8219687
7.8879555
8.1393043
8.32277
8.1241611
8.1838683
8.3894856
8.5675369
8.7248989
8.6079894
8.6524595
8.5373911
8.4852616
8.2604258
8.4208807
8.472363
8.6108623
8.4391059
8.6011664
8.4234986
8.3825159
8.199554
8.3862151
8.5671182
8.6051459
8.426518
8.2488002
8.4473632
8.3996569
8.1937972
7.953733
8.0178115
8.2519288
8.0117132
8.240379
8.0230236
8.265086
8.2055946
8.1451801
8.0837929
7.8552027
7.9255034
7.6048026
7.8856543
7.8169181
7.5261838
7.4483399
7.0986562
7.0149477
6.5442483
6.9801939
7.3500872
7.6691628
7.2561602
7.1493133
6.7711004
6.8859563
6.4555303
6.8905902
6.7732424
6.323815
5.8477075
6.3605503
6.4541001
5.9608784
5.8720536
5.2595836
5.3615492
5.9480982
6.0341667
6.5497395
6.9866725
7.0723856
7.4318287
7.0650807
6.6369277
6.116955
6.628461
6.1134084
6.6949847
6.7814427
7.2929865
7.5914934
7.6716959
7.3823618
7.8018122
7.8850653
8.2151205
8.3540598
8.4152603
8.2864193
7.9713482
8.1547592
8.3215592
8.0680964
7.9963706
7.6855396
7.954447
7.6625626
7.9463839
7.8795324
7.592001
7.6670466
7.7421508
7.412546
7.7405983
7.4178516
7.7682882
7.465456
7.8414625
7.7550323
8.08164
7.4788978
7.5818489
7.1045178
6.9855311
7.3654797
7.2709538
7.1826024
6.7156437
7.1484562
7.5087937
7.5851207
7.2343405
6.816236
7.238552
7.1549482
6.7241954
6.2045349
6.3013296
6.8098971
6.2951685
6.877649
6.4282053
7.0654133
7.5829896
7.9949443
8.3249359
8.5979601
8.5499705
8.4805602
8.5316293
8.2329714
8.1631663
8.2596924
7.9183855
7.7742185
7.8562466
7.3721951
7.2792647
7.4953389
6.9690822
6.8833445
6.8031936
6.4907826
6.5641473
5.7907158
6.2475245
6.1756957
6.1049448
6.0192018
6.6359287
6.3412488
5.6048979
5.687192
5.7367326
5.3631041
6.2355222
6.2997029
6.1524557
6.927476
6.8513332
7.441155
7.4480036
7.9052973
8.2728306
8.6587292
9.0681728
9.2598715
9.0382532
8.9445907
8.6356517
8.1626539
7.6801531
8.2679964
7.6747395
7.0988475
6.5989267
6.6637961
7.2161148
5.8248856
4.765128
4.724712
5.6497484
6.7065971
6.9396305
7.8236196
8.4121199
8.6370643
7.8282162
7.2341199
5.8506859
4.1692
2.6450332
2.8287955
4.1169614
2.8925161
1.493325
1.2684988
2.7218156
4.8493461
4.7974399
5.6742266
7.1170699
8.1750675
6.6407725
7.0488663
5.5912274
4.0775542
2.8778636
1.4904628
1.2665899
2.7043794
4.1216345
2.627253
2.8100655
4.6704385
4.6995673
5.756367
7.1599517
8.1308751
6.5449459
6.6011084
6.8884247
4.7495043
2.4358776
1.0701261
1.0710437
2.4518975
4.8307767
6.9581068
8.1985301
8.8558996
9.0864772
9.147446
8.9302067
8.4270826
8.8145731
8.7382806
8.6911438
8.8397342
8.885512
8.4378091
8.3614063
8.1842986
8.2671827
8.3974101
8.5611519
8.9496019
9.0378014
8.9076097
8.5588548
8.7051259
8.8351115
9.1559091
9.2955086
9.3612419
9.3423074
9.1723645
9.2272544
9.2535751
9.2034591
9.1051973
9.0243661
8.9836736
8.51987
8.5911579
8.7238689
8.8330479
8.7753159
8.877159
8.9260631
9.0035431
9.2884595
9.2468623
9.1545577
9.0817676
8.7044546
8.8264385
8.9435821
9.2211875
9.3004224
9.3353506
9.0940094
9.0277567
8.923747
8.6343978
8.5634605
8.4918955
8.4437799
8.4119622
8.4094482
8.4357145
8.4896592
8.4644087
8.1273935
8.1634451
8.0903015
8.0525309
7.6030438
7.6620653
7.7477639
7.6903083
7.1073993
7.2005996
7.1053256
7.0111591
6.2244121
6.3762255
6.6471305
6.7454239
5.9491265
5.8589756
6.3297579
5.5931028
6.1976244
5.5726654
5.4954207
5.4277274
6.0373437
5.469023
5.4168988
5.374948
4.8489354
4.8634122
4.0089969
4.7025803
4.6659911
3.9957304
3.448718
3.3754495
4.3785297
5.3377078
5.1375631
6.039838
5.9899124
5.0985972
4.1582982
4.086573
2.9664651
3.0693578
2.135219
2.6048571
3.2628739
4.0199413
4.6924593
5.3384728
5.8727698
6.3720549
6.7894742
7.1757514
7.498766
7.6099603
7.8919551
8.1364204
8.3475434
8.5360944
8.4536077
8.333486
8.5415972
8.6183581
8.4248732
8.4961407
8.6031159
8.4195158
8.4782552
8.2777502
8.2135999
8.0372874
8.2820452
8.2060475
8.1123862
8.2610515
8.0382658
7.8453388
7.9556926
7.7575728
8.0546559
8.3100942
8.5361453
8.4533257
8.2177194
8.0934022
8.3593918
8.4437911
8.1935443
8.2723623
8.3853085
8.6123024
8.6917366
8.736795
8.5531426
8.345162
8.1060194
7.9161023
8.2025609
8.4465518
8.6617895
8.8293054
8.7322451
9.1070989
9.0724441
8.989945
8.9886961
9.2584298
9.0350076
8.0106638
7.4747396
7.3439319
7.8405684
7.9491844
8.5182491
8.8448034
8.9398787
8.8574922
9.0862293
8.6994625
8.2113774
8.2036257
8.3778269
8.8457827
8.8865555
8.7407496
8.2761633
8.4446711
8.559758
8.9466016
9.1426207
8.9259756
8.4244709
8.8123274
8.3974797
8.5523276
8.9013317
9.031321
8.6981606
8.8279862
8.7017052
8.5957996
8.5334408
8.6690698
8.671403
8.7837526
8.8378046
9.2034322
9.2516453
8.9271151
9.001644
8.8095145
8.8739972
8.8249081
8.793019
8.6046187
8.6494959
8.6941999
8.7353189
8.8200271
8.9706956
8.9013113
8.8422092
8.6499278
8.6028008
8.5525834
8.7572918
8.7205822
8.5025261
8.3981576
8.6408661
8.5764729
8.5247539
8.4515136
8.3680766
8.2793847
7.9822118
8.0812761
7.9810107
8.2919573
8.2028763
7.8762125
7.5030747
7.6461536
7.7992197
7.9606048
7.6503416
7.4282984
7.5455606
7.8975961
7.9805899
8.134743
7.8424254
7.6322969
7.7095952
8.0521908
8.3372118
8.2313006
8.5066919
8.4353391
8.3785867
8.0643664
8.162722
7.8262641
7.7411462
7.3293126
7.2210593
7.0134945
7.127259
7.5991527
7.6844264
7.761288
7.9011616
7.4953846
7.4158609
7.2114442
7.2908136
7.1228212
7.6497699
8.0610297
8.1351684
8.2038641
8.2962606
8.5736374
8.6180922
8.6807427
8.4534098
8.5098924
8.7389706
8.7758676
8.5633784
8.3139093
8.4352957
8.5509668
8.6610382
8.4845551
8.4360309
8.3859676
8.5749451
8.5290537
8.3340069
8.168054
8.4008881
8.4525181
8.2267531
8.2843577
8.5023219
8.378837
8.3217261
8.263704
7.9841909
8.050697
7.858236
8.1836271
8.1187783
7.7835792
7.3759845
7.6503784
7.8943135
8.1081073
8.0454659
7.9755965
7.6984806
7.7740312
7.4959162
7.8252877
7.7506467
7.6634165
7.3245081
7.1985746
6.8198948
6.9351464
7.2826095
6.90771
6.497148
6.3646001
5.9175614
6.4358578
6.8857195
6.9979551
7.4058648
7.124385
6.6317109
6.5102606
5.9806922
6.0744511
6.5323895
6.0220724
5.474203
5.366589
4.8099775
5.5164407
6.145844
6.2385288
6.8287796
6.5453021
5.8476473
5.7564749
5.0221458
5.0506433
5.5686744
4.8580934
4.2044878
4.1769613
3.653056
4.6152481
5.4571554
5.5133425
6.3101644
6.9646932
7.4873672
7.904139
8.2423592
8.1513122
7.8013076
7.7560032
8.119362
8.2101179
7.8605455
7.9453524
7.9885055
8.3302473
8.388867
8.3581705
8.2989629
8.2971742
8.2079658
8.1173069
7.791737
7.6047084
6.9962416
6.7098094
6.9086549
7.1470369
7.9139192
7.7260055
6.9448952
5.9637656
5.5692786
4.9064434
4.0034604
3.9828395
5.6417791
6.0909175
4.7587554
4.688406
5.4956635
6.510131
7.2816584
7.9279352
7.5053164
8.1615412
8.3355671
8.1133718
7.5038588
7.8690794
7.6665503
7.070733
6.0521593
6.3128922
6.5376378
5.7059189
6.7050488
7.2805869
7.5221494
7.2691544
6.984485
6.7069173
6.4346372
6.2275046
6.1079305
6.1146239
6.7661259
6.8611254
7.3954952
7.3325787
7.4236663
6.8703665
6.9479587
7.0452404
7.5720455
7.5076191
7.5852079
8.0185125
8.0908026
8.1319888
8.4618522
8.5065463
8.5537122
8.268636
8.3566829
8.4191976
8.6795753
8.7216802
8.4793454
8.4026976
8.6663254
8.6203016
8.3363306
7.9921749
8.1165151
8.2485804
7.9346986
8.1172685
8.1842584
8.3412059
8.0942037
8.2804322
8.2242298
8.1668199
7.9096146
7.8431149
7.5716265
7.6468477
7.9610002
8.027543
7.7230416
7.9752937
8.0404554
7.800224
7.4533135
7.7577037
7.6825185
7.6076266
7.5331884
7.4573721
7.3763285
7.0038304
7.0893145
6.6795863
7.1139204
7.0294133
7.4156239
7.0894548
7.4958284
7.5747937
7.1725198
6.8016103
7.2947775
7.2133674
6.7187929
6.1558281
6.6243274
6.7094494
6.1951217
6.1103755
6.5921171
6.1045478
6.5743362
6.4769342
5.9853294
5.4731774
6.0104964
5.8980011
5.6734008
5.4945155
4.2484448
4.4528891
4.5843446
3.4946001
4.6418756
4.5067838
3.377275
2.3017693
3.362877
3.306822
2.1598116
2.3858021
1.3793453
1.2024256
2.2598016
1.402434
2.3263241
3.432883
3.4772568
2.5248177
2.3613909
1.4810167
2.5442487
2.3317957
1.3108391
0.7436771
0.8652221
1.5010319
0.8187417
0.69857019
0.45880957
0.52479641
0.53152283
0.82924385
1.3930514
2.4024514
3.8757778
5.4734105
6.6464805
7.5697188
7.7585573
7.898403
7.7077765
6.913461
7.1174425
6.8456576
5.5382863
6.0451154
5.9172892
4.6370617
4.7060169
3.8437806
4.173336
5.1117966
6.0003637
6.6791323
7.2706436
7.711758
8.0889712
8.1815822
8.2170217
8.1238353
7.7617632
7.8665422
7.8183202
7.362318
7.4330681
7.3401159
6.7847389
6.8887388
6.7834172
6.8613696
6.9384637
7.5281129
7.9810626
8.3338736
8.3676289
8.3067354
7.9530155
8.0283266
8.1089311
8.4176872
8.3590642
8.2704218
8.1794562
8.2612534
8.3518473
8.0574562
7.9497335
7.8425699
7.9561615
7.6107818
7.4568679
7.5548431
7.7075715
7.2839226
7.0660694
6.9503231
7.1739457
7.3945493
7.7735666
8.0741362
8.3458054
8.113117
7.9251584
7.50628
8.1693295
8.3444357
7.8826991
7.5017844
7.2760986
7.6788331
7.0908991
6.5047158
6.061372
5.4987124
5.7148197
6.7042433
7.3034742
6.577766
6.3500563
7.0111039
7.586014
8.0268041
8.4138506
8.7208735
9.0025057
9.2147662
8.851706
8.8774282
9.3268989
9.3687277
9.2759037
9.0485934
9.2609476
9.2014945
8.9905514
9.0698418
9.0385393
8.7107384
9.0765714
9.1062462
9.1869356
9.1166839
8.8598998
9.0010114
8.8853659
8.6549533
8.8490987
8.7974223
8.5753372
8.2276885
8.5004633
8.3514079
8.1182921
8.6330082
8.9411153
8.1215724
7.2389646
8.0235412
8.208511
7.8063605
7.2712569
7.8077576
7.5887124
8.0296166
8.3522417
8.500499
8.7973045
8.6555551
8.4156898
8.5756699
8.2285479
8.3685395
8.6664396
9.05539
8.9266969
8.8197346
8.9760736
9.2239518
9.2782732
9.3219724
9.2571341
9.2722606
9.1135759
9.1850262
9.0685391
9.1412969
9.3499597
9.375745
9.4017696
9.3133181
9.3760741
9.2609528
9.2939092
9.1950779
9.0174378
8.9491262
8.8761433
8.8097443
8.7365475
8.6745431
8.611945
8.5699117
8.5419817
8.5397841
8.5630352
8.6024135
8.652946
8.7095037
8.458057
8.3924094
8.3064284
8.3786978
8.3184824
8.6169707
8.5954375
8.2868471
8.206989
8.241078
7.8399859
7.9431543
8.0742209
8.1559152
8.0340857
7.5874147
7.7770627
7.676983
7.475034
7.3089389
7.4296684
7.9375697
7.8861403
7.7850004
7.2179283
7.3425635
6.5779775
6.7305998
6.9956682
7.2936621
7.1736748
6.8616394
6.0668254
6.5456317
6.6823961
6.2144948
5.755143
5.613744
6.589172
6.4714147
6.3168656
5.2524188
5.511124
5.4406288
5.3939163
5.1627404
5.147055
6.094122
6.108738
6.052362
6.2081182
6.1470366
5.3313206
5.383354
5.1539812
5.1670661
5.1869552
6.1690333
6.3442948
7.0506495
7.6003454
7.519703
6.9703778
7.1525035
7.6422358
8.0352974
8.1410711
8.4368615
8.4939657
8.2118704
7.8727836
7.7221752
7.2348998
7.4554359
7.3727535
7.7947779
7.9591496
8.2572172
8.5144914
8.4316892
8.5288404
8.4442775
8.2050125
8.2989957
8.1763345
7.8739523
8.0393863
7.9436112
7.6288046
7.7374845
7.5139259
7.6032279
7.6832571
8.033162
8.3242157
8.5677544
8.6574467
8.6061874
8.375902
8.4389587
8.5495877
8.7351037
8.6888732
8.6141319
8.5361577
8.6349291
8.7100372
8.533259
8.4183936
8.3253748
8.449769
8.2557255
8.101899
8.1970551
8.3429876
8.1309976
7.9442052
7.832151
8.0318964
7.7859947
7.5407274
7.2785777
6.9790343
6.6813627
6.3825154
6.4652085
6.770683
6.1687807
5.7482463
5.6573027
6.0755739
5.4396779
4.9100994
4.4685679
4.4338537
4.1054191
2.9822544
3.0827699
3.4959906
3.4329288
3.3567128
4.4177534
5.4174705
6.2745894
6.5434467
6.6221802
6.9421308
6.8580584
6.2469652
5.807713
5.8721763
5.4591553
4.4094776
3.9967845
3.9671776
4.321936
4.8968167
5.5245523
4.7669362
4.7326701
3.9842681
4.8773883
4.3488649
4.0256458
2.8250672
3.2838074
3.1869278
3.9617942
3.9476165
4.9312772
4.9885287
5.6818461
4.879982
5.6650925
5.7756734
6.4088756
6.913011
7.3242782
6.9137973
7.3245742
6.934788
7.3385189
7.2539279
7.1713514
6.7664119
7.1958018
7.2790415
6.8565848
6.9512847
7.3648711
6.9854716
7.427177
7.8033887
7.7259133
7.3387355
7.2542121
6.8872915
6.9800364
7.4602914
7.5495198
7.6427712
7.8823741
7.5188966
7.1890886
7.0807431
6.5281432
6.4190381
6.8873501
6.7957734
6.2833915
6.3792297
5.797198
5.7016403
6.3218483
6.2355435
5.6195201
5.5463868
4.8993062
5.6305327
6.314976
6.9141819
6.9950104
6.3915547
5.9699353
6.6983832
6.6222379
5.906787
5.0801768
5.1169
5.6954162
4.9461301
4.1969771
4.197236
3.5258826
4.5770946
5.5506538
6.3773704
6.4457077
5.5938904
5.3537477
6.2911579
7.0232672
7.1039571
7.2042943
7.3720236
7.5740157
7.9724836
8.0435664
7.6558482
7.4591519
7.9123929
7.8360338
7.726709
7.8066211
8.1999915
8.5117107
8.4841892
8.4329147
8.4312976
8.7818784
9.1734113
9.1743138
9.2265716
8.8808265
8.5810122
8.6304733
8.342727
8.2717617
8.2347311
8.5555531
8.6067917
8.30811
7.9237678
7.979816
8.0745371
8.1906532
7.8323134
8.0129993
8.0924331
8.2510838
8.397216
8.5318575
8.6596887
8.7877923
8.9986983
9.24459
9.3536477
9.2459078
8.9786475
8.3417266
8.26249
7.690738
8.2603537
8.8691906
8.6554584
8.7543622
9.2450822
9.1955632
9.3221299
9.3521933
9.4265751
9.3716251
9.3312925
9.4299034
9.4191116
9.3453772
9.3385791
9.2359718
9.4154124
9.41501
9.2713182
9.3035587
9.3761892
9.3700865
9.4144251
9.4277363
9.4423428
9.4245193
9.3577158
8.9454687
8.8427647
9.3150925
9.2814575
9.1385069
9.0643789
9.1953193
9.2931995
9.4045914
9.3493752
9.3381865
9.3778758
9.3286678
9.428308
9.3752524
9.3163839
9.2910723
9.3171992
9.3141047
9.1855054
9.2376512
9.2544123
9.2581784
9.3451008
9.3343003
9.2078153
9.2369135
9.2517649
9.2772788
9.3683993
9.4196433
9.4160759
9.2677201
9.3219138
9.2551255
9.2723475
9.2636424
9.3228809
9.1961437
9.332603
9.3723382
9.4277283
9.4204826
9.417046
9.4169743
9.2371651
9.3396963
9.3466126
9.2731241
9.3056159
9.4443675
9.4311583
9.4160521
9.4297315
9.3242115
9.3712982
9.3772864
9.2618013
9.2235622
9.1964176
9.1397437
9.1549205
9.0890885
9.0716083
8.9374372
9.0315437
9.0486217
8.9664582
8.9984908
9.1250217
9.183853
9.198442
9.1408541
9.0255946
9.0990766
9.0821243
8.9715592
9.0282167
8.9981478
8.9152448
8.9398681
8.8358644
8.8012915
8.6543607
8.7848366
8.8103869
8.6936512
8.7331928
8.870392
8.9024747
8.9958489
8.8741135
8.8493797
8.7233149
8.8375289
9.028141
9.222732
9.1957316
9.1393694
9.1538823
9.0486026
9.032226
8.9392441
9.071954
9.0883478
8.9670961
8.9981902
9.0815858
9.1823798
9.196733
9.0980033
9.0247105
9.1391197
9.1236528
9.0696033
9.1952814
9.3913471
9.387477
9.3824078
9.1462618
9.0713989
9.3485322
9.3631913
9.1320968
9.1853334
9.238073
9.1245731
9.1721159
9.224756
9.2608235
9.0899393
9.1013197
9.0679182
9.1673221
9.1415618
9.233608
9.1836321
9.075965
9.0532072
9.1304227
9.0276641
8.9953968
8.971789
8.9408713
8.9170392
8.8048782
8.8379619
8.6974529
8.812406
8.8508691
8.8746921
8.7704149
8.9024995
8.871273
8.7355703
8.5824485
8.7248961
8.6844549
8.7798583
8.6482635
8.6820204
8.5341652
8.4883474
8.297367
8.4802511
8.5169847
8.3502718
8.4022427
8.5790742
8.6200125
8.769019
8.8039045
8.9335743
9.0543693
9.1739266
9.2264415
9.2354127
9.1854056
9.0770641
9.1426269
9.131598
9.0280987
9.0902011
9.1018997
9.2733564
9.256596
9.2618198
9.2202439
9.2134649
9.1012126
9.1684211
9.1762634
9.1192811
9.007488
9.083142
9.0686634
9.0455732
8.9602752
8.833222
8.9292644
8.9125801
8.7915611
8.8985176
8.9320429
8.8435656
8.9582124
8.9710797
8.8843854
8.8611259
8.9857823
8.912828
9.043799
9.1723523
9.2700227
9.4183053
9.3591151
8.9458214
8.8402028
8.6546115
9.138419
9.2812522
9.4059133
9.2937645
9.3502492
9.3764663
9.4299514
9.3308117
9.3792224
9.3385136
9.3179519
9.2566791
9.2891863
9.2689297
9.2818543
9.2743724
9.2784072
9.2419664
9.2412077
9.1483559
9.1968268
9.1977801
9.1373788
9.026836
9.1038677
9.1391391
9.118466
9.1178454
9.2090088
9.2021244
9.2710967
9.2460069
9.2549245
9.1589925
9.1622669
9.0577857
9.1168849
9.0091781
9.0130136
8.9991597
9.1082696
9.0405547
8.9197666
8.9051125
8.9966565
8.8832699
8.9644092
9.1385367
9.2877416
9.2676195
9.1184737
9.116
9.2067917
9.2793916
9.2727495
9.2769969
9.2602919
9.1750318
9.1178625
9.2184845
9.211626
9.0999285
8.9849536
8.9596781
9.0448929
8.9292961
8.9127653
8.8044044
8.9331299
8.8514015
8.9881026
8.9564194
9.0898722
9.0380316
9.0149466
8.9718512
9.0318283
9.0102591
8.8567776
8.8901321
8.8161034
8.7772809
8.9469728
8.8911241
8.9214392
8.7431175
8.6980314
8.6185845
8.831045
8.8657615
8.6704444
8.7229564
8.7888874
8.8559343
8.9246457
8.7799876
8.7412376
8.7019658
8.598733
8.6451408
8.4518828
8.5774446
8.6216567
8.6633341
8.8164687
8.7332183
8.8922338
8.8306194
8.9952692
8.9674856
8.9178223
8.949409
8.7707304
8.565277
8.6494623
8.5991782
8.6902096
8.5045857
8.5542652
8.4402528
8.3803585
8.3167564
8.5458116
8.4911252
8.3791681
8.4434729
8.1712332
8.2480449
8.5059166
8.4136544
8.6601044
8.8765488
9.0808352
9.3413166
9.3871375
9.3621613
9.3864581
9.4053145
9.3992286
9.2225365
9.1858911
9.3841331
9.3726346
9.373717
9.3249969
9.3004392
9.3202289
9.0087343
8.9707859
9.0499432
9.1178279
9.142661
8.9629323
8.9964413
9.0373668
9.0776516
9.0961262
9.1406826
9.0154699
8.9598032
8.928296
8.7733351
8.8100361
8.8829335
8.7372936
8.8332546
8.8608077
8.9578588
8.9703657
9.0820976
9.0062233
8.8835158
8.7457474
8.8596842
8.8433967
8.8147586
8.7921155
8.7548657
8.6004374
8.5687936
8.5187576
8.4826606
8.6512723
8.4948953
8.5388789
8.3552515
8.3038507
8.08159
8.3089518
8.357773
8.138663
8.0765075
7.8168363
7.8896623
8.1423685
8.2010718
8.4095071
8.5675533
8.599649
8.7536949
8.4487992
8.2526718
8.4520073
8.2544492
8.4509414
8.6219525
8.6596465
8.6918796
8.5298356
8.6681105
8.644942
8.4936019
8.3031324
8.4958468
8.6445399
8.6679875
8.8143693
8.6913948
8.6584101
8.4923992
8.5291732
8.5624808
8.721543
8.7463139
8.8601471
8.7184435
8.7032344
8.5627567
8.7032983
8.7181469
8.5884311
8.5624732
8.721366
8.6052864
8.7687363
8.9119121
9.0424167
9.1703627
9.1815458
9.0644869
9.015531
9.1427279
9.1301455
8.9902895
8.8433501
8.872565
8.9373181
8.796046
8.710466
8.6784883
8.6417789
8.6002339
8.7020495
8.5317489
8.4877047
8.4400153
8.3889463
8.3355614
8.1048977
8.1673529
7.9539239
8.2247617
8.1600808
7.8775548
7.542834
7.8326324
7.9058304
7.5972402
7.5113878
7.4245345
7.0501971
6.5967382
7.0890391
6.6481987
6.0326359
5.9074808
6.4838184
5.9358454
6.4806353
6.3783249
6.8403696
6.7501711
6.662755
6.166521
6.0784427
5.5619524
5.6480824
6.1926337
5.6431415
5.5606622
5.4758733
5.393812
4.8141118
5.3475661
4.7842637
4.8720037
5.4176904
4.7638945
4.1908573
4.1044149
3.572675
4.2369463
4.2958958
4.904163
4.2591775
4.8606375
4.7854575
4.1704801
3.6075597
3.6666763
3.0559366
3.632421
3.6828143
4.2449729
4.8223336
5.5003868
5.5811979
4.8829976
4.3027692
5.0272588
4.9491832
4.3652116
4.982492
5.0612448
4.3749038
4.9888771
4.9235722
4.3152181
3.717383
3.7724626
4.4366955
3.7376643
3.138394
3.0944779
2.4134972
2.9149177
3.4352008
4.0369676
4.0205713
3.2225438
2.5893042
3.421199
3.4090601
2.6063657
1.9044307
1.7862795
2.464525
1.9401395
1.224077
1.3879136
0.97855827
1.4545675
2.1281145
2.8949607
2.8962098
2.1081536
1.7038604
2.3976843
2.38209
2.991278
2.4140979
2.9626565
3.5097256
4.1503182
4.1586455
3.526094
2.7259
3.3979458
3.4302373
2.7407734
2.2282231
2.2055141
2.9637782
2.4301093
1.7664478
1.7672507
1.2135842
1.5750563
2.0636015
2.7972832
2.6634966
3.5968415
4.5874992
4.2912093
5.3077032
6.1706394
6.2297035
5.3275915
4.2462609
4.2061737
4.5734742
3.4578528
2.924013
3.056582
3.1848741
3.2746371
4.3473361
5.2589183
5.2504888
5.2977511
6.1631166
6.8646217
7.4194564
7.8574478
7.7529813
7.7928108
8.1449826
8.2359909
7.8955678
7.9800742
7.9423179
8.0156205
8.3561426
8.3829256
8.3239269
8.3697292
8.7263456
9.1038523
9.0712633
9.0239292
9.0780878
9.2907413
9.3562699
9.3392555
9.2259805
8.879508
8.9239623
9.2496072
9.2007371
8.8328627
8.9189928
9.2419807
9.1504132
8.8225206
8.936493
9.2149915
9.149448
9.2164649
9.320582
8.8727381
9.3627064
9.343662
9.2942605
9.3290005
9.2829112
8.9980845
9.087282
9.0204601
9.1343065
9.0607552
9.2714859
9.3150854
9.2495317
9.2641925
9.1780149
9.1081347
9.2076612
9.0302166
8.70001
8.9937295
8.7110144
8.8505736
8.9904874
9.0960981
9.0667045
8.8739135
8.6412808
8.4011351
8.1010787
8.0073027
8.2086888
8.5628856
8.7850744
8.8352904
8.3307191
8.4815375
8.1797668
7.7757849
7.5553549
7.1986459
6.9606216
7.221097
7.7607049
7.5386678
7.9921683
8.3236773
8.0856682
8.6152839
8.9285165
8.9833489
9.0607574
9.193984
9.2547597
9.0432739
9.2702422
9.3078203
9.3698914
9.3959214
9.3693684
9.1885966
9.2882105
9.2544498
9.1773042
9.1038088
8.9673902
8.7163072
8.6251043
8.5285126
8.4398588
8.34631
8.2675548
8.1934713
8.2825719
7.9680756
7.8631572
7.9661273
8.0656473
8.3564352
8.4404006
8.4962895
8.4266105
8.1231934
8.0528115
7.6381008
7.5810242
7.5033489
6.9420493
7.0171483
7.1059936
7.0289247
7.5603034
7.4755598
7.3841682
7.3284375
6.7607586
6.8459466
6.9488337
7.1040025
7.5817731
7.4859619
6.9909479
7.1940555
7.6253685
7.7203046
7.3018801
7.3885888
7.1878354
7.6669919
8.0517148
8.1477078
8.2169233
7.881442
7.7442536
7.2669332
7.4683191
7.5476991
7.3482035
7.1870874
7.0975943
7.6588361
7.6629929
7.7445442
8.1605486
8.1581564
8.4826178
8.5068969
8.4562722
8.1242426
8.0879828
8.192935
8.2653837
8.2323563
8.5541249
8.6055601
8.3060019
8.3369722
8.6267064
8.5765357
8.614328
8.5465294
8.4985743
8.1924947
8.2582441
8.3447891
8.6096534