/*--------------------------------*- C++ -*----------------------------------*\
  =========                 |
  \\      /  F ield         | OpenFOAM: The Open Source CFD Toolbox
   \\    /   O peration     | Website:  https://openfoam.org
    \\  /    A nd           | Version:  7
     \\/     M anipulation  |
\*---------------------------------------------------------------------------*/
FoamFile
{
    version     2.0;
    format      ascii;
    class       volScalarField;
    location    "40";
    object      omega;
}
// * * * * * * * * * * * * * * * * * * * * * * * * * * * * * * * * * * * * * //

dimensions      [0 0 -1 0 0 0 0];

internalField   nonuniform List<scalar> 
25278
(
159.19156
165.75672
154.06938
154.06109
163.44753
165.76551
168.25132
159.19922
168.22794
190.92588
173.53192
161.55364
160.19261
157.67367
261.72813
154.02299
165.75754
264.76613
311.26855
269.01607
210.00857
193.01624
172.81563
174.40502
212.70711
174.37555
172.80066
214.72439
228.65059
229.60856
255.56589
251.68981
316.39618
275.13439
281.19534
292.6641
293.54204
312.35209
310.07093
355.58396
329.09262
331.87225
357.44024
358.96076
309.06372
250.64742
193.935
211.35093
268.69077
273.91036
284.9175
279.37552
368.66271
348.94239
323.86731
326.51929
338.62716
335.46628
393.04493
375.91509
379.40361
395.95749
407.34668
346.084
343.25924
347.81523
350.51562
413.31725
410.75479
404.38461
467.60026
450.28301
426.5938
399.03347
364.41736
337.03314
281.23176
229.61152
192.93859
193.90913
189.77965
261.47996
264.63184
310.73867
212.08508
205.68453
305.31996
377.74117
338.47175
294.10427
305.27861
355.83975
339.01533
417.15701
433.13744
355.28717
360.44304
307.74843
323.45445
383.44286
360.86127
448.6023
466.68074
383.05989
435.50146
406.39044
397.91737
515.8752
493.44652
553.25366
405.2383
430.52451
587.44215
623.43174
538.56739
563.72258
664.61117
475.96125
440.02995
440.25494
310.80938
212.08808
163.44771
339.45522
417.91534
494.22716
553.68746
405.41062
305.40908
205.69108
189.77755
193.91256
264.67059
261.55027
338.81924
378.13078
398.35643
430.75304
588.04727
516.82085
539.68676
624.30771
665.82409
476.30419
436.05068
406.86348
360.7974
355.68002
433.95422
356.38854
261.89547
294.32746
305.4973
307.93837
264.90739
323.61885
383.44934
467.69132
565.13048
752.98088
1003.7036
1001.6805
751.69434
566.78735
437.00463
407.82915
442.62234
479.03325
674.9426
631.45289
541.18256
707.18892
904.93026
1020.5585
1412.9745
1210.5707
892.34767
893.46929
1204.6826
1403.2641
1013.3111
900.96789
708.0719
542.72017
449.51268
361.38084
384.02513
438.18069
568.60655
677.32028
633.3418
444.24902
311.82032
408.86442
481.1118
493.96203
723.43092
1153.0476
1657.2891
1672.7912
1165.6794
720.27049
491.6586
448.65183
390.06371
326.33272
275.08367
228.60489
251.67002
255.57101
292.66704
316.30096
329.03226
331.84933
293.56389
312.37951
310.10818
355.41546
357.33257
358.91479
328.9592
276.03797
225.5126
193.88807
225.55938
276.03248
287.85239
250.90795
250.65776
290.27794
290.52244
329.29717
358.23268
310.17904
309.1078
323.42825
268.76759
211.4505
209.99928
268.96765
273.97168
323.8138
348.58203
375.58238
379.14702
326.52217
338.57807
335.37778
392.47991
395.52724
406.72922
346.00075
284.96324
279.30338
368.03285
343.05023
403.59974
409.99703
347.61499
350.43309
412.69804
414.87822
409.16883
398.25598
381.9231
381.08764
324.431
336.18862
335.0026
342.23349
278.96586
278.70901
268.56336
320.47892
306.41066
306.10223
287.11588
324.91669
325.58249
355.74795
353.41599
375.54652
319.892
331.05384
331.58816
393.97929
378.44212
418.04774
404.42523
386.56785
365.8783
332.91712
275.94354
225.51865
225.48838
275.96785
290.2243
290.44096
310.09071
358.19828
329.20918
328.92201
368.86302
335.22663
369.26627
388.67342
389.91141
388.35802
405.30062
369.11409
413.39083
405.91225
447.95591
454.1061
503.15082
454.23114
413.2278
368.99178
364.27933
389.712
405.71805
447.30866
398.6415
404.97156
453.51375
502.49932
495.15655
446.55365
481.4692
495.83584
551.88866
556.78093
533.12689
508.69361
483.68001
460.82281
436.57168
413.45114
415.74354
435.7469
408.02776
405.84911
434.57788
459.64795
461.78694
438.91662
413.57595
415.78415
438.34343
414.58908
414.87226
388.85377
406.91379
406.5754
435.44857
434.90055
460.92566
438.21308
462.36058
462.24654
463.28524
486.73088
485.61094
509.89381
511.50394
485.89773
457.66356
413.44865
368.79738
369.27423
415.70296
438.0593
414.41345
388.61392
389.80859
388.20944
413.19827
415.51957
435.37481
407.80758
405.55545
434.1532
459.03256
436.21871
438.58331
462.86826
460.40208
484.80861
485.96569
461.21508
461.19843
435.12658
406.40471
406.80501
388.84639
414.75434
434.6561
460.47567
437.96376
462.02445
461.84284
485.7614
484.90139
483.21492
459.24073
410.74079
410.2893
364.5263
384.11486
386.25649
412.14869
412.32364
433.156
432.03412
404.28429
401.67756
401.1591
383.49408
409.16776
409.78859
430.1912
428.69867
453.95508
431.99356
433.12293
435.06055
435.71912
459.00946
457.60478
481.60239
458.82316
456.30187
455.37877
477.48862
479.49615
455.77782
473.71105
446.34614
415.03873
417.65477
448.25867
449.65926
451.11928
420.3664
420.15559
421.46111
419.06274
434.56912
425.7755
447.13616
482.51531
491.89732
525.14703
457.40822
448.92206
516.81182
591.06284
540.756
586.62203
612.02289
619.40677
551.0064
601.73601
699.95054
692.88082
791.58088
641.96278
544.75388
465.67942
488.49797
475.6051
484.09754
474.38257
554.37269
574.10982
564.63373
683.66423
706.97383
903.00526
947.17835
815.08861
658.19006
705.8114
667.44549
647.47795
623.07284
599.39114
575.45199
553.66116
530.95192
508.96537
483.23894
485.47746
510.54181
508.36622
535.44851
535.79385
510.57809
510.09156
484.46754
458.3647
484.87145
484.53574
509.69256
485.55192
486.50033
461.70973
480.71518
452.32463
420.39838
381.11209
324.32348
323.38745
334.96398
336.12314
397.27614
398.56548
382.08265
419.48201
435.31672
458.68001
528.09908
493.39499
484.03042
519.7999
549.32926
559.04488
476.20832
486.0755
477.69034
570.00461
579.60281
719.95698
668.69392
607.35719
553.35603
542.99685
590.29119
596.31994
700.69509
614.22551
621.85848
708.38249
835.53815
809.01804
651.30052
695.94292
932.57088
982.9067
904.70471
775.83078
679.07417
612.8721
557.18132
512.91068
468.96965
415.34737
346.41219
278.85836
278.54889
268.4668
250.867
287.7417
287.00135
305.94618
306.28066
355.64426
325.44627
324.76845
353.23777
375.35434
319.69245
320.31629
331.45676
330.87343
390.49626
393.97685
378.32192
418.15475
404.47979
386.54332
365.81434
364.42478
384.00407
386.18917
404.2687
432.12319
412.17057
412.39623
433.30552
459.37355
435.92523
410.78425
410.28891
433.21258
409.7847
409.09092
383.33619
401.00145
401.58747
430.20303
428.63674
454.02823
432.02328
455.48673
456.4961
459.05057
435.21107
457.86169
482.0353
483.74283
459.53467
481.99219
454.44653
451.93667
478.34283
480.92588
505.56121
507.65736
531.66983
505.80455
508.93666
509.21523
510.87615
536.69292
536.37263
562.6843
563.23642
534.69144
562.57516
561.98757
593.02446
591.93611
590.11421
561.86038
535.76078
510.99337
534.08965
507.54175
507.77335
480.77922
452.52373
421.81277
434.64041
432.26057
465.71523
450.7166
477.90902
495.22011
497.44233
466.89974
466.52808
432.95001
433.18391
420.55858
451.55308
465.6021
477.6302
442.77722
442.76311
444.55126
442.33802
451.67058
453.79778
490.36564
479.38156
477.98852
489.57965
524.72907
510.17138
512.64404
526.68328
564.53383
545.96253
527.20109
526.42091
505.99764
532.60103
534.77605
557.55312
556.37383
590.3595
561.75935
562.58999
589.71485
588.16808
556.57077
526.6869
497.20736
495.92204
479.68815
506.22717
525.038
543.06038
510.53233
512.10516
478.82004
489.55229
451.67506
451.63615
488.1333
523.96792
525.92629
563.43656
545.13924
579.83004
581.2307
579.54152
544.8725
564.4253
582.23912
537.48249
499.03383
458.86821
409.6227
342.23168
343.1161
347.25534
413.31948
407.88058
404.11579
338.33818
337.42761
341.22989
342.21246
409.22698
404.86149
400.05765
449.96031
443.96182
435.95256
426.85044
414.97077
417.68251
429.94669
430.40486
463.79069
449.97962
448.46425
462.03924
459.72573
446.42889
444.52897
414.11246
425.99476
457.58597
468.3876
434.80723
442.67037
477.4745
480.34451
470.88667
473.51761
439.18799
439.90117
448.39088
447.58559
483.39179
485.75633
475.58629
508.22325
493.99756
478.05008
476.18221
491.74756
519.94269
502.04523
504.28038
522.67818
540.20013
536.81805
505.54463
518.05478
521.24041
557.5276
560.96206
578.73704
536.34626
497.15488
458.21284
458.46965
460.74489
466.82347
465.02438
507.33612
507.70452
499.87375
498.83352
506.44293
464.28745
463.95609
504.56074
509.89726
467.51437
467.97597
470.6236
472.75468
471.12545
515.9651
516.20855
513.31038
511.93462
514.75529
470.03638
469.55025
512.65815
559.69753
555.35526
547.13418
549.61586
538.59253
539.62575
550.79743
548.90605
599.90635
599.81494
582.8443
581.57154
598.52664
595.53967
609.22056
612.22149
557.99499
559.27927
563.70468
561.6728
620.50574
620.81866
613.38733
683.45324
660.26237
633.3551
606.44324
605.33878
655.9433
619.74146
619.93429
654.84735
653.01957
604.8929
601.77942
577.16555
554.38479
532.38662
559.23036
534.15855
559.70567
532.06642
508.6542
484.1649
508.90602
533.33185
534.88231
508.903
533.25383
561.22327
559.0989
587.32323
583.85753
556.8122
529.30824
505.54513
481.67747
480.65004
504.51088
528.51933
504.98832
506.96861
530.93725
556.25167
553.18727
527.21393
504.72133
529.17089
526.17791
503.06016
479.84173
455.95168
474.01196
471.75044
486.52025
489.20049
516.89034
499.55443
496.88669
477.72009
500.55047
476.84089
499.93615
501.43558
524.05525
501.2435
478.12595
476.67882
499.80626
522.85461
500.2123
502.58088
525.6337
549.74523
546.28472
521.58684
546.62908
523.28691
545.60226
521.15658
524.28938
527.3088
530.01175
551.47327
548.08295
577.61456
553.02314
556.3481
581.79539
585.40605
614.7526
618.07926
661.3697
622.77744
590.64424
561.47488
592.44945
591.41411
625.25006
624.96972
664.35238
625.19401
625.76208
666.87696
714.0985
662.7854
663.82005
712.0321
711.21929
780.47108
778.86726
713.58288
710.74101
661.51131
622.8062
619.29418
587.84687
619.3202
657.33484
706.21071
657.42805
706.38259
649.43148
644.30323
597.53398
573.57965
569.35429
592.31838
553.44246
548.82009
514.46079
502.49215
499.31907
510.64454
543.8743
529.05337
513.65019
540.35639
544.35448
573.01309
549.41525
575.89346
550.2033
553.67786
579.97566
575.76873
571.40382
599.2488
571.31284
598.25443
568.12952
592.74155
559.53096
564.60942
533.0569
586.37333
579.87581
621.8396
630.27894
599.18117
605.10583
610.37619
652.20456
614.95226
584.29779
580.30572
609.88617
646.04638
610.13741
615.02362
652.10385
700.18227
692.80643
645.893
693.10515
637.87471
678.14969
617.61223
569.97135
529.48696
491.74662
453.78387
454.84086
460.2803
459.09657
498.59489
501.60759
494.49764
533.18528
543.64783
539.48795
585.7851
591.22309
574.80287
623.74393
628.55595
631.8387
659.30058
656.22731
738.63478
690.92136
694.21917
695.23895
693.90255
631.09323
657.62447
738.29775
739.57768
740.45439
785.18258
683.29696
680.79501
695.27617
616.78405
619.76447
562.40596
561.9975
514.5333
469.93776
413.22077
347.24302
278.83057
211.35195
210.02481
264.78417
311.16119
360.62202
307.92452
360.76019
407.31127
442.2623
478.53188
436.35454
565.18245
673.1723
630.17564
539.91699
448.29349
466.22984
383.18496
323.45649
264.82598
383.07788
435.60469
563.26564
748.85786
1016.3383
902.15233
704.97757
889.37591
1206.6725
1406.9394
997.51122
663.9975
622.94984
538.15821
406.63663
311.01584
440.27343
409.10917
543.52086
708.65754
891.2797
1205.0241
1404.1375
1000.4127
753.80641
1017.4725
903.40397
634.58655
679.11881
569.65753
438.5877
311.88557
444.51396
481.48074
494.41032
726.04597
1159.9653
1659.0004
1664.0187
1159.2625
717.80847
491.06544
368.53863
279.36059
284.88763
273.91024
268.97991
348.73722
335.35391
343.15264
347.76027
350.45998
345.99385
407.07128
413.20475
410.6909
404.07385
392.72029
395.63409
338.49113
326.43919
323.76164
375.67027
379.17389
381.87369
323.31732
268.6869
268.46731
278.53838
342.21158
341.21529
337.38771
338.28253
343.05512
342.15141
346.37091
415.22947
409.37243
407.66558
403.93756
409.14258
404.78477
399.9405
390.35779
330.81814
331.36842
336.02625
334.83963
398.27007
397.03708
380.98717
324.27387
320.30235
319.66531
375.28218
378.23415
393.78669
447.93776
454.38881
459.88415
463.4579
465.56408
465.66755
463.72875
462.37895
464.24073
506.03946
503.50694
506.77434
509.42007
555.86128
551.63625
547.15666
551.21055
606.19811
598.88511
604.70535
612.1991
690.82141
676.05667
651.24231
644.44467
726.63657
734.09009
685.55782
766.33257
700.68148
767.79384
773.7596
777.44115
710.25161
773.44701
773.05409
767.30726
837.13403
847.17318
991.28744
868.57615
861.77293
978.64775
1104.6422
1143.3694
926.20964
781.36963
807.65546
696.84504
691.84035
801.16137
953.25701
982.39557
1273.4738
1216.0475
1593.5976
1361.9158
1139.584
965.8951
853.86948
769.72614
711.35303
662.74939
624.5215
589.59926
559.90149
560.71881
533.1248
506.4948
479.86466
451.95329
450.05852
464.76311
431.67579
434.14848
466.05635
465.77628
451.8066
479.8957
478.98457
505.1503
506.33374
524.83219
495.97261
496.08527
493.78685
476.94032
504.66808
524.36857
525.22984
543.05399
510.73607
478.23028
443.90813
441.59563
476.70566
487.93335
450.72706
452.95522
488.8444
488.14174
477.77131
442.23151
432.54642
432.86024
464.9532
494.82469
523.34134
540.45688
508.89346
476.70068
442.31341
397.14801
407.59542
343.19138
347.32399
346.43464
346.4431
278.94169
211.43088
165.76216
154.02801
159.16152
168.24782
157.6148
172.76795
192.92889
209.99113
279.31342
284.95881
347.65763
368.14063
410.06709
412.75975
350.50942
346.05441
343.13987
403.79484
406.89094
395.59875
338.57337
273.9317
268.95245
348.65586
335.35919
392.59577
375.6877
323.80236
326.48502
379.20748
381.88756
398.29052
409.27623
414.95342
413.05733
413.02937
409.0851
403.99139
338.45268
337.60627
400.12391
390.62414
435.80256
426.83069
429.83375
430.17561
463.2699
461.66078
459.48258
457.47052
444.54692
414.26423
426.07087
434.77342
468.08562
470.41369
472.87393
438.92284
439.5497
474.78291
484.64675
447.86843
450.9916
450.95488
457.59111
459.73256
457.71719
497.00624
497.99272
505.53199
465.65081
463.7263
505.00312
545.04728
534.16694
522.09143
508.20596
541.89507
560.28304
560.49821
524.12128
523.49463
510.33365
542.34179
559.49697
557.2147
521.73814
486.8609
495.55158
457.44264
463.04042
463.27833
504.42965
497.10016
535.48493
536.37526
577.52519
576.89999
593.39939
593.3499
546.97546
545.9507
543.64199
533.43755
573.71005
576.31942
592.0849
589.2751
602.19159
551.57953
507.95618
502.73327
499.96
493.07056
454.16633
453.22216
447.17301
482.44868
479.61762
443.65883
442.50936
476.95489
509.52246
498.60394
486.15585
471.57784
496.47075
498.96009
501.30691
475.75294
477.46117
503.37468
521.19249
493.04638
490.99622
518.67529
515.85756
488.64169
501.53513
504.33873
506.78317
537.8494
534.77555
550.36218
516.2965
519.24108
554.07174
591.99754
570.02555
549.29471
528.75571
530.96452
532.53613
559.63089
557.54293
582.29915
551.97861
553.9964
554.89184
586.39251
586.99683
621.55144
621.27763
590.59727
623.88926
660.82744
663.37074
707.19562
656.3657
614.38751
614.49606
577.10988
600.41915
646.36468
647.57166
700.50787
700.91133
657.17094
706.35662
765.60834
767.72151
840.76265
750.98374
682.03125
682.80447
625.06689
649.65066
722.58476
722.10725
813.26226
820.92934
755.37888
845.65655
953.49517
944.36117
1054.9979
873.6436
756.35807
760.48735
671.19214
606.21235
555.157
511.0548
469.43296
467.63685
510.47854
513.64854
469.87791
471.65979
514.07399
512.76581
509.83014
466.93702
466.59957
468.70901
469.09938
469.15176
471.74553
469.93159
484.27821
475.76076
488.8851
565.02564
574.57488
555.39214
474.78396
466.07992
545.71327
643.90951
684.59203
708.64806
905.34391
950.34934
706.99834
660.52314
819.87756
795.48208
696.13799
592.96907
517.80627
449.32614
447.70408
426.13008
434.8637
457.80212
526.18908
492.71495
483.33694
542.2518
588.39456
614.42498
622.02361
703.68362
603.87699
552.61146
555.1778
577.23473
601.43111
625.242
649.51308
668.9857
680.69127
680.14521
613.47852
605.72328
553.03986
557.67053
559.76181
613.80627
612.77572
605.05191
554.00475
558.623
556.12145
510.86533
507.81088
505.05699
462.94489
459.49813
458.44734
497.16692
490.54277
487.36517
449.57139
448.15461
484.31817
490.26393
452.91943
454.48534
493.64887
532.30537
523.3383
513.01382
546.2178
531.37047
527.71387
512.87537
539.0583
520.46907
523.41576
526.23371
551.6576
554.76976
578.91596
575.00749
546.1547
542.72855
570.74033
548.2336
544.68185
566.25181
595.89699
570.24271
574.60967
578.80854
582.67042
586.10486
588.84349
621.50738
618.03702
653.81286
615.7334
619.09009
584.92651
612.64381
575.81844
573.33441
609.47467
640.8366
595.96646
598.89622
644.41649
698.70153
654.65682
650.73878
698.71583
703.32548
657.95658
703.48962
659.4936
662.62539
709.54196
763.24674
707.11678
708.89054
708.03956
697.8387
794.27975
825.74688
839.89707
1018.224
831.75672
818.08145
1002.3058
1289.6297
1021.8594
1078.8675
1485.9151
1318.7703
1747.9729
2006.3372
1364.5042
1761.6518
1338.1753
1048.9273
996.63984
1136.8119
1267.9786
1679.2034
1259.3985
1406.8236
1910.8371
2362.312
2052.0827
1604.5969
2108.0484
2436.0722
2709.0331
2360.5841
2356.3436
2101.2504
1739.4038
1312.6259
929.20396
694.47102
569.36993
477.43924
485.79817
475.52843
466.97238
547.86676
557.38797
578.81634
717.9483
664.9297
648.32138
803.13838
827.94139
978.11456
950.42375
799.39857
690.81339
619.90769
561.31294
515.76021
471.01918
472.66892
470.28882
468.63126
512.32481
512.73185
515.97163
563.31956
558.2166
556.20349
611.15593
611.54571
620.12255
619.00165
615.97327
559.27232
512.4339
469.47017
467.2369
467.69155
511.33863
509.31403
503.73976
463.54158
463.84192
466.35487
464.5295
458.30756
460.1962
498.94265
506.86066
506.51206
498.0938
535.98877
547.57552
549.36773
538.05581
580.32901
597.37693
597.61559
579.8585
562.24137
523.32892
488.68573
451.11297
458.00015
449.61482
447.9348
426.1012
434.80057
492.43486
526.59083
518.40775
483.11394
541.51699
593.81577
588.27306
696.54789
703.53526
604.41008
551.71766
619.62748
612.20165
551.09623
495.15196
447.47175
398.77584
355.44078
310.04179
255.58127
193.00449
193.89701
250.67985
250.89201
225.66184
212.8205
225.62142
229.69839
214.85754
228.70317
251.68818
316.32471
292.66925
281.25044
293.56271
312.32892
357.33003
331.85806
329.05025
364.33507
337.06256
369.05293
405.07202
453.67549
413.2243
405.70087
389.7969
326.29286
275.12521
389.7238
480.99896
446.36452
454.05468
502.47897
556.05866
502.40091
495.0001
447.35459
405.68618
413.21325
369.04131
364.31758
398.75734
405.0921
453.592
460.45395
413.46038
335.30171
368.85778
388.26701
358.90465
309.05079
310.09904
290.49937
276.09864
290.28024
328.94481
329.27966
358.17356
355.64471
306.30457
305.97717
287.07988
276.0999
287.80893
325.53115
324.84826
353.22743
401.54946
414.87255
426.61355
435.64166
443.5637
449.5753
454.61069
457.86947
459.77443
459.87092
458.12901
454.97168
453.22082
448.38067
485.05209
488.33161
494.81267
491.16258
495.5099
456.21125
457.85942
497.74277
501.85121
499.47519
541.97175
534.725
525.26973
520.80613
529.62231
572.35844
558.45368
564.44981
579.40946
591.90015
583.98859
536.37693
539.94809
545.80177
598.89056
590.54613
662.56465
648.73955
626.09885
602.17916
610.34525
635.95682
716.07437
668.84837
657.91041
702.58102
753.24605
767.83406
659.8908
669.0821
683.86337
812.17968
777.90084
783.77713
786.08112
816.92298
813.84412
697.29965
695.86668
695.60732
680.23002
676.29654
771.01672
775.68934
805.44345
811.12862
813.62468
693.64995
676.66532
607.08075
554.2222
556.89275
610.2139
595.91721
548.13311
505.61056
497.9048
457.96721
457.73696
496.25515
534.75163
545.62437
592.8154
576.04641
578.92245
536.99437
524.46064
488.67626
451.1793
453.26776
444.07321
441.84882
477.21105
478.63993
489.4583
525.23356
511.44135
508.97937
543.06547
544.1475
562.29353
561.14115
558.66861
522.55514
487.29294
451.16618
442.36133
442.34691
478.09801
476.95692
465.09599
432.86936
432.58545
434.25251
431.81454
419.14643
421.50424
452.13698
466.30569
465.08233
450.25253
477.25491
494.28899
496.54977
480.16755
506.86552
525.83935
525.03721
505.04231
531.35546
554.52516
577.06849
602.19445
627.49478
654.0673
656.19488
629.39325
689.13298
732.85605
732.45574
688.43278
759.61189
828.36942
897.0597
916.42993
978.59214
1268.3835
1212.1232
1092.6968
1127.7998
1162.9903
928.46418
778.36
679.61385
654.78948
651.31763
624.06663
627.58233
687.44387
732.7035
729.78116
777.89098
936.95709
1020.7649
1027.2836
953.42675
855.78824
771.30387
872.48517
872.02391
1006.9749
853.00386
941.06802
1005.7643
1344.6836
1184.3473
1227.5546
1020.2569
1030.7676
855.11624
850.24417
758.46852
863.52878
759.59452
749.08631
683.87775
638.61427
604.29013
639.29995
604.85121
637.71904
603.85766
609.03238
613.80912
648.7025
611.52802
606.71364
642.83563
636.3762
601.45036
632.99958
595.05933
561.84255
566.1447
600.45926
605.32572
635.94996
629.96874
587.26254
581.9197
576.15518
557.27919
589.29508
615.69632
623.11397
673.11264
681.63214
639.72042
645.68455
692.74354
685.59695
744.67885
752.97029
688.86454
694.6175
759.29526
763.54719
847.19431
754.66992
681.29673
623.46319
620.24437
677.7421
719.76156
645.24993
648.42648
722.44534
824.2143
824.27614
751.4608
845.70269
971.92477
964.45067
1117.23
901.41828
762.72208
670.60628
667.85076
762.04092
791.96926
682.3806
609.98496
605.7068
597.98819
585.25613
570.07457
530.53644
527.18164
565.71719
580.32888
536.6598
540.42615
548.13843
544.02938
502.01617
461.73918
463.65248
464.97637
464.99706
409.10342
342.34741
342.35749
341.40791
404.87115
457.62455
455.8648
494.55426
498.22064
500.72366
459.4207
457.55428
496.88924
537.95787
534.21802
527.69492
519.2742
555.40262
541.77852
537.14327
523.9247
509.7536
493.83675
475.0482
451.95351
403.98064
325.8276
269.02534
221.49314
209.93894
173.57372
175.80851
164.50535
175.74324
207.80833
191.70526
190.98846
221.53979
221.59407
268.16827
269.1344
282.89157
244.87292
244.55168
279.22721
282.21774
319.18713
319.99549
349.86826
301.17777
300.6965
346.89296
342.76522
314.72621
312.91253
277.88736
294.9734
296.31996
308.992
260.29294
205.93953
206.00138
253.7612
239.03934
218.23946
218.44466
260.51692
261.34517
273.69863
272.80114
305.63749
307.48322
333.92648
289.85421
288.73664
329.50688
324.10543
301.01814
270.27512
238.71185
270.15832
298.93721
284.00602
284.64644
295.42988
252.46432
294.5535
340.99213
347.44345
300.05533
301.69371
307.20247
358.59606
338.88125
368.91644
350.06906
321.15579
268.07858
221.54309
244.3998
244.8481
282.77757
282.09644
300.49616
301.00552
349.636
319.83013
319.03201
346.62742
342.49872
296.09975
279.11744
277.74377
294.75922
338.61123
312.76938
314.57213
352.92896
357.7275
359.71817
380.47693
379.60364
397.24233
397.97764
426.35645
405.97892
405.21685
424.6346
422.28282
394.22986
377.13342
376.09326
393.1919
420.27586
401.38792
402.4804
425.44214
402.69382
403.93565
429.07024
427.79144
449.68366
451.73918
475.16423
452.02211
451.0033
472.94767
470.409
447.37033
445.06719
423.85004
446.78069
448.16731
469.24507
443.38648
402.74843
357.85562
359.85629
380.66227
379.8312
405.38514
406.10051
426.49815
398.18435
397.51344
424.83461
422.53318
402.68432
377.39359
376.37104
401.63015
420.56023
393.52243
394.54377
407.32479
368.00154
313.7753
261.4799
314.6939
371.73495
386.21417
325.17273
324.24645
381.99154
376.76762
363.35487
402.57204
390.16945
373.27895
353.04736
396.16268
393.94338
416.10779
393.65103
396.88141
371.87364
388.78197
415.5374
417.85456
398.25148
420.76539
424.01202
425.54662
427.85618
429.09656
451.74577
449.78138
472.89007
450.98285
448.12942
446.80245
468.03833
445.26103
447.5258
470.40256
492.3321
469.18652
472.01592
446.70687
473.67354
472.11945
495.19
497.74796
520.01395
496.19474
494.61686
517.07105
513.92175
492.45417
489.79095
468.01613
465.17158
442.38614
417.57586
389.81043
372.99809
371.61842
388.48499
415.32142
396.70448
398.01869
420.6254
396.11605
393.88839
349.95359
368.69862
367.05978
383.27793
384.97937
412.40456
393.49426
391.78791
409.76765
434.1723
413.82644
416.007
418.82811
439.86825
462.61579
441.6386
443.115
464.13353
437.70958
433.6972
459.11303
438.42183
436.52283
456.84488
459.7005
437.0212
452.92669
426.89177
396.97785
358.26531
306.892
260.07159
205.80815
205.79719
191.66724
218.14932
238.82532
273.51546
261.20294
272.64065
288.41166
289.61699
333.62557
307.35209
305.52027
329.07005
313.01751
344.22143
340.5688
358.3245
361.64426
363.57131
379.43093
377.39908
403.46593
385.98302
387.96238
406.42488
430.88635
410.15329
386.4143
383.40715
404.39518
382.31265
379.80213
356.15379
370.85872
373.41953
399.83135
396.24033
420.37781
401.44405
424.19167
426.78104
430.43503
407.76711
427.7337
450.44049
453.54549
432.46667
453.33621
427.44325
386.48456
344.36254
340.86951
383.52927
404.64485
382.55148
358.61417
361.78982
363.72329
367.24273
391.91151
409.92714
383.48817
385.23441
412.55847
437.15284
440.02142
418.94006
441.65776
443.13767
465.24913
442.59883
459.01523
432.83919
435.61932
405.99619
417.00863
418.37103
421.79487
410.38954
411.33284
442.32905
440.35014
452.76898
454.98428
422.7476
431.33949
430.07153
462.77658
465.30471
473.80262
438.71414
437.3387
470.92241
467.59908
459.78733
450.07483
437.95575
464.42523
466.9426
469.24022
483.49428
480.80076
506.59636
491.20151
488.44964
485.64177
461.8545
475.02141
447.54821
456.98173
424.92973
426.51979
433.45326
431.74603
464.50052
494.56639
485.73554
489.04629
477.95301
503.36439
500.11285
512.37199
516.22923
520.08187
492.35095
495.47272
505.86383
502.17306
532.47315
527.78142
498.39338
506.27704
473.86771
438.51661
390.52221
330.31547
270.65438
269.31972
324.77652
318.81762
316.92946
371.53493
379.30626
322.60818
325.83426
328.06142
333.76912
335.07519
331.51996
395.23335
399.62596
394.63965
388.77171
384.93159
432.27759
427.60645
421.08381
413.23379
411.52423
400.89219
430.19112
441.65538
444.49301
471.93904
468.78031
456.14033
479.73773
462.69739
459.7603
438.41656
436.56334
413.90864
434.26896
456.91607
478.46636
456.96161
459.07611
462.20137
464.08735
467.40809
489.44696
491.10435
494.56472
496.08441
473.57495
497.52422
495.06996
516.86718
519.74756
542.63677
518.17493
515.64576
539.32633
542.90464
566.94459
562.58451
539.15252
535.61081
512.37135
491.16908
489.49971
467.49508
511.04962
532.36678
509.88259
532.29501
510.94047
489.76043
486.88167
484.19846
505.11315
484.05035
485.72347
507.88259
528.98845
506.5979
485.77884
484.07748
462.27916
484.21339
486.89546
507.91053
505.14297
502.13837
481.32249
478.43144
456.96515
478.73427
480.58482
501.06005
480.53828
478.73612
499.35785
502.13317
481.29947
498.82283
476.65883
453.05535
427.07227
397.26474
395.18432
424.08994
435.14148
405.42422
407.5377
438.31113
465.45135
462.03863
449.87383
473.44937
486.6181
490.06928
493.45882
496.77275
482.71782
505.03356
508.18454
511.24592
514.33862
517.40127
541.02137
537.40519
557.04077
531.53684
535.30832
561.65354
590.21962
565.80932
561.39988
587.4556
592.91826
598.42694
629.53861
668.63718
625.7967
663.63551
723.0624
734.59267
677.48483
729.9953
677.42921
685.27871
644.17113
650.04816
655.22909
700.98153
705.95982
759.16297
753.41018
698.50329
754.86212
760.1881
763.81902
763.37013
833.44385
767.60387
837.52799
836.19295
770.45319
854.83137
939.00056
941.36382
1035.9626
916.10952
917.70499
831.83485
927.23514
841.08507
840.58001
929.87363
1028.4961
1029.3899
1164.4925
1036.678
1035.1
937.68939
853.6546
766.99436
761.79232
850.02664
933.55258
826.30106
832.27547
913.68353
827.82846
821.79903
921.25506
835.10175
839.27528
925.62155
1027.7915
1023.0692
907.2824
1030.3298
1162.0545
1165.2798
1381.0053
1228.3346
1104.9187
985.89043
979.4581
1169.2306
1356.2565
1096.9775
1083.7861
1325.7469
1672.546
1790.768
1448.3845
1752.496
2350.2615
2095.8169
2463.5479
1931.177
1494.1684
1203.897
1220.815
1530.8038
1717.165
1370.7215
1355.1979
1165.6923
1342.9207
1184.0924
1060.2751
941.87451
953.44823
1072.0741
1306.0927
1121.7857
1096.3323
1278.1833
1448.1592
1484.0715
1200.6077
1358.0679
1677.1763
1642.9718
2063.4929
1837.3544
1581.6881
1290.2881
1365.2191
1086.129
891.00427
943.33667
785.89473
684.52207
684.63043
790.44512
961.75386
977.41591
908.47151
1146.7074
1324.8771
1261.3974
1202.8657
1155.0397
918.99318
780.77585
781.73618
787.06074
685.15994
614.14671
559.95673
514.1789
513.75454
510.81107
467.82262
469.61823
511.39303
510.14315
512.91204
510.95556
468.8201
466.77011
467.15427
463.4915
407.65216
343.19763
347.35547
342.30485
334.94702
268.72289
268.4935
278.67527
341.39126
404.84998
400.05426
337.56244
338.45918
403.99999
393.89186
331.49228
336.13542
397.0808
380.99035
324.30325
323.36081
309.0431
250.62295
193.88477
250.85082
306.26118
320.33883
319.71855
330.94952
390.47215
375.31673
378.26861
355.55707
358.09138
310.06879
290.40434
275.965
290.2251
293.52488
312.38373
255.53132
251.65283
316.34788
310.07601
355.47663
357.33483
331.82631
281.1608
292.64508
329.04753
364.39065
398.87724
390.04616
447.90603
454.06633
405.15962
369.05115
337.06899
406.06404
413.50798
454.8299
503.59539
496.25658
482.57169
553.67546
558.59087
504.32424
497.05783
447.23972
406.33125
390.58667
326.43091
275.09715
214.72633
228.60392
229.59523
225.4996
212.7629
225.55653
275.93124
287.70422
286.97121
305.95891
353.16256
324.69834
325.34258
329.12839
328.86976
358.86796
405.6366
419.19293
431.85509
441.82962
450.9752
458.02622
463.99504
465.92516
505.98648
505.50066
497.54644
498.49816
459.97511
457.81215
457.61172
463.26257
503.10738
508.29649
552.14857
556.35187
558.82142
613.16129
610.35981
603.24405
606.07964
554.61835
555.73327
553.58633
557.85286
613.7906
606.67672
607.2114
594.69007
547.78666
545.83781
594.70452
578.33473
535.04411
537.23845
578.99196
577.76289
593.46887
546.72857
504.86871
497.51598
495.95735
534.19817
544.41802
590.63862
575.11271
571.42197
586.60231
599.04112
606.12384
552.77707
552.59065
548.29545
504.68274
504.74434
463.71353
461.84692
463.11565
505.30532
507.93268
502.26301
498.43008
500.80902
459.43038
457.57941
496.93384
494.7225
455.9176
457.71629
454.59796
458.62243
459.66724
500.32642
497.47199
490.84678
453.34581