/*--------------------------------*- C++ -*----------------------------------*\
  =========                 |
  \\      /  F ield         | OpenFOAM: The Open Source CFD Toolbox
   \\    /   O peration     | Website:  https://openfoam.org
    \\  /    A nd           | Version:  7
     \\/     M anipulation  |
\*---------------------------------------------------------------------------*/
FoamFile
{
    version     2.0;
    format      ascii;
    class       surfaceScalarField;
    location    "40";
    object      phi;
}
// * * * * * * * * * * * * * * * * * * * * * * * * * * * * * * * * * * * * * //

dimensions      [1 0 -1 0 0 0 0];

internalField   nonuniform List<scalar> 
76009
(
0.0035980704
1.4803406
-1.4790884
-2.0308907
2.0354245
-36.233544
2.0801736
-2.0784335
-2.0778904
2.0790198
-34.815831
-0.00010726527
0.0036093377
2.0354291
1.4803508
-1.4790847
-2.0308857
-36.233529
2.0790643
2.080184
-2.078417
-2.077835
-2.6950389e-05
-34.815774
-0.0047566364
-9.326121
-0.004743401
-0.38289659
0.37518123
0.36858375
-0.39097581
0.36858519
0.37518744
-0.38289785
-0.39097977
-0.014035531
-7.6970435
0.067850968
-7.4077846
0.014046195
-0.011343319
-0.011344564
-10.34327
0.0073397831
-0.053547745
-9.6930645
-0.0073400374
0.38378761
0.37915867
-0.3750184
-0.37982342
0.38378365
-0.37982825
-0.37502308
0.37915358
-9.3276315
7.6970543
-0.053561546
-9.6930681
0.067856068
0.37122189
-0.37647822
0.52471202
-0.53716321
-8.2576617
-0.0013016229
-3.197445e-05
-0.57898371
-0.020037284
0.02398057
-0.024912668
0.032625304
-0.00025066459
-0.56533177
0.032806214
-0.02516425
-0.025280346
0.032705929
-0.010667525
-0.007231713
-2.4817024
0.099021362
0.13300594
-0.12905884
-0.096047551
0.0038744306
-2.6378206
0.095142576
-0.092151403
-0.12654912
0.12850345
-0.12994138
-2.343758
0.0025705096
-0.47586913
0.002216194
-0.0018667762
-0.001548578
0.00076465222
-0.57582871
-0.031844831
-0.023446019
0.023856752
0.032436929
-0.52731985
0.0017290619
-0.00074288076
0.00050369993
-0.65477692
-0.0013625867
-0.00029255145
-0.66451841
0.48090058
-0.62403293
0.009841015
0.006449656
0.0049640135
-0.13165292
-0.51132069
-0.023248698
0.023604391
0.032770022
-0.03272159
-0.001572542
-0.13249319
-0.10173882
0.098230893
-0.10173842
-0.13249177
-2.3818468
0.0021652337
0.13681892
0.13386055
-0.13097819
-0.13362523
-2.536273
0.136322
-0.13331235
-0.12899257
0.13180611
-2.4771909
-5.9591634e-06
-0.0001250512
0.0018526235
-0.53390737
-0.00064452754
-0.00086096301
0.0019029585
-0.53527858
0.0018730361
-0.53198798
3.6120715e-05
-0.54593191
-3.0581766e-05
0.032408608
0.03244576
-0.031897508
-0.03188665
-7.6906218e-05
-0.5467027
0.032476569
-0.031887249
-0.031895599
0.032452556
-0.54781348
-0.032061445
0.03263122
0.032489147
-0.031871804
0.0026548233
-0.00024726255
3.0812865e-05
0.032806907
0.032707138
-0.025277895
-0.025162564
-0.56532545
-0.00052435285
-0.65928329
-0.0027925717
-9.4780825e-05
-0.66654081
-9.8252955e-05
0.032697397
0.032667018
-0.025366483
-0.025296928
-0.56434529
0.0028745562
-1.7986262e-06
-0.025370661
0.03266114
0.032625839
-0.025366784
-0.56345246
0.00057752695
-0.66501747
0.52555646
-0.0029040983
-0.65106642
-9.9199237e-07
0.0018086895
-2.0748086e-06
-0.54411164
-1.5097823e-06
-0.031872541
0.03239141
0.032367666
-0.03185879
-0.56153194
-5.593359e-07
-0.025348459
0.032609488
0.032587275
-0.025333349
0.0046076678
3.2022597e-05
-0.5728184
7.6985759e-09
0.0066467648
-0.12884981
0.00064827611
-0.51825676
-4.5483448e-07
-0.50072094
0.0023693036
-2.0277308
-0.10834681
0.13325805
-0.10486676
-2.7059193e-06
0.0012869564
-7.7919746
0.5202303
-0.54559611
-0.52560161
-1.3854475e-05
-8.2576351
-0.37647115
0.37122797
0.52471985
-0.53714812
0.012914398
0.54830938
0.38662097
-0.37520234
-0.52842583
-10.433816
0.55362823
1.4660253e-06
-0.53156132
-0.51367277
0.53686149
-9.9021523
-0.0070555823
0.020526833
2.682201
-2.140565
-0.0014790318
-0.013600738
2.657164
-2.1180012
0.015691723
2.6263978
0.006770701
-1.8763606
1.8146074
0.021956987
0.030465655
0.043011999
0.036302136
-2.1044485
-0.0849281
-0.0027766441
0.12997215
0.096732502
-0.10464013
0.040694416
-0.0031701306
0.63413515
0.021277712
-2.3276397
-0.0073516102
0.61603888
0.53977233
0.62239221
0.077747608
-0.098065274
-0.13419678
0.096583898
0.084307837
0.47548601
-0.0044365442
-0.0061502539
-2.0384082
0.09487788
0.12593256
-0.11876826
0.081801744
-2.1874092
-0.19023151
-1.9497913
0.0029754626
0.14533605
-0.0051751901
0.0012791764
-0.14259969
-2.178314
-0.0063893505
-2.6301722
0.005379876
-0.0022345131
-2.6559617
2.3149757
0.095999052
0.13067329
-0.12957462
-0.095132087
0.00057801207
-2.3108603
0.0016336662
0.13191447
0.096484705
-0.094772485
-0.12925716
2.2173266
-2.2012163
5.6058597e-05
-0.12994548
0.13286754
0.13223406
-0.12916192
0.62888099
-0.06470301
-0.0017972356
0.63367494
0.54580493
0.54258707
0.098838274
-0.13607485
-0.1352626
0.098026451
0.10537389
-0.0018495819
0.52355234
0.0054150009
-0.0036106722
-2.0668604
-0.10877263
0.13368847
0.13086843
0.0018713324
0.062039552
-5.1349821e-07
-2.6135002
0.63279332
0.54191674
0.53958691
0.6181162
1.0013821e-06
0.098010826
-0.13497936
-0.13481021
0.097704423
-2.1980975
0.0010647536
-0.0039851336
0.52661829
0.00074859018
0.52801351
-0.0038960237
-0.00034040656
-0.0044272235
-7.1199922e-05
-0.0009447841
-0.0042581483
-0.0024533075
-0.52020305
-0.0030932048
0.00012467132
-0.51604741
0.0099681766
0.0081035311
-0.0030278532
-0.020185478
0.0031862205
0.5751041
-0.037792065
-0.0037537781
0.57897873
0.0035207645
-0.00052043045
0.023981093
-0.020036289
-0.024911321
0.032625779
-0.023794655
-0.11771026
0.00060350635
0.16448775
0.00039475511
-0.020317226
0.032812166
-0.02980847
-0.010665997
-0.63317935
-0.15577759
-0.001088126
-0.0011980653
0.15383452
0.15592979
0.13488735
-0.007149373
-0.022775792
0.018994442
0.023223048
-0.028200754
-0.0030117404
-0.57798833
0.12953918
-0.00061051864
-0.0010935857
0.16282656
-0.0001635052
0.00010541441
9.3220739e-05
0.13086996
-3.4993769e-05
5.3533069e-05
0.1184309
-0.00054465163
0.00023782456
0.00048130251
-2.6240868e-05
0.00014421055
7.5882807e-05
-0.14575102
-0.00010062918
-1.9299372e-05
-0.13152575
0.00016256997
1.6007457e-05
-0.16417008
-0.00063792536
-0.14550469
-0.00028147696
1.6162562e-05
-0.0003945709
-0.14398027
-0.0011975565
-9.5798522e-05
-0.1307456
-0.0006121305
-0.00061342451
-0.0052089176
-0.0093693222
-0.00094754081
8.9927422e-05
0.14505077
0.00034771069
-0.1543499
-0.00050783544
0.02850735
0.13148846
4.1255556e-05
-0.16515605
0.4956022
0.033047143
0.032289308
-0.032339007
-0.035034605
-0.57746251
0.032622633
-0.032430639
0.031992856
-0.032259112
0.03163179
-0.13157018
-9.9260137e-05
-4.8044705e-05
-3.0462077e-06
-0.00049264353
-0.16414306
0.14551083
-0.00036630977
-0.14541853
-1.0515126e-05
-0.00013833138
-4.832432e-05
0.00011651854
-0.14488658
-0.00013557234
-6.8471399e-05
-0.13008011
-3.3416999e-06
-4.407242e-05
-0.16225865
-0.00052914125
-0.14501391
-0.00024723945
-3.5812185e-05
0.0011027582
-0.00023060605
-0.14563476
-0.00025279702
1.4901054e-06
-0.00042555648
-3.699846e-05
-0.00064514742
-0.13064258
-0.00020251629
0.00015504294
-0.0006729881
-0.16242238
-0.00025999677
-0.1448391
-3.2910945e-05
-5.2748612e-05
-0.1438715
0.14402794
-8.0614723e-06
-0.00035561947
0.032647942
-0.1629039
-0.00035301618
0.12988323
0.035034801
-0.59613507
-0.032648691
0.032580017
0.5271952
0.024292882
-0.024790116
-0.024789394
0.024293371
0.032580346
0.010667341
-0.57746369
0.032289227
0.033047287
-0.028507841
-0.032339678
-0.63318188
-0.020317454
0.0237951
0.032812322
-0.029809037
-0.00010403044
-0.56435322
0.032696045
-0.025299737
-0.025370517
0.032664619
-9.4236309e-06
-0.56346136
0.032658595
-0.025375102
-0.025372859
0.03262169
-0.56154136
0.032605273
-0.025354922
-0.025341585
0.032581169
-8.7841082e-06
4.099379e-05
0.0066200717
-8.7932907e-06
0.0046287951
-0.57282242
0.00023426687
0.0067624094
0.0045799172
-0.57499695
0.0006759779
0.0044383639
-0.57631594
0.0070826422
0.00052427575
0.0042654062
-0.57697538
0.0075299063
-0.0099660445
0.0030976564
-0.57510733
0.0035162871
-0.12593177
-0.0001221827
-0.5160496
0.0081009783
-0.036295469
-2.0384126
-0.084309362
0.094878706
-0.11877119
0.0817969
-1.8146132
0.043012464
0.03046156
0.021951151
-2.626402
-0.021288445
-2.1874109
-0.1902315
0.63413843
-0.040681653
-2.3276417
-0.0073719934
0.62239529
0.53977272
0.61604061
0.077746326
-0.098066169
-0.13420042
0.096580131
0.084931888
-0.0061525771
0.47548874
-0.0044389804
-2.1044608
-0.0027842908
-0.10464606
0.12996908
0.096730205
-2.657171
-0.0031835115
-0.01359334
-0.54829981
0.015683666
-2.1180029
0.0070413578
-0.38661855
-1.8763621
0.0067689701
-0.37520434
-0.52843378
0.012887692
-10.433825
0.0051746552
-0.0063962609
-2.6301731
1.9497917
0.0012706195
-2.1783139
-0.14259686
0.0029650767
0.14533833
-2.3149748
0.0016172468
0.096484459
-0.094772448
-0.12925909
0.13191171
-0.0053750828
-2.3108587
0.00056579377
0.095999286
-0.095131681
-0.12957555
0.13067173
-0.0022461637
-2.6559619
0.53157098
-2.6832484
0.0025189254
2.140566
0.0063463504
7.7920174
-9.9021616
-0.51369191
0.53683366
0.55361511
-4.4337769e-05
0.52021482
-0.54561895
0.50068784
-0.52564249
-6.4744511e-05
-2.066876
-0.10538162
0.13086424
0.13368032
-0.108785
-0.0023834537
0.064675604
-2.682209
0.0018549349
0.6288864
0.63367912
0.54258575
0.54580646
-2.2173258
-0.0018262778
-0.13607872
0.098833215
0.098015473
-0.135272
0.0054196247
0.52355687
-0.0018540819
-0.0036176424
0.5202069
-0.0031906313
-0.0024522645
0.00094215678
0.00033688299
-0.52801887
-7.7167546e-05
-0.0039065061
-0.0010723237
0.00088909633
-0.00084311114
-0.037682679
0.0037592608
-0.03765673
0.0030311988
-0.037797182
-0.020187961
0.11753503
0.50208372
0.0072832557
0.0087798
-0.65586977
-2.2137531
-0.11753287
0.12616162
0.091601787
-0.10247504
0.091600564
0.12616126
-0.10247728
0.10994435
0.096536006
0.10994174
-0.096292394
-0.098011222
0.096538494
-0.098008943
-0.096289651
-2.6185745
0.65586892
0.0030782592
-0.47168088
0.00042565917
0.50208249
0.0087806084
0.0072874702
-0.0039810913
-0.51582131
-0.020955702
0.027500458
-0.030608416
0.031649399
0.018393752
-0.0049855543
-0.050066809
-0.55446337
0.15896836
0.15620813
0.13528812
0.15534192
-0.012082009
-0.0021090856
0.023190748
0.01885572
-0.024683059
-0.033566662
-0.58039774
0.11869796
-0.0013071793
-0.0021539125
-0.0001176578
0.00015446188
-0.13052824
-0.00012086155
-0.00059541223
-0.0022115923
-0.0016164482
0.0012037236
0.14330019
-0.0013347807
-0.010092603
0.12974816
-0.0059648447
5.0675141e-05
-0.00092103927
-0.0013050117
-0.00030408401
-9.0466405e-05
-0.14380239
-0.0011315715
-0.00015209012
-0.032571796
-0.13057291
-0.00077069862
-0.018394482
0.032570852
-0.029837012
-0.025270028
0.02424424
-0.56276684
-0.029835842
-0.025269106
0.024245099
0.0039822289
-0.020956769
0.027499797
0.031648533
-0.030609548
-0.51582185
0.0071463106
0.15577873
0.15593057
0.13488784
0.15383564
-0.0030176826
-0.5779901
-0.022776407
0.018993999
-0.028202081
0.023222102
0.11771112
-0.0011986166
-0.0010885164
0.00039431777
0.00060349408
-0.00023007859
0.001103132
-0.14563551
-0.00025296825
4.5135556e-07
0.00064529825
-0.13064307
-0.00020250608
0.00061248364
0.00042522662
-0.13148905
-0.13074637
0.00039438006
-0.00061399908
-0.0052094518
0.00061135963
0.14398127
-0.0093702473
-0.00094854834
0.12954029
-0.0010944817
-0.00016415242
0.0001051199
-0.0011980846
-9.6314092e-05
-0.14505163
-3.7737996e-05
9.0734635e-05
0.00034713453
-0.00050921283
-0.15435053
4.0996451e-05
-0.16515661
0.00015405855
-0.00067304361
-0.16242277
-0.00026031378
-3.4418131e-05
-0.14483959
-5.1550351e-05
0.14402855
-0.00035551953
-9.9273443e-06
-0.14387187
0.12988357
-0.00035273431
-0.16290412
0.16240546
2.1014991e-05
-0.00016538959
0.032508945
0.12961408
-0.00014113048
-0.00010563832
0.032318942
0.024216876
-0.024594174
-0.032508992
0.032318271
-0.024594022
0.024216637
-0.0036404023
2.0790669
-2.0778316
-2.0784129
2.080179
-34.815678
1.4803568
2.0354263
-2.0308763
-1.4790785
-36.233288
-0.52982623
-10.424602
-0.36907383
0.37558063
0.056567831
0.0021735144
0.13681738
-0.13362418
-0.1309776
0.13385767
-0.0038808177
-2.5362624
0.13180642
0.13631991
-0.13331235
-0.12899204
-2.4771875
0.00064128999
-0.52555589
0.0018084381
-0.0019019384
-3.3617321e-05
-0.54669902
-7.8791357e-05
0.032475946
0.03245221
-0.031895187
-0.031886973
0.00012847988
-0.5352755
-0.00086312098
-0.53390528
0.0018519053
0.00057910799
-0.0028739716
9.2933917e-05
-0.6650157
-0.0029039007
-0.65106591
0.54411081
6.39117e-07
-0.5615314
0.032587355
0.032609559
-0.025348182
-0.02533324
2.7685636e-05
-0.03185863
0.032367757
0.032391081
-0.031872511
-0.54592947
0.03240847
-0.03188633
-0.031897338
0.032445221
9.7063394e-05
-0.56345083
0.032626055
0.032661292
-0.025370079
-0.025366305
0.0027916986
0.00024610799
-0.56434281
0.032697608
0.032667322
-0.025365735
-0.02529615
0.00052306783
-0.66653811
0.53198402
-0.002653718
-0.00050501511
-0.65927982
0.0018719646
-0.0017308615
-0.54780892
0.032630638
0.032488702
-0.031871313
-0.032061042
-0.00076589683
2.9725084e-05
-0.56532228
0.032807161
0.032707489
-0.025276968
-0.025161657
0.0013612742
0.032626188
0.57582312
-0.024910262
-0.020035332
0.023981498
-0.57897488
-0.0098418841
0.12905749
0.52731536
-0.65477291
-0.00074368212
-2.6378058
0.13300367
-0.096046669
0.099018693
0.010666329
5.0966131e-05
-0.0023712447
1.2092239e-05
-3.502267e-05
9.9308971e-05
-0.0027843193
1.728027e-05
-3.8211975e-05
0.00015484132
-0.0031374602
2.0828688e-05
-4.1696317e-05
0.00022416099
-0.0035008597
2.348348e-05
-4.6047087e-05
-0.055688044
0.00049500275
-0.0004831344
-0.0002182806
-0.00025059262
-0.05574093
0.00031573263
-0.00021488117
0.0002026317
-0.00017821845
-0.003567971
1.8670114e-05
-2.3932078e-05
-0.00011166806
-0.0031991661
1.7338879e-05
-2.2182603e-05
-5.129002e-05
-0.0028401245
1.6159093e-05
-2.0729958e-05
-0.002418198
1.5083486e-05
-1.9420159e-05
2.035953e-05
-0.0024363235
2.8148263e-06
-5.0457771e-06
4.2349823e-05
-0.0028600652
3.4491952e-06
-5.4978538e-06
6.6542247e-05
-0.0032212855
3.9001668e-06
-5.9722336e-06
9.3612051e-05
-0.0035928241
4.4033341e-06
-6.6187129e-06
-0.056010924
0.00011705796
-7.01543e-05
0.00031670857
-3.7973075e-05
-0.056359202
7.7285964e-05
-2.652228e-05
0.00033549354
-2.6826339e-05
-0.0036041567
2.8862728e-06
-2.6905078e-06
-1.6754875e-05
-0.003231457
2.5940576e-06
-2.4834288e-06
-7.7160189e-06
-0.0028691244
2.4494929e-06
-2.4023975e-06
-0.0024440555
2.4884866e-06
-2.4724951e-06
2.7067455e-06
-0.0024468275
1.2875148e-06
-1.206638e-06
5.6345777e-06
-0.0028722231
1.346373e-06
-1.1694455e-06
8.8530435e-06
-0.0032349373
1.4756278e-06
-1.2094589e-06
1.2444527e-05
-0.0036081171
1.6912227e-06
-1.3212126e-06
-0.056656741
5.3169742e-05
-1.3716392e-05
0.00027053579
-5.8796584e-06
-0.056863107
4.1699244e-05
-1.1184053e-05
0.00018173446
-4.1586811e-06
-0.003610224
1.5353495e-06
-1.1482548e-06
-2.606164e-06
-0.0032367921
1.3647043e-06
-1.0613712e-06
-1.2106367e-06
-0.0028738547
1.2669038e-06
-1.0282652e-06
-0.0024482274
1.2463675e-06
-1.0571775e-06
7.6723544e-07
-0.0024491382
1.0355585e-06
-9.0205589e-07
1.6254965e-06
-0.0028748844
1.0772194e-06
-9.0919304e-07
2.5768588e-06
-0.0032379545
1.1603844e-06
-9.5131859e-07
3.6513575e-06
-0.0036115612
1.2946413e-06
-1.0316663e-06
-0.056986664
3.1787729e-05
-1.0051232e-05
0.00010547558
-2.9986523e-06
-0.05705414
2.4143006e-05
-8.6965315e-06
5.5032149e-05
-2.1121849e-06
-0.0036126282
1.0752696e-06
-8.8813134e-07
-1.3271393e-06
-0.0032388866
9.7136296e-07
-8.1749432e-07
-6.1282531e-07
-0.0028757135
9.0857435e-07
-7.767131e-07
-0.0024498696
8.8125483e-07
-7.6262115e-07
5.0701235e-07
-0.0024504707
7.1089544e-07
-6.0788475e-07
1.0731238e-06
-0.0028763838
7.3046476e-07
-6.2276688e-07
1.7059672e-06
-0.0032396361
7.7690345e-07
-6.5774912e-07
2.4193687e-06
-0.0036134809
8.5629667e-07
-7.1662035e-07
-0.057089996
1.8250874e-05
-7.1334801e-06
2.7160027e-05
-1.9933557e-06
-0.057110134
1.3928973e-05
-5.670654e-06
1.3875952e-05
-1.397477e-06
-0.0036141936
6.8008644e-07
-5.6350492e-07
-8.7456557e-07
-0.0032402626
6.1960036e-07
-5.1631786e-07
-4.1260135e-07
-0.0028769428
5.8507171e-07
-4.8865364e-07
-0.0024509773
5.7153462e-07
-4.7749601e-07
3.4344835e-07
-0.0024513994
4.5106585e-07
-3.6977907e-07
7.2801011e-07
-0.0028774101
4.6209013e-07
-3.7802014e-07
1.1591839e-06
-0.003240782
4.8878592e-07
-3.9945671e-07
1.6498235e-06
-0.0036147828
5.3547358e-07
-4.3667602e-07
-0.05712294
1.0765556e-05
-4.4486009e-06
8.1401467e-06
-1.386774e-06
-0.057132194
8.4197575e-06
-3.4859371e-06
5.70918e-06
-9.7461434e-07
-0.0036152743
4.1855717e-07
-3.3855214e-07
-6.142472e-07
-0.0032412148
3.8215403e-07
-3.0913503e-07
-2.8945238e-07
-0.0028778017
3.6106504e-07
-2.9264619e-07
-0.0024517542
3.5226839e-07
-2.8692099e-07
2.5603423e-07
-0.0024520504
2.6961997e-07
-2.2001011e-07
5.316802e-07
-0.0028781255
2.7481202e-07
-2.2320607e-07
8.4061826e-07
-0.0032415762
2.9061325e-07
-2.3560766e-07
1.1878574e-06
-0.0036156823
3.1960931e-07
-2.5857726e-07
-0.057139469
6.6077588e-06
-2.7132697e-06
4.5693685e-06
-1.0036085e-06
-0.057145419
5.1300663e-06
-2.0819464e-06
3.9061221e-06
-7.0659495e-07
-0.0036160241
2.4018804e-07
-1.9416921e-07
-4.4607545e-07
-0.0032418768
2.1759926e-07
-1.763141e-07
-2.1140992e-07
-0.0028783959
2.0631763e-07
-1.6757652e-07
-0.0024522997
2.0479744e-07
-1.6688609e-07
1.8285191e-07
-0.0024525064
1.4363235e-07
-1.1956377e-07
3.8165337e-07
-0.002878618
1.4000117e-07
-1.1672318e-07
6.0292237e-07
-0.0032421226
1.4626633e-07
-1.2177867e-07
8.5197091e-07
-0.0036163013
1.6271004e-07
-1.3471484e-07
-0.057150284
3.746968e-06
-1.5038047e-06
3.4744854e-06
-7.2697694e-07
-0.057154179
2.212407e-06
-8.7374973e-07
3.2833162e-06
-5.1312396e-07
-0.0036165208
7.8060748e-08
-7.2796823e-08
-3.2499375e-07
-0.0032423151
6.9032342e-08
-6.5191269e-08
-1.5407622e-07
-0.002878795
6.9623925e-08
-6.4806783e-08
-0.002452669
8.0817997e-08
-7.23076e-08
1.3250153e-07
-0.002452793
5.8657734e-09
-1.8884327e-08
2.7634516e-07
-0.0028789209
-1.3922299e-08
-5.6444957e-09
4.4008845e-07
-0.0032424569
-2.2724581e-08
-2.3875271e-10
6.221089e-07
-0.003616679
-2.3011232e-08
-8.8292654e-10
-0.057157194
3.6642052e-07
-1.1958792e-07
3.3900334e-06
-5.7109128e-07
-0.057159181
-1.7982647e-06
6.5716001e-07
3.7007116e-06
-4.0861329e-07
-0.0036167592
-1.4402925e-07
6.3839888e-08
-2.6263263e-07
-0.0032425252
-1.3255576e-07
5.7007619e-08
-1.2530791e-07
-0.0028789835
-1.152895e-07
4.5906139e-08
-0.0024528574
-8.8753447e-08
2.787556e-08
1.3427499e-07
-0.0024528982
-1.973889e-07
1.0699076e-07
2.6863898e-07
-0.0028790162
-2.3075379e-07
1.301895e-07
4.0606215e-07
-0.0032425537
-2.5495411e-07
1.4683566e-07
5.6150529e-07
-0.003616799
-2.7697814e-07
1.6145109e-07
-0.057160341
-3.9343933e-06
1.5600262e-06
4.0958364e-06
-5.7769842e-07
-0.057160762
-5.2961563e-06
2.0240041e-06
4.2709783e-06
-4.2194769e-07
-0.0036167884
-3.8433294e-07
2.1852533e-07
-2.7207515e-07
-0.0032425467
-3.5683282e-07
2.0045011e-07
-1.3537295e-07
-0.002879006
-3.2810971e-07
1.8257512e-07
-0.0024529042
-2.8930057e-07
1.5999233e-07
1.2576573e-07
-0.0024528909
-3.0169767e-07
1.6341657e-07
2.6214591e-07
-0.0028789803
-3.4693903e-07
1.8516696e-07
4.0504695e-07
-0.0032425133
-3.7718826e-07
2.0108195e-07
5.5629494e-07
-0.0036167533
-4.0244674e-07
2.1598941e-07
-0.057160786
-5.1224335e-06
1.8088832e-06
3.8940907e-06
-4.8964366e-07
-0.057160869
-3.103595e-06
8.0149301e-07
2.8750619e-06
-3.5551654e-07
-0.0036167211
-2.9123618e-07
1.2502172e-07
-2.2840138e-07
-0.0032424824
-2.7739123e-07
1.1951751e-07
-1.0904228e-07
-0.0028789558
-2.5417292e-07
1.1045634e-07
-0.0024528807
-2.1386736e-07
9.4646717e-08
8.9508011e-08
-0.002452896
-3.3795547e-08
-4.0430499e-08
1.9290328e-07
-0.002878965
-5.1405155e-08
-4.2793044e-08
3.0520564e-07
-0.0032424901
-5.6956381e-08
-4.7683905e-08
4.198713e-07
-0.0036167275
-5.1462282e-08
-5.6702701e-08
-0.057161456
6.2277827e-07
-8.9457961e-07
1.2779693e-06
-4.0214221e-07
-0.057162759
5.3066465e-06
-2.9322625e-06
-6.6929895e-07
-2.9196474e-07
-0.0036168096
2.5566915e-07
-2.8397255e-07
-1.8337867e-07
-0.0032425672
2.2576384e-07
-2.5746604e-07
-8.4491598e-08
-0.002879037
2.06964e-07
-2.3423853e-07
-0.0024529679
1.9485874e-07
-2.0745451e-07
5.9274462e-08
-0.0024530893
4.2291195e-07
-3.6138585e-07
1.4628429e-07
-0.0028791735
4.5822109e-07
-4.0897862e-07
2.4399278e-07
-0.0032427149
4.9816815e-07
-4.4832994e-07
3.4057944e-07
-0.0036169667
5.5081657e-07
-4.903393e-07
-0.057164873
9.6816992e-06
-4.749741e-06
-2.477501e-06
-2.276144e-07
-0.057167512
1.2370907e-05
-5.7719538e-06
-3.7328964e-06
-1.5619524e-07
-0.0036171736
7.5104159e-07
-6.157668e-07
-8.2890018e-08
-0.0032429091
6.8607201e-07
-5.653048e-07
-2.362416e-08
-0.0028793523
6.3619401e-07
-5.1708089e-07
-0.0024532442
5.8924111e-07
-4.5796581e-07
-2.5805678e-08
-0.0024534258
6.5256225e-07
-4.458732e-07
-1.9479955e-08
-0.0028795618
7.111529e-07
-5.0828448e-07
1.623914e-09
-0.0032431364
7.6244744e-07
-5.5653307e-07
2.2868173e-08
-0.0036174158
8.2559612e-07
-6.047014e-07
-0.057170391
1.2636908e-05
-5.5590592e-06
-4.1755137e-06
1.0828484e-07
-0.057172986
1.0550584e-05
-4.4444285e-06
-3.6195823e-06
8.6521141e-08
-0.0036176528
7.5265613e-07
-4.9420455e-07
6.1778025e-08
-0.0032433586
7.0254995e-07
-4.5592754e-07
3.2029671e-08
-0.0028797684
6.4924053e-07
-4.1382435e-07
-0.0024536113
5.752216e-07
-3.5775201e-07
2.5117471e-08
-0.0024538346
3.8164111e-07
-1.8597481e-07
3.4878685e-08
-0.0028800133
4.5224159e-07
-2.1807817e-07
3.9275957e-08
-0.0032436172
4.9658702e-07
-2.4312497e-07
4.8900498e-08
-0.0036179234
5.2688015e-07
-2.6611277e-07
-0.057175006
6.746738e-06
-2.5521848e-06
-2.1260523e-06
-4.0957262e-07
-0.057176061
2.1182056e-06
-4.6777373e-07
-1.8658862e-07
-3.2606116e-07
-0.0036181619
1.855589e-07
-3.0303374e-08
-2.3774791e-07
-0.0032438553
1.7639242e-07
-2.641256e-08
-1.2511619e-07
-0.0028802484
1.4966833e-07
-2.6748827e-08
-0.002454032
1.0423524e-07
-3.2015613e-08
-4.0157189e-08
-0.0024539798
-6.432186e-08
5.1306026e-08
-1.8249197e-08
-0.0028802943
-5.172841e-08
7.5329213e-08
1.7535675e-08
-0.0032439337
-5.0213947e-08
9.2517879e-08
4.0504972e-08
-0.0036182286
-6.0715991e-08
1.0433212e-07
-0.057176645
-1.6196609e-06
1.1184726e-06
1.1248683e-06
4.5271585e-07
-3.7257977e-06
2.063559e-06
7.3205338e-07
3.7138439e-07
-2.2675015e-07
1.8022874e-07
2.6461437e-07
-2.0454514e-07
1.5924486e-07
1.3599334e-07
-1.8955524e-07
1.3611076e-07
-1.8073655e-07
1.0347308e-07
1.3433798e-06
0.083493724
-2.1799767e-06
-8.3326097e-07
1.0348154e-06
0.0037591345
-1.6565847e-07
7.1713652e-07
0.0033078942
-1.5205134e-07
3.7507469e-07
0.0028852147
-1.3648721e-07
0.0024157524
-1.1507631e-07
-2.3440142e-07
0.0024158316
9.0890919e-08
-3.2929616e-07
0.0028851888
6.906283e-08
-3.7561749e-07
0.0033078301
6.021883e-08
-4.5103132e-07
0.0037590874
6.1754996e-08
0.083489951
6.2143419e-07
1.0807218e-06
-7.3506617e-07
0.083487184
3.7820659e-06
1.8379332e-06
-5.3248053e-07
0.0037588048
2.6559038e-07
-3.1175923e-07
0.0033075421
2.4360281e-07
-1.1164634e-07
0.0028849105
2.2770308e-07
0.0024156092
2.1494396e-07
2.9035554e-07
0.0024153029
3.9524746e-07
6.2434149e-07
0.0028845651
4.6276805e-07
9.682752e-07
0.0033071806
5.1353109e-07
1.309032e-06
0.0037584312
5.5959736e-07
0.083486079
7.5105632e-06
1.6498492e-06
-7.5060695e-07
0.083484971
1.0984057e-05
1.4250437e-06
-5.6240184e-07
0.003758151
8.4460752e-07
-3.8030791e-07
0.0033069229
7.7806108e-07
-1.9112238e-07
0.0028843225
7.0244879e-07
0.002415084
6.029533e-07
1.0083341e-07
0.0024149299
7.0570744e-07
1.622612e-07
0.0028841517
8.2051433e-07
2.0293921e-07
0.0033067397
9.0491291e-07
2.4800628e-07
0.003757949
9.8244309e-07
0.083483742
1.2886176e-05
1.2268363e-06
-1.199071e-07
0.083482646
1.2229891e-05
1.3574242e-06
-9.9210095e-08
0.0037577756
9.0369953e-07
-8.4837664e-08
0.0033065816
8.2971841e-07
-6.0556806e-08
0.0028840094
7.5416529e-07
0.0024148022
6.5637824e-07
6.4620246e-08
0.0024147052
4.5515694e-07
1.1294498e-07
0.0028838968
5.2244657e-07
1.5997752e-07
0.0033064564
5.7639835e-07
2.1926578e-07
0.0037576354
6.316865e-07
0.083481843
8.9748294e-06
1.7283873e-06
-2.4732186e-07
0.083481166
4.0450452e-06
2.1859091e-06
-1.7691527e-07
0.003757566
2.5448891e-07
-1.1647066e-07
0.0033063929
2.2862238e-07
-6.1805283e-08
0.0028838436
2.0511117e-07
0.0024146596
1.7865675e-07
4.0525948e-08
0.0024146597
-7.440502e-08
7.5331147e-08
0.0028838472
-8.9854297e-08
1.1557844e-07
0.0033063961
-1.0021679e-07
1.7212805e-07
0.0037575638
-1.0581899e-07
0.0834803
-9.2727916e-07
2.5883358e-06
-2.1643809e-07
0.083479258
-4.8200289e-06
2.9753304e-06
-1.4290106e-07
0.0037575975
-3.9844433e-07
-8.4038869e-08
0.0033064284
-3.6856676e-07
-4.1337406e-08
0.00288388
-3.2976296e-07
0.0024146787
-2.7420155e-07
8.0139213e-08
0.0024146881
-3.910797e-07
1.7270411e-07
0.0028839016
-4.6108008e-07
2.7953734e-07
0.0033064555
-5.1107052e-07
4.0705929e-07
0.0037576218
-5.5431868e-07
0.083478069
-6.995853e-06
3.4695952e-06
-5.7161753e-07
0.083476437
-7.2295344e-06
4.137812e-06
-4.0473775e-07
0.0037576222
-5.5154003e-07
-2.5508692e-07
0.0033064561
-5.0700728e-07
-1.2211758e-07
0.0028839032
-4.6245744e-07
0.0024146806
-4.0390869e-07
1.3882146e-07
0.0024146386
-2.9413898e-07
2.7678756e-07
0.0028838709
-3.363424e-07
4.2627499e-07
0.0033064227
-3.7088353e-07
5.9857884e-07
0.0037575803
-4.0725542e-07
0.083473975
-5.6990512e-06
4.8252059e-06
-6.0946476e-07
0.083470503
-3.2991961e-06
5.5834024e-06
-4.2842507e-07
0.0037574827
-2.27227e-07
-2.7414381e-07
0.0033063413
-2.0515337e-07
-1.3522888e-07
0.0028837974
-1.8011349e-07
0.0024145618
-1.4719527e-07
1.3888696e-07
0.0024144488
-2.4908785e-08
2.9050887e-07
0.0028836806
-5.0433839e-08
4.6507458e-07
0.0033062083
-6.5435252e-08
6.6785878e-07
0.0037573297
-7.2696459e-08
0.083465934
-9.1689346e-07
6.5200822e-06
-7.9964342e-07
0.083460242
1.0160624e-06
7.6882942e-06
-5.5646521e-07
0.0037571154
4.9166725e-08
-3.4925023e-07
0.0033060256
4.4530075e-08
-1.6493372e-07
0.0028835163
4.9558253e-08
0.0024142987
6.6015169e-08
2.0153912e-07
0.0024141046
1.3616077e-07
4.2454268e-07
0.0028833036
1.2965385e-07
6.740739e-07
0.0033057892
1.3321848e-07
9.6439525e-07
0.0037568411
1.4676885e-07
0.083453275
2.4980113e-06
9.1808797e-06
-1.1432922e-06
0.083444772
3.7255199e-06
1.1051867e-05
-7.9946818e-07
0.0037565018
2.356992e-07
-5.0188865e-07
0.0033054938
2.1544416e-07
-2.4136051e-07
0.0028830444
2.0509555e-07
0.0024138645
2.0350473e-07
2.8557356e-07
0.0024135817
2.7019514e-07
6.0106784e-07
0.0028827281
2.7685981e-07
9.5382813e-07
0.0033051407
2.9215779e-07
1.3632907e-06
0.0037560934
3.1881474e-07
0.083434397
4.900085e-06
1.3447156e-05
-1.6029386e-06
0.083421237
6.2793896e-06
1.6905471e-05
-1.1195836e-06
0.0037556066
4.2272804e-07
-7.0388321e-07
0.0033047185
3.892206e-07
-3.352106e-07
0.0028823537
3.683035e-07
0.0024132417
3.5707669e-07
3.9702666e-07
0.0024128408
4.5769599e-07
8.3513571e-07
0.0028819065
4.7224234e-07
1.3318156e-06
0.0033042134
4.9843532e-07
1.9069567e-06
0.0037550265
5.4082108e-07
0.083403138
7.976458e-06
2.2797138e-05
-2.2902535e-06
0.0833749
1.0069849e-05
3.4389867e-05
-1.5954256e-06
0.0037543331
6.7834259e-07
-9.998275e-07
0.0033036124
6.2463613e-07
-4.7560216e-07
0.002881374
5.923927e-07
0.0024123609
5.7581944e-07
5.7590783e-07
0.0024117926
7.0468434e-07
1.2174832e-06
0.0028807381
7.2503173e-07
1.9407406e-06
0.0033029016
7.651462e-07
2.7783362e-06
0.0037535201
8.3215311e-07
0.083325128
1.2508585e-05
5.8293901e-05
-3.4759517e-06
0.083232158
1.5120227e-05
0.00010547293
-2.4283182e-06
0.0037525333
1.0154286e-06
-1.5228505e-06
0.0033020327
9.3575219e-07
-7.1815902e-07
0.002879958
8.8619393e-07
0.002411096
8.5967649e-07
9.0162228e-07
0.0024102121
1.0069189e-06
1.9192287e-06
0.0028789798
1.0338609e-06
3.0636372e-06
0.003300958
1.0885628e-06
4.3852643e-06
0.0037513281
1.1789004e-06
0.083062339
1.7528983e-05
0.00018846685
-7.215224e-06
0.082778569
1.9150171e-05
0.00031353988
-5.0587709e-06
0.003749415
1.2927046e-06
-3.157197e-06
0.0032992223
1.1993678e-06
-1.4744526e-06
0.0028774139
1.1514811e-06
0.0024088346
1.1494221e-06
3.0541797e-06
0.0024059154
1.1564345e-06
6.5534818e-06
0.0028741315
1.1308654e-06
1.0522908e-05
0.0032955697
1.1610862e-06
1.5084829e-05
0.0037452993
1.2463384e-06
0.082366307
1.8983168e-05
0.00046153872
-4.1947175e-05
0.0818796
2.0880293e-05
0.00058506672
-2.9216173e-05
0.0037340784
1.3807017e-06
-1.8112038e-05
0.0032857624
1.3019147e-06
-8.3909616e-06
0.0028655665
1.3047933e-06
0.0023985956
1.4173554e-06
1.9935406e-05
0.0023802558
1.2218591e-06
4.3749908e-05
0.0028438978
1.3048028e-06
7.1187114e-05
0.0032608665
1.36117e-06
0.00010276439
0.0037054535
1.4524406e-06
0.081469711
2.5387537e-05
0.00060432963
-0.00019816746
0.081356022
8.2807026e-05
0.00054479065
-0.00013696803
0.0036580752
4.8506212e-06
-8.4369589e-05
0.0032212125
4.3959218e-06
-3.8866202e-05
0.002810709
3.8480592e-06
0.0023533444
3.1287455e-06
5.1472418e-05
0.0023128278
1.1276763e-06
0.00011068552
0.0027644368
4.3389469e-06
0.00017932129
0.0031670508
6.3565092e-06
0.00026050335
0.0035930875
7.2910635e-06
0.08144869
0.00011975172
0.00054309662
-0.0011145144
0.00039625832
0.001784331
-0.00081216143
5.1767026e-05
-0.00052900816
5.1539253e-05
-0.0002614086
4.8459722e-05
3.8529887e-05
5.2107647e-05
-0.002347552
-3.2133633e-06
3.1087762e-07
0.00011207579
-0.002804089
2.3267658e-06
-5.8770232e-06
0.00018160865
-0.0032136284
5.4932269e-06
-9.7470575e-06
0.00026421985
-0.0036492382
6.7440749e-06
-1.2145617e-05
-0.081175676
0.00011707459
-0.00033108009
0.00048963225
-0.0001948611
-0.081360313
2.7558954e-05
-0.00015266067
0.00050460893
-0.00013461143
-0.0037004159
-6.2843768e-07
-8.4376007e-06
-8.3102943e-05
-0.0032565313
-9.5311193e-07
-7.646007e-06
-3.8543361e-05
-0.0028401487
-1.7379605e-06
-6.7459173e-06
-0.0023770913
-3.2541328e-06
-5.7498998e-06
1.8937615e-05
-0.0023970799
-4.3398575e-06
5.4077673e-06
4.1671124e-05
-0.0028638123
-4.3405689e-06
5.2793232e-06
6.8044609e-05
-0.0032837323
-4.4694703e-06
5.304039e-06
9.8586677e-05
-0.0037316691
-4.7061447e-06
5.4191927e-06
-0.081814976
-4.7905396e-05
3.4785954e-05
0.00056637647
-3.9836623e-05
-0.082325161
-5.1776321e-05
4.2793294e-05
0.00055901012
-2.7631393e-05
-0.0037439035
-4.4094037e-06
4.4386908e-06
-1.7056758e-05
-0.0032943965
-4.1287974e-06
4.218434e-06