/*--------------------------------*- C++ -*----------------------------------*\
  =========                 |
  \\      /  F ield         | OpenFOAM: The Open Source CFD Toolbox
   \\    /   O peration     | Website:  https://openfoam.org
    \\  /    A nd           | Version:  7
     \\/     M anipulation  |
\*---------------------------------------------------------------------------*/
FoamFile
{
    version     2.0;
    format      ascii;
    class       volScalarField;
    location    "50";
    object      omega;
}
// * * * * * * * * * * * * * * * * * * * * * * * * * * * * * * * * * * * * * //

dimensions      [0 0 -1 0 0 0 0];

internalField   nonuniform List<scalar> 
24789
(
144412.12
45632.059
27135.997
20462.737
3636.9935
3636.0798
20455.26
27124.176
45606.865
144316.74
144310.58
45603.573
27120.425
20452.042
3636.3695
3637.1125
20451.212
27117.82
45594.746
144271.81
144292.95
45599.677
27118.906
20451.659
3638.0809
3639.325
20453.294
27119.441
45596.071
144271.36
144302.32
45604.636
27122.891
20455.593
3640.8237
3642.7064
20459.813
27126.693
45606.179
144295.35
144343.13
45620.695
27133.969
20465.152
3644.9699
3647.7548
20472.826
27142.146
45628.988
144354.38
144426.67
45652.229
27155.111
20482.732
3651.0029
3654.8734
20495.534
27169.856
45670.757
144466.08
144574.8
45706.775
27190.986
20511.859
3659.3631
3664.5563
20531.691
27214.77
45739.54
144654.48
144808.21
45791.749
27246.33
20556.142
3670.4714
3677.202
20585.382
27282.3
45843.765
144942.55
145157.91
45917.697
27327.665
20620.451
3684.7452
3693.1725
20661.587
27379.226
45994.672
145364.73
145657.79
46095.645
27441.625
20709.635
3702.4453
3712.6274
20765.061
27512.022
46202.925
145953.1
146337.79
46335.889
27594.507
20828.278
3723.6547
3735.6064
20900.539
27687.327
46479.241
146737.5
147236.61
46651.788
27794.567
20982.403
3748.3827
3762.0424
21074.777
27914.334
46838.634
147762.72
148401.57
47058.959
28051.108
21178.682
3776.5192
3791.9154
21294.491
28202.592
47297.907
149079.15
149872.89
47575.459
28373.775
21423.391
3808.5194
3826.976
21564.818
28560.633
47871.044
150689.63
151547.4
48194.058
28769.815
21726.594
3847.4022
3871.286
21922.327
29017.556
48556.176
152381.78
153405.69
49032.02
29342.058
22172.927
3898.2642
3917.0185
22476.71
29763.004
49717.446
154944.62
157663.39
50492.12
30142.354
22703.192
3900.7031
3836.9782
22702.725
30225.655
50785.19
160920.66
162625.02
51721.748
30876.453
23234.096
3814.9978
3842.5074
23836.541
31899.455
53837.323
170606.04
181274.35
56443.849
32964.945
24257.073
4009.4323
3613.9539
24207.155
31957.73
53470.552
168358.61
163643.05
51710.418
30967.949
23479.162
3540.4507
3541.183
23377.127
30608.573
50788.2
158029.97
153975.26
49696.154
30075.066
23037.682
3563.0164
3560.3242
22666.827
29546.361
48801.579
151511.38
150190.84
48135.845
29102.725
22327.897
3538.5923
3514.0863
22077.248
28787.933
47692.843
149305.45
148539.82
47357.619
28550.974
21882.811
3493.814
3476.4563
21725.592
28349.448
47049.29
147721.07
146915.31
46758.663
28164.017
21583.337
3460.5303
3446.1547
21454.522
27994.709
46487.627
146152.5
145491.46
46252.288
27842.869
21335.946
3432.6874
3420.1313
21232.197
27708.284
46039.42
144887.76
144375.02
45855.953
27588.453
21137.623
3408.0794
3396.8211
21055.792
27482.693
45688.741
143901.29
143510.14
45547.469
27389.452
20981.476
3386.1124
3376.1903
20917.994
27307.603
45417.695
143142.44
142853.49
45311.847
27236.724
20860.808
3366.9466
3358.5585
20813.413
27175.688
45214.682
142579.04
142373.37
45138.197
27123.502
20770.646
3350.8415
3344.0976
20737.232
27080.415
45069.175
142180.47
142044.4
45017.425
27044.035
20706.71
3337.9161
3332.5739
20683.895
27014.455
44969.146
141908.49
141822.37
44935.412
26989.731
20662.544
3327.6964
3323.57
20647.475
26969.874
44901.855
141726.27
141677.65
44881.461
26953.739
20632.912
3319.8505
3316.8333
20624.289
26941.957
44860.384
141617.38
141598.77
44850.792
26932.767
20615.194
3314.1424
3311.9642
20610.988
26926.373
44837.686
141559.24
141559.23
44834.857
26921.599
20605.434
3310.1303
3308.6566
20603.745
26918.356
44826.456
141531.6
141543.85
44827.93
26916.422
20600.575
3307.3458
3306.3911
20601.048
26915.842
44823.638
141528.19
141554.4
44829.67
26916.749
20600.13
3305.5659
3305.288
20604.314
26920.981
44833.479
141565.74
141636.03
44852.579
26929.398
20608.807
3305.5773
3307.1592
20616.054
26937.173
44862.868
141668.2
141604.69
44843.611
26924.433
20606.191
3306.2275
3306.6752
20602.53
26917.965
44828.485
141545.31
141554.02
44829.971
26917.167
20601.501
3307.5182
3308.7114
20602.319
26916.569
44824.688
141527
141554.71
44832.439
26919.715
20604.397
3310.1591
3312.0048
20608.201
26922.876
44832.887
141542.98
141591.26
44847.927
26930.791
20614.149
3314.205
3316.8862
20622.169
26939.212
44856.5
141602.48
141675.83
44880.573
26953.014
20632.813
3319.9961
3323.6608
20646.213
26968.191
44899.72
141717.77
141820.37
44934.61
26989.114
20662.517
3327.8279
3332.6479
20682.79
27013.051
44967.223
141898.63
142048.95
45018.907
27044.869
20707.765
3338.0922
3344.2588
20737.224
27080.479
45069.646
142178.08
142384.17
45141.503
27125.414
20772.485
3351.1135
3358.7432
20813.755
27176.211
45215.986
142580.32
142861.95
45314.496
27238.247
20862.327
3367.1081
3376.2622
20918.098
27307.777
45418.528
143143.51
143511.62
45547.868
27389.623
20981.947
3386.1275
3396.7612
21054.899
27481.55
45687.224
143893.65
144370.74
45855.01
27587.923
21137.571
3408.0613
3420.0835
21231.026
27706.778
46036.962
144874.45
145488.16
46252.088
27842.957
21336.403
3432.7473
3446.1998
21454.119
27994.128
46486.414
146142.92
146919.07
46760.765
28165.502
21584.791
3460.6875
3476.6611
21726.45
28351.248
47053.034
147728.41
148567.35
47366.027
28555.23
21885.491
3494.1365
3514.1503
22080.343
28792.087
47699.91
149333.25
150258.53
48144.688
29109.23
22333.55
3538.2562
3559.5966
22681.013
29567.453
48837.437
151643.52
154296.55
49840.767
30123.803
23059.114
3560.1555
3529.65
23302.936
30543.711
50769.133
158490.75
163678.45
51613.785
30842.6
23300.309
3527.0717
3588.913
24615.534
32224.258
53517.075
165387.86
181840.05
56674.947
33100.865
24407.772
3983.9446
3749.4989
23191.709
31096.957
52483.108
166475.25
168195.16
52166.749
30589.068
22649.925
3780.239
3819.3208
22923.311
30511.644
51380.29
162519.62
157646.34
50627.158
30268.521
22839.039
3883.6196
3895.0281
22512.846
29746.041
49593.224
154498.15
152865.18
48835.718
29268.719
22164.106
3873.5036
3846.5944
21902.848
28932.368
48348.286
151824.96
150972.14
47988.075
28682.476
21701.696
3823.8062
3803.7962
21540.068
28471.565
47659.681
150085.37
149235.29
47356.392
28280.839
21396.055
3785.2287
3768.5187
21266.507
28108.002
47075.631
148433.1
147741.57
46833.524
27954.063
21148.103
3752.8387
3738.3984
21044.488
27817.632
46614.502
147110.59
146577.16
46425.931
27696.276
20950.151
3724.4522
3711.5527
20868.275
27588.91
46253.662
146083.12
145679.49
46109.056
27494.748
20794.295
3699.3134
3688.1768
20731.241
27412.335
45976.609
145300.48
145002.79
45868.644
27341.027
20674.503
3677.7365
3668.4477
20627.498
27279.666
45769.591
144719.95
144509.33
45691.923
27227.331
20585.156
3659.8192
3652.2723
20551.166
27182.9
45619.499
144302.24
144160.75
45566.001
27145.771
20520.46
3645.3474
3639.427
20496.878
27114.793
45514.621
144012.82
143924.9
45479.98
27089.596
20475.389
3634.0356
3629.5849
20460.085
27069.243
45445.202
143824.02
143776.09
45424.818
27053.142
20445.689
3625.5041
3622.2486
20436.48
27040.505
45401.939
143708.24
143688
45391.515
27030.802
20427.118
3619.2368
3617.0972
20423.045
27024.691
45378.999
143651.19
143653.83
45376.907
27020.321
20417.854
3614.9923
3613.5172
20416.52
27017.589
45369.28
143628.39
143648.3
45372.82
27016.752
20414.145
3612.1049
3611.2853
20416.077
27018.22
45372.056
143644.61
143699.97
45386.297
27023.619
20418.335
3610.7157
3612.0207
20430.097
27038.531
45409.335
143780.11
144440.31
45640.408
27140.75
20466.065
3637.5327
3637.0027
20458.18
27127.898
45613.046
144337.08
144322.23
45607.515
27122.997
20454.211
3637.4314
3638.3834
20453.634
27120.563
45598.681
144282.26
144305.76
45604.763
27122.524
20454.848
3639.6308
3641.2603
20457.734
27124.634
45603.387
144288.56
144333.57
45616.625
27131.056
20462.432
3643.2259
3645.6236
20468.794
27137.503
45622.212
144337.89
144397.91
45641.336
27147.812
20476.518
3648.4027
3651.7444
20487.236
27159.897
45655.729
144426.22
144519.04
45686.182
27177.428
20500.678
3655.5944
3660.0977
20517.377
27197.121
45712.651
144582.67
144709.53
45755.623
27222.769
20537.129
3665.191
3671.0858
20561.686
27252.592
45798.062
144818.31
144996.83
45859.324
27289.935
20590.483
3677.6835
3685.1959
20625.401
27333.273
45923.2
145166.62
145415.34
46008.932
27386.099
20666.09
3693.515
3702.7752
20713.956
27446.512
46100.077
145663.09
146000.13
46216.433
27518.571
20769.298
3712.8863
3723.9166
20832.751
27599.619
46340.759
146344.51
146783.58
46492.675
27693.989
20904.917
3735.7714
3748.5346
20987.006
27799.933
46657.076
147243.71
147811.47
46853.271
27921.854
21079.824
3762.0975
3776.4967
21183.984
28057.47
47066.074
148414.78
149131.96
47313.555
28210.717
21299.906
3791.673
3808.0392
21429.035
28380.809
47584.306
149896.64
150754.89
47888.081
28568.779
21569.686
3826.1813
3846.3174
21731.515
28776.875
48203.752
151578.76
152437.33
48575.793
29029.201
21930.271
3869.8286
3896.4125
22188.467
29362.393
49056.913
153434.93
155088.45
49789.507
29808.115
22507.876
3913.842
3893.7979
22753.555
30217.629
50614.558
158025.48
162160.83
51083.542
30329.711
22737.482
3823.1464
3802.3053
23084.77
30856.363
51995.871
164425.69
170485.98
53789.277
31841.977
23769.508
3817.9058
3976.5238
24119.087
32825.491
56325.111
181312.36
5039.9445
23062.524
32455.623
56984.773
186350.94
177738.18
56388.085
33144.085
24340.102
4109.3041
3593.3768
25484.978
33637.363
55959.564
172876.36
168490.21
53639.093
32042.797
24045.607
3766.4488
3754.7831
23138.739
31139.576
52728.828
168097.79
166563.23
52070.393
30716.208
22875.23
3782.079
3832.5887
22978.409
30538.878
51277.662
161422.4
157170.88
50531.402
30236.839
22827.477
3890.4637
3897.561
22495.798
29718.934
49542.443
154341.16
152834.19
48817.468
29255.322
22154.091
3874.2468
3846.8833
21897.877
28926.442
48342.562
151834.48
150975.13
47986.16
28680.544
21700.164
3823.9976
3803.9653
21539.623
28470.579
47657.809
150080.36
149229.45
47354.693
28280.004
21395.654
3785.3649
3768.5806
21265.601
28106.779
47073.636
148426.12
147737.66
46831.776
27952.907
21147.261
3752.9038
3738.3005
21042.965
27815.655
46611.323
147101.38
146568.87
46422.755
27694.271
20948.662
3724.3676
3711.4447
20866.62
27586.76
46250.301
146073.78
145671.08
46105.984
27492.784
20792.824
3699.2345
3688.0927
20729.806
27410.429
45973.63
145292.17
144997.06
45866.375
27339.53
20673.38
3677.7187
3668.4122
20626.417
27278.271
45767.49
144714.38
144505.27
45690.267
27226.232
20584.335
3659.8193
3652.2725
20550.659
27182.205
45618.508
144300.2
144159.6
45565.413
27145.357
20520.164
3645.4283
3639.505
20496.705
27114.57
45514.367
144012.6
143924.94
45479.89
27089.515
20475.347
3634.1268
3629.7066
20460.323
27069.537
45445.782
143826.53
143779.83
45425.872
27053.759
20446.177
3625.683
3622.4532
20437.059
27041.281
45403.269
143712.64
143694.51
45393.492
27031.978
20428.023
3619.4934
3617.1653
20422.913
27024.542
45378.543
143647.82
143650.56
45375.975
27019.836
20417.542
3615.0586
3613.5255
20415.795
27016.624
45367.627
143622.84
143643.45
45371.194
27015.784
20413.456
3612.1257
3611.2549
20414.82
27016.606
45369.381
143635.85
143691.29
45383.451
27021.904
20417.086
3610.6573
3611.9013
20428.501
27036.525
45406.182
143770.65
141641.33
44853.127
26929.34
20609.284
3306.1205
3305.8843
20602.824
26918.888
44830.809
141556.26
141553.28
44828.632
26915.847
20600.078
3306.4105
3307.3556
20599.709
26913.801
44820.878
141517.61
141542.65
44827.411
26916.063
20601.088
3308.5263
3310.0553
20603.718
26917.794
44825.714
141525.61
141565.33
44837.551
26923.527
20607.873
3311.8535
3314.0941
20613.841
26929.425
44842.292
141566.24
141626.72
44861.53
26939.991
20621.893
3316.6932
3319.81
20632.252
26951.287
44874.668
141652.36
141733.48
44902.075
26967.339
20644.67
3323.3308
3327.5416
20661.062
26986.218
44926.888
141791.32
141910.31
44967.951
27011.208
20680.58
3332.3024
3337.805
20705.062
27040.432
45008.65
142011.08
142186.5
45069.574
27078.273
20734.783
3343.9615
3350.8957
20770.007
27121.248
45131.783
142348.22
142589.66
45216.22
27174.237
20811.536
3358.5203
3366.9393
20859.924
27234.102
45305.035
142828.64
143145.94
45416.855
27304.767
20915.099
3376.0126
3385.9304
20979.383
27385.306
45538.22
143477.58
143896.7
45685.765
27478.767
21052.104
3396.501
3407.8759
21135.38
27584.152
45846.434
144341.18
144882.29
46036.558
27704.622
21228.749
3419.8359
3432.5591
21334.312
27839.384
46244.203
145462.77
146147.41
46485.008
27991.371
21451.417
3445.9347
3460.4209
21581.979
28160.517
46749.882
146883.44
147718.17
47047.255
28346.676
21723.234
3476.2562
3493.7629
21881.096
28547.851
47351.904
148528.55
149330.79
47688.034
28780.61
22070.497
3513.8139
3538.464
22315.686
29086.018
48110.802
150168.8
151442.67
48771.22
29524.2
22649.206
3561.2786
3564.2228
23010.785
30041.733
49668.736
153755.88
157133.2
50524.223
30493.005
23315.744
3538.3548
3536.6751
23606.271
30979.179
51468.886
161701.54
168044.33
53508.262
32023.653
24293.812
3610.1296
4012.0951
24157.2
32980.438
56611.109
182208.82
171853.41
54011.317
31904.849
23769.68
3843.0747
3814.0642
23432.537
31024.392
51794.597
161540.79
161314.54
50786.603
30189.747
22633.706
3835.4997
3899.3764
22688.521
30131.634
50513.794
157790.4
155014.96
49734.783
29765.656
22475.142
3916.3206
3898.2051
22173.891
29343.053
49031.121
153402.97
152383.3
48556.838
29017.694
21921.911
3871.3716
3847.256
21727.374
28768.373
48186.333
151506.44
150685.83
47869.353
28559.114
21563.5
3826.5418
3808.1305
21422.923
28372.18
47569.286
149849.69
149090.69
47299.689
28202.151
21293.261
3791.3685
3776.0917
21178.81
28050.481
47054.615
148383.55
147775.74
46841.365
27914.475
21073.935
3761.4934
3747.9462
20982.609
27793.971
46647.155
147216.04
146748.19
46481.35
27687.072
20899.348
3735.0196
3723.2376
20828.697
27594.115
46331.513
146318.68
145967.28
46205.941
27512.173
20764.09
3712.1324
3702.1293
20710.446
27441.742
46091.994
145640.95
145384.47
45999.264
27380.241
20661.248
3692.7118
3684.3786
20621.354
27327.871
45913.886
145139.33
144960.59
45847.856
27283.017
20584.812
3676.6448
3669.9994
20556.663
27245.974
45786.787
144785.54
144670.44
45742.881
27214.972
20530.704
3663.9024
3658.8452
20512.202
27190.397
45701.415
144551.3
144484.36
45674.538
27170.188
20494.586
3654.2061
3650.4951
20483.292
27154.815
45647.336
144404.93
144372.3
45632.706
27142.409
20471.764
3647.0809
3644.4804
20466.057
27134.046
45616.367
144323.66
144312.94
45609.925
27126.956
20458.703
3642.0946
3640.4103
20456.856
27123.409
45601.05
144285.78
144292.3
45600.825
27120.271
20452.588
3638.7638
3637.7002
20453.059
27119.651
45596.414
144276.94
144298.25
45600.957
27119.476
20451.143
3636.6109
3636.0655
20453.895
27121.874
45601.522
144298.16
144358.94
45617.127
27127.82
20456.345
3635.9807
3637.1379
20467.988
27141.921
45638.456
144428.34
144357.64
45617.641
27128.474
20457.771
3636.4926
3637.0213
20455.281
27123.251
45604.151
144305.29
144304.04
45603.226
27121.007
20453.123
3637.8419
3639.1278
20455.072
27121.752
45599.828
144284.07
144306.38
45606.559
27124.245
20456.611
3640.633
3642.6616
20461.98
27129.383
45610.17
144306.87
144350.56
45624.301
27136.578
20467.223
3644.9894
3647.8907
20476.598
27146.785
45636.005
144375.01
144441.36
45658.3
27159.23
20485.928
3651.1444
3655.0893
20500.264
27175.792
45679.979
144493.95
144592.9
45713.884
27195.712
20515.48
3659.5105
3664.7147
20536.53
27220.912
45749.08
144683.02
144828
45799.29
27251.268
20559.875
3670.5591
3677.2826
20590.035
27288.336
45853.257
144971.29
145178.27
45925.184
27332.511
20624.071
3684.7498
3693.1781
20665.966
27384.962
46003.729
145392.23
145677.88
46102.939
27446.302
20713.097
3702.3989
3712.5923
20769.081
27517.364
46211.301
145977.89
146356.81
46343.009
27599.148
20831.726
3723.5828
3735.5337
20904.629
27692.676
46487.455
146760.91
147253.59
46658.787
27799.272
20985.938
3748.2834
3761.9934
21079.246
27920.114
46847.421
147786.77
148418.39
47066.145
28055.979
21182.356
3776.4434
3791.8781
21298.979
28208.388
47306.734
149105.11
149895.48
47582.872
28378.483
21426.835
3808.4847
3827.173
21568.516
28565.963
47880.132
150722.27
151560.76
48200.591
28774.745
21730.3
3848.0136
3872.8465
21932.132
29028.783
48567.695
152367
153371.13
49058.231
29367.31
22194.167
3901.069
3920.89
22525.757
29827.262
49801.815
154991.2
158048.11
50744.817
30275.436
22790.494
3903.0905
3829.1685
22742.186
30329.786
51088.988
162171.06
164761.83
51907.332
30753.362
22951.746
3801.2554
3814.9121
23988.379
31966.316
53684.884
168626.56
1956.4885
1238.7365
1599.7125
3590.9532
24188.713
31929.716
53443.535
168381.26
169370.18
52841.117
31101.593
23030.127
3760.7872
184131.67
56808.18
32543.569
23245.013
5051.3931
5592.6522
23451.682
32775.964
56954.121
182421.77
182633.07
57488.845
33037.689
23592.539
5617.9928
4391.2759
23507.773
32347.306
55621.776
177961.13
2728.4632
2390.8766
1359.8916
1621.6242
182.76973
191.70275
193.81468
182.77099
197.34302
197.39578
191.75405
189.29864
143801.12
45414.729
27039.275
20429.932
3613.149
3612.0263
20420.748
27024.999
45385.033
143688.05
143678.18
45380.801
27020.908
20417.461
3612.46
3613.3925
20416.633
27018.274
45371.769
143636.62
143663.85
45378.698
27020.751
20418.313
3614.6844
3616.2976
20420.73
27022.296
45376.53
143644.33
143686.63
45388.801
27028.191
20425.083
3618.2684
3620.6408
20430.713
27033.843
45392.967
143683.86
143750.55
45413.68
27045.174
20439.413
3623.5163
3626.8901
20449.612
27056.603
45426.874
143773.46
143868.22
45457.798
27074.562
20463.538
3630.8633
3635.4475
20479.948
27093.914
45483.406
143926.18
144060.25
45528.386
27120.918
20500.941
3640.7346
3646.7364
20525.487
27150.719
45570.527
144165.84
144349.42
45633.313
27189.162
20555.329
3653.5163
3661.1195
20590.253
27232.434
45696.845
144516.43
144766.23
45783.039
27285.757
20631.518
3669.5583
3678.8939
20679.291
27345.9
45873.389
145009.65
145345.93
45989.681
27418.223
20735.098
3689.1282
3700.2329
20798.453
27498.886
46112.834
145684.41
146120.89
46264.398
27593.465
20871.094
3712.1947
3724.9981
20953.341
27699.319
46428.071
146576.83
147144.68
46624.308
27821.672
21046.829
3738.6338
3753.0324
21151.163
27957.151
46836.36
147745.78
148462.27
47083.438
28110.551
21267.549
3768.2182
3784.6095
21396.775
28280.955
47354.355
149223.93
150086.62
47659.916
28470.794
21539.427
3802.5522
3821.988
21702.537
28680.321
47977.564
150920.84
151825.27
48352.986
28934.044
21902.653
3843.9903
3868.2766
22161.042
29269.114
48843.577
152890.76
154624.24
49592.954
29718.16
22481.182
3884.0203
3865.3615
22723.805
30122.291
50418.86
157613.98
161699.73
50982.711
30315.803
22769.275
3808.8911
3776.7227
23115.982
30808.838
51872.741
164218.32
169518.36
52769.627
31015.437
22959.947
3772.1547
25582.572
33786.027
56257.112
173629.52
169863.69
56175.197
34004.625
25908.239
3635.3513
4180.1287
25016.772
33702.96
56642.6
172923.02
178096.74
55338.905
32145.893
23297.479
4414.5632
3790.2119
23856.187
31900.139
53497.503
168448.52
169638.27
52819.021
31048.349
22987.104
3774.805
3779.0919
23135.104
30826.429
51887.75
164206.75
161661.3
50986.927
30327.232
22784.033
3810.4857
3868.3236
22735.753
30135.718
50433.506
157601.66
154616.18
49606.684
29729.874
22490.896
3887.1235
3871.2326
22170.494
29280.12
48857.725
152904.97
151842.17
48363.888
28941.828
21908.866
3846.1901
3823.8342
21708.568
28687.969
47989.596
150956.14
150114.44
47669.331
28476.359
21543.209
3803.9348
3785.8218
21401.238
28286.641
47363.56
149254.89
148479.38
47088.823
28113.946
21269.972
3769.0779
3753.7634
21154.001
27960.502
46841.399
147764.81
147154.41
46627.148
27823.432
21047.936
3739.1365
3725.485
20955.477
27701.784
46431.73
146591.76
146123.18
46265.239
27594.07
20871.287
3712.4088
3700.344
20798.721
27498.963
46112.341
145684.19
145333.29
45985.941
27416.103
20733.203
3688.9378
3678.7163
20678.691
27344.793
45871.127
145005.87
144752.87
45778.833
27283.243
20629.241
3669.2132
3660.8528
20589.389
27231.082
45694.227
144511.62
144336.32
45629.098
27186.622
20552.979
3653.0944
3646.4474
20525.237
27150.142
45569.178
144165.93
144051.7
45525.718
27119.356
20499.291
3640.31
3635.0964
20479.863
27093.606
45482.272
143925.37
143855.82
45454.295
27072.654
20461.634
3630.2746
3626.4085
20449.565
27056.339
45425.756
143772.88
143741.24
45411.051
27043.762
20437.823
3622.8506
3620.2001
20431.564
27034.799
45393.918
143690.29
143682.86
45388.161
27028.027
20424.414
3617.6655
3615.7763
20421.126
27022.708
45376.26
143644.06
143651.2
45375.543
27019.201
20416.649
3613.9669
3612.7642
20415.889
27017.048
45368.614
143627.1
143648.37
45372.689
27016.545
20413.788
3611.5656
3610.9597
20415.951
27018.126
45371.896
143643.92
143685.12
45382.544
27021.617
20416.859
3610.3494
3610.8483
20424.132
27030.296
45394.369
143724.72
3636.8478
20459.145
27130.085
45618.42
144360.54
144324.42
45606.967
27122.034
20453.101
3636.6184
3637.2697
20450.921
27117.518
45594.568
144272.3
144291.39
45599.062
27118.47
20451.371
3638.2728
3639.6124
20453.02
27119.043
45595.303
144267.38
144304.7
45605.788
27123.707
20456.331
3641.2369
3643.2504
20460.9
27128.013
45607.992
144298.12
144354.11
45624.896
27136.764
20467.431
3645.6236
3648.4636
20475.549
27145.538
45634.103
144367.85
144443.94
45658.567
27159.257
20486.035
3651.7555
3655.6353
20499.225
27174.467
45677.751
144485.15
144594.58
45714.288
27195.999
20515.837
3660.1389
3665.3969
20536.249
27220.537
45748.293
144678.21
144834.3
45801.185
27252.489
20560.946
3671.323
3678.0582
20590.287
27288.65
45853.515
144969.19
145187.39
45928.144
27334.402
20625.649
3685.5908
3693.975
20666.528
27385.637
46004.535
145391.83
145684.42
46105.297
27447.889
20714.457
3703.2014
3713.3226
20769.371
27517.649
46211.364
145974.42
146359.92
46344.55
27600.29
20832.752
3724.304
3736.1802
20904.677
27692.654
46487.016
146755.74
147255.04
46659.581
27799.895
20986.533
3748.8833
3762.4393
21078.621
27919.297
46845.896
147779.58
148415.74
47065.323
28055.464
21182.007
3776.755
3791.9909
21297.27
28206.202
47303.118
149090.76
149876.87
47577.71
28375.962
21425.431
3808.335
3826.605
21566.355
28561.707
47870.718
150684.71
151543.72
48194.07
28770.787
21728.136
3846.8676
3870.5787
21922.212
29017.86
48556.908
152398.08
153446.06
49034.861
29341.397
22171.18
3896.9214
3915.0553
22471.209
29760.581
49728.26
155018.98
157800.14
50506.552
30123.685
22681.282
3898.0846
3834.7576
22627.642
30181.085
50770.724
161266.75
161495.03
51781.461
31015.565
23425.346
3812.8111
3840.8799
23767.11
31899.952
53999.85
171788.43
182067.83
56611.101
32958.513
24132.963
4008.9183
3608.4662
24282.074
32014.212
53500.446
168041.05
168072.44
52708.861
31121.086
23120.308
3752.2401
3746.9871
23183.018
31079.41
52441.93
166297.84
165278.59
53508.188
32217.54
24613.402
3591.5563
3818.3871
23984.17
31965.799
53701.705
168689.71
170616.53
53833.821
31860.525
23781.618
3822.6575
3594.716
24206.738
31949.651
53477.882
168448.15
169442.34
52885.925
31136.886
23063.448
3765.9696
3773.3334
23243.835
30889.58
51859.459
163255.06
161316.68
50906.157
30297.461
22768.542
3803.6471
3862.9228
22720.634
30116.794
50404.323
157575.78
154651.8
49616.973
29732.673
22490.508
3883.6538
3868.8075
22174.54
29287.93
48873.719
152944.12
151877
48378.327
28949.964
21914.039
3844.7113
3822.873
21712.981
28694.26
47999.792
150980.24
150133.74
47676.887
28481.187
21546.751
3803.4155
3785.5216
21403.592
28289.957
47368.791
149268.69
148491.44
47092.964
28116.558
21271.881
3768.9446
3753.6867
21155.088
27962.089
46843.886
147771.2
147159.22
46628.973
27824.645
21048.856
3739.1352
3725.4764
20955.985
27702.512
46432.843
146594.32
146125.73
46266.18
27594.709
20871.798
3712.4633
3700.4328
20799.451
27499.933
46113.992
145689.85
145340.46
45988.135
27417.446
20734.244
3689.1354
3678.9104
20679.574
27346.018
45873.157
145012.03
144760.14
45781.168
27284.701
20630.375
3669.4377
3660.9531
20589.465
27231.322
45694.503
144510.87
144335.37
45628.931
27186.61
20553.014
3653.1428
3646.3508
20523.703
27148.321
45566.071
144154.02
144040.59
45522.165
27117.246
20497.74
3640.1545
3634.8968
20477.956
27091.207
45478.473
143913.72
143848
45451.419
27070.803
20460.229
3630.1342
3626.2388
20448.393
27054.827
45423.468
143766.57
143737.4
45409.542
27042.758
20437.069
3622.8151
3620.014
20429.896
27032.746
45390.596
143679.07
143672.33
45384.659
27025.879
20422.81
3617.4653
3615.5579
20419.405
27020.577
45373.016
143634.86
143644.07
45372.898
27017.485
20415.336
3613.7746
3612.6523
20414.947
27015.963
45367.224
143624.37
143647.72
45372.136
27016.074
20413.403
3611.4928
3610.7816
20414.7
27016.67
45369.614
143636.05
143679.18
45380.399
27020.234
20415.811
3610.1683
3610.5126
20422.28
27028.054
45390.853
143713.66
3613.0549
20432.398
27041.455
45414.522
143793.27
143722.04
45393.552
27028
20422.248
3611.8641
3612.3492
20419.339
27022.259
45379.127
143665.02
143669.14
45379.723
27020.972
20417.982
3613.2445
3614.5993
20419.813
27021.589
45376.113
143647.38
143674.91
45384.102
27024.815
20421.936
3616.2051
3618.2169
20426.817
27029.347
45386.689
143671.15
143717.22
45401.398
27036.957
20432.441
3620.5806
3623.5044
20441.457
27046.753
45412.265
143736.92
143810.11
45436.409
27060.381
20451.818
3626.8648
3630.8556
20465.97
27076.665
45457.512
143859.66
143962.19
45492.425
27097.281
20481.788
3635.3417
3640.6015
20502.692
27122.215
45527.088
144049.82
144195.69
45577.532
27152.841
20526.329
3646.4698
3653.2351
20556.204
27189.362
45630.475
144335.29
144539.61
45701.614
27233.211
20590.065
3660.7342
3669.185
20631.416
27284.774
45778.31
144745.58
145031.02
45877.554
27346.406
20678.978
3678.4871
3688.7463
20734.79
27417.017
45984.606
145323.91
145705.97
46117.505
27499.874
20798.525
3699.8572
3711.8803
20871.833
27593.651
46261.777
146107.46
146604.39
46434.474
27701.394
20954.261
3724.6658
3738.2885
21048.06
27822.564
46623.188
147137.77
147772.83
46842.72
27959.239
21152.002
3752.5596
3767.7081
21269.368
28112.365
47083.932
148459.85
149256.62
47363.128
28284.735
21398.977
3783.918
3801.6447
21543.047
28474.67
47662.818
150086.04
150957.49
47990.556
28687.38
21707.534
3820.696
3842.136
21908.569
28942.489
48364.923
151846
152965.49
48866.995
29279.683
22166.579
3865.122
3879.2369
22482.037
29723.06
49606.983
154679.54
157680.44
50402.827
30105.496
22708.063
3858.1194
3801.0299
22748.857
30287.247
50919.303
161470.18
163372.09
51836.603
30857.917
23208.9
3769.7938
3518.8052
23690.018
30977.642
51306.267
160472.98
156917.76
50134.64
30281.923
23184.671
3503.4423
3537.1193
22923.037
29935.216
49519.751
153885.77
151686.44
48784.77
29507.228
22624.708
3543.711
3528.3588
22321.858
29102.282
48151.996
150341.44
149410.9
47717.034
28797.069
22080.061
3507.7725
3489.8065
21890.495
28560.53
47370.518
148576.02
147759.98
47062.351
28356.318
21729.709
3473.5998
3458.6436
21588.726
28170.156
46765.33
146932.02
146188.41
46498.442
27999.686
21456.97
3444.7923
3431.8524
21340.449
27847.864
46257.374
145504.43
144917.75
46048.312
27712.119
21233.909
3419.3887
3407.6961
21141.54
27592.429
45859.075
144381.22
143930.3
45697.141
27486.138
21057.27
3396.4071
3385.9235
20985.266
27393.14
45549.951
143513.99
143175.86
45427.138
27311.523
20919.82
3375.9998
3366.9768
20865.465
27241.421
45315.881
142862.35
142617.75
45225.872
27180.608
20815.981
3358.5796
3351.0989
20776.452
27129.611
45144.425
142388.8
142220.2
45081.26
27085.913
20740.207
3344.2156
3338.2952
20712.685
27050.27
45023.593
142058.36
141948.53
44981.407
27020.04
20686.98
3332.8506
3328.2455
20668.744
26996.135
44941.738
141836.7
141769.43
44914.939
26975.87
20650.877
3324.0226
3320.5217
20639.066
26960.016
44887.409
141689.92
141652.34
44871.281
26946.674
20626.722
3317.2878
3314.7047
20620.284
26937.466
44854
141602.48
141590.2
44846.894
26929.887
20612.445
3312.4115
3310.5639
20609.068
26924.52
44835.256
141553.95
141559.6
44834.156
26920.811
20604.401
3308.8789
3307.6676
20604.289
26919.576
44829.082
141543.25
141573.77
44835.956
26920.734
20603.383
3306.6637
3306.3248
20608.785
26926.763
44843.036
141597.25
141697.26
44870.315
26939.671
20616.421
3307.1744
3307.3683
20615.616
26936.497
44861.601
141663.36
141603.54
44843.816
26924.727
20606.525
3306.4831
3307.0109
20603.945
26919.528
44830.737
141552
141557.65
44831.892
26918.598
20602.741
3307.8793
3309.1613
20604.665
26919.38
44828.752
141537.39
141567.8
44837.665
26923.237
20607.254
3310.6699
3312.5706
20612.156
26927.703
44840.404
141565.95
141607.79
44853.989
26934.734
20617.289
3314.714
3317.4036
20625.911
26943.81
44863.778
141625.34
141690.02
44885.653
26956.321
20635.446
3320.452
3324.1358
20649.25
26971.961
44905.387
141733.43
141836.59
44940.725
26993.207
20665.795
3328.3216
3333.2048
20686.862
27018.028
44974.736
141920.48
142066.97
45025.717
27049.437
20711.424
3338.6596
3344.8687
20741.612
27085.868
45077.817
142202.18
142402.58
45148.414
27130.059
20776.199
3351.6992
3359.3316
20818.041
27181.528
45224.024
142603.7
142881.08
45321.523
27242.935
20866.044
3367.6558
3376.7787
20922.081
27312.718
45426.006
143165.42
143526.9
45553.71
27393.558
20985.059
3386.5253
3397.0815
21058.176
27485.6
45693.294
143911.38
144381.68
45859.265
27590.811
21139.823
3408.2133
3420.1144
21233.316
27709.644
46041.391
144888.49
145493.14
46253.818
27844.076
21337.187
3432.5585
3445.811
21454.408
27994.532
46487.143
146147.21
146911.56
46757.564
28163.664
21583.485
3460.0516
3475.8188
21724.446
28347.85
47046.745
147714.47
148539.53
47354.561
28548.65
21881.099
3493.0559
3513.1057
22073.24
28782.973
47686.448
149301.41
150175.33
48125.252
29095.15
22322.12
3537.6117
3559.6503
22658.778
29535.871
48786.36
151474.32
153906.77
49674.228
30063.627
23029.977
3563.006
3540.8876
23367.827
30595.279
50764.46
157945.31
163539.58
51683.661
30954.447
23471.324
3539.5372
3612.826
24197.775
31945.704
53452.158
168293.48
181075.15
56426.89
32938.995
24233.969
4008.8231