/*--------------------------------*- C++ -*----------------------------------*\
  =========                 |
  \\      /  F ield         | OpenFOAM: The Open Source CFD Toolbox
   \\    /   O peration     | Website:  https://openfoam.org
    \\  /    A nd           | Version:  7
     \\/     M anipulation  |
\*---------------------------------------------------------------------------*/
FoamFile
{
    version     2.0;
    format      ascii;
    class       volScalarField;
    location    "50";
    object      p;
}
// * * * * * * * * * * * * * * * * * * * * * * * * * * * * * * * * * * * * * //

dimensions      [1 -1 -2 0 0 0 0];

internalField   nonuniform List<scalar> 
24789
(
101291.67
101291.67
101291.67
101291.67
101291.83
101289.94
101289.89
101289.89
101289.88
101289.88
101287.88
101287.88
101287.89
101287.89
101287.94
101285.82
101285.77
101285.76
101285.76
101285.76
101283.49
101283.49
101283.5
101283.51
101283.57
101281.18
101281.1
101281.09
101281.08
101281.08
101278.51
101278.52
101278.52
101278.53
101278.64
101275.94
101275.81
101275.8
101275.79
101275.78
101272.89
101272.9
101272.9
101272.91
101273.08
101270.04
101269.83
101269.82
101269.81
101269.81
101266.53
101266.54
101266.54
101266.56
101266.82
101263.38
101263.08
101263.06
101263.05
101263.04
101259.3
101259.31
101259.32
101259.34
101259.71
101255.79
101255.34
101255.32
101255.31
101255.3
101251
101251.01
101251.02
101251.05
101251.57
101246.99
101246.4
101246.36
101246.35
101246.33
101241.26
101241.27
101241.29
101241.33
101241.99
101236.56
101235.82
101235.77
101235.75
101235.73
101229.63
101229.65
101229.67
101229.73
101230.57
101223.82
101222.87
101222.81
101222.78
101222.76
101215.09
101215.12
101215.15
101215.21
101216.25
101207.77
101206.65
101206.58
101206.55
101206.52
101196.84
101196.86
101196.9
101196.98
101198.17
101187.16
101185.89
101185.8
101185.76
101185.74
101172.78
101172.79
101172.83
101172.93
101174.35
101159.04
101157.18
101157.09
101157.07
101157.07
101136.98
101136.94
101136.88
101136.97
101140.01
101116.09
101110.7
101110.64
101110.79
101110.87
101074.86
101074.8
101074.58
101074.66
101082.98
101037.58
101026.58
101026.25
101026.26
101026.16
101003.7
101004.1
101005.24
101006.95
101021.36
100946.12
100951.03
100950.42
100950.26
100949.79
100317.78
100342.9
100363.18
100385.91
100587.2
101017.52
100989.82
100982.21
100973.87
100961.39
101199.24
101212.22
101215.64
101219.93
101216.2
101402.7
101438.18
101432.92
101424.21
101408.16
101773.51
101801.27
101821.99
101837.38
101796.23
101306.14
101152.28
101134.83
101121.96
101094.58
101274.54
101276.19
101273.51
101269.3
101235.75
100909.49
100688.51
100659.45
100630.48
100594.06
100517.06
100525.55
100530.85
100539.54
100648.65
100952.07
100939.87
100938.07
100936.66
100935.75
100997.14
100997.68
100998.44
100999.73
101017.72
101036.47
101023.69
101023.55
101023.74
101023.65
101074
101073.92
101073.68
101073.74
101082.85
101116.16
101110.73
101110.69
101110.83
101110.92
101137.1
101137.06
101137.01
101137.08
101140.12
101159.04
101157.3
101157.22
101157.2
101157.21
101172.84
101172.86
101172.89
101172.97
101174.29
101187.1
101185.88
101185.8
101185.77
101185.75
101196.83
101196.85
101196.88
101196.95
101198.12
101207.71
101206.59
101206.53
101206.5
101206.48
101215.02
101215.04
101215.06
101215.12
101216.19
101223.73
101222.74
101222.68
101222.66
101222.64
101229.48
101229.5
101229.52
101229.57
101230.48
101236.52
101235.69
101235.65
101235.63
101235.61
101241.18
101241.2
101241.21
101241.25
101241.99
101247
101246.35
101246.32
101246.31
101246.3
101250.97
101250.98
101250.99
101251.02
101251.58
101255.78
101255.31
101255.28
101255.27
101255.26
101259.27
101259.27
101259.28
101259.3
101259.71
101263.38
101263.04
101263.02
101263.01
101263.01
101266.51
101266.51
101266.52
101266.53
101266.82
101270.05
101269.81
101269.8
101269.79
101269.78
101272.87
101272.87
101272.88
101272.89
101273.08
101275.94
101275.78
101275.77
101275.77
101275.77
101278.5
101278.5
101278.5
101278.51
101278.64
101281.18
101281.08
101281.07
101281.07
101281.07
101283.49
101283.49
101283.49
101283.5
101283.57
101285.82
101285.77
101285.77
101285.76
101285.76
101287.88
101287.88
101287.88
101287.89
101287.94
101289.95
101289.92
101289.92
101289.91
101289.91
101291.67
101291.66
101291.65
101291.66
101291.82
101289.92
101289.71
101289.71
101289.71
101289.72
101287.86
101287.87
101287.87
101287.87
101287.92
101285.79
101285.72
101285.72
101285.72
101285.72
101283.48
101283.48
101283.48
101283.49
101283.56
101281.17
101281.08
101281.07
101281.07
101281.07
101278.5
101278.51
101278.51
101278.52
101278.64
101275.95
101275.8
101275.79
101275.78
101275.78
101272.88
101272.88
101272.89
101272.9
101273.09
101270.06
101269.82
101269.81
101269.8
101269.8
101266.52
101266.53
101266.53
101266.55
101266.83
101263.39
101263.05
101263.03
101263.03
101263.02
101259.28
101259.28
101259.29
101259.31
101259.71
101255.77
101255.31
101255.28
101255.27
101255.26
101250.97
101250.98
101250.99
101251.02
101251.56
101247
101246.37
101246.33
101246.32
101246.31
101241.2
101241.21
101241.23
101241.27
101241.98
101236.5
101235.69
101235.65
101235.63
101235.61
101229.48
101229.5
101229.52
101229.56
101230.47
101223.72
101222.73
101222.67
101222.65
101222.63
101214.99
101215.02
101215.04
101215.1
101216.18
101207.68
101206.54
101206.48
101206.45
101206.43
101196.78
101196.8
101196.83
101196.9
101198.07
101187.04
101185.86
101185.78
101185.75
101185.72
101172.88
101172.9
101172.93
101173.01
101174.26
101159.07
101157.47
101157.39
101157.38
101157.38
101137.59
101137.55
101137.5
101137.57
101140.32
101116.36
101111.09
101111.05
101111.21
101111.31
101075.14
101075.03
101074.76
101074.77
101083.73
101036.52
101023.59
101023.44
101023.65
101023.6
100991.13
100991.7
100992.34
100993.43
101009.75
100973.37
100958.02
100955.66
100953.83
100952.55
100614.89
100621.29
100623.92
100629.43
100694.11
100688.56
100280.66
100236.11
100195.11
100142.82
102019.91
101998.62
101977.21
101950.18
101654.98
101247.15
101133.53
101115.73
101101.97
101076.4
101733.72
101767.52
101788.56
101805.68
101739.21
101435.66
101522.06
101530.91
101537.73
101536.96
101903.23
101886.55
101868.78
101844.95
101628.01
100693.98
100373.94
100331.01
100289.01
100236.66
100556.99
100566.89
100572.74
100581.19
100660.85
100960.58
100951.5
100949.18
100947.8
100946.69
100992.6
100992.99
100993.62
100994.7
101006.42
101035.51
101025.85
101025.75
101025.95
101025.95
101076.76
101076.64
101076.36
101076.36
101083.53
101116.4
101112.05
101112.01
101112.18
101112.29
101138.2
101138.15
101138.11
101138.17
101140.41
101158.99
101157.71
101157.62
101157.6
101157.61
101172.97
101172.99
101173.03
101173.13
101174.18
101186.97
101185.94
101185.85
101185.8
101185.77
101196.8
101196.83
101196.87
101196.96
101198
101207.61
101206.61
101206.53
101206.49
101206.46
101215.04
101215.06
101215.1
101215.17
101216.1
101223.64
101222.77
101222.71
101222.68
101222.66
101229.5
101229.52
101229.55
101229.6
101230.39
101236.46
101235.74
101235.69
101235.67
101235.65
101241.26
101241.28
101241.3
101241.34
101241.97
101246.96
101246.42
101246.38
101246.36
101246.35
101250.97
101250.99
101251
101251.03
101251.51
101255.73
101255.32
101255.29
101255.28
101255.27
101259.29
101259.29
101259.31
101259.33
101259.68
101263.36
101263.07
101263.05
101263.04
101263.03
101266.52
101266.53
101266.54
101266.56
101266.8
101270.03
101269.83
101269.82
101269.81
101269.81
101272.88
101272.89
101272.89
101272.91
101273.07
101275.93
101275.8
101275.79
101275.78
101275.78
101278.51
101278.51
101278.52
101278.53
101278.63
101281.16
101281.08
101281.08
101281.07
101281.07
101283.48
101283.48
101283.48
101283.49
101283.55
101285.77
101285.72
101285.71
101285.71
101285.71
101287.84
101287.84
101287.85
101287.86
101287.9
101289.89
101289.71
101289.71
101289.71
101289.72
101289.72
101289.72
101289.71
101289.72
101289.89
101287.9
101287.86
101287.85
101287.85
101287.85
101285.7
101285.7
101285.7
101285.71
101285.77
101283.54
101283.48
101283.47
101283.47
101283.47
101281.06
101281.07
101281.07
101281.08
101281.16
101278.63
101278.53
101278.52
101278.52
101278.51
101275.79
101275.8
101275.8
101275.81
101275.94
101273.08
101272.91
101272.9
101272.89
101272.89
101269.82
101269.82
101269.83
101269.84
101270.05
101266.82
101266.57
101266.55
101266.54
101266.54
101263.04
101263.04
101263.05
101263.07
101263.38
101259.71
101259.35
101259.32
101259.31
101259.3
101255.29
101255.3
101255.31
101255.34
101255.77
101251.54
101251.05
101251.02
101251
101250.99
101246.34
101246.36
101246.37
101246.41
101246.97
101241.95
101241.31
101241.27
101241.25
101241.23
101235.71
101235.73
101235.75
101235.8
101236.51
101230.53
101229.7
101229.65
101229.63
101229.61
101222.76
101222.78
101222.81
101222.87
101223.8
101216.23
101215.21
101215.14
101215.11
101215.09
101206.49
101206.51
101206.55
101206.62
101207.73
101198.12
101196.93
101196.85
101196.81
101196.79
101185.69
101185.72
101185.76
101185.85
101187.11
101174.33
101172.95
101172.85
101172.81
101172.79
101157.24
101157.24
101157.26
101157.37
101159.13
101140.27
101137.38
101137.29
101137.34
101137.38
101111.34
101111.26
101111.1
101111.17
101116.46
101083.56
101075.16
101075.1
101075.35
101075.43
101026.95
101027.05
101027.01
101027.29
101037.72
101019.1
101006.83
101005.21
101004.09
101003.53
100947.87
100949.27
100951.36
100953.91
100958.85
100610.66
100468.31
100452.44
100439.87
100422.27
100675.6
100704.05
100723.31
100743.97
100908.2
101453.33
101608.14
101616.9
101621.41
101621.27
101235.64
101253.24
101259.87
101265.51
101293.55
101822.04
101861.8
101846.68
101827.54
101798.35
102210.65
102442.21
102472.11
102493.46
102502.3
102575.87
102567.91
102560.71
102536.55
102134.85
101922.04
102021.69
102016.51
102007.51
101986.06
101821.94
101828.94
101831.61
101829.43
101720.94
101536.76
101669.05
101682.93
101692.61
101701.11
101463.45
101472.76
101478.11
101478.52
101433.52
100750.58
100548.24
100520.46
100494.93
100455.85
100536.58
100546.62
100553.37
100563.14
100659.2
100957
100946.43
100944.15
100942.76
100941.65
100993.55
100993.95
100994.54
100995.56
101007.54
101035.64
101025.9
101025.81
101026.04
101026.05
101076.79
101076.67
101076.41
101076.41
101083.43
101116.37
101112.04
101111.99
101112.14
101112.24
101138.06
101138.01
101137.97
101138.04
101140.35
101158.99
101157.65
101157.56
101157.54
101157.55
101172.97
101172.99
101173.03
101173.12
101174.2
101186.98
101185.94
101185.85
101185.81
101185.77
101196.82
101196.85
101196.89
101196.98
101198
101207.6
101206.61
101206.53
101206.49
101206.46
101215.02
101215.05
101215.08
101215.15
101216.09
101223.64
101222.77
101222.71
101222.68
101222.65
101229.49
101229.51
101229.54
101229.6
101230.39
101236.46
101235.75
101235.7
101235.68
101235.66
101241.25
101241.26
101241.29
101241.33
101241.96
101246.95
101246.4
101246.37
101246.35
101246.34
101250.98
101250.99
101251
101251.03
101251.51
101255.73
101255.32
101255.29
101255.28
101255.26
101259.28
101259.29
101259.3
101259.33
101259.68
101263.36
101263.07
101263.05
101263.03
101263.03
101266.53
101266.54
101266.55
101266.57
101266.81
101270.03
101269.83
101269.82
101269.81
101269.8
101272.88
101272.89
101272.9
101272.91
101273.07
101275.93
101275.8
101275.79
101275.79
101275.78
101278.51
101278.51
101278.52
101278.53
101278.63
101281.17
101281.09
101281.08
101281.08
101281.07
101283.49
101283.49
101283.5
101283.5
101283.56
101285.79
101285.74
101285.74
101285.73
101285.73
101287.87
101287.88
101287.88
101287.89
101287.92
101289.91
101289.74
101289.74
101289.74
101289.75
101289.69
101289.69
101289.69
101289.69
101289.89
101287.93
101287.88
101287.87
101287.87
101287.87
101285.73
101285.73
101285.73
101285.74
101285.81
101283.57
101283.5
101283.49
101283.49
101283.48
101281.07
101281.07
101281.08
101281.08
101281.18
101278.64
101278.52
101278.51
101278.51
101278.51
101275.78
101275.78
101275.79
101275.8
101275.95
101273.09
101272.9
101272.89
101272.88
101272.88
101269.8
101269.81
101269.81
101269.82
101270.06
101266.83
101266.55
101266.53
101266.52
101266.52
101263.02
101263.03
101263.04
101263.05
101263.39
101259.72
101259.32
101259.3
101259.29
101259.28
101255.27
101255.28
101255.29
101255.32
101255.79
101251.58
101251.03
101251
101250.98
101250.98
101246.31
101246.32
101246.33
101246.36
101247
101241.99
101241.26
101241.22
101241.21
101241.2
101235.63
101235.64
101235.66
101235.7
101236.53
101230.49
101229.57
101229.52
101229.5
101229.49
101222.65
101222.67
101222.69
101222.74
101223.74
101216.19
101215.12
101215.06
101215.04
101215.01
101206.47
101206.49
101206.52
101206.58
101207.71
101198.1
101196.94
101196.87
101196.84
101196.82
101185.77
101185.79
101185.82
101185.9
101187.1
101174.31
101173
101172.92
101172.89
101172.87
101157.26
101157.26
101157.27
101157.35
101159.08
101140.21
101137.34
101137.27
101137.31
101137.35
101111.28
101111.19
101111.06
101111.11
101116.32
101083.35
101074.91
101074.88
101075.11
101075.2
101023.99
101024.05
101023.85
101024.04
101036.96
101015
100997.6
100996.45
100995.83
100995.2
100944.9
100946.53
100948.14
100950.26
100963.85
100666.86
100565.67
100556.66
100550.85
100542.12
100513.78
100548.71
100574.89
100603.37
100849.28
101302.81
101382.83
101385.49
101386.58
101379.22
101059.88
101092.74
101120.4
101146.55
101342.38
101895.59
102329.82
102376.16
102414.19
102450.96
101335.01
101356.95
101372.09
101382.88
101408.57
101141.7
101093.97
101082.8
101073.44
101049.48
101108.35
101110.07
101109.27
101107.24
101067.9
100585.62
100354.07
100327.14
100303.32
100274.11
100955.97
100956.16
100956.32
100956.91
100949.55
101022.11
101009.1
101007.38
101006.19
101005.83
101027.57
101027.67
101027.7
101028.09
101038.41
101083.54
101075.49
101075.37
101075.55
101075.59
101111.02
101110.95
101110.8
101110.87
101116.28
101140.12
101137.03
101136.95
101137
101137.04
101157.13
101157.13
101157.14
101157.24
101159.1
101174.38
101172.98
101172.88
101172.84
101172.83
101185.76
101185.79
101185.83
101185.92
101187.16
101198.16
101196.99
101196.91
101196.87
101196.85
101206.53
101206.55
101206.59
101206.66
101207.76
101216.25
101215.22
101215.16
101215.12
101215.1
101222.77
101222.79
101222.82
101222.88
101223.81
101230.57
101229.73
101229.67
101229.65
101229.63
101235.75
101235.76
101235.79
101235.83
101236.56
101241.98
101241.33
101241.29
101241.27
101241.26
101246.34
101246.35
101246.37
101246.4
101246.98
101251.56
101251.06
101251.03
101251.01
101251
101255.3
101255.31
101255.32
101255.35
101255.78
101259.71
101259.35
101259.32
101259.31
101259.3
101263.04
101263.05
101263.06
101263.08
101263.38
101266.82
101266.57
101266.55
101266.54
101266.53
101269.81
101269.82
101269.82
101269.84
101270.05
101273.08
101272.91
101272.9
101272.89
101272.89
101275.79
101275.8
101275.8
101275.81
101275.95
101278.64
101278.54
101278.53
101278.52
101278.52
101281.08
101281.09
101281.09
101281.1
101281.18
101283.57
101283.51
101283.5
101283.5
101283.5
101285.75
101285.75
101285.75
101285.76
101285.81
101287.93
101287.9
101287.9
101287.89
101287.89
101289.72
101289.71
101289.71
101289.72
101289.87
101289.89
101289.71
101289.71
101289.71
101289.71
101287.85
101287.85
101287.86
101287.86
101287.91
101285.78
101285.72
101285.71
101285.71
101285.71
101283.48
101283.48
101283.48
101283.49
101283.55
101281.17
101281.09
101281.08
101281.07
101281.07
101278.52
101278.52
101278.53
101278.54
101278.64
101275.95
101275.82
101275.8
101275.8
101275.79
101272.91
101272.91
101272.92
101272.93
101273.09
101270.05
101269.84
101269.83
101269.82
101269.81
101266.54
101266.55
101266.56
101266.57
101266.83
101263.39
101263.09
101263.07
101263.06
101263.05
101259.31
101259.32
101259.33
101259.35
101259.72
101255.78
101255.35
101255.32
101255.31
101255.3
101251.01
101251.02
101251.03
101251.06
101251.56
101246.98
101246.41
101246.37
101246.35
101246.34
101241.26
101241.28
101241.3
101241.34
101241.97
101236.53
101235.81
101235.76
101235.74
101235.72
101229.63
101229.65
101229.67
101229.73
101230.55
101223.82
101222.89
101222.83
101222.8
101222.78
101215.11
101215.14
101215.17
101215.23
101216.26
101207.76
101206.64
101206.57
101206.54
101206.51
101196.81
101196.84
101196.87
101196.95
101198.14
101187.11
101185.87
101185.78
101185.74
101185.71
101172.8
101172.82
101172.86
101172.96
101174.31
101159.06
101157.35
101157.25
101157.23
101157.23
101137.35
101137.31
101137.26
101137.34
101140.16
101116.27
101110.96
101110.9
101111.07
101111.16
101075.13
101075.06
101074.82
101074.9
101083.62
101036.98
101026.06
101025.75
101025.79
101025.66
100998.42
100999.04
101000.18
101001.86
101014.42
100967.16
100962.36
100959.9
100958.19
100956.89
100484.76
100499.49
100509.99
100522.75
100635.74
100767.37
100517.27
100485.7
100458.26
100418.84
101929.64
101914.66
101897.5
101874.14
101631.63
101191.31
101108.4
101096.57
101088.35
101066.96
101409.85
101254.32
101345.91
101321.33
101188.54
101170.16
101152.68
101125.16
101707.32
101700.21
101690.81
101677.65
101565.77
102130.37
102137.01
102136.64
102126.03
102048.04
101726.57
101843.54
101845.13
101841.28
101819.14
101327.85
101362.45
101377.14
101393.35
101464.55
101730.32
101833.98
101843.06
101846.7
101847.04
101780.47
102083.6
101626.28
101735.28
101311.22
101315.18
101306.61
101311.22
101307.18
101305.46
101307.12
101307.56
101289.62
101289.62
101289.61
101289.62
101289.82
101287.85
101287.79
101287.78
101287.78
101287.77
101285.64
101285.64
101285.65
101285.65
101285.72
101283.5
101283.44
101283.43
101283.43
101283.42
101281.02
101281.03
101281.03
101281.04
101281.12
101278.6
101278.49
101278.48
101278.48
101278.47
101275.75
101275.76
101275.76
101275.77
101275.91
101273.04
101272.88
101272.87
101272.86
101272.85
101269.78
101269.78
101269.79
101269.81
101270.01
101266.79
101266.54
101266.52
101266.51
101266.51
101263
101263.01
101263.02
101263.04
101263.34
101259.65
101259.3
101259.27
101259.26
101259.25
101255.23
101255.24
101255.25
101255.28
101255.7
101251.48
101251
101250.97
101250.96
101250.94
101246.31
101246.32
101246.34
101246.38
101246.92
101241.92
101241.28
101241.24
101241.22
101241.2
101235.59
101235.61
101235.64
101235.68
101236.4
101230.33
101229.52
101229.47
101229.44
101229.42
101222.59
101222.61
101222.64
101222.7
101223.59
101216.04
101215.08
101215.01
101214.98
101214.95
101206.37
101206.4
101206.44
101206.52
101207.54
101197.93
101196.85
101196.77
101196.73
101196.69
101185.67
101185.7
101185.74
101185.83
101186.92
101174.14
101173.02
101172.93
101172.88
101172.86
101157.53
101157.52
101157.53
101157.62
101159
101140.39
101138.02
101137.96
101138.01
101138.06
101112.32
101112.23
101112.07
101112.11
101116.53
101083.06
101076.49
101076.47
101076.68
101076.76
101027.74
101027.77
101027.72
101027.94
101036.44
101019.27
101009.66
101008.31
101007.35
101006.99
100933.72
100934.92
100936.38
100938.24
100938.91
100589.7
100392.57
100372.74
100356.39
100334.65
101096.11
101102.5
101102.28
101102.18
101075.54
101070.08
100940.57
100922.2
100906.33
100873.61
101587.98
101591.69
101596.54
101595.06
101566.28
101932.39
101938.15
101942.49
101932.87
101734.87
101756.61
101759.19
101763.65
101644.67
101633.33
101736.34
101724.64
101712.9
101684.7
102779.04
102730.3
102687.17
102630.96
102198.95
102076.41
102371.88
102397.46
102415.06
102433.34
101588.9
101592.73
101597.78
101596.43
101565.58
101068.16
100940.66
100922.2
100906.04
100873.09
101094.62
101101.08
101101.01
101101.06
101073.8
100587.54
100390.63
100370.67
100354.18
100332.44
100930.96
100932.28
100933.89
100935.86
100937.09
101017.64
101007.47
101006.09
101005.14
101004.74
101025.71
101025.75
101025.69
101025.92
101035.19
101082.4
101075.29
101075.27
101075.5
101075.59
101111.64
101111.54
101111.37
101111.41
101116.11
101140.21
101137.73
101137.67
101137.73
101137.78
101157.55
101157.54
101157.55
101157.64
101159.06
101174.19
101173.09
101173
101172.96
101172.94
101185.76
101185.79
101185.83
101185.92
101186.98
101197.99
101196.94
101196.86
101196.82
101196.79
101206.45
101206.48
101206.52
101206.59
101207.6
101216.08
101215.14
101215.07
101215.03
101215.01
101222.64
101222.67
101222.7
101222.76
101223.63
101230.39
101229.58
101229.53
101229.5
101229.48
101235.65
101235.67
101235.69
101235.74
101236.46
101241.96
101241.31
101241.27
101241.24
101241.23
101246.35
101246.36
101246.38
101246.41
101246.97
101251.52
101251.04
101251.01
101250.99
101250.98
101255.27
101255.28
101255.29
101255.32
101255.73
101259.67
101259.31
101259.29
101259.28
101259.27
101263.02
101263.03
101263.04
101263.06
101263.35
101266.79
101266.54
101266.52
101266.51
101266.5
101269.78
101269.79
101269.8
101269.81
101270.02
101273.05
101272.88
101272.87
101272.86
101272.85
101275.76
101275.77
101275.77
101275.78
101275.92
101278.61
101278.51
101278.5
101278.49
101278.49
101281.06
101281.06
101281.07
101281.07
101281.15
101283.55
101283.49
101283.48
101283.47
101283.47
101285.74
101285.75
101285.75
101285.76
101285.8
101287.92
101287.87
101287.87
101287.86
101287.86
101289.91
101289.91
101289.92
101289.92
101289.94
101291.79
101291.66
101291.66
101291.66
101291.67
101289.79
101289.63
101289.62
101289.62
101289.63
101287.79
101287.79
101287.8
101287.8
101287.85
101285.73
101285.67
101285.67
101285.66
101285.66
101283.43
101283.43
101283.43
101283.44
101283.51
101281.13
101281.05
101281.04
101281.04
101281.03
101278.48
101278.48
101278.49
101278.5
101278.6
101275.91
101275.79
101275.78
101275.77
101275.76
101272.87
101272.87
101272.88
101272.89
101273.06
101270.02
101269.82
101269.8
101269.79
101269.79
101266.5
101266.5
101266.51
101266.53
101266.79
101263.35
101263.04
101263.02
101263.01
101263.01
101259.26
101259.27
101259.28
101259.31
101259.67
101255.74
101255.31
101255.28
101255.26
101255.26
101250.96
101250.97
101250.98
101251.01
101251.52
101246.94
101246.36
101246.32
101246.31
101246.29
101241.18
101241.2
101241.22
101241.26
101241.92
101236.45
101235.71
101235.66
101235.64
101235.62
101229.53
101229.55
101229.57
101229.63
101230.47
101223.76
101222.81
101222.74
101222.71
101222.69
101215
101215.03
101215.06
101215.13
101216.18
101207.67
101206.54
101206.46
101206.43
101206.4
101196.69
101196.72
101196.76
101196.84
101198.05
101187.01
101185.73
101185.64
101185.59
101185.56
101172.62
101172.64
101172.68
101172.78
101174.23
101158.97
101157.1
101157
101156.98
101156.98
101137.23
101137.19
101137.15
101137.23
101140.16
101116.52
101111.47
101111.4
101111.53
101111.6
101076.65
101076.61
101076.44
101076.55
101084.16
101039.32
101029.71
101029.38
101029.36
101029.27
101007.52
101007.86
101009.01
101010.68
101023.31
100950.61
100957.98
100957.44
100957.34
100957.16
100277.31
100306.45
100330.19
100356.99
100587.66
101069.87
101109.36
101111.39
101112.18
101110.46
101051.96
101075.94
101085.32
101096.53
101143.71
101410.49
101385.69
101374.91
101359.73
101337.87
102451.09
102414.31
102376.11
102329.68
101896.72
101342.22
101144.41
101118.3
101090.78
101058.16
101696.18
101687.95
101678.42
101664.79
101535.95
101436.14
101520.19
101528.65
101535.01
101533.98
101077.36
101102.99
101116.67
101134.45
101248.63
101189.41
101104.13
101092.42
101084.31
101062.87
101236.04
101253.67
101260.18
101265.69
101293.52
101321.08
101189.62
101171.05
101153.33
101125.75
101712.26
101705.23
101696.12
101683.13
101566.8
101090.43
100982.38
100961.59
100939.8
100905.79
101065.75
101072.07
101073.52
101075.46
101070.81
100579.42
100382.95
100363.18
100347
100324.38
100933.28
100934.89
100936.69
100938.57
100938.33
101017.86
101007.63
101006.21
101005.21
101004.75
101025.51
101025.56
101025.51
101025.75
101034.93
101082.34
101075.32
101075.3
101075.52
101075.61
101111.63
101111.53
101111.36
101111.4
101116.11
101140.19
101137.72
101137.65
101137.71
101137.76
101157.52
101157.51
101157.52
101157.61
101159.03
101174.16
101173.06
101172.97
101172.93
101172.91
101185.74
101185.77
101185.81
101185.9
101186.96
101197.97
101196.92
101196.84
101196.8
101196.77
101206.43
101206.46
101206.5
101206.57
101207.59
101216.07
101215.12
101215.05
101215.02
101214.99
101222.64
101222.66
101222.69
101222.75
101223.63
101230.38
101229.58
101229.52
101229.5
101229.48
101235.64
101235.66
101235.68
101235.73
101236.46
101241.96
101241.33
101241.28
101241.26
101241.25
101246.35
101246.36
101246.38
101246.42
101246.97
101251.52
101251.04
101251.01
101251
101250.98
101255.26
101255.27
101255.28
101255.31
101255.72
101259.66
101259.31
101259.28
101259.27
101259.26
101263
101263
101263.02
101263.04
101263.34
101266.78
101266.53
101266.52
101266.5
101266.5
101269.77
101269.78
101269.79
101269.81
101270.01
101273.05
101272.89
101272.87
101272.87
101272.86
101275.75
101275.76
101275.76
101275.77
101275.91
101278.61
101278.5
101278.49
101278.49
101278.48
101281.05
101281.06
101281.06
101281.07
101281.15
101283.54
101283.48
101283.48
101283.47
101283.47
101285.75
101285.76
101285.76
101285.76
101285.81
101287.92
101287.88
101287.88
101287.88
101287.87
101289.92
101289.92
101289.92
101289.93
101289.94
101291.75
101291.59
101291.59
101291.6
101291.6
101289.87
101289.69
101289.69
101289.69
101289.7
101287.82
101287.82
101287.83
101287.83
101287.88
101285.74
101285.69
101285.68
101285.68
101285.67
101283.45
101283.45
101283.45
101283.46
101283.52
101281.14
101281.06
101281.05
101281.04
101281.04
101278.49
101278.49
101278.5
101278.51
101278.61
101275.91
101275.78
101275.77
101275.76
101275.76
101272.87
101272.88
101272.88
101272.9
101273.06
101270.02
101269.82
101269.81
101269.8
101269.79
101266.51
101266.52
101266.53
101266.55
101266.79
101263.35
101263.05
101263.03
101263.02
101263.01
101259.27
101259.28
101259.29
101259.32
101259.66
101255.71
101255.3
101255.27
101255.25
101255.24
101250.95
101250.96
101250.98
101251.01
101251.48
101246.93
101246.39
101246.35
101246.34
101246.32
101241.23
101241.24
101241.26
101241.31
101241.93
101236.42
101235.7
101235.65
101235.63
101235.61
101229.46
101229.48
101229.51
101229.56
101230.35
101223.6
101222.73
101222.66
101222.64
101222.61
101214.98
101215.01
101215.04
101215.11
101216.05
101207.56
101206.55
101206.47
101206.44
101206.41
101196.74
101196.77
101196.81
101196.9
101197.95
101186.94
101185.87
101185.78
101185.74
101185.71
101172.9
101172.92
101172.96
101173.05
101174.16
101159.01
101157.59
101157.51
101157.5
101157.5
101137.96
101137.91
101137.86
101137.93
101140.37
101116.43
101111.91
101111.87
101112.01
101112.1
101076.67
101076.6
101076.41
101076.44
101082.86
101035.96
101027.61
101027.36
101027.37
101027.32
101006.9
101007.3
101008.29
101009.7
101019.32
100940.19
100941.16
100939.36
100937.78
100936.19
100325.74
100348.23
100364.34
100383.86
100581.08
101071.89
101075.61
101074.19
101073.15
101066.98
100902.12
100935.88
100957.14
100977.61
101089.76
101224.31
101188.36
101180.86
101171.13
101155.68
100811.44
100832.72
100845.28
100860.16
100967.5
100646.09
100486.31
100472.05
100461.1
100445.9
100940.34
100941.37
100942.81
100944.61
100955.67
101018.72
101003.72
101002.54
101001.85
101001.42
101025.65
101025.72
101025.59
101025.76
101036.98
101083.11
101074.75
101074.7
101074.91
101074.98
101111.23
101111.15
101111.01
101111.06
101116.36
101140.25
101137.34
101137.27
101137.31
101137.34
101157.29
101157.29
101157.31
101157.39
101159.09
101174.28
101172.97
101172.89
101172.86
101172.84
101185.72
101185.74
101185.77
101185.85
101187.06
101198.07
101196.89
101196.82
101196.8
101196.77
101206.43
101206.45
101206.48
101206.54
101207.67
101216.16
101215.09
101215.04
101215.01
101214.99
101222.63
101222.65
101222.67
101222.72
101223.72
101230.45
101229.54
101229.5
101229.48
101229.46
101235.59
101235.61
101235.63
101235.67
101236.48
101241.96
101241.25
101241.21
101241.2
101241.18
101246.3
101246.31
101246.32
101246.36
101246.99
101251.56
101251.02
101250.99
101250.98
101250.97
101255.26
101255.27
101255.28
101255.3
101255.77
101259.71
101259.31
101259.29
101259.28
101259.27
101263.02
101263.02
101263.03
101263.05
101263.39
101266.83
101266.55
101266.53
101266.53
101266.52
101269.8
101269.8
101269.81
101269.82
101270.05
101273.09
101272.9
101272.89
101272.88
101272.88
101275.77
101275.78
101275.78
101275.79
101275.94
101278.63
101278.51
101278.5
101278.5
101278.5
101281.05
101281.05
101281.05
101281.06
101281.16
101283.54
101283.46
101283.45
101283.45
101283.45
101285.67
101285.67
101285.67
101285.68
101285.76
101287.89
101287.82
101287.82
101287.81
101287.81
101289.64
101289.63
101289.63
101289.63
101289.88
101289.83
101289.61
101289.6
101289.61
101289.61
101287.79
101287.79
101287.8
101287.8
101287.86
101285.74
101285.66
101285.66
101285.65
101285.65
101283.43
101283.43
101283.43
101283.44
101283.52
101281.14
101281.04
101281.03
101281.03
101281.03
101278.48
101278.48
101278.48
101278.49
101278.61
101275.92
101275.77
101275.76
101275.76
101275.75
101272.86
101272.86
101272.87
101272.88
101273.07
101270.03
101269.8
101269.79
101269.78
101269.78
101266.5
101266.5
101266.51
101266.53
101266.81
101263.37
101263.03
101263.01
101263.01
101263
101259.26
101259.26
101259.27
101259.29
101259.69
101255.75
101255.28
101255.26
101255.25
101255.24
101250.95
101250.96
101250.97
101251
101251.54
101246.97
101246.34
101246.31
101246.29
101246.28
101241.15
101241.17
101241.18
101241.22
101241.94
101236.45
101235.63
101235.59
101235.57
101235.55
101229.41
101229.43
101229.45
101229.5
101230.42
101223.68
101222.67
101222.62
101222.6
101222.58
101214.94
101214.96
101214.99
101215.05
101216.13
101207.63
101206.49
101206.42
101206.39
101206.37
101196.7
101196.73
101196.76
101196.83
101198.02
101186.99
101185.78
101185.71
101185.67
101185.64
101172.78
101172.8
101172.83
101172.92
101174.23
101159.05
101157.36
101157.27
101157.26
101157.26
101137.51
101137.47
101137.43
101137.5
101140.35
101116.56
101111.43
101111.38
101111.52
101111.61
101075.31
101075.22
101074.99
101075.03
101083.58
101037.82
101025.79
101025.67
101025.85
101025.79
100999.45
101000
101000.72
101001.96
101019.31
100953.65
100941.5
100939.76
100938.41
100937.51
100521.22
100529.71
100535.1
100543.86
100651.94
100912.58
100692.38
100663.31
100634.35
100597.94
101276.94
101278.67
101276.06
101271.98
101238.9
101307.38
101154.9
101137.49
101124.63
101097.33
101773.71
101801.41
101822.11
101837.52
101798.26