/*--------------------------------*- C++ -*----------------------------------*\
  =========                 |
  \\      /  F ield         | OpenFOAM: The Open Source CFD Toolbox
   \\    /   O peration     | Website:  https://openfoam.org
    \\  /    A nd           | Version:  7
     \\/     M anipulation  |
\*---------------------------------------------------------------------------*/
FoamFile
{
    version     2.0;
    format      ascii;
    class       surfaceScalarField;
    location    "50";
    object      phi;
}
// * * * * * * * * * * * * * * * * * * * * * * * * * * * * * * * * * * * * * //

dimensions      [1 0 -1 0 0 0 0];

internalField   nonuniform List<scalar> 
74673
(
-1.3515898e-07
-0.0024343538
-2.1734824e-07
-2.743971e-07
-0.0028610349
-2.4637948e-07
-4.0109255e-07
-0.0032248397
-2.7028414e-07
-5.0511673e-07
-0.003599769
-2.9419673e-07
-0.057109002
-4.4799471e-06
8.2458167e-07
-1.0003719e-08
-0.05710886
-4.0674503e-06
2.4675025e-06
1.4675905e-06
1.1305285e-08
-0.0035998138
-2.7525055e-07
2.9899015e-07
3.022403e-08
-0.0032248824
-2.5500264e-07
2.7906433e-07
3.6502433e-08
-0.0028610658
-2.3268076e-07
2.58055e-07
-0.0024343457
-2.0290896e-07
2.313137e-07
-1.7282602e-09
-0.0024343582
-1.3232753e-07
1.4705194e-07
1.5496071e-08
-0.0028610988
-1.5309671e-07
1.6901766e-07
4.4243831e-08
-0.0032249279
-1.6915081e-07
1.8593764e-07
7.4462029e-08
-0.0035998618
-1.845868e-07
2.0230106e-07
-0.057109113
-2.9436399e-06
1.8865924e-06
1.3849676e-06
-1.4832388e-07
-0.057109669
-1.8211373e-06
1.2462068e-06
1.2783552e-06
-9.7794326e-08
-0.0035999312
-1.2048734e-07
1.3918747e-07
-5.3504047e-08
-0.0032249898
-1.1112216e-07
1.286914e-07
-1.7981268e-08
-0.0028611512
-1.0080201e-07
1.1747359e-07
-0.0024343919
-8.6987722e-08
1.0266789e-07
3.3533264e-08
-0.0024344386
-4.3231438e-08
5.6071666e-08
8.2912937e-08
-0.0028612146
-5.1286835e-08
6.5014942e-08
1.4269459e-07
-0.0032250648
-5.6822892e-08
7.1801463e-08
2.0727727e-07
-0.0036000125
-6.1486418e-08
7.7993063e-08
-0.057110531
-8.8005147e-07
7.1308438e-07
1.2345902e-06
-2.6180828e-07
-0.057111722
-2.5316871e-07
3.7193447e-07
1.3338196e-06
-1.8389674e-07
-0.0036001073
-2.4732167e-08
4.1451204e-08
-1.094226e-07
-0.0032251543
-2.3345391e-08
3.8231869e-08
-4.5706905e-08
-0.0028612925
-2.0724453e-08
3.4597863e-08
-0.0024344976
-1.6182929e-08
2.9490628e-08
5.7789978e-08
-0.0024345701
-3.4635374e-10
1.4495165e-08
1.367782e-07
-0.0028613862
-2.8042618e-09
1.7259507e-08
2.2540094e-07
-0.0032252588
-3.6744329e-09
1.921884e-08
3.2313537e-07
-0.0036002225
-3.3357338e-09
2.0674475e-08
-0.057113257
1.1723857e-07
1.7839184e-07
1.5607974e-06
-3.965518e-07
-0.057115208
3.2955011e-07
9.9995468e-08
1.9173948e-06
-2.7750292e-07
-0.0036003616
7.7159976e-09
1.1920829e-08
-1.7077617e-07
-0.0032253833
6.3777591e-09
1.1063522e-08
-7.7635487e-08
-0.0028614965
6.2976114e-09
9.9210698e-09
-0.0024346635
7.4928085e-09
8.2688205e-09
9.6363665e-08
-0.0024347935
1.3191139e-08
1.9495973e-08
2.0758165e-07
-0.0028616427
1.2954428e-08
2.1598408e-08
3.3946921e-07
-0.0032255522
1.3747238e-08
2.2868142e-08
4.8072016e-07
-0.0036005425
1.5624878e-08
2.383162e-08
-0.057117811
4.8712017e-07
1.5083828e-07
2.4444555e-06
-5.8250123e-07
-0.057120981
6.333388e-07
5.9411028e-08
3.0583499e-06
-4.0958557e-07
-0.0036007442
2.1902086e-08
6.5856886e-09
-2.5564198e-07
-0.0032257318
1.9266476e-08
6.1082078e-09
-1.2021799e-07
-0.0028618025
1.7873607e-08
5.6445556e-09
-0.0024349364
1.7328653e-08
5.3947467e-09
1.4386136e-07
-0.0024351107
1.9907314e-08
9.4544754e-09
3.0699676e-07
-0.0028619967
2.1168703e-08
9.354382e-09
4.9037382e-07
-0.0032259484
2.320511e-08
9.609175e-09
6.9407689e-07
-0.0036009845
2.6329305e-08
1.0042063e-08
-0.057124875
7.6718739e-07
7.2773916e-08
3.7476796e-06
-8.2141547e-07
-0.057129545
8.7979065e-07
1.0196752e-07
4.5085065e-06
-5.7823572e-07
-0.0036012726
2.818198e-08
1.6307379e-08
-3.6326653e-07
-0.0032262042
2.4629584e-08
1.5756206e-08
-1.74972e-07
-0.0028622242
2.2636707e-08
1.5491767e-08
-0.0024353225
2.1520094e-08
1.5240905e-08
2.0757244e-07
-0.0024355753
2.2300949e-08
2.1258157e-08
4.27175e-07
-0.0028624906
2.3439472e-08
2.25108e-08
6.789242e-07
-0.0032265056
2.5692349e-08
2.3271753e-08
9.5912807e-07
-0.0036016066
2.9551716e-08
2.3936708e-08
-0.057135112
9.7034866e-07
1.3583767e-07
5.4186029e-06
-1.1298866e-06
-0.057141783
1.07317e-06
1.6988642e-07
6.5569984e-06
-7.9832733e-07
-0.0036019996
2.9926255e-08
3.0992132e-08
-5.0772606e-07
-0.003226853
2.5898085e-08
3.030694e-08
-2.4976191e-07
-0.0028628023
2.3408616e-08
2.8801119e-08
-0.0024358728
2.1753173e-08
2.5919847e-08
3.009118e-07
-0.0024362249
2.0576766e-08
2.8213919e-08
6.0875694e-07
-0.0028631661
2.2419183e-08
3.22582e-08
9.5463427e-07
-0.0032272598
2.5443529e-08
3.4595132e-08
1.3459299e-06
-0.0036024568
3.0128052e-08
3.5514498e-08
-0.057149704
1.2244445e-06
2.0312113e-07
7.837675e-06
-1.6264756e-06
-0.057158956
1.4585632e-06
2.4010253e-07
9.1787337e-06
-1.1541739e-06
-0.0036029974
2.9014035e-08
3.8166902e-08
-7.3937028e-07
-0.0032277355
2.2936164e-08
3.6831979e-08
-3.6546665e-07
-0.002863597
2.0008267e-08
3.4167612e-08
-0.0024366399
1.9432457e-08
3.0122552e-08
4.3073626e-07
-0.0024371291
2.2528762e-08
3.2648926e-08
8.7470179e-07
-0.0028640983
2.0043826e-08
3.5749928e-08
1.372833e-06
-0.0032282951
2.2376789e-08
3.8109037e-08
1.9307266e-06
-0.0036036255
3.0120045e-08
3.9855497e-08
-0.057169701
1.7701746e-06
2.7482191e-07
1.0629462e-05
-2.2273319e-06
-0.057182067
2.090579e-06
2.4198078e-07
1.2258845e-05
-1.5820277e-06
-0.0036043377
3.606623e-08
3.0024403e-08
-1.0107067e-06
-0.0032289225
2.6968602e-08
2.8318365e-08
-4.9794939e-07
-0.0028646646
2.5043951e-08
2.6637433e-08
-0.0024376816
2.9510368e-08
2.4986546e-08
5.6485179e-07
-0.0024383371
3.4203475e-08
5.1874762e-08
1.1460926e-06
-0.0028653344
3.0877906e-08
5.5533106e-08
1.7963068e-06
-0.0032296657
3.3116318e-08
5.8456755e-08
2.5338552e-06
-0.0036051789
4.2402358e-08
6.1045851e-08
-0.057196417
2.2843609e-06
4.1992297e-07
1.4178587e-05
-2.8721541e-06
-0.057212725
2.3962503e-06
5.2161477e-07
1.6260603e-05
-2.0404981e-06
-0.0036061343
4.5107701e-08
7.6646787e-08
-1.3011178e-06
-0.0032305163
3.5707465e-08
7.3544621e-08
-6.4525871e-07
-0.0028660972
3.19577e-08
6.9922371e-08
-0.0024390798
3.2343972e-08
6.5081797e-08
7.1966201e-07
-0.0024399141
2.9866387e-08
7.8639237e-08
1.4566512e-06
-0.002866955
3.2836974e-08
8.5073941e-08
2.28518e-06
-0.0032314745
3.8410904e-08
8.9442634e-08
3.2242535e-06
-0.0036072149
4.8273679e-08
9.2977003e-08
-0.057230986
2.5743255e-06
6.1092068e-07
1.829851e-05
-3.5669921e-06
-0.057251211
2.8497492e-06
6.6245598e-07
2.0279022e-05
-2.5263681e-06
-0.0036084178
5.2443506e-08
1.0844474e-07
-1.610002e-06
-0.0032325387
4.1194418e-08
1.0509953e-07
-7.9511041e-07
-0.0028679074
3.3788934e-08
9.9830533e-08
-0.0024408288
2.8291697e-08
9.1278743e-08
8.474193e-07
-0.0024418068
2.6104581e-08
1.000626e-07
1.7353633e-06
-0.0028689443
3.4676207e-08
1.1186736e-07
2.7439541e-06
-0.0032337114
4.4469813e-08
1.1814135e-07
3.8902057e-06
-0.0036097426
5.7336249e-08
1.209204e-07
-0.057273425
3.1698349e-06
6.4796583e-07
2.2285338e-05
-4.1123767e-06
-0.057297659
3.5255939e-06
4.6841891e-07
2.4351056e-05
-2.8717359e-06
-0.0036111655
5.9729265e-08
1.2105361e-07
-1.7846606e-06
-0.0032349658
4.4954692e-08
1.2068965e-07
-8.4324781e-07
-0.0028700364
3.264007e-08
1.1397327e-07
-0.0024427693
1.9559339e-08
9.9635408e-08
6.7278637e-07
-0.0024435287
-5.1507245e-09
8.5732594e-08
1.5451056e-06
-0.0028710306
2.1215131e-08
9.7691797e-08
2.6271299e-06
-0.0032361903
3.8794711e-08
1.0204779e-07
3.898729e-06
-0.0036125895
5.4930987e-08
9.7265584e-08
-0.057324341
3.9631324e-06
-7.9126209e-09
2.6624701e-05
-2.5162389e-06
-0.057355352
4.8648475e-06
-1.0400032e-06
2.9701725e-05
-1.4723448e-06
-0.0036137051
4.139299e-08
2.8581327e-08
-6.7476582e-07
-0.0032370574
2.3033224e-08
4.4484495e-08
-1.8805962e-07
-0.0028715659
-4.2851298e-09
4.8064199e-08
-0.0024437068
-5.2503403e-08
4.2532625e-08
-6.4987599e-07
-0.0024428819
-1.0678532e-07
-7.4786384e-08
-1.0654908e-06
-0.0028710464
-4.0330222e-08
-6.6543425e-08
-1.0836924e-06
-0.0032369583
-3.565128e-09
-7.9110035e-08
-7.2928679e-07
-0.0036139671
2.0172825e-08
-1.1273036e-07
-0.05739575
7.0687673e-06
-2.9266594e-06
3.5525176e-05
4.6387688e-06
-0.057455907
1.2093283e-05
-5.7846776e-06
4.9209726e-05
4.0309014e-06
-0.0036129947
3.9518201e-08
-4.0511399e-07
2.8453508e-06
-0.0032354267
-2.5881509e-09
-3.4457581e-07
1.2953356e-06
-0.0028691271
-5.1447613e-08
-3.2066457e-07
-0.0024411237
-1.270981e-07
-3.3576178e-07
-2.1334803e-07
-0.0024400678
5.9865245e-08
-8.9580139e-07
-1.7737633e-06
-0.002866782
4.1934558e-08
-8.2423788e-07
-3.2241919e-06
-0.0032332043
6.5405562e-08
-8.3589108e-07
-3.8826077e-06
-0.0036115562
1.3634601e-07
-9.1627254e-07
-0.057551033
1.9984953e-05
-9.2734826e-06
8.0532853e-05
-1.1317469e-05
-0.057704741
3.2859528e-05
-1.1977898e-05
0.00014414472
-8.57649e-06
-0.0036131553
4.8623716e-07
-1.625868e-06
-6.8429669e-06
-0.0032337667
3.7931251e-07
-1.5482567e-06
-4.7752652e-06
-0.0028677021
4.3717751e-07
-1.5792933e-06
-0.002443824
7.2195938e-07
-1.7410192e-06
1.6385495e-05
-0.0024595327
2.2022591e-06
-2.8985812e-06
3.2737154e-05
-0.0028827299
1.3580999e-06
-2.6900973e-06
4.9005996e-05
-0.0032486024
1.1936142e-06
-2.6313846e-06
6.6470728e-05
-0.0036293928
1.4585893e-06
-2.6858353e-06
-0.057947021
5.7785765e-05
-1.4246607e-05
0.00026521106
-0.00018091855
-0.058207108
9.251124e-05
-1.5165848e-05
0.00036366136
-0.00013164244
-0.0036782409
3.157666e-06
-3.5869946e-06
-8.2240337e-05
-0.003297013
2.5873687e-06
-3.5805158e-06
-3.5799973e-05
-0.0029282608
2.7269759e-06
-3.6404904e-06
-0.0024955698
3.9442897e-06
-3.7072378e-06
8.0103672e-05
-0.0025716232
-2.7729783e-06
-1.301326e-06
0.00014906261
-0.0029958615
9.0766221e-07
-2.2747845e-06
0.00021558177
-0.0033633791
2.0234139e-06
-2.1813304e-06
0.00028501497
-0.0037478999
2.0158202e-06
-1.7899029e-06
-0.058263834
6.6518583e-05
-2.4321881e-07
0.0002754678
0.00017124682
-0.059620943
2.699949e-05
-2.0345528e-05
0.0011792133
0.00012463745
-0.0037153711
2.0106655e-05
-6.0206884e-06
8.2574077e-05
-0.0033351829
1.9824057e-05
-5.9510262e-06
4.2391151e-05
-0.0029707233
2.1321377e-05
-6.2621688e-06
-0.002549243
2.8104499e-05
-8.0934256e-06
-3.8901191e-05
-0.0024205894
-0.00010312899
1.3389145e-05
-8.3302965e-05
-0.0028232209
-0.00011041596
7.3201412e-06
-0.0001345359
-0.0031724359
-0.00011667445
5.1656129e-06
-0.00019245755
-0.0035373073
-0.00012534777
5.2066865e-06
-0.059638367
-0.0018916069
3.6087413e-05
0.0016804908
0.00056420814
-0.056299375
-0.0031013234
7.8294641e-05
-0.00088016719
0.00039079075
-0.0031800607
-0.00020391845
2.0089056e-05
0.00024057893
-0.0028505535
-0.00019129989
1.9629327e-05
0.00011027425
-0.0025362402
-0.00017719403
2.0517961e-05
-0.0021794286
-0.00015460536
2.3718784e-05
-3.2331415e-05
0.0020362069
-0.0021279582
-0.0020553447
-7.4930057e-05
0.0024005136
-0.0024949682
-0.002399186
-0.00012040182
0.0027361365
-0.0028265001
-0.0027147182
-0.00016605576
0.0030985682
-0.0031787798
-0.003054195
0.0714167
-0.027636626
-0.034631489
-0.065614015
0.00035797658
0.086952751
-0.014399548
-0.0045958015
0.00024239692
0.0038251527
-0.00081492221
0.00013671693
0.0033749881
-0.00072447019
4.8537186e-05
0.0029562834
-0.00064478099
0.0024952861
-0.00056514715
-0.0001137079
0.0025123626
-6.4252242e-06
-0.00022233931
0.002974797
-2.0271241e-05
-0.00033357448
0.0033996873
-3.0118245e-05
-0.00045463442
0.0038610056
-4.0139656e-05
0.085406826
-0.0015737676
0.00077345538
-0.00022153109
0.085060932
-0.00054959431
0.0011440219
-0.00017655784
0.003875024
-3.8882548e-05
-0.00013265039
0.0034110306
-3.5424125e-05
-8.0495031e-05
0.0029805605
-3.6591201e-05
0.0025056363
-4.566424e-05
6.3588119e-05
0.0024443466
-5.0726758e-06
0.0001367687
0.0029179157
-9.6278348e-06
0.00021514335
0.0033457854
-1.1105448e-05
0.00029826549
0.0038051064
-1.1188199e-05
0.084911315
-0.00010737619
0.00062177864
-0.00016858615
0.084561768
-2.3105353e-05
0.00063375153
-0.00012038122
0.0037612411
-1.1820416e-06
-7.5204044e-05
0.0033041186
-9.2299505e-07
-3.3816123e-05
0.0028795416
-2.8684881e-07
0.0024135177
9.570883e-07
1.4083217e-05
0.0024014455
1.9009482e-07
2.662824e-05
0.0028681591
1.9599976e-07
3.9160023e-05
0.0032926121
1.6851834e-07
5.3611464e-05
0.0037481424
1.0608935e-07
0.08425205
2.1110059e-06
0.00041900491
-2.403899e-06
0.084043707
1.2717196e-05
0.00023088971
-2.1523228e-06
0.0037475687
8.0796396e-07
-2.8398921e-06
0.0032929281
7.5064794e-07
-2.9684628e-06
0.0028681074
6.169165e-07
0.0023988479
3.5108803e-07
-1.4034416e-06
0.0024000728
2.3937019e-07
-4.1056927e-06
0.0028704421
4.0980766e-07
-6.8121717e-06
0.0032951908
5.0955027e-07
-8.9345603e-06
0.0037492332
5.9431493e-07
0.083909422
1.2204882e-05
0.0001331305
6.8606083e-06
0.083822155
8.2207273e-06
8.4278656e-05
5.5784227e-06
0.0037503092
2.4579214e-07
3.8737301e-06
0.0032967121
1.8090044e-07
1.8615316e-06
0.0028722775
1.2545269e-07
0.0024017515
5.5722223e-08
-8.0890964e-07
0.0024025386
-8.5684787e-08
-1.4049234e-06
0.0028728308
2.536074e-09
-1.6545436e-06
0.0032968948
6.3175903e-08
-1.6001004e-06
0.0037501714
1.0358475e-07
0.083762564
4.7194204e-06
6.0340259e-05
-2.1252758e-06
0.083717038
2.9320171e-06
4.9584019e-05
-1.1916263e-06
0.0037491883
9.0901059e-08
-5.0701056e-07
0.0032961667
6.659109e-08
-1.1645739e-07
0.0028724128
2.3194501e-08
0.0024024164
-4.6735247e-08
6.375644e-07
0.0024017525
1.9950026e-08
1.4544881e-06
0.0028715506
6.6754499e-08
2.4953673e-06
0.00329507
9.4406838e-08
3.7557852e-06
0.0037478715
1.1129293e-07
0.083678136
2.2364049e-06
4.4383836e-05
-4.1188779e-06
0.083643004
1.9524137e-06
4.0822926e-05
-2.8328901e-06
0.0037465311
1.1409821e-07
-1.7428794e-06
0.0032939246
1.0024304e-07
-8.2156755e-07
0.0028705781
8.3520838e-08
0.0024008913
5.9116132e-08
8.4060817e-07
0.0024000097
6.6343125e-08
1.7255625e-06
0.0028696496
7.8489566e-08
2.7507974e-06
0.0032928542
8.9501887e-08
3.9523738e-06
0.0037452849
1.0192093e-07
0.083610832
1.7610478e-06
3.7532694e-05
-3.6386339e-06
0.083581563
1.5102552e-06
3.4246568e-05
-2.5433314e-06
0.0037441579
8.3854121e-08
-1.6080999e-06
0.0032918867
7.3161963e-08
-7.9252201e-07
0.0028688022
6.4995992e-08
0.0023991877
5.7771647e-08
7.2618172e-07
0.0023984397
5.0652282e-08
1.4624041e-06
0.0028680427
5.6291943e-08
2.3050802e-06
0.0032910195
6.2670767e-08
3.2911737e-06
0.0037431484
7.1522312e-08
0.083555155
1.2848226e-06
3.0988419e-05
-2.9316458e-06
0.083531585
1.0994649e-06
2.7797507e-05
-2.0539265e-06
0.0037422531
6.2456531e-08
-1.3061126e-06
0.0032902519
5.5258506e-08
-6.4915608e-07
0.0028673668
5.0198579e-08
0.0023977769
4.6000079e-08
5.7552421e-07
0.0023971921
4.2505314e-08
1.1513364e-06
0.0028667766
4.5299891e-08
1.8089946e-06
0.0032895778
4.9136449e-08
2.5791457e-06
0.0037414697
5.551082e-08
0.083510769
9.7638887e-07
2.4701799e-05
-2.2550072e-06
0.083492671
7.9859918e-07
2.1645242e-05
-1.5806938e-06
0.003740788
4.3308337e-08
-1.009141e-06
0.0032889949
3.8105118e-08
-5.0070412e-07
0.0028662578
3.4890548e-08
0.0023966883
3.26672e-08
4.2626373e-07
0.0023962544
2.5115217e-08
8.5823008e-07
0.0028658146
2.9551965e-08
1.353435e-06
0.0032884872
3.340952e-08
1.9359115e-06
0.0037401983
3.7141115e-08
0.083477023
5.9828522e-07
1.8754425e-05
-1.6285574e-06
0.083463586
4.7772428e-07
1.6045526e-05
-1.1381551e-06
0.0037396931
4.3620378e-08
-7.2253151e-07
0.0032880532
4.1116257e-08
-3.5985844e-07
0.0028654353
3.610817e-08
0.0023958861
2.7864329e-08
2.9147089e-07
0.0023955774
3.7035336e-08
5.9380884e-07
0.0028651103
4.5063655e-08
9.3785035e-07
0.0032876846
4.9657024e-08
1.3465551e-06
0.0037392625
5.180939e-08
0.0834521
4.8153162e-07
1.3574348e-05
-1.1264014e-06
0.083442401
4.9561877e-07
1.1402564e-05
-7.8245434e-07
0.0037388949
5.3309065e-08
-4.9307878e-07
0.0032873697
5.1082773e-08
-2.4502383e-07
0.0028648373
4.7614864e-08
0.0023953123
4.1811007e-08
1.9971679e-07
0.002395093
4.1247762e-08
4.1324432e-07
0.0028646017
4.539201e-08
6.6150544e-07
0.0032870987
4.8119046e-08
9.5136642e-07
0.003738584
5.0483848e-08
0.083434283
5.123103e-07
9.5262903e-06
-8.0685061e-07
0.08342748
5.0243791e-07
7.9862137e-06
-5.5759551e-07
0.0037383169
4.583673e-08
-3.4802118e-07
0.0032868702
4.339451e-08
-1.6897705e-07
0.002864404
4.0858177e-08
0.002394908
3.7588642e-08
1.3824311e-07
0.0023947569
3.2283156e-08
2.9152868e-07
0.0028642376
3.4213435e-08
4.7073482e-07
0.0032866779
3.6025831e-08
6.8003422e-07
0.0037380955
3.8191154e-08
0.083421814
4.4387108e-07
6.6687614e-06
-5.6746106e-07
0.08341721
3.31918e-07
5.4722008e-06
-3.9052718e-07
0.0037379127
2.757834e-08
-2.387228e-07
0.0032865191
2.6009225e-08
-1.1048286e-07
0.0028641019
2.4899022e-08
0.0023946397
2.4056094e-08
9.2783874e-08
0.0023945432
1.649032e-08
1.99503e-07
0.002863992
1.6023036e-08
3.2861261e-07
0.0032863873
1.6244177e-08
4.7440959e-07
0.003737765
1.7323024e-08
0.083413574
2.1758677e-07
4.3794625e-06
-3.9126144e-07
0.083410736
1.0972115e-07
3.4480384e-06
-2.6697459e-07
0.0037376396
8.6050888e-09
-1.6154795e-07
0.0032862798
8.1556697e-09
-7.0830195e-08
0.0028638986
8.3354517e-09
0.0023944706
9.2604539e-09
5.7588494e-08
0.0023944102
2.1607454e-09
1.308106e-07
0.0028638221
3.1575133e-10
2.1818202e-07
0.0032861893
-5.9337849e-10
3.2033443e-07
0.0037375349
-9.8492024e-10
0.083408502
-2.8972837e-08
2.7000426e-06
-2.5615632e-07
0.083406791
-3.0359989e-07
2.016278e-06
-1.7577465e-07
0.0037374504
-2.0862926e-08
-1.0258369e-07
0.0032861115
-1.8893206e-08
-4.3418725e-08
0.0028637581
-1.6264684e-08
0.0023943628
-1.2248639e-08
3.1393467e-08
0.0023943267
-3.8927662e-08
7.7246142e-08
0.0028637077
-4.6890635e-08
1.36762e-07
0.0032860475
-5.2712765e-08
2.0236323e-07
0.003737381
-5.7808596e-08
0.083405528
-8.1220413e-07
1.3970765e-06
-1.5667954e-07
0.08340465
-1.5844711e-06
7.9709271e-07
-1.0160075e-07
0.0037373206
-1.1543609e-07
-5.4339165e-08
0.0032859947
-1.0575084e-07
-1.8599737e-08
0.0028636658
-9.5169299e-08
0.0023943021
-8.0996272e-08
-2.0003834e-09
0.0023943026
-1.3091605e-07
1.8728013e-08
0.0028636439
-1.5199753e-07
4.5875294e-08
0.0032859664
-1.6811047e-07
8.013752e-08
0.0037372853
-1.835538e-07
0.08340409
-2.5092912e-06
2.0569383e-07
-8.9525784e-08
0.083403843
-3.326955e-06
-4.0405856e-07
-4.415002e-08
0.0037372145
-2.4988231e-07
-3.6912281e-09
0.0032859008
-2.2986895e-07
1.807108e-08
0.002863598
-2.0857214e-07
0.0023942983
-1.8061641e-07
-1.5152352e-07
-1.9297333e-07
-3.1545613e-07
-2.2048834e-07
-4.7262853e-07
-2.4200812e-07
-6.0585118e-07
-2.6274284e-07
-3.439985e-06
-1.5992181e-06
5.3527023e-07
-0.083402673
-7.5928499e-06
1.0204298e-05
4.192181e-07
-0.0037371751
-5.5577603e-07
6.2363499e-07
2.8281534e-07
-0.0032858699
-5.0984563e-07
5.695778e-07
1.4149044e-07
-0.0028635751
-4.6276668e-07
5.1492297e-07
-0.002394287
-4.0231608e-07
4.4695273e-07
-2.9477952e-08
-0.0023942924
-2.7768671e-07
3.1238422e-07
-1.0731622e-08
-0.0028636321
-3.2075932e-07
3.5887706e-07
3.0104293e-08
-0.0032859525
-3.5421753e-07
3.956266e-07
7.6017164e-08
-0.0037372664
-3.8648572e-07
4.3177712e-07
-0.083403542
-5.3399175e-06
7.0185051e-06
-7.3390999e-07
-8.3309958e-08
-0.083404545
-3.3169752e-06
4.278719e-06
1.2324876e-07
-4.274433e-08
-0.0037373348
-2.3607251e-07
2.6365709e-07
-1.0452849e-08
-0.0032860106
-2.1598444e-07
2.4157149e-07
6.387408e-09
-0.0028636731
-1.9549313e-07
2.1907348e-07
-0.0023943072
-1.6952543e-07
1.9074907e-07
1.4555631e-08
-0.0023943346
-9.0310538e-08
1.0245085e-07
5.3065439e-08
-0.0028637257
-1.0428887e-07
1.1801566e-07
1.0292553e-07
-0.0032860755
-1.1546519e-07
1.3012013e-07
1.6206945e-07
-0.0037374092
-1.2658524e-07
1.4171959e-07
-0.083405763
-1.8252363e-06
2.2719516e-06
9.3312768e-07
-2.1139742e-07
-0.083407347
-8.9540889e-07
1.0108468e-06
1.6785934e-06
-1.4080818e-07
-0.0037374874
-6.0008583e-08
6.7081793e-08
-7.9123479e-08
-0.003286145
-5.4497165e-08
6.1795874e-08
-3.0022175e-08
-0.0028637827
-4.9133469e-08
5.5858623e-08
-0.0023943699
-4.2409714e-08
4.7716521e-08
4.6167526e-08
-0.0023944186
-1.6008422e-08
1.7185132e-08
1.1062937e-07
-0.0028638502
-1.9189692e-08
2.148474e-08
1.8950822e-07
-0.0032862269
-2.1741816e-08
2.4047349e-08
2.8269093e-07
-0.0037375823
-2.4161322e-08
2.5659889e-08
-0.083409413
-3.8258839e-07
2.9659098e-07
2.4328875e-06
-3.6512269e-07
-0.083412083
-1.2398665e-07
-8.4416008e-08
3.2426394e-06
-2.4897596e-07
-0.0037376987
-5.1511512e-09
4.8616665e-09
-1.4904403e-07
-0.0032863282
-4.3330859e-09
5.1723745e-09
-6.788389e-08
-0.0028639338
-3.3512235e-09
4.4955908e-09
-0.0023944873
-1.9014747e-09
2.6678042e-09
8.6770348e-08
-0.0023945767
4.3878351e-09
-3.0239217e-09
1.8891411e-07
-0.0028640387
3.9421912e-09
-1.9287584e-09
3.0996882e-07
-0.0032864515
3.5800556e-09
-2.0294352e-09
4.5072953e-07
-0.0037378398
3.3258993e-09
-3.2273287e-09
-0.083415525
-2.001732e-08
-2.7541879e-07
4.1873181e-06
-5.6016702e-07
-0.083419839
-1.6925001e-08
-3.6659379e-07
5.2562782e-06
-3.8734967e-07
-0.0037380133
4.4187386e-09
-4.4037669e-09
-2.3878712e-07
-0.0032866026
4.7354907e-09
-2.8557208e-09
-1.130216e-07
-0.0028641684
4.8414143e-09
-2.3522468e-09
-0.0023946916
4.8543262e-09
-3.0064523e-09
1.4096143e-07
-0.0023948355
5.5467475e-09
-4.2628018e-09
2.9526867e-07
-0.0028643259
5.9197501e-09
-3.8438385e-09
4.7224517e-07
-0.0032867819
5.8586301e-09
-4.4555172e-09
6.8144859e-07
-0.0037382221
5.6195217e-09
-6.2539027e-09
-0.083425131
-1.8164062e-08
-4.5144253e-07
6.4422286e-06
-8.167449e-07
-0.083431602
1.5498529e-08
-5.6417921e-07
7.8346008e-06
-5.6889256e-07
-0.0037384701
8.6487523e-09
-9.5209225e-09
-3.5504822e-07
-0.0032869983
8.813808e-09
-7.2424822e-09
-1.7336068e-07
-0.0028645118
8.4330482e-09
-6.373925e-09
-0.0023950093
7.020667e-09
-6.5885978e-09
2.0731633e-07
-0.0023952199
5.9007053e-09
-5.2940602e-09
4.2601574e-07
-0.002864734
7.8221354e-09
-5.8029372e-09
6.8067804e-07
-0.0032872558
8.8024087e-09
-7.2442756e-09
9.7921642e-07
-0.003738768
9.0715655e-09
-1.0014282e-08
-0.083439441
4.2042082e-08
-6.6922226e-07
9.4442288e-06
-1.1549404e-06
-0.08344876
4.0481649e-08
-7.8236858e-07
1.1213586e-05
-8.0744934e-07
-0.0037391139
3.5262332e-09
-6.0585249e-09
-5.1089199e-07
-0.0032875537
3.0521911e-09
-2.6812632e-09
-2.5270073e-07
-0.0028649957
1.9199501e-09
-8.7867069e-10
-0.0023954718
-1.7230461e-10
-6.364408e-10
3.0102505e-07
-0.002395772
-4.4475549e-09
3.9444857e-11
6.0881181e-07
-0.0028653036
-3.1647023e-09
1.3925875e-09
9.5898316e-07
-0.0032879034
-1.8281435e-09
-3.0334376e-10
1.3727226e-06
-0.0037395227
-6.5145917e-10
-4.6895666e-09
-0.083459734
8.2169126e-08
-9.7155634e-07
1.3234403e-05
-1.6441781e-06
-0.083472674
1.8145341e-07
-1.2558127e-06
1.5656921e-05
-1.151485e-06
-0.0037400072
1.1203793e-09
-1.1297644e-08
-7.3196626e-07
-0.0032883188
-7.4700571e-10
-5.4855835e-09
-3.6652611e-07
-0.0028656678
-1.8818151e-09
-4.1976572e-09
-0.0023961288
-2.3579749e-09
-7.384413e-09
4.2883888e-07
-0.0023965473
4.7166777e-09
-2.1170274e-08
8.6459984e-07
-0.0028660936
3.6978294e-09
-1.6488621e-08
1.3617436e-06
-0.0032888048
4.2001795e-09
-1.7575787e-08
1.9449398e-06
-0.0037405727
6.6714934e-09
-2.4707486e-08
-0.083487808
2.7327537e-07
-1.5887489e-06
1.8392837e-05
-2.2462697e-06
-0.083505226
3.1316295e-07
-1.8597146e-06
2.1208919e-05
-1.5784783e-06
-0.0037412174
1.2092185e-08
-3.554035e-08
-1.0052e-06
-0.0032893601
9.452059e-09
-2.7747258e-08
-5.00984e-07
-0.0028665817
9.3943573e-09
-2.6372694e-08
-0.0023970288
1.1006803e-08
-3.0436588e-08
5.7147905e-07
-0.0023975835
1.5121368e-08
-3.2093089e-08
1.1440307e-06
-0.0028671411
1.5132023e-08
-2.8793922e-08
1.7932563e-06
-0.0032899952
1.5762788e-08
-3.0690519e-08
2.5563419e-06
-0.0037419603
1.8200119e-08
-3.8633167e-08
-0.083525135
3.102209e-07
-2.0084498e-06
2.4161957e-05
-2.8833243e-06
-0.083547775
2.9767312e-07
-2.0966487e-06
2.7319432e-05
-2.0219557e-06
-0.0037428094
2.2902268e-08
-3.9404753e-08
-1.289821e-06
-0.0032907204
2.0588571e-08
-3.1623383e-08
-6.4882735e-07
-0.0028677815
1.8587393e-08
-2.8999225e-08
-0.0023982171
1.5659319e-08
-3.0907735e-08
7.1871519e-07
-0.0023989276
1.1052194e-08
-2.8368444e-08
1.445513e-06
-0.0028685009
1.7172572e-08
-2.8617383e-08
2.2773189e-06
-0.0032915441
2.079786e-08
-3.2247951e-08
3.2538765e-06
-0.0037437694
2.3437512e-08
-4.0339278e-08
-0.083573219
2.9451908e-07
-2.2209858e-06
3.0622298e-05
-3.6547031e-06
-0.083601372
2.8285554e-07
-2.4163512e-06
3.3938303e-05
-2.5600318e-06
-0.0037448373
1.4381312e-08
-4.3300758e-08
-1.6254238e-06
-0.0032924574
1.1092906e-08
-3.4546957e-08
-8.0935893e-07
-0.0028692989
6.0650765e-09
-2.926377e-08
-0.0023997083
-2.6413285e-09
-2.6061397e-08
8.7021233e-07
-0.002400541
-2.7166877e-08
-1.5357182e-08
1.7775336e-06
-0.0028701708
-1.4347854e-08
-2.3629538e-08
2.8179422e-06
-0.0032934618
-6.6566081e-09
-3.1622398e-08
4.0357511e-06
-0.0037460125
-1.5535666e-09
-4.1365258e-08
-0.083632361
3.4561538e-07
-2.5806458e-06
3.72585e-05
-4.2823176e-06
-0.083666332
6.1744851e-07
-2.7416585e-06
4.037454e-05
-2.9654985e-06
-0.0037472759
-2.1571178e-08
-3.3296187e-08
-1.8378523e-06
-0.0032945384
-3.0195283e-08
-2.2489599e-08
-8.7638194e-07
-0.0028710831
-4.1887254e-08
-1.1137069e-08
-0.0024013611
-5.9235314e-08
2.9208201e-09
6.8595122e-07
-0.0024019927
-8.9951387e-08
2.9358238e-08
1.5591798e-06
-0.0028718972
-7.0803407e-08
8.654949e-09
2.6576612e-06
-0.0032955786
-5.4917314e-08
-5.8533695e-09
3.9623231e-06
-0.0037485235
-4.0105807e-08
-1.7200801e-08
-0.083704231
1.2820928e-06
-2.8933513e-06
4.347032e-05
-2.2928388e-06
-0.083748894
2.5415556e-06
-3.3238608e-06
4.7736235e-05
-1.3173352e-06
-0.0037494744
-3.8009817e-08
1.1997177e-08
-5.8168244e-07
-0.003296275
-6.3428796e-08
2.2721565e-08
-1.4470887e-07
-0.0028722924
-8.6422566e-08
4.1087247e-08
-0.0024020988
-1.1284586e-07
7.4229525e-08
-8.541291e-07
-0.0024012875
-1.4411267e-07
1.791548e-07
-1.4522529e-06
-0.0028717314
-8.5044928e-08
1.1892747e-07
-1.6959425e-06
-0.0032960852
-4.2655648e-08
9.3959376e-08
-1.6509876e-06
-0.0037496028
-1.3221743e-09
8.4746378e-08
-0.083807365
4.4469868e-06
-4.456388e-06
5.682885e-05
7.5968874e-06
-0.083893357
7.4108431e-06
-7.5433846e-06
7.852767e-05
6.0841239e-06
-0.0037484538
1.0770671e-07
2.5774671e-07
4.1771748e-06
-0.0032944948
4.1582218e-08
2.7676177e-07
1.9834947e-06
-0.0028698201
-3.7065912e-08
3.2370079e-07
-0.0023995655
-1.7186277e-07
4.3347273e-07
-1.6854349e-06
-0.0023983614
-4.85581e-07
9.8867748e-07
-4.7857419e-06
-0.0028673576
-1.6459004e-07
8.1113453e-07
-7.9428157e-06
-0.0032920623
6.6497933e-09
7.2397569e-07
-1.0554806e-05
-0.003746613
1.0532759e-07
6.6638296e-07
-0.084026752
1.0447117e-05
-1.3311509e-05
0.00012570607
-1.2704658e-06
-0.084234847
1.2835901e-05
-2.4279462e-05
0.00022081081
-1.3117698e-06
-0.0037474497
-3.840484e-07
1.2677224e-06
-2.2890795e-06
-0.0032920067
-5.215549e-07
1.4488531e-06
-2.692038e-06
-0.002867793
-7.6835502e-07
1.6202521e-06
-0.0024017099
-1.159519e-06
1.8159405e-06
1.2667521e-05
-0.002415709
-1.5857446e-06
2.889516e-06
2.3947383e-05
-0.0028803716
-1.8672767e-06
3.1557011e-06
3.5384637e-05
-0.0033046061
-1.8153357e-06
2.9705247e-06
4.8785804e-05
-0.0037617265
-1.691262e-06
2.5670364e-06
-0.084556028
1.1407217e-05
-4.1228145e-05
0.00039978751
-0.00016606809
-0.084952727
-3.5231046e-06
-6.303651e-05
0.00062932597
-0.00011787506
-0.0038108745
-3.4030879e-06
4.3517972e-06
-7.3170766e-05
-0.0033510287
-3.4027255e-06
5.1146666e-06
-3.2326856e-05
-0.002923487
-2.8846404e-06
5.1409009e-06
-0.0024505253
-1.4400617e-06
3.9295683e-06
6.3740376e-05
-0.0025145318
-2.5943912e-06
2.8881791e-06
0.00013909727
-0.0029983012
-5.5320469e-06
5.0005236e-06
0.00022098213
-0.0034312718
-6.5324942e-06
4.8982552e-06
0.00030713425
-0.0038945673
-6.9125684e-06
4.4539532e-06
-0.085096203
-5.8132678e-05
-7.3231789e-05
0.00058197632
-0.00018398786
-0.085467412
-0.00035140747
0.00012320048
0.00078340399
-0.0001490453
-0.0038989564
-5.1638297e-06
-2.5395275e-05
-0.00011689526
-0.0034338234
-2.0128411e-06
-2.7590773e-05
-7.5916119e-05
-0.003009096
3.6901987e-07
-3.0565507e-05
-0.0025536444
6.2515015e-07
-3.742846e-05
-0.00018039161
-0.0024407075
-3.8985412e-05
0.00010653994
-0.00035338849
-0.0029039444
-4.635478e-05
0.00011423877
-0.00053439086
-0.0033210849
-5.4760947e-05
0.00012305188
-0.00073528071
-0.0037657132
-6.5055052e-05
0.0001327028
-0.087999863
-0.001715808
0.0020462997
0.0014666827
1.2629101e-05
-0.071586366
-0.014724984
0.0029451989
-0.0046463379
-1.2573642e-05
-0.0031072124
-0.00080275169
0.00016945518
-3.0774194e-05
-0.0027460294
-0.00071264339
0.00015579019
-3.2913265e-05
-0.002411108
-0.00063240201
0.00014170885
-0.0020442076
-0.0005493106
0.00011989753
6.6008532e-07
0.0021468023
1.2336984e-06
0.0025047971
2.8956895e-06
0.0028197102
2.7399365e-06
0.0031514204
0.056088128
0.00066504443
0.070284955
-0.00012933001
-0.0086126205
0.00047427732
0.0037678742
-1.199193e-05
0.00030033897
0.0033427535
-1.1329278e-05
0.00014197371
0.0029428379
-1.2011783e-05
0.0024963471
-1.5654206e-05
-0.00023351267
0.0026100583
8.0821187e-05
-0.00046030878
0.0030507852
7.2497506e-05
-0.00069286107
0.0034513431
6.9205268e-05
-0.00094122475
0.0038827891
6.8394366e-05
0.0676098
0.00035728496
-0.00033916317
-1.0703167e-05
0.066934499
6.6103559e-05
0.00026849423
-1.7674985e-05
0.003867881
1.6716262e-05
-2.4309298e-05
0.0034383374
1.762713e-05
-2.3646393e-05
0.0030319721
1.8519149e-05
0.0025684171
1.8619923e-05
6.30302e-05
0.0024951025
7.6904051e-06
0.00013337837
0.0029503663
5.7262753e-06
0.00020774543
0.0033526977
4.7409805e-06
0.00028497613
0.0037792251
4.5128673e-06
0.066822048
1.7847963e-05
0.00032144631
-0.0001659486
0.066508429
1.7089473e-05
0.00045895545
-0.00012013563
0.0037283418
1.666916e-06
-7.5989971e-05
0.0033035609
1.5880591e-06
-3.4267442e-05
0.0029038712
1.8868271e-06
0.0024567563
2.6387398e-06
1.3152595e-05
0.0024413693
6.4805271e-07
2.4589845e-05
0.0028901455
4.2084513e-07
3.5915276e-05
0.0032900594
3.6058184e-07
4.8724867e-05
0.0037134413
3.998398e-07
0.066260956
8.3936578e-06
0.0002992125
-1.0960214e-06
0.066106043
6.9222381e-06
0.00016192251
-9.2555636e-07
0.0037124573
4.2959555e-07
-1.7409344e-06
0.0032899835
3.6996381e-07
-2.2344341e-06
0.0028895852
2.860899e-07
0.0024377659
2.0939118e-07
-1.940925e-06
0.0024389494
2.7370554e-07
-4.9482537e-06
0.0028920202
4.0872088e-07
-7.7636554e-06