/*--------------------------------*- C++ -*----------------------------------*\
  =========                 |
  \\      /  F ield         | OpenFOAM: The Open Source CFD Toolbox
   \\    /   O peration     | Website:  https://openfoam.org
    \\  /    A nd           | Version:  7
     \\/     M anipulation  |
\*---------------------------------------------------------------------------*/
FoamFile
{
    version     2.0;
    format      ascii;
    class       volScalarField;
    location    "50";
    object      T;
}
// * * * * * * * * * * * * * * * * * * * * * * * * * * * * * * * * * * * * * //

dimensions      [0 0 0 1 0 0 0];

internalField   nonuniform List<scalar> 
24789
(
300.03269
300.03129
300.03073
300.03075
300.03134
300.03903
300.03816
300.0381
300.03874
300.04036
300.04965
300.04764
300.04684
300.04687
300.04774
300.05781
300.05704
300.05704
300.05804
300.06047
300.07306
300.07014
300.06893
300.06886
300.0694
300.08263
300.0826
300.08278
300.08429
300.08778
300.10467
300.10054
300.0987
300.09835
300.09749
300.11396
300.11627
300.11689
300.11917
300.12403
300.14569
300.14008
300.13729
300.13629
300.13184
300.15084
300.15833
300.15987
300.16327
300.16973
300.19569
300.18842
300.18432
300.18207
300.17048
300.19012
300.20709
300.21027
300.21519
300.2233
300.25162
300.24277
300.23696
300.23263
300.20893
300.22597
300.25783
300.26355
300.27033
300.27978
300.30613
300.29637
300.28862
300.2813
300.24004
300.24926
300.30134
300.31047
300.31918
300.32895
300.34666
300.33718
300.32762
300.31661
300.25344
300.25232
300.32586
300.33858
300.34878
300.35748
300.36084
300.35321
300.34265
300.32838
300.24572
300.23225
300.32276
300.33823
300.34872
300.35436
300.33603
300.33295
300.32302
300.30661
300.21037
300.17892
300.27812
300.29479
300.30337
300.30246
300.25217
300.25784
300.25153
300.23549
300.13912
300.09509
300.17963
300.1933
300.19601
300.18401
300.10256
300.12064
300.12238
300.11247
300.04857
300.00255
300.04057
300.04573
300.03967
300.01694
299.94675
299.96853
299.9763
299.97495
299.96014
299.9245
299.9325
299.93336
299.92769
299.91478
299.94135
299.93413
299.93026
299.92474
299.89761
299.87881
299.9612
299.9772
299.99458
300.02293
300.10234
300.06678
300.03766
300.0092
299.85405
299.83006
300.02234
300.0595
300.09992
300.14917
300.18301
300.13536
300.09691
300.05943
299.86716
299.73131
299.97454
300.01756
300.06038
300.11138
300.14882
300.10723
300.06995
300.03103
299.7918
299.79375
299.94014
299.96301
299.9866
300.01601
299.92782
299.89417
299.86449
299.83547
299.68538
299.80639
300.1056
300.14548
300.18834
300.25275
300.09403
300.055
300.02259
299.99162
299.77388
299.7535
300.12735
300.18581
300.24517
300.31735
300.16215
300.11133
300.07502
300.04121
299.85224
299.83138
300.03909
300.07243
300.10639
300.1424
300.08271
300.05252
300.02851
300.00468
299.85352
299.87766
299.95151
299.96403
299.9776
300.00034
299.91494
299.91611
299.91656
299.91393
299.89822
299.92651
299.92601
299.92599
299.92009
299.90827
299.93985
299.96411
299.97342
299.97288
299.96281
300.00606
300.04461
300.049
300.04107
300.01501
300.11008
300.1312
300.1342
300.1244
300.05241
300.09923
300.1985
300.21233
300.21399
300.19931
300.27425
300.28123
300.27494
300.25819
300.14291
300.18233
300.30155
300.31886
300.32756
300.32611
300.36021
300.35655
300.34589
300.32869
300.21294
300.23413
300.34241
300.35839
300.36935
300.37579
300.37857
300.37121
300.36026
300.34553
300.24684
300.25316
300.34069
300.35372
300.36433
300.37379
300.36036
300.35013
300.34008
300.32879
300.25386
300.24931
300.31108
300.32037
300.32941
300.33976
300.31485
300.30448
300.29635
300.28881
300.23929
300.22511
300.26367
300.26957
300.27668
300.28664
300.25707
300.24771
300.24159
300.23707
300.20797
300.1891
300.21039
300.21376
300.21896
300.22753
300.19896
300.19127
300.18692
300.18449
300.16944
300.14983
300.16006
300.16178
300.16541
300.17221
300.14761
300.14169
300.1387
300.13754
300.13089
300.11312
300.11717
300.11795
300.12042
300.12552
300.10587
300.10152
300.09952
300.09903
300.09673
300.08199
300.08311
300.08342
300.08507
300.08874
300.07389
300.07081
300.06947
300.06929
300.06887
300.05738
300.05737
300.05748
300.05857
300.06112
300.05029
300.04815
300.04725
300.0472
300.0474
300.03876
300.03837
300.03839
300.03908
300.04076
300.03349
300.03201
300.03136
300.0313
300.03131
300.03761
300.03749
300.03754
300.03825
300.03994
300.04908
300.04707
300.04623
300.0462
300.04652
300.05647
300.05636
300.05645
300.05749
300.05995
300.07238
300.06944
300.06817
300.06802
300.06779
300.08071
300.08164
300.08192
300.08349
300.08702
300.10375
300.09959
300.09767
300.09722
300.0952
300.11128
300.11502
300.11574
300.11809
300.123
300.14451
300.13884
300.13597
300.13489
300.12872
300.14728
300.15692
300.15854
300.16201
300.16854
300.19452
300.18716
300.18298
300.18068
300.16643
300.18567
300.20597
300.20918
300.21416
300.22238
300.25103
300.24207
300.2362
300.23188
300.20407
300.22081
300.25773
300.26339
300.27021
300.27979
300.30692
300.297
300.28924
300.28203
300.23459
300.24433
300.30355
300.31248
300.32117
300.33111
300.35047
300.34075
300.33121
300.32044
300.24866
300.24785
300.33161
300.3441
300.35426
300.36327
300.36707
300.36017
300.34984
300.33582
300.24146
300.22882
300.33234
300.34764
300.35814
300.36437
300.34794
300.34466
300.3347
300.31834
300.20764
300.17714
300.29157
300.30821
300.31661
300.31528
300.26405
300.27081
300.26498
300.24899
300.13826
300.09532
300.19121
300.20464
300.20643
300.19255
300.10555
300.12583
300.12878
300.11929
300.04903
300.0032
300.04232
300.04691
300.03961
300.01481
299.94224
299.96511
299.97374
299.97277
299.96003
299.92414
299.92826
299.92916
299.92461
299.91392
299.92431
299.92189
299.92101
299.91739
299.8958
299.87638
299.9595
299.97384
299.99014
300.01892
300.09118
300.06305
300.03878
300.01381
299.85261
299.82024
300.02591
300.05784
300.08625
300.10419
300.08026
300.0319
299.99991
299.97225
299.82261
299.78521
300.17646
300.23487
300.2888
300.35075
299.6767
299.66484
299.65947
299.65663
299.63181
299.85189
300.22469
300.27556
300.32753
300.39397
299.75415
299.74595
299.73271
299.72023
299.67229
299.81266
300.06229
300.10538
300.15451
300.22595
299.67914
299.68103
299.67984
299.67849
299.65831
299.80116
300.10068
300.15021
300.19432
300.23613
300.11498
300.05616
300.01887
299.98632
299.83852
299.83138
300.02801
300.06262
300.0954
300.12371
300.1027
300.06698
300.03889
300.01164
299.86133
299.88074
299.95645
299.97146
299.98863
300.01905
299.92769
299.92454
299.92284
299.91853
299.89618
299.92377
299.93087
299.93197
299.92705
299.91551
299.9471
299.96965
299.97765
299.97604
299.95997
300.0043
300.04323
300.0484
300.04193
300.01827
300.10578
300.12437
300.12619
300.1162
300.05124
300.09872
300.1838
300.19722
300.19946
300.18674
300.25476
300.26088
300.25475
300.23891
300.14228
300.18141
300.28033
300.29654
300.3046
300.30311
300.33562
300.33297
300.32339
300.30745
300.21231
300.23359
300.32234
300.33716
300.34705
300.35211
300.35784
300.3507
300.34057
300.32687
300.24596
300.25218
300.32372
300.33578
300.3454
300.35353
300.34219
300.33316
300.32405
300.31363
300.25264
300.24784
300.29787
300.30643
300.31466
300.32398
300.301
300.29158
300.28418
300.27728
300.23751
300.22327
300.25386
300.25923
300.26568
300.27478
300.24696
300.23839
300.23284
300.22879
300.2061
300.18732
300.20349
300.20646
300.21116
300.21903
300.19178
300.1847
300.18078
300.17871
300.16774
300.14832
300.15533
300.15674
300.16
300.16628
300.14267
300.1372
300.13454
300.13365
300.12953
300.11189
300.11397
300.11452
300.11671
300.12143
300.10246
300.09844
300.09668
300.09639
300.09567
300.08107
300.08093
300.08107
300.08251
300.08591
300.07151
300.06866
300.0675
300.06747
300.06807
300.05669
300.05587
300.05585
300.0568
300.05916
300.04849
300.04654
300.04578
300.04583
300.04669
300.03771
300.0371
300.03708
300.03772
300.03935
300.03968
300.038
300.03734
300.03735
300.03795
300.04686
300.046
300.04597
300.04675
300.04869
300.0594
300.05703
300.05606
300.05607
300.05684
300.06825
300.0677
300.06777
300.06896
300.07181
300.08619
300.08279
300.08133
300.08117
300.08122
300.0958
300.09663
300.09696
300.09877
300.1028
300.12163
300.11691
300.1147
300.11412
300.11193
300.12945
300.13371
300.13468
300.13738
300.14287
300.16632
300.16004
300.15675
300.15527
300.14804
300.16724
300.17848
300.18067
300.18466
300.19177
300.21865
300.21077
300.206
300.20292
300.18645
300.20482
300.22788
300.23209
300.23775
300.24638
300.27377
300.2646
300.25802
300.25245
300.22145
300.23509
300.2753
300.28241
300.28992
300.29937
300.3215
300.31205
300.3036
300.29472
300.244
300.24797
300.30939
300.32004
300.32929
300.33837
300.34903
300.34056
300.33067
300.31829
300.2468
300.24025
300.32067
300.33449
300.34471
300.35193
300.34574
300.34019
300.33001
300.31491
300.22691
300.20531
300.2992
300.31512
300.32473
300.3275
300.29522
300.2959
300.28749
300.27114
300.17424
300.13516
300.22975
300.24541
300.25162
300.24596
300.18036
300.19165
300.18881
300.17521
300.09179
300.04588
300.10985
300.11967
300.1181
300.10035
300.01704
300.03896
300.04462
300.03916
300.00016
299.95799
299.97476
299.97639
299.96904
299.94801
299.91822
299.92911
299.93374
299.93227
299.92239
299.89548
299.92362
299.92928
299.93297
299.93932
300.02256
299.99375
299.97611
299.95982
299.8765
299.85075
300.00237
300.03
300.05746
300.08931
300.10879
300.07262
300.03829
300.00394
299.82026
299.84659
300.00141
300.03402
300.06959
300.11897
300.12795
300.08457
300.04418
300.00103
299.74172
299.71207
299.84931
299.87418
299.90131
299.93741
300.20609
300.15202
300.11424
300.08113
299.84807
299.67995
299.78667
299.81152
299.83633
299.86649
299.6923
299.68609
299.69026
299.69835
299.70003
299.83959
299.804
299.77481
299.7526
299.6702
299.7595
300.01412
300.052
300.09007
300.12935
300.23553
300.16783
300.11356
300.06489
299.78906
299.79098
300.03205
300.07466
300.12422
300.19719
299.91037
299.88239
299.86109
299.8412
299.72295
299.78897
300.08092
300.131
300.17915
300.23531
300.11986
300.06989
300.03451
300.00181
299.84666
299.83714
300.02398
300.05709
300.08912
300.11888
300.08338
300.05066
300.02523
300.00052
299.86367
299.88203
299.94867
299.9617
299.97609
300.00119
299.91827
299.91929
299.91932
299.91595
299.89776
299.92504
299.93071
299.93147
299.92639
299.91517
299.94765
299.97066
299.9789
299.97729
299.96119
300.00529
300.04473
300.05001
300.04362
300.01996
300.10785
300.12639
300.12813
300.118
300.05231
300.09964
300.18559
300.19918
300.20155
300.18889
300.25719
300.26321
300.25694
300.24093
300.14334
300.18254
300.28229
300.29866
300.30688
300.30551
300.33802
300.33525
300.32553
300.30943
300.21342
300.23466
300.32421
300.33917
300.3492
300.3544
300.36006
300.35279
300.34255
300.32872
300.24711
300.25329
300.32541
300.33759
300.34733
300.35559
300.34407
300.33493
300.32573
300.31522
300.25374
300.24886
300.29928
300.30791
300.31622
300.32563
300.30252
300.29301
300.28554
300.27857
300.23847
300.22412
300.25498
300.26039
300.26691
300.27609
300.24809
300.23945
300.23385
300.22976
300.20687
300.18799
300.20431
300.20731
300.21205
300.21998
300.19262
300.18548
300.18153
300.17943
300.16833
300.1488
300.15592
300.15735
300.16063
300.16696
300.14323
300.13772
300.13504
300.13413
300.12994
300.11225
300.11441
300.11497
300.11718
300.12193
300.1029
300.09885
300.09706
300.09676
300.09599
300.08134
300.08126
300.08141
300.08287
300.0863
300.07183
300.06896
300.06778
300.06774
300.0683
300.05687
300.05611
300.0561
300.05707
300.05945
300.04875
300.04678
300.046
300.04604
300.04686
300.03786
300.03733
300.03731
300.03798
300.03964
300.04055
300.03882
300.03809
300.03805
300.03821
300.047
300.04672
300.04676
300.04762
300.04966
300.06058
300.05808
300.05701
300.05692
300.05698
300.06843
300.06877
300.06895
300.07026
300.07326
300.08794
300.08436
300.08276
300.08247
300.08146
300.09611
300.09828
300.09876
300.10073
300.10498
300.12434
300.11937
300.11697
300.11622
300.11234
300.12998
300.1364
300.13753
300.14046
300.14626
300.17045
300.16383
300.16028
300.15862
300.14873
300.16815
300.18276
300.18514
300.18942
300.19694
300.22506
300.2167
300.21161
300.20833
300.18759
300.20628
300.23468
300.23911
300.24511
300.25426
300.2834
300.27362
300.26666
300.26087
300.22321
300.23727
300.28568
300.29306
300.30101
300.31117
300.33588
300.32563
300.31673
300.30759
300.24716
300.25172
300.32502
300.33602
300.34581
300.35579
300.36932
300.35986
300.34939
300.33657
300.25091
300.24464
300.34138
300.35571
300.36635
300.37348
300.37143
300.36462
300.35371
300.33792
300.2318
300.21069
300.32454
300.34129
300.35164
300.35516
300.32292
300.32363
300.31476
300.29753
300.18006
300.14117
300.25533
300.27171
300.27787
300.27113
300.19937
300.21275
300.21056
300.19654
300.09768
300.05171
300.12462
300.13434
300.13154
300.11107
300.01988
300.04426
300.05129
300.04631
300.00558
299.96322
299.97677
299.97777
299.96917
299.94621
299.91631
299.92748
299.93248
299.93164
299.92722
299.90041
299.92141
299.92493
299.92595
299.92784
300.02105
299.99324
299.97715
299.96301
299.8811
299.85929
300.02166
300.04728
300.07381
300.10949
300.15308
300.1215
300.08686
300.05194
299.8321
299.84471
300.03323
300.06607
300.09868
300.13771
300.28576
300.22372
300.17157
300.11778
299.76083
299.7374
299.89543
299.92056
299.9494
299.9916
300.29118
300.22666
300.18065
300.13631
299.80591
299.67763
299.69936
299.70406
299.71827
299.75953
299.94803
299.9456
299.93345
299.91632
299.78857
299.78964
300.06759
300.11512
300.16506
300.23156
300.06293
300.0156
299.97616
299.93718
299.71578
299.86533
300.06839
300.10703
300.14549
300.19156
300.14377
300.09516
300.05464
300.01775
299.82855
299.85532
300.00954
300.03775
300.06618
300.09993
300.02582
299.99792
299.98051
299.96426
299.8804
299.8988
299.92866
299.9346
299.93864
299.94539
299.92188
299.93305
299.93767
299.93597
299.92512
299.96038
299.97758
299.97919
299.97178
299.95068
300.01964
300.04168
300.04725
300.04167
300.00232
300.04819
300.11278
300.12264
300.12079
300.10238
300.18405
300.19584
300.19292
300.17906
300.09437
300.13826
300.23465
300.25051
300.25654
300.25024
300.30125
300.30217
300.29353
300.27678
300.17783
300.20934
300.30541
300.3216
300.33123
300.33371
300.35285
300.3473
300.33682
300.32134
300.23129
300.24487
300.3272
300.34127
300.35159
300.35876
300.35611
300.3475
300.33734
300.32464
300.25144
300.25254
300.31542
300.3263
300.3357
300.34489
300.32767
300.31801
300.30935
300.30025
300.24838
300.23925
300.28035
300.2876
300.29526
300.30488
300.27877
300.26938
300.26264
300.25697
300.2253
300.20834
300.23187
300.23616
300.24194
300.25075
300.22252
300.21443
300.20956
300.20642
300.1896
300.17005
300.18149
300.18372
300.18781
300.19509
300.16915
300.16271
300.15935
300.15785
300.15048
300.13155
300.13587
300.13686
300.13964
300.14527
300.12366
300.1188
300.11655
300.11596
300.11372
300.0973
300.09806
300.09841
300.10026
300.10441
300.08754
300.08404
300.08254
300.08239
300.08246
300.06927
300.06867
300.06873
300.06995
300.07288
300.06033
300.05787
300.05688
300.05689
300.05769
300.04763
300.04669
300.04664
300.04743
300.04943
300.04051
300.03878
300.0381
300.03813
300.03884
300.03801
300.03732
300.0373
300.03796
300.03961
300.04866
300.04672
300.04596
300.04601
300.04692
300.05693
300.05607
300.05607
300.05703
300.0594
300.07178
300.06894
300.06776
300.06772
300.06835
300.08136
300.08121
300.08137
300.08283
300.08623
300.10279
300.09878
300.097
300.09669
300.09598
300.11214
300.11421
300.11479
300.11699
300.12171
300.14291
300.13745
300.13476
300.13382
300.12969
300.1483
300.15536
300.15682
300.16011
300.16638
300.19179
300.18472
300.18075
300.1786
300.16752
300.18675
300.20308
300.20615
300.21091
300.21879
300.24643
300.23784
300.23221
300.22803
300.20512
300.22175
300.25264
300.25817
300.26472
300.27385
300.29938
300.28995
300.28247
300.27538
300.23539
300.2443
300.29488
300.3037
300.31209
300.32145
300.33833
300.32924
300.32003
300.30939
300.24823
300.24704
300.31839
300.33067
300.34047
300.34875
300.3516
300.34437
300.33422
300.32043
300.24043
300.22704
300.31479
300.32974
300.33979
300.34504
300.32679
300.32399
300.31446
300.29857
300.20523
300.17397
300.27066
300.28683
300.29507
300.29398
300.24478
300.25039
300.24429
300.22866
300.13469
300.09136
300.17435
300.1877
300.1903
300.17849
300.09848
300.11626
300.11797
300.10822
300.04524
299.99954
300.03771
300.04283
300.03672
300.01381
299.9436
299.96578
299.9738
299.97241
299.95711
299.92147
299.92817
299.92926
299.92487
299.91415
299.92302
299.92076
299.91979
299.9158
299.89428
299.87554
299.95135
299.96616
299.98219
300.00912
300.07334
300.04447
300.01964
299.99389
299.8506
299.81751
299.98929
300.02093
300.05137
300.0785
300.06422
300.01392
299.98226
299.95436
299.82937
299.76418
300.0322
300.07613
300.11509
300.15113
299.75313
299.73358
299.72022
299.70955
299.64179
299.86569
300.17461
300.22052
300.26674
300.31923
299.73296
299.69962
299.70344
299.81792
300.06741
300.09943
300.13285
300.17635
300.01667
299.96064
299.92744
299.90102
299.74857
299.84511
299.83839
299.82939
299.81985
299.75911
299.83621
299.94875
299.98353
300.02143
300.07216
300.444
300.35153
300.27745
300.2063
299.93427
299.79371
300.03698
300.09091
300.15041
300.22805
299.73982
299.66788
299.6633
299.68056
299.99399
299.99593
299.98699
299.994
300.00103
299.99374
299.99106
299.99783
300.03911
300.03748
300.03683
300.03684
300.03736
300.04629
300.04553
300.0455
300.04626
300.04816
300.05872
300.05641
300.05547
300.05547
300.05617
300.06745
300.06699
300.06705
300.06821
300.071
300.08523
300.0819
300.08047
300.08032
300.08031
300.09475
300.09562
300.09594
300.0977
300.10166
300.12033
300.11571
300.11355
300.11299
300.11077
300.12821
300.13244
300.13335
300.13599
300.14136
300.16459
300.15845
300.15525
300.15384
300.14677
300.166
300.17697
300.17905
300.18293
300.1899
300.21665
300.20892
300.20429
300.20136
300.18531
300.2039
300.22639
300.23041
300.2359
300.24435
300.27179
300.2628
300.25642
300.25111
300.22083
300.23495
300.27421
300.28103
300.28833
300.29762
300.3204
300.31112
300.30296
300.29448
300.24513
300.25
300.31006
300.32029
300.32924
300.33813
300.34977
300.34151
300.33192
300.31998
300.2495
300.24363
300.3233
300.33673
300.34667
300.35372
300.34871
300.34335
300.33346
300.31878
300.23142
300.21068
300.30427
300.31985
300.3292
300.33181
300.30078
300.30168
300.29352
300.27744
300.18008
300.14168
300.23669
300.25214
300.25808
300.25206
300.18632
300.1982
300.19571
300.18231
300.09834
300.05192
300.11604
300.12571
300.12375
300.10527
300.02018
300.04289
300.04897
300.04364
300.00488
299.96148
299.97714
299.97861
299.97065
299.94852
299.91615
299.92807
299.9333
299.93226
299.92471
299.89761
299.92043
299.92504
299.92729
299.93108
299.997
299.9758
299.96217
299.9487
299.87766
299.8547
299.98149
300.00417
300.02606
300.04952
300.07948
300.04654
300.01764
299.98885
299.83111
299.87891
300.03219
300.06204
300.09153
300.12468
300.03211
299.98661
299.95224
299.9192
299.72477
299.84798
300.09961
300.14098
300.18452
300.24674
299.96984
299.9367
299.91232
299.89047
299.7603
300.15258
300.20334
300.25221
300.30972
300.53894
300.41717
300.33286
300.26066
299.81256
299.80765
300.1262
300.18972
300.25265
300.33493
299.89542
299.82463
299.78305
299.75459
299.63173
299.65415
299.92094
299.96965
300.03152
300.12458
299.96109
299.92938
299.90563
299.88397
299.75533
299.84489
300.09857
300.14011
300.18347
300.24464
300.03495
299.98876
299.95379
299.92004
299.72276
299.87801
300.03486
300.06522
300.09501
300.12829
300.08707
300.05382
300.02423
299.99457
299.83178
299.85579
299.98655
300.00987
300.03242
300.05675
300.00047
299.97837
299.96427
299.95055
299.87849
299.8982
299.92009
299.92451
299.92671
299.93072
299.91337
299.92641
299.93222
299.93148
299.92537
299.96265
299.97803
299.97931
299.97083
299.94771
300.02259
300.04609
300.05226
300.04668
300.00671
300.05477
300.12167
300.13168
300.12952
300.11015
300.19496
300.20722
300.20436
300.19023
300.10238
300.14696
300.24668
300.26278
300.26888
300.26245
300.31339
300.31423
300.30545
300.28848
300.18637
300.21751
300.31608
300.33241
300.3422
300.34491
300.36262
300.35683
300.34623
300.33069
300.23859
300.25111
300.33522
300.34932
300.35975
300.36714
300.36306
300.35427
300.34406
300.33142
300.25713
300.25756
300.32089
300.33163
300.34103
300.35038
300.33172
300.3219
300.31325
300.3043
300.25238
300.24179
300.28315
300.2903
300.29797
300.30773
300.2807
300.27123
300.26449
300.2589
300.22708
300.20956
300.23322
300.23745
300.24322
300.2521
300.22336
300.21522
300.21034
300.20725
300.19031
300.17037
300.18196
300.18416
300.18825
300.19557
300.16933
300.16287
300.1595
300.15802
300.15051
300.1314
300.13588
300.13687
300.13965
300.14529
300.12354
300.11868
300.11642
300.11583
300.11346
300.09701
300.09795
300.0983
300.10015
300.1043
300.0874
300.0839
300.08241
300.08224
300.08217
300.06902
300.06857
300.06864
300.06986
300.07279
300.0602
300.05776
300.05678
300.05678
300.05747
300.04747
300.04668
300.04666
300.04746
300.04947
300.04021
300.03858
300.03794
300.038
300.03882
300.03141
300.03094
300.03094
300.03152
300.03292
300.03811
300.03738
300.03735
300.038
300.03965
300.04851
300.04659
300.04583
300.04589
300.04684
300.05677
300.05594
300.05593
300.05688
300.05925
300.07158
300.06875
300.06757
300.06753
300.06813
300.08109
300.08099
300.08115
300.0826
300.08599
300.10246
300.09847
300.09669
300.09637
300.09562
300.11172
300.11383
300.1144
300.11659
300.12128
300.14233
300.13691
300.13424
300.1333
300.12915
300.14768
300.15473
300.15618
300.15944
300.16565
300.19086
300.18386
300.17993
300.17779
300.16678
300.18589
300.20208
300.20511
300.20982
300.21762
300.24501
300.23653
300.23096
300.22682
300.20414
300.22067
300.25109
300.25655
300.26302
300.27202
300.29723
300.28799
300.28062
300.27364
300.23422
300.24314
300.29272
300.30141
300.30966
300.31883
300.33546
300.32661
300.31758
300.30712
300.24703
300.24592
300.31579
300.32786
300.33748
300.34556
300.34843
300.34143
300.33149
300.31795
300.23936
300.22617
300.31213
300.32683
300.33669
300.34178
300.32397
300.32132
300.31199
300.29637
300.20463
300.17389
300.26867
300.28459
300.29268
300.29155
300.24349
300.24908
300.24309
300.22769
300.13514
300.09251
300.17411
300.18732
300.18994
300.1784
300.10111
300.11825
300.1197
300.1099
300.04703
300.00235
300.04131
300.04671
300.04127
300.01987
299.95382
299.97393
299.98079
299.97885
299.9606
299.92615
299.93803
299.93983
299.93527
299.92399
299.949
299.94135
299.9368
299.93052
299.89929
299.88181
299.96485
299.9809
299.99802
300.0254
300.09803
300.06464
300.0365
300.00858
299.85628
299.8306
300.01643
300.05264
300.0926
300.14099
300.19198
300.14536
300.1067
300.06814
299.86629
299.71838
299.9414
299.98053
300.02015
300.06765
300.23571
300.1697
300.12013
300.07294
299.79646
299.79577
299.92031
299.93665
299.94818
299.95022
299.76222
299.71987
299.70561
299.70126
299.68465
299.81311
300.14117
300.18489
300.23037
300.29446
300.20663
300.1338
300.08422
300.04156
299.79998
299.81961
300.07596
300.12032
300.17098
300.24467
300.40109
300.33384
300.28156
300.23046
299.85542
299.86811
300.17711
300.22306
300.26949
300.32299
300.19899
300.14645
300.1097
300.07743
299.84842
299.81807
300.06824
300.10029
300.13366
300.17743
300.00354
299.95356
299.92248
299.89682
299.74878
299.83717
300.10268
300.14877
300.19809
300.26655
300.06679
300.01514
299.97652
299.93894
299.72262
299.87899
300.04166
300.07308
300.1045
300.14081
300.08734
300.05323
300.02312
299.99323
299.82995
299.85477
299.98351
300.00646
300.02863
300.05253
299.99476
299.97329
299.95981
299.94672
299.87795
299.89809
299.91619
299.91953
299.91959
299.9195
299.91497
299.92597
299.93084
299.93005
299.92526
299.96256
299.97715
299.97829
299.96949
299.946
300.02104
300.04491
300.05127
300.04584
300.00648
300.05453
300.12088
300.13082
300.12859
300.1091
300.19415
300.20649
300.20369
300.18962
300.10205
300.14661
300.2461
300.26218
300.26826
300.26181
300.31285
300.31371
300.30495
300.28801
300.18598
300.21719
300.31566
300.33198
300.34175
300.34443
300.36224
300.35648
300.3459
300.33037
300.23832
300.25089
300.33492
300.34903
300.35945
300.36684
300.3628
300.35402
300.34382
300.33118
300.2569
300.25731
300.32064
300.33141
300.34083
300.35022
300.33153
300.3217
300.31305
300.3041
300.25211
300.24155
300.28296
300.29014
300.29782
300.30759
300.28061
300.27113
300.2644
300.25879
300.22686
300.2094
300.23316
300.23741
300.24319
300.25207
300.22332
300.21519
300.21031
300.20721
300.19019
300.1703
300.18196
300.18417
300.18826
300.19558
300.16934
300.16288
300.15951
300.15801
300.15045
300.13137
300.13593
300.13692
300.13971
300.14536
300.12359
300.11874
300.11647
300.11588
300.11345
300.09701
300.09801
300.09837
300.10022
300.10437
300.08746
300.08396
300.08246
300.08229
300.08218
300.06901
300.06861
300.06869
300.06991
300.07285
300.06026
300.05781
300.05682
300.05681
300.05747
300.04748
300.04675
300.04673
300.04754
300.04956
300.04032
300.03867
300.03802
300.03806
300.03883
300.03139
300.03087
300.03085
300.0314
300.0328
300.0374
300.03693
300.03694
300.03761
300.03926
300.04822
300.04631
300.04555
300.04558
300.04633
300.05624
300.05555
300.05556
300.05652
300.05886
300.07108
300.06828
300.06711
300.06706
300.06753
300.0804
300.08043
300.0806
300.08204
300.0854
300.10178
300.09782
300.09605
300.09573
300.09486
300.11091
300.11317
300.11375
300.11593
300.1206
300.14165
300.13625
300.13358
300.13266
300.12838
300.14698
300.15416
300.1556
300.15885
300.16506
300.19035
300.18335
300.17943
300.17734
300.16625
300.18562
300.20189
300.20488
300.20957
300.21738
300.24511
300.23659
300.23104
300.22698
300.20424
300.22122
300.25188
300.25726
300.26372
300.27281
300.29877
300.28937
300.28198
300.27509
300.23535
300.24558
300.29557
300.30412
300.31239
300.32176
300.33975
300.33065
300.32157
300.3112
300.2504
300.24995
300.32138
300.33345
300.34317
300.35153
300.35575
300.3484
300.33828
300.32465
300.24395
300.23177
300.32043
300.33528
300.34535
300.3508
300.33412
300.33115
300.32158
300.30575
300.21093
300.18043
300.27914
300.29536
300.30367
300.30272
300.25404
300.25976
300.25366
300.23796
300.14178
300.09847
300.18356
300.19699
300.19949
300.18733
300.10581
300.1241
300.12599
300.11613
300.05159
300.00467
300.04381
300.04904
300.04282
300.01962
299.94801
299.97013
299.97825
299.97668
299.96087
299.92441
299.93147
299.9325
299.92808
299.91765
299.92134
299.92107
299.92063
299.91681
299.89672
299.87694
299.94431
299.95703
299.96981
299.98985
300.03985
300.01812
299.99732
299.97547
299.85247
299.82859
299.98128
300.00918
300.03732
300.06902
300.12303
300.0887
300.05896
300.0293
299.87673
299.72392
299.92968
299.96505
300.00168
300.05177
300.25765
300.19044
300.14237
300.09782
299.84206
299.76632
300.02939
300.06786
300.10747
300.15802
300.2232
300.16082
300.10987
300.05915
299.73454
299.85223
300.04771
300.08236
300.12019
300.17155
300.12767
300.09051
300.05754
300.02523
299.8244
299.85085
300.00368
300.02773
300.05151
300.07966
300.00962
299.98629
299.97168
299.95786
299.87618
299.89779
299.92081
299.9246
299.92553
299.92699
299.91725
299.92736
299.93179
299.93069
299.92524
299.96144
299.97429
299.97518
299.96655
299.94379
300.01669
300.04119
300.04823
300.04336
300.00376
300.04976
300.12096
300.13038
300.1272
300.10624
300.19507
300.20873
300.20659
300.19272
300.09546
300.13851
300.25089
300.26697
300.27273
300.26549
300.31792
300.3189
300.31008
300.29298
300.17689
300.20713
300.31962
300.33614
300.34615
300.3492
300.36619
300.35956
300.34869
300.333
300.22791
300.24055
300.33634
300.35051
300.36095
300.36789
300.36401
300.35479
300.34438
300.33164
300.24678
300.24765
300.32029
300.33115
300.34075
300.35045
300.33125
300.32116
300.31232
300.30324
300.24325
300.23363
300.28169
300.28899
300.29683
300.30681
300.27968
300.26999
300.26308
300.25732
300.21987
300.20325
300.23149
300.23588
300.24183
300.2509
300.22218
300.21387
300.20882
300.20555
300.18487
300.16574
300.1803
300.18268
300.18692
300.19439
300.16835
300.16174
300.15822
300.15657
300.14663
300.12818
300.13458
300.13573
300.13865
300.14442
300.12284
300.11788
300.11549
300.11474
300.11079
300.09483
300.09704
300.09752
300.09949
300.10372
300.08699
300.0834
300.0818
300.08151
300.0804
300.06757
300.06796
300.06813
300.06944
300.07243
300.05999
300.05748
300.05641
300.05631
300.05627
300.04638
300.04619
300.04625
300.04711
300.04913
300.0401
300.03832
300.03757
300.0375
300.03747
300.0374
300.03734
300.03739
300.03811
300.03982
300.04882
300.04683
300.04599
300.04595
300.04625
300.05612
300.05604
300.05613
300.05718
300.05962
300.07201
300.06908
300.06781
300.06765
300.06736
300.08017
300.08116
300.08145
300.08302
300.08652
300.1031
300.09897
300.09705
300.0966
300.09454
300.11047
300.11422
300.11495
300.11729
300.12215
300.14348
300.13786
300.13502
300.13393
300.12775
300.14614
300.15572
300.15734
300.16079
300.16725
300.19302
300.18573
300.18159
300.1793
300.16512
300.18417
300.20429
300.20748
300.21242
300.22055
300.24891
300.24004
300.23423
300.22995
300.20238
300.21893
300.25548
300.26108
300.26782
300.27727
300.30407
300.29428
300.28661
300.27948
300.23256
300.24221
300.30074
300.30954
300.3181
300.32789
300.34699
300.3374
300.32798
300.31735
300.24652
300.24577
300.32857
300.34089
300.35093
300.35986
300.36383
300.35699
300.34675
300.33289
300.23959
300.22716
300.32973
300.34485
300.35524
300.36143
300.3456
300.34223
300.33231
300.31607
300.2063
300.17631
300.29006
300.30655
300.31492
300.31369
300.26331
300.26989
300.26403
300.24813
300.13806
300.09571
300.19123
300.20456
300.20635
300.19261
300.10635
300.12643
300.12934
300.11991
300.05015
300.00486
300.04351
300.048
300.0407
300.01603
299.94286
299.96604
299.97488
299.9741
299.96235
299.92668
299.92876
299.92912
299.92382
299.91277
299.91801
299.91914
299.91936
299.91641
299.89856
299.87822
299.95167
299.96408
299.97738
299.99938
300.07842
300.04908
300.02565
300.00231
299.85417
299.83222
300.03587
300.06857
300.10196
300.13724
300.15714
300.10651
300.07092
300.03789
299.85357
299.7554
300.12691
300.18493
300.24392
300.31559
300.09299
300.05439
300.02236
299.9919
299.77719
299.81192
300.10849
300.14786
300.19018
300.25384
299.92504
299.8905