/*--------------------------------*- C++ -*----------------------------------*\
  =========                 |
  \\      /  F ield         | OpenFOAM: The Open Source CFD Toolbox
   \\    /   O peration     | Website:  https://openfoam.org
    \\  /    A nd           | Version:  7
     \\/     M anipulation  |
\*---------------------------------------------------------------------------*/
FoamFile
{
    version     2.0;
    format      ascii;
    class       volScalarField;
    location    "400";
    object      alphat;
}
// * * * * * * * * * * * * * * * * * * * * * * * * * * * * * * * * * * * * * //

dimensions      [1 -1 -1 0 0 0 0];

internalField   nonuniform List<scalar> 
25278
(
7.9156175
7.7854031
7.8336583
7.8336381
7.6829098
7.7853734
7.8854396
7.9155937
7.8854993
7.7640376
7.8406777
7.8836751
7.840192
7.7961107
6.9396864
7.8335372
7.785316
7.0810456
6.6003417
7.1558738
7.5194403
7.6313592
7.7311759
7.7841971
7.6037944
7.7841738
7.7311753
7.5254805
7.4319904
7.4753859
7.3347758
7.293226
6.8874638
7.1579837
7.1877884
7.1245683
7.1580107
7.051292
7.0207458
6.7326598
6.9028386
6.9347104
6.7801752
6.8165945
7.0964139
7.3990759
7.6934294
7.5856121
7.2816367
7.2094284
7.119539
7.0645466
6.3835866
6.6060458
6.9183612
6.9540908
6.8557913
6.8195456
6.4106982
6.5712736
6.6193167
6.4714745
6.3509776
6.78665
6.7435432
6.6986883
6.7429976
6.2823166
6.2084127
6.283744
5.7165545
5.9319036
6.175058
6.4152386
6.6553555
6.8327913
7.1881484
7.4755494
7.6315139
7.5569844
7.4991997
6.9440066
7.0838118
6.616904
7.417946
7.3545251
6.3911983
5.4583616
6.0344261
6.6006223
6.6290123
6.0383604
6.0223274
4.9542363
5.0359243
6.0501531
6.1693232
6.7155394
6.7193931
6.1604764
6.158494
5.1379664
5.2395335
6.1700133
5.5739771
5.5934479
5.4689335
3.8960337
3.8298872
2.9098749
4.9453053
4.9085284
2.8732198
2.8526526
3.9811888
4.0729581
2.8323667
4.9803751
5.0426868
5.0374885
6.6146104
7.4177429
7.6827942
6.0056848
4.9309796
3.8138116
2.9011394
4.940029
6.3882644
7.3542401
7.4989229
7.5568064
7.0821209
6.9409143
6.0245366
5.4491621
5.459443
4.902274
2.8626676
3.8775136
3.9611313
2.8397476
2.8166999
4.9731468
5.5642212
5.5840791
6.1610045
6.0399956
5.0122596
6.0214701
6.933384
6.5936515
6.6227762
6.7106205
7.0770277
6.7151866
6.162362
5.2180758
4.0507189
2.3573913
1.0106327
1.0174491
2.3800514
4.0164726
5.5370358
5.5585422
4.9791391
4.9107788
2.7035883
2.7392483
3.9291886
2.3315175
1.0461557
0.9541535
0.33484044
0.36840441
1.1088998
1.1026881
0.38034096
0.34676665
0.94904299
1.0378958
2.3119622
3.8815079
5.1143119
6.1441203
6.1467904
5.5032154
3.9652455
2.6074589
2.6530173
4.9095801
6.581041
5.5242423
4.8369395
5.0083431
2.5796693
0.86617221
0.31801224
0.3061298
0.86789881
2.6873687
5.0793133
5.673039
6.2857568
6.7987894
7.1586175
7.4323814
7.2948272
7.3353849
7.1260089
6.8914981
6.9052846
6.9364793
7.1587916
7.053019
7.0233843
6.7376838
6.7838539
6.8190932
6.9841318
7.2616317
7.5302916
7.6934305
7.5632677
7.2945264
7.2470215
7.4310306
7.3992506
7.1982934
7.2170353
7.0069098
6.8533732
7.1137875
7.0974669
7.0040601
7.2822915
7.5856346
7.520062
7.1594904
7.2110335
6.9228373
6.6178341
6.5806328
6.6264967
6.9569354
6.8604134
6.8260629
6.4252694
6.4828972
6.3661263
6.7925916
7.1218102
7.06942
6.402592
6.7517884
6.3030083
6.2284623
6.7068373
6.7487281
6.2976597
6.3526282
6.4163501
6.5262048
6.6640544
6.7036887
7.0226054
6.9319541
6.91385
6.8494513
7.2021528
7.2359606
7.31669
7.0614064
7.1513448
7.1677475
7.267153
7.0652435
7.0454328
6.8872668
6.9162511
6.7725986
7.0792412
6.9927481
6.9762896
6.6130243
6.7401745
6.5421346
6.6306274
6.7260574
6.8108429
6.9632537
7.294501
7.5632435
7.5301918
7.2613948
7.1977858
7.2168551
7.1131187
6.851905
7.0063269
6.9829196
6.7390996
6.9090966
6.7706907
6.6869781
6.6624468
6.6408102
6.4647221
6.6932365
6.3598596
6.3281292
5.9963953
6.0698459
5.6081838
6.0327803
6.3624691
6.6958635
6.6584597
6.2939924
6.3315541
6.0088291
6.4235349
6.4713768
6.0798394
5.6185956
5.5416074
5.9829601
5.3749932
5.5290269
4.9610242
5.0744668
5.4352382
5.6619419
5.8974231
6.097306
6.3004289
6.4757631
6.4964233
6.3751699
6.5589138
6.5378159
6.3435364
6.1446094
6.1723966
6.324896
6.4213374
6.4456701
6.3503936
6.5240611
6.5393638
6.7015213
6.6024279
6.5880164
6.4011464
6.4225774
6.2248645
6.3705377
6.1725706
6.1541059
6.1216377
5.9526588
5.9129339
5.6799894
5.7154293
5.9260915
6.0873466
6.4233553
6.7404864
6.7714164
6.4469602
6.3542483
6.5271365
6.6890799
6.6652163
6.6442882
6.480432
6.4999426
6.3813873
6.5634536
6.5433401
6.3510686
6.1543654
6.3057748
6.3293656
6.1273612
6.1035181
5.9252804
5.9630452
6.1806146
6.2069621
6.4061207
6.5916718
6.6050554
6.7030492
6.5416695
6.4266627
6.2303677
6.373512
6.1763363
6.1586032
5.9920919
6.0178091
6.0434512
6.2079297
6.5038985
6.5221176
6.8365278
6.7579681
6.7378995
6.5791398
6.5675215
6.4484711
6.4662193
6.641538
6.6651376
6.6757383
6.7698398
6.6137
6.6016491
6.4861258
6.503075
6.3135395
6.4502767
6.4340479
6.4146024
6.3987974
6.2532182
6.2735722
6.0653986
6.2208163
6.2463659
6.2599315
6.1088309
6.0878866
6.2938838
6.1625167
6.3761464
6.5784652
6.5550689
6.3552293
6.335232
6.312442
6.5165171
6.5007931
6.4716394
6.4485301
6.2437467
6.1920277
5.708378
5.6752762
5.7445143
5.3980152
6.0243845
5.9604997
5.3009958
4.5260657
5.0684105
4.2010225
4.3515611
4.4571001
5.1454856
4.617799
3.7229054
3.5921612
2.7403885
3.9407765
4.9551466
5.7566242
5.1472231
5.629538
5.7091686
5.8309681
5.0566025
4.809188
4.6943008
3.4699425
2.8358421
1.900613
1.8960296
2.7990374
4.0220636
3.5163221
4.0891103
4.3006087
4.5503281
4.7991899
5.0451682
5.2693489
5.4904518
5.6933025
5.9034733
5.9315451
5.6935297
5.6660873
5.4257948
5.472966
5.7271199
5.76005
5.9646197
6.1299914
5.9601403
5.9822665
5.7801149
6.010383
5.9830664
6.1996428
6.0550298
6.2816629
6.4955342
6.700539
7.0213124
7.0018137
6.9109228
6.9300439
6.5661082
6.5178154
6.6588313
6.4406005
6.2293169
5.9994614
5.3472282
5.7185952
5.6458223
5.2454416
4.8741446
4.9789278
5.7956065
5.672462
5.5874178
4.60803
4.7254026
3.3578535
3.8798017
4.5328972
5.1081706
5.0287309
4.1384949
4.4407611
3.4957424
4.3177255
4.4219853
3.62034
2.614519
2.577957
3.8066904
3.3234783
1.7312343
1.7033217
2.3235025
3.150197
3.9460009
4.5857983
5.1424856
5.5726108
5.9487992
6.3414985
6.805164
7.2012004
7.235793
7.3165773
7.4309928
7.2468654
7.2671612
7.1676303
7.1509172
6.8865035
7.0452215
7.0651913
6.9159424
6.7718688
7.0789909
7.0606092
6.9753005
6.9922854
6.6468494
6.6095838
6.7384294
6.5389422
6.6284753
6.7248012
6.8102918
6.8364315
6.757349
6.7370344
6.6401209
6.4640462
6.577781
6.5657631
6.4452129
6.2490593
6.3965731
6.5030843
6.5216445
6.4329426
6.600866
6.6132282
6.7694812
6.6751227
6.6639511
6.4845713
6.5020977
6.3119946
6.4494883
6.2588509
6.2445718
6.2185374
6.4126973
6.2703798
6.0611226
6.0373918
6.2047757
6.0134075
6.1827001
6.2154327
6.0574168
6.0310525
5.8359565
5.80946
5.5654919
5.7906313
5.7515698
5.7323186
5.6892812
5.4613078
5.4122798
5.1468647
5.1920423
5.4710947
5.2003386
5.1558224
4.8438926
4.9045715
4.9494209
5.2336779
5.4990452
5.749398
5.5420115
5.8087279
5.7741066
6.0235242
6.2529007
6.464938
6.3621748
6.3359008
6.0926064
6.2220188
5.99581
5.8383254
5.8742915
6.1319184
6.1639997
6.3972205
6.414642
6.512283
6.3061937
6.1915533
6.0797116
6.3307531
6.3101886
6.2729541
6.2426931
6.1472914
6.1792408
5.8969308
6.0121195
5.9720757
5.8475696
5.5253292
5.6840401
5.7218671
5.570788
5.198894
5.3974141
5.5901297
5.5373636
5.7352158
5.4665147
5.5022436
5.2784982
5.2297376
4.8775528
5.164507
5.2119205
4.9431893
4.9931015
5.3239397
5.6299644
5.9093142
5.9421829
6.0831296
5.8408211
5.6676821
5.4891651
5.8007266
5.7626324
6.0479345
5.9372311
6.2215827
6.2433428
5.972592
5.6610772
5.6169223
5.2524125
5.443948
5.0900469
5.0354273
4.985463
5.3439785
5.1303346
4.9301825
5.3766142
5.7394345
6.067715
6.4051735
6.8453423
6.8675493
6.8279019
6.4010638
6.4604025
6.5097952
6.9140878
6.9333189
6.8965627
6.8771889
6.4541566
6.4988115
6.5513363
6.2677917
6.3303615
6.4079859
6.4868593
6.5768879
6.5527931
6.4589692
6.4450703
6.2188566
6.3303856
6.3517931
6.2426126
6.2669491
6.3735726
6.3932271
6.5898325
6.4992541
6.2883718
6.1891689
6.4226494
6.3456231
6.0972624
6.0697972
6.1646746
6.1375742
6.3791786
6.3626671
6.2800045
6.2973458
6.0386676
6.0076115
6.1102376
5.8367521
5.9726652
6.1098622
6.1348086
6.0013877
5.7368303
5.8990081
5.870729
5.7029138
5.5316829
5.5723099
5.8702145
5.743033
5.7028446
5.3562467
5.3046473
5.1195759
5.5273324
5.8744463
6.1741617
6.1492085
6.1041668
6.0341919
5.9957232
5.6406227
5.6984882
5.7895773
5.8344447
5.7472657
6.0833656
6.1098024
5.7908128
5.7296334
6.0690471
6.040638
5.9895321
5.9646877
5.9230035
5.5364637
5.5977743
5.6310634
5.6826695
5.6508116
6.01706
6.0459225
5.6985671
5.2717426
5.3177746
5.4084618
5.3528677
5.4770726
5.4246147
5.2957657
5.2420703
4.7321552
4.8126018
4.9980951
5.0587235
4.878131
4.9450435
4.8049024
4.7334039
5.2579469
5.1973256
5.1480059
5.0911522
4.5056809
4.5885687
4.6644142
4.0050056
4.2302629
4.49909
4.7752414
4.7137623
4.2253791
4.580017
4.6434795
4.3078806
4.3735069
4.8368823
4.8982697
5.1414491
5.3669105
5.577767
5.2949949
5.5319727
5.2707931
5.5403917
5.7547547
5.985837
5.7885259
5.5411614
5.5092696
5.7356154
5.5122503
5.2410553
5.2772235
4.9905895
5.0295529
5.3060618
5.5753271
5.7931482
6.0162307
6.0336165
5.807953
5.5999276
5.8410547
5.8162646
5.5722499
5.3116945
5.3432681
5.5988258
5.8058065
5.5940837
5.623321
5.8620115
6.0848768
6.2915569
6.1585639
6.1810781
6.0542542
6.0284123
5.7683082
5.9258119
5.9512797
6.1065515
5.8858988
6.0744285
5.8537037
5.839576
5.6299973
5.841347
6.0590576
6.0756675
5.8546954
5.6522196
5.8885437
5.8658111
5.6273909
5.3738363
5.4017847
5.650583
5.399139
5.6489175
5.4344654
5.7021766
5.6736186
5.6434986
5.6117344
5.407842
5.4466465
5.131764
5.3683834
5.3325776
5.0868587
5.0407159
4.7597921
4.7016452
4.2914391
4.6428757
4.9509378
5.2542665
4.9030554
4.8589416
4.5292976
4.5881848
4.224785
4.580974
4.5246021
4.1489638
3.7470112
4.1716384
4.2281321
3.8115236
3.7438636
3.2425135
3.3232522
3.8122664
3.8749304
4.2809752
4.6316372
4.679329
4.994696
4.6949968
4.3360863
3.9375556
4.352698
3.9475862
4.4408327
4.5111292
4.9593533
5.191553
5.2403324
5.0206933
5.4058934
5.4538746
5.7807386
5.9021599
5.9320422
5.8160752
5.4986776
5.6471635
5.7979392
5.518174
5.4832556
5.1740855
5.4021181
5.1139009
5.3698233
5.3384005
5.066029
5.100792
5.1333587
4.8491292
5.1491976
4.8885997
5.2140834
4.982678
5.3310608
5.2868641
5.6104809
5.0806321
5.1381456
4.7291204
4.6566033
4.9289942
4.8736449
4.8167194
4.415374
4.7456222
5.0364123
5.0758798
4.7950709
4.443686
4.7679824
4.724318
4.3898823
4.0019004
4.0681129
4.4783734
4.1020783
4.5830824
4.2495154
4.7858086
5.2398183
5.6226208
5.9492702
6.2330962
6.2127215
6.1525276
6.1743828
5.8738688
5.8342826
5.9136922
5.5757576
5.4632055
5.5163598
5.0834007
5.0133614
5.1794378
4.710498
4.637889
4.5680222
4.3017796
4.377366
3.6917888
4.0792876
4.0046528
3.9352048
3.8630771
4.4380433
4.1658006
3.4693949
3.5516941
3.6169371
3.2701948
4.0766475
4.1539252
4.0326599
4.7315071
4.6582817
5.2098761
5.2192967
5.6552888
6.019215
6.4027212
6.8283222
7.2014363
7.5856167
7.519571
7.0828557
6.6063275
6.1713845
6.7178102
6.1685548
5.5801671
4.9977539
4.9330316
5.5605471
4.0625189
2.7548858
2.781528
3.9702224
5.1520574
5.2529665
6.169665
6.7214309
7.0837431
6.1716462
5.5703039
4.0767439
2.4170907
0.98841502
1.0784257
2.3647611
1.1284529
0.39398408
0.36033942
1.0365864
2.8274669
2.8516779
3.9877225
5.591597
6.6146995
5.0386051
5.5196436
3.868012
2.3054793
1.1129454
0.38567447
0.35159133
1.0197111
2.3490542
0.92358797
1.0143273
2.629277
2.578642
3.9503187
5.4973043
6.5791513
4.9003695
4.8268961
4.9989773
2.545538
0.83923172
0.32232906
0.33178529
0.90352948
2.7499853
5.102597
6.3886832
7.0657154
7.1199246
7.2103458
7.1573411
6.6126401
6.8231074
6.7468388
6.6998574
6.7438105
6.7892007
6.3577888
6.2850633
6.2118788
6.2917916
6.4188739
6.4782874
6.8581766
6.9561044
6.9208696
6.5775451
6.6243215
6.6628419
7.0033024
7.2819698
7.3166847
7.2358503
6.8776302
6.8967303
6.9337786
6.9148307
6.8686526
6.8471351
6.8056426
6.3434769
6.4106037
6.4643222
6.5123876
6.4552557
6.499494
6.5529034
6.6482441
6.9926526
6.9759488
6.9311484
6.9126443
6.5231738
6.5697379
6.7029654
7.022234
7.0612365
7.0792775
6.7726432
6.7399927
6.6118892
6.2864402
6.2197692
6.1589876
6.1182733
6.093141
6.0915286
6.1132429
6.137165
6.1158774
5.7907323
5.8184892
5.7759268
5.7464948
5.3328715
5.3768102
5.435171
5.3933082
4.8889739
4.9558583
4.8787732
4.8082041
4.1194542
4.2392627
4.4587137
4.5462133
3.8762777
3.7771138
4.1604287
3.5434737
4.0216322
3.5238285
3.4510023
3.3848022
3.8774809
3.3927267
3.3282586
3.2781377
2.7707824
2.8095055
2.0962942
2.7411423
2.6947612
2.0579475
1.5062607
1.4881214
2.3291888
3.2135405
3.022892
3.8841294
3.8273154
2.9590054
2.0556554
2.0418781
1.1090424
1.1393097
0.57725518
0.92786714
1.5289454
2.2140013
2.814147
3.3510948
3.7870153
4.1890877
4.5410051
4.8838217
5.1906227
5.2363564
5.5240156
5.7916133
6.0370352
6.2625821
6.2334039
6.1090349
6.3472452
6.3715012
6.145946
6.1756934
6.2892463
6.0660546
6.0924216
5.8534011
5.8235023
5.6542773
5.9264025
5.8939042
5.8608473
6.0108913
5.7547812
5.568624
5.6174099
5.4388282
5.7505113
6.0315094
6.2853698
6.2573014
5.9943307
5.8770997
6.1657905
6.1950979
5.9220692
5.9589897
6.0645463
6.3205886
6.4048471
6.4207919
6.2010239
5.9563749
5.688269
5.5211198
5.8219731
6.0931543
6.3390822
6.5712674
6.4679121
6.8700383
6.8303623
6.808918
6.8088666
7.2020025
7.5855759
7.7852597
7.8334977
7.915413
7.8853271
7.7961159
7.7310666
7.6313487
7.5199728
7.0691547
7.1214519
6.7064424
6.4006243
6.2270852
6.2965312
6.7481165
6.7916538
6.750617
6.3003895
6.3635957
6.4804442
6.8593595
7.2107743
7.1587782
6.6151213
6.8248327
6.4218776
6.5781269
6.9216317
6.9562768
6.6244745
6.6625928
6.524216
6.4142807
6.3515582
6.4076339
6.4082763
6.4585636
6.514191
6.915581
6.9339241
6.5535766
6.6483358
6.4117238
6.4892835
6.4624872
6.449858
6.2263346
6.2483225
6.2710079
6.2912079
6.3947737
6.5908278
6.5007858
6.4252103
6.1933941
6.1710059
6.1460357
6.3841141
6.3692378
6.1212888
6.0228326
6.2887196
6.2540974
6.2347667
6.1652897
6.1229886
6.0896619
5.7746968
5.820711
5.7335768
6.0549976
6.0202132
5.6799737
5.3037172
5.4300741
5.5680968
5.7159024
5.3891121
5.1935204
5.256595
5.6096947
5.6518213
5.7874301
5.4807922
5.3050235
5.3516425
5.6907077
5.9905962
5.8976754
6.1873392
6.1245179
6.1009822
5.7779468
5.8613178
5.5217604
5.4737991
5.0736025
5.0094949
4.8264457
4.9021537
5.35288
5.4049576
5.4546245
5.5660908
5.1830201
5.1286845
4.9626511
5.0231444
4.8891974
5.3660653
5.7567253
5.8169812
5.8565401
5.9328667
6.2234109
6.2416455
6.3041547
6.0505143
6.0787744
6.3352074
6.3489027
6.1034486
5.8270933
5.9393215
6.0587657
6.1835802
5.9553473
5.9315671
5.9069114
6.1399518
6.1170337
5.8809306
5.7203183
5.9842048
6.0103169
5.7502371
5.7786112
6.0348578
5.9124116
5.8840187
5.8539883
5.5586255
5.5942662
5.4393652
5.7627166
5.7277321
5.3961027
5.0216319
5.2310541
5.4313091
5.6250464
5.5937418
5.5605656
5.2766449
5.3138064
5.0762801
5.394364
5.3558324
5.314002
4.9861789
4.9235582
4.5782055
4.6346048
4.9263045
4.596979
4.2656622
4.1916675
3.8252291
4.2533457
4.6532379
4.7142147
5.0914547
4.8566199
4.41461
4.334654
3.8708544
3.9388042
4.3086618
3.8913965
3.4539836
3.3696701
2.873947
3.4530281
4.0108299
4.0849219
4.6088552
4.364694
3.7399102
3.6522411
2.9896892
3.0445674
3.5115479
2.9333943
2.3412752
2.280846
1.7366917
2.5578755
3.3472227
3.4200763
4.1498554
4.759457
5.2567243
5.6670511
6.0110065
5.97335
5.6128567
5.5736472
5.9458755
5.9838301
5.6304498
5.6793542
5.7141466
6.0587801
6.0840636
6.0590567
6.0329272
6.0324836
5.9828227
5.9449678
5.7061165
5.6261628
5.1396813
4.6882011
4.8017728
5.0418839
5.8246294
5.7496835
4.9402091
3.9157908
3.4564858
2.8161837
1.8811597
1.8713937
3.500069
3.9930351
2.7571184
2.7054794
3.561171
4.50262
5.2875782
5.9542681
5.6986847
6.1870222
6.2390913
6.0181963
5.3844734
5.7348714
5.6641838
5.0507143
4.1770578
4.3245203
4.4303909
3.68786
4.5929547
5.1281691
5.2542289
5.0260051
4.7757789
4.5239951
4.2744128
4.0684708
3.9493463
3.9569374
4.5954854
4.6841104
5.2054287
5.1493899
5.2020003
4.6745402
4.7400419
4.8234709
5.3121627
5.2591036
5.3148024
5.7226939
5.7666247
5.798638
6.1253612
6.1642029
6.183489
5.8912225
5.9642708
5.9959955
6.2736768
6.2895872
6.02375
5.9574236
6.2356699
6.2189814
5.9261557
5.5935035
5.6880492
5.7956608
5.4799044
5.6277875
5.6595062
5.8053633
5.5291865
5.7078992
5.6817169
5.6540631
5.3815962
5.3485367
5.1176314
5.1571324
5.4657079
5.4982146
5.1943948
5.4125028
5.4417222
5.229285
4.9074124
5.1572292
5.1243631
5.0894953
5.0526994
5.0135472
4.9719477
4.6465501
4.6927813
4.3733285
4.7342955
4.6857183
5.0319542
4.7685423
5.1408866
5.1867297
4.8205241
4.5388871
4.9674606
4.9130451
4.4763265
4.0047047
4.3685347
4.4258294
4.0129914
3.9523825
4.3200601
3.9384636
4.2967982
4.2411814
3.8537611
3.4730398
3.8790489
3.8136938
3.6811023
3.5769448
2.4766024
2.6618171
2.7671295
2.0053306
2.8328379
2.7238141
1.8925626
1.0519921
1.6024934
1.6050901
0.63352064
0.71649907
0.37715166
0.33943046
1.0697696
0.54609357
1.1084514
1.7270758
1.7129904
0.93100466
1.0870666
0.41564196
0.80165979
0.7145922
0.37569754
0.21098011
0.23051084
0.57040045
0.22141723
0.20302191
0.2045302
0.20886691
0.21717984
0.23840761
0.39269843
0.74793521
1.7881934
3.365804
4.6287016
5.5965129
5.6807215
5.8131774
5.734269
4.9163233
5.0219411
4.7476557
3.4081311
3.9681333
3.8835199
2.6873963
2.7452402
1.7741374
2.1027857
2.9959147
3.8520524
4.5205472
5.1003355
5.5412929
5.9258864
5.9667343
5.9972758
5.9566396
5.5868941
5.644608
5.6021417
5.1567051
5.2211229
5.1658457
4.6265468
4.705782
4.6044127
4.6749875
4.74814
5.2798069
5.7027816
6.0473836
6.0748136
6.047215
5.6953353
5.7408684
5.8058804
6.1171099
6.0922013
6.0440002
6.0069943
6.0800863
6.1153574
5.808888
5.7161611
5.6596471
5.7599322
5.4098331
5.2740283
5.3270265
5.4563357
5.0492811
4.8643543
4.7839793
4.982019
5.1764047
5.5547514
5.8669282
6.1588033
6.0153593
5.9492057
5.6961614
6.1873677
6.2399891
5.7397618
5.3824749
5.282674
5.6687197
5.0645084
4.5034115
4.1906526
3.5788642
3.7107289
4.5982672
5.1422924
4.4629337
4.3579007
4.9757991
5.5452007
6.0079627
6.4220464
6.7362192
7.022652
7.3351008
7.6313108
7.6933143
7.3991656
7.4309599
7.5631405
7.6036552
7.5301477
7.4753934
7.5254316
7.4321936
7.2940315
6.8901689
7.1255583
7.1881714
7.1585334
7.0524408
6.7828811
6.9360841
6.904634
6.6586858
6.8336239
6.6958978
6.4701356
6.079276
6.3634401
6.3329205
6.2935306
6.8002888
7.158544
6.2946009
5.3867324
5.988648
6.0368021
5.6212408
5.0866395
5.619785
5.5439055
6.0076004
6.3330746
6.3632048
6.6956093
6.6582883
6.422083
6.4697755
6.0781893
6.1032429
6.4237172
6.9094712
6.7405489
6.6438236
6.8184198
7.097199
7.1136113
7.2169403
7.2615141
7.1980303
6.9838588
7.0068586
6.8530029
6.8871168
7.1512144
7.1676982
7.267097
7.2944143
7.2468061
7.0454553
7.0651949
6.9161273
6.6650723
6.5784346
6.4892067
6.4112313
6.3344165
6.2722687
6.2167511
6.1798656
6.1576807
6.1565193
6.1763863
6.2123088
6.2312416
6.2853989
6.015777
5.9843674
5.9132374
5.9480208
5.8990801
6.1969195
6.1776694
5.8740592
5.8345065
5.8608573
5.4921788
5.5678268
5.6672272
5.7091177
5.6164163
5.2209932
5.3543674
5.2981967
5.1527869
5.0343436
5.1120725
5.546173
5.5101077
5.4527299
4.9713868
5.0540184
4.4420028
4.5462
4.7321864
4.9368106
4.8617265
4.6380655
3.9884405
4.3434029
4.4405922
4.1109169
3.7642359
3.6262242
4.436324
4.3334934
4.2166885
3.2998249
3.5105466
3.4150951
3.3357679
3.132522
3.0718766
3.9546882
3.9842671
3.9111833
4.0730174
4.0086285
3.2470854
3.3205225
3.0654885
3.1204755
3.1867284
4.0629901
4.2287982
4.8456214
5.3393117
5.2808741
4.7746067
4.9295795
5.3825525
5.7633246
5.8520389
6.1588098
6.1823498
5.8898318
5.5546263
5.4359567
4.9947139
5.1655715
5.1077114
5.5065847
5.6429097
5.952551
6.2304851
6.1893191
6.2818472
6.2526581
5.9883667
6.026574
5.9136296
5.5983979
5.7441023
5.7079322
5.3798153
5.4304971
5.2415874
5.292811
5.3419609
5.6837164
5.9860435
6.2506703
6.3371809
6.3175679
6.0607634
6.0904007
6.1992475
6.4193371
6.4030524
6.368953
6.3441412
6.4466796
6.4702904
6.2609897
6.1426712
6.1047888
6.2311116
6.0087833
5.8563464
5.8904487
6.0348454
5.7899753
5.6133848
5.5632374
5.752596
5.4889625
5.2642235
5.0340197
4.7782525
4.5151653
4.245234
4.3135445
4.5771942
4.0477699
3.676276
3.584947
3.9704439
3.4133157
2.9190824
2.4483021
2.4752543
2.0983404
1.1595812
1.1808359
1.6431567
1.648722
1.6550135
2.5195473
3.3878234
4.1482107
4.3871829
4.4631304
4.7135574
4.6454777
4.1201247
3.7502333
3.8314406
3.4652015
2.573622
2.1364864
2.057696
2.377037
2.9120034
3.4623836
2.8471747
2.790538
2.1137073
2.8556981
2.3500559
2.0464142
1.0662968
1.4637289
1.436139
2.1368271
2.167715
2.9817314
3.0694641
3.6355465
2.9929124
3.6030408
3.6894055
4.1857443
4.5416329
4.8424863
4.4955693
4.8092973
4.492143
4.8178865
4.7781279
4.7364113
4.4240886
4.7806378
4.8250778
4.4732503
4.520524
4.8670312
4.5919333
4.9671508
5.313127
5.2729743
4.9199367
4.8708936
4.6010087
4.6631295
5.073545
5.1238899
5.1712958
5.350498
5.0114745
4.7822083
4.7235908
4.2818126
4.2106261
4.5374241
4.4821154
4.0732403
4.1334787
3.7308682
3.6560476
4.1399112
4.0711307
3.5852742
3.5181659
2.9943404
3.5815342
4.1537543
4.6737897
4.7373947
4.225009
3.8862547
4.5043383
4.4334864
3.8096657
3.1068347
3.1776517
3.6548884
3.0613139
2.4343489
2.3827214
1.7535912
2.6316023
3.4853135
4.221193
4.2953032
3.5586973
3.3279983
4.1583348
4.8067438
4.876093
4.9552145
5.0835127
5.2355699
5.6087865
5.6492053
5.2868343
5.1434723
5.5485495
5.5023033
5.4185647
5.4697558
5.8364842
6.1464134
6.1237764
6.1017185
6.1015
6.4578572
6.878503
6.8785695
6.8970908
6.5007986
6.18339
6.2017444
5.908624
5.8745503
5.8464355
6.1621691
6.1812834
5.8819752
5.5267095
5.5663057
5.6351332
5.7241981
5.3830331
5.5178337
5.5537182
5.6889747
5.8309117
5.9779548
6.1305425
6.2882876
6.5761227
7.0328077
7.3627186
7.6120706
7.6811961
7.8406472
7.8918341
7.9280581
7.8918563
7.7579383
7.8258113
7.7639781
7.612046
7.644153
7.3957568
7.3626314
7.3017088
7.4891788
7.519667
7.3467245
7.3183011
7.1219467
7.105228
6.9480936
7.2059255
7.2196732
6.9755176
7.0068281
7.1582194
7.1783649
7.3669689
7.271066
7.2546036
7.1688973
7.4120451
7.6731737
7.7411426
7.4735662
7.5767612
7.6920511
7.7266593
7.4993547
7.4635982
7.4010523
7.4169773
7.2365022
7.2184693
7.0676569
7.3081837
7.3212534
7.0962075
7.129623
7.2735285
7.443853
7.6107076
7.4563938
7.2945497
7.3651892
7.3541843
7.2693043
7.5098108
7.2772617
6.9944626
6.9608534
7.2369814
7.2234342
7.1860783
6.8980972
7.0352676
6.8853422
6.9627034
7.085265
7.3957636
7.644179
7.5197738
7.489231
7.3017463
7.3184243
7.2198393
7.2059488
6.9481003
7.105299
7.1219822
6.9756672
7.0070661
7.2548351
7.3468136
7.3670756
7.2712356
7.0355904
7.17843
7.1582814
6.9365729
6.8993828
6.8752578
6.7911043
6.8023566
6.7087426
6.6984772
6.5219457
6.6374628
6.6480265
6.538202
6.5570653
6.7310055
6.8212917
6.8329932
6.7414241
6.5733136
6.6810876
6.6694617
6.505824
6.5924272
6.5757626
6.4728668
6.4872341
6.3510433
6.3323664
6.1292264
6.2875076
6.2988903
6.1487786
6.1694261
6.3699673
6.3884519
6.5213178
6.3352944
6.3223967
6.1396885
6.2926586
6.592389
6.8993765
6.8752263
6.7912881
6.8024044
6.6482072
6.6376788
6.5225127
6.6988208
6.7087258
6.5384315
6.5570385
6.669554
6.8212297
6.8328922
6.6810612
6.5731373
6.7411632
6.7307891
6.6468579
6.8356366
7.1333425
7.3800295
7.1181981
6.8055018
6.6841907
7.0362231
7.0491078
6.7158983
6.7496545
6.8676579
6.6806955
6.7640349
6.8540163
6.9363588
6.6446915
6.6625985
6.5771949
6.7374676
6.7154304
6.8654422
6.7742192
6.6081902
6.592052
6.7046566
6.5439674
6.5212891
6.5057863
6.4875625
6.4732257
6.3333771
6.3514873
6.1495529
6.2993039
6.3229236
6.3355046
6.1887743
6.3882608
6.3700879
6.1696403
5.9539379
6.139864
6.1166026
6.2623173
6.1012193
6.116066
5.9313986
5.9097596
5.6755491
5.8867732
5.8985397
5.6983473
5.7222081
5.9532194
5.973711
6.1884677
6.2093103
6.4077899
6.5923224
6.7642571
6.8541637
6.8657182
6.7743866
6.6083754
6.7155595
6.7047424
6.5440393
6.6446814
6.6626491
6.9627234
6.8854609
6.8975107
6.8074465
6.7968652
6.6271398
6.7376036
6.7495047
6.643476
6.4626656
6.5930815
6.5771692
6.558364
6.42555
6.2276564
6.3738689
6.3628254
6.1802657
6.3380496
6.3682539
6.2176902
6.3977188
6.4104349
6.2663584
6.2474278
6.4441887
6.3209658
6.5233341
6.7143353
6.8983454
7.1862753
7.4121824
7.6732861
7.7412471
7.825864
7.6920979
7.5768609
7.401143
7.4636277
7.4170067
7.3213563
7.3083454
7.0678101
7.2185734
7.2365079
7.0963241
7.1568156
7.0023312
7.0280117
6.9505008
6.9307529
6.9193666
6.8305229
6.8405118
6.6787449
6.7843606
6.7736517
6.6625748
6.4820937
6.616297
6.7167867
6.735203
6.6499438
6.8063865
6.8181114
6.9618959
6.8728434
6.8628459
6.697475
6.7139207
6.5373857
6.6657621
6.4865197
6.4736997
6.4494741
6.6307021
6.499937
6.3054489
6.286833
6.438437
6.2583679
6.4142679
6.7167458
7.0022285
7.0279983
6.7352234
6.6498305
6.8062952
6.9503354
6.9306335
6.9192298
6.8973299
6.7494174
6.643409
6.8072291
6.7966563
6.6268641
6.4442642
6.4253717
6.558213
6.3739863
6.3629215
6.2092152
6.4075029
6.2826742
6.4871668
6.468259
6.6583872
6.5719794
6.5613595
6.5370127
6.6249443
6.6134386
6.4144648
6.4320627
6.3309553
6.3120714
6.5263373
6.450955
6.4631207
6.2364832
6.216065
6.128754
6.3777245
6.3896558
6.150641
6.1735709
6.2576394
6.3508411
6.4507796
6.2439583
6.2241765
6.2042432
6.0813953
6.1030181
5.8550093
5.9995116
6.0207202
6.0412547
6.2630252
6.1446253
6.3688707
6.2767175
6.4991815
6.4872534
6.4165451
6.4276156
6.1936053
5.9324649
6.0333607
6.0113818
6.1238406
5.8779959
5.9001424
5.7669095
5.7423223
5.7164425
5.9884249
5.9645432
5.856039
5.8830937
5.5862073
5.6162353
5.9082623
5.8179548
6.1005957
6.3600462
6.6260581
6.9923359
7.3055687
7.3354165
7.0317167
7.088524
7.1033648
6.7808524
6.6933869
7.0473976
7.0128487
6.9978409
6.9569173
6.9435441
6.9782991
6.5921175
6.5418956
6.5771625
6.6133327
6.66102
6.398907
6.4539878
6.5233757
6.5963667
6.6066041
6.6922036
6.5044584
6.4062562
6.3884368
6.16471
6.1845168
6.3015399
6.0817981
6.2275026
6.2475023
6.3977074
6.4104851
6.5929868
6.4624267
6.2662331
6.0545792
6.2326173
6.2175985
6.1944074
6.1802958
6.1549899
5.9397943
5.9285793
5.8988308
5.8874398
6.1018289
5.9117022
5.932215
5.6995417
5.6772918
5.4291184
5.6793898
5.6979829
5.4526511
5.4270084
5.1640502
5.192512
5.4537822
5.4785201
5.7242745
5.9283527
5.9396926
6.154505
5.7432489
5.500651
5.7413806
5.5009867
5.74346
5.9738258
5.9950969
6.0144007
5.7857011
5.9805002
5.9704296
5.7656907
5.5236635
5.7670311
5.9704661
5.9805062
6.1941627
6.0145055
5.9948317
5.7658594
5.7857282
5.8073799
6.035043
6.0546514
6.232466
6.0200706
6.0095414
5.8082181
6.0097266
6.0200766
5.826897
5.8071369
6.0348452
5.8645972
6.1017781
6.3207299
6.5231709
6.714105
6.7259249
6.5404954
6.4432358
6.6408827
6.6306752
6.4254531
6.2042287
6.223782
6.3397196
6.1217818
5.9842253
5.9634687
5.9427019
5.9216154
6.0614741
5.8226293
5.8010084
5.7790904
5.7564228
5.7327465
5.4693182
5.4950916
5.2924438
5.5847672
5.5576413
5.2617735
4.9444605
5.1880084
5.2167674
4.9225178
4.8900173
4.8551062
4.5653554
4.2510152
4.643114
4.3510593
3.8848957
3.807319
4.1926885
3.7824516
4.1560631
4.1034065
4.4456187
4.3979783
4.3482527
3.9705811
3.9127702
3.533502
3.5932336
3.9942967
3.5949559
3.5333737
3.4705811
3.4125476
2.9881703
3.3913831
2.9558397
3.0218225
3.4079404
2.8791995
2.4989236
2.4241244
2.0844197
2.5688181
2.6242316
3.0554271
2.5691299
2.9885545
2.9207598
2.4923862
2.1154976
2.1767824
1.7659362
2.1460083
2.2007066
2.5547743
2.9375177
3.4710382
3.5333291
2.9989878
2.6138015
3.1451946
3.0830858
2.6850728
3.117173
3.1785792
2.6855718
3.1134329
3.0497377
2.6256583
2.2314164
2.2878471
2.7456675
2.2572594
1.8649182
1.8137102
1.3363256
1.6365143
1.9210601
2.2850254
2.243615
1.5389483
1.2065877
1.8807935
1.8445574
1.1829298
0.64878882
0.62095728
0.88578518
0.52079615
0.28954553
0.32377829
0.22785745
0.52984575
0.98356954
1.5618125
1.5950787
1.0063311
0.81524202
1.2999048
1.2615661
1.7012257
1.2821145
1.6140816
1.94174
2.3634106
2.4034215
1.9827158
1.3176192
1.7296874
1.7063202
1.2886689
1.0409092
1.0645462
1.6479401
1.3207781
0.84599459
0.82016675
0.46427661
0.57027934
0.72433106
1.0867561
1.0547481
1.7451472
2.585918
2.2601354
3.2053548
4.0148603
4.0841394
3.2616252
2.2825192
2.3136597
2.6852823
1.7683913
1.2511718
1.2729931
1.2994243
1.3128382
2.2566865
3.1337482
3.1224971
3.1918519
4.0063023
4.6692051
5.1987487
5.6285316
5.5714442
5.6082907
5.9706347
6.0083077
5.6625334
5.7101865
5.677411
5.7212266
6.0579989
6.0818077
6.055931
6.0979931
6.4661019
6.8694185
6.8298601
6.8484643
6.9132941
7.2820482
7.316558
7.2358385
6.8969534
6.500366
6.5527001
6.9335377
6.9150225
6.5127417
6.6118388
6.9759115
6.9312963
6.5697354
6.7024745
7.0221239
7.0032079
7.0970754
7.3990803
7.6932482
7.4308108
7.1510291
7.0609717
7.0789806
6.9923414
6.6474872
6.7718321
6.7393128
6.8865323
6.8522672
7.1132204
7.2168326
7.2612075
7.197903
7.1583578
7.0522009
7.3350092
7.2942803
6.8895244
7.0225129
6.7355659
6.7822339
6.9353074
7.1873673
7.1251813
6.9036368
6.6562574
6.419626
6.2877256
6.0008099
6.073262
6.4679587
6.6939226
6.8306712
6.3264214
6.3580589
6.0248879
5.6064821
5.5277856
5.3551385
4.9371694
5.0531451
5.5924586
5.5106834
5.9733139
6.3213861
6.2750269
6.7956973
7.1575748
7.5252153
7.4321228
7.4753313
7.5300834
7.6035477
7.5630486
7.2941637
7.2466784
7.2669054
7.1673782
6.915561
7.064761
7.0448525
7.0061529
6.9832542
6.8176551
6.541236
6.4457179
6.343819
6.2535554
6.1614947
6.085309
6.0163721
6.0511858
5.7268151
5.672994
5.7670859
5.8137764
6.1190112
6.1615849
6.1840793
6.1213105
5.8116784
5.7524187
5.3584326
5.3116972
5.2558428
4.7344878
4.8013669
4.8748869
4.8096664
5.3040927
5.248519
5.1976292
5.1460335
4.5900536
4.6711292
4.7456688
4.884296
5.3418155
5.2922852
4.8082774
4.991659
5.4182753
5.4624039
5.0555324
5.1114084
4.9446295
5.3940533
5.7712948
5.8551854
5.8915062
5.556064
5.44413
5.0054319
5.1657626
5.219592
5.0664186
4.9410416
4.8702585
5.3668275
5.3694611
5.4236183
5.8058827
5.8051392
6.1230904
6.144549
6.1230658
5.7950121
5.7646163
5.8332517
5.8719106
5.8451363
6.1617338
6.1808757
5.8809741
5.9061524