/*--------------------------------*- C++ -*----------------------------------*\
  =========                 |
  \\      /  F ield         | OpenFOAM: The Open Source CFD Toolbox
   \\    /   O peration     | Website:  https://openfoam.org
    \\  /    A nd           | Version:  7
     \\/     M anipulation  |
\*---------------------------------------------------------------------------*/
FoamFile
{
    version     2.0;
    format      ascii;
    class       volScalarField;
    location    "400";
    object      k;
}
// * * * * * * * * * * * * * * * * * * * * * * * * * * * * * * * * * * * * * //

dimensions      [0 2 -2 0 0 0 0];

internalField   nonuniform List<scalar> 
25278
(
1046.939
987.20212
989.84723
989.84566
934.33312
987.19974
1045.2955
1046.9365
1045.3012
1028.8948
1031.859
1034.3923
1007.6412
977.92452
893.76701
989.55401
987.09633
921.26781
906.86758
946.25291
964.8906
969.7802
973.89608
1003.7676
994.84776
1003.7665
973.89612
965.43626
956.06711
971.28594
966.1547
950.96842
936.03976
945.94383
960.3247
955.10266
963.24262
959.77253
951.7519
942.36273
947.49738
955.57959
950.78239
958.59584
967.49876
981.27057
1000.1738
995.56462
977.05737
961.67554
958.66379
943.35508
922.16155
927.71296
948.54552
956.70058
953.72955
945.57451
933.4467
937.74781
946.12442
942.09588
939.05697
951.71236
943.45559
942.24959
950.47339
937.40632
928.64388
930.37982
915.00634
919.63429
925.69985
932.20533
939.30307
947.81878
960.33485
971.29206
969.78379
943.75901
916.75299
893.83541
921.31415
907.10194
938.16323
911.28353
877.11806
841.52875
859.09759
876.72205
890.33063
872.07586
858.93091
824.40676
839.58523
872.23262
887.443
904.27366
918.24611
900.34121
887.30091
855.61552
871.52048
900.46846
883.57814
870.86212
854.99601
798.06273
781.54003
739.79744
827.30414
840.18464
755.46975
772.73124
815.50816
833.07732
790.5102
869.65559
857.37197
857.37613
907.07921
938.11641
934.23889
858.77134
824.30291
781.52942
739.72016
827.29488
877.09509
911.24028
916.62613
943.6154
921.19829
893.72509
859.05697
841.53881
855.033
840.18211
755.38088
798.11906
815.63782
772.62809
790.37775
869.66514
883.66388
870.92315
887.45302
872.22371
839.55914
871.97498
893.54127
876.60041
890.23184
904.17929
921.04614
918.16758
900.50631
871.66353
833.27305
745.5661
600.13869
600.38836
745.15058
831.91779
883.07417
870.3599
856.27784
868.53106
785.85704
768.33887
814.34136
724.2099
576.90577
588.0421
360.63371
345.28039
588.09935
587.92087
349.87958
365.36795
588.44428
576.47569
724.36161
814.04655
855.67396
887.24427
900.34719
883.05041
831.82499
783.61076
765.99414
855.6617
906.62231
870.21232
868.07349
886.45556
803.74775
603.98523
390.05371
385.42668
602.41898
805.81744
886.66639
899.52223
916.09631
932.88315
945.95877
956.07825
950.99983
966.17421
955.13186
936.10298
947.53641
955.60986
963.26422
959.81186
951.80318
942.43589
950.83977
958.64041
963.40681
975.95447
985.87501
1000.1735
1001.5595
990.98753
985.92965
996.63557
981.28178
970.73341
978.52343
971.23493
966.42649
975.0836
967.5292
964.51378
977.07994
995.56851
964.90746
946.31763
961.71448
948.62089
927.87349
937.87045
946.22202
956.75877
953.81292
945.68163
933.63148
942.24331
939.25087
951.81556
958.72323
943.4493
922.42769
943.58692
930.62123
928.92248
942.399
950.59286
937.63024
945.56739
947.16982
950.11993
954.04267
961.93426
972.11273
969.22872
961.7029
959.73055
974.31934
989.62924
992.49579
979.79
982.77067
990.44228
993.87003
986.63843
978.87997
974.13297
981.77126
977.235
987.47258
984.58973
976.99671
965.71649
969.60984
961.76233
964.39162
967.14511
971.07163
979.22136
990.98444
1001.5583
985.87143
975.9479
970.71624
978.51045
975.06059
966.39297
971.21685
963.38321
955.39849
963.54336
963.48133
959.43602
955.58696
951.39391
940.58628
947.63902
937.06864
928.95501
919.27216
928.36588
914.01574
926.90428
937.10088
947.67305
939.34771
916.19469
928.99503
919.40787
932.30686
940.66823
928.47289
914.12583
904.98193
918.38027
888.43834
904.84204
886.56028
896.9276
913.9021
920.97579
928.33461
934.57455
940.89131
946.32446
950.50014
947.13791
952.73267
948.56447
942.76638
936.71909
940.95906
945.16162
945.38458
953.02252
948.99872
954.43223
958.28828
963.36364
960.51093
956.68845
951.13317
954.93424
948.77345
952.94057
946.62897
942.79901
938.82756
934.14368
929.60108
922.31324
926.67062
932.6539
934.9565
945.40922
955.42456
963.5009
953.03989
949.04469
954.47526
959.47415
955.6308
951.44558
946.38413
950.55065
947.21448
952.79638
948.63744
942.85667
936.8244
940.95665
945.21585
938.88562
934.64451
929.7244
934.24706
941.04862
945.0241
951.19785
956.74269
960.5577
963.39663
958.32519
954.99002
948.83711
952.97836
946.66937
942.84608
938.25081
942.05646
945.83984
950.54968
961.10241
968.39725
978.91817
974.779
971.01064
965.91129
962.14738
958.80637
962.52851
968.13563
971.97348
975.77883
978.69913
973.56068
969.72753
966.34771
970.13035
963.90827
968.16316
964.25598
960.58148
956.74727
952.6219
956.34942
949.5422
954.23887
958.01693
961.79177
957.06589
953.30195
960.11929
956.12545
963.02618
969.32239
965.52466
959.23848
955.51507
951.72958
957.96797
954.12596
950.17733
945.94767
934.29816
925.89557
899.95192
910.21905
919.23377
910.69778
928.66401
919.958
900.97678
877.14239
891.37712
851.7912
866.55487
876.95315
900.50825
887.01208
854.78197
842.46426
816.26567
863.99185
893.71799
915.46376
887.61048
912.93343
921.85775
924.28064
903.65594
899.43765
889.09876
854.4427
810.6244
786.07845
800.30453
829.22773
874.37856
865.15907
886.69846
890.03745
894.52088
899.47628
905.09789
910.70101
916.72572
922.44738
928.39945
932.70854
925.25495
921.02312
913.8835
918.58257
926.7821
930.82258
936.69021
943.06564
936.646
940.51576
934.55488
941.9843
938.16524
944.94823
940.97081
947.8345
954.05184
961.8772
972.07842
964.46874
961.63743
969.1804
957.95377
950.00496
953.96639
945.84854
934.13795
928.39561
910.17356
918.96717
909.90215
900.35043
892.7379
902.8189
923.90213
921.41665
912.40513
887.90177
898.41376
862.2946
872.32874
885.97373
900.09579
890.9008
850.6787
875.98226
840.45726
866.0389
876.4674
852.92517
824.19304
811.26957
861.78899
851.46002
776.76772
790.60586
832.8518
862.64583
884.89421
900.73703
914.1267
924.47617
933.67758
945.39113
958.46323
974.28364
989.61266
992.4854
996.63049
985.91982
993.8634
990.43054
982.75315
974.10814
978.86617
986.62885
981.75343
977.20613
987.45525
979.76473
976.9612
984.56664
973.27457
965.655
969.56706
961.70863
964.35188
967.11677
971.05664
978.90786
974.75852
970.98683
968.1018
962.48828
965.88492
962.11601
958.75806
952.56851
956.71568
961.08954
968.38921
964.23409
969.70632
973.54238
978.68197
975.7546
971.94428
966.31416
970.10287
963.87832
968.14563
961.77416
957.99572
954.21143
960.55555
956.30404
949.49172
945.7782
950.51627
944.30444
950.73094
958.31274
951.80085
948.05291
942.04453
938.33783
930.19386
937.08462
933.0946
929.4496
925.21517
918.46873
913.74932
905.04711
909.58118
918.28516
909.66646
905.14621
894.84663
899.86732
904.05292
913.72055
922.57592
930.73039
924.86038
933.35121
929.30637
936.95071
943.82075
950.09252
947.2784
943.02634
936.09317
939.487
932.76695
928.69701
933.04161
940.59826
944.6403
951.31063
955.11721
957.90565
951.65029
948.46074
945.45613
952.75295
948.91819
944.88652
940.58675
938.20767
942.509
934.77761
937.55205
933.10151
930.1786
921.42081
925.005
929.29766
925.85673
915.50448
919.86298
924.5118
919.75147
924.82808
916.48859
920.76984
914.85156
910.30575
898.86166
906.6647
911.28863
903.93622
908.17063
919.00746
928.59977
937.09092
940.93947
944.80581
937.19322
932.47069
927.93532
937.26733
933.39018
941.62166
938.88118
946.60302
950.40253
942.73055
933.90584
929.99665
919.74179
924.01762
913.2589
908.99587
904.4907
915.16304
910.52504
906.62456
918.42059
927.82013
936.32655
947.01809
959.64996
967.22151
965.99534
953.39096
955.0017
962.7096
974.98196
982.60791
981.38714
973.80616
961.10889
968.71754
970.32342
960.01899
961.83706
964.14049
966.53155
969.28392
965.47965
962.68058
958.97126
952.2584
955.44744
959.18138
955.98268
959.77322
962.97836
966.76321
973.10925
970.28957
963.54201
960.52733
967.91202
965.55541
957.81027
954.05902
956.76679
952.98293
960.31625
956.5889
954.2893
957.96951
950.27299
946.54799
949.25921
941.04986
944.70831
948.57343
952.30983
948.44196
939.97911
944.68231
940.9551
936.24231
931.74125
935.49859
944.79057
941.47137
937.71517
927.58867
923.7278
920.0076
930.99147
940.395
948.59195
944.76763
940.66847
939.05826
934.71211
925.79681
930.47501
932.38642
936.52224
934.64358
943.20516
947.01018
938.53635
937.24798
946.02044
942.19931
938.04812
937.47501
933.10384
923.75219
928.459
929.14141
933.33558
932.66554
941.64479
945.45938
936.58656
926.16483
927.00833
928.64891
924.64459
927.03435
922.83724
920.39485
915.86133
903.1273
908.35217
911.60107
915.93618
912.78834
916.95508
914.771
910.52076
922.96349
918.66609
917.78004
913.19874
899.41771
904.77766
905.99652
890.09068
893.57902
898.1358
903.37189
898.58505
883.48709
891.46389
896.49049
889.0592
893.66961
907.76893
911.88476
917.25498
922.91683
928.72364
919.31558
926.40215
917.58605
926.21124
933.12257
940.55246
934.63463
926.48113
922.67098
929.48276
922.39697
913.79433
917.64819
907.9671
911.761
921.36764
930.00845
937.10724
944.33502
948.07664
940.61795
933.93502
942.09821
938.40373
930.25919
921.41882
925.11566
933.68398
940.59929
933.88319
937.64554
945.80467
953.2622
960.08237
956.06821
959.85338
955.96342
952.19156
943.71835
948.42713
952.19698
957.03449
949.56011
955.60573
948.11661
944.55381
937.45279
944.56707
951.81995
955.62041
948.12749
941.40497
949.59299
945.8457
937.68495
928.84465
932.57123
941.17069
932.5483
941.37555
934.32453
943.7115
939.95063
936.21577
932.48946
926.71441
930.46517
919.77372
926.83298
923.10267
915.98806
912.1437
904.99326
900.88412
886.64181
895.97093
904.99002
915.42696
900.77779
896.37476
886.79538
891.62029
877.84048
889.22596
884.38593
872.31334
860.07672
877.24321
882.05314
872.06957
866.69991
845.55454
852.04686
865.56296
870.3585
882.32697
893.52291
897.53536
908.93516
900.03452
886.5099
874.83467
890.91783
881.57551
897.98827
902.14484
915.85847
921.11795
924.92149
919.74945
931.3889
935.16581
945.22812
948.53786
952.30414
948.99208
938.94498
943.01312
947.4814
937.97118
934.21067
923.54249
930.57249
920.25159
928.8155
925.07387
915.49254
919.22085
922.96178
912.73663
924.01001
915.41461
927.31882
920.52103
932.48243
928.70023
939.24829
923.5984
927.42676
914.1348
910.19181
916.69087
912.84407
908.95937
895.02949
903.95399
912.75016
916.50773
907.79916
894.4586
905.19847
901.40543
890.52899
879.13238
883.31702
899.04679
890.31992
906.20375
899.99544
915.12983
927.80487
938.61656
947.96033
956.16753
952.47054
950.92763
954.59598
946.13142
942.38874
944.2279
934.83447
932.53381
936.34598
924.91401
920.97848
923.94459
911.10699
906.98767
902.7073
898.32951
902.78878
884.99761
891.25477
886.66006
881.76786
876.11074
893.3013
888.47358
868.6061
874.87721
880.07933
874.55987
895.01168
899.63562
897.9525
913.63939
909.34702
922.10007
922.11916
932.66824
941.64146
953.377
965.97994
974.25121
995.50336
964.8313
921.11884
906.85977
887.29462
904.11203
887.27814
870.51851
856.4723
868.74492
883.21672
832.702
787.51228
769.83292
815.17834
855.73498
871.56723
900.28423
918.05853
921.03348
900.28665
883.36181
833.12787
747.15458
595.31356
583.26534
726.29571
591.73804
360.17426
377.36915
604.00404
790.33021
772.80704
815.70968
870.70131
906.80874
857.16903
870.09443
813.70135
723.71408
588.92488
352.18391
367.19713
600.83221
744.89487
583.45999
572.30251
765.10861
782.61702
831.49167
882.94494
906.56899
855.53753
867.94641
886.35377
802.68344
598.22302
391.01466
404.31477
610.52725
807.60111
886.84194
922.16272
943.33102
958.63492
961.5872
946.17489
927.66049
945.51193
943.42209
942.23942
950.45993
951.67219
939.03213
937.40001
928.64631
930.36701
933.40549
942.03917
953.65854
956.59703
948.4495
937.66583
946.03055
953.86249
964.36089
976.96559
992.38838
989.58019
973.79006
981.37048
982.55747
974.93311
967.17385
959.60559
958.44804
945.38024
946.98303
954.95889
962.66142
961.09264
968.69991
970.2731
973.18961
984.4833
976.87881
969.10105
961.56121
949.93732
957.87766
961.76735
971.966
979.65057
987.33795
977.08745
969.45236
965.57319
954.22257
952.42172
950.89454
949.91785
949.3826
949.38973
949.93576
953.61443
953.05682
944.21699
944.86702
941.11565
940.46169
930.10158
930.92736
934.76716
933.95477
921.81809
922.87294
918.87007
917.7792
902.50026
904.09158
907.08419
911.26855
894.38985
889.75753
895.68539
876.78406
886.00796
867.00005
862.23174
857.29074
876.97952
866.84154
861.49219
855.9635
844.14843
850.26714
817.27617
836.46854
829.86283
809.30977
785.77338
793.22909
839.08136
869.0801
865.70902
888.23195
882.93339
858.98554
825.1489
831.35722
770.59342
763.04722
660.60619
719.48901
767.36616
800.0657
822.59564
841.60667
857.24058
871.94954
884.59569
896.65395
906.93691
911.52713
920.97323
929.47571
937.08774
943.93164
939.61418
936.2703
943.16011
947.39468
940.75088
944.77041
947.92776
941.08811
944.90581
937.31524
933.49417
928.82574
937.26213
933.24042
928.92705
932.92586
925.0242
920.05852
924.774
920.24528
929.57318
937.75428
945.03281
940.75649
933.33312
930.47449
938.41811
942.6919
935.03234
939.09916
941.79435
949.0448
951.41045
955.20195
948.57107
941.0847
932.66254
928.21598
937.46694
945.60248
952.85914
958.04006
955.11449
967.28225
966.06683
958.55852
958.54763
974.29074
995.50719
987.09243
989.54718
1046.6011
1045.1754
977.55117
973.62776
969.62696
964.85029
943.42812
958.69924
942.3917
922.42062
928.92068
937.62759
950.58585
951.79098
943.56709
930.61858
939.24342
942.22289
953.76731
961.64111
946.25587
927.84734
945.64169
933.62013
937.844
948.55978
956.68827
946.18385
953.98741
950.08786
947.15422
945.56337
953.51593
953.52391
961.20425
962.78975
975.02529
982.63643
970.37627
973.31532
964.19988
966.58113
962.74091
959.04286
952.35121
956.06003
959.83617
963.59165
966.80177
973.14083
970.32917
967.95873
960.58962
956.84674
953.08237
960.38873
956.67842
949.38027
946.70215
954.40063
950.5354
946.76101
944.95139
940.88149
936.57077
928.17251
932.69341
930.82626
939.29988
934.98918
926.20138
916.46482
918.93344
921.83558
925.32203
915.60063
911.13612
916.03562
926.21873
930.30879
933.62788
924.34688
920.20125
924.11993
934.17198
942.91541
940.61943
948.74829
947.18851
943.41533
934.94838
936.78755
927.42593
923.28884
912.2935
907.41056
904.09001
909.19989
920.92628
925.10875
929.04442
931.32532
920.52943
916.54003
913.53343
917.60134
915.50066
927.44662
937.53432
938.79811
942.60721
944.41511
952.59989
956.27176
958.05992
950.39795
954.15885
961.90899
965.61097
957.88654
949.09885
952.38652
956.02678
959.89865
952.24909
948.49401
944.76747
952.38041
948.65689
941.05865
936.40362
944.82887
948.54228
940.10987
943.82128
952.27265
948.64664
944.92713
941.2164
931.97575
935.69001
931.65594
941.65084
937.9373
927.9164
916.3687
921.45754
926.92703
932.61479
928.87289
925.03557
915.62978
919.49149
912.47722
923.17038
919.30396
915.1957
904.37829
899.3685
887.39892
892.16037
901.02442
889.41999
878.41443
872.94909
861.40264
878.3446
892.30149
897.24597
909.53376
904.16658
890.26028
884.82448
868.60312
873.83887
883.06815
866.81213
854.45554
848.12341
834.34427
859.00489
878.0686
883.57534
899.24292
895.0071
877.40304
871.33641
848.79312
854.80027
864.40468
840.86366
825.03577
817.15029
797.99177
839.13757
865.99239
872.21383
891.75082
906.94551
919.2495
929.52584
938.309
933.97586
924.91548
924.20388
933.41335
937.74751
928.85514
933.01109
933.66969
942.42618
946.21559
945.66447
941.88333
941.88103
937.7477
933.41197
921.85969
912.93534
887.62107
889.09376
899.43262
903.68389
924.2912
915.48031
893.75397
863.98567
854.3555
810.4454
785.46178
799.54294
865.05009
874.35078
828.87394
816.03966
842.77203
877.323
901.07461
919.98913
900.0285
925.92439
934.31129
928.68343
910.78568
919.34585
910.34491
891.64373
852.06422
867.04423
877.47256
855.08814
887.19063
900.78078
910.90086
905.26537
899.58339
894.55316
889.99884
886.63
884.72062
884.75684
900.50605
901.81127
914.7877
913.8732
918.37876
905.74181
910.20088
911.3592
923.47236
922.62592
926.61955
936.88704
940.71633
941.35848
950.09986
951.07708
954.71753
946.30983
948.11372
951.87128
960.10333
963.81357
955.59181
953.78524
962.25044
958.57775
950.07149
940.35775
942.57014
945.37019
935.37652
939.39967
943.12525
947.55982
938.07038
943.77098
940.03049
936.31708
926.95104
923.24585
916.26963
920.00143
930.63623
934.34413
923.71799
930.66171
934.39213
927.44607
915.57952
924.07875
920.34724
916.63046
912.90461
909.11979
905.20694
893.69463
897.68525
886.96898
900.45148
896.44817
908.55794
901.55204
913.72928
917.65877
905.57653
898.93992
912.49076
908.46771
894.74953
878.6032
887.55957
891.73042
875.87069
871.505
882.84467
867.62047
881.04868
876.60491
862.541
845.68939
862.98266
857.72979
847.19294
836.27171
768.22438
795.6333
808.88801
752.58001
811.00645
797.90868
735.2188
643.39754
736.13073
749.65918
632.41082
628.86203
464.03422
468.29741
660.70606
543.81871
666.84971
758.1706
744.4644
615.78459
649.52186
484.65363
650.67885
655.82976
489.63228
395.82347
382.84432
529.58313
376.58758
391.56713
435.85933
383.42561
396.30789
395.21491
473.82115
636.87917
779.56478
852.0771
888.05218
912.43887
921.43783
923.92965
915.05811
893.00914
903.03459
898.54214
862.94159
873.22418
862.71208
814.21021
827.27488
793.86612
826.48353
859.49251
883.13049
899.49799
913.22998
923.76269
933.10517
937.47474
938.04341
933.67898
924.50459
929.15928
928.46399
917.80552
918.72951
914.20732
900.94722
906.17518
904.84782
909.40783
913.69024
926.17709
936.58571
945.45533
946.00729
942.19114
933.34262
937.24657
938.52586
946.98359
943.1845
939.0456
934.70721
936.31083
940.64227
932.39051
930.49013
925.82842
927.84079
918.50796
915.96292
920.47281
922.89931
911.78703
908.56507
903.37842
906.8538
910.69246
921.4769
930.17953
938.17508
928.38583
919.64881
899.60971
925.65311
934.06932
918.96456
910.29844
900.52974
909.93686
891.09466
876.5426
851.39735
841.87437
854.21991
886.46487
900.22782
876.80031
866.45538
886.56891
904.81696
919.19821
932.09869
942.23894
951.62249
966.00581
969.6189
999.99684
981.1144
996.46981
1001.3343
994.53655
985.65268
971.07655
965.14487
955.86607
950.82942
935.90715
954.93867
960.11051
963.07217
959.63639
950.64775
955.40764
947.33279
939.14309
947.59688
947.46821
940.46364
928.26545
936.90348
928.80268
916.00068
932.67389
945.73477
915.98033
888.41637
918.23789
926.73886
913.94696
896.87675
913.94212
904.82217
919.18542
928.79163
936.88556
947.42192
939.10406
932.05192
940.40703
928.23997
934.42192
945.18706
963.31031
955.21904
951.24881
958.45433
967.35748
974.91585
978.33164
975.72229
970.54081
963.20374
971.0345
966.24605
973.95707
982.60548
990.28036
993.67863
990.75376
985.73762
978.67848
986.43869
981.59847
971.80002
969.15816
966.42168
964.04773
961.76026
959.96021
958.43763
957.46631
956.93669
956.94589
957.49164
958.48031
962.17578
963.74873
955.50038
951.74989
949.92998
953.67881
952.42269
961.19519
960.63646
951.7777
948.02551
948.67197
938.58202
940.14075
942.38815
946.16044
943.92555
932.65509
935.44009
931.62898
928.79843
926.81382
930.71531
942.38109
941.59067
937.78096
925.79148
929.72784
915.49228
916.81406
919.39925
922.99793
919.08637
915.36636
898.90911
904.20871
908.33839
903.32414
899.28133
894.55695
912.65461
908.42429
906.91647
887.10979
889.76713
884.84671
879.78026
876.7493
871.351
893.23663
893.41424
888.42252
890.54776
885.37954
863.85195
870.2466
866.23088
871.87708
877.27299
898.11399
900.0111
914.893
927.03917
923.01079
910.67089
912.96338
924.69875
934.64554
936.5101
944.7334
948.54997
940.36945
931.00384
928.68021
917.09154
920.11195
916.07929
927.07072
930.00266
938.84856
946.55153
942.46644
944.82215
940.53301
933.07344
937.51043
934.75937
925.88751
929.28978
925.01774
915.24879
919.9177
915.6295
919.82935
923.77939
933.89088
942.68473
950.34333
952.6737
948.84735
941.56621
945.39013
948.37158
955.02028
951.21839
947.19378
942.94822
945.74667
949.98354
943.72536
940.52801
936.03514
939.3982
932.69664
928.6669
932.99526
936.86844
929.24368
924.5006
919.76782
924.78182
916.47959
910.39239
904.69941
898.93883
893.78963
889.03652
894.09803
898.57325
882.69711
876.07482
869.8679
877.11395
857.82953
846.74274
835.66039
842.08362
832.85621
774.78618
766.60895
792.53449
800.65928
808.00956
848.43788
875.70659
895.43008
898.79283
903.18903
907.29854
903.08351
887.50597
881.21669
886.04899
880.88834
854.57227
845.79989
844.04203
851.28966
861.65058
871.89875
847.91254
842.31874
823.71579
856.07881
845.29009
837.74997
776.68535
799.72411
806.05504
829.99602
836.19088
867.09551
872.4089
881.54534
858.71476
871.64661
876.17569
894.5403
902.9994
911.61198
898.33394
908.96778
896.7978
909.04699
905.30208
901.5304
890.92682
904.30698
908.08757
894.78827
898.59321
911.83455
903.46232
917.00712
928.91485
925.19634
913.24906
909.45156
902.9649
906.88395
920.16894
923.9266
927.667
932.64055
920.75202
914.52814
910.72844
895.42976
891.42101
899.63033
895.72958
880.04513
884.09405
873.30333
868.8911
887.29743
883.04373
864.32294
859.55643
846.55827
869.58099
888.30799
903.69289
907.84809
892.73484
887.1376
903.92305
899.61462
882.42385
860.44977
865.8071
874.4246
851.9549
837.72993
831.48173
812.96267
851.49567
877.5057
896.51331
900.97012
882.50454
879.54851
899.3049
914.38711
918.41949
919.49294
921.52479
924.38255
935.11381
938.84634
928.16573
925.3663
936.62049
932.86531
931.29746
935.0736
945.06696
953.74921
953.20037
949.56523
949.56036
961.1942
973.84466
973.8585
981.42037
968.77887
957.59924
961.27622
952.54283
948.82986
948.19624
957.06168
960.72331
951.90712
941.78879
942.56617
944.08882
946.29645
935.64904
939.10125
942.85322
946.89029
951.34287
956.05736
960.92807
965.75331
976.58297
994.81399
1006.8856
1016.1733
1025.3597
1031.8572
1064.2669
1067.0603
1064.2689
1057.3405
1061.9344
1028.8921
1016.173
1032.574
1022.6733
1006.8869
1001.4767
1011.7998
1027.9759
1017.336
1009.5622
1002.4247
994.49549
989.64026
998.25291
1006.1229
997.52213
1005.6977
1010.4639
1018.7926
1025.8004
1022.4477
1014.2043
1011.2721
1024.0637
1024.9836
1058.2689
1040.3929
1044.1428
1048.1583
1065.5056
1056.2422
1039.4385
1033.8685
1042.5147
1035.7714
1027.1831
1022.4788
1030.7681
1039.2406
1031.0489
1039.9407
1044.3869
1050.741
1061.2905
1059.6399
1053.4678
1056.5685
1047.8124
1045.0058
1057.7149
1053.7418
1035.5592
1026.6172
1036.4178
1027.8891
1019.5514
1009.4253
1013.9506
1006.7843
1011.2451
1011.3399
1022.6737
1032.5754
1027.9779
1011.7992
1001.4724
1009.5601
1006.1192
998.24558
989.6286
994.4885
1002.4213
997.51549
1005.6952
1014.203
1017.3358
1025.8014
1022.4491
1013.9508
1018.793
1010.4623
1002.7562
994.73298
986.61367
982.51812
986.51003
983.55715
979.67813
974.01022
977.45278
981.35072
977.87382
981.86513
987.54195
990.41345
994.50861
991.53359
985.84197
989.34322
985.32075
979.82067
984.19587
976.57673
972.0002
975.9776
971.62947
967.75327
960.90361
965.73972
969.58066
964.76259
968.72348
975.58739
979.58751
983.93136
977.53496
973.54121
967.30409
974.06116
984.19815
994.73666
986.62117
982.53235
986.52154
981.36288
977.46818
974.03273
979.69786
983.57327
977.89155
981.87902
985.33055
990.42293
994.51583
989.35098
985.8524
991.54316
987.55504
984.86396
992.96108
1003.1829
1007.7966
995.27318
985.05789
981.12524
992.48452
1000.3075
989.01629
997.19953
1001.1316
992.9362
995.63816
998.51017
1002.7578
992.76365
1000.7827
996.22972
1001.7088
997.54511
1002.6995
999.72145
994.03198
989.9597
993.44022
987.9868
983.93799
979.82889
975.9883
972.01492
967.77644
971.64792
964.77964
969.59054
973.54615
977.53821
972.7209
979.59713
975.60108
968.73465
961.23224
967.309
963.37653
966.10078
959.46706
963.36994
957.26304
953.40852
945.21978
952.17432
955.84378
949.0541
953.02142
961.2233
965.21102
972.71507
976.81933
983.68235
989.95293
995.63092
998.50486
1002.6966
999.71846
994.02962
997.54307
993.43477
987.98282
992.76277
1000.7833
1011.2453
1006.7834
1011.0756
1008.0968
1003.8962
998.23594
1001.7084
1005.9364
1002.4245
996.1973
1000.5552
996.23011
992.18145
987.78646
980.92081
985.78903
981.71117
975.4249
982.27315
990.6869
983.74374
989.96677
994.18947
989.35256
985.12435
991.97218
987.87791
994.83716
1001.2029
1009.4266
1019.5526
1024.0661
1024.9866
1058.2742
1061.9381
1048.1599
1044.1454
1033.87
1039.4389
1042.5169
1039.2429
1030.7705
1022.4803
1027.1844
1035.7732
1031.0493
1028.0239
1019.5679
1028.3983
1023.8603
1019.6198
1015.24
1012.3773
1016.6626
1011.0173
1014.5135
1010.2076
1006.7407
1000.5106
1004.7984
1009.6936
1018.106
1013.4386
1018.8481
1023.271
1028.3362
1025.3987
1021.0065
1015.4173
1019.8013
1013.6476
1017.9657
1011.6642
1007.2323
1002.8656
1009.2066
1004.8277
998.01243
993.68815
998.56599
992.31875
999.2971
1009.6933
1019.5671
1028.3989
1018.1064
1013.4386
1018.8466
1023.8588
1019.6169
1015.2382
1011.0749
1005.9349
1002.4223
1008.095
1003.8965
998.23494
991.97112
987.78803
992.18262
985.78826
981.71219
976.82285
983.68872
979.58242
986.55465
982.47209
988.87452
986.0264
982.07763
978.08015
980.91466
977.01674
970.66735
974.53046
971.29085
967.44347
974.24645
971.84813
975.69234
968.26224
964.4265
961.71537
969.53769
973.32583
965.53308
969.47006
972.20648
975.24775
978.4952
971.52796
967.59312
963.72483
959.83218
963.68428
955.18181
959.91316
963.83845
967.82703
975.52003
971.58388
979.2132
976.16393
983.62846
979.66325
977.33533
981.24723
973.41302
964.52728
967.88003
963.91404
967.60502
959.08714
963.06187
958.54818
954.59333
950.70809
960.01023
956.17363
952.87322
956.69099
946.65177
950.5119
960.57946
957.72968
967.14
975.50298
986.05358
998.36984
1005.12
1021.2931
1006.5372
1008.4925
1016.7109
1005.5072
1002.5571
1014.7856
1013.5742
1005.3652
997.14585
989.35647
990.53097
978.17241
976.5669
984.43621
992.62132
994.23729
983.54218
985.38445
987.7225
990.14004
994.20161
997.05061
990.64316
987.37806
983.29205
975.63717
979.74812
983.69376
976.00868
980.92152
985.12229
989.96415
994.18723
1000.5534
996.19418
989.3494
981.87697
988.01751
983.74108
979.5758
975.42464
971.3404
963.80427
960.00239
955.85057
952.1825
959.47917
953.4334
957.28131
949.06902
945.24372
936.37864
945.02211
948.85786
940.20642
936.36311
926.75416
930.60389
940.217
944.15681
952.82841
959.9989
963.8033
971.34013
956.99533
948.1388
956.80448
948.14136
956.99785
965.21706
969.31242
973.42187
965.21365
972.0407
968.10685
961.10736
952.23205
960.9121
968.10717
972.0415
979.57908
973.42359
969.31078
961.10569
965.21528
969.45597
977.64137
981.88052
988.02029
980.5061
976.44776
969.26782
976.44578
980.50473
973.6926
969.45326
977.63718
971.70523
980.19967
987.8752
994.83504
1001.2028
1005.4327
999.04067
995.78368
1002.5923
998.4114
991.5768
983.93237
988.17363
992.11061
984.44848
979.67632
975.41834
971.22762
967.10859
971.89043
963.3772
959.31503
955.3285
951.40951
947.56424
938.17655
942.01377
935.03156
945.66765
941.84061
931.21163
919.35381
927.85958
931.69581
920.43017
916.58284
912.79436
902.37731
891.92901
907.25718
899.33829
881.66174
877.56047
888.04716
870.51027
883.92228
880.01688
892.98846
889.12674
885.17356
871.55869
867.21469
850.61828
855.18348
871.92117
857.77068
853.15577
848.16524
842.95905
820.84599
839.44443
819.89864
826.05586
846.87706
828.88706
802.89085
795.18516
766.3885
796.65159
802.68701
826.9835
805.50563
831.70719
825.565
797.93538
768.16758
775.59376
740.6042
773.95113
780.51232
808.93718
834.52382
851.95435
856.67196
839.83607
814.62411
836.43507
831.43615
808.53934
832.30761
837.23767
816.94968
842.34672
837.20421
811.42391
782.06187
788.06501
813.93579
786.62689
754.45992
747.78422
704.35735
744.60426
780.10919
812.96497
806.50983
775.12077
728.73887
773.05199
765.2649
718.49555
645.15162
652.74091
725.1648
661.09608
531.72506
532.23104
429.7873
585.02355
672.00593
729.17306
736.87838
682.52091
631.89932
696.03357
686.55627
731.22061
689.19956
733.7432
770.99901
805.74472
812.13606
778.69461
740.01559
786.10301
778.3347
729.94318
681.32931
691.35087
741.24294
698.56758
638.54842
626.64099
538.97405
600.78266
665.67465
739.24472
745.94112
805.90678
845.3694
838.17046
868.92965
889.91115
894.75995
874.37601
844.48663
850.63084
857.36652
820.0081
799.93491
792.82836
785.99247
777.79447
831.90953
862.42235
862.30743
868.8056
889.87301
905.72998
918.37597
928.85391
924.20322
924.91814
933.97568
938.30678
929.52708
933.66862
933.01248
936.88456
945.66524
946.20935
942.42436
943.40664
955.09041
967.24815
966.05627
959.70311
961.64906
976.99824
992.40107
989.59779
981.40544
968.76505
970.33497
982.59085
974.98707
962.75803
965.65841
976.9273
969.16849
957.99291
961.86222
972.0216
964.43434
967.41853
981.13645
999.9953
996.47645
982.63665
979.68987
987.36126
984.51302
973.24351
977.13047
969.52145
974.01002
966.32076
974.96154
978.3655
975.75575
970.58893
963.13187
959.71378
966.044
950.88496
936.02695
951.71412
942.38184
950.77035
955.50335
960.16554
955.01021
947.44346
939.30023
932.30855
916.22722
919.50862
928.55822
940.65318
947.60853
947.70855
929.03584
937.12805
927.04756
914.36928
905.21889
888.64994
886.99196
897.38737
914.33564
905.13783
918.52903
929.00715
916.12131
932.79114
945.80297
965.15794
955.8982
971.09804
985.66343
994.53699
1001.3354
990.76688
985.7606
993.69071
990.2983
981.6311
986.46214
978.71775
971.09144
963.28095
958.55415
948.59909
945.92427
943.14783
940.75159
938.41549
936.57205
934.98897
939.29727
930.83004
926.21079
928.18765
932.70195
940.87422
944.93975
948.72922
947.17734
938.79348
937.53429
927.44475
926.61902
922.62312
910.19134
914.37561
915.48308
911.34264
923.4742
919.25009
914.78897
913.87043
900.49417
901.79684
906.93087
909.20093
920.93756
916.47873
904.09338
907.45145
918.96354
923.31315
912.3299
916.57008
913.53298
925.11466
934.94974
936.788
940.61598
931.33604
929.04917
917.59621
920.55233
924.39917
921.51717
919.47413
918.41083
930.48662
930.48987
934.27967
944.43057
944.42626
953.19761
953.73742
950.0932
941.35197
940.71571
945.05967
948.81934
948.19297
957.05552
960.71761
951.90117
952.52835
961.25805
957.58536
958.5542
954.69931
951.06137
942.60023
946.29702
948.09635