/*--------------------------------*- C++ -*----------------------------------*\
  =========                 |
  \\      /  F ield         | OpenFOAM: The Open Source CFD Toolbox
   \\    /   O peration     | Website:  https://openfoam.org
    \\  /    A nd           | Version:  7
     \\/     M anipulation  |
\*---------------------------------------------------------------------------*/
FoamFile
{
    version     2.0;
    format      ascii;
    class       volScalarField;
    location    "400";
    object      omega;
}
// * * * * * * * * * * * * * * * * * * * * * * * * * * * * * * * * * * * * * //

dimensions      [0 0 -1 0 0 0 0];

internalField   nonuniform List<scalar> 
25278
(
155.25979
148.84762
148.32905
148.3291
142.76034
148.84742
155.60776
155.25981
155.60776
155.55547
154.48073
154.01764
150.86767
147.2483
151.18636
148.28734
148.83337
152.72721
161.29026
155.22799
150.6283
149.17207
147.87139
151.36583
153.57614
151.36588
147.87119
150.59113
151.01248
152.51825
154.61725
153.05973
159.52162
155.12413
156.82387
157.36417
157.95908
159.76561
159.12352
164.2838
161.11318
161.73595
164.59194
165.05098
160.02317
155.66627
152.60138
154.05444
157.4961
156.57595
158.05518
156.75206
169.56175
164.83787
160.93986
161.48185
163.28459
162.75566
170.89756
167.49809
167.76274
170.86255
173.54158
164.60084
164.22723
165.11331
165.44922
175.12906
175.56012
173.78379
187.88961
181.96902
175.96512
170.56041
165.67109
162.82131
156.8177
152.51582
149.16934
146.60237
143.50784
151.10366
152.67516
160.92841
148.46341
145.45711
161.10185
180.96662
167.11498
155.92204
157.6576
169.52099
167.41867
195.32034
195.69512
169.22085
168.85956
158.0734
160.41563
171.55045
169.12944
195.48313
195.25644
171.3096
186.06157
182.7568
183.49654
240.40637
239.48925
298.36363
196.36339
200.90171
308.59426
317.96776
240.42395
240.06927
327.63229
204.96266
199.58335
199.78757
160.97804
148.45939
142.74774
167.84738
196.21195
240.48734
299.22627
196.56959
161.17006
145.45535
143.49271
146.58282
152.69054
151.15062
167.37826
181.271
183.81865
201.15523
309.68893
241.56213
241.66866
319.36154
329.38852
205.25871
186.40038
183.0719
169.08492
169.49878
196.6072
169.97121
151.28309
156.06324
157.7854
158.17044
152.77447
160.49906
171.52358
196.08372
241.43276
370.97043
696.37909
692.0938
367.26426
243.1068
187.196
183.79914
201.87433
207.5984
341.2115
329.25161
243.2588
364.42124
646.82396
722.83964
1260.4454
1097.2491
622.04223
625.29684
1076.9455
1233.1341
727.18509
651.44995
367.55182
246.14319
196.39412
169.50969
171.92758
188.33295
246.20276
352.78621
338.91399
204.58181
161.71666
184.90233
210.65091
207.75344
365.69918
817.55915
1434.3954
1472.0022
813.84848
351.94967
204.90418
186.11134
171.07497
161.06871
155.11288
151.00624
153.0307
154.60675
157.33728
159.43907
161.06285
161.69983
157.94558
159.73247
159.07186
164.17428
164.5127
164.9979
161.90106
157.74972
153.67532
152.60094
155.43965
159.45868
159.68059
157.4238
155.66339
158.29103
159.14683
162.68647
165.50341
160.88272
160.00372
161.63422
157.48495
154.05368
150.61795
155.15997
156.54714
160.84865
164.57296
167.28223
167.59861
161.42582
163.18803
162.61789
170.54422
170.58864
173.16452
164.47473
158.01348
156.65874
169.10716
164.04923
173.29798
175.04716
164.93753
165.32831
174.74394
174.6872
173.24751
170.86376
168.02382
168.40727
162.47541
164.10677
163.26117
164.46056
158.78454
160.52581
159.21747
162.85144
161.29344
162.18522
160.52496
163.90549
163.06586
166.00048
166.60302
169.34473
163.71857
165.25575
164.36312
171.37951
168.82981
172.52672
170.68622
168.75518
167.33355
165.05185
159.45888
155.44016
153.67699
157.75395
158.29932
159.14868
160.89499
165.53355
162.69731
161.92541
166.39611
163.6858
167.01732
168.39815
168.34932
168.15773
170.76675
166.18287
172.92825
172.2987
179.91825
179.50644
191.27113
180.32839
172.8636
166.12393
165.6018
170.8697
172.21325
179.57365
170.35916
170.60655
179.233
190.94065
191.6743
180.18112
194.01815
192.0796
209.70275
207.42414
197.31988
190.87333
184.74773
179.87175
175.27424
171.50182
171.71104
174.3596
170.48061
170.28184
174.41355
178.90741
178.90633
175.386
172.7839
173.51906
175.38363
171.68501
171.97814
168.72401
170.73609
170.42482
174.37718
174.48983
178.86313
175.55469
179.96569
179.77257
179.97228
184.16036
184.4851
190.55326
190.26071
184.69968
180.25357
172.7344
166.36656
167.00286
173.48773
175.28682
171.61239
168.35264
168.28772
168.07938
171.3897
171.62768
174.20445
170.37384
170.15104
174.22423
178.64503
175.1386
175.27318
179.81617
179.70308
184.12684
183.86128
178.68654
178.67317
174.25412
170.33962
170.67576
168.69183
171.92434
174.38942
178.71791
175.48054
179.86429
179.65121
183.7433
183.69889
183.64871
179.67191
173.41547
174.25646
168.0576
169.27957
169.14136
172.29939
171.92272
174.49014
174.68805
171.07683
171.13648
171.54732
169.67419
172.76114
172.38202
174.84214
175.0724
179.16298
176.14938
175.87287
175.74257
175.46813
178.77039
178.88803
183.70095
180.00757
179.97032
180.30661
183.84401
183.74652
179.01264
182.06133
177.24098
172.91788
172.86748
177.12603
176.995
176.93454
172.53322
172.25513
172.32335
172.17478
175.62632
175.52021
185.04831
188.23857
187.80277
197.99698
180.91978
181.16076
199.45921
227.45978
206.44061
237.96152
233.70985
230.87835
205.38301
225.41299
269.39608
275.15152
349.55453
257.39122
211.68327
186.67492
202.41852
190.35679
189.50734
186.03826
209.73068
219.48829
222.27462
289.05953
335.52481
485.16923
495.14845
347.58977
255.11546
288.72163
254.46997
242.85595
230.6972
219.92762
210.52591
202.81238
195.94406
190.13713
184.57204
184.54169
190.69193
190.74415
197.63149
196.94855
189.89684
189.62502
184.29329
180.54037
184.42197
184.49669
189.7183
183.91064
184.00242
178.86884
182.36636
177.07465
172.38022
168.47666
162.49979
161.67847
163.32025
164.14515
171.22026
171.063
168.14213
172.36793
176.00181
181.61713
199.75863
188.59703
189.15307
201.4276
214.96203
212.80048
187.09483
190.64064
191.6804
226.12678
223.11978
301.32836
263.83906
229.35933
206.78521
207.95772
241.23918
231.51737
282.05549
235.40008
232.57859
276.41443
369.83587
369.29357
265.77844
300.73572
526.29314
544.43235
420.56632
321.23903
263.15367
230.46096
208.6103
194.67652
184.21113
174.96215
165.31118
158.80144
160.52903
159.21932
157.42494
159.68255
160.52393
162.18734
161.30133
166.01548
163.069
163.90579
166.60861
169.35948
163.72241
162.86605
164.38216
165.26509
171.84551
171.45895
168.8669
172.6006
170.73541
168.78124
167.34473
168.0585
169.29125
169.15864
171.10871
174.73974
172.33052
171.96306
174.56954
178.87893
175.52249
173.43481
174.26767
175.89859
172.39905
172.77101
169.68026
171.56091
171.16325
174.87867
175.09482
179.20214
176.16762
180.33476
180.01786
180.06812
175.7895
178.97052
183.82029
183.82026
179.75629
184.26826
180.44896
180.93381
184.37524
184.46436
189.4024
189.5182
196.09347
189.86867
190.35676
190.24939
190.82529
197.34296
198.09404
206.33273
205.55387
196.95219
205.24629
205.99843
216.73038
215.26933
214.2874
204.83303
196.8489
189.95596
195.81431
188.54687
188.86418
182.54248
177.142
172.48557
174.74059
174.68033
180.30481
177.20594
182.57635
186.6753
186.39382
180.01803
179.84143
174.51513
174.7404
172.6334
177.09425
179.76405
182.48591
176.6214
176.48295
176.7845
176.83988
179.11844
179.00359
186.02679
183.00588
183.36011
186.66555
195.69833
190.98229
190.58574
195.0258
206.62933
199.97961
194.06996
194.89864
189.23242
196.74921
196.36469
203.36503
204.25547
216.20924
206.00067
205.15556
214.5569
213.38495
202.53333
193.53457
186.08557
185.81206
182.25952
188.27875
193.04433
198.34293
189.59357
190.06427
182.70369
185.56379
178.54973
178.6422
185.21892
193.56731
194.27937
205.45173
199.15322
210.50496
211.80535
212.89985
200.95099
208.23557
215.77479
200.4657
189.70745
181.11561
173.5223
164.54569
165.30408
166.05159
174.79281
173.48176
173.55162
165.50064
166.33719
167.0149
166.18646
174.75421
174.92974
173.81744
179.73021
178.29149
176.56072
174.84772
172.95239
172.91924
174.91516
174.60641
179.68704
177.11746
177.21126
179.70391
179.71554
177.30426
177.45777
173.30637
175.20985
179.81064
182.11484
176.86163
178.5689
184.33162
184.43614
182.11851
182.19951
176.66821
176.43075
178.31415
178.5189
184.65168
184.87914
182.29969
189.17788
185.59902
182.18092
182.15485
185.4403
192.24525
187.90565
188.0661
192.62116
197.61798
196.96554
188.84576
192.3414
192.92629
203.17107
204.30328
210.82454
197.62529
187.84207
180.3034
180.30652
180.85669
182.63394
182.96632
192.60052
191.61463
188.98792
188.35584
190.82636
181.95016
181.89158
190.17565
191.9393
182.9237
183.0449
183.80068
184.45128
184.89744
195.79141
194.63722
193.62889
192.72373
193.67028
183.65199
183.51204
192.84874
206.12193
204.5249
201.45656
202.68217
198.60186
199.62302
203.93707
205.03129
223.91797
221.4616
214.00596
212.42876
219.53049
217.53656
223.33845
225.67546
205.96337
207.40623
209.191
210.49793
234.20894
231.35439
227.89902
260.72651
247.82041
234.20346
221.95806
223.68324
245.27955
228.37355
226.5061
242.12149
239.69334
220.17979
218.39065
209.29772
201.75725
195.3632
203.69377
196.48538
204.2427
196.15075
190.25802
184.3947
189.46029
196.17781
196.50538
190.14782
196.34834
204.56244
204.00885
213.43112
212.65074
203.71262
195.71188
189.79182
184.18879
184.39122
190.03
195.67227
189.2487
189.31092
195.87067
203.50897
203.11539
195.66073
190.09555
195.86476
195.63108
189.3133
183.82986
179.07238
182.16733
182.22691
185.28319
185.3384
191.95702
187.7972
187.7423
183.90719
189.29905
184.60744
190.05888
189.77776
195.35876
189.72384
184.32964
184.57285
190.02966
195.41889
189.22017
189.19901
195.49823
202.7743
202.54269
195.42887
202.63707
195.52701
201.70448
194.18332
194.37636
194.63719
194.96155
201.04605
200.41845
210.24691
202.54113
203.08285
211.23466
212.28497
223.03038
224.78003
242.34656
226.37945
214.4493
204.41318
215.5472
216.47306
229.72064
227.98525
243.75229
227.72808
229.33025
246.62253
269.26702
246.73843
244.72095
268.38371
271.58525
305.81146
300.71355
266.31512
263.42542
241.7478
226.30522
224.98721
213.48172
224.8644
239.78765
260.53419
240.05934
261.89666
237.18346
234.54946
216.62773
208.14086
207.04978
214.88232
202.12565
201.15945
191.84863
188.56813
188.36837
191.44781
200.33257
195.92236
191.74302
199.42417
199.88237
209.38199
202.0889
211.08732
202.9191
203.29052
211.97908
211.39178
210.91532
220.7774
210.50757
219.64094
208.63417
216.6996
205.19957
206.06706
196.41
213.23544
211.73105
226.70661
229.23544
218.13743
219.68796
221.3459
237.72369
223.41994
212.59161
211.80213
222.04867
236.04718
222.66705
223.79094
237.90241
257.57448
254.57002
235.41921
254.48736
231.89431
248.33267
224.26702
207.71357
195.8551
186.96383
180.02037
179.90417
181.36352
181.42737
188.99461
189.52606
187.34938
196.70906
200.26242
199.13878
213.43049
215.49966
209.26735
226.86405
229.39274
231.82771
244.97423
241.91321
281.13314
256.23464
259.69671
262.85583
266.07416
236.20472
250.26404
293.67642
288.95886
285.38777
313.64404
257.53741
254.0155
261.16208
226.52134
229.01774
207.66819
207.2989
193.5183
183.58552
174.74554
166.03879
158.79117
154.04498
150.61656
152.66348
161.14317
168.77326
157.99126
168.85054
183.11837
201.1713
206.71764
186.4327
240.56955
335.57847
324.88678
240.98445
194.97692
194.76921
171.28563
160.33391
152.63024
171.22838
186.138
239.86602
362.59822
706.4725
634.41843
360.32272
615.00182
1070.3736
1225.7947
683.33522
328.13073
318.11076
240.0936
182.78233
160.93002
199.69403
185.03145
246.89558
368.25952
620.57977
1069.1057
1222.4458
690.95687
371.96207
740.85247
661.74014
341.57466
356.26806
247.0332
188.51346
161.75243
204.93516
211.05591
208.11327
370.08482
835.67644
1419.1162
1425.2351
792.40889
344.71954
204.01524
169.42848
156.7226
158.04205
156.54179
155.18339
164.66391
162.65998
164.14157
165.08305
165.42711
164.53237
173.35168
175.05216
175.46333
173.55947
170.67281
170.6733
163.21592
161.41787
160.86538
167.3242
167.62
168.02363
161.62645
157.47442
159.20158
160.52264
166.17316
167.00812
166.31791
165.47508
165.26973
164.49539
165.297
174.90603
173.36969
173.3698
173.47493
174.72204
174.90865
173.76777
171.79543
165.24273
164.35356
164.10592
163.26704
170.91133
171.11328
168.39756
162.45996
162.83312
163.69653
169.32033
168.80883
171.38587
178.12106
179.69268
181.16825
182.18775
182.83312
182.88276
182.34002
182.3402
182.86584
191.31414
190.53368
191.17831
192.02294
204.613
203.12274
201.7637
203.15108
221.15597
218.42284
220.92458
223.89925
256.91957
250.10331
238.60822
235.07902
270.54201
276.22865
252.45674
290.06628
258.34047
288.4475
292.95314
297.00803
265.27356
299.63397
303.58963
306.37464
357.40891
354.94566
457.145
357.84344
361.19963
461.06627
611.70549
624.90139
422.46258
317.22818
335.92373
268.27823
270.70613
340.51784
470.91107
477.45133
814.48681
785.0966
1341.7218
909.66932
588.53429
423.97085
342.85022
294.65088
265.5581
244.23248
228.55679
215.43944
205.02819
204.25484
195.63703
188.32991
182.16247
176.89011
176.90755
179.85575
174.39299
174.50634
179.63773
179.52692
176.87963
182.0593
182.00233
187.90061
188.09957
192.75254
185.58515
185.81554
186.00628
182.15062
188.63132
193.87321
193.18543
198.5441
189.69625
182.459
176.46419
176.45991
182.72702
185.78952
178.62122
178.58039
185.28992
184.93133
182.23864
176.21755
174.32561
174.58799
179.5114
185.39998
192.38821
197.25928
188.9452
182.1132
176.41023
171.10094
173.30017
165.25414
166.00229
165.23486
165.23447
158.78275
154.04485
148.83295
148.28658
155.21331
155.59184
147.19131
147.83165
149.14758
150.61035
156.66066
158.01714
164.9462
169.15525
175.08498
174.77322
165.34215
164.4911
164.07223
173.36572
173.22888
170.6452
163.20355
156.53922
155.16362
164.63203
162.63909
170.62825
167.3362
160.8639
161.42651
167.63813
168.04585
170.90574
173.29746
174.71474
174.63378
174.61906
174.64959
173.44724
165.47137
166.32579
173.7643
171.81211
176.46874
174.78963
174.82935
174.48921
179.48931
179.55422
179.61024
179.73728
177.4208
173.28523
175.17294
176.79863
182.00064
181.94621
181.96809
176.54532
176.26637
181.99497
184.44321
178.08726
178.35954
178.20206
179.87332
180.34388
180.51128
188.62386
188.04184
190.51664
182.0535
182.27554
191.35255
202.7853
198.60595
194.28622
189.9851
199.36804
205.84727
204.48549
193.75308
193.1486
189.30146
197.88974
203.52187
202.6009
192.6183
184.70035
187.14954
179.951
181.48826
181.46523
189.87757
187.54827
197.08333
197.93172
210.98883
212.55024
219.7862
217.62702
201.88328
200.83531
199.84269
196.3254
208.37046
209.67738
215.97636
214.31356
219.67321
202.78737
191.09676
189.37527
188.85116
186.78294
179.62133
179.79411
178.34112
184.31482
184.18212
178.16625
178.48322
184.1572
191.10592
188.15259
185.15628
182.16094
187.62369
187.62846
187.67223
182.0164
181.98451
187.76219
192.07069
185.26636
185.18527
191.82542
191.63615
185.15611
188.26318
188.43183
188.65706
196.71376
196.23568
200.94352
191.72348
192.13702
201.7469
214.07069
206.65278
200.22755
194.52884
194.83945
195.20078
203.59449
203.01461
210.87989
200.79015
201.39683
202.08678
212.81606
214.3156
227.42773
225.84449
214.59205
226.98709
241.57976
244.29389
264.17584
242.30913
224.99819
223.30393
209.60576
218.43999
236.59806
239.47096
263.26757
260.25376
240.4348
261.28805
290.16739
295.185
340.53188
291.904
256.85907
253.75765
228.92059
240.58631
275.22849
279.87089
333.08815
329.32089
288.74238
336.18036
413.24472
420.08508
538.84855
384.9346
303.52469
299.17019
252.1127
223.59067
205.19896
192.48139
183.19718
183.51382
193.3756
194.58178
184.24584
183.91404
193.59228
192.77001
191.7333
182.54277
182.51167
183.15257
183.21453
183.22884
183.9462
184.27519
189.60647
190.4703
202.71026
222.56051
219.82041
210.33986
186.23752
186.89924
212.32141
259.01699
290.15012
337.76143
489.77744
501.13699
290.01126
256.94271
352.67999
353.92328
277.61369
228.67924
199.9765
181.3524
185.37288
175.66255
175.75289
181.10306
198.50338
188.13093
188.62248
207.2146
239.39041
235.28047
232.38308
272.02154
226.65983
206.12272
203.42602
211.35244
221.01827
232.03364
244.32354
255.73276
262.8802
262.38954
229.91755
225.90211
206.23987
208.27379
207.1603
227.35015
225.28799
221.67535
203.98025
205.84737
204.55873
192.09878
191.40506
190.48035
182.01233
181.04781
181.18117
188.47401
186.52479
186.27082
179.57751
179.83068
186.13997
187.85114
181.08447
180.86038
188.10469
197.23404
194.41875
191.38413
200.2507
195.83864
195.51736
191.51282
199.04803
194.00064
194.11668
194.29645
202.0718
202.5111
210.03382
209.26844
199.75965
199.36884
208.60505
201.72162
201.45014
208.05643
218.83968
210.19571
210.67989
211.26664
211.94554
212.72569
213.59759
225.6243
224.3819
237.87439
223.1079
224.43567
211.83294
221.79971
208.53775
207.56952
220.3715
232.31685
215.50199
216.94304
234.48239
257.33926
238.32819
236.32161
255.95276
258.61573
239.7069
258.3702
240.51504
242.45841
262.53062
285.59801
260.95668
263.85736
270.02607
274.45402
363.79087
350.74095
342.90158
440.06847
335.83211
343.75209
455.38837
717.21109
539.462
547.77158
1170.5272
1030.0682
1440.7834
1615.8423
723.766
1166.3158
705.14734
514.89232
510.36853
775.53444
700.67836
1365.7564
952.6682
1076.299
1526.8215
2192.8195
1943.1572
1090.3251
1988.9523
2253.2793
2480.4677
2133.6919
2121.9934
1939.3234
1413.2746
999.52445
511.40819
297.17957
225.15887
191.37768
190.36953
186.53582
187.32011
213.18181
211.02934
222.11003
297.11894
258.23157
260.79683
355.52679
353.53969
524.91193
461.1196
336.52731
269.03087
233.46085
210.127
195.62346
184.8076
184.38794
183.56331
183.96976
194.18581
193.16876
194.48744
208.8453
206.47641
207.68618
228.48626
225.94184
230.57876
228.21711
225.74363
205.81149
192.70704
183.46691
182.7485
182.84512
192.29764
191.56456
189.68215
181.67021
181.68307
182.33587
182.62212
180.74496
180.52183
188.36202
191.02684
191.96074
189.03826
199.25501
203.81192
202.75971
198.47808
211.88263
219.15998
221.55592
213.58638
206.42375
194.67513
186.0518
178.77838
181.13629
181.44274
185.37296
175.60633
175.68878
187.90201
198.47919
200.04878
188.39647
206.53269
228.44264
238.43259
275.97084
270.09374
226.22596
205.44437
230.53312
233.33947
209.08305
191.51528
179.55874
170.36094
164.17617
159.0592
154.58681
149.14824
152.57667
155.63996
157.40041
155.40738
153.53074
153.64386
152.48518
150.54659
150.97655
153.02072
159.43687
157.3153
156.78057
157.91955
159.71731
164.50358
161.67541
161.04374
165.5602
162.76341
166.08718
170.60255
179.20962
172.80116
172.14051
170.84663
160.99686
155.07758
170.81264
193.59152
179.98225
180.17653
190.81384
206.91744
190.8625
191.56052
179.56659
172.13478
172.80442
166.08604
165.56295
170.35047
170.60112
179.23675
179.66969
172.68497
163.63756
166.32965
168.05606
164.98337
159.98266
160.86033
159.1177
157.71504
158.2655
161.87425
162.65499
165.48278
165.97577
161.27092
162.16142
160.49541
159.42347
159.65456
163.03295
163.8742
166.57839
171.11049
172.89054
174.76644
176.45599
178.1651
179.59263
180.90319
181.79775
182.34941
182.38519
181.90384
181.03905
181.20385
179.93994
186.37158
186.60985
188.48915
188.13073
189.43747
182.02048
182.48033
190.11453
190.644
189.91716
200.48279
198.09616
195.09363
194.44348
197.17846
209.54882
204.94996
206.27153
211.43938
215.93413
213.5564
199.34187
200.47722
201.75973
218.4291
215.78353
241.69031
236.48096
227.86033
219.29
221.7197
231.45666
264.26376
244.10253
239.86943
257.65504
280.06651
289.14362
241.21679
245.80611
252.18786
315.10311
297.08895
303.7636
309.26212
328.19014
332.66012
264.94998
263.04055
266.48489
256.50742
259.1863
312.09276
307.42425
331.46649
327.68855
322.81475
259.26582
249.62795
221.4945
203.70854
205.08116
223.7673
217.28507
201.57865
190.29688
187.78908
180.02011
180.05792
187.34844
196.65983
200.44759
215.41073
208.97575
210.42809
197.5477
193.38862
185.08197
178.28643
178.70543
176.52321
176.54877
182.85745
182.56052
185.4996
194.07286
189.8486
190.18698
199.6335
198.77589
204.97733
203.90705
202.89237
192.79641
184.79606
178.42327
176.42869
176.26484
182.30823
182.15501
179.52598
174.59648
174.34102
174.54056
174.4404
172.18749
172.32381
176.89668
179.69101
179.93589
176.93194
182.16964
186.09648
185.87531
182.18571
188.33589
193.26591
193.99873
188.65294
195.94406
202.93911
210.89691
220.75392
232.29902
245.73785
243.18194
230.32351
255.82114
279.55646
284.62814
259.17953
294.8856
340.29858
400.48076
398.96491
465.47174
783.3129
761.08049
565.57655
569.33139
572.20234
394.84416
303.15837
253.21677
240.33547
237.37809
225.7944
228.06263
252.66759
275.61035
271.2226
298.09724
389.24075
464.05267
480.77408
419.7828
346.91963
295.25794
349.07415
353.89456
456.83894
351.53741
421.7334
479.95563
853.52074
640.3125
657.53199
455.25185
452.02022
340.89212
333.13449
284.21059
336.14074
283.59125
278.38121
250.57667
233.1622
220.79842
234.33201
221.67376
234.1084
221.29887
222.22147
223.25256
236.17412
221.877
220.74422
234.57888
233.10875
219.74264
230.73534
216.54011
205.09954
205.83564
217.72498
219.01148
230.18778
228.09481
212.75071
211.51705
210.43071
204.48933
215.50846
224.2871
226.12316
245.21644
248.25578
232.52038
234.3817
253.34034
250.77836
274.4133
278.63897
251.34541
254.39067
282.68261
286.5228
331.50505
284.76599
250.85873
226.84313
224.80412
247.82836
267.73118
235.40777
238.05318
271.69304
324.80995
319.49471
280.55493
326.2473
403.3792
409.13248
543.42116
379.43852
295.30604
249.1569
246.04504
290.81859
309.93194
253.67832
223.16731
220.9449
217.67463
212.65967
207.13015
195.61467
194.9856
205.95345
211.04736
198.04624
198.91582
201.64519
200.56073
189.98704
182.09191
182.65443
182.60957
182.61638
174.66545
166.15898
166.15963
167.00461
174.88281
181.71756
181.8913
189.15023
189.50383
190.28541
182.23582
182.3837
189.8774
199.91108
198.65706
196.55559
193.95766
203.90238
199.66933
199.17961
195.2883
191.44107
187.66617
183.93551
180.2213
174.28211
166.02511
160.51588
156.69336
156.69233
154.48083
158.30155
157.99363
158.30151
159.98379
159.28571
155.55577
156.6934
158.5594
162.31291
160.51764
160.98006
158.57702
160.46629
162.5327
161.92047
165.21056
164.27713
167.1718
162.59284
163.57204
167.84711
168.47286
165.69094
166.59761
163.44261
165.05857
164.09059
165.56937
162.17528
156.79601
160.471
163.40681
161.76306
159.94994
161.87158
165.33009
163.47695
163.96906
164.98931
168.01781
167.03734
169.8206
165.55743
166.62435
170.55814
171.2248
168.55454
165.69263
163.68913
166.81522
169.52916
168.39388
167.24834
168.74692
165.32901
169.97146
173.79957
173.12847
168.10514
167.03004
166.53519
171.76862
169.17499
171.6214
170.47998
167.54369
162.31309
158.5593
160.46526
158.57716
160.97916
161.91789
163.56932
162.59283
167.17127
164.27543
165.21002
167.84409
168.46842
164.08697
162.53158
163.4409
165.05629
169.16873
166.59683
165.69045
169.67609
169.22487
168.42098
169.7879
170.21198
172.07285
171.6392
175.26654
172.82291
173.25372
175.53088
175.74435
172.19037
170.40047
170.82646
172.63577
176.02717
173.81028
173.38913
176.74892
175.22833
174.29092
176.22141
176.56426
179.54244
179.34608
183.97157
180.24181
180.65626
184.1323
184.27677
179.74361
179.96689
177.08163
181.10691
180.71211
184.88452
181.6717
175.22948
169.22515
168.42221
169.78539
170.21242
173.25003
172.81885
175.25382
171.63164
172.07362
175.52612
175.74548
173.38683
170.4028
170.82956
173.81101
176.03156
172.64153
172.19552
173.88883
170.49515
165.06499
160.28295
164.10256
169.87934
172.26692
165.54528
166.5574
172.84164
173.41047
171.10468
174.43582
172.76215
170.97865
169.6805
175.36506
176.32252
177.78175
174.51585
174.363
171.42377
173.22434
176.56197
176.2619
173.91007
177.19259
177.08302
176.75042
176.55699
176.21396
179.3203
179.53151
184.11073
180.64552
180.69666
181.10054
184.46688
179.97173
179.74056
184.27041
189.46056
184.87929
184.83408
181.04392
184.5291
184.84912
189.38753
189.30492
195.41198
189.78825
190.17169
195.43421
195.44499
189.48375
189.6294
184.47721
184.64143
180.1796
176.25579
172.75807
170.97551
171.41715
173.22185
176.55878
174.36048
173.90893
177.19156
175.36581
176.32161
170.47995
171.61979
172.05855
173.83198
173.36818
176.80831
174.51416
174.95067
177.11902
180.94306
178.13309
177.78429
177.56759
180.43959
184.88036
181.54418
181.08916
185.23097
181.90314
182.60566
185.70542
181.63341
182.05738
185.33244
185.0921
180.68583
183.44753
179.00981
175.02147
171.76487
166.53239
162.17394
156.79545
160.47026
159.28547
159.94961
161.7622
163.96822
163.47669
164.98942
166.6232
165.5556
169.8184
167.03614
168.01835
170.55629
168.6121
170.91368
171.76802
172.91382
172.68497
172.22213
173.98039
174.46586
177.70066
175.54042
175.06763
177.37502
181.18607
178.26421
176.46186
177.44972
178.89538
175.72208
176.18167
173.38574
175.13945
174.6433
177.97724
178.3094
182.02119
179.26883
183.09318
182.65316
182.54044
178.66105
181.47236
185.8051
185.54342
182.06577
186.12247
182.88024
176.46233
170.91513
171.76826
177.44907
178.89708
175.7229
172.91647
172.68671
172.22366
172.06215
174.9517
177.11856
173.8354
173.37104
176.81338
180.6813
180.4426
177.57126
181.53984
181.08482
184.64251
180.18639
182.99638
178.49313
178.26876
174.31008
176.09721
175.65503
175.60174
173.77334
173.36825
177.58506
177.81063
180.04544
179.86178
175.17863
176.78653
177.17065
182.19723
182.06419
184.13317
178.38463
178.77115
184.21444
184.286
182.32751
180.21838
178.02045
182.60062
182.43373
182.28004
185.20503
185.29825
191.43305
187.75591
187.8678
188.01582
182.80256
185.57007
180.44746
182.52255
177.62946
177.21938
178.74381
179.17488
184.44737
190.80129
188.26702
188.1691
185.42658
191.47457
191.55931
195.06003
195.07244
195.14544
188.11717
188.10602
190.92208
190.81623
198.83247
198.5905
190.78529
193.16491
186.03701
179.98919
174.65658
167.58197
161.48408
163.42584
168.0056
166.98523
168.00616
174.05988
175.81688
169.01771
169.64818
168.62142
168.22757
167.22141
166.58868
174.1422
175.18725
175.66345
176.16924
175.19431
180.38614
179.18733
177.70062
176.17099
176.6374
174.87109
178.76432
180.90564
180.6508
185.74575
185.94197
183.22411
188.36229
184.88277
185.08731
181.63149
182.05485
178.13471
180.94729
185.33368
190.36481
186.07584
185.70607
185.61009
185.2286
185.21362
190.44668
190.02457
190.1642
189.76897
184.51286
189.24649
189.36346
195.39517
195.35626
202.35764
195.23589
195.4063
202.32607
202.43367
210.53994
210.27696
202.28519
202.23209
195.33016
190.0311
190.4496
185.22849
195.55685
202.28776
195.5794
202.27431
195.54826
189.62461
189.76372
189.96816
195.81421
190.78635
190.31229
195.64342
202.32967
195.5547
190.31165
190.78637
185.61831
189.96743
189.77419
195.63931
195.81552
195.95359
190.15037
190.36497
186.0811
191.19813
190.72804
195.88218
190.72104
191.19748
196.15943
195.95948
190.15366
194.48709
188.56023
183.45086
179.01114
175.02505
175.46495
179.29807
181.41192
177.21771
176.73859
181.13852
186.15075
186.37436
183.69331
188.7677
192.17191
191.99267
191.82527
191.67888
188.18485
194.18553
194.07509
193.98737
193.94127
193.94292
201.25589
201.14741
207.28667
198.68604
198.83407
207.62481
218.11758
209.82031
209.54771
219.3723
219.87914
220.52005
231.80433
246.01367
229.1622
242.37306
266.04114
270.19647
248.33506
269.75594
249.35876
251.45007
235.55414
237.08773
238.75216
257.40429
259.94024
282.29564
279.05284
255.98729
279.75502
283.15598
286.62555
289.81664
322.20887
290.29865
325.35779
320.56669
291.43873
337.60071
376.73581
384.59444
431.15423
363.79771
358.63551
317.40303
367.64716
326.37413
331.55111
375.36971
425.82597
417.73249
491.65335
422.81415
415.71601
371.1939
333.09387
287.8218
284.25421
328.27844
365.28688
311.73482
316.18728
353.00143
313.06307
308.76383
356.54403
317.17802
321.88963
362.29323
410.8188
403.63208
347.39912
408.34924
474.02027
483.24026
617.54181
533.1034
475.87308
417.0318
421.44139
590.39916
707.7489
481.80179
486.54172
711.63207
1165.3785
1231.2447
959.34783
1487.1533
2150.6602
1925.0571
2209.2425
1294.6518
800.6196
547.67754
541.4275
794.55392
908.02032
627.52972
638.17783
503.82597
630.34563
533.27751
465.66342
400.00802
396.20316
460.39631
658.20084
532.80038
534.95815
663.72182
767.12536
760.91753
527.18791
619.86129
884.28475
894.85791
1360.0569
1235.3195
1077.0775
798.03928
828.84653
541.4568
383.41718
434.94385
318.00978
260.0525
257.01242
314.42867
433.85317
431.02884
374.32831
543.35412
749.11779
729.98606
709.1864
694.59877
432.51397
322.84156
323.95824
319.30083
260.5919
227.60384
207.28735
193.65653
194.65848
193.52916
183.5939
183.27535
192.63224
191.86261
192.83511
192.14619
183.18602
182.57419
182.62475
181.55088
173.34101
165.26122
166.01289
164.47755
163.26346
157.475
159.20322
160.52292
167.00541
174.89042
173.77635
166.32525
165.47598
173.47647
171.39481
164.35824
164.11038
171.12769
168.41973
162.46865
161.63786
159.99141
155.64176
152.57634
157.40121
161.2753
162.84169
163.70326
165.25038
171.81609
169.33992
168.83021
165.99154
165.5066
160.87257
159.12314
157.72298
158.27366
157.93118
159.73186
154.59213
153.02206
159.4676
159.07413
164.21117
164.53518
161.70362
156.80341
157.33364
161.08064
165.64482
170.45785
171.0406
179.82228
179.43426
170.68736
166.15564
162.84824
172.35243
172.97924
180.58247
191.39096
192.19272
194.7741
210.79724
208.38799
191.8621
192.76983
180.49448
172.48383
171.36618
161.12273
155.10678
150.5512
150.98191
152.48815
153.64463
153.5311
155.40745
159.4274
159.6579
160.49876
162.16692
166.59018
163.88164
163.0462
162.67398
161.89465
165.0127
170.19312
172.24111
174.47989
176.55994
178.74208
180.63595
182.39092
182.16576
190.73715
191.58535
188.86798
188.26148
180.45439
179.97422
180.0366
181.57918
189.54154
191.23641
203.07111
204.6764
205.97296
225.54732
223.41142
220.30735
222.30117
204.28646
205.51555
206.54564
208.40797
230.18593
226.51802
224.23091
218.41303
202.29686
203.22136
220.60869
213.30525
199.03705
198.34105
211.73981
210.38044
216.75333
201.23576
190.09135
187.73775
187.33772
196.67255
200.22151
215.05996
209.05885
207.75423
213.36388
218.28766
221.20427
203.40737
203.31024
202.09225
190.85755
190.87953
182.6756
182.14081
182.0754
190.59454
191.47016
190.08711
189.58283
190.32526
182.24855
182.39561
189.90653
189.22225
181.92706
181.76759
180.90613
181.25106
181.11986
189.01648
188.61233
186.65507
179.86442
179.70127