/*--------------------------------*- C++ -*----------------------------------*\
  =========                 |
  \\      /  F ield         | OpenFOAM: The Open Source CFD Toolbox
   \\    /   O peration     | Website:  https://openfoam.org
    \\  /    A nd           | Version:  7
     \\/     M anipulation  |
\*---------------------------------------------------------------------------*/
FoamFile
{
    version     2.0;
    format      ascii;
    class       volScalarField;
    location    "400";
    object      p;
}
// * * * * * * * * * * * * * * * * * * * * * * * * * * * * * * * * * * * * * //

dimensions      [1 -1 -2 0 0 0 0];

internalField   nonuniform List<scalar> 
25278
(
101315.5
101315.02
101316.24
101316.16
101319.77
101314.68
101314.42
101315.43
101314.72
101310.45
101312.05
101313.73
101314.72
101316.81
101325.12
101316.16
101315.01
101322.77
101326.39
101319.91
101315.04
101315.41
101315.5
101312.47
101309.14
101312.29
101315.34
101314.05
101319.43
101312.93
101310.94
101316.85
101312.39
101315.2
101309.17
101315.45
101310.96
101307.52
101311.65
101306.39
101309.51
101304.63
101304.97
101298.93
101303.06
101305.64
101310.83
101308.47
101304.49
101311.09
101310.64
101319.67
101315.43
101313.89
101315.3
101308.73
101306.67
101312.83
101305.14
101309.29
101303.77
101303.13
101302.9
101307.95
101317.02
101315.73
101307.1
101302.63
101307.14
101309.4
101322.62
101312.96
101316.34
101311.25
101316.86
101308.88
101309.18
101312.88
101315.22
101319.63
101323.11
101324.99
101322.7
101326.77
101319.44
101323.62
101328.14
101331.46
101331.1
101329.99
101324.54
101324.99
101331.19
101335.06
101336.33
101325.07
101330.88
101329.13
101322.25
101323.36
101330.89
101340.92
101337.49
101323.43
101322.16
101330.36
101324.13
101333.92
101332.42
101340.92
101335.56
101327.72
101347.56
101361.67
101339.67
101336.11
101365.68
101329.8
101338.24
101337.41
101325.68
101319
101319.47
101330.61
101334.83
101330.91
101340.52
101335.38
101327.51
101323.37
101322.9
101319.21
101321.97
101324.52
101330.63
101330.86
101322.94
101327.12
101346.8
101332.27
101337.84
101360.57
101364.47
101328.36
101320.96
101329.53
101329.66
101323.63
101335.94
101323.66
101324.43
101330.08
101323.94
101329.01
101321.73
101321.5
101321.56
101336.5
101334.98
101309.06
101336.61
101344.95
101311.53
101336
101322.19
101330.79
101338.02
101329.03
101362.01
101360.18
101339.92
101327.81
101345.51
101344.58
101437.51
101390.16
101345.65
101339.77
101393.02
101449.78
101341.99
101342.55
101324.17
101337.2
101340.29
101330.19
101322.04
101320.32
101332.87
101369.09
101363.6
101338.19
101326.04
101329.53
101329.34
101326.66
101351.01
101315.04
101468.99
101429.77
101312.86
101346.48
101326.1
101318.01
101320.14
101319.08
101315.19
101319.35
101316.52
101310.44
101315.46
101312.41
101309.5
101304.61
101311.04
101307.15
101311.36
101306.51
101304.96
101298.77
101299.25
101302.88
101308.49
101310.52
101307.32
101301.42
101299.13
101303.7
101305.01
101306.24
101304.4
101297.25
101294.75
101300.34
101302.59
101303.79
101304.08
101307.74
101314.65
101319.65
101310.9
101315.24
101313.97
101309.48
101303.9
101308.8
101306.14
101312.31
101305.41
101303.27
101302.9
101307.95
101309.98
101319.13
101315.64
101316.73
101309.56
101307.21
101314.97
101306.41
101302.55
101293.44
101294.48
101295.4
101297.28
101291.64
101300.32
101297
101300.9
101302.51
101302.08
101299.1
101301.65
101294.41
101295.38
101296.94
101300.67
101295.98
101292.71
101291.48
101291.02
101286.64
101295.19
101291.92
101290.59
101283.94
101287.62
101283.48
101282.16
101288.2
101289.46
101293.85
101301.54
101307.5
101308.63
101302.98
101306.22
101304.43
101300.94
101294.98
101297.45
101299.4
101300.77
101299.45
101295.87
101296.36
101302.93
101304.98
101303.18
101307.37
101300.79
101308.45
101301.34
101301.1
101299.01
101302.67
101300.91
101307.48
101316.81
101320.15
101308.52
101301.88
101311.44
101303.37
101301.45
101299.33
101312.72
101318.8
101325.76
101312.22
101298.21
101296.7
101289.1
101283.53
101297.56
101287.6
101299.37
101293.81
101291.92
101292.16
101295.1
101296.65
101291.42
101292.43
101288.75
101295.59
101292.68
101286.87
101289.46
101286.67
101286.6
101296.68
101289.72
101289.21
101286.38
101284.3
101279.45
101287.09
101277.37
101278.39
101284.88
101285.4
101283.54
101287.5
101281.13
101289.32
101292.79
101292.75
101300.78
101295.85
101286.95
101289.96
101286.89
101296.72
101303.21
101305.21
101294.05
101292.12
101292.38
101294.87
101296.56
101291.79
101292.92
101299.7
101296.02
101285.22
101287.94
101284.25
101285.89
101289.16
101283.33
101286.57
101288.98
101289.26
101296.91
101286.64
101284.41
101279.75
101287.48
101277.62
101278.78
101277.83
101274.24
101268.76
101269.56
101278.86
101283.33
101290.98
101283.64
101292.15
101283.98
101280.41
101280.27
101279.41
101286.05
101279.1
101285.88
101289.51
101284.48
101277.97
101277.51
101278.46
101271.89
101278.78
101275.21
101281.26
101280.06
101275.01
101273.3
101266.71
101273.82
101266.35
101275.08
101265.48
101264.43
101271.14
101266.51
101273.63
101278.22
101286.15
101275.8
101277.37
101281.74
101291.47
101292.28
101298.68
101302.65
101302.86
101316.22
101318.16
101309.16
101300.59
101299.96
101301.72
101313.32
101300.22
101319.66
101326
101322.2
101317.28
101295.12
101298.7
101298.42
101293.67
101293.82
101330.99
101349.86
101312.52
101322.22
101327.46
101320.53
101301.93
101302.37
101301.74
101301.44
101306.45
101343.63
101350.82
101294.47
101289.67
101301.29
101303.5
101302.63
101295.95
101291.32
101294.62
101285.51
101289.86
101286.85
101291.24
101288.22
101297.86
101289.74
101277.62
101283.74
101276.62
101277.95
101281.74
101273.78
101282.43
101281.53
101281.95
101277.84
101267.47
101273.79
101277.33
101282.97
101281
101284.56
101291.78
101291.74
101300.47
101303.79
101301.57
101297.84
101289.11
101295.45
101297.27
101302.34
101302.39
101301.05
101298.57
101299.74
101308.64
101298.5
101311.39
101299.95
101301.58
101301.01
101320.18
101303.98
101298.86
101296.67
101300.24
101296.24
101297.5
101326.11
101321.56
101317.89
101290.18
101317.2
101293.58
101290.28
101295.73
101328.81
101350.8
101340
101286.47
101279.67
101295.07
101269.38
101293.49
101276.78
101293.2
101286.42
101301.14
101293.96
101301.85
101303.2
101300.63
101302.42
101304.49
101299.23
101300.89
101297.88
101296.1
101291.96
101293.06
101296.43
101291.74
101287.56
101295.87
101294.71
101291.69
101293.44
101283.71
101284.59
101288.07
101283.08
101282.65
101287.93
101289.65
101291.22
101283.51
101292.01
101286.87
101279.6
101284.16
101280.42
101280.33
101274.88
101279.66
101278.88
101283.38
101274.99
101278.24
101285
101289.61
101287.13
101279.97
101277.95
101279.14
101272.45
101278.77
101275.32
101266.33
101273.75
101280.99
101273.31
101266.54
101268.46
101269.32
101268.81
101273.14
101271.98
101261.35
101269.43
101258.21
101261.3
101252.63
101256.13
101265.8
101268.99
101277.28
101277.41
101275.93
101279.83
101271.44
101277.93
101271.8
101280.44
101266.35
101268.31
101253.05
101260.58
101266.1
101273.19
101269.79
101274.44
101281.89
101286.59
101289.93
101298.21
101292.13
101295.68
101288.31
101293.85
101293.97
101290.61
101284.33
101288.89
101281.79
101285.71
101285.34
101291.1
101281.37
101278.68
101275.79
101287.16
101288.78
101295.42
101301.29
101295.24
101290.05
101286.17
101286.67
101290.67
101284.88
101288.63
101292.08
101281.9
101280.65
101276.56
101276.94
101280.55
101278.91
101287.4
101290.6
101277.28
101274.61
101285.24
101269.83
101282.41
101272.13
101270.28
101255.75
101264.79
101270.31
101277.43
101272.33
101276.13
101269.14
101264.83
101259.94
101268.77
101275.39
101280.02
101277.68
101283.46
101281.62
101273.55
101265.69
101272.53
101263.94
101267.37
101260.87
101270.19
101288.49
101282.8
101273.36
101280.33
101293.53
101288.9
101302.06
101294.67
101302.7
101297.86
101296.76
101285.77
101286.87
101281.56
101291.02
101292.09
101291.07
101289.83
101279.93
101278.53
101280.33
101267.14
101267.77
101272.36
101273.59
101278.18
101286.05
101281.65
101277.48
101274.01
101277.16
101275.82
101272.31
101270.39
101273.97
101275.05
101284.2
101281.96
101271.4
101267.21
101279.43
101276.7
101263.65
101262.81
101266.34
101268.41
101281.28
101278.44
101273.16
101276.69
101265.18
101267.81
101270.69
101262.72
101266.86
101271.13
101268.95
101264.14
101254.41
101260.54
101263.37
101258.16
101252.45
101247.7
101259.24
101254.67
101258.79
101247.68
101256.45
101251.3
101262.29
101271
101283.66
101286.65
101293.2
101289.61
101297.85
101284.54
101284.62
101284.51
101276.42
101275.1
101283.11
101279.64
101269.78
101268.12
101280.87
101284.99
101291.36
101290.13
101299.84
101285.11
101283.66
101283.55
101274.25
101273.89
101283.8
101279.46
101267.79
101257.7
101258.13
101260.64
101269.56
101271.11
101278.69
101278.47
101291.1
101272.94
101274.2
101273.51
101261.4
101259.8
101249.93
101245.79
101257.74
101268.44
101277.08
101277.15
101292.56
101274.32
101272.38
101271.97
101262.33
101265.77
101265.04
101269.17
101282.6
101261.73
101276.91
101264.43
101264.2
101245.87
101257.07
101245.15
101249.48
101256.16
101261.8
101252.93
101260.31
101251.87
101261.84
101266.19
101278.22
101268.07
101260.9
101266.68
101269.41
101269.75
101261.03
101252.33
101243.39
101232.61
101243.23
101253.69
101256.61
101269.27
101269.73
101260.09
101249.54
101258.55
101261.76
101253.12
101243.66
101238.34
101250.39
101259.65
101249.12
101246.16
101255.95
101264.57
101271.44
101266.62
101267.74
101262.92
101261.85
101251.99
101258.31
101259.59
101265.87
101257.17
101267.05
101261.52
101250.68
101245.66
101251.12
101261.62
101267.14
101261.9
101247.98
101256.88
101255.94
101246.29
101235.11
101236.76
101248.76
101236.84
101248.06
101238.09
101249.67
101248.24
101250.84
101254.95
101248.16
101242.88
101229.27
101239.35
101244.48
101236.1
101246.34
101237.53
101250.48
101241.43
101248.43
101255.45
101261.7
101266.04
101284.72
101276.84
101262.72
101258.31
101261.2
101275.54
101258.44
101268.28
101282.41
101255.72
101254.75
101272.33
101245.6
101248.9
101249.42
101228.81
101238.07
101246.51
101232.46
101243.09
101234.77
101222.59
101206.96
101222.8
101217.08
101232.71
101218.45
101234.16
101240.26
101233.64
101225.8
101241.85
101238.37
101251.73
101256.7
101257.7
101252.61
101238.79
101245.9
101252.97
101241.3
101240.06
101225.52
101236.3
101222.47
101234.96
101237.97
101225.59
101221.53
101223.24
101207.93
101224.77
101210.63
101226.84
101214.24
101232.05
101230.58
101245.01
101221.42
101222.17
101200.69
101201.2
101212.72
101216.8
101225.45
101207.3
101222.23
101232.99
101225.94
101213.01
101194.34
101210.45
101219.67
101206.49
101186.48
101170.82
101195.46
101183.3
101207.47
101187.13
101212.69
101234.04
101249.53
101261.5
101276.88
101274.43
101270.67
101273.24
101259.36
101262.95
101264.72
101254.55
101252.16
101246.44
101230.86
101238.95
101241.18
101223.56
101237.11
101253.28
101251.79
101235.82
101220.59
101220.7
101239.66
101258.32
101275.04
101292.73
101287.95
101260.62
101259.87
101238.18
101231.57
101248.16
101228.3
101228.11
101245.68
101257.41
101268.04
101268.58
101274.24
101283.83
101286.02
101296.84
101303.35
101308.54
101315.13
101322.69
101326.58
101329.68
101328.86
101331.73
101329.71
101339.75
101331.54
101321.04
101332.11
101366.71
101363.26
101336.32
101341.5
101338.32
101324.23
101322.03
101322.79
101322.43
101321.82
101338.52
101308.7
101352.72
101350.18
101324.63
101337.26
101392.64
101444.46
101332.99
101367.64
101362.43
101341.52
101329.7
101326.86
101336.1
101329.64
101336.22
101324.19
101334.61
101395.38
101454.44
101329.67
101311.36
101333.57
101337.42
101361.71
101366.15
101332.48
101320.83
101325.24
101337.25
101327.96
101323.55
101342.1
101303.52
101491.09
101458.13
101330.12
101353.33
101329.02
101316.48
101320.01
101310.78
101311.09
101319.83
101313.5
101312.82
101317.15
101316
101307.24
101308.03
101303.11
101303.04
101307.58
101309.4
101305.19
101303.31
101306.78
101308.75
101315.26
101309.26
101303.9
101297.62
101303.95
101304.61
101302.47
101300.75
101289.95
101291.2
101292.24
101291.28
101298
101302.84
101301.93
101294.18
101294.97
101287.32
101282.09
101280.2
101278.78
101280.82
101284.22
101293.69
101292.04
101298.05
101301.78
101295.82
101289.62
101292.2
101300.59
101295
101296
101287.93
101288.56
101285.17
101274.15
101275.14
101271.35
101271.94
101270.37
101270.23
101271.49
101273.4
101272.14
101256.09
101256.69
101260.78
101260.27
101247.94
101248.69
101241.88
101240.9
101222.11
101222.82
101233.08
101232.58
101208.51
101209.72
101221.15
101208.7
101186.73
101201.86
101202.16
101171.62
101198.74
101177.51
101200.93
101222.95
101236.47
101227.08
101246.84
101290.53
101278.78
101248.51
101238.9
101237.57
101266.27
101235.62
101255.66
101225.97
101240.29
101254.47
101254.78
101262.71
101291.63
101262.43
101284.57
101238.87
101223.06
101229.28
101282.56
101333.74
101273.57
101307.24
101269.31
101285.1
101273.59
101284.79
101275.65
101285.34
101283.17
101273.28
101278.46
101282.78
101287.38
101290.43
101294.41
101289.1
101295.68
101292.05
101289.41
101282.33
101285.03
101281.7
101276.79
101269.96
101275.32
101271.55
101278.33
101285.25
101291.55
101294.47
101288.25
101280.49
101281.67
101278.71
101283.38
101287.52
101296.12
101301.69
101291.67
101286.15
101295.21
101290.03
101287.02
101278.55
101280.86
101289.48
101285.62
101284.95
101279.08
101273.16
101265.96
101261.74
101270.16
101276.52
101287.74
101288.94
101286.52
101297.57
101295.67
101300.86
101301.09
101301.78
101307.3
101314.27
101315.73
101315.11
101314.16
101316.18
101314.58
101314.52
101314.31
101318.83
101309.81
101315.16
101314.1
101306.97
101301.7
101306.56
101306.78
101315.65
101307.8
101301.36
101301.14
101305.35
101309.88
101318.71
101312.28
101311.85
101303.68
101307.12
101314.02
101307.36
101301.43
101294.42
101293.06
101292.83
101292.82
101284.27
101285.03
101278.39
101280.59
101290.41
101290.87
101278.41
101282.39
101272.38
101272.55
101280.72
101277.09
101274.22
101272.23
101269.89
101270.43
101274.33
101283.79
101280.28
101278.74
101266.12
101265.88
101268.54
101281.42
101279.04
101271.19
101268.29
101272.76
101281.25
101283.39
101287.63
101294.24
101302.55
101290.28
101285.67
101285.66
101289.55
101297.45
101285.81
101292.53
101294.58
101290.11
101292.94
101284.57
101276.18
101278.52
101282.26
101274.14
101276.76
101269.19
101266.13
101258.51
101267.29
101274.28
101272.11
101284.56
101279.22
101282.93
101276.12
101277.62
101273.36
101280.98
101276.29
101283.14
101276.37
101276.99
101280.73
101271.83
101263.07
101264.75
101254.47
101264.45
101262.85
101252.81
101249.54
101261.22
101269.07
101270.68
101263.52
101265.55
101275.31
101277.17
101275.6
101265.26
101262.18
101266.47
101274.47
101262.25
101251.64
101256.89
101262.14
101267.2
101259.12
101258.33
101260.97
101269.21
101271.64
101264.05
101259.14
101267.52
101264.48
101255.07
101252.07
101261.68
101256.77
101260.03
101263.92
101254.08
101248.88
101243.36
101255.7
101260.25
101249.61
101238.14
101243.26
101249.86
101256
101262.96
101270.9
101262.81
101254.08
101248.08
101257.92
101266.5
101276.21
101271.88
101271.84
101278.99
101264.61
101267.22
101262
101259.86
101260.21
101270.33
101284.23
101279.09
101267.22
101272.85
101272.3
101267.45
101265.97
101276.88
101259.22
101259.37
101252.76
101253.07
101250.52
101271.06
101293.47
101279.16
101263.47
101269.76
101270.81
101265.35
101266.83
101285.27
101256.58
101254.22
101245.05
101247.29
101244.5
101264.12
101298.86
101275.64
101261.43
101268.51
101275.13
101279.67
101284.55
101292.4
101301.59
101287.85
101285.99
101299.04
101289.71
101284.5
101274.58
101275.32
101285.92
101281.72
101278.62
101283.2
101284.07
101290.54
101299.94
101300.66
101320.01
101323.9
101305.84
101299.1
101298.29
101300.08
101320.57
101309.02
101346.52
101342.27
101342.92
101290.97
101280.11
101297.95
101298.16
101293.3
101323.88
101286.99
101317.46
101296.78
101312.05
101316.56
101314.37
101299.86
101298.99
101296.23
101296.77
101305.42
101323.51
101320.87
101312.03
101289.46
101287.32
101293.46
101293.91
101282.22
101285.03
101281.57
101290.23
101288.51
101293.74
101294.33
101295.51
101277.69
101280.29
101294.3
101293.91
101279.59
101275.66
101260.9
101261.39
101271.16
101270.5
101260.51
101268.36
101260.41
101261.42
101272.26
101270.19
101271.97
101259.45
101261.85
101258.33
101267.13
101273.98
101258.05
101254.76
101269.59
101261.88
101255.39
101243.27
101247.02
101251.88
101238.79
101245.29
101245.15
101252.36
101241.12
101249.44
101248.56
101251.65
101240.2
101245.55
101237.82
101230.72
101244.3
101240.76
101226.19
101236.68
101237.96
101226.66
101211.02
101224.83
101223.12
101227.08
101234.28
101244.38
101256.61
101247.14
101233.17
101224.21
101237.09
101250.62
101257.53
101253.4
101263.53
101252.45
101240.63
101236.1
101248.86
101260.49
101249.43
101241.59
101245.38
101227.46
101210.88
101232.28
101239.71
101231.65
101239.67
101254.69
101250.79
101248.59
101251.78
101275.58
101292.75
101352.05
101280.57
101331.49
101290.07
101285
101290.57
101334.65
101275.07
101375.16
101439.48
101303.53
101303.66
101376.28
101250.93
101284.03
101284.5
101392.19
101302.36
101305.35
101434.56
101313.96
101370.2
101257.21
101388.61
101316.33
101293.84
101454.55
101515.52
101668.96
101477.23
101439.69
101454.16
101201.46
101230.77
101519.22
101266.48
101388.87
101295.31
101343.75
101305.85
101321.17
101301.87
101301.87
101322.64
101310.75
101300.2
101300.83
101301.23
101300.23
101349.65
101325.27
101294.64
101290.58
101288.92
101264.39
101292.86
101274.92
101292.99
101285.36
101299.88
101290.18
101291.64
101301.38
101286.72
101283.83
101284.06
101277.74
101277.51
101293.46
101277.28
101272.54
101273.41
101258.39
101246.98
101258.43
101268.26
101279.54
101281.22
101285.3
101274.63
101268.57
101270.69
101280.14
101283.48
101289.94
101297.85
101302.27
101293.53
101285.02
101285.16
101284.86
101289.39
101293.81
101291.05
101279.24
101279.4
101274.4
101275.25
101273.53
101281.03
101274.49
101289.01
101285.54
101295.62
101301.29
101312.8
101317.31
101316.17
101302.53
101299.79
101298.84
101298.7
101308.33
101325.28
101317.69
101319.06
101290.77
101291.13
101296.55
101297.47
101293.48
101315.67
101298.17
101312.5
101301.64
101311.5
101306.56
101311.86
101311.03
101315.4
101310.79
101305.81
101304.55
101307.37
101308.94
101308.63
101312.87
101313.93
101319.39
101316.96
101312.47
101315.41
101309.01
101310.88
101307.66
101305.1
101304.71
101309.5
101316.88
101308.8
101307.39
101303.41
101301.27
101300.78
101308.32
101320.5
101318.91
101314.96
101319.68
101326.12
101318.65
101302.64
101299.24
101296.92
101299.3
101312.17
101301.32
101308.52
101300.86
101307.28
101316.66
101310.94
101303
101301.22
101288.13
101292.91
101299.5
101300.98
101305.06
101299.26
101303.33
101301.13
101304.41
101302.91
101306.29
101299.62
101297.56
101295.33
101292.32
101296.42
101298.03
101300.83
101301.3
101299.35
101293.25
101296.33
101291.96
101280.76
101278.91
101274.61
101273.28
101268.91
101268.03
101264.48
101263.87
101262.52
101262.23
101263.33
101263.56
101272.45
101275.01
101259.75
101258.98
101256.45
101256.97
101254.48
101271.69
101270.8
101253.83
101253.2
101253.75
101238.04
101242.7
101246.39
101247.37
101243.12
101225.59
101231.25
101230.46
101226.28
101218.03
101219.64
101239.24
101238.54
101237.4
101218.86
101221.07
101191.3
101186.62
101201.4
101210.56
101208.23
101202.27
101180.5
101181.43
101184.5
101176.54
101155.58
101142.23
101181.86
101191.22
101188.49
101151.84
101154.9
101182.31
101207.92
101208.63
101230.75
101247.62
101249.49
101264.56
101263.26
101294.06
101270.21
101255.84
101258
101234.12
101212.79
101230.48
101230.22
101246.95
101258.81
101268.94
101258.54
101261.23
101270.45
101275.81
101277.14
101287.09
101284.13
101271.86
101263.41
101261.91
101251.96
101253.01
101262.67
101271.94
101273.51
101278.51
101284.16
101290.62
101295.7
101301.46
101291.1
101287.22
101286.75
101281.43
101282.59
101292.39
101283.36
101277.77
101277.48
101265.36
101258.28
101266.96
101274.52
101282.37
101287.6
101289.25
101280.77
101276.65
101279.48
101286.08
101286.52
101292.75
101296.25
101302.48
101298.4
101290.39
101289.37
101288.95
101294.14
101294.2
101291.03
101284.95
101287.09
101282.47
101281.21
101279.83
101287.69
101290.72
101285.78
101288.79
101283.29
101293.07
101288.03
101267.35
101266.31
101259.99
101262.16
101262.02
101275.98
101291.15
101280.01
101296.81
101242.71
101245.29
101232.8
101236.16
101256.8
101228.88
101190.81
101218.86
101233.69
101249.41
101253.77
101238.64
101239.35
101254.88
101242.16
101241.33
101225.09
101211.4
101183.92
101184.06
101174.76
101176.9
101199.21
101198.35
101172.99
101207.85
101206.27
101225.92
101214.8
101210.94
101180.33
101185.91
101137.59
101175.9
101141.65
101173.24
101150.26
101147.01
101099.19
101157.74
101144.64
101173.82
101190.36
101208.34
101187.44
101205.66
101186.12
101205.98
101211.07
101220.36
101208.24
101224.75
101215.47
101196.14
101188.41
101209.94
101193.72
101213.83
101232.04
101236.3
101219.5
101228.59
101221.88
101210.71
101229.76
101224.09
101222.87
101232
101213.67
101200.07
101202.6
101180.4
101191.06
101200.78
101212.58
101190.95
101175.3
101162.5
101181.24
101205.33
101222.7
101204.61
101227.2
101216.71
101236.04
101245.48
101258.42
101243.35
101227.22
101225.89
101242.36
101257.46
101244.09
101235.62
101210.42
101210.01
101183.52
101182.67
101215.18
101201.55
101229.02
101240.02
101255.6
101237.82
101217.14
101217.47
101238.32
101248.99
101235.88
101237.08
101241.66
101244.37
101256.95
101251.47
101236.76
101233.09
101248.45
101254.56
101252.02
101245.08
101256.82
101273.49
101270.39
101269.29
101270.09
101277.55
101288.37
101288.27
101288.92
101275.78
101262.85
101269.84
101251.46
101252.39
101250.98
101259.76
101266.98
101249.74
101235.12
101237.4
101241.76
101246.32
101229.85
101237.9
101240.28
101247.53
101254.42
101260.56
101266.39
101268.18
101279.95
101294.96
101300.91
101305.44
101309.56
101311.86
101313.42
101314.42
101313.53
101312.24
101312.5
101310.03
101305.1
101309.09
101306.8
101300.65
101295.87
101302.7
101307.71
101299.75
101301.03
101300.38
101293.17
101291.92
101293.5
101299.06
101295.64
101300.01
101300.76
101307.51
101305.26
101305.1
101299.03
101296.74
101306.22
101307.58
101311.66
101308.91
101309.81
101309.75
101312.2
101312.85
101310.09
101305.91
101309.11
101312.51
101309.3
101308.87
101306.74
101310.09
101311.99
101314.36
101314.53
101310.95
101312.69
101311.81
101314.75
101312.89
101312.24
101311.55
101312.33
101312.27
101314.91
101312.29
101309.02
101305.31
101303.3
101303.8
101304.87
101295.31
101303.64
101302.46
101307.05
101309.32
101308.5
101303.68
101296.35
101301.47
101300.28
101294.69
101292.98
101293.91
101301.02
101296.84
101301.28
101300.4
101300.46
101305.75
101306.2
101306.02
101308.1
101301.66
101296.88
101295.29
101288.4
101281.06
101289.85
101290.17
101280.54
101279.3
101279.53
101288.95
101282.82
101285.22
101285.86
101284.31
101292.7
101295.45
101289.78
101295.04
101285.56
101279.05
101292.49
101280.23
101273.58
101280.8
101276.99
101273.06
101267.18
101268.67
101281.42
101271.95
101276.23
101280.22
101285.55
101286.7
101290.61
101277.81
101269.09
101282.85
101292.23
101294.86
101287.82
101280.74
101289.51
101288.18
101278.75
101278.32
101279.15
101288.56
101281.65
101283.81
101284.44
101283.64
101292.1
101294.07
101288.25
101293.67
101284.09
101280.24
101292.41
101296.7
101300.23
101291.13
101287.98
101283.97
101287.65
101294.81
101289.04
101295.82
101297.91
101286.72
101290.93
101288.12
101296.06
101294.72
101305.57
101294.97
101300.43
101300.65
101296.19
101299.6
101296.18
101291.26
101291.87
101285.48
101286.17
101278.3
101280.54
101273.27
101272.14
101275.83
101270.91
101280.91
101276.92
101289.89
101281.15
101283.97
101278.78
101274.87
101269.23
101268.46
101270.9
101273.44
101261.21
101271.02
101264.89
101259.43
101250.93
101254.8
101270.69
101258.18
101265.11
101270.55
101278.02
101282.68
101287.98
101289.7
101292.92
101292.91
101289.2
101296.9
101301.29
101297.78
101301.6
101293.3
101286.66
101295.2
101305.88
101304.06
101296.46
101301.84
101306.9
101301.07
101301.35
101301.82
101307.72
101305.44
101304.59
101301.72
101296.25
101293.95
101295.36
101294.62
101299.93
101289.35
101281.04
101291.12
101301.61
101294.23
101301.19
101308.37
101305.46
101299.97
101299.81
101299.09
101300.59
101297.09
101305.52
101304.61
101307.34
101308.63
101312.24
101312.76
101310.08
101310.53
101306.66
101310.36
101309.52
101310.83
101307.89
101309.88
101310.08
101312.89
101312.75
101309.03
101307.25
101310.9
101308.67
101306.01
101303.07
101307.99
101311.03
101311.25
101312.11
101309.02
101308.38
101308.19
101304.73
101310.33
101314.38
101311.07
101314.26
101315.11
101309.47
101313.82
101313.2
101313.53
101315.2
101315.97
101312.3
101317.69
101317.37
101314.06
101307.74
101311.49
101313.31
101309.66
101310.99
101305.65
101308.95
101309.9
101306.54
101310.65
101314.19
101310.11
101313.3
101307.75
101305.34
101301.91
101301.1
101306.87
101304.01
101305.47
101299.23
101299.76
101298.18
101293.71
101293.34
101299.22
101288.12
101286.32
101287.99
101285.39
101289.01
101285.27
101289.08
101290.1
101278.31
101283.67
101284.87
101276.55
101274.52
101277.88
101274.42
101270.91
101272.55
101270.41
101280.29
101270.38
101266.76
101262.88
101265.75
101278.25
101266.81
101270.84
101274.04
101277.53
101280.45
101274.8
101271.63
101267.56
101263.05
101267.35
101259.55
101265.47
101270.18
101277.26
101280.73
101277.87
101282.77
101279.68
101285.69
101274.79
101272.18
101285.96
101277.06
101270.86
101274.26
101267.15
101271.38
101265.4
101273.09
101268.53
101260.01
101253.17
101262.52
101257.94
101252.75
101257.77
101246.5
101254.26
101263.02
101258.41
101267.26
101269.44
101285.93
101292.93
101297.77
101305.31
101293.27
101295
101303.14
101302.74
101301.99
101301.72
101301.57
101292.14
101291.69
101283.8
101285.94
101280.15
101277.4
101283.62
101292.52
101294
101279.3
101282.68
101283.01
101287.03
101297.63
101294.96
101294.39
101293.17
101287.27
101283.61
101290.81
101291.91
101291.14
101293.01
101298.39
101299.95
101307.75
101301.11
101303.14
101304.06
101304.02
101300.94
101293.15
101290.34
101280.07
101279.79
101284.06
101268.09
101270.92
101255.04
101261.04
101258.72
101263.89
101257.47
101250.49
101241.39
101249.18
101258.04
101250.36
101241.77
101229.74
101240.01
101249.71
101258.78
101262.68
101268.16
101284.07
101280.11
101274.51
101270.38
101273.42
101269.42
101273.3
101276.52
101283.26
101290.93
101290.75
101297.24
101284.28
101281.47
101279.74
101280.01
101284.65
101297.39
101290.67
101292.47
101284.85
101282.75
101292.02
101299.8
101299.07
101305.3
101301.25
101308.92
101300.95
101297.26
101300.43
101308.7
101305.96
101298.59
101297.57
101297.05
101297.38
101296.9
101298.53
101295.27
101301.36
101303.22
101303.08
101304.83
101297.31
101297.95
101296.68
101302.83
101302.52
101303.79
101303.87
101296.77
101289.33
101280.84
101283.53
101280.54
101272.58
101264.15
101257.88
101251.85
101241.86
101249.72
101240.32
101251.05
101244.45
101231.63
101219.41
101231.33
101241.56
101230.74
101217.56
101208.02
101189.38
101165.81
101194.51
101177.32
101140.57
101147.18
101165.25
101132.13
101163.62
101174
101192.38
101204.38
101220.06
101208.06
101230.28
101221.53
101196.13
101209.42
101192.52
101222.82
101244.39
101286.47
101272.12
101255.12
101273
101239.21
101241.45
101241.5
101241.61
101247.04
101276.8
101290.12
101232.97
101240.29
101242.85
101245.43
101274.39
101248.83
101279.79
101241.28
101253.98
101240.01
101202.83
101207.53
101214.49
101219.37
101188.26
101182.73
101171.09
101173.49
101209.92
101199.83
101210.89
101175.01
101169.62
101186.79
101218.89
101207.8
101203.69
101151
101150.07
101151.3
101154.35
101212.17
101194.62
101181.64
101184.07
101195.99
101228.72
101230.41
101229.52
101228.45
101287.85
101225.36
101277.63
101218.47
101219.14
101212.25
101217.85
101192.4
101251.84
101387.84
101276.74
101333.47
101231.39
101241.27
101275.94
101252.49
101336.03
101265.25
101330.4
101332.82
101285.92
101309.48
101235.69
101230.16
101231.82
101237.57
101281.79
101229.86
101283.93
101247.21
101232.88
101250.55
101274.62
101274.79
101384.99
101386.68
101275.2
101333.98
101225.27
101236.98
101250.55
101252.36
101263.26
101269.63
101255.85
101240.34
101228.9
101198.05
101196.76
101155.23
101156.37
101201.4
101239.08
101243.52
101292.92
101270.31
101269.42
101260.82
101267.95
101274.46
101278.83
101283.82
101285.97
101286.01
101299.92
101290.53
101283.33
101273.8
101274.05
101267.72
101279.52
101279.61
101283.99
101282.31
101284.63
101296.31
101295.87
101301.27
101299.95
101302.58
101300.13
101298.73
101288.93
101274.83
101275.98
101289.37
101288.86
101278.39
101280.78
101289.15
101295.97
101286.17
101288.35
101298.59
101302.09
101300.79
101303.39
101309.59
101301.98
101292.98
101292.15
101292.99
101290.39
101278.94
101282.67
101283.91
101287.68
101291.35
101298.46
101302.64
101300.13
101304.62
101309.77
101305.61
101309.34
101315.61
101310.39
101310.03
101303.92
101302.47
101301.45
101306.92
101314.51
101306.92
101315.63
101309.37
101318.46
101297.53
101297.87
101300.36
101305.14
101306.64
101305.17
101296.78
101299.14
101295.03
101309.68
101323.83
101292
101291.93
101294.56
101308.89
101317.11
101305.16
101318.53
101318
101313.55
101312.69
101318.63
101311.71
101306.91
101307.36
101305.66
101298.47
101296.88
101298.43
101294.56
101286.99
101291.73
101288.44
101293.3
101295.71
101295.76
101293.57
101300.52
101293.29
101299.49
101293.9
101300.3
101297.26
101288.96
101283.42
101284
101286.95
101282.96
101291.73
101285.01
101281.68
101278.43
101268.09
101267.52
101259.27
101259.74
101269.89
101259.9
101247.78
101247.15
101259.15
101269.35
101278.02
101292.95
101293.38
101277.48
101277.54
101273.21
101273.51
101278
101290.71
101273.54
101278.21
101291.64
101277.54
101272.23
101259.78
101259.14
101269.09
101273.73
101274.43
101268.79
101260.71
101259.93
101248.63
101249.42
101238.7
101236.95
101234.4
101234.52
101250.1
101250.97
101243.8
101255.67
101254.87
101271.19
101271.2
101270.06
101259.65
101259.7
101254.96
101250.24
101250.03
101260.43
101267.58
101248.65
101249.14
101267.4
101260.33
101260.32
101270.84
101269.15
101260.58
101256.29
101257.84
101273.93