/*--------------------------------*- C++ -*----------------------------------*\
  =========                 |
  \\      /  F ield         | OpenFOAM: The Open Source CFD Toolbox
   \\    /   O peration     | Website:  https://openfoam.org
    \\  /    A nd           | Version:  7
     \\/     M anipulation  |
\*---------------------------------------------------------------------------*/
FoamFile
{
    version     2.0;
    format      ascii;
    class       volVectorField;
    location    "400";
    object      U;
}
// * * * * * * * * * * * * * * * * * * * * * * * * * * * * * * * * * * * * * //

dimensions      [0 1 -1 0 0 0 0];

internalField   nonuniform List<vector> 
25278
(
(120.02662 0.0073629216 0.0072155681)
(120.01551 -0.0037093013 -0.018790972)
(120.01504 -0.0028588188 -0.0071282059)
(120.0157 -0.006614347 -0.0054579717)
(119.98776 -0.020345365 -0.0097303522)
(120.01763 -0.020914047 -0.0077530472)
(120.03201 0.0050548928 0.00061803453)
(120.02728 0.0076638427 0.0059679828)
(120.0298 0.0022472096 0.0058983366)
(120.03565 0.0019328134 -0.0013512594)
(120.03291 0.0004039433 -0.00079611865)
(120.02848 0.0034735048 0.0016641148)
(120.02135 -0.0069725697 -0.0094415091)
(120.00749 -0.013105644 -0.016058193)
(119.88758 -0.033783035 -0.060708646)
(120.01548 0.0020089055 -0.0090723469)
(120.01549 0.0014106607 -0.019648579)
(119.92061 -0.047736723 -0.082982703)
(119.86125 -0.018741599 -0.12303324)
(119.9523 -0.026341219 -0.10998068)
(119.99558 -0.010438207 -0.059231644)
(120.00054 -0.019523214 -0.044496456)
(120.00522 -0.020522982 -0.030360419)
(120.02602 -0.013685321 -0.020094928)
(120.03789 -0.027993659 -0.033336627)
(120.02705 -0.01833746 -0.018151579)
(120.00597 -0.02826359 -0.025823378)
(120.00033 -0.04364443 -0.049880658)
(119.97803 -0.039141992 -0.069849324)
(120.00656 -0.040089117 -0.070702015)
(120.00677 -0.040089277 -0.089854476)
(119.96735 -0.039233507 -0.094328161)
(119.94605 -0.079429699 -0.14433283)
(119.96475 -0.072939136 -0.10090983)
(120.00972 -0.068678282 -0.1027442)
(119.99577 -0.062903505 -0.11952412)
(120.01837 -0.060670719 -0.11686765)
(120.01673 -0.059879031 -0.13804139)
(119.98771 -0.060886033 -0.1429017)
(119.97384 -0.089961888 -0.17812526)
(119.98466 -0.090301803 -0.14417702)
(120.01779 -0.085848937 -0.14252648)
(120.014 -0.085835628 -0.17084997)
(120.05559 -0.078144163 -0.15255952)
(120.04584 -0.053213713 -0.1228759)
(120.043 -0.031236432 -0.071949653)
(120.02986 -0.011570251 -0.030599599)
(120.03467 -0.0091397376 -0.042382637)
(120.04593 -0.0246309 -0.089636139)
(119.99886 -0.029866039 -0.11021524)
(119.99173 -0.011683163 -0.1247729)
(119.93968 -0.00939433 -0.11994776)
(119.87428 -0.018604987 -0.2065567)
(119.911 -0.058212273 -0.1919761)
(119.97717 -0.053770469 -0.15985524)
(120.00962 -0.054099889 -0.15832168)
(120.00202 -0.043244009 -0.18110178)
(119.96403 -0.04021536 -0.18208189)
(119.9335 -0.065221665 -0.23870788)
(119.9553 -0.082837775 -0.20615897)
(119.99961 -0.081699787 -0.20513903)
(119.98621 -0.067540128 -0.23703088)
(119.96571 -0.045211947 -0.26198114)
(119.99258 -0.028163174 -0.1955853)
(119.95242 -0.025458199 -0.1902698)
(119.94511 -0.0081288285 -0.19961822)
(119.98758 -0.0093053761 -0.20567781)
(119.95682 -0.015295816 -0.27565819)
(119.89671 -0.014909453 -0.26479102)
(119.90952 -0.041602453 -0.25162032)
(119.8242 -0.060923868 -0.32157376)
(119.87038 -0.093292288 -0.30451524)
(119.90967 -0.11636846 -0.25521041)
(119.94054 -0.12561677 -0.21610865)
(119.9635 -0.11762891 -0.16738657)
(119.99801 -0.11702579 -0.12841631)
(120.01049 -0.096245496 -0.080615853)
(120.00774 -0.067644837 -0.050814601)
(120.00215 -0.04513866 -0.0279339)
(119.97057 -0.042379624 -0.029003783)
(119.95036 -0.031482514 -0.023574714)
(119.88966 -0.058229137 -0.043870111)
(119.92241 -0.079851248 -0.058730472)
(119.86721 -0.13125221 -0.035470143)
(119.95833 -0.057720536 -0.020077814)
(119.93337 -0.04094486 -0.015625597)
(119.82895 -0.094914293 -0.024447987)
(119.6117 -0.13223747 -0.066578059)
(119.72224 -0.0865637 -0.085137494)
(119.81872 -0.063103479 -0.070385841)
(119.83419 -0.080925815 -0.088800607)
(119.73438 -0.094908014 -0.10813633)
(119.71814 -0.073797946 -0.089905328)
(119.54149 -0.12493785 -0.13305964)
(119.56629 -0.1420739 -0.15225801)
(119.73881 -0.10342704 -0.10712484)
(119.76847 -0.12316749 -0.12048241)
(119.85632 -0.088704319 -0.097253313)
(119.88414 -0.10958533 -0.11905401)
(119.79752 -0.13579318 -0.16565475)
(119.76424 -0.10764878 -0.12898034)
(119.59092 -0.17671251 -0.18830703)
(119.63191 -0.22044864 -0.23134072)
(119.80167 -0.15851973 -0.14873788)
(119.70592 -0.24372106 -0.12060658)
(119.668 -0.1873319 -0.094424638)
(119.63266 -0.15587244 -0.083569613)
(119.27217 -0.28577802 -0.1246314)
(119.23644 -0.24375003 -0.11309754)
(118.88989 -0.25708477 -0.05607863)
(119.50367 -0.12023272 -0.026704202)
(119.52079 -0.13201048 -0.03443475)
(118.91507 -0.29037645 -0.066782169)
(118.91788 -0.37111528 -0.093462416)
(119.30648 -0.35881711 -0.14580443)
(119.36926 -0.43911877 -0.19651478)
(118.93212 -0.48481261 -0.14908207)
(119.58778 -0.22995181 -0.058475884)
(119.55774 -0.15539168 -0.041010695)
(119.54575 -0.18016941 0.0077357297)
(119.86411 -0.15375193 0.013761539)
(119.95913 -0.066242275 0.0027300828)
(119.98886 -0.025342913 0.0016405528)
(119.68756 -0.11328073 0.11939939)
(119.49596 -0.18112205 0.1640899)
(119.18518 -0.31610812 0.12786882)
(118.86224 -0.29911119 0.023011852)
(119.49211 -0.13909039 0.0014152226)
(119.82322 -0.11517814 0.0056987442)
(119.93261 -0.049564469 -0.00039636315)
(119.94987 -0.046286098 0.018999408)
(119.97225 -0.056948932 0.024224775)
(119.91981 -0.1092286 0.06249658)
(119.88305 -0.086508386 0.048442365)
(119.69747 -0.12944993 0.099682)
(119.58782 -0.1770934 0.06618235)
(119.60863 -0.20584713 0.084184906)
(119.50903 -0.15381854 0.0040352561)
(118.88435 -0.34170882 0.028847891)
(119.21928 -0.36524999 0.14240125)
(119.25196 -0.44554465 0.17222624)
(118.8829 -0.43198286 0.049064514)
(118.89276 -0.55976296 0.097624023)
(119.57564 -0.26240161 0.019753488)
(119.68252 -0.30308349 0.12411086)
(119.64518 -0.24022055 0.095798856)
(119.74707 -0.17226757 0.13715697)
(119.71454 -0.15017212 0.12305981)
(119.51979 -0.2035598 0.18440352)
(119.7042 -0.13735021 0.13986849)
(119.87819 -0.056035387 0.081188382)
(119.80151 -0.097953347 0.089306417)
(119.81859 -0.11789397 0.10977355)
(119.84335 -0.1255402 0.11840301)
(119.91665 -0.069444942 0.10369644)
(119.87364 -0.14830755 0.1419249)
(119.7823 -0.21252588 0.16800155)
(119.58542 -0.2907523 0.27108293)
(119.31073 -0.53523497 0.23181644)
(118.43712 -0.61424905 0.58111103)
(116.19419 -0.50910078 0.66350551)
(116.29709 -0.43191205 -0.79405351)
(118.58111 -0.47467659 -0.49758065)
(119.34447 -0.19080516 -0.44775571)
(119.6908 -0.10645958 -0.24563573)
(119.65423 -0.07959145 -0.18647666)
(119.53356 -0.013084264 -0.13823321)
(119.5593 -0.028268304 -0.21542808)
(118.8476 -0.10287682 -0.46431762)
(118.84462 -0.050429841 -0.34175022)
(119.28461 -0.13879751 -0.36132278)
(118.41919 -0.38950075 -0.40800163)
(116.1673 -0.45600053 -0.241801)
(116.02509 -0.65650615 -0.41198499)
(103.55501 -1.6039029 -1.485678)
(105.25609 -1.1768283 -1.0720975)
(116.38042 -0.28432009 -0.58593271)
(116.2875 -0.36125499 0.4704484)
(105.49191 -1.453189 1.2388932)
(103.77816 -1.9707641 1.6490465)
(115.70203 -0.9052594 0.39225234)
(115.89563 -0.69470764 0.2655112)
(118.28988 -0.51755315 0.4760762)
(119.19927 -0.18628616 0.42430844)
(119.54385 -0.24376346 0.22337399)
(119.7366 -0.15009357 0.16236832)
(119.77115 -0.17992919 0.20249166)
(119.64639 -0.13841642 0.29692787)
(119.25643 -0.24005538 0.51161443)
(118.70205 -0.16298742 0.53648918)
(118.72072 -0.10544224 0.41843131)
(119.47677 -0.041349665 0.17860606)
(119.84754 -0.033076602 0.15489103)
(119.61051 -0.11205676 0.23368689)
(119.49834 -0.057110611 0.25891565)
(119.60406 -0.073191082 0.35216941)
(118.77292 -0.2517296 0.69550334)
(115.52667 -1.1453311 0.81963216)
(101.59435 -2.7402054 2.2176568)
(101.37302 -2.2054496 -2.1057555)
(115.93243 -0.92235347 -0.80240833)
(118.93196 -0.18495564 -0.62613606)
(119.66254 -0.045630847 -0.29977223)
(119.78241 -0.12287479 -0.28790789)
(119.87219 -0.14449986 -0.19136299)
(119.93515 -0.11203222 -0.1224426)
(119.96553 -0.094295801 -0.083977277)
(119.97913 -0.06660258 -0.049493864)
(119.96911 -0.094140855 -0.052518515)
(120.00867 -0.089817847 -0.0539826)
(119.99745 -0.11574919 -0.07765448)
(119.94842 -0.14046043 -0.094396309)
(119.98618 -0.13817516 -0.10543744)
(120.01898 -0.13658778 -0.10189853)
(120.01996 -0.11335108 -0.076005216)
(120.0188 -0.13668687 -0.077084488)
(119.98997 -0.14124385 -0.077475779)
(119.9764 -0.1738318 -0.10728434)
(120.01586 -0.16667148 -0.104163)
(120.0571 -0.14885461 -0.097679866)
(120.05356 -0.12241174 -0.09272952)
(120.05474 -0.075707526 -0.065009846)
(120.03477 -0.053635546 -0.040344316)
(120.03233 -0.031269952 -0.018637799)
(120.04988 -0.030289858 -0.023616181)
(120.08069 -0.04036167 -0.038775471)
(120.08264 -0.061353207 -0.045895915)
(120.06827 -0.043792959 -0.028362741)
(120.04566 -0.072432697 -0.044667206)
(120.04398 -0.10099822 -0.068256438)
(120.06747 -0.082311848 -0.057961896)
(120.08757 -0.10085871 -0.079248621)
(120.09813 -0.12386709 -0.085255553)
(120.07651 -0.10119719 -0.062114669)
(120.04795 -0.12211277 -0.070736383)
(120.04693 -0.14475659 -0.068905151)
(120.0498 -0.095685281 -0.040245123)
(120.03982 -0.049016965 -0.017331184)
(119.9987 -0.066435539 -0.020608486)
(119.95528 -0.11443153 -0.041363224)
(120.00214 -0.11569119 -0.045811715)
(119.98061 -0.16131807 -0.07184083)
(119.9161 -0.19423032 -0.076161356)
(119.95959 -0.20519637 -0.1020372)
(120.00285 -0.20455023 -0.10231012)
(120.01266 -0.16031423 -0.073020279)
(120.00606 -0.1879045 -0.063755842)
(119.9686 -0.18831997 -0.059945703)
(119.93998 -0.24214232 -0.086912534)
(119.99098 -0.24084154 -0.09052099)
(119.97235 -0.27389215 -0.069805562)
(119.99798 -0.20839039 -0.04928163)
(119.99669 -0.13922893 -0.028027794)
(119.94362 -0.13364419 -0.025387305)
(119.88227 -0.22228268 -0.041178479)
(119.9583 -0.20220111 -0.045942977)
(119.91791 -0.2629425 -0.064943857)
(119.90591 -0.28716834 -0.038807401)
(119.9516 -0.22059117 -0.027783535)
(119.99397 -0.22739638 -0.029499952)
(119.96444 -0.29817811 -0.040336979)
(120.02959 -0.28800862 -0.041278226)
(120.03583 -0.26183143 -0.071822108)
(120.04616 -0.22540779 -0.090443086)
(120.0535 -0.18760162 -0.099372042)
(120.1041 -0.15860495 -0.088674722)
(120.08064 -0.1215626 -0.061124912)
(120.08442 -0.14765749 -0.056835172)
(120.04469 -0.17200174 -0.061322937)
(120.04105 -0.19349383 -0.04857799)
(120.0531 -0.11934642 -0.026347471)
(120.09214 -0.076562896 -0.020780562)
(120.08049 -0.058418607 -0.026167088)
(120.10493 -0.089451095 -0.049008215)
(120.09649 -0.07388549 -0.049236908)
(120.10661 -0.038677119 -0.03282928)
(120.0897 -0.031214596 -0.028369372)
(120.12141 -0.035620443 -0.03690645)
(120.11062 -0.072391822 -0.06074609)
(120.12861 -0.08717704 -0.064738107)
(120.14425 -0.045669052 -0.041741684)
(120.16603 -0.060929362 -0.046406892)
(120.11829 -0.047832594 -0.032897983)
(120.13206 -0.061919419 -0.034827265)
(120.11425 -0.11068433 -0.047859714)
(120.155 -0.14372245 -0.070069966)
(120.14378 -0.11363689 -0.070471872)
(120.1549 -0.14412066 -0.096330404)
(120.14831 -0.12601469 -0.092915752)
(120.13682 -0.11032781 -0.08841899)
(120.13523 -0.083569666 -0.076813644)
(120.11869 -0.044517972 -0.056587114)
(120.07928 -0.027480189 -0.046003319)
(120.04792 -0.014452196 -0.032705612)
(120.03332 -0.030305543 -0.056389814)
(120.05389 -0.053227823 -0.081869918)
(120.04236 -0.052900255 -0.10420206)
(120.06545 -0.042369995 -0.085023201)
(120.07399 -0.044147224 -0.10119536)
(120.09655 -0.064605463 -0.12675349)
(120.08634 -0.061974789 -0.10610635)
(120.05251 -0.076199823 -0.12814013)
(120.05606 -0.10495527 -0.15614411)
(120.07252 -0.094949904 -0.10704795)
(120.10205 -0.085543806 -0.12817514)
(120.09417 -0.093115201 -0.15706749)
(120.0709 -0.10205826 -0.17198457)
(120.04564 -0.10790587 -0.18243857)
(119.99606 -0.12813162 -0.21639275)
(120.00788 -0.11769813 -0.1687827)
(119.99309 -0.168666 -0.21087427)
(119.93178 -0.17051797 -0.20365124)
(119.89663 -0.18426986 -0.26922237)
(119.97222 -0.18487177 -0.27152212)
(119.91406 -0.26903403 -0.33324579)
(119.96103 -0.22689656 -0.24147514)
(119.99404 -0.19898977 -0.18413847)
(120.00906 -0.160054 -0.13371912)
(119.96514 -0.15898088 -0.1325982)
(119.87553 -0.1832574 -0.15878012)
(119.93316 -0.19252868 -0.18440572)
(119.90104 -0.25908877 -0.20016666)
(119.94403 -0.20913715 -0.14299255)
(119.99846 -0.20905876 -0.14669252)
(119.97507 -0.26066287 -0.20266868)
(119.91702 -0.31923144 -0.28584891)
(119.82682 -0.30661223 -0.2621229)
(119.8891 -0.21611881 -0.22919503)
(119.72166 -0.26676991 -0.27833011)
(119.82251 -0.24696757 -0.31881636)
(119.72509 -0.36073755 -0.37462303)
(119.84765 -0.38148751 -0.39785093)
(119.97968 -0.32595577 -0.34435299)
(119.99852 -0.2794413 -0.32169453)
(120.01724 -0.22834768 -0.28356157)
(120.03036 -0.19196579 -0.25828253)
(120.03996 -0.15460102 -0.22991213)
(120.04375 -0.13064045 -0.20792258)
(120.07525 -0.12303643 -0.19621159)
(120.075 -0.12624478 -0.22181346)
(120.07182 -0.10343881 -0.19345841)
(120.04118 -0.10901404 -0.20525085)
(120.0394 -0.13438942 -0.23659433)
(120.03185 -0.1650316 -0.26476203)
(120.07293 -0.15875823 -0.25119594)
(120.07591 -0.14825397 -0.21777356)
(120.05807 -0.15407116 -0.19684415)
(120.12511 -0.12846306 -0.16629735)
(120.10976 -0.1359741 -0.20021106)
(120.10356 -0.11261832 -0.17862142)
(120.13169 -0.097673646 -0.15682034)
(120.11723 -0.079931793 -0.13676291)
(120.12525 -0.082292495 -0.15480305)
(120.09848 -0.094210146 -0.17694598)
(120.10672 -0.11507365 -0.2019023)
(120.13873 -0.1015047 -0.17819074)
(120.15118 -0.12856855 -0.20361866)
(120.14361 -0.11839839 -0.17545579)
(120.15824 -0.14721167 -0.20043524)
(120.11665 -0.16829624 -0.22734325)
(120.07535 -0.18247706 -0.24684451)
(120.07057 -0.19309018 -0.28532836)
(120.02031 -0.20337745 -0.30136647)
(120.00007 -0.24781573 -0.33448659)
(120.05894 -0.2408069 -0.32166469)
(120.06832 -0.22116541 -0.27310605)
(120.04889 -0.21680883 -0.23334115)
(120.05854 -0.18412595 -0.17109757)
(120.05679 -0.14724555 -0.12187699)
(120.10272 -0.11951314 -0.10372379)
(120.1253 -0.15274484 -0.14765463)
(120.11032 -0.18943454 -0.15810475)
(120.10431 -0.17011478 -0.13419591)
(120.09527 -0.15079565 -0.11403805)
(120.07219 -0.16543583 -0.12225804)
(120.04719 -0.17564091 -0.12709971)
(120.04522 -0.19916887 -0.14989725)
(120.07632 -0.18754566 -0.14357232)
(120.0764 -0.2141949 -0.14835325)
(120.07333 -0.18813839 -0.12512876)
(120.04315 -0.19958281 -0.12963081)
(120.04149 -0.22875094 -0.15514492)
(120.03417 -0.25508018 -0.18578507)
(120.04146 -0.21937313 -0.17382496)
(120.07697 -0.20711554 -0.16901907)
(120.07631 -0.23370444 -0.20333968)
(120.03188 -0.24560133 -0.21096383)
(120.02295 -0.2893441 -0.22385206)
(120.07212 -0.27307117 -0.21563601)
(120.07439 -0.24147965 -0.18117488)
(120.11337 -0.22149056 -0.16971195)
(120.10762 -0.19468591 -0.13862704)
(120.09968 -0.17210944 -0.11688183)
(120.12632 -0.1505953 -0.10610961)
(120.11833 -0.13094294 -0.10183524)
(120.13226 -0.14861143 -0.12055425)
(120.13929 -0.17146486 -0.12652507)
(120.15132 -0.19443218 -0.15489063)
(120.1439 -0.16479335 -0.1421861)
(120.15822 -0.18656841 -0.17189954)
(120.11703 -0.21379159 -0.19084418)
(120.11745 -0.25068497 -0.20295502)
(120.16422 -0.22059776 -0.1855679)
(120.20617 -0.18241637 -0.16040788)
(120.19325 -0.15489986 -0.14740593)
(120.17538 -0.10373044 -0.10685707)
(120.2016 -0.042342325 -0.059110342)
(120.15156 -0.036221209 -0.044918597)
(120.16216 -0.05865671 -0.057638062)
(120.15285 -0.083030803 -0.071751911)
(120.17545 -0.093655816 -0.085334227)
(120.15556 -0.12350561 -0.10394942)
(120.16677 -0.14127772 -0.10970088)
(120.1898 -0.10957504 -0.092587563)
(120.16708 -0.096807267 -0.077611677)
(120.17902 -0.067740003 -0.061478985)
(120.18496 -0.034391036 -0.042024905)
(120.16636 -0.028275672 -0.037027085)
(120.1933 -0.02987537 -0.043470398)
(120.1876 -0.063082482 -0.066704339)
(120.2051 -0.071939825 -0.070554072)
(120.21307 -0.036177447 -0.049113407)
(120.24399 -0.03574404 -0.056270005)
(120.21869 -0.028753281 -0.048274112)
(120.21146 -0.067788052 -0.076513751)
(120.19639 -0.10227716 -0.09948642)
(120.17189 -0.13724115 -0.12189793)
(120.18562 -0.16101532 -0.13385491)
(120.21403 -0.12250516 -0.11201333)
(120.24168 -0.13789903 -0.1337194)
(120.22368 -0.11512745 -0.11959472)
(120.24338 -0.076064167 -0.090476833)
(120.25278 -0.029481523 -0.055171834)
(120.27973 -0.035955584 -0.064787332)
(120.26655 -0.088155909 -0.098903257)
(120.23372 -0.079925396 -0.084097256)
(120.25308 -0.096964846 -0.093609977)
(120.22096 -0.086651534 -0.07771717)
(120.19076 -0.078632415 -0.064882345)
(120.17655 -0.11172393 -0.080929952)
(120.20199 -0.13012557 -0.09904793)
(120.1752 -0.16627726 -0.1172035)
(120.14322 -0.20032657 -0.13252358)
(120.13016 -0.17150615 -0.1085314)
(120.10002 -0.19482086 -0.11860627)
(120.07026 -0.21218342 -0.12551399)
(120.03761 -0.22209993 -0.1290926)
(119.97333 -0.26233603 -0.14426668)
(119.9164 -0.25084129 -0.13562472)
(119.79573 -0.28441166 -0.13995275)
(119.85493 -0.31499119 -0.20082759)
(119.9295 -0.33819269 -0.21121127)
(119.88294 -0.42289549 -0.19765915)
(119.9475 -0.31892877 -0.1304249)
(119.88148 -0.30413209 -0.11560519)
(119.79266 -0.39444556 -0.17758614)
(119.63792 -0.50569462 -0.24301675)
(119.74683 -0.38482768 -0.27121293)
(119.49355 -0.50035443 -0.27722094)
(119.59416 -0.45246153 -0.41592547)
(119.71797 -0.52583309 -0.45808629)
(119.83354 -0.42847592 -0.3099887)
(119.74359 -0.55845457 -0.30804497)
(119.57293 -0.71021691 -0.4927959)
(119.40253 -0.62297254 -0.41505084)
(119.07341 -0.67945649 -0.43857544)
(119.48112 -0.55946492 -0.20701703)
(119.71724 -0.42694609 -0.13795346)
(119.8392 -0.32972184 -0.085598952)
(119.68748 -0.31255351 -0.075927559)
(119.81639 -0.36600751 -0.050888562)
(119.89234 -0.4067366 -0.056012032)
(119.91015 -0.36757328 -0.099476743)
(119.81274 -0.49780925 -0.15698406)
(119.77728 -0.56090604 -0.084700446)
(119.6711 -0.48842867 -0.08023158)
(119.37251 -0.68247716 -0.13005626)
(119.02694 -0.63459251 -0.2355086)
(118.7046 -0.9334373 -0.35780361)
(118.94605 -1.1743555 -0.35261248)
(119.25613 -0.92813743 -0.50889202)
(119.59031 -0.68447699 -0.26608094)
(119.49836 -0.80496106 -0.15116833)
(119.73667 -0.7454553 -0.16362024)
(119.77467 -0.69411716 -0.22211242)
(119.82029 -0.62228538 -0.2562964)
(119.87366 -0.56258559 -0.279034)
(119.91507 -0.49008948 -0.28719657)
(119.94977 -0.43141567 -0.28868062)
(119.97789 -0.36887772 -0.27655923)
(120.00306 -0.32047431 -0.26820435)
(120.01874 -0.26909404 -0.24713542)
(120.06929 -0.25773514 -0.242006)
(120.06209 -0.29385846 -0.28911279)
(119.99965 -0.30512214 -0.29803828)
(119.9813 -0.36346335 -0.32232352)
(120.05152 -0.34638578 -0.31289699)
(120.06077 -0.30682786 -0.26349211)
(120.11823 -0.28398079 -0.24817228)
(120.1185 -0.2373269 -0.22614366)
(120.14074 -0.18044217 -0.19938952)
(120.11816 -0.20338578 -0.25358567)
(120.16806 -0.17862368 -0.22421299)
(120.17525 -0.19840405 -0.2664038)
(120.16438 -0.15810821 -0.23300007)
(120.11682 -0.17803914 -0.26310306)
(120.11267 -0.14536654 -0.23104749)
(120.11019 -0.15021958 -0.26567899)
(120.10612 -0.11888413 -0.23100896)
(120.09847 -0.094385673 -0.19755898)
(120.10209 -0.064910185 -0.15667326)
(120.07751 -0.041187761 -0.11773413)
(120.04412 -0.049487042 -0.14198701)
(120.04091 -0.040321278 -0.16421128)
(120.08034 -0.03533298 -0.13822126)
(120.10329 -0.057493122 -0.18719824)
(120.04262 -0.065712054 -0.22009851)
(120.05114 -0.077163225 -0.18718169)
(120.03476 -0.10725227 -0.2261264)
(119.9682 -0.12334101 -0.26709466)
(119.93915 -0.10688138 -0.31960839)
(119.86808 -0.17534924 -0.43001718)
(119.92181 -0.19146398 -0.34780395)
(119.84488 -0.18366567 -0.3234665)
(119.7731 -0.15684322 -0.40068606)
(119.68757 -0.11371801 -0.42326908)
(119.78684 -0.13105438 -0.49746132)
(119.89735 -0.073239128 -0.35990928)
(119.87827 -0.027002575 -0.38461762)
(119.80012 -0.023695609 -0.34389232)
(119.63623 -0.047586866 -0.4682521)
(119.74708 -0.050260505 -0.54284763)
(119.42237 -0.10539768 -0.79569344)
(119.532 -0.24189619 -0.6958518)
(119.71595 -0.28725974 -0.57347035)
(119.82167 -0.29149133 -0.44309706)
(119.73322 -0.25525334 -0.39710509)
(119.46691 -0.26494533 -0.51245132)
(119.60581 -0.22180176 -0.51861668)
(119.35591 -0.39268406 -0.64150538)
(119.5813 -0.40195953 -0.46853223)
(119.70608 -0.43847832 -0.54476971)
(119.53361 -0.46768959 -0.73009136)
(119.14617 -0.47988307 -0.95036776)
(118.9646 -0.41621289 -0.68610508)
(119.42494 -0.18377795 -0.56395254)
(119.29858 -0.087416713 -0.66810825)
(118.50433 -0.27242892 -0.93018799)
(118.74957 -0.26580267 -1.1772449)
(119.22792 -0.30155957 -1.1300354)
(119.50494 -0.20048347 -0.92559112)
(119.68137 -0.1286861 -0.74219151)
(119.80708 -0.092106115 -0.61893545)
(119.88431 -0.063392165 -0.50656065)
(119.93877 -0.047489338 -0.42990675)
(119.97052 -0.034363264 -0.35138454)
(120.0232 -0.015160036 -0.26341591)
(120.03297 -0.0088608547 -0.19035092)
(120.04691 -0.010879423 -0.1050294)
(120.08257 -0.007486581 -0.062127746)
(120.0746 -0.01189989 -0.051932278)
(120.06432 -0.015819514 -0.04278454)
(120.08017 -0.030638112 -0.063701629)
(120.0865 -0.013689636 -0.033157228)
(120.10211 -0.015540506 -0.037415878)
(120.09323 -0.031459307 -0.07317761)
(120.12638 -0.043363185 -0.089065703)
(120.1089 -0.043372558 -0.07716829)
(120.1188 -0.019742415 -0.039855196)
(120.1405 -0.020403589 -0.046700036)
(120.16106 -0.021208734 -0.055731277)
(120.11258 -0.013618852 -0.042354596)
(120.10092 -0.029169954 -0.084688822)
(120.10898 -0.02654945 -0.1000059)
(120.12437 -0.014149429 -0.05014277)
(120.17838 -0.02165651 -0.068189921)
(120.15148 -0.042232979 -0.1333248)
(120.14104 -0.045504733 -0.10990351)
(120.15356 -0.069668013 -0.14496211)
(120.14708 -0.068259417 -0.12955193)
(120.13556 -0.066019433 -0.11579251)
(120.13427 -0.058033912 -0.091981404)
(120.14968 -0.025861882 -0.044055083)
(120.15984 -0.034352417 -0.063185256)
(120.15111 -0.048605015 -0.087944849)
(120.16532 -0.051976688 -0.0995553)
(120.18885 -0.064776438 -0.11484995)
(120.17442 -0.060447597 -0.10106324)
(120.15492 -0.08018557 -0.13139666)
(120.16624 -0.083230458 -0.14728061)
(120.18577 -0.10546707 -0.16963635)
(120.1717 -0.096841615 -0.1477989)
(120.17517 -0.08620287 -0.11765476)
(120.20072 -0.037279111 -0.056283283)
(120.21048 -0.049057633 -0.077670326)
(120.18599 -0.041323712 -0.070065009)
(120.19079 -0.017795365 -0.036346745)
(120.16316 -0.013706204 -0.032292644)
(120.18117 -0.01585692 -0.035814249)
(120.17644 -0.035477551 -0.069806234)
(120.20337 -0.041780734 -0.076367696)
(120.21006 -0.019928636 -0.039955759)
(120.24186 -0.023444887 -0.042116258)
(120.21679 -0.02023529 -0.038135188)
(120.25162 -0.024364497 -0.043090291)
(120.24309 -0.060717731 -0.08998231)
(120.22376 -0.091114737 -0.12914533)
(120.19588 -0.072911607 -0.1124357)
(120.21392 -0.081670059 -0.13040532)
(120.24231 -0.10089797 -0.14955974)
(120.20686 -0.13023695 -0.19455718)
(120.19351 -0.12100841 -0.16896756)
(120.2103 -0.14693827 -0.18945575)
(120.21192 -0.12113114 -0.14219033)
(120.25132 -0.048060934 -0.070496678)
(120.27105 -0.070335939 -0.1000921)
(120.24691 -0.10995584 -0.14506517)
(120.27216 -0.12555025 -0.17172746)
(120.22801 -0.16372662 -0.22351962)
(120.25151 -0.19963415 -0.25670925)
(120.23421 -0.18016569 -0.21893459)
(120.18108 -0.21917065 -0.25923486)
(120.12068 -0.24743476 -0.28951248)
(120.06128 -0.26817359 -0.31185389)
(120.04962 -0.28975716 -0.36416501)
(119.9783 -0.30189243 -0.37999949)
(119.94937 -0.36068139 -0.41410722)
(120.02926 -0.35331201 -0.40414825)
(120.04886 -0.31670306 -0.33738778)
(120.03068 -0.38311514 -0.37696807)
(119.95162 -0.39540786 -0.38142038)
(119.91298 -0.43754212 -0.45941733)
(120.00805 -0.4247771 -0.44970741)
(120.10108 -0.40030511 -0.42919439)
(120.11139 -0.33059021 -0.38220065)
(120.11638 -0.26960819 -0.3399834)
(120.11748 -0.22263876 -0.29949191)
(120.10918 -0.23727386 -0.35093349)
(120.1118 -0.1889795 -0.30573312)
(120.05611 -0.20155981 -0.3296396)
(120.06307 -0.16117722 -0.28736874)
(120.06858 -0.12828741 -0.25277036)
(120.06813 -0.10243372 -0.2156564)
(120.06339 -0.10036083 -0.24164283)
(120.02515 -0.10400911 -0.25375955)
(120.01772 -0.13415536 -0.29803901)
(120.02957 -0.13496343 -0.26553235)
(120.01741 -0.16575384 -0.29811218)
(120.00036 -0.16711093 -0.33904373)
(120.05202 -0.16374046 -0.32638501)
(120.06203 -0.12784513 -0.28258108)
(120.10261 -0.11903353 -0.26008767)
(120.09729 -0.092851229 -0.22253688)
(120.13193 -0.082890778 -0.19641254)
(120.12888 -0.082956714 -0.1733456)
(120.1426 -0.10544738 -0.20452705)
(120.14439 -0.10694582 -0.23148805)
(120.14247 -0.10602355 -0.26408355)
(120.13166 -0.080205067 -0.21841592)
(120.09342 -0.088804366 -0.24590145)
(120.05612 -0.094640088 -0.26571446)
(120.01624 -0.097162784 -0.27561702)
(120.00267 -0.085828398 -0.30256917)
(120.04723 -0.085396142 -0.29201619)
(120.0382 -0.11263318 -0.34855957)
(120.04999 -0.1226884 -0.31738193)
(120.00353 -0.12694741 -0.32926661)
(119.9863 -0.11501549 -0.36207766)
(119.95532 -0.14723201 -0.41906484)
(119.97984 -0.15975668 -0.37634746)
(120.03411 -0.159009 -0.36866086)
(120.0154 -0.14981493 -0.41123393)
(119.98927 -0.19946254 -0.48792813)
(120.01542 -0.20699016 -0.43218483)
(120.04096 -0.20848143 -0.37838781)
(119.97728 -0.21582684 -0.3940585)
(120.00071 -0.20917333 -0.34185395)
(119.97221 -0.25510998 -0.38246492)
(120.03822 -0.25175801 -0.37450214)
(120.01551 -0.26504553 -0.43442415)
(119.93998 -0.26623385 -0.44469298)
(119.90017 -0.34021501 -0.51321844)
(119.94261 -0.31824158 -0.43684458)
(120.02185 -0.31121702 -0.42696243)
(119.99274 -0.33380478 -0.49909547)
(120.08293 -0.31980712 -0.47331653)
(120.09397 -0.25219743 -0.4104042)
(120.10145 -0.19718002 -0.35386899)
(120.10392 -0.15357817 -0.3039636)
(120.15511 -0.13880812 -0.27097052)
(120.15476 -0.13398232 -0.2352535)
(120.16694 -0.16933049 -0.27208931)
(120.1653 -0.17925023 -0.3173247)
(120.1572 -0.18500701 -0.37037792)
(120.15063 -0.1399925 -0.31184931)
(120.09312 -0.15231075 -0.3463673)
(120.09595 -0.11643632 -0.29431166)
(120.08658 -0.10782418 -0.32634559)
(120.08769 -0.080623259 -0.27224559)
(120.13005 -0.074282656 -0.24401941)
(120.13837 -0.099946286 -0.29531091)
(120.14254 -0.13594837 -0.35526559)
(120.07842 -0.14507807 -0.39038611)
(120.06243 -0.19563754 -0.4665782)
(120.08502 -0.19986381 -0.4082922)
(120.06959 -0.26134223 -0.47932318)
(119.97853 -0.2682765 -0.50175459)
(119.89921 -0.26391084 -0.50277438)
(119.94871 -0.21035085 -0.44085102)
(119.91367 -0.19948882 -0.49791556)
(119.87182 -0.17516661 -0.54120326)
(119.92616 -0.12631437 -0.4518133)
(119.9667 -0.09742239 -0.38870342)
(119.98991 -0.07208914 -0.32063181)
(120.0307 -0.045419333 -0.24815267)
(120.0361 -0.027039909 -0.17965797)
(120.07984 -0.02384219 -0.15323293)
(120.07939 -0.0084484322 -0.16419486)
(120.09654 -0.013821972 -0.23172573)
(120.09979 -0.040989468 -0.21549943)
(120.15673 -0.031366526 -0.15703189)
(120.11228 -0.01779151 -0.11220247)
(120.13053 -0.0093778058 -0.05715631)
(120.1348 -0.0052598725 -0.063462146)
(120.1146 -0.0073565689 -0.12148694)
(120.15821 -0.010978722 -0.17175073)
(120.19573 -0.0069227853 -0.093059796)
(120.19024 -0.017169219 -0.082762008)
(120.22492 -0.035038894 -0.1304931)
(120.21978 -0.039375459 -0.11632826)
(120.21006 -0.039017635 -0.10049452)
(120.20134 -0.03912168 -0.088891743)
(120.18788 -0.036457824 -0.077383695)
(120.17463 -0.053082259 -0.11144368)
(120.18516 -0.054939983 -0.12760201)
(120.16052 -0.070753624 -0.16505627)
(120.18111 -0.090854001 -0.19284647)
(120.17477 -0.088300079 -0.16926736)
(120.20122 -0.06838663 -0.13186667)
(120.21222 -0.071601504 -0.15103719)
(120.23383 -0.049127982 -0.10023126)
(120.21916 -0.045716636 -0.087044636)
(120.22805 -0.021621975 -0.044147433)
(120.19414 -0.016472922 -0.038867485)
(120.20952 -0.019320452 -0.044811441)
(120.24531 -0.025077643 -0.051210614)
(120.26058 -0.028385188 -0.061376482)
(120.22019 -0.020336427 -0.051321949)
(120.2323 -0.02237536 -0.061532134)
(120.27425 -0.031321173 -0.074667099)
(120.25645 -0.05286663 -0.13756029)
(120.24617 -0.052082847 -0.11777098)
(120.22039 -0.073458666 -0.1752341)
(120.19138 -0.05441854 -0.14353354)
(120.16335 -0.069017253 -0.18448943)
(120.16584 -0.065092669 -0.20791644)
(120.1978 -0.052616871 -0.16369978)
(120.22638 -0.072223576 -0.20062182)
(120.18514 -0.087924245 -0.25105635)
(120.1844 -0.091691326 -0.22192944)
(120.20488 -0.12188355 -0.26479368)
(120.20216 -0.11849265 -0.22775755)
(120.1955 -0.11241677 -0.19636979)
(120.22896 -0.087099726 -0.15109389)
(120.24181 -0.093454121 -0.17642011)
(120.27507 -0.12154231 -0.20703683)
(120.26003 -0.11051831 -0.17499295)
(120.21757 -0.14258074 -0.22788164)
(120.22425 -0.15380275 -0.26780886)
(120.22587 -0.16221288 -0.31632873)
(120.28614 -0.13155 -0.24780237)
(120.25135 -0.09833564 -0.20742603)
(120.25733 -0.10017154 -0.24316537)
(120.20366 -0.12095652 -0.30559731)
(120.22141 -0.16656734 -0.37165183)
(120.1435 -0.18519102 -0.42860516)
(120.12262 -0.17206446 -0.49324758)
(120.13002 -0.12284817 -0.40111587)
(120.13121 -0.088681652 -0.32951203)
(120.12647 -0.064531411 -0.26593893)
(120.08078 -0.069359858 -0.29435763)
(120.03667 -0.072309793 -0.3137941)
(120.02746 -0.055059106 -0.33415708)
(119.97754 -0.054433459 -0.34085261)
(119.95035 -0.075470679 -0.41390565)
(120.00862 -0.075021862 -0.40604665)
(120.021 -0.096727663 -0.38122882)
(120.07505 -0.094411923 -0.36027379)
(120.06401 -0.073199363 -0.38694201)
(120.07366 -0.052598135 -0.31542221)
(120.12233 -0.049630087 -0.28734258)
(120.12403 -0.069550357 -0.35667256)
(120.11707 -0.044791298 -0.3795638)
(120.11883 -0.031558277 -0.30127394)
(120.06844 -0.033451783 -0.32888213)
(120.02067 -0.034484692 -0.34698722)
(120.01673 -0.010192484 -0.35336234)
(119.96548 -0.01016292 -0.35753977)
(119.93211 -0.014894056 -0.43780166)
(119.99166 -0.014547435 -0.43399428)
(119.99693 -0.047333045 -0.42609093)
(120.05483 -0.046879135 -0.40860096)
(120.04995 -0.013704764 -0.41737292)
(120.06516 -0.0093503038 -0.33567526)
(120.11652 -0.0087368968 -0.30838664)
(120.11344 -0.01269138 -0.38872514)