/*--------------------------------*- C++ -*----------------------------------*\
  =========                 |
  \\      /  F ield         | OpenFOAM: The Open Source CFD Toolbox
   \\    /   O peration     | Website:  https://openfoam.org
    \\  /    A nd           | Version:  7
     \\/     M anipulation  |
\*---------------------------------------------------------------------------*/
FoamFile
{
    version     2.0;
    format      ascii;
    class       volScalarField;
    location    "420";
    object      rho;
}
// * * * * * * * * * * * * * * * * * * * * * * * * * * * * * * * * * * * * * //

dimensions      [1 -3 0 0 0 0 0];

internalField   nonuniform List<scalar> 
25278
(
1.1738758
1.1738607
1.1738767
1.173876
1.1739008
1.1738575
1.1738634
1.1738753
1.173866
1.1738176
1.1738338
1.1738524
1.1738605
1.1738771
1.1738937
1.1738761
1.1738609
1.1738922
1.1739007
1.173884
1.1738516
1.1738575
1.1738604
1.1738364
1.1738056
1.1738346
1.1738588
1.1738413
1.1738944
1.1738362
1.1738095
1.1738547
1.173777
1.1738293
1.1737869
1.1738541
1.1738182
1.1737718
1.1738002
1.1737203
1.1737666
1.1737315
1.1737323
1.1736832
1.173738
1.1737683
1.1738207
1.1737992
1.1737564
1.1738076
1.1737991
1.1738755
1.1737797
1.1737778
1.1738397
1.1737836
1.1737551
1.1738047
1.1736883
1.173747
1.1737111
1.1736963
1.1736879
1.1737665
1.1738482
1.1738316
1.1737553
1.1736819
1.1737019
1.1737304
1.1738524
1.1737542
1.1738112
1.1737637
1.17385
1.1737744
1.1737873
1.1738359
1.1738557
1.1738913
1.1739184
1.1738924
1.1738918
1.1739041
1.1738814
1.1739127
1.1738869
1.1737972
1.1738441
1.1739
1.1738513
1.1737886
1.1738468
1.1737769
1.1738093
1.1737883
1.1738814
1.1739245
1.1738648
1.1738175
1.1738812
1.1738844
1.1738797
1.1738188
1.1737572
1.1738286
1.173729
1.1736398
1.1736092
1.1735775
1.17379
1.1737146
1.1736664
1.1738403
1.1737234
1.1737203
1.1739077
1.1737928
1.1738666
1.1738503
1.1738882
1.173876
1.1738979
1.1738185
1.1737478
1.1735686
1.1735595
1.173782
1.1738753
1.1739087
1.1739138
1.1738858
1.1738776
1.1738792
1.1738219
1.1737754
1.173698
1.1737015
1.1736415
1.1735926
1.1736688
1.173808
1.1738682
1.1737687
1.1737227
1.1738006
1.1738495
1.1737539
1.1737752
1.1737499
1.1738746
1.1738852
1.1738282
1.1739076
1.1738719
1.173841
1.1737782
1.173833
1.1736656
1.1729627
1.1727041
1.1728654
1.1730614
1.1737196
1.1737555
1.1738327
1.1738738
1.1737886
1.1738813
1.1738451
1.1737297
1.1732166
1.1729476
1.172878
1.1702571
1.1706799
1.1729077
1.1727914
1.1706532
1.1703173
1.1728049
1.172882
1.1731228
1.173659
1.1738451
1.1738495
1.1737771
1.1737031
1.1736367
1.1739065
1.173841
1.1738441
1.1738806
1.1737903
1.1737584
1.1737793
1.1737393
1.1724555
1.16945
1.1691281
1.172502
1.1737454
1.1738067
1.173756
1.1738271
1.1738587
1.1738297
1.1738941
1.1738513
1.173804
1.1738552
1.1737781
1.1737676
1.1737319
1.1738199
1.1737682
1.1737975
1.1737227
1.1737335
1.1736819
1.1736892
1.173742
1.1737973
1.1738179
1.1737966
1.1737491
1.1737205
1.1737656
1.1737613
1.1737768
1.1737743
1.1736907
1.173662
1.1737288
1.1737331
1.1737476
1.1737523
1.1737926
1.1738478
1.1738828
1.1738059
1.1738408
1.1737805
1.1737513
1.1737144
1.1737856
1.1737503
1.1738
1.173693
1.1737005
1.1736905
1.1737679
1.173792
1.1738696
1.1737813
1.1738471
1.1737347
1.1737021
1.1738237
1.1737481
1.1736826
1.1736081
1.1736224
1.1736363
1.1736615
1.1736269
1.1737312
1.1736949
1.1737129
1.17373
1.173731
1.1737262
1.1737486
1.1736778
1.1736842
1.1737158
1.1737495
1.1737104
1.1736557
1.1736479
1.1736599
1.1736189
1.173702
1.1736733
1.1736394
1.173571
1.1736086
1.1735684
1.1735462
1.1736164
1.1736328
1.1736819
1.1737501
1.173798
1.1737986
1.1737429
1.173776
1.1737739
1.1737352
1.1736645
1.1736928
1.1736903
1.1737107
1.1737103
1.1736842
1.1736848
1.1737487
1.1737562
1.173697
1.1737622
1.1736642
1.17372
1.1736104
1.1736548
1.1736005
1.1736762
1.1736666
1.1737645
1.1738508
1.1738291
1.1737223
1.1736188
1.1737677
1.1737012
1.1736616
1.1736067
1.1737137
1.173827
1.173804
1.1737062
1.1734687
1.1735321
1.1735233
1.1734532
1.1736484
1.1735186
1.1736803
1.1736047
1.1736053
1.1736146
1.1736458
1.1736425
1.1735726
1.1735866
1.173573
1.1736617
1.173605
1.1735811
1.1736119
1.1735638
1.1735824
1.1737072
1.1736193
1.1735942
1.1735652
1.1735636
1.1735153
1.1736071
1.1734847
1.173468
1.1735179
1.1735316
1.1734664
1.1735122
1.1734758
1.1735856
1.1736054
1.173607
1.1737119
1.1736847
1.1735828
1.1736194
1.1735677
1.1736901
1.1737534
1.1737604
1.1736094
1.1736091
1.1736195
1.1736447
1.1736424
1.173579
1.1735948
1.173686
1.1736685
1.1735239
1.1735249
1.1734779
1.1735406
1.1735806
1.1735369
1.173569
1.1735925
1.1736148
1.1737109
1.173584
1.1735662
1.1735207
1.1736129
1.1734891
1.1734744
1.1734715
1.1734615
1.1734257
1.1734191
1.1735244
1.1736072
1.17367
1.1735836
1.1736798
1.1735879
1.173529
1.1735377
1.1735453
1.1736091
1.1735374
1.1736286
1.1736636
1.1736172
1.1735302
1.1735385
1.1735597
1.1735029
1.1735713
1.1735185
1.1735777
1.1735438
1.1734886
1.1734898
1.1734274
1.1734948
1.1734238
1.173543
1.1734493
1.1734222
1.1734819
1.173438
1.1735015
1.1735344
1.1736182
1.1735102
1.1735087
1.1735381
1.1736475
1.1736366
1.1736937
1.1737196
1.1736841
1.1738137
1.1737621
1.1736864
1.173631
1.1736013
1.173659
1.1737624
1.1735479
1.1737018
1.1738354
1.1736312
1.1736263
1.1734443
1.1735615
1.173511
1.1733338
1.1732259
1.1735434
1.1739989
1.1736671
1.1738532
1.1738234
1.1738242
1.1736439
1.1736555
1.1735983
1.1735819
1.1735802
1.1738911
1.1737924
1.1730603
1.1730736
1.1732881
1.1735144
1.1734734
1.1735178
1.1734691
1.1735332
1.1734375
1.1735112
1.1734858
1.1735529
1.1735239
1.1736536
1.1735923
1.1734248
1.1734573
1.1733628
1.173435
1.1734864
1.1734276
1.173537
1.1735279
1.1735297
1.1735139
1.1733877
1.173454
1.173463
1.1735305
1.1735072
1.1735444
1.1736292
1.1736277
1.1737321
1.1737466
1.1737196
1.1737037
1.1735971
1.1736352
1.1736604
1.1737136
1.1736754
1.1736465
1.1735771
1.1736161
1.1736752
1.1735227
1.1736474
1.1735691
1.1736417
1.1736306
1.173819
1.1735529
1.1735471
1.1733982
1.1734633
1.1734742
1.1735414
1.1738309
1.1736195
1.1736734
1.1731751
1.1736209
1.1734219
1.1732813
1.1732036
1.173504
1.1739978
1.1738504
1.1729754
1.1729464
1.1732988
1.1730975
1.173476
1.1733159
1.1735515
1.1734846
1.1736765
1.1736129
1.1737207
1.173743
1.1737416
1.173756
1.1737738
1.1737211
1.173751
1.1737256
1.1736919
1.1736533
1.1736594
1.1737151
1.1736677
1.1736288
1.1737083
1.1736804
1.173651
1.1736889
1.1735928
1.1735779
1.1736135
1.173563
1.1735513
1.1736125
1.1736343
1.173672
1.1735814
1.1736775
1.173618
1.1735468
1.1735894
1.1735281
1.1735373
1.1734855
1.1735379
1.173524
1.1736073
1.173515
1.1735324
1.1736223
1.1736638
1.1736422
1.1735469
1.1735428
1.1735665
1.1735084
1.1735705
1.1735449
1.1734226
1.1734932
1.1735739
1.1734888
1.1734241
1.1734205
1.1734149
1.1734344
1.1734784
1.1734998
1.1733914
1.1734701
1.1733447
1.1733499
1.1732579
1.1732798
1.1733587
1.1733569
1.1734195
1.1734255
1.1733515
1.1733903
1.1733416
1.1734352
1.1733481
1.1733997
1.173195
1.1732936
1.1731652
1.1732626
1.1733292
1.1734177
1.1733747
1.1734281
1.1734833
1.1735434
1.1735854
1.1736861
1.1736075
1.1736264
1.1735282
1.1736017
1.1736017
1.1735531
1.1735111
1.1735705
1.1735102
1.1735535
1.1735715
1.1736418
1.173532
1.1735012
1.1734678
1.1735958
1.173591
1.1736466
1.1736921
1.1736158
1.1735784
1.1735292
1.1735406
1.1735537
1.173478
1.1735141
1.1735653
1.1734764
1.1734533
1.1733923
1.1734088
1.1734616
1.1733944
1.1735094
1.1735404
1.1734207
1.173377
1.1734596
1.1732401
1.1734196
1.1733483
1.1733119
1.1731897
1.1733069
1.1733748
1.1734617
1.1734339
1.1734787
1.1734016
1.1733505
1.1732904
1.1733909
1.1734343
1.1734881
1.1734569
1.1735257
1.173529
1.1734396
1.1733512
1.1733948
1.1732845
1.1733345
1.173251
1.1733099
1.1734857
1.1734331
1.1733048
1.1733769
1.1735665
1.1735212
1.1736922
1.1736228
1.1737306
1.1737036
1.173692
1.1735582
1.1735711
1.173546
1.1736448
1.1736759
1.173668
1.1736336
1.1735289
1.1735426
1.1735601
1.1734236
1.1734286
1.173477
1.1734857
1.1735333
1.1736162
1.1735674
1.1734983
1.1734714
1.1735048
1.1735094
1.1734739
1.1734705
1.1735044
1.1735287
1.1736159
1.1735977
1.1734957
1.1734549
1.1735742
1.1735491
1.1734202
1.1733936
1.1734297
1.1734329
1.1735681
1.1735134
1.1734525
1.173517
1.1733978
1.1734019
1.173435
1.1733531
1.1733999
1.1734468
1.1734458
1.1733956
1.1732992
1.1733635
1.1733667
1.1733091
1.1732433
1.1732256
1.1733429
1.1732919
1.1733067
1.173185
1.1732427
1.1731764
1.1733082
1.1734088
1.1735524
1.1735615
1.173613
1.1735684
1.1736406
1.1734645
1.1735021
1.1735061
1.1734398
1.1734206
1.173519
1.1735049
1.1733917
1.1733719
1.1735178
1.173539
1.1735867
1.1735722
1.1736615
1.1734681
1.1734874
1.1734882
1.1734095
1.1734041
1.1735255
1.173502
1.1733671
1.1732462
1.1732529
1.173284
1.1733487
1.1733729
1.1734239
1.1734135
1.1735283
1.173276
1.173341
1.1733455
1.1732463
1.1732165
1.1731505
1.1730988
1.1731877
1.1733328
1.1733943
1.1733924
1.173541
1.1732832
1.1733095
1.1733097
1.1731506
1.1731997
1.1732125
1.173278
1.173392
1.1730866
1.1733068
1.1732196
1.1731882
1.1730325
1.1731899
1.1731051
1.173168
1.1732523
1.1733218
1.1732199
1.1733068
1.1732123
1.1733321
1.1733642
1.1735196
1.1733971
1.1733161
1.1733387
1.1733631
1.1733817
1.1732697
1.1732193
1.1731146
1.1730472
1.1731606
1.1732769
1.1732864
1.1734411
1.1734742
1.1733626
1.173261
1.17335
1.1733572
1.1732655
1.1731668
1.1731493
1.1732756
1.1733568
1.1732546
1.1732511
1.1733437
1.1734228
1.1734844
1.1734379
1.1734657
1.1734208
1.1733915
1.1732994
1.1733619
1.1733946
1.1734529
1.1733757
1.1734755
1.1734263
1.1732749
1.1732495
1.1732807
1.1733954
1.173477
1.1734312
1.1732953
1.1733733
1.1733446
1.1732536
1.1731486
1.1731941
1.1733071
1.1731947
1.1732953
1.1732016
1.1733066
1.1732683
1.1732692
1.1732812
1.1732039
1.1731837
1.1730448
1.1731532
1.1731689
1.173073
1.1731374
1.1730246
1.173113
1.1729866
1.1730915
1.1731938
1.1732722
1.1732587
1.1734319
1.1733029
1.1731946
1.1731142
1.1731805
1.1732842
1.17302
1.1731
1.1733429
1.1730793
1.1730221
1.173167
1.172736
1.1728869
1.1729606
1.1728051
1.1729467
1.173074
1.172981
1.1731072
1.1729995
1.1728504
1.172646
1.1728442
1.1727443
1.1729477
1.172852
1.173033
1.1731108
1.1730805
1.1729886
1.1731589
1.173155
1.1732863
1.1733387
1.1733695
1.1733185
1.1731879
1.1732611
1.1733315
1.173226
1.1731858
1.1730449
1.1731542
1.173023
1.1731464
1.1731441
1.1730196
1.1730174
1.1730697
1.172926
1.1730821
1.1729449
1.1730923
1.1729647
1.173133
1.1730854
1.1732265
1.1729846
1.1730297
1.1728215
1.1727799
1.1729083
1.1729045
1.1729463
1.1727424
1.1729215
1.1730474
1.1730186
1.1728779
1.1726854
1.1728602
1.1729021
1.1727467
1.1725067
1.1724201
1.1726791
1.1725292
1.1727921
1.1725506
1.1728341
1.1730679
1.1732332
1.1733571
1.1735206
1.1734679
1.1734252
1.1734803
1.1733325
1.1733446
1.1733663
1.173256
1.1732254
1.1731965
1.173027
1.173073
1.1731061
1.172903
1.1730005
1.1731314
1.173094
1.172967
1.1727535
1.1727895
1.1729368
1.1730903
1.1732185
1.1734973
1.1734171
1.1730103
1.173073
1.1728837
1.1727902
1.1730429
1.1728727
1.1728619
1.1730933
1.1731796
1.173326
1.173333
1.1734088
1.1735252
1.1735616
1.1736925
1.1737445
1.1738
1.1738526
1.1738918
1.1739036
1.173869
1.1739209
1.1738901
1.1738205
1.1738929
1.1738163
1.1737431
1.1736772
1.1739348
1.1738797
1.1736911
1.1738912
1.1738891
1.1738276
1.1738621
1.1738924
1.1738089
1.1737525
1.1737455
1.1730265
1.1729801
1.1730094
1.173182
1.1728212
1.1708024
1.170446
1.1727381
1.1739279
1.173852
1.1737443
1.1738206
1.1739038
1.173844
1.1737916
1.1736517
1.1731368
1.1727711
1.1707267
1.1704679
1.1726726
1.1729979
1.1727323
1.1728439
1.1738263
1.1738788
1.1736337
1.1737072
1.173872
1.1738356
1.1737446
1.1737475
1.1736515
1.1723463
1.1698339
1.169549
1.1727017
1.1738216
1.1738392
1.1737919
1.173879
1.1738005
1.1738083
1.1738838
1.1737752
1.1738049
1.1738506
1.1738341
1.1737566
1.1737684
1.1736916
1.1736872
1.1737067
1.1737323
1.1736909
1.1737005
1.1737569
1.1737848
1.1738402
1.1737493
1.1737148
1.1736666
1.1737491
1.1737584
1.1737569
1.1737426
1.1736344
1.1736688
1.1736776
1.173648
1.1737058
1.1737331
1.1737212
1.1736159
1.1736277
1.1735774
1.1735529
1.1735324
1.1735456
1.1735658
1.1735988
1.1736909
1.1736546
1.173706
1.1737222
1.1736415
1.1736047
1.1736346
1.1737337
1.1736836
1.1737093
1.1736334
1.1736201
1.1735856
1.1734646
1.1734776
1.1734333
1.1734408
1.1734215
1.1734205
1.1734342
1.1734819
1.1734685
1.1732955
1.1733025
1.1733196
1.1733132
1.1731744
1.1731841
1.1731437
1.173132
1.1729224
1.1729329
1.1730026
1.1729935
1.1727014
1.1727228
1.1728604
1.1727781
1.172524
1.1726177
1.1726506
1.1722851
1.1726207
1.1723678
1.1725243
1.1726724
1.1728867
1.1727382
1.1728822
1.1733431
1.173139
1.172838
1.1725731
1.1726746
1.1729111
1.1724295
1.1725905
1.1723325
1.1727047
1.1729923
1.1729798
1.1731465
1.1734461
1.1730047
1.1731528
1.1726555
1.1722108
1.1722269
1.1724127
1.1731264
1.1726363
1.1732499
1.1729248
1.1732433
1.1731623
1.1733667
1.1732883
1.1734438
1.1734342
1.1733673
1.1734397
1.1734983
1.1735563
1.173594
1.1736113
1.173541
1.1736286
1.1736092
1.1735807
1.1735196
1.1735523
1.1735187
1.173489
1.1734147
1.1734426
1.1733953
1.1734767
1.1735271
1.1735686
1.1736111
1.1735242
1.1734194
1.1734816
1.173438
1.1735
1.1735551
1.1736582
1.1737002
1.17357
1.1734975
1.1736183
1.173582
1.1735451
1.1734721
1.173502
1.1736019
1.1735544
1.1735687
1.1735086
1.1734474
1.1733692
1.1733189
1.1734122
1.1734798
1.1736049
1.1735961
1.1735681
1.1737015
1.1736806
1.1737105
1.1737124
1.1737278
1.1737885
1.1738538
1.1738724
1.1738729
1.1738614
1.1738717
1.1738519
1.1738488
1.1738442
1.1738661
1.1737896
1.1738253
1.1737628
1.1736983
1.1736721
1.1737488
1.173753
1.1738327
1.1737092
1.1736693
1.173671
1.173738
1.1737939
1.1738702
1.1737537
1.1737912
1.1736659
1.1737162
1.1738232
1.1737662
1.1736804
1.1736259
1.1736065
1.1736014
1.1736004
1.1735417
1.1735505
1.1735121
1.1735356
1.1736392
1.1736645
1.1735395
1.1735787
1.1734783
1.1734746
1.1735576
1.1734948
1.1734759
1.1734745
1.173466
1.1734859
1.1735216
1.1736123
1.1735797
1.1735678
1.1734441
1.173426
1.1734364
1.1735712
1.1735219
1.1734435
1.173411
1.1734499
1.1735275
1.1735279
1.1735767
1.1736295
1.1737025
1.1735432
1.1735257
1.173521
1.173572
1.1736395
1.1734841
1.1735521
1.1735866
1.1735379
1.1735811
1.1734622
1.1733471
1.1734266
1.1734801
1.1734209
1.1734563
1.1733641
1.1733206
1.1732769
1.1733766
1.1734526
1.1734268
1.1735662
1.1735034
1.1735208
1.1734386
1.1734595
1.1734077
1.173459
1.17339
1.173421
1.1733257
1.1733871
1.1734488
1.1733841
1.1733209
1.1733447
1.1732255
1.1732942
1.1732654
1.1731981
1.173156
1.1732969
1.1733884
1.1734079
1.173356
1.1733801
1.1734807
1.1735263
1.173506
1.1734015
1.1733885
1.173415
1.1735254
1.1734064
1.1733105
1.1733626
1.1734135
1.1734606
1.1733908
1.1733636
1.1733705
1.1734503
1.1734547
1.1733774
1.1733249
1.1734106
1.1734017
1.1733101
1.1733026
1.1733913
1.1733418
1.1733551
1.1733712
1.1732687
1.1732443
1.1731833
1.1733081
1.1733291
1.1732162
1.173091
1.173154
1.1732291
1.1732968
1.1733395
1.1733925
1.1732906
1.1732381
1.1731661
1.1732794
1.1733343
1.1734038
1.17334
1.1732728
1.1733369
1.1732263
1.1732775
1.1731929
1.1731411
1.1730491
1.1731371
1.1733768
1.1733446
1.1732651
1.1733514
1.1733285
1.173244
1.1731514
1.1732372
1.1730946
1.1731358
1.1730145
1.1729596
1.1728147
1.1729941
1.1733988
1.1732846
1.1731698
1.1732821
1.1732748
1.1731592
1.1730987
1.1732356
1.1729591
1.1729908
1.1727905
1.1727094
1.1725641
1.1727196
1.1733657
1.1731858
1.1730919
1.1732358
1.1733582
1.1734321
1.1735057
1.1736027
1.1736861
1.1735062
1.1734802
1.1736547
1.1735703
1.1735023
1.1734166
1.1734276
1.1735538
1.1735311
1.1734949
1.1735221
1.1735306
1.173578
1.1736642
1.1736275
1.1738171
1.1737777
1.1735691
1.1735518
1.1735451
1.1736221
1.1738257
1.1736098
1.1739324
1.1738694
1.173682
1.1730005
1.1729491
1.1734137
1.173427
1.1731426
1.1734002
1.1730833
1.1736402
1.1734863
1.173736
1.1737245
1.1737795
1.173638
1.1736169
1.1735384
1.1735656
1.1736195
1.1737713
1.1735676
1.1735084
1.1733198
1.1731963
1.173418
1.1734698
1.1734022
1.173427
1.1733651
1.1734594
1.1734206
1.1734801
1.1734844
1.1734981
1.1733268
1.1733664
1.1735717
1.1735604
1.173427
1.1733578
1.1732308
1.1732429
1.1733728
1.1733615
1.1732854
1.1733782
1.1733188
1.1733316
1.173446
1.1734224
1.1734679
1.1733374
1.1733644
1.1733479
1.1734253
1.1735229
1.1733635
1.1733296
1.1734773
1.1733686
1.1733165
1.173198
1.1732392
1.1732913
1.1731652
1.1732334
1.1732556
1.1733266
1.1732263
1.1733054
1.1732738
1.173281
1.1731661
1.1731853
1.1731
1.1730671
1.1732042
1.1731968
1.1730567
1.1731607
1.1732021
1.1730935
1.1729521
1.1730841
1.1730322
1.1730344
1.1730661
1.1731266
1.1732122
1.1730848
1.1729924
1.1728781
1.1730353
1.1731262
1.1732195
1.1731601
1.1732925
1.1732121
1.1730734
1.1730059
1.1731615
1.1732434
1.1730922
1.1729676
1.1730471
1.1729124
1.1727074
1.1728613
1.1729748
1.1728505
1.172977
1.173069
1.1729755
1.1728941
1.1729934
1.1731913
1.1732895
1.1739166
1.1727912
1.1734302
1.1730486
1.172637
1.1730728
1.1734794
1.1722726
1.17271
1.1743725
1.1728348
1.1725678
1.1736037
1.1709976
1.1711658
1.1718875
1.1712527
1.1721332
1.1729059
1.1743546
1.1725351
1.1727149
1.1712686
1.1737168
1.1727285
1.1715205
1.1688225
1.169989
1.1744245
1.1693982
1.1682834
1.1638706
1.1621787
1.1627619
1.1698732
1.1712921
1.1738058
1.1730779
1.1738918
1.173573
1.1738296
1.1736409
1.1736471
1.1738539
1.1736422
1.1735745
1.1735697
1.1734497
1.1734658
1.1739847
1.1734621
1.1731929
1.1730707
1.1732004
1.173026
1.1734597
1.1732898
1.1735459
1.1734708
1.1736608
1.1735722
1.1735918
1.1736812
1.1734902
1.1734926
1.1734928
1.1734001
1.1734012
1.1735563
1.1733244
1.1733182
1.1733225
1.1731922
1.17311
1.1732555
1.1733731
1.1735022
1.1735237
1.1735443
1.1734156
1.1733788
1.1734047
1.1735113
1.1735239
1.1735732
1.1736409
1.1736974
1.1736196
1.173515
1.173511
1.1734705
1.1735309
1.1735734
1.1735302
1.1734259
1.1734363
1.1733607
1.1733573
1.173286
1.1733905
1.1733236
1.1735225
1.1734896
1.1736216
1.1736525
1.1737542
1.1737495
1.1738116
1.1736804
1.1736212
1.1735845
1.1735278
1.1736756
1.1738248
1.1736727
1.1735919
1.1731811
1.1732931
1.1734827
1.1735466
1.1734253
1.1736061
1.1734724
1.1737126
1.1736178
1.1737686
1.1737247
1.1738034
1.1738109
1.1738576
1.1738206
1.1737706
1.1737746
1.1737968
1.173804
1.1737988
1.1738356
1.1738404
1.1738939
1.1738564
1.1737798
1.1738538
1.1737864
1.1738174
1.1737742
1.1737357
1.1737347
1.1737688
1.1738507
1.173774
1.1737635
1.1737023
1.1736603
1.1736675
1.1737215
1.1738321
1.1738567
1.1738277
1.1738244
1.1738091
1.1738271
1.173678
1.1736074
1.1735387
1.1736092
1.1737094
1.1736152
1.1737249
1.1736687
1.1737625
1.173849
1.1737626
1.1736982
1.1736607
1.1735315
1.1736115
1.1737111
1.1737139
1.1737573
1.1736889
1.1737416
1.1737374
1.1737734
1.1737432
1.1737767
1.173695
1.1736958
1.1736699
1.1736582
1.1736953
1.1737267
1.1737499
1.1737481
1.1737222
1.1736628
1.1737148
1.1736707
1.1735558
1.173541
1.1734972
1.1734871
1.1734411
1.1734342
1.1733957
1.1733906
1.1733752
1.1733727
1.1733837
1.1733858
1.1735072
1.1735322
1.1733801
1.1733526
1.1733255
1.1733515
1.1733251
1.1734991
1.1734908
1.1733185
1.1732902
1.1732959
1.1731339
1.1731867
1.1732277
1.1732634
1.1732181
1.1730453
1.1731072
1.1730664
1.173018
1.1729228
1.1729785
1.1731755
1.1731686
1.173127
1.1729316
1.1729957
1.1726819
1.1726286
1.1727993
1.1729028
1.1728341
1.1727614
1.1725287
1.1725515
1.1726424
1.1725492
1.1723022
1.1720819
1.1725244
1.1725729
1.1725361
1.1720984
1.1721479
1.1723795
1.1725919
1.1725806
1.1727633
1.1730285
1.1730517
1.1731691
1.1731634
1.1734838
1.1731089
1.1730093
1.1730181
1.1728046
1.1726326
1.1728919
1.1728997
1.1731158
1.1732633
1.1733409
1.1732
1.173238
1.1733625
1.1734315
1.1734514
1.1735687
1.1735601
1.1734215
1.1733254
1.1733023
1.1731795
1.1732022
1.173267
1.1733869
1.1734104
1.17347
1.1735352
1.173587
1.1736525
1.1736967
1.1735632
1.1735504
1.1735394
1.173467
1.1734891
1.1735734
1.1734458
1.1734238
1.1734086
1.1733068
1.1732695
1.1733698
1.1734537
1.173539
1.1736025
1.1735983
1.1735001
1.1734804
1.1735127
1.1735814
1.1735645
1.173617
1.1736352
1.1737172
1.17369
1.1735938
1.1735795
1.1735403
1.1736091
1.1736083
1.1735623
1.1735226
1.1735529
1.1734946
1.1734742
1.1734115
1.1735183
1.1735474
1.173472
1.1734953
1.1734055
1.1735059
1.1734208
1.1732232
1.1732334
1.1731158
1.1731043
1.173029
1.173235
1.1733532
1.173154
1.1733167
1.1727322
1.172731
1.1723391
1.1723158
1.1726072
1.1723679
1.1720167
1.1725392
1.1728184
1.173061
1.1731233
1.1730075
1.173035
1.1731574
1.1729747
1.1729276
1.1728159
1.1726383
1.1722309
1.1721903
1.1720784
1.1721466
1.1724399
1.172495
1.1721467
1.1724314
1.1722862
1.172658
1.1724915
1.1724086
1.17178
1.1719579
1.1715141
1.1720552
1.1718093
1.1722465
1.1720931
1.1720986
1.1715625
1.1722547
1.1722075
1.1724982
1.1726847
1.1728782
1.1726737
1.1728597
1.1726672
1.172865
1.1728695
1.1729129
1.1727748
1.1729581
1.1729118
1.1727121
1.172689
1.1729002
1.1727307
1.1729283
1.1731069
1.1731177
1.1729452
1.1729941
1.1729092
1.1728444
1.1730438
1.1730224
1.1730438
1.1731364
1.1729644
1.1728251
1.1728079
1.1725861
1.1726354
1.1727507
1.1728163
1.1725732
1.1724837
1.172331
1.1724375
1.1727174
1.1728313
1.1725946
1.1727479
1.1725656
1.1728671
1.1730258
1.1732072
1.1730888
1.1728878
1.1728428
1.1730612
1.1731775
1.1729769
1.1728004
1.172602
1.1726561
1.172303
1.172183
1.1724334
1.1721833
1.1726817
1.1729103
1.1731453
1.1729998
1.1727245
1.1727072
1.1729944
1.1731439
1.1730435
1.1730622
1.1731175
1.1731542
1.1732906
1.173261
1.1731087
1.1730639
1.1732258
1.1732608
1.17323
1.1731866
1.1733078
1.1734855
1.1734503
1.1734123
1.1734203
1.1735026
1.1736184
1.1736175
1.1736466
1.1735133
1.1733805
1.1734813
1.1732943
1.1732835
1.1732676
1.1733469
1.1734506
1.1732758
1.1731347
1.1731598
1.1732074
1.1732554
1.1730978
1.1731824
1.1732271
1.1732976
1.1733626
1.1734176
1.173469
1.173467
1.1735769
1.1737026
1.1737445
1.1737721
1.1738119
1.173832
1.1738474
1.1738619
1.1738483
1.173831
1.1738351
1.1738139
1.1737691
1.1738102
1.1738034
1.1737421
1.1736913
1.1737555
1.1738064
1.1737276
1.1737519
1.1737662
1.1736813
1.1736791
1.1736768
1.173742
1.1737212
1.173763
1.1737604
1.1738276
1.1737833
1.1737924
1.1737315
1.1737111
1.1737957
1.1737925
1.1738259
1.1738085
1.1738157
1.173808
1.1738276
1.1738391
1.1738224
1.1737799
1.1738075
1.1738577
1.1738335
1.1738348
1.1737978
1.1738254
1.1738554
1.173869
1.1738687
1.1738201
1.173836
1.1738225
1.1738616
1.1738381
1.173839
1.173831
1.1738318
1.1738301
1.1738775
1.1738627
1.1738139
1.1737838
1.1737756
1.1738015
1.1738048
1.1737002
1.173791
1.1737708
1.1738053
1.1738118
1.1738132
1.1737652
1.1736956
1.1737552
1.1737536
1.1736889
1.17369
1.1736889
1.1737721
1.1737328
1.1737746
1.1737444
1.1737339
1.1737869
1.1738018
1.1738148
1.1738323
1.1737689
1.1737265
1.1737213
1.1736433
1.1735605
1.1736698
1.1736851
1.1735667
1.1735751
1.1735624
1.1736774
1.1736179
1.1736437
1.1736293
1.173597
1.173694
1.1737398
1.1736904
1.1737412
1.1736335
1.1735728
1.1737208
1.1735795
1.1735117
1.1736002
1.1735703
1.1735225
1.1734768
1.1734715
1.1736282
1.1735343
1.1735793
1.1736042
1.1736584
1.1736565
1.1737238
1.1735781
1.1734949
1.1736329
1.1737189
1.1737179
1.1736377
1.1735581
1.1736675
1.1736699
1.1735546
1.1735651
1.1735519
1.1736684
1.1736062
1.17363
1.1736226
1.1735914
1.1736896
1.1737325
1.1736759
1.1737224
1.1736113
1.1735724
1.1736969
1.1737216
1.1737356
1.1736568
1.1736459
1.1736114
1.1736277
1.1737115
1.1736704
1.1737376
1.1737504
1.1736354
1.1736802
1.1736322
1.1737189
1.1737297
1.1738344
1.1737199
1.1737777
1.1737931
1.1737225
1.1737761
1.1737494
1.1737024
1.1736975
1.1736332
1.1736528
1.1735662
1.1735985
1.1735094
1.1735131
1.1735588
1.1735239
1.1736236
1.1735697
1.1737176
1.1736302
1.1736434
1.1735902
1.1735662
1.1735228
1.1734893
1.1735283
1.1735313
1.1734095
1.1735287
1.1734766
1.1734118
1.17334
1.1733529
1.1735473
1.1734255
1.1734971
1.1735357
1.1736102
1.1736447
1.1736925
1.1736952
1.1737178
1.1736995
1.173642
1.1737276
1.1737916
1.1737637
1.173801
1.1737111
1.173644
1.173734
1.1738365
1.1737939
1.1737104
1.173765
1.1738353
1.1737761
1.1737924
1.1737906
1.1738492
1.1738274
1.1738254
1.1737825
1.1737315
1.1737194
1.1737482
1.173754
1.1738077
1.1736944
1.173609
1.1737071
1.1737985
1.173728
1.1738043
1.173874
1.1738445
1.1737981
1.1737847
1.1737824
1.1737892
1.173731
1.1738164
1.1737865
1.1738049
1.173802
1.1738305
1.1738372
1.1738109
1.1738221
1.1737866
1.1738248
1.1738105
1.1738313
1.1738079
1.1738433
1.1738405
1.1738603
1.1738615
1.1738188
1.1738131
1.1738393
1.1738174
1.1737951
1.1737689
1.1738356
1.1738623
1.1738704
1.1738783
1.1738519
1.1738485
1.1738522
1.1738041
1.1738636
1.17389
1.1738552
1.1738923
1.1738934
1.1738187
1.1738763
1.173877
1.1738855
1.1738954
1.1739062
1.1738594
1.1739284
1.1739358
1.1739106
1.1738277
1.1738774
1.1739029
1.1738758
1.1738882
1.1738262
1.1738541
1.17386
1.1738067
1.173838
1.1738888
1.1738464
1.1738838
1.1738093
1.1737902
1.1737584
1.1737596
1.1738427
1.1738153
1.1738231
1.1737591
1.1737785
1.1737703
1.1737335
1.1737154
1.1738022
1.1736828
1.1736772
1.1736793
1.1736602
1.1736858
1.1736518
1.1736743
1.1736995
1.1735627
1.1736306
1.1736326
1.1735289
1.1735314
1.1735737
1.173545
1.1735008
1.1734929
1.1734742
1.1735971
1.1735083
1.1734621
1.1734258
1.1734295
1.1735841
1.1734765
1.1735224
1.1735493
1.1735796
1.1736017
1.1735569
1.1735237
1.1734729
1.1734341
1.173488
1.1734258
1.1734779
1.1735279
1.1736002
1.1736185
1.1735986
1.1736339
1.1736079
1.1736527
1.1735272
1.1735084
1.1736678
1.1735873
1.173541
1.1735686
1.173495
1.1735315
1.1734889
1.1735668
1.1735283
1.173442
1.1733676
1.1734446
1.1733864
1.1733371
1.1734014
1.1733052
1.1733905
1.1734596
1.1734168
1.1734894
1.1734803
1.1736447
1.1736943
1.1737167
1.1737931
1.1736858
1.1737017
1.1737826
1.1737978
1.1737962
1.1737688
1.1737721
1.1736789
1.1736863
1.1735939
1.1736126
1.1735767
1.1735509
1.1736249
1.1737154
1.173726
1.1735803
1.1736168
1.1736089
1.1736519
1.1737684
1.1737251
1.1737369
1.1737316
1.1736761
1.173652
1.1737199
1.1737221
1.173729
1.1737396
1.1737842
1.1737929
1.1738696
1.1737784
1.1738132
1.1738327
1.1738387
1.1737917
1.1737179
1.1737055
1.1736
1.1736142
1.1736861
1.1735058
1.1735507
1.1733564
1.1734086
1.1734047
1.1734666
1.1734186
1.173336
1.1732613
1.1733214
1.1734255
1.1733647
1.1732654
1.1731605
1.1732774
1.1733578
1.173452
1.1734691
1.1735056
1.1736852
1.1736162
1.1735912
1.1735658
1.1735789
1.1735562
1.1735797
1.1735959
1.1736579
1.1737283
1.17374
1.1738037
1.1736676
1.1736545
1.1736518
1.173634
1.1736705
1.173804
1.1737071
1.1737421
1.1736727
1.1736662
1.1737514
1.1738167
1.1737975
1.1738494
1.1737931
1.1738954
1.1738212
1.1737867
1.1738167
1.1738943
1.1738679
1.1738061
1.1737843
1.1737875
1.1737814
1.1737632
1.1737712
1.1737151
1.173776
1.1738117
1.173816
1.1738263
1.1737497
1.173772
1.1737692
1.1738222
1.1738119
1.173836
1.1738429
1.1737828
1.173719
1.1736403
1.1736581
1.1736413
1.1735678
1.173483
1.1734174
1.1733448
1.1732609
1.1733535
1.1732697
1.1733586
1.1732792
1.1731678
1.1730695
1.1731756
1.1732934
1.1732059
1.1730579
1.1729284
1.1727502
1.1725167
1.1727882
1.1726117
1.17226
1.1722525
1.1724471
1.1721138
1.1724427
1.1724795
1.1726725
1.1727327
1.1728303
1.172669
1.1728282
1.1726799
1.1725084
1.1726913
1.1724727
1.1727092
1.172847
1.1732717
1.1729731
1.1728387
1.1729749
1.1726921
1.1727986
1.1726957
1.1725766
1.172469
1.1726819
1.1730875
1.1725115
1.1727145
1.1726177
1.1727681
1.1730074
1.1725153
1.1727349
1.1724377
1.172365
1.1724066
1.1721666
1.1723212
1.1725014
1.1726543
1.1724083
1.1722677
1.1720773
1.1722075
1.1724822
1.1722966
1.1725034
1.172235
1.1720905
1.172346
1.1725815
1.1723531
1.1721949
1.1718154
1.1719023
1.1717994
1.1717463
1.1721139
1.1716558
1.1716943
1.1718793
1.1721739
1.1724123
1.1722085
1.1718515
1.1722164
1.1727593
1.1716482
1.1719431
1.171284
1.1718371
1.1715335
1.1710925
1.1710504
1.1711829
1.172535
1.1718351
1.1730897
1.1720248
1.1715467
1.1715307
1.1720094
1.1727207
1.1722343
1.1726797
1.17312
1.172783
1.1733114
1.1725304
1.1722823
1.1719639
1.172351
1.1727822
1.1717789
1.1720071
1.1716978
1.1720781
1.1720105
1.1716162
1.1712784
1.1715943
1.172595
1.1719825
1.1731917
1.1719771
1.1724989
1.1728469
1.1728348
1.1730945
1.1732377
1.1731368
1.1728938
1.1726421
1.1723722
1.172402
1.1717725
1.1716905
1.1720954
1.1724507
1.1724179
1.1732635
1.1731026
1.17309
1.1730627
1.1732156
1.1733418
1.1734164
1.1734934
1.1734794
1.1734797
1.1736647
1.1735791
1.1734878
1.1734067
1.1734096
1.17337
1.1735037
1.1735056
1.1735307
1.1735105
1.1735457
1.1736873
1.1736823
1.1737155
1.1737008
1.1737369
1.1737343
1.1737226
1.1736467
1.173503
1.1735139
1.1736497
1.173623
1.173511
1.1735359
1.1736245
1.1736826
1.1735636
1.173589
1.1737121
1.1737278
1.1737123
1.173745
1.1738099
1.1737498
1.1736604
1.1736551
1.1736814
1.1736585
1.1735427
1.1735784
1.1735683
1.1736077
1.1736237
1.1737083
1.1737562
1.1737134
1.173759
1.1738033
1.1737478
1.1737911
1.1738389
1.1737473
1.1737785
1.173685
1.1736995
1.1736919
1.1737598
1.1738413
1.1737323
1.1738269
1.1737311
1.1737918
1.173547
1.173601
1.173656
1.1737287
1.1737411
1.173667
1.173604
1.1736115
1.1735262
1.1736458
1.1737453
1.1733497
1.1734301
1.1735151
1.1736321
1.1737825
1.1736632
1.1737863
1.1738345
1.173806
1.1738271
1.1738852
1.1738233
1.1737823
1.1737899
1.173782
1.1737217
1.1736994
1.1737297
1.1736936
1.1736198
1.1736691
1.1736118
1.1736472
1.1736483
1.1736452
1.1736025
1.1736887
1.1735947
1.1736685
1.1735974
1.1736719
1.1736335
1.1735602
1.1734893
1.1734565
1.1734948
1.1734865
1.1735952
1.1735438
1.1735298
1.1734908
1.1733737
1.1733677
1.1732701
1.1732753
1.1733531
1.1732174
1.1731282
1.1731221
1.1732098
1.1733471
1.1734076
1.1735495
1.1735543
1.1733233
1.1733246
1.1733285
1.1733346
1.1734085
1.173523
1.1732796
1.1733448
1.1735405
1.1734076
1.1733267
1.1732253
1.1732116
1.1733448
1.1734059
1.1734159
1.1733829
1.1732892
1.1732779
1.1731401
1.173154
1.1730777
1.1730548
1.1730258
1.1730264
1.1732044
1.1732155
1.1731701
1.1732939
1.1732842
1.1734586
1.173459
1.1734208
1.1733092
1.17331
1.1732849
1.1732584
1.1732566
1.1733538
1.173457
1.1732634
1.1732681
1.1734546
1.1733528
1.1733509
1.1734532
1.1734088
1.173319
1.1732989
1.1733158
1.1734883
1.1734437