/*--------------------------------*- C++ -*----------------------------------*\
  =========                 |
  \\      /  F ield         | OpenFOAM: The Open Source CFD Toolbox
   \\    /   O peration     | Website:  https://openfoam.org
    \\  /    A nd           | Version:  7
     \\/     M anipulation  |
\*---------------------------------------------------------------------------*/
FoamFile
{
    version     2.0;
    format      ascii;
    class       volScalarField;
    location    "230";
    object      nut;
}
// * * * * * * * * * * * * * * * * * * * * * * * * * * * * * * * * * * * * * //

dimensions      [0 2 -1 0 0 0 0];

internalField   nonuniform List<scalar> 
24866
(
7.9871355
7.9939631
7.9907857
8.1778771
8.34244
8.3402624
8.336201
8.3404646
8.3397338
8.3348703
8.3351306
8.3351673
8.3348938
8.3397677
8.3405475
8.3361861
8.3400876
8.3413815
8.3405199
8.335994
8.3259471
8.340359
8.3708345
8.3582262
8.3324997
8.3285499
8.3363989
8.3604137
8.3556675
8.3291457
8.3383246
8.3413921
8.3413931
8.3383329
8.3291933
8.355715
8.3605212
8.3364912
8.3284418
8.3323263
8.358159
8.3707893
8.3403494
8.3259497
8.3360188
8.3405699
8.3414015
8.3401627
8.3361954
8.3404709
8.3398509
8.3349902
8.335128
8.3351426
8.3349533
8.3397322
8.3403457
8.3360847
8.3402264
8.3424874
8.3463461
8.3431123
8.3463375
8.3430537
8.3368247
8.3395651
8.3453971
8.3420151
8.334427
8.3344147
8.3344391
8.3344308
8.3420668
8.3454462
8.3395725
8.3366941
8.3425454
8.3453011
8.3417844
8.342912
8.337668
8.3299889
8.3283386
8.33909
8.3427738
8.3480367
8.3326385
8.328703
8.3364108
8.3485094
8.3426931
8.3379986
8.3369822
8.3377791
8.3361347
8.3335112
8.3360501
8.3350034
8.3385973
8.3361764
8.3339798
8.3336445
8.3336961
8.3343288
8.3350399
8.3350421
8.3348628
8.3377238
8.336793
8.3364936
8.3331123
8.3401472
8.3441446
8.3419295
8.3378152
8.3354802
8.3346241
8.3341175
8.3344671
8.3347832
8.3347132
8.3341972
8.3345921
8.3338336
8.3333659
8.3340015
8.3360048
8.3335509
8.332843
8.3330735
8.3339658
8.3348381
8.3353571
8.3351047
8.3351934
8.3348855
8.3344706
8.3348677
8.3346264
8.3367969
8.3378182
8.3331203
8.3401505
8.3441465
8.2387928
8.2354673
8.1650566
8.1703747
8.1771268
8.1771236
8.1703663
8.1680425
8.1366847
8.2614392
8.2641287
8.1430927
8.1679657
8.1698923
8.1639898
8.1380045
8.0966436
8.1118258
8.157695
8.1688359
8.1759798
8.1755516
8.1747241
8.172708
8.1718563
8.1691773
8.1670743
8.1591506
8.1591111
8.1670622
8.1690821
8.1715924
8.1731114
8.1744523
8.1675744
8.1752216
8.2404414
8.238721
8.1677431
8.103295
8.1763665
8.1780563
8.1699248
8.3391133
8.3357885
8.3391203
8.336225
8.3339466
8.3359588
8.333528
8.3328141
8.3330321
8.333902
8.334748
8.3352506
8.3353619
8.3354649
8.3351981
8.3347911
8.335051
8.33699
8.3377288
8.3427039
8.336504
8.1702162
8.1797998
8.2019915
8.2614965
8.1366384
8.1680224
8.0008546
7.9886461
7.9903557
7.9903519
7.9886381
8.0008641
7.9665347
7.9658603
7.9851511
8.0061589
7.9844737
7.9615816
7.9478302
7.9643314
7.9899558
7.9881485
7.9893655
7.9881994
7.9941961
8.0056311
7.9885322
7.986022
8.0009508
7.9921028
7.9921617
8.0010426
7.9859979
7.98828
8.006085
7.8414166
7.8316428
7.8254414
7.8256755
7.8313787
7.9936716
8.1741974
8.1732224
8.1714279
8.1691631
8.1670555
8.1591279
8.1591318
8.167194
8.1689371
8.1719934
8.1727216
8.1749448
8.1754874
8.1761251
8.1688124
8.1577348
8.1118735
8.2303159
8.2760796
8.2633094
8.1381029
8.1641246
8.1699918
8.1678302
8.1428759
8.2641617
8.2086385
8.1431594
8.1401221
8.1017471
8.1681591
8.1637739
8.19572
8.234489
8.3485552
8.3364455
8.3286825
8.3380038
8.3427635
8.337788
8.3350531
8.334726
8.3351142
8.3346056
8.3348465
8.3347517
8.3343156
8.333669
8.3332815
8.3340405
8.333503
8.3336716
8.3339088
8.3339768
8.3338497
8.3336654
8.3342145
8.3343471
8.3361493
8.3390853
8.3283483
8.3335361
8.3337205
8.335032
8.3340041
8.3333832
8.3330863
8.3330418
8.3332864
8.3340402
8.3362193
8.3339545
8.3328266
8.3328582
8.3340185
8.3362044
8.3386353
8.3418123
8.3360815
8.3300213
8.3377099
8.3429501
8.2372555
8.172398
8.1621117
8.2333943
8.1640301
8.1730706
8.0994356
7.9851884
7.9881126
7.9900028
7.9643728
7.9478596
8.0967939
8.1228754
8.1330299
8.1837903
8.1918783
8.2021104
8.1662845
8.0995572
8.1359747
7.9686188
7.9616076
7.9844899
8.0061798
7.9851343
7.9658567
7.9665531
7.8123591
7.8362577
7.8261058
7.8251504
7.8251473
7.8261008
7.8362683
7.8123483
7.8073367
7.8213869
7.8439421
7.8209394
7.8017341
7.7997499
7.8185988
7.8287092
7.8253445
7.8239421
7.8231551
7.8317996
7.8409837
7.8266018
7.8238704
7.8402486
7.8349076
7.834874
7.8402674
7.8239005
7.8264247
7.6804907
7.6913916
7.6851707
7.6789085
7.6790876
7.6849521
7.6915054
7.8415517
8.0062139
7.9881281
7.9861448
8.0008613
7.9921125
7.9922198
8.0011117
7.9859166
7.9887353
8.0055499
7.9944495
7.9881209
7.9895322
7.8240787
7.8253024
7.8287508
7.8186434
7.7997688
7.8017598
7.8209729
7.8439751
7.8213521
7.8073114
7.665686
7.6713635
7.6867357
7.6799577
7.6785364
7.6785334
7.6799542
7.6867445
7.6713547
7.6657077
7.6753453
7.6955553
7.6744096
7.6588499
7.6621461
7.67966
7.6816203
7.6790451
7.6772074
7.6768553
7.6851404
7.690964
7.6805899
7.6782802
7.6919812
7.6886769
7.6886986
7.6920764
7.6783483
7.5459959
7.5475968
7.5548583
7.5515297
7.5460852
7.5462144
7.5513579
7.5549436
7.5474833
7.546007
7.6784075
7.8240041
7.8401369
7.8349278
7.8349405
7.8402851
7.823825
7.8268322
7.8408866
7.8320262
7.8230824
7.6767964
7.6773082
7.6790029
7.6816514
7.6797006
7.6621545
7.6588693
7.6744438
7.6955893
7.6753131
7.543017
7.5364759
7.5417794
7.5509677
7.5469089
7.5455847
7.5455814
7.5469061
7.5509741
7.541773
7.536495
7.5430454
7.5598193
7.5414261
7.5289905
7.5346254
7.549888
7.5477606
7.5459216
7.544237
7.544187
7.5512968
7.5544261
7.5476167
7.5458874
7.5563426
7.5543959
7.5544448
7.5564816
7.4331725
7.4255228
7.4266071
7.4311115
7.429745
7.4253979
7.4254874
7.4296128
7.4311688
7.4265022
7.4254883
7.4329223
7.5562456
7.6918766
7.688702
7.6887617
7.6920583
7.6782805
7.6808192
7.6908764
7.6853236
7.5514381
7.5441421
7.544306
7.5458819
7.5477813
7.549922
7.5346282
7.5290052
7.5414596
7.5598523
7.4362391
7.4229309
7.4185055
7.423027
7.4280218
7.4258166
7.4247977
7.4247942
7.425814
7.4280258
7.4230227
7.4185223
7.422955
7.4362082
7.4207
7.4109343
7.4173039
7.430155
7.426245
7.424849
7.4234798
7.4236086
7.4293337
7.430665
7.4265533
7.4253824
7.4330063
7.4319456
7.4320117
7.3205081
7.3211462
7.3157102
7.3163626
7.3189333
7.3187845
7.3155262
7.3155863
7.3186829
7.3189664
7.3162627
7.3156381
7.3208941
7.3204406
7.43196
7.5544179
7.5544963
7.5564468
7.5459287
7.5478342
7.5543637
7.4306298
7.4294413
7.4235752
7.423524
7.4248129
7.4262569
7.4301818
7.4173035
7.4109456
7.4207317
7.3109786
7.3238279
7.3136707
7.3106944
7.314317
7.3165767
7.3155376
7.3148692
7.3148658
7.3155348
7.3165785
7.3143144
7.3107091
7.3136907
7.3237997
7.3109492
7.3033944
7.3096977
7.320294
7.3158124
7.314648
7.3136002
7.3138186
7.3182272
7.3184652
7.3162418
7.3155439
7.3209636
7.320432
7.2184993
7.2185802
7.2189362
7.2151394
7.2154514
7.2167284
7.2172842
7.214979
7.2150182
7.2172049
7.2167415
7.2153536
7.2150385
7.2186887
7.2185038
7.2185989
7.3205349
7.4320492
7.4331285
7.4254576
7.4267569
7.316432
7.3184546
7.3183098
7.3137944
7.3136263
7.3146153
7.3158172
7.3203138
7.3096956
7.3034032
7.2049104
7.210695
7.2212486
7.2137116
7.2117294
7.2144815
7.2150073
7.2146572
7.2143052
7.2143019
7.2146542
7.2150074
7.21448
7.2117422
7.2137279
7.2212231
7.2106681
7.2049032
7.2107798
7.2193966
7.2149327
7.2138756
7.213093
7.2133396
7.2166124
7.2162345
7.2152704
7.2149511
7.2187441
7.1248397
7.1247333
7.1248172
7.125039
7.1224189
7.1224711
7.1229142
7.1238381
7.1223111
7.1223357
7.1237746
7.1229113
7.1223733
7.1222967
7.1247986
7.1247349
7.1248279
7.1249831
7.2188834
7.3210967
7.315646
7.215073
7.2154492
7.2162445
7.2166776
7.2133224
7.2131063
7.213846
7.214932
7.2194103
7.2107767
7.1193605
7.1140599
7.118414
7.1270466
7.1216012
7.1202991
7.1222734
7.1217324
7.1217551
7.1216542
7.1216511
7.1217518
7.1217312
7.1222727
7.1203102
7.1216142
7.1270237
7.1183895
7.1140541
7.1193643
7.1262993
7.1221163
7.1210952
7.1205037
7.1207368
7.123081
7.1223935
7.1222369
7.1222104
7.0361391
7.0379566
7.0379042
7.0379896
7.0381611
7.0363662
7.0362262
7.0361544
7.0372298
7.0363086
7.0363231
7.0371772
7.0361386
7.036127
7.0362287
7.037929
7.0379037
7.0379928
7.0381019
7.0362847
7.1223465
7.1224063
7.12242
7.1231345
7.1207248
7.1205085
7.121068
7.1221113
7.1263077
7.0399122
7.034371
7.0296697
7.0328923
7.0399425
7.0361226
7.0352806
7.0365938
7.035425
7.0356153
7.035695
7.0356921
7.0356118
7.0354227
7.0365936
7.0352902
7.0361329
7.039922
7.0328702
7.0296649
7.0343752
7.0399082
7.0361063
7.0350799
7.0346099
7.0348023
7.0364127
7.0356085
7.0359459
6.9554525
6.9558048
6.9570698
6.9570284
6.9571144
6.9572782
6.9560491
6.9557723
6.9554025
6.9564928
6.9560253
6.9560328
6.9564475
6.9553763
6.9556711
6.9559011
6.957055
6.9570266
6.9571108
6.9572155
6.9559564
6.9556079
7.0361076
7.035648
7.0364586
7.0347941
7.0346088
7.0350546
7.0360981
6.9559051
6.9593156
6.9549311
6.9508126
6.9531483
6.9589053
6.9563231
6.9557862
6.9565579
6.9550487
6.955277
6.9554735
6.9554708
6.9552733
6.9550457
6.9565578
6.9557943
6.9563311
6.958887
6.9531285
6.9508086
6.9549358
6.9593153
6.955916
6.954861
6.9544556
6.9545915
6.9556369
6.9548342
6.8792685
6.8800259
6.880488
6.8813873
6.8813389
6.8814249
6.8815987
6.8807479
6.8803791
6.8798557
6.8808782
6.8807381
6.8807407
6.8808377
6.8798212
6.8802756
6.8805931
6.8813845
6.8813366
6.8814151
6.8815321
6.8806429
6.880176
6.8793256
6.9548836
6.955678
6.9545862
6.9544505
6.9548371
6.8796686
6.8807736
6.8837961
6.8803536
6.8767776
6.8784247
6.883129
6.8814723
6.8811311
6.8814734
6.8798104
6.8799984
6.8802594
6.8802569
6.8799946
6.879807
6.8814735
6.8811381
6.8814785
6.8831126
6.878407
6.8767744
6.8803588
6.883799
6.8807867
6.8796916
6.8793089
6.8793809
6.8800004
6.8089119
6.8082877
6.8090918
6.8096247
6.8102905
6.8102309
6.8103165
6.810504
6.8098989
6.8094731
6.8088901
6.8097985
6.8098849
6.8098841
6.8097608
6.8088487
6.8093674
6.8097402
6.8102988
6.8102287
6.8103013
6.8104332
6.8097808
6.8092373
6.8083504
6.8089485
6.8800387
6.8793776
6.8793011
6.8085907
6.8089666
6.810113
6.812779
6.810097
6.8070137
6.8081311
6.8119799
6.811003
6.8107813
6.8107934
6.8090957
6.8091996
6.8094853
6.8094829
6.8091958
6.8090919
6.8107935
6.8107872
6.8110078
6.8119655
6.8081155
6.8070115
6.8101029
6.8127847
6.8101279
6.808989
6.8086003
6.8086069
6.7418145
6.7418917
6.741391
6.7421839
6.7427576
6.7432808
6.743213
6.7432979
6.743496
6.7430444
6.7425884
6.7420049
6.7427767
6.7430122
6.7430089
6.7427407
6.741958
6.7424809
6.7428839
6.7432996
6.7432114
6.7432778
6.7434205
6.7429133
6.7423253
6.7414578
6.7419273
6.7418139
6.8086052
6.8121366
6.8152417
6.8122235
6.8130574
6.8147601
6.813729
6.8142662
6.8147166
6.8154301
6.8155022
6.8141417
6.7470974
6.7443048
6.7440708
6.7424123
6.7424115
6.7426934
6.7426912
6.7424078
6.7424087
6.7440713
6.7443103
6.7444634
6.7449345
6.7417799
6.7410782
6.7437296
6.745803
6.7434648
6.7422835
6.7418711
6.6787364
6.6786211
6.6785367
6.6781621
6.6789092
6.6795014
6.6799432
6.6798727
6.6799567
6.6801594
6.6797988
6.6793324
6.6787837
6.6794118
6.6797384
6.6797336
6.6793769
6.6787325
6.6792235
6.6796384
6.6799715
6.6798719
6.6799324
6.6800793
6.6796553
6.6790466
6.6782317
6.6785718
6.6786213
6.6787242
6.7418601
6.7422612
6.7434481
6.7457946
6.7437226
6.7410791
6.7417931
6.7449467
6.7444591
6.6814605
6.6813386
6.6809275
6.6793521
6.6792406
6.6794998
6.679498
6.6792376
6.6793496
6.6809294
6.6813452
6.6814659
6.6815953
6.6790068
6.6786076
6.6808709
6.6824585
6.6804017
6.6791822
6.6193454
6.6188622
6.6186939
6.6184972
6.6182437
6.618926
6.6195203
6.6199212
6.6198542
6.6199371
6.6201377
6.6198264
6.6193637
6.6188696
6.6193561
6.6197316
6.6197254
6.6193218
6.6188149
6.6192539
6.6196674
6.6199581
6.6198544
6.6199091
6.6200529
6.6196712
6.6190594
6.6183149
6.6185316
6.6186941
6.6188482
6.6193208
6.6791595
6.6803828
6.6824468
6.6808613
6.6786058
6.679016
6.6816038
6.6215864
6.621678
6.6215655
6.6210327
6.6195646
6.6193452
6.6195705
6.6195694
6.6193443
6.6195653
6.6210389
6.6215771
6.621689
6.6215859
6.619459
6.6192844
6.6212074
6.6224085
6.6205981
6.5637507
6.5624691
6.5619479
6.5617323
6.5614594
6.5613185
6.5619264
6.5625111
6.5628975
6.5628402
6.5629218
6.5631136
6.5628238
6.5623747
6.5619448
6.5622962
6.5626909
6.5626839
6.5622623
6.5618876
6.5622648
6.5626675
6.5629423
6.5628414
6.5628905
6.5630244
6.5626579
6.5620554
6.5613898
6.5614921
6.5617307
6.56193
6.562439
6.563719
6.6205751
6.622391
6.621192
6.6192758
6.6194601
6.5628224
6.564571
6.5648154
6.5646973
6.5640865
6.5627378
6.5624179
6.5626044
6.562605
6.5624222
6.562747
6.5641046
6.5647234
6.5648427
6.5645894
6.5628401
6.5628284
6.5644536
6.5653471
6.5109912
6.5095788
6.5082688
6.5077101
6.507452
6.5071283
6.5070913
6.5076209
6.5081873
6.5085775
6.5085357
6.5086159
6.5087926
6.5085048
6.5080759
6.5077142
6.5079379
6.5083313
6.5083237
6.5079043
6.5076553
6.5079667
6.508352
6.5086293
6.5085381
6.5085817
6.5086991
6.5083293
6.507745
6.5071612
6.5071578
6.5074457
6.5076837
6.5082258
6.5095276
6.5109337
6.5653172
6.5644234
6.5628031
6.5089175
6.5088193
6.5102573
6.5105933
6.5104586
6.5098046
6.5085807
6.5081691
6.5083167
6.5083215
6.5081859
6.5086103
6.5098517
6.5105212
6.510661
6.5103194
6.5088799
6.5089819
6.5103439
6.4586253
6.4590706
6.4578126
6.4564672
6.45587
6.4555719
6.455214
6.4552746
6.4557245
6.4562659
6.4566743
6.4566541
6.4567328
6.4568878
6.4565862
6.4561826
6.45589
6.4559904
6.4563689
6.456361
6.4559572
6.4558302
6.4560748
6.4564377
6.4567324
6.4566578
6.4566961
6.4567903
6.4564025
6.4558432
6.4553414
6.4552373
6.4555552
6.4558255
6.4563957
6.4577193
6.4589535
6.4584839
6.5102791
6.5127549
6.5134137
6.5137594
6.5142684
6.5140374
6.5125301
6.4607088
6.4585742
6.457905
6.4568085
6.4563127
6.4564262
6.4564399
6.4563574
6.4568837
6.4580171
6.4587191
6.4588939
6.4585123
6.4573277
6.4575021
6.4081629
6.409058
6.4093274
6.40819
6.4067895
6.4061471
6.4058072
6.4054244
6.4055814
6.4059508
6.406462
6.4069036
6.4069125
6.4069896
6.4071152
6.4067838
6.4064089
6.406185
6.4061606
6.406515
6.4065068
6.4061279
6.4061249
6.4063031
6.4066401
6.4069676
6.4069176
6.406951
6.4070143
6.4065932
6.4060638
6.405643
6.4054369
6.4057701
6.406067
6.4066602
6.4080117
6.4090892
6.4087597
6.4078343
6.457351
6.4571729
6.4583539
6.4587351
6.4089635
6.4087643
6.4081027
6.407136
6.4065596
6.406648
6.4066801
6.4066613
6.4073045
6.4083485
6.409079
6.4093095
6.4089286
6.4079541
6.3605698
6.3607746
6.3614345
6.3615316
6.3604711
6.3589763
6.3582713
6.3578813
6.3574767
6.3577358
6.3580233
6.3585013
6.3589953
6.3590422
6.3591175
6.3592044
6.3588237
6.3584794
6.3583238
6.3581645
6.3584873
6.358479
6.3581321
6.3582635
6.3583757
6.3586852
6.3590648
6.3590495
6.3590782
6.3591008
6.3586273
6.3581305
6.35779
6.3574716
6.3578081
6.3581265
6.3587393
6.3601332
6.3610652
6.3608393
6.3601103
6.3598605
6.4076071
6.4085738
6.3606463
6.3610134
6.3607588
6.3601225
6.3592891
6.3586296
6.3587057
6.3587722
6.3588383
6.3596328
6.3606206
6.3613946
6.3617132
6.361371
6.3157266
6.3150685
6.3152283
6.315627
6.3155274
6.3144809
6.3128291
6.3120285
6.3115713
6.3111433
6.3115167
6.3117213
6.3121664
6.3127362
6.3128333
6.3129074
6.3129443
6.3124905
6.3121758
6.3120875
6.3117755
6.3120593
6.3120509
6.3117431
6.3120267
6.3120739
6.3123568
6.3128119
6.3128431
6.3128673
6.3128376
6.3122882
6.3118236
6.3115618
6.3111127
6.3114413
6.3117772
6.3124097
6.313869
6.3146656
6.3145151
6.3139806
6.3137319
6.3143633
6.3146802
6.3143473
6.3137476
6.31305
6.3122986
6.3123773
6.3125024
6.3126891
6.3136935
6.3146806
6.3155383
6.3159917
6.2721991
6.2720494
6.2715092
6.2715829
6.2716802
6.2713254
6.2701963
6.2683039
6.267358
6.2668075
6.2663537
6.2668532
6.2669806
6.2674001
6.2680687
6.2682284
6.2683026
6.2682791
6.26773
6.2674384
6.2674114
6.2669307
6.2671669
6.267158
6.2668974
6.2673492
6.2673371
6.2675997
6.268152
6.2682402
6.2682599
6.2681674
6.2675198
6.2670806
6.2668905
6.266293
6.2666012
6.2669525
6.2676095
6.269159
6.2698376
6.2697463
6.2694062
6.2691759
6.2696733
6.2699181
6.2694849
6.2689225
6.268355
6.2675022
6.2675949
6.2678096
6.2681676
6.2694617
6.2705401
6.2715537
6.2297939
6.230686
6.2306764
6.230233
6.2301933
6.2299509
6.229231
6.2278622
6.2256374
6.224485
6.2238158
6.2233388
6.2239589
6.2240387
6.2244542
6.2252281
6.2254547
6.2255311
6.2254467
6.2247985
6.2245123
6.2245211
6.2238794
6.2240614
6.2240518
6.2238441
6.2244557
6.2244095
6.224669
6.2253221
6.2254688
6.2254839
6.2253263
6.2245759
6.224143
6.2239967
6.2232556
6.2235316
6.2238957
6.2245868
6.2262361
6.2268431
6.2268195
6.2266532
6.2264357
6.2268119
6.2269766
6.2264407
6.2258988
6.2254279
6.2244768
6.2245851
6.2249157
6.2255042
6.2271771
6.2285014
6.1892355
6.1910349
6.1922091
6.1923225
6.1919557
6.1918181
6.1912208
6.189922
6.1880216
6.185374
6.1839656
6.1831736
6.1826792
6.1833636
6.1834943
6.1839518
6.1847921
6.1850841
6.1851666
6.1850281
6.1843233
6.1840029
6.1839594
6.1832292
6.1833665
6.1833558
6.1831905
6.1838888
6.1838961
6.1841902
6.1849009
6.1851025
6.1851143
6.1848952
6.1840832
6.1836146
6.1834211
6.1826045
6.1828523
6.183227
6.1839536
6.1856675
6.1863501
6.186447
6.1863645
6.1860884
6.1863501
6.1864528
6.1858663
6.1852944
6.1848066
6.1838048
6.1839209
6.1843688
6.185233
6.1873748
6.1506033
6.1536637
6.1563875
6.1578119
6.1579527
6.157648
6.1575093
6.1566014
6.154323
6.1512358
6.1480719
6.146417
6.1455385
6.1450136
6.1455368
6.1460562
6.1466138
6.1473574
6.147818
6.1479233
6.1476337
6.1470235
6.1466159
6.1461998
6.1456331
6.1457818
6.1457694
6.1455896
6.1461222
6.1465038
6.1468824
6.1474847
6.1478424
6.1478658
6.1474863
6.1467633
6.1462059
6.1456443
6.1450047
6.1452799
6.1456647
6.1463973
6.1480039
6.1492408
6.1495387
6.1492804
6.1487487
6.1489866
6.1490123
6.1485478
6.1478392
6.1469616
6.1461227
6.1462543
6.1467771
6.1479007
6.1136913
6.116841
6.1228393
6.1274436
6.1286248
6.1285281
6.1282892
6.1284216
6.1277019
6.1234819
6.1174786
6.1138889
6.1122162
6.1113331
6.1106921
6.110451
6.1123009
6.1129797
6.1132445
6.1142704
6.1143585
6.1135258
6.1134277
6.11291
6.1111962
6.1113986
6.1117064
6.111693
6.1113507
6.1111108
6.1127906
6.113279
6.1133915
6.1142999
6.1142971
6.1133611
6.11315
6.1124886
6.1106386
6.1108052
6.1112599
6.1116791
6.1122868
6.1134086
6.1166419
6.116907
6.1156769
6.1147497
6.1154476
6.1149562
6.1148778
6.1140137
6.1118788
6.1117769
6.1120187
6.1125225
6.0862928
6.0865056
6.0889187
6.0979472
6.1057818
6.1057364
6.1054469
6.1052288
6.1056266
6.1061028
6.0985894
6.0896122
6.0867654
6.0861157
6.0852003
6.0840598
6.0838611
6.0848404
6.0855472
6.0855169
6.0852316
6.0853414
6.0858343
6.0860272
6.0854825
6.084668
6.0848332
6.085668
6.0856552
6.0847745
6.0845639
6.0853445
6.085886
6.0856689
6.0852686
6.0852829
6.0856568
6.0857604
6.08507
6.0840962
6.0842921
6.0852808
6.0859275
6.0859842
6.0877415
6.0932868
6.0945319
6.0900163
6.0876395
6.0868849
6.0873288
6.0874656
6.0865321
6.0853039
6.085071
6.0858582
6.064591
6.0648611
6.0655408
6.0673687
6.0659159
6.0663019
6.0667937
6.0665893
6.0665588
6.0663766
6.068129
6.0658506
6.0647788
6.063951
6.0633691
6.0644574
6.0634716
6.06405
6.0654973
6.0650658
6.0651849
6.065824
6.0645283
6.0641453
6.065293
6.0642326
6.0645466
6.0645296
6.0641663
6.0651966
6.0639987
6.0643687
6.0656559
6.0651012
6.0651233
6.0656404
6.0642451
6.0637494
6.0647463
6.0637298
6.0642661
6.0650112
6.0658079
6.0679646
6.0645144
6.0641711
6.0683937
6.0682744
6.0671306
6.0674491
6.0660553
6.0651612
6.0658989
6.064345
6.0621298
6.0613199
6.0685945
6.0776068
6.0853477
6.0916845
6.0917257
6.0914083
6.090418
6.085113
6.0783365
6.0687436
6.0612018
6.061986
6.0685124
6.0780643
6.0896808
6.1003504
6.0993726
6.0817825
6.0814147
6.0994723
6.1005476
6.0891413
6.077781
6.0700396
6.0637374
6.0615954
6.0732723
6.0745125
6.0854193
6.0860718
6.0979402
6.0850174
6.0840804
6.0903377
6.0846877
6.0970781
6.0844532
6.0728842
6.0729966
6.0837432
6.0836686
6.0889137
6.0687386
6.0719234
6.0778015
6.07906
6.0789965
6.0752879
6.0723941
6.070265
6.0635304
6.0620142
6.073339
6.073703
6.0844496
6.097146
6.0840278
6.0848163
6.0850213
6.0900127
6.0937635
6.0911918
6.1026061
6.0940678
6.0944461
6.0909329
6.0856278
6.0799821
6.0794343
6.0856658
6.0912404
6.0898203
6.1032948
6.0917879
6.0892919
6.0806399
6.0665169
6.0707279
6.0707006
6.0694838
6.0633004
6.0630843
6.0743787
6.0853934
6.086688
6.1001529
6.0862922
6.0746182
6.0857653
6.0904432
6.118925
6.1186967
6.1225056
6.1163641
6.1151246
6.1186572
6.116194
6.1507169
6.1886693
6.1940052
6.1878997
6.1497006
6.1551299
6.1652697
6.1527272
6.191405
6.1970864
6.1898439
6.1521461
6.1540054
6.1920295
6.1928373
6.1547998
6.1203295
6.0911621
6.1003681
6.097944
6.093406
6.1075818
6.0970973
6.1271406
6.1399376
6.1490073
6.1278833
6.131245
6.1506822
6.1158886
6.1150981
6.1230779
6.1247148
6.1111128
6.0977564
6.0912151
6.1198448
6.1281757
6.1411709
6.1275857
6.126591
6.1011583
6.0854428
6.0845627
6.0845953
6.0843844
6.0846541
6.0858922
6.1015819
6.10222
6.1022695
6.1023904
6.1021816
6.1289548
6.1295499
6.1353466
6.1333862
6.0991739
6.0754979
6.0890445
6.0983137
6.0562786
5.997866
5.9885777
5.9888391
5.9984216
6.0567848
6.0677656
6.0966649
6.1008705
6.1015104
6.0977958
6.0702397
6.059717
6.0012905
5.9921633
5.9922075
6.0013781
6.0599541
6.0705983
6.0986219
6.1025425
6.1025638
6.1018429
6.0867381
6.072603
6.0625021
6.0625518
6.069079
6.0705605
6.0705633
6.0690252
6.0624187
6.0623326
6.0723837
6.0865349
6.1016326
6.1019118
6.1015037
6.0972333
6.0675813
6.0560765
5.9948334
5.9848516
5.9841201
5.9938975
6.0556176
6.0671919
6.0967803
6.1008587
6.1003939
6.0960623
6.0672513
6.0408141
6.01898
5.9470293
5.788165
5.5993015
5.4840298
5.4852917
5.6021611
5.7916291
5.9492813
6.0206402
6.0428613
6.0707899
6.1021347
6.0942727
6.0793372
6.0817034
6.0957974
6.085896
6.0029161
6.0603611
6.0238326
5.9778286
5.7952456
5.6443669
5.5295936
5.3674555
5.264521
5.1583062
5.1175847
5.1169918
5.1569234
5.2621621
5.364076
5.5252524
5.640571
5.7903341
5.5262738
5.3928365
5.2119123
5.0964696
4.9719331
4.9247254
4.9252422
4.9732888
5.0989023
5.2155397
5.397782
5.5306138
5.3712458
5.6110349
5.8517884
5.9221488
5.907407
5.9941234
5.9943455
6.08598
6.0958089
6.081712
6.0794089
6.0943289
6.1022097
6.0606963
6.0033736
5.9228645
5.9076496
5.8215345
5.8211796
5.4991332
5.1667053
5.2707533
5.1045862
5.218683
5.0587236
4.9093947
4.7788841
4.7127504
4.7122996
4.7774943
4.9068232
5.0549177
5.2133225
5.3665011
5.6048409
5.2653808
5.0986134
4.9078524
4.7145765
4.5601992
4.477666
4.4780771
4.5616398
4.7174181
4.9122154
4.7837505
4.9812617
4.9343313
5.1271283
5.1269749
5.4994959
5.166517
4.9807937
4.9339944
4.7182059
4.7186611
4.4809938
4.5637104
4.3870581
4.2905816
4.2901359
4.3855166
4.5606437
4.779099
4.9747008
5.1607544
5.4910957
5.1208953
4.9274427
4.7137222
4.4777969
4.2897375
4.1871124
4.187571
4.291342
4.2906799
4.4804246
4.5623694
4.7828388
4.9114339
5.1042735
5.2708477
5.6122964
5.8527598
5.9787853
6.0242864
6.0434097
6.0711243
6.0987138
6.0977198
6.0863634
6.021481
5.9510442
5.7977476
5.5331461
5.3722216
5.2194083
5.0589192
4.9094226
4.7162064
4.560229
4.3853644
4.2888486
4.1868511
4.1863556
4.2890802
4.4773578
4.7134319
4.9273501
5.1208974
5.4916605
5.1608522
4.9745958
4.7784312
4.5595552
4.3840322
4.2884346
4.4763132
4.4766078
4.7127674
4.7787635
4.9754252
5.1009555
5.2175749
5.4004683
5.5322088
5.6465012
5.7964609
5.60857
5.3695686
5.2669129
5.1608459
5.1204957
4.9276314
4.9274219
4.712505
4.7779174
4.5591042
4.7139075
4.9075794
5.0988802
5.2659374
5.6064903
5.3680312
5.214709
5.0557655
4.9075135
5.0994174
4.9746944
5.1602195
5.1202879
5.4935688
5.4938898
5.817424
5.8491068
5.9774797
6.0207308
6.0426229
6.0976107
6.1027036
6.1097012
6.1061216
6.0384197
6.0240655
5.8982924
5.8873822
5.8871864
5.8978284
6.0238754
6.0382992
6.1049357
6.0981073
6.0966386
6.1017671
6.0963204
6.0404127
6.0201525
5.9146038
5.8983727
5.897123
5.9128113
6.0190003
6.039199
6.0951856
6.1005987
6.0950788
6.083145
6.0167711
5.9713621
5.8405305
5.8077915
5.8093107
5.8428473
5.9732878
6.0185106
6.0847509
6.0955105
6.1048871
6.0360659
6.0210624
5.8915992
5.8801356
5.8786632
5.8897605
6.019874
6.0349102
6.1035857
6.1075988
6.1253446
6.1036583
6.0940036
6.0246837
6.0438901
5.9889921
5.849063
5.8858076
5.824811
5.5090357
5.6207428
5.8036906
5.9617335
6.0269762
6.0370608
6.0462795
6.0224775
6.0213831
5.9749236
5.8494272
5.9200669
5.9049345
5.8178461
5.8184236
5.9053197
5.9208632
5.8506004
5.9764551
5.7935873
5.6436797
5.5288993
5.3673175
5.2656314
5.6072663
5.7943765
5.9496889
6.020263
6.0416458
6.022158
6.023034
5.8985497
5.887567
5.8871942
5.8979699
5.8947957
5.8579464
5.9922701
5.8061997
5.6311871
5.5546886
5.5100448
5.4841468
5.5314706
5.3968034
5.5324897
5.4845118
5.4094533
5.1784238
5.2469621
5.3432879
5.2601721
5.1802598
5.1718033
5.1015359
5.0956448
5.1977873
5.0479315
5.1993391
5.3459806
5.6268178
5.2489539
5.1742161
5.1801703
5.1036812
5.1825726
5.2635193
5.0978559
4.9614795
5.1416485
5.5167763
5.8345228
5.835035
5.8951321
5.8587262
5.9933013
6.0465979
6.0374709
6.0275724
5.9631434
5.8081059
5.6275426
5.5170827
5.1091348
5.1091837
5.0016137
5.027567
4.955677
4.9444173
4.9129676
4.9197312
4.705698
4.7710029
4.901921
4.8986596
5.0446584
4.8975435
4.9008091
4.701694
4.6883137
4.5258987
4.7639641
4.9413947
5.024432
5.1374838
5.1049665
4.9984958
4.9520624
4.9100174
4.9168563
4.9585371
4.7692864
4.7041975
4.6984908
4.440494
4.4600681
4.5439388
4.3652384
4.5444253
4.5263309
4.7656979
4.6999957
4.4405833
4.4601906
4.2675875
4.2414432
4.3413536
4.2418853
4.2679512
4.1628093
4.1341464
4.103361
4.2139607
4.4190872
4.6955942
4.7616264
4.8981016
5.0479837
5.0378292
4.8800855
4.6573316
4.8814805
4.8993461
4.6735881
4.5064457
4.4861852
4.7453176
4.6743008
4.3963923
4.3767754
4.6829666
4.9356302
5.5697399
5.6821881
5.8524412
6.0008205
5.9835752
5.8422748
5.6721544
5.5686684
5.569827
5.8875373
5.8263668
5.851092
5.9906029
6.0450165
6.0259599
5.9631656
5.8064485
5.6231775
5.5102207
5.1056192
4.9990332
4.9527766
5.025339
5.1386865
4.9597332
4.9173847
4.9105455
4.9423107
5.1032663
5.1819616
5.2623309
5.3459843
5.2488988
5.1735731
5.1803818
5.2006225
5.0977299
4.9029951
4.7705516
4.7046207
4.6988474
4.7649633
4.5269059
4.4408002
4.4604626
4.545209
4.7040847
4.6901661
4.8992285
5.046949
5.0509663
4.9054249
4.9012675
4.7684332
4.5282678
4.3425218
4.2422529
4.2683872
4.3665869
4.2689981
4.1632326
4.1344848
4.2425794
4.4425782
4.462855
4.5469488
4.7746697
4.7096048
4.7028633
4.9178538
4.9491182
5.107939
5.1840666
5.4130962
5.4875546
5.5352685
5.6346914
5.8084013
5.5576881
5.5131037
5.4875829
5.5365124
5.4010082
5.2038657
5.3504149
5.6289073
5.2524341
5.1777301
5.186259
5.2684878
5.1028727
4.9669798
5.147187
5.5193784
5.0317656
4.9598577
5.0058615
5.1149277
4.9254989
4.9250554
4.7090715
4.4622475
4.2682969
4.1624832
4.1620049
4.2668781
4.4597172
4.705353
4.9195594
4.9126121
5.0012142
4.9550349
5.0269797
5.1415425
4.9611517
4.9437664
5.1028208
5.1818367
5.2637143
5.0975783
5.1997013
5.3466237
5.2481712
5.173062
5.1792653
5.0434895
4.8971704
4.7644705
4.6995379
4.4399141
4.5245957
4.5430391
4.7700866
4.9010919
4.700411
4.6862127
4.8959649
4.9004781
5.047822
5.1996511
5.2148938
5.3963698
5.5295708
5.5351567
5.4862624
5.5114429
5.4111788
5.39941
5.5347738
5.8069424
5.6339251
5.5560106
5.485449
5.247267
5.1791597
5.1720735
5.1022874
5.0975049
5.2632677
5.6245988
5.3461414
5.1804838
5.0241815
4.9417244
4.7619736
4.5232084
4.3392113
4.2406196
4.1332144
4.2394813
4.2659798
4.3634694
4.5421575
4.4580393
4.4374988
4.6961995
4.7032394
4.7685892
4.9600824
4.9183514
4.9103233
4.9518263
4.9981264
5.5134107
5.1403905
5.1078987
5.1081007
4.9185439
4.7034744
4.458329
4.266373
4.2397478
4.133625
4.241749
4.3401559
4.3646608
4.5453793
4.5262739
4.4417943
4.7021943
4.766935
4.7735274
4.9040825
4.7022651
4.5431675
4.5239742
4.4377408
4.6963461
4.7624872
4.7692984
4.9019958
4.8970326
4.6875372
4.8992453
5.0451216
5.0502085
5.2035627
5.1020119
4.9663014
4.9481368
4.9172126
4.9589061
5.0052279
5.519478
5.1146773
5.1467589
5.0308778
5.1849351
5.1064486
5.1759093
5.1824975
5.2510435
5.6292565
5.2681542
5.3504315
5.5383445
5.4027832
5.2015663
5.0986837
4.9606665
4.9420948
4.9104783
4.9519828
4.9982764
5.5136081
5.1408653
5.0244943
5.1812331
5.103135
5.1727812
5.1802264
5.2482136
5.6253852
5.2643206
5.3476643
5.5375149
5.8082431
5.4879849
5.4140539
5.5135611
5.4885426
5.8096265
5.6364165
5.5581285
5.9637465
5.9851059
5.8468756
5.6789898
5.5775117
5.5775629
5.679265
5.846502
5.9848025
5.8445226
5.6742281
5.6840442
5.570755
4.9364122
5.1714348
5.1760696
5.7166911
5.9167023
6.1406285
6.1499591
6.1293241
6.1193739
6.0911387
6.0990547
6.096012
6.1261349
6.1207238
6.1197974
6.121923
6.1168122
6.1270446
6.1392632
6.1477684
6.1137513
6.1152319
6.1007162
6.100348
6.1403551
6.163463
6.1629921
6.1454278
6.1629457
6.1241802
6.0995571
6.0846141
6.0733702
6.096665
6.1077645
6.11397
6.1498062
6.151251
6.1143778
6.0888344
6.0823514
6.082396
6.0887893
6.0762245
6.0763054
6.1000838
6.1000138
6.1352706
6.1294257
6.1289339
6.1334011
6.099245
6.0756557
6.0890459
6.0983405
6.0995427
6.0847706
6.0737297
6.0704694
6.0779934
6.0892767
6.1011596
6.1015508
6.084897
6.0849751
6.1018665
6.1017923
6.0902064
6.0784092
6.0689302
6.0624359
6.0614853
6.0688534
6.0784301
6.0867568
6.0942523
6.0955482
6.0954685
6.0939758
6.0862332
6.0776808
6.0684247
6.0616844
6.0639697
6.074536
6.0732835
6.0840711
6.0850011
6.0860613
6.0978798
6.0854655
6.1161332
6.1201693
6.1278893
6.1269887
6.1581716
6.1604002
6.161225
6.1613706
6.1604636
6.1577928
6.1935855
6.2327028
6.274382
6.2807785
6.2751203
6.2714693
6.2290397
6.234673
6.228499
6.2711193
6.2770356
6.2886809
6.2744367
6.2320142
6.2376616
6.2303057
6.2729035
6.2749487
6.2324816
6.233249
6.2756159
6.2901548
6.2870987
6.2799016
6.3031396
6.2605547
6.2463793
6.205305
6.2189236
6.1781287
6.158409
6.1649938
6.2042169
6.2071508
6.1677313
6.1912639
6.1885759
6.2305305
6.2343643
6.2780875
6.2479995
6.2449481
6.2731464
6.3164833
6.3223868
6.3458413
6.3543814
6.338922
6.3118832
6.2889369
6.2467985
6.2331049
6.1930571
6.1551827
6.1662287
6.2059601
6.2199832
6.1993739
6.1619209
6.1795957
6.1901265
6.1689235