/*--------------------------------*- C++ -*----------------------------------*\
  =========                 |
  \\      /  F ield         | OpenFOAM: The Open Source CFD Toolbox
   \\    /   O peration     | Website:  https://openfoam.org
    \\  /    A nd           | Version:  7
     \\/     M anipulation  |
\*---------------------------------------------------------------------------*/
FoamFile
{
    version     2.0;
    format      ascii;
    class       volScalarField;
    location    "230";
    object      omega;
}
// * * * * * * * * * * * * * * * * * * * * * * * * * * * * * * * * * * * * * //

dimensions      [0 0 -1 0 0 0 0];

internalField   nonuniform List<scalar> 
24866
(
434.2072
442.17438
443.51241
505.56772
565.84453
564.66482
560.06415
566.03452
566.72818
559.48512
562.59959
562.6378
559.58489
566.79204
565.96693
560.29262
564.13953
566.09635
564.31665
562.74008
555.39845
567.91584
581.73025
575.30954
561.73229
551.89268
563.17228
576.25423
575.04446
557.21447
565.05176
564.60969
564.60879
565.05189
557.23628
575.05179
576.31316
563.23002
551.8327
561.66321
575.29211
581.73149
567.92267
555.39972
562.80242
564.2788
566.18356
564.06176
560.34662
565.82941
566.89905
559.54703
562.60064
562.63097
559.62711
566.67695
566.10136
559.95554
564.81559
565.71432
569.42397
566.27559
569.48325
569.94375
561.60869
565.43059
572.32047
571.15238
561.83264
562.14221
562.16778
561.87949
571.17229
572.32299
565.45646
561.51732
569.49894
569.26298
565.25684
567.58815
567.18247
555.7115
557.48595
563.75533
565.82118
573.04391
565.90128
558.90124
567.05242
574.0208
565.85374
559.24787
564.18105
564.59329
563.87379
562.01271
560.41776
562.89272
562.02094
563.34169
563.04232
563.4554
562.95417
563.67615
564.13956
564.14619
563.89682
564.29899
563.60857
562.73161
557.07876
568.82917
568.1697
565.10465
561.2221
563.13202
563.39946
563.73323
564.15976
564.40813
564.35682
563.99566
564.35465
563.78899
563.14695
562.7453
560.97006
561.89412
562.28837
563.12588
563.93707
564.52581
564.84598
564.68593
564.74778
564.54368
564.16195
563.90009
563.40092
563.61161
561.22544
557.08312
568.82813
568.1679
550.79379
551.16058
510.68086
503.39789
504.39011
504.39032
503.39756
496.19251
499.75577
555.68978
555.36827
501.5654
502.18447
491.077
500.06222
499.26483
487.5528
483.11718
493.51225
501.39163
504.11797
505.58837
502.86302
498.15936
503.98402
504.41254
495.64831
496.10192
496.04849
495.52151
504.31899
504.00666
498.02864
503.25206
511.76482
512.62923
552.01909
552.37716
510.07649
495.50651
510.97812
504.26463
498.68556
562.24365
563.28354
562.24457
563.3411
562.69046
560.91054
561.87373
562.26374
563.09447
563.89343
564.46725
564.77701
564.8491
564.91789
564.75068
564.41295
564.15186
564.18632
564.3024
565.85872
562.73361
501.68239
504.26841
542.84347
555.70229
499.7317
496.19621
439.73718
441.98276
442.57116
442.57098
441.9811
439.73173
438.55187
439.85766
439.84048
435.85593
439.07134
438.71023
433.93816
430.9418
437.8242
440.91834
442.5852
443.42008
441.95833
441.4529
442.21842
442.70417
439.62924
439.60928
439.59514
439.5441
442.59919
442.17577
441.34441
392.59122
392.81287
393.31503
393.29375
392.85634
442.23646
503.35299
497.99557
504.0736
504.2783
495.68416
496.09225
496.05311
495.59525
504.41172
503.8781
498.22408
502.81128
505.65735
504.10322
501.44211
493.52532
483.13113
539.47566
560.30054
552.86152
499.29721
500.09292
491.09048
502.16395
501.52052
555.41512
544.09755
511.05705
506.22947
492.75985
508.86636
513.24667
512.41194
555.92958
574.04007
567.06412
558.89895
559.2514
565.81919
564.60039
564.14798
564.36459
564.69169
564.36268
564.53104
564.46954
564.18174
563.67629
563.07765
563.03358
563.33084
563.67826
563.89789
563.94379
563.79836
563.46729
564.00586
563.68707
563.88388
563.7579
557.49732
562.02773
562.96788
562.90914
563.05545
563.15666
563.13324
563.10149
563.0817
563.0347
563.34191
562.69753
562.27411
562.29627
562.75403
563.35563
562.03998
565.27429
560.43768
555.73039
567.22183
567.58238
550.16315
511.0732
509.15275
549.69523
506.84734
508.91709
493.12146
432.49851
440.95765
437.84044
430.95251
433.95698
487.60549
487.14663
503.39253
503.71941
544.0171
541.10881
504.89414
490.62348
508.61084
429.59183
438.72098
439.06897
435.84998
439.85379
439.86809
438.55198
389.88395
391.19131
392.4603
392.60326
392.60316
392.45907
391.18791
389.88443
390.39583
390.4868
388.40935
390.18176
389.83716
387.28176
385.68434
390.06302
391.84427
392.71153
393.24267
392.71945
392.6907
392.91774
393.27319
391.79746
391.91528
391.87186
391.69733
393.17832
392.85721
352.33615
352.29919
352.2842
352.50972
352.49993
352.31605
352.31377
392.59824
441.33388
442.23459
442.62571
439.6464
439.60661
439.60771
439.60992
442.68277
442.14219
441.47884
441.93087
443.46431
442.58747
392.7174
391.87252
390.07815
385.69505
387.29801
389.84759
390.18345
388.4072
390.4933
390.39899
350.27902
350.00296
351.11497
351.88031
351.95202
351.9521
351.8794
351.11263
350.00277
350.27643
350.37481
349.19423
350.3043
350.02746
348.41647
347.44989
350.3587
351.53822
352.1063
352.46408
352.25666
352.38942
352.40202
352.64572
351.88413
351.9878
351.95588
351.80505
352.56207
318.97393
318.82912
318.89072
318.76298
318.86069
318.85699
318.78713
318.90785
318.86818
319.01333
352.60406
393.21652
391.80334
391.91512
391.88585
391.74987
393.24282
392.85836
392.69638
392.70039
393.26792
352.47751
352.11178
351.55806
350.3713
347.45932
348.42922
350.03592
350.30626
349.1934
350.37959
317.25116
317.136
317.0011
317.90468
318.35884
318.40982
318.40987
318.35814
317.90298
317.00057
317.13385
317.24754
316.57058
317.28682
317.03974
315.93998
315.34945
317.35394
318.16126
318.57422
318.83
318.76689
318.97063
318.89295
319.04543
318.6624
318.74484
318.71943
318.59857
290.90349
291.06903
290.98545
291.08782
290.9134
290.9453
290.94464
290.93216
291.10496
291.01858
291.10438
290.95306
318.66128
351.88527
351.98968
351.96935
351.84638
352.61235
352.35247
352.38394
352.24121
318.75372
318.8365
318.57844
318.17521
317.3641
315.35748
315.95002
317.04665
317.28882
316.57048
289.30258
289.69113
289.57293
289.53197
290.26298
290.52935
290.56974
290.56972
290.52878
290.26169
289.5313
289.57111
289.68835
289.30229
289.76653
289.53957
288.75544
288.40518
289.83576
290.40461
290.72322
290.91869
290.92909
291.15679
291.04415
291.1299
290.95559
291.02699
291.00645
267.72635
267.6367
267.6914
267.64875
267.7616
267.58089
267.5786
267.57939
267.59575
267.77757
267.67672
267.72241
267.67641
267.74451
291.02865
318.74707
318.73121
318.63131
319.01431
318.85196
318.96001
291.14449
290.91786
290.9214
290.72635
290.41464
289.84397
288.41197
288.76345
289.54525
289.76845
266.64153
266.33975
266.56056
266.45308
266.47153
267.06402
267.22369
267.25759
267.25755
267.22321
267.06301
266.4708
266.45153
266.55834
266.33923
266.63972
266.43338
265.85923
265.6623
266.71557
267.13385
267.39141
267.54984
267.59827
267.81977
267.70111
267.74323
267.67977
267.74318
247.95418
247.94006
247.86241
247.86271
247.8451
247.9527
247.78735
247.76802
247.76945
247.79933
247.96712
247.86877
247.88966
247.89478
247.95535
247.94784
267.73492
291.01633
290.92997
291.1022
291.01051
267.67355
267.80754
267.58877
267.5506
267.39379
267.14131
266.7223
265.66809
265.86573
266.43811
246.80022
246.98213
246.78756
246.9125
246.82315
246.87584
247.35683
247.45895
247.48847
247.48841
247.45854
247.35601
246.87512
246.82181
246.91068
246.7869
246.98045
246.79624
246.36872
246.26768
247.06288
247.38569
247.60115
247.73494
247.80195
248.001
247.89097
247.90699
247.89862
230.86766
230.91562
230.90371
230.83704
230.81325
230.80967
230.90493
230.76339
230.73644
230.7381
230.77323
230.91776
230.82979
230.83659
230.86371
230.91664
230.91072
230.85295
247.88101
267.65864
267.71915
247.88625
247.86831
247.98964
247.79396
247.73476
247.60304
247.39143
247.0685
246.27266
246.37409
229.57424
229.89512
230.05519
229.93102
230.00109
229.93137
230.00119
230.39208
230.46386
230.4901
230.49005
230.46352
230.39141
230.00051
229.9302
229.99958
229.9303
230.05362
229.89171
229.56972
229.52728
230.13942
230.39928
230.58352
230.6993
230.77386
230.94473
230.84946
230.85117
216.00029
216.02616
216.06709
216.05697
216.00008
215.96767
215.97114
216.05195
215.93513
215.90574
215.90743
215.94334
216.0633
215.98839
215.98789
216.02229
216.06797
216.06328
216.01381
215.98507
230.83341
230.83071
230.93449
230.76713
230.69869
230.58508
230.40386
230.14419
229.53162
214.91403
214.92162
215.1654
215.3047
215.22703
215.26563
215.21369
215.28983
215.60796
215.66342
215.687
215.68694
215.66312
215.6074
215.28919
215.21267
215.26434
215.22629
215.30325
215.16246
214.91776
214.91021
215.38873
215.60445
215.76412
215.86573
215.94149
216.08466
216.00556
202.93912
202.9311
202.95888
202.99357
202.98491
202.93649
202.90288
202.90934
202.97613
202.88152
202.85252
202.85414
202.88845
202.98617
202.92423
202.92044
202.95518
202.99434
202.9906
202.94845
202.91803
202.92593
215.98991
216.07556
215.93579
215.86494
215.76545
215.60819
215.39284
202.40216
202.023
202.01039
202.19711
202.31753
202.27069
202.29131
202.25409
202.33016
202.58977
202.63578
202.65713
202.65708
202.63552
202.58929
202.32958
202.2532
202.29021
202.26995
202.31618
202.19454
202.00705
202.01962
202.39858
202.58132
202.72095
202.8109
202.88431
203.00305
191.38861
191.33787
191.32935
191.35568
191.385
191.37753
191.33632
191.3048
191.31206
191.36642
191.2904
191.2633
191.26481
191.29634
191.37531
191.32501
191.32012
191.3522
191.38568
191.38268
191.34682
191.31809
191.32666
191.3815
202.99501
202.87944
202.81006
202.72209
202.58444
191.02067
190.86433
190.56053
190.5368
190.68096
190.78468
190.75834
190.76887
190.74323
190.8158
191.02849
191.06838
191.08789
191.08784
191.06816
191.02809
190.81527
190.74245
190.76791
190.75762
190.78344
190.6787
190.53389
190.55753
190.86121
191.01804
191.14098
191.2211
191.29028
180.92218
181.00391
180.96415
180.9562
180.97978
181.00452
180.99804
180.96293
180.93473
180.9417
180.98558
180.92463
180.90015
180.90154
180.92978
180.99349
180.95306
180.94815
180.97654
181.00513
181.0027
180.9722
180.94645
180.95452
180.99762
180.91849
191.28606
191.22026
191.14196
180.78724
180.67977
180.54448
180.29834
180.26899
180.38115
180.47033
180.45762
180.46271
180.44592
180.51338
180.68855
180.72398
180.74193
180.74188
180.72379
180.68821
180.51292
180.44525
180.46189
180.45695
180.4692
180.37916
180.26644
180.29568
180.54175
180.67753
180.78642
180.85813
171.53596
171.59461
171.66296
171.63208
171.62515
171.64561
171.66649
171.66083
171.63085
171.60626
171.61249
171.64778
171.59888
171.57727
171.57852
171.60338
171.65485
171.62253
171.61809
171.64263
171.66704
171.66506
171.63909
171.61666
171.62375
171.65736
171.59134
171.53513
180.8573
180.91747
180.98997
180.79277
180.83989
180.9406
180.447
180.54857
180.69147
180.7513
180.67666
180.60248
171.3258
171.17851
171.2403
171.38544
171.41734
171.43397
171.43391
171.41719
171.38519
171.23994
171.17799
171.18799
171.18569
171.18898
171.11158
171.0232
171.05474
171.25624
171.37458
171.47151
163.04745
163.10554
163.15889
163.21649
163.1927
163.18685
163.2043
163.22188
163.21688
163.19123
163.17008
163.17546
163.20384
163.16451
163.14573
163.14691
163.16852
163.21021
163.18442
163.18058
163.20151
163.22236
163.22075
163.19865
163.17941
163.1854
163.21147
163.15596
163.10474
163.04797
171.47219
171.37649
171.25862
171.05707
171.02539
171.11328
171.18994
171.18624
171.18863
162.79908
162.79393
162.85005
162.97112
163.00003
163.01551
163.01552
162.99999
162.97104
162.84993
162.79372
162.79879
162.79754
162.79498
162.72839
162.65861
162.6905
162.85712
162.9608
155.31472
155.39243
155.44493
155.49323
155.54218
155.52394
155.51909
155.53383
155.54861
155.54415
155.52214
155.50405
155.50864
155.53153
155.49977
155.48368
155.48477
155.50339
155.53734
155.51671
155.51345
155.53119
155.54902
155.54771
155.52887
155.51249
155.51746
155.5376
155.49052
155.44405
155.3927
155.31584
162.96238
162.85911
162.6924
162.66033
162.72966
162.79558
162.79779
155.17209
155.17317
155.17168
155.22247
155.32421
155.35052
155.36503
155.36512
155.35072
155.32454
155.22294
155.17221
155.1737
155.17267
155.16634
155.10894
155.05342
155.0845
155.22354
148.25465
148.33488
148.4047
148.45218
148.49576
148.53779
148.52382
148.51975
148.53221
148.54468
148.54065
148.52162
148.50608
148.51006
148.52868
148.50279
148.48918
148.49019
148.50612
148.53403
148.51743
148.51459
148.52968
148.54501
148.54393
148.5278
148.51381
148.51796
148.53353
148.4931
148.45106
148.40447
148.33519
148.25496
155.22495
155.08571
155.05432
155.10933
155.1661
148.20022
148.20856
148.20984
148.21095
148.25697
148.34322
148.36715
148.38091
148.3812
148.36797
148.34456
148.25891
148.21332
148.21241
148.21122
148.20253
148.15283
148.10817
148.13774
141.76575
141.86454
141.93463
141.99729
142.04012
142.07922
142.11594
142.10509
142.10149
142.11227
142.12291
142.11922
142.10252
142.08886
142.09248
142.10788
142.0863
142.07491
142.07588
142.08941
142.1129
142.09931
142.09666
142.1098
142.12316
142.12229
142.10827
142.09605
142.09967
142.11181
142.07641
142.03844
141.99603
141.93332
141.86255
141.76235
148.13749
148.10728
148.15124
141.76892
141.81136
141.82104
141.8226
141.82534
141.86731
141.94127
141.96287
141.9762
141.97697
141.96514
141.94498
141.87264
141.83199
141.82987
141.82857
141.81847
141.77499
141.73828
135.87065
135.89525
135.97854
136.03828
136.09401
136.13227
136.16698
136.20004
136.19127
136.18777
136.19776
136.20718
136.20373
136.18864
136.1759
136.17948
136.19259
136.17355
136.16418
136.16512
136.17653
136.19738
136.18592
136.18317
136.19531
136.20734
136.20663
136.19409
136.18271
136.18616
136.19588
136.16371
136.12946
136.09072
136.03369
135.97183
135.88523
135.85732
141.73341
141.83943
141.89441
141.95953
141.9834
141.95918
141.92858
136.03728
135.93893
135.97773
136.04218
136.06118
136.07464
136.07641
136.0666
136.05101
135.99037
135.95484
135.95308
135.95211
135.94119
135.90233
130.47207
130.44203
130.46223
130.53113
130.5788
130.6271
130.66042
130.69056
130.72192
130.71425
130.71046
130.721
130.72998
130.72674
130.71237
130.69916
130.70302
130.71464
130.69596
130.68837
130.68929
130.69886
130.71928
130.70916
130.70602
130.71855
130.73008
130.72951
130.71762
130.70573
130.70938
130.71753
130.68636
130.65547
130.61993
130.56785
130.51517
130.43913
130.41184
130.43727
135.88666
135.92371
135.93401
135.93563
130.48158
130.48401
130.52059
130.57803
130.59369
130.60818
130.61192
130.60544
130.59704
130.54777
130.51841
130.51929
130.51963
130.50826
125.46813
125.43213
125.39945
125.41233
125.46605
125.49796
125.53715
125.56457
125.58961
125.62166
125.61425
125.60989
125.6229
125.6324
125.62928
125.61462
125.59906
125.60343
125.61419
125.59307
125.58698
125.58788
125.59591
125.61871
125.60931
125.60558
125.62042
125.63248
125.63205
125.61976
125.60548
125.60957
125.61684
125.58385
125.55595
125.52321
125.47552
125.43322
125.36534
125.33828
125.36225
125.39205
130.47009
130.48044
125.40197
125.40172
125.40138
125.4366
125.48918
125.50023
125.51699
125.52426
125.52349
125.52676
125.49027
125.4696
125.47648
125.47976
120.79487
120.78309
120.74438
120.70383
120.70431
120.73955
120.74987
120.77675
120.79664
120.81576
120.8512
120.8435
120.83864
120.8564
120.86758
120.86458
120.84852
120.82841
120.8332
120.84346
120.81672
120.81173
120.81261
120.81948
120.8478
120.83877
120.83456
120.85397
120.86767
120.86737
120.85356
120.83465
120.83909
120.84585
120.80781
120.7824
120.75215
120.7086
120.67864
120.61729
120.59038
120.6155
120.6435
120.65258
120.64985
120.64449
120.67874
120.7281
120.73275
120.75323
120.76616
120.77493
120.79634
120.77635
120.76912
120.78646
116.43138
116.44725
116.43538
116.39113
116.33728
116.31752
116.32755
116.30887
116.3187
116.32904
116.34159
116.38268
116.37502
116.37053
116.39496
116.40889
116.4061
116.38775
116.36134
116.36578
116.37528
116.34048
116.336
116.33682
116.34308
116.37933
116.3709
116.36697
116.39273
116.40892
116.40873
116.39253
116.36715
116.37113
116.37706
116.33132
116.30767
116.27964
116.24037
116.22455
116.16949
116.14348
116.1718
116.19886
116.20675
116.20073
116.18855
116.22129
116.26782
116.26448
116.28963
116.31058
116.33401
116.3814
116.38498
116.39874
112.37243
112.42375
112.44798
112.43618
112.38518
112.31431
112.26236
112.23472
112.17975
112.16718
112.16666
112.17318
112.21994
112.21495
112.21326
112.24416
112.26078
112.25836
112.23807
112.20588
112.20795
112.2147
112.17251
112.16791
112.16863
112.1748
112.21823
112.21235
112.21074
112.24237
112.26073
112.26062
112.24227
112.21081
112.21212
112.215
112.16188
112.13891
112.11281
112.07834
112.07637
112.03034
112.00809
112.0389
112.06386
112.06998
112.06116
112.04279
112.07182
112.11321
112.10208
112.1313
112.16162
112.20522
112.28612
112.32592
108.64506
108.74537
108.81479
108.8431
108.83124
108.77772
108.69097
108.58557
108.49499
108.39691
108.35914
108.34921
108.35159
108.39979
108.40531
108.41155
108.44436
108.46176
108.45978
108.43992
108.40703
108.40227
108.39974
108.3565
108.35262
108.35321
108.35829
108.40251
108.40564
108.41066
108.4433
108.46172
108.46155
108.44318
108.41054
108.40449
108.39749
108.34286
108.32067
108.29615
108.26594
108.27381
108.24775
108.23655
108.2615
108.27739
108.2802
108.27215
108.25341
108.27359
108.30167
108.28661
108.31761
108.35553
108.42226
108.5439
105.18639
105.40818
105.5991
105.67973
105.69867
105.68658
105.64412
105.5485
105.35359
105.14118
104.98478
104.92912
104.91713
104.91436
104.9513
104.98811
105.00804
105.03215
105.05763
105.05836
105.03174
105.0069
104.99032
104.95948
104.93088
104.93557
104.93592
104.932
104.96124
104.99259
105.00911
105.03195
105.05765
105.05956
105.03388
105.00875
104.99021
104.95422
104.91359
104.89969
104.87634
104.84358
104.85116
104.87961
104.89393
104.88791
104.87756
104.88061
104.87732
104.8706
104.87085
104.86151
104.85505
104.88806
104.92584
105.00866
101.87344
102.13077
102.69648
103.07276
103.09357
103.07137
103.06079
103.06149
103.02608
102.64699
102.08981
101.85208
101.75006
101.74777
101.80829
101.73024
101.94132
101.94687
101.94268
102.08063
102.07971
101.94284
101.94934
101.94896
101.74794
101.83966
101.79454
101.79465
101.84005
101.74882
101.9499
101.94911
101.94294
102.08053
102.08028
101.94386
101.94941
101.94689
101.74071
101.82154
101.75805
101.7355
101.7554
101.68791
101.96365
101.88633
101.81242
101.79789
101.92071
101.81323
101.82531
101.83217
101.64964
101.7544
101.72051
101.74708
99.35506
99.393425
99.660454
100.62748
101.38227
101.19897
101.13628
101.12463
101.16951
101.341
100.58292
99.625582
99.370981
99.36331
99.357852
99.392815
99.373185
99.464924
99.480257
99.487847
99.492847
99.493573
99.491379
99.485754
99.475557
99.397357
99.432472
99.429788
99.430433
99.431438
99.395946
99.474706
99.485642
99.487317
99.492723
99.494164
99.49113
99.487102
99.474184
99.386993
99.418295
99.389974
99.389003
99.349279
99.40082
99.915518
99.87465
99.484574
99.389703
99.381128
99.381527
99.378351
99.363524
99.302587
99.335938
99.335306
97.092074
97.077862
97.156457
97.425567
97.346797
97.205969
97.203036
97.167193
97.198341
97.295159
97.419731
97.114144
97.117052
97.088201
97.204471
97.282597
97.186245
97.164733
97.382486
97.274018
97.276099
97.388931
97.170163
97.199936
97.316705
97.243619
97.199083
97.2038
97.236695
97.318222
97.194928
97.169513
97.379894
97.273054
97.276991
97.387439
97.166399
97.20656
97.294514
97.259881
97.132321
97.231532
97.138643
97.390161
97.002667
96.925381
97.30823
97.349835
97.195222
97.299931
97.096012
97.077687
97.241415
97.110716
97.058143
97.099305
97.219651
97.117636
97.082996
97.145837
97.217755
97.165755
97.085328
97.084917
97.168182
97.269525
97.147407
97.147524
97.309167
97.158124
96.975598
96.900414
97.148901
97.473911
97.514058
97.199441
96.916988
96.969225
97.162387
97.347807
97.091259
97.108128
99.37095
99.320224
99.760282
99.836306
101.25923
99.950436
99.862365
99.48931
99.880308
101.18899
99.816018
99.298763
99.32667
99.799821
99.759232
99.363963
97.250776
97.15721
97.212917
97.204248
97.203461
97.116474
97.249979
97.376083
97.116751
97.186606
99.358591
99.322371
99.765302
101.19718
99.831299
99.914285
99.840317
99.410868
99.484069
100.23561
101.38859
100.10394
100.09487
100.23942
99.882167
99.23742
99.249733
99.85436
100.13311
100.08652
101.35005
99.8171
99.897738
99.437884
97.240311
97.307615
97.216737
97.291081
97.058136
96.980971
99.372877
99.874127
99.957986
101.35255
99.896304
99.373104
99.840274
99.46876
101.90221
102.1115
101.90404
101.69064
101.92919
101.79891
102.01375
105.05139
108.52978
108.59533
108.45772
104.9597
105.04904
105.07428
104.98464
108.52087
108.6041
108.43727
104.99191
105.02822
108.49472
108.52266
105.04276
101.98636
99.409993
99.388836
99.30033
99.439039
99.246911
99.178212
101.74327
101.91916
102.00686
101.88167
102.02622
102.09302
99.387908
99.303881
99.225311
98.919137
99.034187
99.258753
99.554293
102.037
101.84991
102.08135
102.37983
102.75992
100.70467
99.735171
99.387917
99.323017
99.303517
99.363302
99.693083
100.66403
100.59909
100.58144
100.59311
100.62876
102.8311
102.83393
102.47715
102.45977
99.664059
97.242656
97.133574
97.156044
97.285592
98.054568
98.164285
98.152122
98.033091
97.255237
97.102244
96.517532
96.523222
96.530229
96.522307
97.124474
97.273707
98.075007
98.188483
98.18735
98.073468
97.27532
97.125387
96.529943
96.537704
96.537678
96.917279
97.112735
97.217489
97.066055
97.126954
97.3579
97.27419
97.276177
97.36194
97.126914
97.070676
97.216712
97.112105
96.918716
96.547186
96.541614
96.535463
97.142628
97.30317
98.139885
98.265914
98.294946
98.176344
97.344468
97.182839
96.553088
96.55805
96.552789
96.549065
97.136808
97.944627
98.261849
99.072062
101.09987
103.70463
105.30456
105.28089
103.65504
101.04014
99.035357
98.25162
97.936958
97.139012
97.187152
97.159058
97.2565
97.243426
97.232759
97.497331
98.071516
97.284177
98.189729
98.768963
100.99228
103.05691
104.63861
107.1148
108.63341
110.31517
110.92716
110.93854
110.3401
108.68117
107.1758
104.71571
103.12336
101.06497
104.7004
106.5809
109.3998
111.16111
113.20554
113.95269
113.9432
113.18024
111.11528
109.33345
106.49486
104.62591
107.05684
103.52644
100.44507
99.5528
99.732938
98.17956
98.174421
97.493323
97.231048
97.242302
97.254217
97.156353
97.179826
97.270712
98.05947
99.536604
99.726965
100.80887
100.81693
105.07115
110.17326
108.5335
111.01908
109.28226
111.72275
114.13079
116.3582
117.50121
117.50909
116.38355
114.17902
111.79147
109.37756
107.13937
103.61723
108.62873
111.12843
114.16101
117.50059
120.3166
121.86507
121.86419
120.29368
117.44671
114.08056
116.26846
113.03878
113.77863
110.76193
110.76293
105.06249
110.16883
113.03855
113.78283
117.39006
117.38699
121.79353
120.24715
123.6517
125.57833
125.58108
123.67876
120.30646
116.355
113.16066
110.27879
105.18965
110.87045
113.90461
117.47907
121.85396
125.5848
127.70323
127.69791
125.55932
125.56482
121.80236
120.2598
116.26954
114.07541
111.01026
108.52069
103.49708
100.42432
98.742683
98.171815
97.914247
97.121952
96.529513
96.917363
97.116703
98.223478
98.997074
100.94114
104.56994
107.02468
109.25175
111.6949
114.10445
117.44585
120.29572
123.66967
125.5985
127.70706
127.71394
125.59295
121.86294
117.47809
113.89932
110.86391
105.17224
110.26108
113.14521
116.3543
120.31667
123.69112
125.6015
121.87055
121.86586
117.47078
116.33139
113.11196
111.05232
109.27432
106.43146
104.57764
103.00634
100.95216
103.53313
107.05306
108.56556
110.23918
110.8415
113.86751
113.87004
117.47216
116.34529
120.31532
117.49269
114.14462
111.10088
108.59969
103.57319
107.09068
109.32957
111.75197
114.14112
111.08059
113.12176
110.24888
110.84435
105.12548
105.11861
100.84108
100.45442
98.752626
98.229901
97.920768
96.918374
96.83814
97.871429
97.857023
99.157097
99.358786
101.07564
101.21412
101.21946
101.08758
99.373626
99.172804
97.877426
96.539997
96.938357
96.853348
96.936989
97.951848
98.221914
99.638123
99.840559
99.868502
99.677321
98.2595
97.991028
96.956573
96.870676
96.957836
97.169666
98.308875
98.857335
100.596
100.99443
100.96507
100.55122
98.815001
98.265807
97.145458
97.900122
97.874894
99.189857
99.398394
101.16143
101.30603
101.33554
101.1986
99.433587
99.225614
97.896163
97.906011
98.772357
97.897902
97.924164
99.213411
100.41509
99.628671
101.50792
102.55077
101.80161
105.97576
104.42349
101.88963
99.881574
99.162839
99.176397
100.35763
99.3779
98.200466
98.791619
100.44882
99.541603
99.723299
100.83022
100.81446
99.709085
99.515719
100.41667
98.746824
100.99302
103.0469
104.62969
107.09261
108.59069
103.5552
100.98044
99.007898
98.215043
97.904676
98.164848
99.345029
101.03489
101.17392
101.18885
101.05695
102.39371
101.3578
99.565466
101.85173
103.99087
105.94648
107.45281
106.90075
105.33989
107.21289
105.3247
106.89593
107.87496
111.60417
110.69565
108.24256
109.46353
111.68826
112.83253
112.74477
111.90616
110.35407
112.60874
110.33061
108.20151
104.32966
110.66294
112.79142
111.57415
112.71217
111.65021
109.40832
111.87383
114.14012
111.35106
105.85163
101.63898
101.62334
102.37657
101.33154
99.526158
100.32567
99.142987
99.126213
99.832547
101.79703
104.29785
105.83768
111.82314
111.82992
114.60161
114.21069
116.3623
115.38502
115.87329
114.79535
118.38064
117.24671
114.98838
115.98999
113.57845
116.00833
115.00639
118.50122
119.73801
122.7919
118.34281
115.43333
114.26449
111.41843
111.90454
114.65711
116.4275
115.9185
114.84399
114.1853
117.2757
118.41133
119.49351
124.4406
123.01519
121.42057
124.91128
121.4117
122.78352
118.31319
119.464
124.43366
123.00494
126.88556
128.50499
126.45366
128.50078
126.87933
129.08215
130.79031
132.68069
130.29225
126.0328
120.59238
119.42488
117.01206
114.47478
115.78233
118.49302
122.61896
118.46995
116.99087
121.12944
124.32073
125.93369
120.92045
122.19735
127.72013
129.37165
123.13702
118.98227
108.60591
106.99791
104.51846
102.47089
100.95196
102.84501
105.25919
106.70054
106.6774
102.51617
101.76965
101.46645
99.589617
100.37816
99.175599
99.853982
101.83911
104.38001
105.95261
111.89
114.64521
116.41278
114.24312
111.39555
114.16387
114.83502
115.90955
115.4131
112.71146
111.65251
109.4179
108.192
110.65566
112.79599
111.5613
110.29979
111.86579
114.96404
117.25376
118.40403
119.48669
118.32393
122.77642
124.43936
123.01759
121.40228
118.45483
119.70109
115.9726
113.53252
112.55316
114.9206
115.9364
118.25654
122.74357
126.43534
128.49729
126.87938
124.88768
126.86438
129.07858
130.7898
128.49206
124.39462
122.95403
121.35883
117.17691
118.30423
119.40445
115.77333
115.28892
112.62971
111.50096
107.80806
106.83839
105.27053
103.92846
101.814
105.88931
107.39458
106.83699
105.25398
107.13664
110.24508
108.12241
104.29541
110.59523
112.72225
111.57505
109.31871
111.77677
114.03111
111.25076
105.8099
114.12646
116.27719
114.51404
111.7266
114.6835
114.69044
118.31029
122.96503
126.87172
129.09019
129.09646
126.89656
123.01562
118.38035
114.78986
115.86717
114.59979
116.36213
114.20431
111.33667
114.12664
115.37533
112.70131
111.63892
109.38322
111.85309
110.29788
108.16638
110.64969
112.78417
111.56279
113.56839
115.99215
118.31791
119.46466
124.4421
122.80231
121.42719
117.25092
114.98038
118.50305
119.7542
116.00697
114.98668
112.58596
110.29294
109.32303
106.49657
104.62204
105.25496
106.83883
107.39802
107.81676
107.14239
105.25879
101.80926
103.91986
105.89405
106.84941
110.65338
111.55724
112.78826
112.69595
111.84216
109.37524
104.33128
108.16352
111.64289
114.22683
115.38788
118.34702
122.81981
126.4863
128.51993
130.8096
128.54053
126.90794
124.93004
121.43093
123.0357
124.47759
119.50344
118.39542
117.2556
114.11994
114.78203
115.87693
116.38818
114.61576
105.86983
111.33033
111.81225
111.80989
114.78021
118.39522
123.03328
126.9074
128.53993
130.80446
128.50024
126.47038
124.91579
121.37904
122.7703
124.40354
119.41421
118.2707
117.18127
114.92529
118.46648
121.41707
122.81134
124.47761
119.50425
118.34209
117.24705
114.95653
115.98755
119.72895
115.95305
113.53767
112.54161
110.23222
111.77865
114.0361
115.29665
115.78117
116.2872
114.52354
105.80533
111.72863
111.24988
114.13366
111.58454
112.63842
112.73326
111.50545
110.59897
104.27821
109.31145
108.10524
105.20931
107.08795
110.25728
111.82129
114.11464
115.38297
115.87512
116.38596
114.61572
105.86528
111.32409
114.21934
111.63044
112.6815
112.77399
111.53462
110.63305
104.31683
109.35563
108.1359
105.21535
101.79147
106.80623
107.76867
107.36106
106.80451
101.77913
103.88421
105.86285
99.829626
100.90858
102.75626
105.14348
106.55749
106.55927
105.15098
102.78016
100.92748
102.80129
105.22201
106.96138
108.58713
118.96691
114.98236
117.18827
108.3797
106.07754
102.59156
102.03927
101.84191
101.87818
99.453406
99.261722
99.34468
101.76814
102.06561
102.08792
101.78241
101.67828
101.71697
101.86055
101.93175
99.241473
99.324062
99.597581
99.63371
102.61823
102.15719
101.85995
101.85321
101.89695
98.944527
96.918775
97.143258
97.369322
99.761224
99.366865
99.398902
102.17819
102.24508
99.433034
97.140446
97.409092
97.398694
97.130916
97.19228
97.206742
99.640019
99.629474
102.46686
102.8225
102.7992
102.432
99.637986
97.222277
97.113944
97.134448
96.900968
97.122147
97.338455
97.333453
97.154784
96.96678
96.90971
97.179912
97.498631
97.49818
97.181311
96.917535
96.984841
97.164778
97.318518
97.147959
97.185394
97.279958
97.164991
97.112976
97.15668
97.231064
97.230206
97.151676
97.097947
97.136486
97.233796
97.124313
97.071502
99.309735
99.366129
99.855781
99.944104
99.827537
101.2487
99.748086
102.00368
102.00815
102.34294
102.71553
105.47213
105.58276
105.63936
105.65157
105.61727
105.52053
108.79151
112.47004
116.50485
116.63248
116.5427
116.44418
112.33059
112.42431
112.27763
116.40846
116.53854
116.635
116.47382
112.3492
112.43198
112.23626
116.35604
116.40847
112.2962
112.32656
116.43555
116.67665
116.63306
116.54623
116.68033
112.58304
112.52532
108.67593
108.73763
105.14309
105.07264
105.14854
108.69553
108.74138
105.18364
105.32216
105.23744
108.81965
108.90473
112.72779
112.5747
112.52702
112.65216
116.73229
116.79317
117.20962
116.81906
116.6334
116.67856
116.65961
112.56414
112.45477
108.67442
105.20536
105.16381
108.73545
108.83205
108.8153
105.39334
105.28551
105.39843