/*--------------------------------*- C++ -*----------------------------------*\
  =========                 |
  \\      /  F ield         | OpenFOAM: The Open Source CFD Toolbox
   \\    /   O peration     | Website:  https://openfoam.org
    \\  /    A nd           | Version:  7
     \\/     M anipulation  |
\*---------------------------------------------------------------------------*/
FoamFile
{
    version     2.0;
    format      ascii;
    class       volScalarField;
    location    "140";
    object      alphat;
}
// * * * * * * * * * * * * * * * * * * * * * * * * * * * * * * * * * * * * * //

dimensions      [1 -1 -1 0 0 0 0];

internalField   nonuniform List<scalar> 
24789
(
0.0016694887
0.010549776
0.025758802
0.04372412
0.5486147
0.55026756
0.043824593
0.025819756
0.010575728
0.0016715859
0.0016741396
0.010608217
0.025898983
0.043955643
0.5521669
0.55418307
0.044076521
0.025970905
0.010638089
0.0016764843
0.0016791354
0.010671941
0.026053965
0.044214832
0.55626761
0.55840064
0.044338792
0.026127288
0.010702224
0.0016815082
0.0016841429
0.010735692
0.026209429
0.044475707
0.56057605
0.56278023
0.04459816
0.026281601
0.010765445
0.0016864829
0.0016890732
0.010798218
0.0263623
0.044733137
0.56501785
0.56726626
0.04485027
0.026431207
0.010826671
0.0016913304
0.0016938468
0.01085842
0.026509647
0.044981875
0.56951488
0.57177491
0.045092004
0.026574356
0.010885201
0.0016959874
0.0016984022
0.01091561
0.026649771
0.045219032
0.57402747
0.57627672
0.045321675
0.026709811
0.010940482
0.0017003988
0.0017026723
0.010969018
0.026780545
0.04544093
0.5785023
0.58071874
0.045535373
0.026835639
0.010991956
0.0017045142
0.001706648
0.01101884
0.026902028
0.0456472
0.58290978
0.58508915
0.045734802
0.026953023
0.011040248
0.001708341
0.0017103302
0.011065769
0.027015377
0.045839328
0.58723546
0.58935311
0.045921343
0.027063043
0.011086043
0.0017118718
0.0017136907
0.011110059
0.027121199
0.046019046
0.59142055
0.5934601
0.046092901
0.027163986
0.011128562
0.0017150358
0.0017166677
0.011150446
0.027216661
0.046180671
0.59545612
0.59741737
0.046238162
0.02724963
0.011164644
0.0017178675
0.0017196092
0.011181255
0.027292953
0.046315019
0.59935721
0.60143162
0.046362442
0.027314987
0.011188594
0.0017212291
0.0017238357
0.011197194
0.027346849
0.046431093
0.6037996
0.60672599
0.046475255
0.02735815
0.011195818
0.0017269252
0.0017317506
0.011194509
0.027378996
0.046542925
0.61051114
0.61560078
0.046584327
0.027377624
0.011181638
0.0017381152
0.0017490055
0.011176
0.027391796
0.046667078
0.62282195
0.63374905
0.046892577
0.027471502
0.011195446
0.0017677982
0.001792567
0.011233805
0.027791117
0.047583684
0.65045105
0.68373251
0.049880956
0.029220423
0.011847775
0.0018448358
0.0018705656
0.012050432
0.029495502
0.050002081
0.70575978
0.72082835
0.052445668
0.030926345
0.012612465
0.0019039374
0.0018939409
0.013153549
0.032681153
0.055957999
0.7114896
0.77242783
0.048445749
0.029138863
0.012040582
0.0018564494
0.0018210738
0.011642576
0.028321324
0.047665013
0.76996494
0.74864123
0.044113408
0.02615859
0.010698947
0.0017548575
0.0017095079
0.010351338
0.025220094
0.042628935
0.72485791
0.71121268
0.042231875
0.025006271
0.010298128
0.0016827344
0.0016652474
0.010287834
0.024982057
0.042146345
0.70099835
0.69344326
0.042132505
0.024999126
0.010299878
0.0016552125
0.0016490732
0.010315395
0.025015379
0.042120238
0.68778664
0.68339196
0.042088327
0.025014651
0.010322544
0.0016446619
0.0016417221
0.010324106
0.025003648
0.042045871
0.67981766
0.67683852
0.041993168
0.024980571
0.010318082
0.0016393784
0.0016377757
0.010309069
0.024952875
0.04193708
0.67417717
0.67172966
0.041873817
0.024916789
0.01029453
0.0016362461
0.0016350658
0.010278897
0.024878807
0.041809157
0.66925008
0.66675959
0.041732718
0.02483227
0.010258749
0.0016336182
0.0016322737
0.010238797
0.02478483
0.041652586
0.66423891
0.66168235
0.041561745
0.024730274
0.010215547
0.0016305597
0.001629026
0.010194545
0.024680556
0.041478942
0.65912608
0.65651417
0.041387203
0.024625139
0.010171046
0.0016271991
0.0016255317
0.0101492
0.02457239
0.041298568
0.65390405
0.65132467
0.04120624
0.024516515
0.010125623
0.0016236319
0.0016218498
0.010102583
0.024460066
0.041110795
0.64869117
0.64606678
0.041009671
0.024399146
0.010077185
0.0016198098
0.0016178746
0.010052191
0.02433768
0.04090589
0.64338087
0.64071234
0.040795686
0.024271321
0.010024667
0.0016156814
0.0016136068
0.0099978594
0.024205599
0.040685339
0.63802974
0.63539284
0.040571259
0.024136575
0.0099691413
0.0016113209
0.0016091646
0.009941166
0.024068123
0.04045668
0.63277031
0.63013559
0.0403374
0.023995898
0.0099111596
0.0016067997
0.0016045849
0.0098822765
0.023925391
0.040219746
0.62759445
0.62504432
0.040096499
0.023850767
0.0098513129
0.0016021676
0.0015999205
0.0098219093
0.023779195
0.039977544
0.62254668
0.62010647
0.039854348
0.02370443
0.0097908328
0.001597504
0.0015952862
0.0097617611
0.02363389
0.039737538
0.6177555
0.61556299
0.039623266
0.023563888
0.0097323741
0.0015929874
0.0015909605
0.0097062875
0.02350124
0.03952047
0.61355729
0.61625412
0.039651664
0.023578418
0.0097375398
0.0015932733
0.0015953799
0.0097638466
0.02364051
0.039750587
0.61809156
0.6202848
0.039854908
0.023703727
0.0097904572
0.0015974499
0.0015998423
0.0098214587
0.023779063
0.03997852
0.62265202
0.62510522
0.040090256
0.023846045
0.0098493681
0.0016019988
0.0016044138
0.0098805864
0.023922158
0.040215585
0.62762063
0.63017091
0.040324993
0.023987813
0.0099080165
0.0016065547
0.0016089672
0.0099390839
0.024063758
0.040450404
0.632762
0.63538047
0.040557908
0.024128057
0.0099658896
0.0016110677
0.0016134207
0.0099960329
0.024201842
0.040679971
0.63803352
0.64070279
0.040784446
0.024263843
0.010021748
0.0016154363
0.0016176695
0.010050162
0.024333448
0.040899896
0.64338828
0.64607296
0.040995463
0.024390223
0.010073895
0.0016195511
0.0016216926
0.010101239
0.024457419
0.041107294
0.64874264
0.65139842
0.041195488
0.024509662
0.010123197
0.0016234321
0.0016254415
0.010148958
0.02457257
0.041299941
0.65404489
0.656671
0.041380909
0.024620726
0.010169511
0.0016270469
0.0016289498
0.010194528
0.024681079
0.04148052
0.65928661
0.66187833
0.041558922
0.024727737
0.010214701
0.0016304424
0.0016322108
0.010238994
0.024785892
0.041655269
0.66445677
0.66703116
0.041730433
0.024830073
0.010258134
0.0016335262
0.0016350859
0.010280173
0.024882623
0.041816636
0.66961973
0.6722166
0.041875525
0.02491747
0.010295214
0.0016362799
0.0016380452
0.010313145
0.024963864
0.041956168
0.67485176
0.67768517
0.042010503
0.024990767
0.010322444
0.001639762
0.0016424289
0.0103325
0.025025429
0.042082357
0.68089774
0.68470161
0.042125282
0.025037074
0.010331986
0.0016455521
0.0016502807
0.010329512
0.025049629
0.042176317
0.68933465
0.69509472
0.042182207
0.025030451
0.010314436
0.0016564834
0.0016665641
0.010303974
0.025014027
0.042194065
0.70256472
0.71256896
0.042254166
0.025018991
0.010310091
0.001684062
0.0017131313
0.010392177
0.025270964
0.042722134
0.72639679
0.74937032
0.044290858
0.026227498
0.010701366
0.0017554164
0.0018243729
0.011742559
0.028616027
0.048506877
0.77389944
0.77376185
0.045414181
0.027523542
0.011451597
0.0018097296
0.0018715753
0.01298247
0.03228396
0.055146558
0.71213488
0.73044651
0.0521087
0.030356255
0.012308928
0.0018567837
0.0019044493
0.012838967
0.031858642
0.054854368
0.71004866
0.68161737
0.049592256
0.029175562
0.011813629
0.0018424282
0.0017946465
0.011309472
0.027712201
0.047172629
0.65392964
0.63749576
0.046257356
0.027202917
0.011139033
0.0017605765
0.0017385506
0.01107344
0.02704708
0.045949143
0.62616635
0.61809997
0.045809324
0.02698309
0.011050908
0.0017257939
0.0017181841
0.011046195
0.026950817
0.0457231
0.61226615
0.60780812
0.045636856
0.026915841
0.011038575
0.0017127707
0.001709251
0.011032453
0.026887998
0.04556813
0.60440284
0.60164568
0.04549589
0.026853516
0.011021457
0.0017064943
0.0017046288
0.011009704
0.026820043
0.04543002
0.59928436
0.59715752
0.045357838
0.026779176
0.010993069
0.0017028709
0.0017015146
0.0109756
0.026737205
0.045286472
0.59500136
0.59283869
0.045198094
0.026684336
0.010952964
0.0016998318
0.0016983061
0.010931443
0.026633149
0.045111114
0.59070933
0.58854091
0.045013065
0.026574947
0.010906794
0.0016964207
0.001694756
0.010884546
0.026521844
0.044923614
0.58636372
0.58414571
0.044824532
0.026462758
0.010859701
0.0016927932
0.001691018
0.010836726
0.026406898
0.044729679
0.58193507
0.57966588
0.044623753
0.026344121
0.010810727
0.0016889299
0.0016870115
0.010786258
0.026284098
0.0445217
0.5774264
0.57512928
0.044408131
0.026216827
0.010758574
0.0016847827
0.0016827189
0.010732338
0.026152383
0.044298875
0.57286623
0.57057347
0.044179256
0.026081339
0.010703114
0.0016803687
0.0016781759
0.010675142
0.026012598
0.044062951
0.56829442
0.56600083
0.043937154
0.025937709
0.010644338
0.0016757132
0.0016734076
0.010614794
0.025865153
0.043814676
0.5637322
0.56151966
0.043689092
0.025789844
0.010583603
0.0016709084
0.001668554
0.010553211
0.025715143
0.043563039
0.5593017
0.55710997
0.043431009
0.025636091
0.010520612
0.0016659776
0.0016636007
0.010489947
0.02556118
0.043305453
0.5549814
0.55291445
0.043176222
0.025483472
0.010457763
0.0016610567
0.0016587919
0.010428753
0.025413312
0.043059796
0.5510274
0.54946052
0.042961732
0.025352212
0.010402434
0.001656612
0.0016721063
0.010583527
0.025841574
0.043863498
0.55078058
0.55239436
0.043961022
0.025900671
0.010608693
0.0016741385
0.0016766265
0.010640194
0.025977234
0.044087344
0.55429262
0.55631933
0.044205458
0.02604756
0.010669478
0.0016789336
0.0016815674
0.010703057
0.026130012
0.044342879
0.55842964
0.56058807
0.044463642
0.026201652
0.01073279
0.0016839138
0.0016865589
0.010766451
0.026284559
0.044602167
0.56279219
0.56501228
0.04472322
0.026355771
0.010795783
0.0016888689
0.0016914216
0.010827984
0.026435066
0.044855922
0.56727526
0.56953761
0.044970707
0.026502534
0.010855846
0.001693635
0.0016961071
0.010887013
0.0265796
0.045100086
0.57180235
0.57406622
0.045209709
0.026643457
0.010913256
0.0016981909
0.0017005057
0.010942213
0.026714921
0.045329576
0.57631438
0.5785468
0.045431045
0.026773714
0.010966412
0.0017024333
0.0017046034
0.010993502
0.026840394
0.045542855
0.58076711
0.58296633
0.045635319
0.02689403
0.011015814
0.0017063801
0.001708439
0.011041854
0.026957886
0.045742482
0.58517124
0.58734287
0.045827125
0.027007231
0.011062775
0.0017100748
0.0017120326
0.011088206
0.027069014
0.045930604
0.58949931
0.59161276
0.046011769
0.027115904
0.011108255
0.0017135368
0.0017153282
0.011132359
0.027174056
0.046109226
0.59372688
0.59582344
0.046178192
0.027214351
0.011149969
0.001716638
0.0017183544
0.011170568
0.027264887
0.046263266
0.59791672
0.60002563
0.046324497
0.027297405
0.011183463
0.0017198307
0.0017220476
0.011197931
0.027338368
0.046401424
0.60232769
0.60498247
0.046461209
0.027363543
0.011204624
0.0017245149
0.001728339
0.011212678
0.027398162
0.046540928
0.60830829
0.61255544
0.046607399
0.027418679
0.011212863
0.0017332344
0.0017407252
0.01121527
0.02745247
0.046700578
0.61819127
0.62603466
0.046810058
0.027488448
0.011222291
0.0017523628
0.0017732103
0.0112772
0.027640399
0.047131975
0.63757873
0.65469786
0.047965374
0.028068778
0.011374264
0.0018014355
0.0018524786
0.011976288
0.029574898
0.05048148
0.68626479
0.70937503
0.051905651
0.030471511
0.01240762
0.0018929522
0.0019023581
0.01265113
0.031000359
0.052565331
0.7239321
0.71695276
0.056419208
0.032925056
0.01322628
0.0018981808
0.54743913
0.068065927
0.038454789
0.015144206
0.0021031452
0.001971201
0.013449857
0.033281731
0.057560805
0.69689199
0.80195231
0.047700349
0.02866152
0.01190067
0.0018636731
0.0018467221
0.012037874
0.029419534
0.050141445
0.7429485
0.73440504
0.053471273
0.031032869
0.012545703
0.001875485
0.0018812556
0.012509086
0.030964764
0.05301378
0.7111927
0.67933791
0.04891872
0.028751077
0.011660713
0.0018302461
0.0017849142
0.011186707
0.02743004
0.046763534
0.65058626
0.63457425
0.04603127
0.027047195
0.011070376
0.0017546599
0.0017348662
0.011031404
0.026950371
0.045806444
0.62378954
0.6162731
0.045716262
0.02692132
0.011024453
0.0017234709
0.0017166995
0.011029495
0.026911611
0.045662065
0.61089555
0.60686047
0.045600405
0.026892898
0.011028874
0.0017118516
0.0017086822
0.011026533
0.026873786
0.045544722
0.60371651
0.6011609
0.045478269
0.026842978
0.011017124
0.0017061079
0.0017043943
0.011007126
0.026814015
0.045420037
0.59894822
0.59688928
0.045345775
0.026772266
0.010990343
0.001702664
0.0017013665
0.010973687
0.026732825
0.045279374
0.59479257
0.59269635
0.04519155
0.026680326
0.010951241
0.0016997039
0.0016982087
0.010930182
0.026630339
0.045106574
0.5905875
0.58844932
0.045009501
0.026572622
0.010905748
0.0016963413
0.0016947138
0.010884041
0.026520944
0.044922468
0.58630748
0.58411037
0.044823357
0.026461864
0.010859256
0.0016927609
0.0016910076
0.010836608
0.026406812
0.044729721
0.58190294
0.57964989
0.044625639
0.026344963
0.010810949
0.001688944
0.0016870441
0.010786673
0.026285255
0.04452373
0.57742163
0.5751396
0.044410733
0.026218191
0.010759064
0.0016848223
0.0016827641
0.010732868
0.026153708
0.044301043
0.57286505
0.57059494
0.044183261
0.026083512
0.010703917
0.0016804292
0.0016782473
0.010676066
0.02601492
0.044066826
0.56831563
0.56603917
0.043941488
0.02594018
0.010645308
0.0016757886
0.0016734943
0.010615922
0.025868003
0.043819507
0.5637659
0.56150634
0.043687488
0.025789209
0.01058354
0.0016709277
0.0016685609
0.010553199
0.025715035
0.043562821
0.55927881
0.55708827
0.043429629
0.025635316
0.010520352
0.0016659649
0.0016635871
0.010489776
0.025560757
0.043304741
0.55495276
0.5528963
0.043173898
0.025482138
0.010457274
0.0016610224
0.0016587537
0.010428302
0.025412191
0.043057901
0.55098616
0.54945353
0.042959118
0.025350587
0.010401778
0.0016565579
0.0015932624
0.0097365603
0.023575347
0.039643983
0.61595127
0.61795843
0.039739075
0.023633537
0.0097613669
0.0015952196
0.0015975676
0.0097918448
0.023707495
0.039860281
0.62022369
0.62260442
0.03996959
0.023773488
0.0098195106
0.0015997135
0.0016021593
0.0098512784
0.023851038
0.040097442
0.62507216
0.627595
0.040208992
0.023918045
0.0098792529
0.001604332
0.0016067704
0.0099107461
0.023995016
0.040336087
0.63017038
0.63277469
0.040445855
0.02406076
0.009938145
0.0016089091
0.0016112973
0.0099688496
0.024135929
0.040570186
0.63540834
0.63804921
0.040677398
0.024199542
0.0099951887
0.0016133541
0.0016156204
0.010023979
0.024269812
0.040793367
0.64070082
0.6433433
0.040894386
0.024329525
0.010048725
0.0016175649
0.0016197234
0.010076065
0.024396408
0.041005202
0.64601908
0.64866422
0.041096462
0.024450602
0.010098786
0.0016215287
0.0016235987
0.010125188
0.024515292
0.041203961
0.65130782
0.65392615
0.041289037
0.024565704
0.010146451
0.0016252718
0.00162721
0.010171483
0.024626447
0.041389483
0.65653661
0.65910526
0.041470665
0.024674288
0.010191807
0.0016287476
0.0016305202
0.010215364
0.024730147
0.041561715
0.6616564
0.6641477
0.041640548
0.024776253
0.01023512
0.0016319325
0.0016335543
0.010257983
0.024830548
0.041729711
0.66664848
0.66911598
0.041798239
0.02487082
0.01027537
0.0016347373
0.0016361916
0.010294011
0.024915584
0.041870552
0.67158115
0.67400264
0.041928196
0.024946188
0.010305764
0.0016374497
0.0016392848
0.010316666
0.024978755
0.04199023
0.67657008
0.67939072
0.042029149
0.024991403
0.010317849
0.0016412691
0.0016443427
0.010315565
0.025001425
0.042069443
0.6827257
0.68684061
0.04207564
0.024982521
0.010299374
0.0016482233
0.0016542235
0.01027755
0.024952731
0.0420692
0.6921922
0.69945856
0.042031047
0.024898385
0.010248975
0.0016633676
0.0016805522
0.010246743
0.024892218
0.042081834
0.70971933
0.72424634
0.042426492
0.025061277
0.01029092
0.0017066939
0.0017504669
0.010604107
0.025915434
0.043748412
0.74936458
0.77240953
0.046461165
0.027744045
0.011456791
0.0018135599
0.0018581656
0.012075766
0.029182393
0.048412477
0.77552818
0.7139232
0.058054627
0.033715621
0.01357669
0.0019328253
0.001924652
0.012840799
0.031544046
0.053563566
0.72240206
0.70519985
0.049007349
0.029005997
0.011875826
0.0018656984
0.0018542134
0.011965008
0.029538902
0.050578408
0.68378421
0.65017151
0.047725195
0.027871074
0.011257475
0.0017962861
0.0017699352
0.011206537
0.027494025
0.046920645
0.6332955
0.62211894
0.046629515
0.027370028
0.011168134
0.0017494189
0.0017381916
0.011173767
0.027358931
0.046553488
0.61491533
0.60991122
0.046505496
0.027355158
0.011184158
0.0017312749
0.0017267944
0.011191724
0.027349764
0.046461646
0.6062895
0.60347104
0.046410928
0.027334007
0.011191473
0.0017234358
0.0017212536
0.011188481
0.027315801
0.046362875
0.60122953
0.59921017
0.046304455
0.027286471
0.011178425
0.0017193548
0.0017179877
0.01116614
0.027253806
0.046243626
0.59733182
0.595359
0.046171889
0.027211284
0.011148211
0.0017164656
0.0017151574
0.011129894
0.027167484
0.046097203
0.59339595
0.59135778
0.046013387
0.027117442
0.011108415
0.0017135232
0.0017120108
0.011087616
0.027066983
0.045926343
0.5893428
0.58721961
0.045835247
0.02701257
0.011064533
0.0017101933
0.0017085157
0.011042365
0.026958363
0.045742269
0.58509369
0.5828741
0.045640597
0.026898108
0.011017324
0.0017065078
0.0017046562
0.010993563
0.026839596
0.04554046
0.5806889
0.57843943
0.045432072
0.02677539
0.010967051
0.001702504
0.001700505
0.010941637
0.026712686
0.045325088
0.57623217
0.57397449
0.045210399
0.026644628
0.010913588
0.001698226
0.0016960914
0.010886421
0.026577547
0.04509621
0.57175047
0.5694811
0.044974575
0.026505236
0.010856657
0.0016936885
0.0016914329
0.010827835
0.026434169
0.04485399
0.56725414
0.56498782
0.044728637
0.026359355
0.010796956
0.0016889487
0.001686593
0.010766608
0.026284394
0.044601415
0.56278217
0.56055874
0.044473214
0.026207527
0.010734793
0.0016840445
0.0016816374
0.010703644
0.026130715
0.044343145
0.55841339
0.55626175
0.044212399
0.026052206
0.010671147
0.0016790525
0.0016766455
0.01063997
0.025975607
0.044083238
0.55420369
0.55217867
0.043953585
0.025897621
0.010607658
0.0016740883
0.0016718226
0.010578755
0.025827646
0.043837159
0.55036839
0.55077956
0.043858044
0.02583771
0.010582003
0.0016719441
0.0016742247
0.010609743
0.025903254
0.043963677
0.55239466
0.55428579
0.044083316
0.025974337
0.010639123
0.0016765193
0.0016790663
0.010671144
0.026051977
0.044211632
0.55632092
0.55841991
0.044337387
0.026126322
0.010701715
0.0016814473
0.00168404
0.010734318
0.026205717
0.044469182
0.56057288
0.56276712
0.044595553
0.026280186
0.010764845
0.0016864223
0.0016889896
0.010797021
0.026358728
0.044726321
0.56499479
0.56724599
0.04485125
0.026431778
0.010826795
0.0016913126
0.0016937832
0.010857558
0.026506914
0.044976461
0.56951622
0.57177736
0.045095094
0.0265761
0.01088574
0.00169599
0.0016983368
0.010914831
0.026647323
0.045214284
0.57405196
0.57628844
0.045324436
0.026711382
0.010940957
0.0017003907
0.0017025944
0.010968157
0.026777942
0.045436062
0.57853997
0.58075793
0.045537347
0.026836757
0.010992287
0.0017044945
0.0017065754
0.011018091
0.026899682
0.045642826
0.58297067
0.58516813
0.045737058
0.026954354
0.011040725
0.0017083354
0.0017102933
0.011065506
0.027014249
0.045837182
0.58735509
0.58950343
0.045924779
0.027065245
0.011086982
0.0017119086
0.0017137295
0.011110773
0.027122286
0.046020542
0.59161667
0.59369732
0.046101671
0.02716926
0.011130767
0.001715162
0.0017167845
0.011152121
0.027219681
0.04618502
0.59576658
0.59781298
0.046253211
0.027258308
0.011168214
0.0017181098
0.0017198564
0.011184267
0.027299059
0.046325296
0.59987963
0.60210422
0.046385185
0.027328025
0.011194278
0.0017216449
0.0017243035
0.011203413
0.027358876
0.046451046
0.60467867
0.60783943
0.046509795
0.027379428
0.011206588
0.0017276253
0.0017326311
0.011209165
0.027403652
0.046579188
0.61189762
0.61723485
0.046639444
0.027417267
0.011205446
0.001739446
0.0017509984
0.011213333
0.027449049
0.046736447
0.62469613
0.63575286
0.047006163
0.027568499
0.011260297
0.0017713183
0.0018017572
0.011387276
0.028007376
0.047850927
0.65271676
0.68405268
0.050311085
0.029493143
0.011944929
0.0018485966
0.0018964706
0.012515633
0.030755474
0.052595432
0.7101039
0.72261115
0.050917069
0.030124968
0.01234494
0.001872454
1.7112205
3.0147075
2.1832858
0.77772319
0.048519476
0.029190726
0.012051362
0.0018595547
0.0018941582
0.012725057
0.031569102
0.054516485
0.73145242
0.0020632924
0.014700884
0.037191174
0.065600055
0.5439896
0.47385704
0.062574511
0.035448083
0.01401333
0.001987793
0.0019924016
0.01393457
0.0353367
0.062473657
0.471354
0.63217561
0.060122505
0.034379367
0.013751554
0.0019631787
1.1558875
1.37654
2.712225
2.1613879
8.2224649
8.2795036
8.3210036
8.2223937
8.4445711
8.4114297
8.3319162
8.3426471
0.0016567111
0.010403527
0.025354922
0.042966104
0.54944088
0.55102349
0.043055432
0.025409972
0.010427392
0.0016586692
0.0016611499
0.01045903
0.025487036
0.0431827
0.5529288
0.55498133
0.043297928
0.025555953
0.010487853
0.0016634219
0.0016660351
0.010521435
0.025638564
0.043435602
0.55709943
0.55927092
0.043553849
0.025708828
0.010550632
0.0016683312
0.0016709151
0.010583666
0.025790281
0.043690119
0.56148315
0.56371403
0.043804009
0.025857957
0.01061188
0.0016731574
0.0016757108
0.010644477
0.025938639
0.043939398
0.56596539
0.56823032
0.044049014
0.026003522
0.01067151
0.0016778697
0.001680332
0.010702798
0.02608108
0.044179388
0.57049697
0.57276346
0.044282938
0.026142143
0.010728247
0.0016823745
0.0016847218
0.010757977
0.026215866
0.044406985
0.57502887
0.57728394
0.044504591
0.026273068
0.010781804
0.0016866323
0.001688835
0.010809654
0.026341911
0.044620316
0.57952563
0.58175642
0.044711193
0.026394896
0.010831831
0.0016905999
0.0016926653
0.010858193
0.026459587
0.044819617
0.58397535
0.58616673
0.044902115
0.02650815
0.010878986
0.0016942908
0.001696263
0.010904976
0.026571267
0.045007486
0.58833498
0.59045486
0.045087085
0.026617731
0.010925053
0.0016977713
0.0016995881
0.010949826
0.026677434
0.045187027
0.59255158
0.59464606
0.045256099
0.026718156
0.010967814
0.0017008979
0.0017025789
0.010989044
0.026769532
0.045341296
0.5967408
0.59883197
0.045400206
0.026800893
0.011001734
0.0017039645
0.0017060184
0.011015579
0.026839552
0.045473113
0.60107975
0.6036748
0.045519622
0.026857564
0.011020164
0.0017082128
0.0017117635
0.011026665
0.026886702
0.045590665
0.60690153
0.61109781
0.045638709
0.026896763
0.011024285
0.0017163921
0.0017238612
0.011028143
0.026927141
0.045724953
0.61676424
0.62480093
0.045847539
0.026975321
0.011042295
0.0017356544
0.0017570094
0.011111375
0.027166662
0.046225704
0.63655611
0.65374334
0.047165723
0.027664188
0.011235737
0.0017854245
0.0018384698
0.011921294
0.029330546
0.049967879
0.68464236
0.70684145
0.050607691
0.029788446
0.012113038
0.0018517026
0.0018895041
0.012696443
0.031530521
0.054465359
0.72708079
0.048190484
0.028925122
0.012030828
0.0018712099
0.001835774
0.011425754
0.027314581
0.045302113
0.78488145
0.67358442
0.05187032
0.030124579
0.012222758
0.0019009971
0.0019625955
0.013678774
0.034249352
0.060250109
0.62664122
0.73706974
0.05121734
0.029903234
0.012235134
0.0018573327
0.00189122
0.012716331
0.031577011
0.054540486
0.72816422
0.70775295
0.0506532
0.029815988
0.012124922
0.0018528018
0.0018395112
0.011933038
0.029358632
0.050015283
0.68530592
0.65425072
0.047207782
0.027690924
0.011246866
0.0017863853
0.001757851
0.011120154
0.02718649
0.046256825
0.63700636
0.62518787
0.045886748
0.026999494
0.011051973
0.0017365234
0.0017245736
0.011034866
0.026942421
0.045749208
0.61709989
0.61134971
0.045670375
0.026915929
0.011031798
0.0017171205
0.0017123577
0.011031871
0.026898422
0.045609619
0.60714651
0.60385281
0.045548144
0.026874669
0.011026765
0.001708849
0.0017065659
0.011020682
0.026851224
0.045492183
0.60129887
0.59901893
0.045429115
0.02681853
0.011008595
0.0017045837
0.0017031569
0.010995072
0.026783631
0.045364483
0.59699758
0.59488178
0.045289481
0.026738771
0.010975941
0.0017015718
0.0017001994
0.010956462
0.026692428
0.045210484
0.59280633
0.59064308
0.045114567
0.026635329
0.010932225
0.0016983998
0.0016967995
0.010910469
0.026583468
0.045026486
0.58852284
0.58632847
0.044931983
0.026526595
0.010886235
0.0016949057
0.0016932013
0.010863851
0.026472372
0.044839669
0.58417268
0.58192826
0.044739787
0.026412692
0.010838857
0.0016911952
0.001689352
0.010815185
0.026354474
0.044640114
0.57971685
0.57743464
0.044534189
0.026291249
0.010788927
0.0016872198
0.0016852246
0.010763417
0.026228119
0.044426046
0.57519685
0.57286906
0.044307442
0.026157646
0.010734458
0.0016828983
0.0016807364
0.010706931
0.026089823
0.044192168
0.57057843
0.56827817
0.044069259
0.026016419
0.010676648
0.0016782993
0.0016760384
0.010647847
0.025945662
0.043949548
0.56602423
0.56375862
0.043823861
0.025870372
0.010616718
0.0016735423
0.0016712057
0.0105867
0.025796541
0.043699001
0.56152278
0.55926156
0.043565345
0.025716626
0.010553815
0.0016686057
0.001666204
0.01052292
0.025641016
0.043438234
0.55706991
0.55489412
0.043304266
0.025560655
0.010489756
0.0016635875
0.0016611924
0.010458872
0.025485295
0.043178022
0.55279823
0.55075905
0.043048996
0.025407501
0.010426594
0.0016586428
0.0016563368
0.010396749
0.025334812
0.04292751
0.54883575
0.54708426
0.042814825
0.025265945
0.010367741
0.0016539954
0.55056052
0.043839757
0.025827496
0.01057833
0.0016717258
0.0016741276
0.010608444
0.025900333
0.043959251
0.55228165
0.55421689
0.044072924
0.025968444
0.010636988
0.0016763834
0.0016790074
0.010670571
0.026050968
0.0442105
0.55626512
0.55838044
0.044330609
0.026122347
0.010700238
0.0016813445
0.0016839898
0.010734024
0.02620561
0.044469849
0.56054405
0.56274074
0.044589162
0.02627625
0.010763321
0.0016863059
0.0016889142
0.010796552
0.026358377
0.044726866
0.56496655
0.56720341
0.044842741
0.026426647
0.010824772
0.0016911491
0.0016936462
0.010856341
0.026504719
0.04497391
0.5694435
0.57166932
0.045082842
0.026568766
0.01088286
0.001695762
0.0016981478
0.010912867
0.026642998
0.045207697
0.57390573
0.5761529
0.045310536
0.026703101
0.01093775
0.00170014
0.001702408
0.010966328
0.02677405
0.045430307
0.57839054
0.58060343
0.045523095
0.026828318
0.010989004
0.0017042319
0.0017063719
0.011016139
0.026895602
0.045636798
0.58280051
0.58496862
0.04572205
0.026945373
0.011037146
0.0017080406
0.0017100359
0.011062849
0.027008484
0.045828252
0.5871193
0.58921414
0.045906313
0.027054241
0.01108256
0.0017115593
0.0017134315
0.011107367
0.027114763
0.046008488
0.59127233
0.59329539
0.046081941
0.027157472
0.011125897
0.001714791
0.0017164541
0.011148364
0.027211909
0.046173049
0.59530078
0.59726247
0.046229702
0.027244902
0.011162649
0.0017176307
0.0017193323
0.011178793
0.027287216
0.046304871
0.59916019
0.60115506
0.046349609
0.027307313
0.011185171
0.0017208824
0.0017233807
0.011191897
0.027334931
0.046411752
0.60341313
0.6061868
0.046446121
0.027340029
0.011187918
0.0017263586
0.0017311524
0.011184067
0.027354899
0.046504571
0.60981527
0.6147684
0.046536738
0.027348191
0.011169404
0.0017376814
0.001749156
0.011166794
0.0273673
0.046625231
0.62195567
0.63301944
0.046897062
0.027478731
0.0112
0.0017692357
0.0017957969
0.011252941
0.027860949
0.047708955
0.64979353
0.6831518
0.050543077
0.029516148
0.011955121
0.0018532693
0.0018648934
0.011866026
0.02898183
0.048965459
0.70430755
0.72118973
0.053523548
0.031519939
0.012829225
0.0019237534
0.0019312434
0.013546424
0.033667947
0.057988314
0.7127061
0.77425551
0.04837678
0.029158559
0.012064057
0.0018571742
0.0018739697
0.012530047
0.030996414
0.053415102
0.73315026
0.72898964
0.052003194
0.030296301
0.012285844
0.0018549993
0.0018089246
0.011437894
0.027496141
0.045372218
0.77278193
0.72233889
0.050921797
0.030125532
0.01234224
0.0018723398
0.0019029036
0.012655463
0.031017898
0.052597103
0.7240537
0.77795713
0.048558528
0.029212841
0.012058443
0.001860223
0.0018953752
0.01273941
0.031606482
0.054578721
0.73215465
0.71031501
0.049865992
0.029407686
0.011968857
0.0018459795
0.0018343689
0.011870718
0.029224868
0.049834848
0.68769449
0.65602148
0.047213136
0.027677102
0.01123496
0.0017845998
0.0017571159
0.011115181
0.027185046
0.046272462
0.63813946
0.6260455
0.045900096
0.02700227
0.011051168
0.001736266
0.0017246369
0.011037763
0.026951301
0.045768391
0.61780536
0.61193269
0.045688321
0.026925816
0.011035746
0.0017173133
0.0017126103
0.011036151
0.026908822
0.045627705
0.60763767
0.60425817
0.045561737
0.026882884
0.011030336
0.0017090885
0.0017067819
0.011023691
0.026858251
0.045504011
0.60160338
0.59925187
0.045435415
0.026822493
0.011010439
0.0017047385
0.0017032745
0.010996456
0.026786823
0.045369926
0.59715524
0.59499985
0.04529257
0.026740664
0.010976816
0.0017016529
0.0017002619
0.010957188
0.02669417
0.045213542
0.59289193
0.59073147
0.045119853
0.026638226
0.010933325
0.0016984799
0.0016968866
0.01091164
0.026586455
0.045031676
0.58861091
0.58641322
0.044935752
0.026528823
0.010887164
0.0016949809
0.0016932763
0.010864814
0.026474808
0.044843902
0.58423488
0.58196814
0.044737548
0.026411783
0.010838715
0.0016912061
0.0016893429
0.01081497
0.026353848
0.044639075
0.57970774
0.57742215
0.0445259
0.026286866
0.01078743
0.0016871325
0.0016851235
0.010762054
0.026224757
0.044420587
0.57513432
0.57283016
0.04430124
0.026154018
0.010733025
0.0016827902
0.0016806481
0.010705918
0.026087592
0.044188884
0.5705455
0.56823617
0.044066797
0.02601481
0.010675924
0.0016782339
0.0016759932
0.010647388
0.025944769
0.043948375
0.56600921
0.56372444
0.04381781
0.025867003
0.010615475
0.0016734575
0.0016711175
0.010585566
0.025793832
0.043694662
0.56147303
0.55924257
0.043561541
0.025714299
0.010552844
0.0016685263
0.0016661379
0.010522166
0.025639337
0.043435701
0.55704725
0.55491824
0.043304444
0.02556052
0.010489577
0.0016635582
0.0016611806
0.010458857
0.025485457
0.043178528
0.55281123
0.55076652
0.04304563
0.025405699
0.010425963
0.0016586004
0.0016562953
0.010396281
0.025333749
0.042925921
0.54882869
0.54708383
0.042809477
0.025262923
0.010366594
0.0016539218
0.54946497
0.042962476
0.025352364
0.010402693
0.0016566351
0.0016588489
0.010429703
0.025415993
0.043064354
0.5510383
0.5529304
0.043178546
0.025484224
0.010458133
0.0016610787
0.0016636188
0.010490346
0.025562486
0.043307665
0.55497094
0.55708894
0.043430508