/*--------------------------------*- C++ -*----------------------------------*\
  =========                 |
  \\      /  F ield         | OpenFOAM: The Open Source CFD Toolbox
   \\    /   O peration     | Website:  https://openfoam.org
    \\  /    A nd           | Version:  7
     \\/     M anipulation  |
\*---------------------------------------------------------------------------*/
FoamFile
{
    version     2.0;
    format      ascii;
    class       volScalarField;
    location    "140";
    object      rho;
}
// * * * * * * * * * * * * * * * * * * * * * * * * * * * * * * * * * * * * * //

dimensions      [1 -3 0 0 0 0 0];

internalField   nonuniform List<scalar> 
24789
(
1.1735644
1.1735677
1.1735707
1.1735742
1.1735939
1.1735817
1.1735616
1.173558
1.1735549
1.1735521
1.1735396
1.1735423
1.1735453
1.1735491
1.1735701
1.1735592
1.1735371
1.1735332
1.1735302
1.173528
1.1735171
1.1735191
1.1735219
1.173526
1.1735489
1.1735391
1.1735154
1.1735112
1.1735085
1.1735069
1.1734975
1.1734987
1.1735013
1.1735056
1.1735298
1.1735209
1.1734962
1.1734918
1.1734894
1.1734887
1.1734804
1.1734808
1.1734831
1.1734874
1.1735124
1.173504
1.1734788
1.1734743
1.1734722
1.1734724
1.1734645
1.173464
1.173466
1.1734704
1.1734957
1.1734871
1.1734618
1.1734574
1.1734556
1.1734566
1.1734481
1.1734469
1.1734485
1.1734529
1.173478
1.173468
1.1734431
1.1734388
1.1734373
1.1734389
1.1734283
1.1734265
1.1734278
1.1734321
1.1734568
1.1734436
1.1734191
1.1734149
1.1734136
1.1734157
1.1734007
1.1733985
1.1733998
1.1734039
1.173428
1.1734085
1.1733842
1.17338
1.1733787
1.173381
1.1733567
1.1733547
1.173356
1.1733603
1.1733847
1.1733549
1.1733294
1.173325
1.1733234
1.1733249
1.1732823
1.173282
1.1732844
1.1732893
1.1733173
1.1732696
1.1732358
1.17323
1.1732262
1.1732242
1.1731436
1.1731502
1.1731567
1.1731644
1.173209
1.173132
1.1730682
1.173057
1.1730459
1.1730317
1.1728777
1.1729039
1.1729225
1.1729394
1.173035
1.1729126
1.1727679
1.1727421
1.1727124
1.1726688
1.1723952
1.1724623
1.1725077
1.1725464
1.172761
1.1725786
1.1722742
1.1722188
1.1721531
1.1720557
1.1716225
1.1717551
1.1718448
1.1719204
1.1723252
1.1720312
1.1715094
1.1714115
1.1712999
1.1711445
1.1710157
1.1711566
1.1712856
1.1714106
1.1720761
1.1715467
1.1709496
1.170829
1.1707095
1.1706046
1.1654765
1.1658656
1.1661779
1.1664716
1.1686077
1.1732763
1.1734024
1.1732437
1.1730894
1.1728673
1.1745838
1.1748022
1.1749238
1.1750545
1.1757074
1.1773722
1.1770262
1.1769237
1.1768041
1.1766147
1.1802132
1.1805148
1.180732
1.1808973
1.1808905
1.1767357
1.1745957
1.1743621
1.1741628
1.1738045
1.1752326
1.1753623
1.1754201
1.1754651
1.1758149
1.1722672
1.1706325
1.1702711
1.1699192
1.1694606
1.1670993
1.1673628
1.1675564
1.1677408
1.1692601
1.1716486
1.170901
1.1707827
1.1706684
1.1705659
1.1709903
1.1711202
1.1712387
1.1713541
1.172083
1.1720626
1.1714863
1.1713939
1.1712904
1.1711523
1.1716253
1.1717478
1.1718326
1.1719047
1.1723548
1.1726039
1.172259
1.1722053
1.172142
1.1720496
1.1723837
1.1724491
1.1724937
1.1725315
1.172778
1.1729264
1.1727575
1.1727319
1.1727023
1.1726588
1.1728714
1.1728983
1.172917
1.1729338
1.1730446
1.1731401
1.1730671
1.1730563
1.1730452
1.1730307
1.173146
1.1731526
1.1731588
1.173166
1.1732143
1.1732741
1.1732391
1.173234
1.1732309
1.1732295
1.1732882
1.173287
1.1732887
1.1732928
1.1733201
1.1733572
1.1733328
1.1733292
1.1733285
1.1733312
1.1733617
1.1733586
1.1733591
1.1733627
1.1733859
1.1734096
1.1733859
1.1733824
1.1733821
1.1733855
1.173403
1.1734
1.1734006
1.1734042
1.1734283
1.1734438
1.1734186
1.1734149
1.1734144
1.1734175
1.1734285
1.1734259
1.1734269
1.1734308
1.1734566
1.1734679
1.1734412
1.1734373
1.1734363
1.1734388
1.1734465
1.1734448
1.1734462
1.1734503
1.1734776
1.1734867
1.1734588
1.1734547
1.1734533
1.1734548
1.1734615
1.1734608
1.1734626
1.1734669
1.1734952
1.1735035
1.173475
1.1734708
1.1734689
1.1734694
1.1734765
1.1734767
1.173479
1.1734834
1.1735118
1.1735205
1.1734921
1.1734878
1.1734855
1.1734851
1.1734932
1.1734943
1.173497
1.1735013
1.1735293
1.1735387
1.1735112
1.173507
1.1735043
1.1735029
1.1735125
1.1735146
1.1735175
1.1735217
1.1735486
1.173559
1.173533
1.173529
1.1735261
1.1735238
1.173535
1.1735378
1.173541
1.1735449
1.17357
1.1735818
1.1735579
1.1735541
1.173551
1.1735481
1.1735604
1.1735636
1.1735666
1.1735702
1.173594
1.1735848
1.1735607
1.1735571
1.1735542
1.1735515
1.1735407
1.1735431
1.1735459
1.1735496
1.1735736
1.1735626
1.1735375
1.1735337
1.1735309
1.1735289
1.1735184
1.1735202
1.1735229
1.1735268
1.1735525
1.1735429
1.1735166
1.1735126
1.17351
1.1735088
1.1734998
1.1735007
1.1735031
1.1735072
1.1735337
1.1735252
1.1734983
1.1734942
1.1734921
1.1734918
1.1734841
1.1734841
1.173486
1.1734901
1.1735168
1.1735089
1.1734822
1.1734782
1.1734765
1.1734772
1.1734704
1.1734692
1.1734707
1.1734746
1.1735008
1.1734928
1.1734671
1.1734633
1.1734621
1.1734639
1.1734569
1.1734547
1.1734555
1.1734593
1.173484
1.1734748
1.1734508
1.1734473
1.1734467
1.1734494
1.1734405
1.1734374
1.1734377
1.1734411
1.1734639
1.1734519
1.17343
1.1734268
1.1734267
1.1734302
1.1734171
1.1734134
1.1734133
1.1734164
1.1734368
1.173419
1.173399
1.173396
1.1733962
1.1734002
1.173378
1.1733741
1.1733739
1.1733768
1.1733961
1.1733687
1.173348
1.173345
1.1733449
1.1733483
1.1733069
1.173305
1.1733059
1.1733093
1.1733326
1.1732882
1.1732571
1.1732525
1.17325
1.1732492
1.1731668
1.1731729
1.1731785
1.1731851
1.1732296
1.1731577
1.1730877
1.1730773
1.1730666
1.1730521
1.1728935
1.1729206
1.1729392
1.1729556
1.1730639
1.1729497
1.1727814
1.1727559
1.1727261
1.1726819
1.1724096
1.1724754
1.17252
1.1725578
1.172804
1.1726344
1.1722895
1.1722361
1.1721733
1.1720816
1.1716777
1.1717971
1.1718798
1.1719505
1.1723954
1.1720891
1.1715331
1.1714448
1.1713459
1.1712135
1.1710371
1.1711529
1.1712601
1.1713673
1.1720596
1.1719088
1.1711598
1.1710445
1.1709409
1.1708771
1.1681328
1.1683396
1.1684733
1.1686006
1.169629
1.1704498
1.1672451
1.1667541
1.1663072
1.1657232
1.1821882
1.1820833
1.1819439
1.1817486
1.1797757
1.1760317
1.173993
1.1737345
1.1735045
1.1731095
1.1799593
1.1802946
1.1805128
1.1806868
1.180418
1.1774503
1.1772984
1.1772482
1.1771629
1.176948
1.1811911
1.1811366
1.1810189
1.180839
1.17942
1.1704121
1.1680651
1.1675959
1.1671523
1.1666028
1.1676194
1.1678381
1.1679667
1.1681012
1.1692041
1.1717162
1.1710572
1.1709349
1.1708231
1.1707383
1.1710103
1.1711416
1.1712592
1.1713725
1.1719811
1.1720457
1.1715529
1.1714611
1.171356
1.171211
1.1717071
1.1718322
1.1719166
1.1719874
1.1723698
1.1726165
1.1723287
1.1722773
1.1722162
1.1721253
1.1724553
1.1725168
1.1725581
1.1725931
1.1727919
1.1729427
1.1728097
1.1727869
1.1727606
1.1727217
1.1729234
1.1729458
1.1729615
1.1729759
1.1730604
1.1731558
1.173101
1.173092
1.1730834
1.1730726
1.1731787
1.1731825
1.173187
1.1731929
1.1732285
1.1732874
1.1732612
1.173257
1.1732551
1.1732556
1.1733093
1.1733068
1.1733076
1.1733111
1.1733319
1.173368
1.1733487
1.1733456
1.1733454
1.1733491
1.1733773
1.1733735
1.1733736
1.1733767
1.1733954
1.1734183
1.1733988
1.1733956
1.1733957
1.1733997
1.173416
1.1734124
1.1734126
1.173416
1.1734359
1.173451
1.1734301
1.1734267
1.1734264
1.17343
1.1734399
1.173437
1.1734376
1.1734413
1.1734629
1.1734737
1.1734512
1.1734475
1.1734469
1.1734496
1.1734569
1.1734548
1.1734559
1.1734598
1.1734827
1.1734915
1.173468
1.1734641
1.1734629
1.1734648
1.1734709
1.1734698
1.1734714
1.1734755
1.1734993
1.1735075
1.1734834
1.1734794
1.1734777
1.1734786
1.1734852
1.1734851
1.1734872
1.1734913
1.1735154
1.1735237
1.1734998
1.1734957
1.1734936
1.1734935
1.1735013
1.1735021
1.1735045
1.1735087
1.1735322
1.1735414
1.1735182
1.1735142
1.1735117
1.1735106
1.17352
1.1735217
1.1735244
1.1735284
1.1735509
1.1735611
1.1735392
1.1735354
1.1735327
1.1735307
1.1735421
1.1735445
1.1735474
1.1735511
1.173572
1.1735832
1.1735624
1.1735589
1.1735561
1.1735536
1.1735556
1.1735583
1.1735611
1.1735646
1.1735848
1.1735737
1.1735532
1.1735495
1.1735467
1.1735443
1.1735325
1.1735346
1.1735374
1.1735413
1.1735628
1.1735527
1.1735305
1.1735265
1.1735237
1.173522
1.1735121
1.1735135
1.1735162
1.1735203
1.1735432
1.1735341
1.1735106
1.1735064
1.1735039
1.173503
1.1734945
1.1734951
1.1734974
1.1735016
1.1735255
1.1735171
1.1734928
1.1734886
1.1734864
1.1734863
1.1734789
1.1734786
1.1734805
1.1734848
1.173509
1.1735008
1.1734765
1.1734723
1.1734705
1.1734713
1.1734636
1.1734625
1.1734641
1.1734683
1.1734925
1.1734836
1.1734596
1.1734554
1.173454
1.1734556
1.1734467
1.1734449
1.1734462
1.1734503
1.173474
1.1734629
1.1734394
1.1734353
1.1734342
1.1734364
1.1734244
1.1734221
1.1734231
1.1734271
1.1734502
1.1734346
1.1734116
1.1734077
1.1734067
1.1734092
1.1733907
1.1733882
1.1733892
1.1733931
1.1734158
1.1733923
1.1733694
1.1733654
1.1733643
1.1733667
1.1733355
1.1733338
1.1733352
1.1733394
1.1733632
1.1733263
1.1732998
1.1732951
1.173293
1.1732936
1.1732364
1.1732383
1.1732419
1.1732475
1.1732794
1.1732196
1.1731768
1.1731693
1.1731631
1.1731567
1.1730464
1.1730604
1.1730713
1.1730822
1.173144
1.173048
1.1729547
1.1729382
1.1729199
1.172894
1.172688
1.1727311
1.1727605
1.172786
1.1729274
1.172777
1.172567
1.1725291
1.1724844
1.1724185
1.1720857
1.1721808
1.1722452
1.1722997
1.172596
1.1723459
1.1719537
1.1718801
1.1717929
1.1716646
1.1711954
1.1713443
1.1714524
1.1715471
1.1720455
1.1720684
1.1714354
1.1713169
1.1711944
1.1710645
1.1707389
1.1708395
1.1709507
1.1710674
1.1716619
1.1688159
1.1671041
1.1668795
1.1666534
1.1663401
1.1704248
1.1707759
1.1710283
1.1713034
1.1724017
1.177892
1.1785646
1.1785632
1.1785244
1.1784177
1.1747921
1.1750519
1.1751905
1.1753213
1.1763309
1.1811545
1.181202
1.1810362
1.1808201
1.1804862
1.1842772
1.1859664
1.1862161
1.1863901
1.1864553
1.1862646
1.1863218
1.1863389
1.1862103
1.1835784
1.1817622
1.1815941
1.1814727
1.181331
1.1810545
1.1795597
1.1797763
1.1799132
1.1800052
1.1800385
1.1783248
1.1786567
1.1786706
1.1786317
1.1785183
1.1772253
1.177401
1.1775083
1.1775659
1.1777236
1.1708561
1.1695577
1.1692215
1.1689172
1.1684607
1.167481
1.1676951
1.1678423
1.1679995
1.169224
1.1716722
1.1710485
1.1709323
1.1708237
1.1707408
1.1710469
1.1711715
1.1712846
1.171394
1.1719797
1.1720371
1.1715586
1.1714696
1.1713681
1.1712275
1.1717175
1.1718372
1.1719186
1.1719873
1.1723598
1.1726076
1.1723269
1.1722769
1.1722179
1.1721308
1.1724564
1.1725155
1.1725555
1.1725896
1.1727845
1.1729362
1.1728051
1.1727827
1.1727571
1.1727197
1.1729195
1.1729412
1.1729567
1.1729709
1.173055
1.1731507
1.1730957
1.1730866
1.173078
1.1730673
1.1731736
1.1731775
1.173182
1.1731881
1.1732244
1.1732836
1.1732565
1.1732521
1.17325
1.1732503
1.1733042
1.1733021
1.1733031
1.1733068
1.1733286
1.1733652
1.1733449
1.1733416
1.1733413
1.1733447
1.1733734
1.1733698
1.1733701
1.1733734
1.173393
1.173416
1.1733959
1.1733926
1.1733926
1.1733964
1.1734128
1.1734094
1.1734098
1.1734133
1.1734339
1.1734491
1.1734276
1.173424
1.1734236
1.173427
1.1734375
1.1734347
1.1734354
1.1734392
1.1734613
1.1734722
1.1734493
1.1734455
1.1734447
1.1734474
1.1734548
1.1734528
1.173454
1.173458
1.1734814
1.1734901
1.1734663
1.1734623
1.1734611
1.1734629
1.1734695
1.1734684
1.17347
1.1734741
1.1734982
1.1735063
1.173482
1.1734779
1.1734762
1.173477
1.1734838
1.1734838
1.1734858
1.1734901
1.1735143
1.1735227
1.1734986
1.1734945
1.1734923
1.1734921
1.1735
1.1735009
1.1735034
1.1735075
1.1735313
1.1735405
1.1735172
1.1735132
1.1735107
1.1735096
1.1735191
1.1735208
1.1735235
1.1735275
1.1735502
1.1735605
1.1735385
1.1735347
1.1735321
1.1735302
1.1735419
1.1735442
1.1735469
1.1735506
1.1735715
1.1735828
1.1735621
1.1735587
1.1735562
1.1735538
1.1735486
1.1735516
1.1735546
1.1735583
1.1735827
1.1735715
1.1735471
1.1735433
1.1735403
1.1735378
1.1735259
1.1735282
1.1735311
1.1735351
1.1735605
1.1735502
1.173524
1.1735199
1.1735172
1.1735153
1.1735054
1.1735069
1.1735096
1.1735137
1.1735404
1.1735312
1.173504
1.1734998
1.1734973
1.1734963
1.1734879
1.1734885
1.1734908
1.173495
1.1735224
1.173514
1.1734864
1.1734822
1.1734801
1.1734801
1.1734728
1.1734724
1.1734742
1.1734784
1.1735057
1.1734976
1.1734704
1.1734663
1.1734647
1.1734657
1.1734585
1.1734571
1.1734585
1.1734625
1.1734892
1.1734804
1.1734542
1.1734502
1.1734491
1.1734511
1.1734429
1.1734406
1.1734415
1.1734453
1.1734706
1.1734597
1.1734351
1.1734314
1.1734307
1.1734335
1.1734222
1.1734192
1.1734197
1.1734233
1.1734469
1.1734318
1.1734087
1.1734053
1.1734049
1.1734082
1.1733902
1.1733869
1.1733872
1.1733906
1.173413
1.1733901
1.1733673
1.1733639
1.1733635
1.1733667
1.1733351
1.1733327
1.1733336
1.1733372
1.1733609
1.1733248
1.1732968
1.1732927
1.1732909
1.1732918
1.1732314
1.1732337
1.1732372
1.1732426
1.173278
1.1732195
1.1731685
1.1731609
1.1731542
1.1731467
1.1730286
1.1730448
1.1730568
1.1730683
1.1731441
1.1730505
1.1729334
1.1729156
1.1728956
1.1728667
1.1726501
1.1726966
1.1727282
1.1727551
1.1729308
1.1727852
1.172527
1.1724874
1.1724407
1.172372
1.1720364
1.1721318
1.1721972
1.1722528
1.1726089
1.1723687
1.1719044
1.1718306
1.1717444
1.1716205
1.1711505
1.171288
1.1713916
1.1714844
1.1720621
1.1720733
1.171344
1.1712294
1.1711139
1.1709878
1.1707196
1.1708048
1.1709176
1.1710385
1.1717773
1.1694154
1.1680107
1.1678249
1.1676224
1.1673615
1.1688854
1.1693183
1.1696362
1.169985
1.1717517
1.1764775
1.1766117
1.1765685
1.1765083
1.176318
1.1733949
1.1738054
1.1741326
1.1744443
1.1770166
1.1815717
1.1849751
1.1853539
1.1856427
1.1858555
1.1762473
1.1764398
1.176593
1.176724
1.1774563
1.1750654
1.1739461
1.1737479
1.1735638
1.173212
1.1741775
1.1742953
1.1743638
1.1744306
1.1737334
1.1686019
1.1661673
1.1658304
1.1654816
1.1650649
1.1706585
1.170774
1.1708978
1.1710182
1.1715821
1.1720801
1.1714209
1.1712957
1.1711671
1.1710325
1.1711466
1.1712992
1.1714108
1.1715094
1.1720332
1.1723302
1.1719213
1.1718451
1.1717548
1.1716219
1.1720523
1.1721509
1.1722176
1.1722739
1.1725822
1.1727639
1.1725458
1.1725065
1.1724604
1.1723922
1.1726664
1.172711
1.1727415
1.1727678
1.1729153
1.1730372
1.1729396
1.1729224
1.1729034
1.1728765
1.173031
1.1730459
1.1730574
1.1730688
1.1731341
1.1732109
1.1731653
1.1731574
1.1731508
1.173144
1.1732247
1.1732271
1.1732311
1.1732371
1.1732715
1.1733191
1.1732906
1.1732857
1.1732834
1.1732838
1.1733262
1.1733248
1.1733265
1.173331
1.1733566
1.1733863
1.1733618
1.1733576
1.1733564
1.1733588
1.173383
1.1733807
1.1733819
1.1733861
1.1734101
1.1734293
1.1734052
1.1734011
1.1734
1.1734025
1.1734172
1.1734151
1.1734164
1.1734206
1.173445
1.1734581
1.1734335
1.1734293
1.1734281
1.1734303
1.1734403
1.1734387
1.1734402
1.1734445
1.1734694
1.1734792
1.1734541
1.1734498
1.1734484
1.17345
1.1734579
1.1734569
1.1734587
1.1734631
1.1734882
1.1734967
1.1734715
1.1734672
1.1734654
1.1734662
1.1734735
1.1734733
1.1734755
1.1734799
1.173505
1.1735133
1.1734883
1.173484
1.1734818
1.1734818
1.1734897
1.1734904
1.1734928
1.1734972
1.1735218
1.1735306
1.1735064
1.1735021
1.1734997
1.1734988
1.1735078
1.1735093
1.173512
1.1735163
1.1735398
1.1735496
1.1735267
1.1735227
1.17352
1.1735183
1.1735287
1.1735309
1.1735339
1.1735378
1.1735599
1.1735708
1.1735499
1.1735461
1.1735433
1.1735409
1.1735516
1.1735545
1.1735575
1.1735611
1.173582
1.1735847
1.1735643
1.1735608
1.173558
1.1735554
1.1735443
1.1735467
1.1735495
1.1735532
1.1735736
1.1735627
1.1735412
1.1735373
1.1735346
1.1735326
1.173522
1.1735238
1.1735265
1.1735305
1.1735527
1.1735431
1.1735201
1.1735161
1.1735135
1.1735122
1.173503
1.1735041
1.1735065
1.1735107
1.1735341
1.1735255
1.1735015
1.1734973
1.1734951
1.1734946
1.1734867
1.1734869
1.1734889
1.1734932
1.1735173
1.1735091
1.1734847
1.1734805
1.1734786
1.1734791
1.1734717
1.1734709
1.1734727
1.1734769
1.173501
1.1734928
1.1734687
1.1734646
1.1734631
1.1734645
1.1734564
1.1734548
1.1734562
1.1734603
1.173484
1.1734745
1.1734509
1.1734469
1.1734458
1.1734479
1.1734378
1.1734355
1.1734365
1.1734405
1.1734635
1.1734509
1.1734281
1.1734242
1.1734234
1.173426
1.1734116
1.1734089
1.1734097
1.1734135
1.1734356
1.1734169
1.1733949
1.1733912
1.1733904
1.1733934
1.1733701
1.1733674
1.1733682
1.1733719
1.1733937
1.1733649
1.1733422
1.1733384
1.1733374
1.1733399
1.1732992
1.1732978
1.1732994
1.1733036
1.1733282
1.1732818
1.1732521
1.1732471
1.1732443
1.1732437
1.1731663
1.1731712
1.1731764
1.1731831
1.1732225
1.1731476
1.1730903
1.1730805
1.1730711
1.1730593
1.1729116
1.1729346
1.1729509
1.172966
1.1730525
1.1729332
1.1728009
1.1727776
1.1727511
1.1727125
1.1724525
1.172512
1.1725528
1.1725878
1.1727842
1.1726052
1.1723269
1.1722767
1.1722179
1.1721319
1.1717273
1.1718443
1.1719242
1.1719924
1.1723598
1.1720535
1.1715881
1.1715006
1.1714015
1.1712646
1.1711118
1.1712331
1.1713455
1.1714564
1.1720522
1.1717639
1.1711867
1.1710755
1.1709726
1.1708922
1.1669587
1.1672454
1.1674498
1.1676398
1.1690196
1.1712009
1.1693824
1.1690098
1.1686901
1.1682569
1.1812561
1.1812129
1.1811318
1.1809933
1.1794845
1.1753775
1.1737686
1.1735686
1.1734047
1.1731118
1.1779772
1.1761363
1.1775338
1.1768157
1.1749593
1.174741
1.1745366
1.1742338
1.1790716
1.1791653
1.1791802
1.1791463
1.1787868
1.1830344
1.1831546
1.1831919
1.1831377
1.1828424
1.1800099
1.1806137
1.1805576
1.1804462
1.1801386
1.1754471
1.1759163
1.1761849
1.1764529
1.1776592
1.180029
1.1800375
1.1799757
1.1798467
1.1796195
1.1810112
1.1838714
1.1800334
1.1812954
1.1738742
1.1739001
1.1738567
1.1738742
1.1738455
1.1738477
1.1738581
1.1738477
1.173554
1.1735568
1.1735598
1.1735634
1.1735839
1.173573
1.1735523
1.1735486
1.1735456
1.1735432
1.1735317
1.1735339
1.1735367
1.1735405
1.1735621
1.1735521
1.1735298
1.1735259
1.1735232
1.1735215
1.173512
1.1735133
1.1735158
1.1735198
1.1735426
1.1735335
1.1735102
1.1735062
1.1735038
1.1735031
1.1734949
1.1734953
1.1734974
1.1735015
1.1735249
1.1735166
1.1734929
1.1734888
1.1734868
1.173487
1.1734799
1.1734793
1.173481
1.173485
1.1735086
1.1735006
1.1734771
1.1734731
1.1734716
1.1734728
1.1734657
1.1734641
1.1734653
1.1734693
1.1734923
1.1734837
1.1734611
1.1734572
1.1734562
1.1734582
1.1734503
1.1734478
1.1734486
1.1734523
1.1734742
1.1734635
1.1734421
1.1734386
1.173438
1.173441
1.1734301
1.1734269
1.1734272
1.1734307
1.1734511
1.1734361
1.1734162
1.1734129
1.1734126
1.1734162
1.1733991
1.1733955
1.1733956
1.1733988
1.1734177
1.1733954
1.1733766
1.1733735
1.1733734
1.1733771
1.1733481
1.1733448
1.173345
1.1733481
1.173367
1.1733316
1.1733107
1.1733073
1.1733065
1.1733089
1.1732551
1.1732547
1.1732566
1.1732607
1.1732858
1.1732281
1.1731928
1.173187
1.1731828
1.1731792
1.1730739
1.1730843
1.1730927
1.1731014
1.1731537
1.1730606
1.1729783
1.1729645
1.1729495
1.1729283
1.1727311
1.1727676
1.1727926
1.1728142
1.17294
1.1727928
1.1726015
1.1725682
1.1725292
1.1724716
1.1721511
1.1722363
1.1722938
1.1723423
1.172613
1.1723649
1.1720011
1.1719342
1.1718549
1.1717383
1.1712758
1.1714077
1.1715056
1.1715924
1.1720569
1.172084
1.1715151
1.1714068
1.1712972
1.1711884
1.1706693
1.1707575
1.1708597
1.1709658
1.1714789
1.168712
1.1666319
1.1664006
1.1661923
1.1659181
1.1740577
1.1742274
1.1742962
1.1743716
1.1737012
1.1742641
1.1725195
1.1722629
1.1720224
1.1715875
1.1781619
1.1783051
1.1784221
1.1784779
1.1788323
1.1804153
1.1803492
1.18028
1.180063
1.1778647
1.178313
1.1785053
1.1787075
1.1792525
1.1792261
1.1791204
1.178899
1.1786821
1.1782568
1.1880725
1.1878493
1.1876053
1.1872284
1.1841806
1.1831947
1.1847207
1.1848158
1.1848349
1.184807
1.178146
1.1782904
1.1784084
1.1784644
1.1788175
1.1742468
1.1725065
1.17225
1.1720097
1.1715765
1.174038
1.1742082
1.1742763
1.1743513
1.1736781
1.1686774
1.1666049
1.1663743
1.1661674
1.1658958
1.1706485
1.1707356
1.170837
1.1709421
1.1714484
1.1720564
1.1714938
1.1713859
1.1712768
1.1711691
1.1712534
1.1713844
1.171482
1.1715687
1.172031
1.1723415
1.1719782
1.1719112
1.1718321
1.1717162
1.1721285
1.1722136
1.1722712
1.1723199
1.1725922
1.1727743
1.1725808
1.1725471
1.172508
1.1724503
1.1727099
1.1727468
1.1727721
1.1727943
1.1729236
1.173046
1.1729603
1.172946
1.1729306
1.1729092
1.173056
1.1730668
1.1730757
1.173085
1.1731406
1.1732165
1.173178
1.1731717
1.173167
1.1731631
1.1732391
1.1732393
1.1732417
1.1732465
1.173275
1.1733217
1.1732976
1.1732937
1.1732926
1.1732946
1.173334
1.1733313
1.1733321
1.1733358
1.1733577
1.1733868
1.173365
1.1733614
1.173361
1.1733644
1.1733865
1.1733834
1.173384
1.1733877
1.1734096
1.1734283
1.1734056
1.1734019
1.1734013
1.1734045
1.1734182
1.1734155
1.1734163
1.1734203
1.1734434
1.1734563
1.1734324
1.1734285
1.1734276
1.1734303
1.1734395
1.1734374
1.1734386
1.1734428
1.173467
1.1734768
1.1734521
1.1734479
1.1734467
1.1734485
1.1734559
1.1734547
1.1734563
1.1734606
1.1734857
1.1734941
1.1734688
1.1734645
1.1734628
1.1734638
1.1734708
1.1734705
1.1734726
1.173477
1.1735024
1.1735107
1.1734854
1.1734811
1.1734789
1.173479
1.1734868
1.1734874
1.1734899
1.1734942
1.1735192
1.1735281
1.1735035
1.1734993
1.1734968
1.1734959
1.1735048
1.1735064
1.1735092
1.1735134
1.1735375
1.1735473
1.1735239
1.1735199
1.1735171
1.1735153
1.1735258
1.1735282
1.1735312
1.1735352
1.1735577
1.1735687
1.173547
1.1735432
1.1735402
1.1735377
1.1735502
1.1735532
1.1735564
1.1735601
1.1735806
1.1735927
1.1735724
1.1735691
1.1735664
1.1735635
1.1735841
1.1735639
1.1735604
1.1735575
1.1735548
1.173544
1.1735465
1.1735493
1.173553
1.1735732
1.1735625
1.1735412
1.1735373
1.1735345
1.1735324
1.1735221
1.1735239
1.1735266
1.1735306
1.1735525
1.173543
1.1735203
1.1735162
1.1735137
1.1735124
1.1735034
1.1735043
1.1735068
1.1735109
1.173534
1.1735254
1.1735017
1.1734976
1.1734953
1.1734949
1.173487
1.1734871
1.1734891
1.1734933
1.173517
1.1735089
1.1734849
1.1734807
1.1734788
1.1734793
1.1734718
1.173471
1.1734727
1.1734768
1.1735006
1.1734924
1.1734685
1.1734644
1.1734629
1.1734643
1.1734564
1.1734547
1.173456
1.1734601
1.1734834
1.1734737
1.1734505
1.1734465
1.1734453
1.1734474
1.1734373
1.1734351
1.173436
1.1734399
1.1734625
1.1734497
1.1734271
1.1734233
1.1734224
1.173425
1.1734102
1.1734076
1.1734084
1.1734122
1.1734339
1.1734152
1.1733931
1.1733893
1.1733885
1.1733913
1.1733675
1.1733651
1.173366
1.1733698
1.1733915
1.1733627
1.1733393
1.1733353
1.173334
1.173336
1.173294
1.1732934
1.1732954
1.1732999
1.1733253
1.1732792
1.1732471
1.1732416
1.1732381
1.1732363
1.1731567
1.1731633
1.1731696
1.173177
1.1732192
1.1731447
1.1730815
1.1730705
1.1730595
1.1730451
1.1728922
1.1729188
1.1729375
1.1729543
1.1730486
1.1729299
1.1727835
1.1727575
1.1727273
1.1726829
1.1724101
1.1724784
1.1725245
1.1725635
1.1727793
1.1726022
1.1722919
1.1722356
1.1721687
1.1720696
1.1716394
1.1717732
1.1718639
1.1719403
1.172349
1.1720582
1.1715276
1.1714285
1.1713164
1.1711631
1.1710462
1.1711825
1.171312
1.1714379
1.1720998
1.1716061
1.171029
1.1709071
1.1707818
1.1706639
1.1650809
1.1654998
1.1658498
1.1661875
1.1686219
1.173755
1.1744441
1.1743757
1.1743047
1.1741839
1.1732164
1.1735706
1.1737565
1.1739563
1.1750862
1.1774472
1.1767266
1.1765956
1.1764418
1.1762498
1.1858368
1.1856258
1.1853376
1.1849595
1.181562
1.1769995
1.1744311
1.1741198
1.1737928
1.1733832
1.1784757
1.1785934
1.1786345
1.1786241
1.1783313
1.177458
1.1772767
1.1772225
1.1771332
1.1769158
1.1730985
1.1734958
1.1737268
1.1739868
1.1760456
1.1753573
1.1737355
1.1735354
1.1733714
1.1730755
1.1747453
1.1750098
1.1751501
1.1752822
1.1763007
1.1767879
1.1749269
1.1747065
1.1744997
1.1741925
1.1790254
1.1791203
1.179139
1.1791096
1.1787708
1.1744537
1.1727919
1.172506
1.1722041
1.1717383
1.1737862
1.1739757
1.1740641
1.1741588
1.1736899
1.1686011
1.1665258
1.1662937
1.166082
1.1657866
1.1706571
1.1707499
1.1708559
1.1709627
1.1714635
1.1720605
1.1714957
1.1713868
1.1712766
1.1711678
1.1712543
1.1713852
1.1714828
1.1715692
1.1720273
1.1723414
1.1719821
1.1719156
1.1718372
1.1717223
1.1721346
1.1722184
1.1722753
1.1723235
1.1725919
1.1727743
1.1725834
1.1725503
1.1725116
1.1724549
1.1727132
1.1727493
1.1727742
1.172796
1.1729233
1.1730461
1.1729616
1.1729475
1.1729324
1.1729115
1.1730572
1.1730678
1.1730765
1.1730856
1.1731405
1.1732168
1.1731784
1.1731722
1.1731676
1.1731638
1.1732394
1.1732395
1.173242
1.1732467
1.1732752
1.1733221
1.1732978
1.1732939
1.1732927
1.1732947
1.1733341
1.1733314
1.1733322
1.1733359
1.1733579
1.1733871
1.1733652
1.1733616
1.1733611
1.1733645
1.1733864
1.1733833
1.1733839
1.1733877
1.1734096
1.1734285
1.173406
1.1734022
1.1734017
1.1734049
1.1734183
1.1734155
1.1734164
1.1734204
1.1734434
1.1734563
1.1734326
1.1734287
1.1734278
1.1734304
1.1734396
1.1734375
1.1734387
1.1734429
1.1734671
1.1734769
1.1734522
1.1734481
1.1734468
1.1734487
1.1734558
1.1734546
1.1734563
1.1734606
1.1734857
1.1734943
1.173469
1.1734647
1.173463
1.173464
1.1734709
1.1734706
1.1734727
1.1734771
1.1735024
1.1735108
1.1734856
1.1734814
1.1734793
1.1734793
1.1734868
1.1734875
1.1734899
1.1734943
1.1735193
1.1735282
1.1735036
1.1734994
1.1734969
1.173496
1.173505
1.1735065
1.1735092
1.1735135
1.1735375
1.1735474
1.1735241
1.17352
1.1735173
1.1735156
1.1735262
1.1735285
1.1735314
1.1735354
1.1735578
1.1735688
1.1735473
1.1735436
1.1735407
1.1735383
1.173551
1.1735538
1.1735567
1.1735603
1.1735807
1.1735924
1.1735721
1.1735687
1.1735659
1.173563
1.1735843
1.1735638
1.1735603
1.1735576
1.173555
1.1735436
1.173546
1.1735488
1.1735525
1.1735732
1.1735621
1.1735404
1.1735366
1.1735338
1.1735318
1.1735213
1.1735231
1.1735257
1.1735297
1.1735521
1.1735425
1.1735194
1.1735154
1.1735129
1.1735116
1.1735025
1.1735035
1.1735058
1.1735099
1.1735334
1.1735248
1.1735009
1.1734968
1.1734946
1.1734942
1.1734864
1.1734864
1.1734884
1.1734925
1.1735165
1.1735084
1.1734844
1.1734803
1.1734785
1.1734791
1.1734717
1.1734707
1.1734723
1.1734764
1.1735003
1.1734922
1.1734685
1.1734645
1.1734632
1.1734648
1.1734572
1.1734553
1.1734564
1.1734603
1.1734834
1.173474
1.1734513
1.1734475
1.1734466
1.1734491
1.1734393
1.1734366
1.1734373
1.173441
1.173463
1.1734508
1.1734294
1.1734258
1.1734253
1.1734284
1.1734143
1.173411
1.1734114
1.1734149
1.1734354
1.1734173
1.1733972
1.1733938
1.1733936
1.173397
1.1733746
1.1733712
1.1733715
1.1733747
1.1733943
1.1733663
1.1733462
1.1733428
1.1733423
1.1733454
1.1733053
1.1733033
1.1733043
1.173308
1.1733299
1.1732846
1.1732579
1.1732535
1.1732513
1.1732514
1.173175
1.1731789
1.1731834
1.1731894
1.1732256
1.1731518
1.1730981
1.1730892
1.1730807
1.1730703
1.1729244
1.1729453
1.1729603
1.1729742
1.1730562
1.1729371
1.1728107
1.172789
1.1727643
1.1727282
1.1724702
1.172527
1.1725655
1.1725984
1.1727865
1.1726094
1.1723407
1.1722927
1.1722359
1.172152
1.17174
1.1718549
1.1719332
1.1719992
1.1723558
1.1720483
1.1715884
1.1715024
1.1714054
1.1712751
1.1711882
1.1712963
1.1714058
1.1715139
1.1720749
1.1714861
1.1709849
1.1708792
1.1707746
1.1706823
1.1658143
1.16611
1.1663216
1.1665527
1.1686176
1.1737209
1.1741963
1.1741036
1.1740169
1.1738296
1.1717772
1.1722345
1.1725319
1.1728153
1.1744788
1.1757152
1.1746662
1.1745109
1.1743429
1.1740822
1.1714051
1.1717291
1.1719403
1.1721747
1.1728361
1.1692471
1.1673225
1.1671108
1.1669009
1.1666126
1.1705929
1.170707
1.170826
1.1709474
1.1716892
1.1721031
1.1713906
1.1712756
1.1711569
1.1710308
1.1711599
1.1712978
1.1714023
1.1714949
1.172066
1.1723671
1.1719109
1.1718376
1.1717514
1.1716266
1.1720472
1.1721427
1.1722079
1.1722629
1.1726121
1.1727896
1.1725358
1.1724966
1.1724502
1.1723819
1.1726583
1.1727045
1.1727358
1.1727624
1.1729353
1.1730546
1.1729392
1.1729216
1.1729017
1.172873
1.1730339
1.17305
1.173062
1.1730735
1.1731482
1.1732233
1.1731729
1.1731653
1.1731587
1.1731512
1.1732354
1.1732377
1.1732413
1.1732467
1.1732817
1.1733283
1.1733006
1.1732965
1.1732948
1.1732957
1.1733386
1.1733363
1.1733372
1.1733408
1.1733644
1.1733935
1.1733707
1.1733673
1.173367
1.1733703
1.1733933
1.1733901
1.1733905
1.1733939
1.1734163
1.1734352
1.1734119
1.1734085
1.1734082
1.1734117
1.1734255
1.1734225
1.1734231
1.1734267
1.1734504
1.1734631
1.1734385
1.1734348
1.1734343
1.1734373
1.1734464
1.1734441
1.173445
1.1734488
1.173474
1.1734837
1.1734577
1.1734538
1.1734529
1.1734551
1.1734621
1.1734606
1.173462
1.1734661
1.1734925
1.1735009
1.1734738
1.1734698
1.1734684
1.1734696
1.1734762
1.1734757
1.1734776
1.1734818
1.173509
1.1735172
1.1734897
1.1734856
1.1734837
1.173484
1.1734913
1.1734918
1.1734941
1.1734983
1.1735255
1.1735342
1.1735072
1.1735031
1.1735007
1.1734999
1.1735084
1.1735099
1.1735126
1.1735168
1.1735433
1.1735529
1.1735269
1.1735229
1.1735202
1.1735185
1.1735285
1.1735308
1.1735337
1.1735377
1.173563
1.173574
1.1735498
1.173546
1.1735431
1.1735407
1.1735514
1.1735543
1.1735573
1.1735609
1.1735852
1.1735849
1.1735611
1.1735575
1.1735545
1.1735517
1.173541
1.1735435
1.1735464
1.1735502
1.173574
1.1735631
1.1735382
1.1735343
1.1735315
1.1735294
1.1735192
1.173521
1.1735237
1.1735276
1.1735531
1.1735436
1.1735175
1.1735134
1.1735109
1.1735097
1.1735008
1.1735017
1.1735041
1.1735081
1.1735345
1.1735259
1.1734992
1.1734952
1.1734931
1.1734928
1.1734851
1.173485
1.1734869
1.173491
1.1735175
1.1735095
1.1734829
1.1734789
1.1734773
1.1734781
1.173471
1.1734699
1.1734713
1.1734753
1.1735012
1.1734931
1.1734675
1.1734636
1.1734625
1.1734642
1.173457
1.1734548
1.1734558
1.1734595
1.1734842
1.1734747
1.1734506
1.1734471
1.1734464
1.1734491
1.1734399
1.1734369
1.1734373
1.1734408
1.1734637
1.1734513
1.173429
1.1734258
1.1734256
1.1734291
1.1734152
1.1734117
1.1734117
1.1734149
1.1734358
1.1734176
1.1733971
1.1733941
1.1733942
1.173398
1.1733753
1.1733717
1.1733717
1.1733747
1.1733946
1.1733666
1.1733452
1.1733421
1.1733418
1.1733449
1.173303
1.1733014
1.1733025
1.1733061
1.1733301
1.1732851
1.1732533
1.1732486
1.1732459
1.1732449
1.1731628
1.1731689
1.1731746
1.1731813
1.1732262
1.1731535
1.1730836
1.1730732
1.1730626
1.1730484
1.1728906
1.1729172
1.1729355
1.1729518
1.1730594
1.1729435
1.1727769
1.1727517
1.1727222
1.1726787
1.1724047
1.1724703
1.1725148
1.1725524
1.1727976
1.1726261
1.1722803
1.1722265
1.172163
1.17207
1.1716452
1.1717686
1.1718539
1.1719264
1.1723797
1.1720903
1.1715075
1.1714146
1.1713102
1.1711706
1.1710063
1.1711375
1.1712571
1.1713735
1.1721107
1.1716733
1.170915
1.1707956
1.1706799
1.1705754
1.1671146
1.1673808
1.1675762
1.1677621
1.1692904
1.1722901
1.170652
1.1702893
1.1699356
1.1694749
1.175236
1.1753682
1.1754276
1.1754741
1.1758305
1.1767426
1.174603
1.1743678
1.1741666
1.1738068
1.1801832
1.1804879