/*--------------------------------*- C++ -*----------------------------------*\
  =========                 |
  \\      /  F ield         | OpenFOAM: The Open Source CFD Toolbox
   \\    /   O peration     | Website:  https://openfoam.org
    \\  /    A nd           | Version:  7
     \\/     M anipulation  |
\*---------------------------------------------------------------------------*/
FoamFile
{
    version     2.0;
    format      ascii;
    class       volScalarField;
    location    "390";
    object      omega;
}
// * * * * * * * * * * * * * * * * * * * * * * * * * * * * * * * * * * * * * //

dimensions      [0 0 -1 0 0 0 0];

internalField   nonuniform List<scalar> 
24789
(
96319.042
30016.499
16914.436
12393.239
2050.0698
2057.9952
12432.83
16961.819
30080.891
96537.069
96761.353
30147.7
17010.899
12473.723
2066.0768
2074.3182
12515.774
17061.492
30217.016
96992.482
97230.959
30288.936
17113.874
12559.196
2082.7223
2091.2937
12603.903
17167.934
30363.608
97477.277
97731.997
30441.211
17223.952
12650.102
2100.0388
2108.9629
12697.754
17281.885
30521.95
97995.675
98268.823
30606.011
17341.989
12747.054
2118.0711
2127.3696
12798.02
17404.291
30693.622
98552.158
98846.522
30785.044
17469.034
12850.829
2136.8647
2146.5642
12905.537
17536.296
30880.538
99152.649
99471.421
30980.421
17606.322
12962.323
2156.4764
2166.6094
13021.302
17679.268
31084.994
99803.838
100151.04
31194.661
17755.386
13082.661
2176.9713
2187.5734
13146.569
17834.91
31309.824
100514.35
100895.25
31431.013
17918.124
13213.228
2198.4248
2209.534
13282.888
18005.366
31558.751
101295.43
101716.91
31693.702
18096.978
13355.791
2220.9068
2232.548
13432.267
18193.419
31836.625
102162.14
102634.15
31988.457
18295.138
13512.615
2244.4522
2256.6032
13597.284
18402.763
32150.214
103136.41
103673.26
32323.243
18516.938
13686.709
2268.9672
2281.4819
13781.539
18638.589
32509.108
104250.18
104874.01
32709.882
18768.743
13882.468
2294.0375
2306.4528
13990.614
18908.955
32928.067
105553.31
106299.02
33167.44
19061.489
14107.629
2318.4484
2329.5708
14236.335
19230.101
33433.725
107128.02
108066.49
33733.63
19420.395
14381.256
2339.0685
2345.9606
14551.767
19644.903
34075.084
109145.37
110473.98
34546.194
19937.645
14762.683
2348.4166
2338.246
14986.45
20286.236
35241.276
112398.31
115181.73
35758.997
20517.792
15108.014
2301.7964
2232.1472
15053.104
20473.414
35725.395
117848.45
119828.56
36565.723
20966.21
15401.438
2203.1404
2193.187
15556.355
21446.058
37801.591
125520.43
131412.28
39225.673
22026.136
15781.612
2245.3706
2072.942
15964.274
21634.42
37764.231
124301.02
121244.23
36652.027
21052.152
15558.439
2050.5237
2070.4615
15658.444
21014.664
36427.46
117619.53
114065.11
35668.353
20703.926
15495.542
2099.6001
2116.9385
15256.353
20341.175
35004.705
111259.85
109397.07
34339.942
19963.876
14990.299
2119.8593
2115.7575
14762.987
19661.494
33868.173
108100.77
107041.17
33509.365
19427.706
14582.156
2109.2148
2101.0338
14431.739
19234.332
33209.469
106129.44
105326.13
32948.789
19066.245
14300.584
2091.7329
2081.8299
14182.963
18916.236
32717.46
104600.8
103936.8
32507.537
18779.173
14074.997
2071.6081
2061.2376
13974.483
18652.167
32314.57
103324.92
102758.31
32136.001
18533.454
13880.051
2050.8321
2040.47
13790.962
18422.003
31969.891
102231.37
101739.23
31814.852
18316.964
13706.585
2030.2054
2020.0751
13626.533
18217.751
31669.614
101277.73
100843.46
31533.208
18123.766
13550.358
2010.1005
2000.2951
13477.775
18034.565
31404.664
100433.4
100045
31283.288
17949.699
13408.446
1990.6638
1981.2102
13342.147
17868.837
31168.39
99676.202
99325.117
31059.418
17791.636
13278.614
1971.9333
1962.8325
13217.662
17717.827
30955.907
98990.201
98670.08
30857.371
17647.16
13159.104
1953.9031
1945.1424
13102.759
17579.386
30763.473
98363.502
98069.567
30673.877
17514.351
13048.504
1936.5463
1928.1114
12996.163
17451.809
30588.254
97787.26
97515.766
30506.385
17391.696
12945.683
1919.8345
1911.7094
12896.869
17333.741
30427.95
97254.333
97002.226
30352.772
17277.936
12849.716
1903.7344
1895.9049
12804.016
17224.014
30280.63
96758.972
96523.903
30211.344
17172.037
12759.825
1888.2209
1880.6801
12716.925
17121.723
30144.751
96296.473
96076.053
30080.685
17073.192
12675.421
1873.2815
1866.0239
12635.081
17026.167
30019.1
95862.149
95654.048
29959.622
16980.733
12596.011
1858.8928
1866.0207
12636.091
17027.385
30020.682
95868.438
96082.335
30082.301
17074.442
12676.448
1873.2708
1880.6538
12717.975
17122.993
30146.37
96302.856
96530.629
30213.04
17173.371
12760.918
1888.1784
1895.8454
12805.171
17225.426
30282.438
96766.14
97009.885
30354.735
17279.457
12850.949
1903.6562
1911.6077
12898.19
17335.377
30430.083
97262.45
97524.465
30508.686
17393.463
12947.098
1919.7027
1927.9445
12997.686
17453.725
30590.773
97796.591
98079.575
30676.602
17516.421
13050.135
1936.3354
1944.8777
13104.507
17581.62
30766.432
98374.301
98681.687
30860.585
17649.578
13160.983
1953.5737
1962.4245
13219.672
17720.43
30959.366
99002.814
99338.887
31063.185
17794.44
13280.755
1971.4318
1980.5957
13344.409
17871.834
31172.437
99691.248
100061.53
31287.646
17952.9
13410.834
1989.9158
1999.39
13480.271
18037.959
31409.344
100451.58
100863.56
31538.187
18127.331
13552.934
2009.0134
2018.7774
13629.145
18221.451
31674.87
101299.87
101763.49
31820.267
18320.721
13709.18
2028.6685
2038.668
13793.467
18425.745
31975.39
102257.85
102786.88
32141.4
18537.061
13882.374
2048.7429
2058.848
13976.508
18655.5
32319.682
103355.22
103968.2
32512
18782.024
14076.585
2068.9144
2078.849
14183.991
18918.403
32720.843
104632.12
105355.37
32950.678
19067.676
14301.1
2088.5137
2097.6716
14432.248
19235.484
33209.807
106153.38
107056.46
33510.304
19430.516
14584.249
2105.8672
2112.5888
14769.665
19669.975
33875.221
108109.4
109402.23
34369.941
19987.567
15007.486
2117.2102
2115.7873
15293.527
20401.969
35105.615
111250.42
114174.65
35937.985
20785.815
15527.084
2097.2402
2063.5032
15589.216
20947.939
36370.089
117772.17
120699.99
36619.905
20996.59
15442.704
2043.9566
2061.014
16366.871
21987.167
38128.873
122456.59
131855.04
39447.16
22124.556
15874.432
2235.3879
2157.9794
15321.475
21069.43
36902.796
121366.21
122441.54
36411.084
20486.919
14748.228
2191.0803
2229.2594
15104.23
20607.719
36228.999
119589.21
115920.47
36097.538
20655.226
15208.168
2285.3126
2318.0117
15065.554
20364.168
35331.286
112738.14
110622.27
34576.261
19977.922
14817.629
2326.7839
2325.4044
14595.864
19671.182
34083.732
109167.9
108013.51
33711.421
19432.971
14416.374
2319.7271
2311.2626
14265.658
19234.934
33400.078
107044.1
106202.17
33130.437
19062.796
14133.886
2301.0659
2289.9033
14015.291
18908.692
32890.395
105449.4
104765.07
32672.08
18767.586
13906.172
2278.2282
2266.3198
13804.488
18636.746
32471.234
104136.88
103555.94
32285.226
18514.476
13708.976
2254.3606
2242.4663
13618.899
18399.705
32112.015
103015.5
102510.41
31950.107
18291.53
13533.608
2230.7051
2219.1227
13452.699
18189.349
31798.256
102036.29
101589.55
31655.384
18092.519
13375.715
2207.7418
2196.5772
13302.368
18000.606
31520.597
101167.13
100766.62
31393.142
17913.138
13232.312
2185.6334
2174.9126
13165.324
17829.783
31272.356
100385.93
100023.17
31157.697
17750.2
13101.146
2164.4136
2154.133
13039.579
17674.095
31048.619
99676.721
99345.29
30944.709
17601.217
12980.43
2144.066
2134.2064
12923.525
17531.313
30845.557
99027.677
98722.817
30750.833
17464.212
12868.73
2124.5488
2115.0871
12815.873
17399.67
30660.207
98429.855
98147.965
30573.434
17337.596
12764.882
2105.8151
2096.728
12715.581
17277.748
30490.231
97876.377
97614.398
30410.382
17220.09
12667.948
2087.8212
2079.0906
12621.794
17164.379
30333.681
97361.39
97116.707
30259.934
17110.649
12577.16
2070.5349
2062.1462
12533.826
17058.619
30188.947
96879.75
96650.002
30120.559
17008.379
12491.875
2053.9222
2045.8492
12451.069
16959.637
30054.623
96426.939
96542.183
30081.927
16962.795
12433.64
2058.0529
2066.1228
12474.663
17012.049
30149.208
96767.547
96999.586
30218.837
17062.944
12516.946
2074.3482
2082.735
12560.41
17115.384
30290.997
97238.833
97485.83
30365.887
17169.671
12605.285
2091.2873
2100.0081
12651.521
17225.745
30443.695
97741.216
98005.612
30524.656
17283.89
12699.326
2108.9032
2117.9754
12748.691
17344.093
30608.957
98279.654
98563.962
30696.828
17406.606
12799.803
2127.2314
2136.6763
12852.701
17471.486
30788.52
98859.341
99166.715
30884.355
17538.98
12907.564
2146.3133
2156.149
12964.483
17609.209
30984.58
99486.886
99820.911
31089.569
17682.415
13023.63
2166.1899
2176.4423
13085.15
17758.795
31199.686
100169.95
100535.37
31315.351
17838.605
13149.227
2186.9112
2197.5998
13216.084
17922.148
31437.097
100918.63
101321.6
31565.424
18009.708
13285.919
2208.5122
2219.6503
13359.034
18101.709
31701.064
101746.29
102195.24
31844.753
18198.529
13435.692
2231.0068
2242.568
13516.283
18300.722
31997.415
102671.47
103178.72
32160.13
18408.799
13601.148
2254.3047
2266.1682
13690.82
18523.527
32334.201
103721.56
104305.73
32521.291
18645.712
13785.838
2278.0758
2289.8946
13887.015
18776.534
32723.441
104938.49
105629.11
32943.278
18917.446
13995.378
2301.4164
2312.3377
14112.762
19070.959
33184.692
106389.55
107238.6
33454.115
19241.022
14242.068
2322.1852
2330.1857
14387.977
19433.642
33759.341
108207.23
109336.11
34108.86
19660.661
14559.217
2335.3133
2335.814
14769.343
19953.703
34584.612
110741.71
112759.38
35277.153
20301.72
14991.803
2324.272
2287.7641
15109.465
20537.731
35829.106
115705.69
118965.15
35909.309
20496.777
15018.761
2222.6737
2195.4474
15194.63
20854.223
36595.187
120869.14
125426.52
37805.23
21423.833
15517.497
2178.4056
2226.3576
15690.323
21940.331
39175.791
131648.96
2868.3282
14675.159
21396.328
39326.871
135099.01
130060.78
39711.729
22333.158
15881.607
2328.8821
2055.7211
16912.423
22996.316
40071.164
129214.69
124146.51
38203.598
21956.978
16052.976
2162.0874
2151.3203
15255.468
21073.799
37016.457
122335.82
121337.8
36382.954
20645.16
14993.964
2185.5336
2237.0411
15204.523
20695.513
36217.034
118535.44
115231.47
36074.894
20692.867
15251.61
2297.0033
2328.7771
15082.687
20374.467
35302.718
112291.37
110329.45
34566.241
19984.814
14827.595
2336.0754
2333.0182
14602.789
19676.533
34079.737
108970.57
107873.53
33706.319
19435.951
14420.924
2325.8086
2316.0755
14268.503
19236.313
33395.179
106941.92
106125.87
33125.719
19063.063
14135.496
2304.8559
2292.8769
14016.013
18908.195
32885.894
105391.54
104720.39
32667.992
18766.672
13906.319
2280.5618
2268.1572
13804.284
18635.632
32467.576
104101.67
103527.87
32281.922
18513.254
13708.544
2255.8113
2243.6146
13618.335
18398.462
32109.082
102992.9
102491.92
31947.493
18290.306
13532.968
2231.617
2219.8474
13452.014
18188.151
31795.884
102021
101576.83
31653.256
18091.372
13375.015
2208.3181
2197.0359
13301.674
17999.522
31518.697
101156.57
100757.78
31391.459
17912.134
13231.644
2185.9985
2175.204
13164.692
17828.857
31270.856
100378.32
100016.58
31156.329
17749.336
13100.54
2164.6461
2154.3186
13039.007
17673.297
31047.39
99671.016
99340.305
30943.603
17600.48
12979.894
2144.2131
2134.3223
12923.024
17530.633
30844.554
99023.281
98718.996
30749.916
17463.582
12868.261
2124.6383
2115.1557
12815.437
17399.094
30659.391
98426.502
98144.978
30572.703
17337.07
12764.478
2105.8681
2096.7674
12715.204
17277.262
30489.564
97873.724
97612.026
30409.779
17219.644
12667.597
2087.849
2079.108
12621.467
17163.964
30333.124
97359.246
97114.746
30259.41
17110.258
12576.852
2070.542
2062.1426
12533.534
17058.249
30188.444
96877.969
96648.408
30120.077
17008.029
12491.602
2053.9064
2045.8202
12450.821
16959.318
30054.191
96425.622
95862.258
30018.846
17026.178
12635.13
1865.9779
1873.2495
12675.464
17073.212
30080.686
96076.721
96297.527
30144.9
17121.95
12717.122
1880.6561
1888.2005
12759.978
17172.216
30211.614
96525.222
96760.355
30280.962
17224.33
12804.27
1895.8877
1903.7186
12849.922
17278.189
30353.133
97003.623
97255.609
30428.338
17334.087
12897.148
1911.6966
1919.8235
12945.923
17391.986
30506.766
97516.966
97788.349
30588.661
17452.172
12996.454
1928.1038
1936.5424
13048.773
17514.677
30674.275
98070.502
98364.272
30763.877
17579.751
13103.057
1945.1427
1953.9079
13159.391
17647.503
30857.76
98670.602
98990.484
30956.254
17718.173
13217.951
1962.8422
1971.9495
13278.886
17791.95
31059.715
99325.142
99675.924
31168.626
17869.11
13342.386
1981.2344
1990.701
13408.653
17949.922
31283.424
100044.33
100432.17
31404.681
18034.683
13477.901
2000.351
2010.1858
13550.418
18123.777
31533.009
100841.59
101275.11
31669.202
18217.58
13626.457
2020.2027
2030.3961
13706.395
18316.614
31814.118
101735.53
102226.25
31968.766
18421.356
13790.563
2040.75
2051.2414
13879.483
18532.527
32134.363
102751.21
103314.95
32312.348
18650.857
13973.677
2061.8259
2072.4419
14074.076
18777.579
32504.638
103922.74
104580.87
32714.081
18914.497
14182.053
2082.9886
2093.3027
14300.126
19064.896
32945.401
105297.66
106088.95
33206.921
19234.106
14432.327
2103.087
2111.7813
14584.978
19430.214
33509.641
106984.4
108024.63
33874.098
19668.735
14769.422
2118.7187
2122.8751
15002.325
19979.212
34356.267
109295.01
111113.2
35048.042
20370.804
15276.164
2119.4148
2099.2295
15514.112
20737.158
35768.405
113896.16
117113.8
36333.302
21007.38
15677.754
2065.9844
2043.9666
15735.762
21177.516
36696.283
120405.41
124670.96
37943.903
21730.479
16031.042
2064.2503
2239.0379
15617.728
22019.421
39476.611
132612.24
126818.44
37983.548
21451.978
15484.52
2188.9113
2202.1148
15585.405
21167.845
36871.38
119864.7
118460.95
35803.498
20472.947
14987.268
2231.9841
2300.1946
15100.136
20524.61
35827.287
115557.81
112615.33
35282.298
20300.128
14992.076
2336.6831
2348.1259
14772.024
19952.89
34576.98
110590.6
109199.96
34089.476
19653.925
14558.305
2346.3235
2339.6449
14384.658
19424.583
33739.952
108091.22
107138.93
33435.364
19231.29
14237.573
2330.1508
2318.9622
14107.777
19061.299
33167.07
106303.49
105554.67
32927.021
18908.21
13990.268
2306.8805
2294.3813
13882.015
18767.93
32708.697
104873.92
104249.51
32508.063
18637.822
13781.067
2281.75
2269.1746
13686.343
18516.345
32322.381
103672.41
103135.53
32149.57
18402.291
13596.979
2256.7612
2244.5739
13512.425
18294.832
31987.986
102633.35
102161.47
31836.315
18193.199
13432.128
2232.6408
2220.9792
13355.736
18096.868
31693.489
101716.28
101294.98
31558.65
18005.312
13282.865
2209.589
2198.4679
13213.265
17918.15
31431.004
100894.99
100514.21
31309.881
17834.969
13146.625
2187.6066
2176.9977
13082.74
17755.473
31194.737
100150.96
99803.81
31085.109
17679.379
13021.395
2166.6298
2156.4916
12962.414
17606.429
30980.547
99471.475
99152.801
30880.683
17536.427
12905.644
2146.5743
2136.87
12850.913
17469.134
30785.184
98846.77
98552.489
30693.772
17404.429
12798.13
2127.3709
2118.0692
12747.123
17342.073
30606.148
98269.136
97995.959
30522.074
17282.013
12697.858
2108.9595
2100.0328
12650.145
17224.003
30441.32
97732.352
97477.639
30363.701
17168.047
12603.997
2091.2873
2082.7137
12559.203
17113.877
30288.99
97231.287
96992.606
30216.987
17061.547
12515.828
2074.3121
2066.0732
12473.639
17010.78
30147.556
96761.127
96536.351
30080.523
16961.686
12432.747
2057.9955
2057.9899
12433.979
16963.246
30082.832
96544.219
96768.599
30149.69
17012.375
12474.906
2066.0769
2074.3132
12517
17063.023
30219.072
96999.96
97238.826
30291.106
17115.494
12560.486
2082.708
2091.2616
12605.273
17169.665
30365.941
97485.663
97740.925
30443.739
17225.815
12651.565
2099.9844
2108.8801
12699.323
17283.895
30524.688
98005.195
98279.055
30608.984
17344.168
12748.742
2117.9548
2127.2126
12799.841
17406.661
30696.885
98563.193
98858.389
30788.602
17471.609
12852.789
2136.6603
2146.3006
12907.652
17539.095
30884.411
99165.38
99485.12
30984.649
17609.378
12964.614
2156.14
2166.1841
13023.788
17682.61
31089.629
99818.703
100167.19
31199.75
17759.038
13085.346
2176.4399
2186.9136
13149.471
17838.898
31315.402
100531.93
100914.31
31437.099
17922.471
13216.36
2197.6099
2208.5362
13286.268
18010.107
31565.401
101316.04
101739.18
31700.964
18102.144
13359.428
2219.6958
2231.0879
13436.178
18199.05
31844.517
102185.96
102659.32
31996.998
18301.271
13516.824
2242.7029
2254.5234
13601.815
18409.441
32159.436
103162.64
103700.11
32333.117
18524.205
13691.593
2266.5129
2278.6104
13786.844
18646.537
32519.673
104276.9
104899.64
32721.196
18777.552
13888.344
2290.7065
2302.6255
13997.383
18919.014
32940.406
105576.9
106320.23
33181.685
19073.665
14115.976
2314.0947
2324.6665
14247.587
19246.237
33452.365
107148.61
108095.27
33762.623
19443.776
14397.472
2333.5693
2339.7234
14574.837
19679.546
34127.873
109207.8
110594.14
34614.914
19982.26
14792.364
2341.3143
2331.2388
15027.972
20351.879
35338.451
112594.81
115618.83
36046.725
20614.468
15151.642
2293.9881
2226.2924
15028.751
20499.295
35913.731
118763.6
120661.43
36597.958
20808.846
15111.635
2195.6558
2178.5297
15726.79
21588.194
37868.118
124044.8
1017.9876
607.83892
820.46811
2057.8391
15951.363
21624.354
37783.761
124568.62
123432.51
37116.329
21050.937
15176.351
2163.3704
133009.09
39226.595
21527.153
14886.121
2877.7352
3193.9211
15200.433
21827.695
39446.474
131675.97
132470.07
39999.252
22037.189
15285.407
3204.8305
2502.9646
15349.962
21761.54
38912.499
128632.82
1471.7527
1267.5254
677.42641
840.64411
180.65594
191.0165
189.48444
180.65565
179.70223
184.54837
184.60304
179.34954
96427.737
30054.636
16959.719
12451.136
2046.0103
2054.08
12491.858
17008.333
30120.528
96650.315
96879.696
30188.835
17058.637
12533.877
2062.3082
2070.7056
12577.113
17110.524
30259.746
97116.298
97360.585
30333.415
17164.298
12621.79
2079.2766
2088.0246
12667.855
17219.881
30410.019
97613.214
97874.777
30489.804
17277.56
12715.512
2096.9541
2106.0669
12764.744
17337.306
30572.923
98145.957
98427.438
30659.615
17399.371
12815.736
2115.3674
2124.8634
12868.534
17463.815
30750.119
98719.875
99024.135
30844.767
17530.895
12923.319
2134.5619
2144.4689
12980.192
17600.735
30943.83
99341.172
99671.914
31047.647
17673.574
13039.325
2154.5925
2164.942
13100.882
17749.631
31156.608
100017.41
100379.08
31271.181
17829.188
13165.059
2175.5241
2186.3455
13232.087
17912.542
31391.857
100758.43
101157.14
31519.227
18000.018
13302.188
2197.4113
2208.7246
13375.665
18092.029
31653.952
101577.32
102021.33
31796.801
18188.969
13452.792
2220.2824
2232.0775
13533.979
18291.405
31948.675
102492
102992.79
32110.686
18399.886
13619.599
2244.0887
2256.279
13710.21
18515.194
32284.084
103527.67
104101.66
32470.535
18638.195
13806.414
2268.5824
2280.8872
13909.154
18770.197
32672.123
104721.06
105394.14
32891.784
18912.951
14019.696
2293.0065
2304.6412
14140.258
19069.49
33134.149
106132.52
106956.52
33406.976
19244.522
14274.216
2315.2892
2324.1255
14426.813
19445.396
33721.605
107901.94
109018.04
34098.347
19685.189
14606.402
2330.0627
2331.2387
14821.251
19985.187
34587.901
110407.98
112440.91
35268.63
20326.133
15038.778
2319.7439
2283.6006
15139.987
20539.371
35800.502
115377.15
118328.13
35864.267
20501.609
15044.288
2223.7686
2192.7945
15271.708
20839.999
36484.601
120091.65
123113.85
36989.154
20988.037
15144.596
2176.4507
16925.199
23117.356
40519.371
130533.07
127762.1
40788.139
23481.204
17342.389
2096.4901
2389.8418
16609.498
23023.112
40404.997
126983.55
127698.68
38630.08
21676.386
15278.293
2536.405
2192.9341
15959.177
21921.113
38157.101
123484.7
123114.79
36987.865
20986.387
15142.896
2175.3851
2191.9334
15269.948
20838.519
36483.692
120092.95
118328.81
35863.368
20500.284
15042.772
2223.0503
2282.9686
15138.638
20537.969
35799.086
115376.88
112439.41
35267.723
20325.012
15037.633
2319.193
2330.7519
14820.146
19984.035
34586.715
110406.06
109015.88
34097.057
19684.008
14605.308
2329.6315
2323.7429
14425.766
19444.258
33720.37
107899.51
106953.75
33405.745
19243.42
14273.211
2314.9464
2304.3285
14139.275
19068.394
33132.882
106129.46
105390.86
32890.504
18911.864
14018.729
2292.7136
2280.6091
13908.194
18769.106
32670.816
104717.65
104098.2
32469.194
18637.095
13805.452
2268.3139
2256.018
13709.249
18514.09
32282.736
103524.2
102989.36
32109.332
18398.783
13618.637
2243.8317
2231.8239
13533.029
18290.312
31947.346
102488.69
102018.1
31795.481
18187.885
13451.85
2220.031
2208.476
13374.737
18090.961
31652.668
101574.19
101154.15
31517.991
17998.976
13301.274
2197.166
2186.1053
13231.204
17911.538
31390.686
100755.45
100376.15
31270.051
17828.212
13164.197
2175.2897
2164.7155
13100.041
17748.682
31155.505
100014.48
99668.914
31046.584
17672.65
13038.505
2154.3747
2144.2596
12979.396
17599.834
30942.784
99338.16
99021.087
30843.758
17530.023
12922.55
2134.3615
2124.6736
12867.788
17462.973
30749.161
98716.773
98424.217
30658.653
17398.543
12815.005
2115.1879
2105.8988
12764.033
17336.505
30571.996
98142.613
97871.268
30488.87
17276.769
12714.818
2096.7983
2087.8797
12667.178
17219.11
30409.114
97609.534
97356.765
30332.487
17163.526
12621.123
2079.1409
2070.5764
12576.456
17109.765
30258.817
97112.309
96875.585
30187.898
17057.876
12533.231
2062.1846
2053.9566
12491.22
17007.574
30119.569
96646.054
96423.204
30053.738
16959.009
12450.553
2045.8942
2037.9743
12410.921
16911.781
29990.061
96206.58
2058.1275
12433.243
16962.252
30081.29
96540.727
96764.804
30148.375
17011.484
12474.242
2066.2159
2074.4588
12516.323
17062.104
30217.719
96995.924
97234.26
30289.674
17114.509
12559.766
2082.87
2091.4508
12604.478
17168.567
30364.325
97480.336
97734.752
30441.921
17224.589
12650.684
2100.2071
2109.1442
12698.34
17282.518
30522.627
97998.071
98270.907
30606.657
17342.624
12747.646
2118.2675
2127.5817
12798.62
17404.924
30694.235
98553.947
98847.923
30785.652
17469.672
12851.439
2137.0953
2146.8155
12906.157
17536.935
30881.106
99153.71
99472.184
30980.958
17606.963
12962.953
2156.747
2166.8993
13021.945
17679.913
31085.517
99804.289
100151.26
31195.146
17756.015
13083.297
2177.2811
2187.9021
13147.197
17835.522
31310.282
100514.37
100895.04
31431.407
17918.704
13213.841
2198.7715
2209.9005
13283.473
18005.892
31559.058
101295.06
101716.47
31693.942
18097.438
13356.328
2221.2972
2232.964
13432.738
18193.786
31836.746
102161.68
102633.68
31988.425
18295.384
13513.003
2244.8972
2257.0853
13597.575
18402.852
32149.969
103135.95
103672.98
32322.744
18516.843
13686.885
2269.4987
2282.0768
13781.619
18638.323
32508.385
104250.19
104874.63
32708.976
18768.362
13882.512
2294.7121
2307.2215
13990.772
18908.635
32927.211
105555.34
106304.13
33167.157
19061.634
14108.223
2319.319
2330.5355
14238.02
19231.605
33435.348
107139.39
108091.41
33739.818
19424.82
14385.061
2340.0717
2346.8218
14558.723
19654.172
34089.426
109199.86
110590
34576.685
19952.97
14772.356
2348.7289
2337.4349
14992.275
20299.891
35281.108
112613.84
115554.93
35825.771
20524.127
15100.269
2301.1568
2233.3012
14987.714
20473.467
35803.785
118457.31
119852.64
36870.612
21168.701
15586.79
2203.627
2190.7911
15487.409
21455.212
37987.764
126794.21
132588.94
39503.289
22023.737
15618.291
2241.2045
2066.0757
16031.694
21732.545
37948.466
124657.33
122327.66
37020.858
21074.775
15254.151
2153.2947
2159.5443
15322.979
21069.561
36898.044
121322.58
122431.62
38128.747
21984.9
16365.303
2062.4414
2179.7964
15724.623
21584.667
37866.564
124023.49
125417.21
37799.815
21417.248
15513.386
2179.1199
2058.4372
15946.547
21617.563
37778.202
124571.24
123424.74
37109.627
21046.389
15173.558
2163.3556
2184.4336
15395.941
20957.449
36618.348
119770.49
118048.62
35839.107
20513.461
15064.1
2215.6505
2275.5435
15121.705
20510.034
35744.711
115282.53
112389.74
35262.261
20319.501
15031.445
2314.703
2327.7505
14819.309
19985.333
34590.879
110384.51
109008.82
34101.951
19686.85
14606.345
2327.4386
2322.042
14427.334
19447.272
33724.99
107899.52
106958.27
33409.651
19246.042
14274.699
2313.5389
2303.1139
14140.528
19070.565
33136.214
106137.18
105400.56
32893.446
18913.69
14019.782
2291.6507
2279.6795
13909.119
18770.707
32673.496
104728.23
104108.91
32471.677
18638.546
13806.3
2267.5056
2255.3201
13710.043
18515.42
32285.016
103534.55
102999.06
32111.437
18400.014
13619.391
2243.2338
2231.3155
13533.746
18291.454
31949.269
102497.61
102026.2
31797.242
18188.945
13452.531
2219.6013
2208.1145
13375.379
18091.938
31654.26
101581.49
101160.64
31519.438
17999.876
13301.877
2196.864
2185.8527
13231.758
17912.348
31391.956
100761.31
100381.41
31271.2
17828.953
13164.713
2175.0795
2164.5415
13100.523
17749.366
31156.562
100019.17
99673.114
31047.526
17673.273
13038.953
2154.2312
2144.1423
12979.812
17600.406
30943.642
99341.904
99024.394
30844.541
17530.551
12922.936
2134.267
2124.5978
12868.14
17463.448
30749.841
98719.654
98426.779
30659.272
17398.976
12815.33
2115.1287
2105.8523
12764.334
17336.895
30572.533
98144.96
97873.425
30489.392
17277.138
12715.101
2096.7623
2087.8525
12667.445
17219.452
30409.585
97611.498
97358.513
30332.918
17163.845
12621.374
2079.1197
2070.5603
12576.693
17110.06
30259.208
97113.862
96876.986
30188.25
17058.146
12533.453
2062.1705
2053.9416
12491.426
17007.818
30119.872
96647.394
96424.662
30053.953
16959.197
12450.722
2045.8725
2037.9529
12411.083
16911.972
29990.351
96208.307
2045.9508
12451.24
16959.843
30054.865
96428.811
96651.441
30120.801
17008.599
12492.067
2054.0293
2062.2596
12534.021
17058.822
30189.167
96880.958
97117.764
30260.135
17110.843
12577.352
2070.6563
2079.2207
12621.984
17164.559
30333.865
97362.351
97615.227
30410.548
17220.261
12668.13
2087.9607
2096.8787
12715.758
17277.9
30490.366
97877.073
98148.561
30573.542
17337.737
12765.053
2105.9776
2115.2625
12816.041
17399.803
30660.314
98430.349
98723.205
30750.929
17464.339
12868.898
2124.7388
2134.4141
12923.691
17531.43
30845.635
99027.921
99345.331
30944.78
17601.338
12980.605
2144.2959
2154.3903
13039.772
17674.23
31048.699
99676.469
100022.58
31157.795
17750.366
13101.372
2164.7048
2175.2462
13165.595
17829.991
31272.483
100384.91
100764.87
31393.303
17913.416
13232.658
2186.0209
2197.0337
13302.823
18000.994
31520.815
101164.31
101585.2
31655.709
18093.077
13376.331
2208.2847
2219.772
13453.539
18190.153
31798.743
102029.91
102501.33
31950.831
18292.678
13534.761
2231.4839
2243.4019
13620.474
18401.317
32113.036
103002.72
103538.14
32286.696
18516.749
13711.14
2255.4867
2267.6734
13807.473
18639.964
32473.392
104112.33
104731.36
32675.273
18772.16
13910.317
2279.8484
2291.8242
14021.077
18915.256
32895.261
105403.21
106139.24
33138.08
19072.197
14141.883
2303.292
2313.7249
14276.205
19247.853
33411.603
106959.51
107899.86
33727.162
19449.298
14429.01
2322.2343
2327.6304
14608.293
19689.252
34104.553
109008.46
110384.2
34594.33
19988.105
14821.479
2327.9205
2314.837
15033.773
20322.475
35265.514
112389.33
115284.18
35748.678
20513.282
15124.006
2275.579
2215.7556
15066.615
20517.158
35844.511
118049.22
119772.18
36624.04
20961.289
15398.343
2184.4975
2036.1132
15842.699
21215.517
36656.692
119646.01
116797.39
35892.706
20792.86
15559.688
2040.4269
2079.2173
15415.241
20600.96
35531.009
113880.65
111238.31
34978.181
20300.976
15215.711
2102.6402
2108.9342
14969.938
19945.383
34327.966
109458.83
108202.15
33872.116
19655.562
14754.025
2107.0563
2102.2237
14579.83
19428.965
33520.973
107147.14
106227.2
33223.177
19238.724
14432.675
2095.3647
2087.1084
14303.005
19071.749
32962.203
105412.38
104675.67
32729.752
18921.847
14185.911
2078.0417
2068.499
14078.138
18784.608
32518.565
104001.43
103380.78
32324.445
18657.246
13977.578
2058.6824
2048.7316
13883.093
18538.216
32144.798
102806.77
102273.52
31977.818
18426.407
13793.862
2038.7455
2028.7942
13709.402
18321.101
31821.984
101776.04
101310
31676.08
18221.581
13629.193
2018.9239
2009.1654
13552.916
18127.342
31539.01
100871.8
100458.34
31409.901
18037.863
13480.177
1999.5382
1990.0561
13410.737
17952.776
31288.021
100067.06
99695.793
31172.683
17871.683
13344.294
1980.7256
1971.5519
13280.654
17794.292
31063.325
99342.557
99005.811
30959.457
17720.302
13219.587
1962.535
1953.676
13160.913
17649.455
30860.622
98684.13
98376.25
30766.439
17581.541
13104.474
1944.9728
1936.4241
13050.106
17516.339
30676.596
98081.109
97797.819
30590.779
17453.715
12997.709
1928.0277
1919.7801
12947.104
17393.422
30508.687
97525.459
97263.27
30430.102
17335.422
12898.26
1911.6809
1903.7251
12850.972
17279.441
30354.759
97010.615
96766.787
30282.456
17225.499
12805.263
1895.913
1888.2423
12760.917
17173.319
30213.004
96531.158
96303.073
30146.199
17122.983
12718.01
1880.7137
1873.3212
12676.282
17074.165
30081.859
96082.002
95867.451
30019.774
17026.97
12635.832
1866.0563
1866.1382
12635.661
17026.808
30019.805
95866.453
96080.002
30081.513
17073.917
12676.061
1873.4074
1880.8084
12717.571
17122.438
30145.55
96300.246
96527.545
30212.13
17172.748
12760.469
1888.3551
1896.0465
12804.662
17224.717
30281.388
96762.427
97005.468
30353.518
17278.644
12850.368
1903.8856
1911.8721
12897.531
17334.448
30428.685
97257.288
97518.508
30507.1
17392.407
12946.351
1920.0094
1928.2995
12996.844
17452.531
30588.979
97789.8
98071.933
30674.589
17515.081
13049.195
1936.7478
1945.356
13103.463
17580.127
30764.196
98365.73
98672.149
30858.102
17647.919
13159.826
1954.1281
1963.0677
13218.402
17718.599
30956.639
98992.204
99327.046
31060.197
17792.424
13279.367
1972.1791
1981.4647
13342.909
17869.636
31169.168
99678.071
100046.88
31284.084
17950.513
13409.225
1990.9268
2000.5659
13478.565
18035.393
31405.486
100435.28
100845.43
31534.046
18124.599
13551.153
2010.3789
2020.3603
13627.327
18218.588
31670.474
101279.78
101741.36
31815.701
18317.793
13707.381
2030.4981
2040.7722
13791.757
18422.832
31970.752
102233.64
102760.7
32136.856
18534.272
13880.843
2051.1461
2061.568
13975.265
18652.973
32315.422
103327.33
103939.24
32508.331
18779.954
14075.774
2071.9595
2082.2106
14183.735
18917
32718.225
104603.2
105328.44
32949.516
19066.995
14301.359
2092.1524
2101.5
14432.509
19235.055
33210.139
106131.64
107043.26
33509.928
19428.386
14582.92
2109.7377
2116.3499
14763.742
19662.111
33868.563
108102.52
109398.04
34340.218
19964.511
14991.117
2120.5391
2117.7286
15257.318
20341.984
35005.234
111259.72
114063.74
35669.078
20704.882
15496.638
2100.5038
2071.4854
15659.639
21015.578
36427.703
117617.17
121239.8
36652.89
21053.611
15560.18
2051.6973
2074.3173
15966.46
21636.868
37768.097
124291.08
131394.29
39250.69
22030.062
15782.385
2247.0517