/*--------------------------------*- C++ -*----------------------------------*\
  =========                 |
  \\      /  F ield         | OpenFOAM: The Open Source CFD Toolbox
   \\    /   O peration     | Website:  https://openfoam.org
    \\  /    A nd           | Version:  7
     \\/     M anipulation  |
\*---------------------------------------------------------------------------*/
FoamFile
{
    version     2.0;
    format      ascii;
    class       surfaceScalarField;
    location    "390";
    object      phi;
}
// * * * * * * * * * * * * * * * * * * * * * * * * * * * * * * * * * * * * * //

dimensions      [1 0 -1 0 0 0 0];

internalField   nonuniform List<scalar> 
74673
(
1.6353291e-06
-0.0022067741
-2.0719414e-07
2.7671356e-06
-0.0026652323
-2.2338061e-07
3.6534072e-06
-0.0030416687
-2.3100123e-07
4.419444e-06
-0.0034244973
-2.4055911e-07
-0.056267587
-3.1017626e-06
6.4590015e-06
-4.4831236e-06
-0.056269596
-2.5948424e-06
2.1362249e-06
6.9500717e-06
-3.698679e-06
-0.003425283
-2.1147577e-07
2.1272318e-07
-2.7981981e-06
-0.0030425565
-2.0479653e-07
1.9209447e-07
-1.6511856e-06
-0.00266635
-1.9974304e-07
1.7039687e-07
-0.002208381
-1.8582218e-07
1.4148658e-07
1.6805649e-06
-0.002210025
-1.4635447e-07
1.0978215e-07
2.852171e-06
-0.0026675011
-1.5246279e-07
1.3198277e-07
3.7802129e-06
-0.0030434816
-1.5148709e-07
1.4858322e-07
4.5919068e-06
-0.0034261066
-1.5255579e-07
1.6446171e-07
-0.056272275
-1.5768784e-06
1.647223e-06
7.2005169e-06
-4.755e-06
-0.056275575
-4.7556001e-07
1.0477575e-06
7.4828532e-06
-3.8990123e-06
-0.0034269707
-9.1825671e-08
9.9950789e-08
-2.9332282e-06
-0.0030444401
-9.7015988e-08
8.968716e-08
-1.7222014e-06
-0.002668687
-1.0430357e-07
7.9129281e-08
-0.0022117062
-1.0632885e-07
6.5385562e-08
1.7689664e-06
-0.0022134322
-7.3944386e-08
3.086848e-08
3.0241668e-06
-0.0026699145
-6.5414035e-08
3.7718021e-08
4.0366636e-06
-0.003045443
-5.2977981e-08
4.3441589e-08
4.9396337e-06
-0.0034278802
-4.2927089e-08
4.9454649e-08
-0.056279536
4.166348e-07
5.7583896e-07
7.9083369e-06
-5.1554954e-06
-0.056284218
1.0348199e-06
2.7573853e-07
8.5270769e-06
-4.1988255e-06
-0.0034288438
-1.1093518e-08
1.8091515e-08
-3.1322301e-06
-0.0030464997
-2.4818235e-08
1.4901246e-08
-1.8229826e-06
-0.0026711956
-4.0593299e-08
1.2457817e-08
-0.0022152118
-5.3280417e-08
9.9154568e-09
1.881656e-06
-0.0022170507
-4.3468683e-08
7.8094276e-10
3.2511266e-06
-0.0026725377
-2.8194158e-08
9.530639e-10
4.3778504e-06
-0.0030476179
-1.0223344e-08
1.7454989e-09
5.400913e-06
-0.0034298759
5.6691247e-09
3.3245764e-09
-0.05628966
1.4013539e-06
1.204688e-07
9.3216715e-06
-5.6794411e-06
-0.056295961
1.6250994e-06
7.1241714e-08
1.028359e-05
-4.5824224e-06
-0.0034309849
1.2730147e-08
-6.7043454e-10
-3.38602e-06
-0.0030488078
-4.6858801e-09
-1.7422765e-09
-1.9510439e-06
-0.0026739467
-2.4117449e-08
-1.8167574e-09
-0.0022189596
-4.1031376e-08
-1.0220057e-09
2.0263224e-06
-0.0022209576
-4.1470714e-08
1.3285377e-08
3.5351401e-06
-0.0026754452
-2.335542e-08
1.3188223e-08
4.813585e-06
-0.003050097
-2.6606159e-09
1.3490555e-08
5.9902961e-06
-0.0034321923
1.5876387e-08
1.4810115e-08
-0.056303367
1.8033039e-06
1.4320655e-07
1.1450271e-05
-6.3481783e-06
-0.056311824
1.9727286e-06
6.9044267e-08
1.2763483e-05
-5.0738729e-06
-0.0034334845
1.6178472e-08
1.7309214e-09
-3.7082476e-06
-0.0030514598
-3.7205324e-09
9.7916364e-10
-2.1112447e-06
-0.002677018
-2.554724e-08
1.4355496e-09
-0.0022230273
-4.476738e-08
3.1790159e-09
2.2062062e-06
-0.0022251917
-4.9593942e-08
7.9288598e-09
3.9031775e-06
-0.0026786919
-2.9425644e-08
6.3560649e-09
5.3722853e-06
-0.0030529285
-6.3293194e-09
5.9322526e-09
6.7517155e-06
-0.0034348854
1.4818572e-08
6.7073756e-09
-0.056321511
2.1375754e-06
9.2700933e-08
1.4208177e-05
-7.210097e-06
-0.056332525
2.293766e-06
1.3069955e-07
1.5799965e-05
-5.7058652e-06
-0.0034364134
1.0865803e-08
1.2963203e-08
-4.1203497e-06
-0.0030545143
-1.1630637e-08
1.1935649e-08
-2.3145577e-06
-0.0026804741
-3.5639734e-08
1.2175005e-08
-0.0022274631
-5.6410101e-08
1.3228747e-08
2.4380369e-06
-0.0022298547
-6.5317412e-08
1.8949573e-08
4.3708835e-06
-0.0026823813
-4.4048646e-08
1.8423219e-08
6.0914107e-06
-0.0030562346
-1.877941e-08
1.8605883e-08
7.7306228e-06
-0.0034380778
5.1983172e-09
1.9978565e-08
-0.056345039
2.4457783e-06
1.7798531e-07
1.7620818e-05
-8.3333531e-06
-0.056359333
2.6182465e-06
2.3061334e-07
1.9778456e-05
-6.5310043e-06
-0.0034399048
-2.6704675e-09
2.7344138e-08
-4.6594408e-06
-0.0030581037
-2.8181996e-08
2.5701179e-08
-2.5786078e-06
-0.0026844324
-5.4627908e-08
2.4966428e-08
-0.0022323811
-7.6677398e-08
2.4472724e-08
2.7432933e-06
-0.0022350642
-8.9498948e-08
2.9417123e-08
4.9953664e-06
-0.0026866486
-6.6662366e-08
3.0847849e-08
7.0476096e-06
-0.0030601495
-3.8584931e-08
3.2222989e-08
9.0346423e-06
-0.003441915
-1.1100356e-08
3.4316188e-08
-0.056375664
2.8221686e-06
2.8787054e-07
2.2255703e-05
-9.8626717e-06
-0.05639424
3.0618358e-06
3.4234841e-07
2.5035063e-05
-7.6535311e-06
-0.0034441433
-2.106881e-08
4.0239585e-08
-5.3918744e-06
-0.0030623976
-5.1103146e-08
3.765198e-08
-2.9348494e-06
-0.0026890602
-8.0904583e-08
3.5611634e-08
-0.0022379273
-1.0474846e-07
3.3049457e-08
3.1670929e-06
-0.0022410077
-1.2073029e-07
3.4228319e-08
5.8643861e-06
-0.0026917
-9.508141e-08
3.7722914e-08
8.3816715e-06
-0.0030648924
-6.2812674e-08
4.0397663e-08
1.0849114e-05
-0.0034466244
-2.9837225e-08
4.3522402e-08
-0.056415428
3.3847674e-06
3.8295587e-07
2.8268873e-05
-1.2045391e-05
-0.05643968
3.8118065e-06
3.4253372e-07
3.2143374e-05
-9.2616987e-06
-0.0034493993
-3.8781192e-08
3.0041457e-08
-6.4423511e-06
-0.0030676627
-7.5805733e-08
2.6785256e-08
-3.4481303e-06
-0.0026946064
-1.116524e-07
2.3936677e-08
-0.0022443367
-1.3996591e-07
2.0791113e-08
3.7939894e-06
-0.0022479993
-1.6570332e-07
3.4573506e-08
7.1503716e-06
-0.0026978685
-1.3459821e-07
4.049099e-08
1.034573e-05
-0.0030708086
-9.4730991e-08
4.5341031e-08
1.3515106e-05
-0.0034525661
-5.2847463e-08
5.0285834e-08
-0.05646771
4.2860303e-06
5.1085016e-07
3.6748482e-05
-1.5339138e-05
-0.056500003
4.8629769e-06
6.1076683e-07
4.2157991e-05
-1.1698023e-05
-0.0034561884
-7.2652198e-08
5.3935666e-08
-8.0327481e-06
-0.0030744004
-1.2088277e-07
4.7491233e-08
-4.2224409e-06
-0.0027015536
-1.6624547e-07
4.1212246e-08
-0.0022520541
-2.0138761e-07
3.3795605e-08
4.7656012e-06
-0.0022566053
-2.4436378e-07
3.012434e-08
9.144357e-06
-0.0027057683
-2.0318093e-07
3.9229868e-08
1.3391718e-05
-0.0030785442
-1.5051841e-07
4.7047426e-08
1.7627542e-05
-0.0034603852
-9.4314376e-08
5.5240443e-08
-0.056537391
5.622322e-06
7.1247431e-07
4.8680483e-05
-2.0510408e-05
-0.056580993
6.6537545e-06
8.1721002e-07
5.664175e-05
-1.5530974e-05
-0.0034653024
-1.1656539e-07
5.4357306e-08
-1.0550206e-05
-0.0030833859
-1.8344362e-07
4.4369818e-08
-5.4500036e-06
-0.0027106574
-2.4571359e-07
3.4665548e-08
-0.002261784
-2.9483218e-07
2.35257e-08
6.3294073e-06
-0.0022677748
-3.5097328e-07
1.2472971e-08
1.2347609e-05
-0.0027164092
-2.9219639e-07
2.595001e-08
1.8266805e-05
-0.0030891253
-2.173661e-07
3.76696e-08
2.4189756e-05
-0.0034711389
-1.3647096e-07
5.0113121e-08
-0.056632272
8.0839403e-06
9.2465252e-07
6.646041e-05
-2.8922505e-05
-0.056693125
1.0034323e-05
9.9313177e-07
7.8747737e-05
-2.1790999e-05
-0.003478158
-1.5011745e-07
3.7757898e-08
-1.4667018e-05
-0.003096023
-2.4930885e-07
2.3059334e-08
-7.4557604e-06
-0.0027232897
-3.4004185e-07
9.3186494e-09
-0.0022748144
-4.1003392e-07
-6.1598958e-09
8.9220742e-06
-0.0022832372
-4.607637e-07
-3.839781e-08
1.7665067e-05
-0.0027316323
-3.7595472e-07
-2.4339924e-08
2.6347132e-05
-0.0031044299
-2.6519521e-07
-9.9703615e-09
3.5043817e-05
-0.0034867179
-1.4333828e-07
6.5711223e-09
-0.056766151
1.268561e-05
9.5493317e-07
9.4429528e-05
-4.2935939e-05
-0.05685524
1.6412227e-05
6.527635e-07
0.0001149598
-3.2231147e-05
-0.0034972751
-8.3279523e-08
-6.4381356e-08
-2.1540542e-05
-0.0031148069
-2.3301364e-07
-8.0541816e-08
-1.0817123e-05
-0.0027418939
-3.6982151e-07
-9.2031022e-08
-0.0022934786
-4.7937285e-07
-9.6308366e-08
1.3270806e-05
-0.0023061215
-4.2114304e-07
-2.0681362e-07
2.6581621e-05
-0.0027547113
-2.7415064e-07
-2.1924075e-07
3.9892609e-05
-0.0031277986
-1.0348988e-07
-2.158186e-07
5.3224679e-05
-0.0035104833
8.0302972e-08
-2.0411381e-07
-0.056965805
2.1611438e-05
-1.8600099e-07
0.00014236414
-6.6768474e-05
-0.05710584
2.9469605e-05
-1.8763027e-06
0.00017921055
-4.9971556e-05
-0.0035272549
4.1167141e-07
-4.3700035e-07
-3.3202782e-05
-0.0031443106
1.796331e-07
-4.3633638e-07
-1.647406e-05
-0.0027709861
-3.0043731e-08
-4.2381114e-07
-0.0023220086
-2.0094388e-07
-3.8605236e-07
2.0736199e-05
-0.0023422184
8.1246181e-08
-6.0764781e-07
4.1666756e-05
-0.0027914965
2.4577357e-07
-6.6597376e-07
6.2705246e-05
-0.0031651373
4.8657273e-07
-6.9842395e-07
8.3804791e-05
-0.0035484076
7.6990403e-07
-7.167079e-07
-0.057287374
3.8667878e-05
-4.2435075e-06
0.00023091479
-0.00010666633
-0.057534434
4.8304911e-05
-7.0034487e-06
0.00031242397
-7.9491758e-05
-0.0035756983
1.0655211e-06
-9.4946911e-07
-5.2635849e-05
-0.0031918212
7.4191384e-07
-9.139882e-07
-2.6143897e-05
-0.002817623
5.0863293e-07
-8.7429687e-07
-0.0023679293
4.1419803e-07
-8.4721182e-07
3.4711211e-05
-0.0024019648
8.449663e-07
-1.5207309e-06
7.4029829e-05
-0.0028565059
8.318745e-07
-1.2676436e-06
0.00011441124
-0.0032319751
1.0126269e-06
-1.2402428e-06
0.00015532473
-0.0036168006
1.5058139e-06
-1.3170682e-06
-0.057870314
7.0358526e-05
-1.2487923e-05
0.00043333459
-0.00023427278
-0.058186232
9.3866545e-05
-1.4918896e-05
0.0004712429
-0.00017222215
-0.0036780682
8.8897705e-07
-1.6719223e-06
-0.00010896213
-0.0032936379
-8.8023702e-09
-1.588363e-06
-4.8928969e-05
-0.0029142816
-3.6245322e-07
-1.8949831e-06
-0.0024470452
-1.0692654e-06
-2.7793224e-06
9.7558657e-05
-0.0025305807
-1.3813462e-05
-2.0976575e-07
0.00018011754
-0.0029868775
-8.0710761e-06
-1.8919957e-06
0.00025657345
-0.0033638322
-4.3724945e-06
-1.8890899e-06
0.00033474288
-0.0037511859
-3.9675705e-06
-1.0841865e-06
-0.058302278
6.0280566e-05
1.2058851e-05
0.00037845016
0.00010177205
-0.059689037
3.3330313e-05
-2.9190491e-05
0.0012808468
7.1126287e-05
-0.0037243514
1.1219514e-05
-7.4081639e-06
4.5950648e-05
-0.0033415495
1.017164e-05
-7.2786152e-06
2.3115044e-05
-0.0029684952
1.23209e-05
-7.8672211e-06
-0.0025187463
2.2059116e-05
-1.077845e-05
-2.5253045e-05
-0.002401769
-0.00010088427
9.160162e-06
-5.4123481e-05
-0.0028294927
-0.00011345315
3.3211502e-06
-8.9674683e-05
-0.0031864386
-0.00012139269
1.8330095e-06
-0.00013208961
-0.0035538874
-0.00013013685
2.0878141e-06
-0.059749315
-0.0018936757
3.2437861e-05
0.0017894265
0.00056457277
-0.056490276
-0.0031143796
6.9026416e-05
-0.00077825854
0.00039235753
-0.0031940805
-0.00020017703
1.2585294e-05
0.00024231751
-0.0028610866
-0.00018713292
1.1820909e-05
0.00011089124
-0.0025393043
-0.00017121642
1.2454264e-05
-0.0021615163
-0.00014452535
1.5163863e-05
-2.0393658e-05
0.0020320842
-0.00213137
-0.0020418369
-4.9425633e-05
0.0024147643
-0.00251817
-0.0024068666
-8.0282251e-05
0.0027563053
-0.0028559975
-0.0027305377
-0.00011144037
0.0031217349
-0.0032104227
-0.0030742346
0.071683639
-0.027763035
-0.034788301
-0.065734019
0.00028806224
0.087119116
-0.014463375
-0.0043745447
0.0001894535
0.0038360589
-0.00081589231
9.9870282e-05
0.0033825336
-0.00072377801
2.8848162e-05
0.0029557182
-0.00064114822
0.0024704534
-0.00055404644
-9.8055696e-05
0.0024750076
-7.3830961e-06
-0.00019627053
0.0029650032
-2.4523492e-05
-0.00029715324
0.0033982527
-3.6229167e-05
-0.0004075389
0.0038626556
-4.6347874e-05
0.085481991
-0.0016054162
0.00094132675
-0.00025255788
0.085075352
-0.00055931988
0.0012518477
-0.00020224902
0.0038676596
-4.4093353e-05
-0.00015381565
0.0034004619
-4.0470968e-05
-9.4524817e-05
0.0029600384
-4.2005095e-05
0.0024529777
-5.0435739e-05
6.1295511e-05
0.0023840733
-6.2046404e-06
0.00013347427
0.0028911419
-1.1353403e-05
0.00021298782
0.0033298136
-1.3237807e-05
0.00029680265
0.0037931966
-1.3319385e-05
0.084855575
-0.00013450546
0.00071136528
-0.00022263235
0.084406737
-3.5803843e-05
0.00080114106
-0.00015851485
0.0037313304
-1.3622495e-06
-9.7520869e-05
0.0032698728
-1.0619075e-06
-4.2138639e-05
0.002835942
-5.4471382e-07
0.0023401256
7.3986487e-07
3.2361254e-05
0.0023085344
7.4832333e-08
6.9703849e-05
0.0027994555
-2.4184176e-08
0.00010964795
0.0032310986
-1.5728988e-07
0.00015221006
0.0036905565
-2.82462e-07
0.083964899
-6.6096677e-06
0.00067101649
-0.00010708647
0.083638665
5.6541425e-06
0.00047597116
-7.812754e-05
0.0036622659
3.9717032e-07
-5.0748793e-05
0.0032040702
3.9151593e-07
-2.4775114e-05
0.0027735756
4.1481782e-07
0.0022837386
4.3494533e-07
1.9305429e-05
0.0022639361
5.7828671e-07
3.9706579e-05
0.0027528426
5.7765726e-07
6.1209619e-05
0.0031824764
5.7742495e-07
8.3854544e-05
0.003639804
5.869565e-07
0.083394806
5.5456046e-06
0.00036083596
-6.6080376e-05
0.083203631
1.9696018e-06
0.00028475502
-4.8109128e-05
0.0036217666
4.7778202e-07
-3.1097572e-05
0.0031651514
4.9303777e-07
-1.5005603e-05
0.0027362166
5.0393484e-07
0.0022482134
5.1611128e-07
1.1857255e-05
0.0022355323
4.0273404e-07
2.4471008e-05
0.0027229568
3.7193408e-07
3.7817113e-05
0.00315136
3.417833e-07
5.1956169e-05
0.0036073998
3.0805339e-07
0.083050683
-6.7066015e-07
0.00022718601
-4.1784502e-05
0.082925955
-2.0312122e-06
0.00018495632
-3.0448924e-05
0.0035957908
1.9015668e-07
-1.9771908e-05
0.0031402187
2.3132625e-07
-9.6524474e-06
0.0027121986
2.6894917e-07
0.0022250956
3.0489566e-07
8.0073801e-06
0.002216384
2.4343893e-07
1.6288824e-05
0.0027033345
2.066978e-07
2.4997059e-05
0.0031310765
1.6878695e-07
3.424854e-05
0.0035862683
1.2769434e-07
0.082822758
-2.4732558e-06
0.00015260437
-2.8510491e-05
0.082736224
-2.4115216e-06
0.0001274903
-2.0860679e-05
0.0035783678
1.0054055e-07
-1.3654913e-05
0.0031234831
1.3828308e-07
-6.7621474e-06
0.0026959288
1.7288473e-07
0.0022090056
2.0619667e-07
5.813552e-06
0.002202658
1.8317007e-07
1.1628547e-05
0.0026896673
1.5433272e-07
1.7669676e-05
0.0031171008
1.2388379e-07
2.4072512e-05
0.0035717378
9.0719261e-08
0.082663022
-2.1445087e-06
0.00010750289
-2.0598622e-05
0.082600652
-1.796401e-06
9.1419137e-05
-1.5175771e-05
0.0035661096
8.8862949e-08
-1.0047123e-05
0.0031116714
1.1731982e-07
-5.0696773e-06
0.0026843008
1.4331824e-07
0.002197126
1.6747689e-07
4.4900655e-06
0.0021922368
1.548422e-07
8.8075118e-06
0.002679645
1.3521134e-07
1.3219621e-05
0.0031069954
1.1337749e-07
1.7869648e-05
0.003561276
8.922438e-08
0.082547087
-1.4626244e-06
7.8519828e-05
-1.5702176e-05
0.082500771
-1.1669018e-06
6.8048108e-05
-1.1666714e-05
0.0035570786
8.927333e-08
-7.8245325e-06
0.0031029227
1.096707e-07
-4.0260498e-06
0.0026755524
1.2788803e-07
0.0021878655
1.4383427e-07
3.6580362e-06
0.0021839082
1.3362312e-07
7.0362253e-06
0.0026719191
1.2054887e-07
1.0422137e-05
0.003099337
1.050864e-07
1.3959861e-05
0.0035534001
8.8007986e-08
0.082460527
-9.1991914e-07
5.9409392e-05
-1.2535805e-05
0.082425536
-7.5289688e-07
5.2091123e-05
-9.4023401e-06
0.003550146
8.1850182e-08
-6.3923173e-06
0.0030961546
9.6564864e-08
-3.3493921e-06
0.0026686546
1.0993149e-07
0.0021802978
1.2104873e-07
3.0991287e-06
0.0021769691
1.0895111e-07
5.8566756e-06
0.0026657036
9.8477278e-08
8.5631183e-06
0.003093299
8.641578e-08
1.1361758e-05
0.0035472439
7.3563204e-08
0.082395029
-6.4243534e-07
4.5896283e-05
-1.0379544e-05
0.082368286
-5.1075231e-07
4.0694993e-05
-7.860792e-06
0.003544634
7.0128792e-08
-5.4122383e-06
0.0030907182
8.1116863e-08
-2.888178e-06
0.0026630072
9.144504e-08
0.0021738758
1.0032188e-07
2.7061397e-06
0.0021709841
9.6174602e-08
5.0346335e-06
0.0026605232
8.8811921e-08
7.2652844e-06
0.0030883689
8.0095653e-08
9.5472895e-06
0.00354227
7.0873919e-08
0.082344788
-3.4803174e-07
3.6215421e-05
-8.8361429e-06
0.082324207
-2.285418e-07
3.2264874e-05
-6.7567831e-06
0.0035401177
7.0287084e-08
-4.7113574e-06
0.0030862173
7.804105e-08
-2.5558431e-06
0.0026582275
8.5596018e-08
0.0021682596
9.1914154e-08
2.417474e-06
0.0021656889
8.8021314e-08
4.4301306e-06
0.0026560884
8.2449003e-08
6.3180479e-06
0.0030842348
7.5780499e-08
8.2205092e-06
0.0035381513
6.9188333e-08
0.082306187
-1.3369406e-07
2.88191e-05
-7.6814727e-06
0.082290348
-6.5389687e-08
2.5880542e-05
-5.9294422e-06
0.0035363427
6.7413048e-08
-4.1841145e-06
0.0030824048
7.3051496e-08
-2.3014157e-06
0.0026540913
7.8807857e-08
0.0021632473
8.3676892e-08
2.1967094e-06
0.0021609228
7.827883e-08
3.9682303e-06
0.0026522172
7.3116253e-08
5.5910729e-06
0.0030807082
6.7480837e-08
7.2055254e-06
0.0035346807
6.2415992e-08
0.082276435
-4.2395174e-08
2.3297799e-05
-6.7815186e-06
0.082264313
-6.325748e-08
2.0940156e-05
-5.2857358e-06
0.0035331459
5.5210651e-08
-3.7719334e-06
0.0030791306
6.0038523e-08
-2.1006911e-06
0.0026504549
6.5551489e-08
0.0021587065
7.0879273e-08
2.0201748e-06
0.0021565807
6.4164989e-08
3.6018526e-06
0.0026487918
5.8061945e-08
5.0204609e-06
0.0030776571
5.2343199e-08
6.4082313e-06
0.0035317262
4.7778784e-08
0.082253839
-9.3246661e-08
1.8778495e-05
-6.073564e-06
0.082244821
-1.2121657e-07
1.6838249e-05
-4.7762771e-06
0.0035304017
3.9969575e-08
-3.4460062e-06
0.0030762776
4.4474253e-08
-1.9406738e-06
0.0026472122
5.0152067e-08
0.0021545425
5.647227e-08
1.8725174e-06
0.002152578
4.8590132e-08
3.3034893e-06
0.0026457117
4.1409058e-08
4.5558037e-06
0.0030749797
3.5357404e-08
5.7675987e-06
0.003529165
3.0584662e-08
0.082237042
-1.9095968e-07
1.5138618e-05
-5.4921863e-06
0.082230366
-4.0028766e-07
1.3603142e-05
-4.3594471e-06
0.0035280092
1.1990358e-08
-3.1750724e-06
0.0030737526
1.7974087e-08
-1.8087114e-06
0.0026442794
2.5321648e-08
0.0021506817
3.4362551e-08
1.753318e-06
0.0021488441
1.0345461e-08
3.0627545e-06
0.0026429071
-2.598611e-09
4.1883052e-06
0.003072587
-1.2927797e-08
5.2576183e-06
0.0035269187
-2.1771264e-08
0.082224687
-8.5138079e-07
1.2204923e-05
-5.0753601e-06
0.082219904
-1.5588789e-06
1.094185e-05
-4.0537277e-06
0.0035258792
-7.3875899e-08
-2.9748132e-06
0.0030714718
-6.072611e-08
-1.707814e-06
0.0026415816
-4.5752177e-08
0.0021470565
-2.6537925e-08
1.6709639e-06
0.0021453112
-7.2008244e-08
2.9068307e-06
0.0026402925
-9.9187715e-08
3.9486361e-06
0.0030703985
-1.1995049e-07
4.9289628e-06
0.003524885
-1.3870164e-07
0.082215932
-2.4445679e-06
9.7680702e-06
-4.8595857e-06
0.082212725
-3.2025161e-06
8.6742549e-06
-3.8982855e-06
0.0035239083
-1.9606964e-07
-2.8699843e-06
0.0030693382
-1.7279947e-07
-1.6519535e-06
0.0026390216
-1.4688242e-07
0.0021435858
-1.124248e-07
1.6149389e-06
-1.2159058e-07
2.8012544e-06
-1.572997e-07
3.7960298e-06
-1.8427975e-07
4.7214532e-06
-2.0861219e-07
-3.3650076e-06
7.5420489e-06
-4.8204792e-06
-0.082213714
-6.878388e-06
8.2960382e-06
-3.8693497e-06
-0.003524756
-4.536347e-07
5.4791692e-07
-2.8531332e-06
-0.0030702894
-4.0642269e-07
5.1039813e-07
-1.6424743e-06
-0.0026402115
-3.5431311e-07
4.7248396e-07
-0.0021452657
-2.8459451e-07
4.1494002e-07
1.6640797e-06
-0.0021470513
-1.6572982e-07
2.8736216e-07
2.8869553e-06
-0.0026415407
-2.1508981e-07
3.2144405e-07
3.9209691e-06
-0.0030714127
-2.5217686e-07
3.4152813e-07
4.8896472e-06
-0.0035258015
-2.8522428e-07
3.6213179e-07
-0.082218051
-4.6073716e-06
5.1665259e-06
8.6676221e-06
-5.0121335e-06
-0.082222982
-2.5965065e-06
2.4109773e-06
1.0128324e-05
-4.0075636e-06
-0.0035268691
-1.3776957e-07
2.0078967e-07
-2.9441244e-06
-0.0030725541
-1.1713565e-07
1.9514018e-07
-1.6932587e-06
-0.0026428888
-9.330608e-08
1.9065072e-07
-0.0021488597
-6.1983075e-08
1.7718595e-07
1.7339817e-06
-0.0021507062
1.4525498e-08
9.7910033e-08
3.0262646e-06
-0.0026442739
-4.0300833e-09
9.6830381e-08
4.129954e-06
-0.0030737294
-1.8435602e-08
9.0080884e-08
5.1789367e-06
-0.0035279727
-3.0191101e-08
8.4791537e-08
-0.082228646
-1.1353505e-06
3.9582595e-07
1.1582355e-05
-5.3956634e-06
-0.082235222
-2.4187895e-07
-8.7855088e-07
1.3092507e-05
-4.2886884e-06
-0.0035291305
3.7406674e-08
1.3479568e-08
-3.130417e-06
-0.003074957
4.3815848e-08
2.5580897e-08
-1.7865804e-06
-0.0026457091
5.2429337e-08
3.915068e-08
-0.0021526048
6.3141446e-08
4.8940221e-08
1.8496004e-06
-0.0021545692
9.2913137e-08
2.205791e-08
3.2549662e-06
-0.002647208
8.6257633e-08
7.4525119e-09
4.4798213e-06
-0.003076252
8.043027e-08
-1.0099802e-08
5.6613385e-06
-0.0035303624
7.6831795e-08
-2.6378637e-08
-0.08224285
2.365844e-07
-1.6169779e-06
1.4670031e-05
-5.9625342e-06
-0.082251702
4.6458123e-07
-2.0399547e-06
1.6389553e-05
-4.6968893e-06
-0.0035316818
1.0048563e-07
-4.6674515e-08
-3.394669e-06
-0.0030776292
1.0292622e-07
-2.7908559e-08
-1.9192827e-06
-0.0026487826
1.0734531e-07
-7.982226e-09
-0.0021566099
1.1197961e-07
9.4390969e-09
1.9922282e-06
-0.0021587322
1.2546834e-07
4.7049622e-09
3.5447514e-06
-0.0026504428
1.2160851e-07
-1.385382e-08
4.9294554e-06
-0.0030790962
1.1741089e-07
-3.5042516e-08
6.2847499e-06
-0.0035330969
1.1503369e-07
-5.526991e-08
-0.082261977
5.5108226e-07
-2.2924739e-06
1.8301303e-05
-6.6548937e-06
-0.082273814
5.4923225e-07
-2.4633331e-06
2.0405934e-05
-5.1946008e-06
-0.003534623
1.2256968e-07
-5.6724816e-08
-3.7143904e-06
-0.0030806664
1.2555835e-07
-3.5500769e-08
-2.0743861e-06
-0.0026521995
1.3009066e-07
-1.3286768e-08
-0.0021609469
1.3417943e-07
6.1981792e-09
2.1662573e-06
-0.0021632651
1.4504775e-07
7.0109246e-09
3.9038818e-06
-0.0026540643
1.4026032e-07
-1.3045535e-08
5.4885802e-06
-0.0030823498
1.3497755e-07
-3.6146144e-08
7.0654492e-06
-0.0035362728
1.3148065e-07
-5.8539758e-08
-0.08228736
5.5135257e-07
-2.6453251e-06
2.2705607e-05
-7.5222107e-06
-0.082302871
6.0073113e-07
-2.8835065e-06
2.5316005e-05
-5.8169478e-06
-0.0035380613
1.4574083e-07
-6.2396163e-08
-4.1116114e-06
-0.0030841666
1.498181e-07
-3.8374289e-08
-2.2672706e-06
-0.0026560498
1.5539202e-07
-1.4114383e-08
-0.002165699
1.598641e-07
6.774839e-09
2.3812957e-06
-0.0021682655
1.7625938e-07
9.0485243e-09
4.3493954e-06
-0.002658176
1.7139658e-07
-1.3196023e-08
6.1907255e-06
-0.0030861343
1.6546137e-07
-3.8989484e-08
8.0464286e-06
-0.0035400131
1.609585e-07
-6.4838018e-08
-0.082320618
6.4618848e-07
-3.1411212e-06
2.8287977e-05
-8.6299738e-06
-0.082340816
6.6002775e-07
-3.4259074e-06
3.1594398e-05
-6.6080343e-06
-0.0035421442
1.750214e-07
-6.5848187e-08
-4.6158687e-06
-0.003088269
1.8053281e-07
-3.7946711e-08
-2.5080341e-06
-0.0026604608
1.8747082e-07
-1.0402481e-08
-0.0021709797
1.9313738e-07
1.3036734e-08
2.653814e-06
-0.0021738656
2.1522225e-07
1.6986096e-08
4.9209401e-06
-0.0026629283
2.0865652e-07
-8.2138917e-09
7.0884504e-06
-0.0030905993
2.0080574e-07
-3.7943373e-08
9.3047836e-06
-0.0035444866
1.9440185e-07
-6.8349443e-08
-0.082363781
7.0110881e-07
-3.7797889e-06
3.5348296e-05
-1.0080067e-05
-0.082390013
7.8779806e-07
-4.2045032e-06
3.9729383e-05
-7.6406491e-06
-0.0035470754
2.2096332e-07
-7.152151e-08
-5.269775e-06
-0.0030931606
2.2841752e-07
-3.7900248e-08
-2.8197099e-06
-0.0026656099
2.3731095e-07
-5.5218735e-09
-0.0021769516
2.4429178e-07
2.2013201e-08
3.0144899e-06
-0.0021802723
2.7756051e-07
2.8943928e-08
5.6816299e-06
-0.0026685456
2.6920598e-07
-5.5435557e-10
8.2930787e-06
-0.0030959948
2.5874503e-07
-3.5865933e-08
1.0994996e-05
-0.0035499539
2.4980791e-07
-7.3190023e-08
-0.082419978
8.4121762e-07
-4.6872541e-06
4.4805958e-05
-1.2077737e-05
-0.082454223
8.4038502e-07
-5.2111648e-06
5.0693131e-05
-9.0664271e-06
-0.0035531734
2.7828905e-07
-7.0017618e-08
-6.1701502e-06
-0.0030991518
2.8939064e-07
-2.8597466e-08
-3.2438104e-06
-0.0026717843
3.0216564e-07
1.0296732e-08
-0.0021838719
3.1300108e-07
4.2717613e-08
3.5204597e-06
-0.0021878111
3.563887e-07
6.2432732e-08
6.7570674e-06
-0.0026753913
3.4358251e-07
2.6816897e-08
9.994398e-06
-0.0031027009
3.2848125e-07
-1.6689506e-08
1.3383731e-05
-0.0035568141
3.1498756e-07
-6.3683826e-08
-0.082493493
8.8411581e-07
-5.8457273e-06
5.7615084e-05
-1.4967444e-05
-0.082538786
1.0074738e-06
-6.6499882e-06
6.5903329e-05
-1.1123729e-05
-0.0035609652
3.6251836e-07
-5.4846211e-08
-7.4706556e-06
-0.0031067316
3.783677e-07
-5.3058835e-10
-3.8545641e-06
-0.0026794521
3.9582854e-07
4.9395079e-08
-0.0021921665
4.1076678e-07
9.004798e-08
4.2636845e-06
-0.0021970303
4.736558e-07
1.2683185e-07
8.3443384e-06
-0.0026840681
4.5603369e-07
7.9495322e-08
1.2515885e-05
-0.00311136
4.3571108e-07
2.1387446e-08
1.692093e-05
-0.0035657449
4.1724126e-07
-4.2553671e-08
-0.082591241
1.1588817e-06
-7.676298e-06
7.5893386e-05
-1.938486e-05
-0.082652263
1.2669842e-06
-8.9592606e-06
8.8099068e-05
-1.4273231e-05
-0.0035713047
4.7488871e-07
-2.6648429e-08
-9.4526951e-06
-0.0031167267
4.9705333e-07
4.9180274e-08
-4.779425e-06
-0.0026893806
5.2168725e-07
1.1777791e-07
-0.0022025273
5.4374642e-07
1.7382933e-07
5.439931e-06
-0.0022088234
6.2472394e-07
2.3159836e-07
1.08706e-05
-0.0026955729
5.9657779e-07
1.6521372e-07
1.6520363e-05
-0.0031230265
5.6669992e-07
8.3388629e-08
2.2528154e-05
-0.003577845
5.4024101e-07
-7.764545e-09
-0.082723799
1.3749713e-06
-1.0598638e-05
0.0001032883
-2.6585409e-05
-0.082808397
1.5658398e-06
-1.2750551e-05
0.00012236826
-1.9426865e-05
-0.0035856339
6.2101524e-07
9.4532612e-09
-1.2706531e-05
-0.003130519
6.52283e-07
1.1997102e-07
-6.2962587e-06
-0.0027028892
6.8759984e-07
2.1847308e-07
-0.0022161371
7.2073371e-07
2.9675779e-07
7.4237251e-06
-0.0022247614
8.3870598e-07
3.6185085e-07
1.5109689e-05
-0.0027116438
8.008321e-07
2.6782306e-07
2.3222112e-05
-0.0031395406
7.6047878e-07
1.487084e-07
3.1867826e-05
-0.0035950188
7.2515184e-07
1.4049462e-08
-0.08290939
1.9470867e-06
-1.5546244e-05
0.00014645972
-3.8854556e-05
-0.083031497
2.6054963e-06
-1.9104152e-05
0.00017746091
-2.8252975e-05
-0.0036064669
8.6362986e-07
-1.7153533e-08
-1.8310595e-05
-0.003150529
9.0105624e-07
1.4490519e-07
-8.925079e-06
-0.002722264
9.4559895e-07
2.8904974e-07
-0.0022350822
9.8600382e-07
4.0976349e-07
1.0970255e-05
-0.0022476157
1.1606405e-06
4.0243862e-07
2.2691633e-05
-0.0027353571
1.1205244e-06
2.5117654e-07
3.514731e-05
-0.0031641367
1.0722856e-06
7.9766568e-08
4.8398037e-05
-0.0036206416
1.0348235e-06
-1.1084986e-07
-0.083181509
3.7419382e-06
-2.3460207e-05
0.00021812779
-6.1866712e-05
-0.08336956
5.319383e-06
-2.8973288e-05
0.00027357126
-4.4920783e-05
-0.0036385014
1.1869307e-06
-2.7304896e-07
-2.8940309e-05
-0.0031812863
1.2225064e-06
-5.3409531e-08
-1.3905901e-05
-0.0027518058
1.2673416e-06
1.4689103e-07
-0.0022631556
1.3104652e-06
3.2357391e-07
1.8016945e-05
-0.0022827568
1.4233136e-06
1.6081624e-07
3.7302019e-05
-0.0027724526
1.3312161e-06
3.0521306e-08
5.7753148e-05
-0.0032028412
1.2764596e-06
-1.7271729e-07
7.9356417e-05
-0.0036609381
1.2547037e-06
-4.2129668e-07
-0.083609334
7.3037834e-06
-3.4964452e-05
0.00034679133
-0.00010164493
-0.083930318
7.6783961e-06
-3.908749e-05
0.00045403813
-7.3946799e-05
-0.0036893016
1.0385386e-06
-3.7324245e-07
-4.7820559e-05
-0.003229899
1.062902e-06
-1.315174e-07
-2.3244546e-05
-0.0027982202
1.1858718e-06
5.3798572e-09
-0.0023074032
1.4501898e-06
-4.8363944e-08
3.0431369e-05
-0.0023386421
1.1564873e-06
-3.4913152e-07
6.5441568e-05
-0.0028339016
4.4820743e-07
2.2284924e-07
0.00010339722
-0.003268236
1.3948218e-07
2.418357e-07
0.00014396095
-0.0037298904
4.2727303e-08
-1.7755482e-08
-0.084381737
-6.7362137e-07
-4.4109241e-05
0.00064016301
-0.00023335676
-0.084859508
-2.4185728e-05
-5.7828189e-05
0.00079314151
-0.00016672371
-0.0037943465
-2.3055641e-06
1.2871093e-07
-0.00010319478
-0.0033301921
-2.1500553e-06
5.7723424e-07
-4.5062047e-05
-0.0028911917
-1.5189379e-06
6.764932e-07
-0.0023834455
2.9069093e-07
-5.4935424e-07
6.5051459e-05
-0.0024476472
-2.4196127e-06
1.5699625e-06
0.00014353148
-0.0029634283
-7.0100139e-06
7.6655889e-07
0.00022882351
-0.0034061742
-8.1495357e-06
-1.1603366e-06
0.00031627451
-0.0038720836
-8.5151618e-06
-1.1987482e-06
-0.085039423
-7.1771541e-05
-7.316484e-05
0.00064112641
-0.000234779
-0.085519446
-0.00035537583
0.00012604977
0.00094412771
-0.00018902169
-0.0038915377
-6.0798777e-06
-2.0223085e-05
-0.00014762525
-0.0034226995
-2.9405852e-06
-2.1930262e-05
-9.5230179e-05
-0.0029908667
-8.8092656e-07
-2.407513e-05
-0.0025101806
-2.968473e-06
-2.9728353e-05
-0.00016575537
-0.0024081592
-4.2018927e-05
0.00010575232
-0.00032395523
-0.002895567
-5.3475726e-05
0.0001163756
-0.00048819652
-0.0033213467
-6.3142509e-05
0.00012603072
-0.00067223053
-0.0037695958
-7.3299753e-05
0.0001353919
-0.08814141
-0.0017353189
0.0020352652
0.001649787
-1.1291432e-05
-0.071823312
-0.014734771
0.002924824
-0.0044968593
-3.2652504e-05
-0.0031147941
-0.00080518806
0.00017174738
-4.7556252e-05
-0.0027500173
-0.00071402425
0.00015759859
-4.3919137e-05
-0.0024093737
-0.00063148245
0.00014165201
-0.0020254431
-0.00054157639
0.00011494106
1.5960428e-05
0.0021210948
2.942599e-05
0.0025003949
4.353534e-05
0.0028229349
5.5305154e-05
0.0031584641
0.056238695
0.0006008248
0.070444154
-0.00013809564
-0.0084588124
0.00042396062
0.0037780934
-2.0951777e-05
0.00026441129
0.0033490629
-2.081973e-05
0.0001221508
0.0029406031
-2.2084041e-05
0.0024702023
-2.6373634e-05
-0.00021846672
0.0025709767
7.5673422e-05
-0.00043493929
0.0030356983
6.790168e-05
-0.00065684633
0.0034430136
6.4813902e-05
-0.000893713
0.0038775577
6.4102596e-05
0.067657956
0.00034316694
-0.00018600074
-4.4096189e-05
0.066897028
8.7541974e-05
0.00036210681
-4.5449139e-05
0.0038525709
2.0259952e-05
-4.7397833e-05
0.0034206981
2.1323595e-05
-3.8900623e-05
0.0030053774
2.0942736e-05
0.0025112481
1.7859507e-05
5.8011066e-05
0.0024392337
1.1583665e-05
0.0001166253
0.0029275207
1.2232527e-05
0.00017718281
0.0033402269
1.1764137e-05
0.00023986668
0.0037703373
1.1034581e-05
0.066755635
1.2186642e-05
0.00029730156
-0.00019349729
0.066368692
1.5661994e-05
0.00054059178
-0.00013961585
0.0037058033
8.347009e-06
-8.7350107e-05
0.0032770148
8.7963288e-06
-3.8567083e-05
0.0028680688
9.1498822e-06
0.002391804
9.1533844e-06
2.7930822e-05
0.0023586845
6.3451453e-06
5.8818294e-05
0.0028313679
6.2616259e-06
9.1461154e-05
0.0032385116
5.9997515e-06
0.00012576803
0.0036658661
5.6730127e-06
0.066007754
9.8630998e-06
0.00047616919
-9.2382603e-05
0.065757343
6.1616115e-06
0.00034431088
-6.827117e-05
0.0036390026
3.7905922e-06
-4.5070894e-05
0.0032123551
4.0191121e-06
-2.2558943e-05
0.0028058204
4.2214713e-06
0.0023332569
4.3188413e-06
1.8110829e-05
0.0023135906
2.9788126e-06
3.6471371e-05
0.0027858899
2.9011062e-06
5.5269375e-05
0.0031920684