/*--------------------------------*- C++ -*----------------------------------*\
  =========                 |
  \\      /  F ield         | OpenFOAM: The Open Source CFD Toolbox
   \\    /   O peration     | Website:  https://openfoam.org
    \\  /    A nd           | Version:  7
     \\/     M anipulation  |
\*---------------------------------------------------------------------------*/
FoamFile
{
    version     2.0;
    format      ascii;
    class       volScalarField;
    location    "390";
    object      T;
}
// * * * * * * * * * * * * * * * * * * * * * * * * * * * * * * * * * * * * * //

dimensions      [0 0 0 1 0 0 0];

internalField   nonuniform List<scalar> 
24789
(
300.15742
300.14795
300.1409
300.13504
300.10534
300.10786
300.13878
300.14488
300.15217
300.16198
300.16683
300.15667
300.14909
300.14275
300.11048
300.11316
300.1469
300.15352
300.1614
300.17196
300.1774
300.16641
300.15818
300.15126
300.1159
300.11869
300.15584
300.1631
300.17169
300.18316
300.18927
300.17729
300.16828
300.16065
300.12154
300.12443
300.16569
300.17373
300.18318
300.19574
300.20263
300.18943
300.17948
300.171
300.12737
300.13035
300.17659
300.18556
300.19607
300.20996
300.21783
300.20315
300.19203
300.1825
300.13337
300.13642
300.18877
300.19891
300.21071
300.22628
300.23541
300.21884
300.20626
300.19544
300.13949
300.14257
300.20256
300.21415
300.2276
300.2453
300.25606
300.23708
300.22264
300.21018
300.14564
300.14868
300.21835
300.23179
300.24736
300.2678
300.28065
300.25853
300.24169
300.22713
300.15163
300.15445
300.23656
300.25238
300.27068
300.29469
300.31006
300.28388
300.26393
300.24667
300.15706
300.15935
300.25745
300.27635
300.29817
300.32679
300.34491
300.31353
300.2896
300.26886
300.1612
300.16242
300.28077
300.30355
300.32983
300.36427
300.38462
300.34683
300.31796
300.29291
300.16275
300.16185
300.30481
300.33231
300.36397
300.40533
300.42537
300.38031
300.34575
300.31566
300.15921
300.1541
300.32419
300.35689
300.39435
300.44303
300.45575
300.4039
300.36376
300.32861
300.14562
300.1322
300.32593
300.36309
300.40526
300.45914
300.44503
300.39184
300.34928
300.31119
300.11095
300.08095
300.28263
300.31988
300.35915
300.40443
300.32612
300.30187
300.27089
300.23751
300.04686
299.96834
300.10442
300.12802
300.1478
300.14935
299.76517
299.76922
299.76811
299.76671
299.76567
299.64749
299.62422
299.6213
299.62127
299.62449
299.65225
299.64293
299.63833
299.63574
299.62483
299.58818
299.54981
299.54397
299.54149
299.54152
299.55176
299.54353
299.54798
299.5556
299.58338
299.5913
299.55572
299.55062
299.55095
299.56617
299.64237
299.62119
299.6165
299.6184
299.63228
299.6642
299.64444
299.64311
299.64543
299.65194
299.88728
299.87974
299.86762
299.85585
299.78859
299.96673
300.14409
300.1706
300.19375
300.20465
300.35951
300.33174
300.29953
300.26585
300.0446
300.07758
300.31159
300.34879
300.38785
300.43228
300.47269
300.42179
300.37985
300.34175
300.10774
300.12989
300.35836
300.39587
300.43797
300.49105
300.48746
300.43793
300.39779
300.362
300.14382
300.1526
300.35791
300.39162
300.42967
300.47776
300.46248
300.41671
300.38092
300.34943
300.15809
300.16107
300.33834
300.36754
300.40083
300.44349
300.42313
300.38359
300.35278
300.32581
300.16221
300.16204
300.31271
300.33755
300.36598
300.40253
300.38243
300.34867
300.32245
300.29958
300.16091
300.15911
300.28677
300.30783
300.33201
300.36318
300.34502
300.31622
300.2939
300.27448
300.15684
300.15424
300.26282
300.28075
300.30139
300.32803
300.31225
300.28755
300.26843
300.25184
300.15142
300.14847
300.24154
300.25693
300.27468
300.29762
300.28412
300.26274
300.24622
300.23191
300.14544
300.14237
300.22291
300.23625
300.25167
300.27163
300.2601
300.24139
300.22695
300.21449
300.13928
300.13621
300.2066
300.21828
300.23183
300.2494
300.23948
300.22292
300.21016
300.1992
300.13316
300.13015
300.19223
300.20256
300.21458
300.23022
300.2216
300.20679
300.19541
300.18566
300.12717
300.12423
300.17946
300.18867
300.19945
300.21352
300.20595
300.19256
300.18231
300.17358
300.12134
300.1185
300.168
300.17629
300.18604
300.19881
300.1921
300.1799
300.1706
300.16272
300.11571
300.11298
300.15773
300.16525
300.17413
300.18581
300.17992
300.16872
300.1602
300.15301
300.1103
300.1077
300.14855
300.15543
300.16361
300.17438
300.16927
300.15889
300.151
300.14439
300.10518
300.10707
300.14747
300.15428
300.16238
300.17304
300.17844
300.16735
300.15892
300.15181
300.10959
300.11218
300.15641
300.16384
300.17263
300.18418
300.19032
300.17825
300.16906
300.16127
300.11484
300.11755
300.16642
300.17459
300.18423
300.19685
300.20382
300.19058
300.18047
300.17186
300.12032
300.12312
300.17759
300.18667
300.19731
300.21121
300.21909
300.20446
300.19324
300.18363
300.12597
300.12885
300.19003
300.2002
300.21207
300.22751
300.23655
300.2202
300.20763
300.19682
300.13176
300.1347
300.20404
300.21554
300.2289
300.24624
300.2567
300.23823
300.224
300.21173
300.13766
300.14061
300.21994
300.23307
300.24827
300.26797
300.28017
300.25908
300.2428
300.22871
300.14355
300.14644
300.23809
300.25323
300.27072
300.29335
300.30761
300.28326
300.26443
300.2481
300.14923
300.15188
300.25876
300.2764
300.29672
300.32297
300.33948
300.31112
300.28916
300.27007
300.1543
300.1564
300.28195
300.30265
300.32642
300.3571
300.37573
300.34253
300.31677
300.29431
300.158
300.15893
300.30695
300.33132
300.35923
300.39514
300.41496
300.37614
300.34593
300.31951
300.15891
300.15759
300.33144
300.36003
300.39264
300.43447
300.45247
300.40767
300.37269
300.3419
300.15441
300.14872
300.3497
300.3826
300.41972
300.4665
300.47518
300.42706
300.38797
300.35308
300.13969
300.1257
300.34877
300.38525
300.42616
300.4777
300.45767
300.40894
300.36846
300.33152
300.10341
300.07194
300.29968
300.33552
300.37278
300.41481
300.33962
300.31459
300.28516
300.25303
300.03669
299.96517
300.14109
300.16674
300.18764
300.19219
299.87908
299.87332
299.86031
299.84894
299.79014
299.60373
299.51878
299.50858
299.50476
299.51518
299.74958
299.72072
299.70746
299.70018
299.65104
299.66413
299.74303
299.75391
299.76821
299.79189
299.53759
299.5283
299.53323
299.54416
299.60694
299.69432
299.82512
299.84808
299.87746
299.91838
299.72603
299.68928
299.67533
299.66964
299.6378
299.59776
299.50962
299.49778
299.49195
299.49754
299.84086
299.84131
299.83416
299.82747
299.79772
299.98311
300.1343
300.15949
300.18044
300.18362
300.3432
300.31363
300.28142
300.24741
300.04965
300.08115
300.28811
300.32601
300.36676
300.41567
300.45399
300.39703
300.35322
300.31479
300.11158
300.1331
300.32736
300.36417
300.40635
300.46041
300.4537
300.40238
300.36289
300.3285
300.14659
300.15532
300.32333
300.35506
300.39156
300.4393
300.42096
300.37714
300.34368
300.31463
300.16068
300.16351
300.304
300.33048
300.361
300.40097
300.38081
300.34442
300.31663
300.29252
300.16449
300.16415
300.28086
300.30282
300.32813
300.36126
300.34277
300.31255
300.28945
300.26941
300.16286
300.16091
300.2584
300.27672
300.29785
300.32549
300.30951
300.28414
300.26475
300.24794
300.15849
300.15578
300.23809
300.25355
300.27141
300.29476
300.28123
300.25964
300.24313
300.22885
300.15286
300.14981
300.2202
300.23344
300.24874
300.26878
300.25735
300.23868
300.22443
300.21212
300.1467
300.14356
300.20455
300.21604
300.22936
300.24681
300.2371
300.22071
300.20822
300.19747
300.14043
300.13731
300.19081
300.20091
300.21266
300.22809
300.21974
300.20514
300.19405
300.18454
300.13422
300.13118
300.17861
300.18759
300.19809
300.21193
300.20463
300.19147
300.1815
300.173
300.12817
300.12521
300.16766
300.17573
300.18521
300.19775
300.19128
300.17929
300.17025
300.16258
300.1223
300.11945
300.15773
300.16504
300.17367
300.18516
300.17939
300.16838
300.16011
300.15313
300.11665
300.11391
300.14875
300.15542
300.16336
300.17395
300.16883
300.15862
300.15098
300.14458
300.11123
300.10865
300.14063
300.14677
300.15413
300.16398
300.16076
300.15102
300.14378
300.13774
300.10713
300.10967
300.14162
300.14791
300.15543
300.16552
300.17057
300.16008
300.15226
300.1457
300.1123
300.11498
300.14998
300.15684
300.16499
300.17591
300.18157
300.17019
300.16167
300.15447
300.11772
300.12051
300.15919
300.16675
300.17568
300.18757
300.19393
300.18147
300.1721
300.16414
300.12334
300.12621
300.16933
300.17773
300.18759
300.20067
300.20787
300.19409
300.18369
300.1748
300.12911
300.13205
300.18058
300.19001
300.20102
300.21557
300.22385
300.20842
300.19673
300.1867
300.13502
300.13799
300.1932
300.2039
300.21635
300.23276
300.24242
300.2249
300.21159
300.20013
300.14097
300.14393
300.20754
300.21984
300.23412
300.25291
300.26436
300.24413
300.22875
300.21548
300.14685
300.14968
300.22399
300.23835
300.25499
300.27686
300.29053
300.26679
300.24873
300.23312
300.15238
300.15486
300.2429
300.25992
300.2796
300.30546
300.32173
300.29345
300.27193
300.25332
300.15703
300.15875
300.26434
300.28474
300.30833
300.3393
300.35809
300.3241
300.29822
300.27581
300.15985
300.16008
300.28748
300.3121
300.34051
300.37777
300.39776
300.357
300.32588
300.29888
300.15912
300.15645
300.30918
300.33868
300.37261
300.41697
300.43371
300.38584
300.34911
300.31711
300.15137
300.14299
300.32088
300.35521
300.39449
300.4454
300.44774
300.3949
300.35372
300.31754
300.12978
300.10895
300.30207
300.33901
300.38045
300.43258
300.39062
300.34601
300.30792
300.27206
300.07907
300.04435
300.22581
300.25759
300.28723
300.3115
300.1409
300.13981
300.12142
300.09901
299.96716
299.76263
299.76545
299.76683
299.76824
299.76493
299.53131
299.5267
299.53167
299.54182
299.61474
299.63716
299.66034
299.66469
299.67276
299.68718
299.60435
299.60052
299.59959
299.60234
299.61041
299.57895
299.52422
299.5106
299.4995
299.5072
299.61082
299.52723
299.50385
299.4819
299.45932
299.77288
299.76308
299.74454
299.72845
299.65783
299.67985
299.7074
299.71007
299.70964
299.69361
299.8159
299.79921
299.78207
299.76775
299.68204
299.68485
299.77379
299.78852
299.80887
299.84585
299.65364
299.62862
299.62266
299.6236
299.62985
299.61966
299.54982
299.54007
299.53494
299.53794
299.82896
299.83393
299.83041
299.82547
299.80061
299.98144
300.12179
300.14469
300.16277
300.16186
300.31926
300.29568
300.26658
300.23519
300.05083
300.0826
300.27683
300.31202
300.34918
300.39222
300.43013
300.38024
300.34024
300.30444
300.11276
300.13422
300.3185
300.35311
300.39238
300.44254
300.439
300.39103
300.35386
300.32125
300.14764
300.15626
300.31751
300.34778
300.38238
300.42723
300.41123
300.36979
300.33789
300.31002
300.16155
300.16433
300.3004
300.32593
300.35519
300.39324
300.37474
300.33988
300.31309
300.28975
300.16527
300.16489
300.27876
300.30011
300.32461
300.35654
300.33914
300.30987
300.28741
300.26786
300.16356
300.16157
300.25729
300.27523
300.29585
300.32273
300.30745
300.28269
300.26369
300.24718
300.15913
300.15637
300.23761
300.25284
300.27038
300.29327
300.28017
300.25895
300.24269
300.22858
300.15341
300.15034
300.22011
300.23321
300.24833
300.26807
300.25693
300.23848
300.22436
300.21215
300.1472
300.14403
300.20469
300.2161
300.22931
300.2466
300.23706
300.22079
300.20838
300.19767
300.14086
300.13772
300.19107
300.20113
300.21283
300.22818
300.21991
300.20538
300.19432
300.18483
300.13461
300.13154
300.17893
300.18789
300.19836
300.21216
300.20491
300.19177
300.18182
300.17332
300.12851
300.12552
300.16799
300.17605
300.18553
300.19806
300.19161
300.17962
300.17058
300.1629
300.12259
300.11971
300.15805
300.16536
300.174
300.18549
300.17973
300.1687
300.16042
300.15344
300.1169
300.11414
300.14905
300.15573
300.16368
300.17428
300.16915
300.15893
300.15128
300.14487
300.11145
300.10885
300.14089
300.14705
300.15442
300.16428
300.17409
300.16335
300.15519
300.14833
300.10762
300.11019
300.15276
300.15992
300.16841
300.17958
300.18544
300.1738
300.16493
300.15744
300.11284
300.11554
300.16239
300.17025
300.17952
300.19169
300.19837
300.18563
300.17591
300.16765
300.11831
300.12113
300.1732
300.1819
300.19212
300.20548
300.21305
300.19901
300.18825
300.17906
300.124
300.12692
300.18525
300.19497
300.20632
300.22111
300.22975
300.21412
300.20211
300.19181
300.12987
300.13287
300.19877
300.20972
300.22246
300.239
300.24895
300.23139
300.21785
300.20619
300.1359
300.13895
300.21409
300.22654
300.24097
300.25967
300.27127
300.25129
300.23587
300.22253
300.14202
300.14508
300.23157
300.24588
300.26241
300.2838
300.29737
300.2744
300.25664
300.24124
300.1481
300.15105
300.25157
300.26818
300.28732
300.31205
300.3279
300.30122
300.28056
300.2626
300.15385
300.15645
300.2743
300.29375
300.3161
300.34494
300.36314
300.33194
300.30773
300.28662
300.15872
300.16052
300.29946
300.32237
300.34862
300.3824
300.40249
300.36593
300.33748
300.3126
300.16164
300.16182
300.32569
300.35268
300.38348
300.42298
300.44315
300.40061
300.36736
300.33815
300.16068
300.15771
300.34912
300.38057
300.41623
300.46174
300.47623
300.42879
300.39098
300.35738
300.15222
300.14344
300.36113
300.39673
300.43649
300.48511
300.48761
300.43566
300.39415
300.35697
300.12955
300.10754
300.3396
300.37712
300.41801
300.46674
300.42308
300.38145
300.34393
300.30763
300.07687
300.04276
300.25945
300.29194
300.32205
300.34658
300.19303
300.18657
300.16484
300.13929
299.96689
299.78746
299.84455
299.85456
299.86503
299.8713
299.59575
299.58582
299.58661
299.59221
299.64493
299.63335
299.61592
299.61618
299.62468
299.65149
299.62533
299.60084
299.59783
299.60092
299.62076
299.63637
299.7116
299.72311
299.73804
299.76406
299.47349
299.48987
299.50387
299.51921
299.60322
299.62555
299.60965
299.60874
299.61017
299.61608
299.62023
299.61573
299.61651
299.62037
299.64343
299.75708
299.75354
299.75357
299.75256
299.74628
300.14568
300.1443
300.12393
300.10038
299.96451
300.04591
300.23606
300.26941
300.3002
300.32428
300.40534
300.36016
300.3209
300.28361
300.08146
300.11141
300.31328
300.35165
300.39448
300.44788
300.46277
300.40836
300.36573
300.32817
300.13241
300.14569
300.33075
300.36633
300.40698
300.45949
300.44657
300.3972
300.35923
300.32613
300.15409
300.15915
300.31735
300.3478
300.38282
300.42851
300.40802
300.36611
300.33406
300.30623
300.16176
300.16265
300.29408
300.3194
300.3486
300.38685
300.36611
300.33128
300.30472
300.28171
300.16231
300.16109
300.26961
300.29053
300.31468
300.34638
300.32797
300.29909
300.27708
300.25803
300.15923
300.15693
300.24711
300.26449
300.28459
300.31097
300.2954
300.27122
300.25281
300.23689
300.15432
300.1515
300.22736
300.24199
300.25892
300.28116
300.26819
300.24764
300.232
300.2185
300.14854
300.14551
300.21027
300.22277
300.23726
300.25632
300.24547
300.22771
300.21422
300.20259
300.14244
300.13936
300.19543
300.20627
300.21888
300.23549
300.22631
300.21071
300.19888
300.18873
300.1363
300.13325
300.18243
300.19196
300.20309
300.2178
300.2099
300.19599
300.18548
300.1765
300.13024
300.12727
300.1709
300.17938
300.18933
300.20252
300.19563
300.18308
300.17362
300.16559
300.12434
300.12145
300.16054
300.16817
300.17717
300.18914
300.18304
300.17158
300.16299
300.15573
300.11861
300.11583
300.15116
300.15808
300.16629
300.17727
300.17185
300.1613
300.15343
300.14681
300.1131
300.11043
300.14267
300.14901
300.15658
300.16673
300.16189
300.15209
300.1448
300.13871
300.10783
300.10711
300.13757
300.14357
300.15077
300.16045
300.16515
300.15512
300.14765
300.1414
300.10964
300.11225
300.14543
300.15194
300.1597
300.1701
300.17535
300.16453
300.15645
300.14965
300.11492
300.11764
300.15407
300.16119
300.16963
300.18089
300.18675
300.175
300.16617
300.1587
300.12041
300.12322
300.16355
300.1714
300.18065
300.19293
300.19949
300.18661
300.1769
300.16862
300.12606
300.12895
300.17396
300.1827
300.19292
300.20646
300.2139
300.19963
300.18883
300.17958
300.13185
300.13479
300.18552
300.19534
300.20677
300.22186
300.23042
300.21441
300.20226
300.19181
300.13773
300.14067
300.19849
300.20965
300.2226
300.23964
300.24964
300.23142
300.21756
300.2056
300.14359
300.14646
300.2132
300.22606
300.24094
300.26049
300.2723
300.25124
300.23519
300.22131
300.14924
300.15187
300.22998
300.24502
300.26238
300.28516
300.29916
300.27442
300.25556
300.23921
300.15427
300.15636
300.24902
300.26684
300.2874
300.31434
300.33072
300.30129
300.27883
300.25933
300.15798
300.15897
300.27003
300.29139
300.31598
300.34817
300.36644
300.33122
300.30429
300.28087
300.15907
300.15796
300.29142
300.31706
300.34652
300.38497
300.40282
300.361
300.3289
300.3009
300.15512
300.14987
300.30813
300.33852
300.37327
300.41838
300.42933
300.38126
300.34405
300.31141
300.14133
300.12805
300.3079
300.34239
300.38154
300.43169
300.41804
300.36787
300.32812
300.2927
300.10699
300.07652
300.26348
300.29822
300.33531
300.37977
300.30805
300.28148
300.25168
300.22005
300.03999
299.96333
300.10467
300.12929
300.1506
300.15333
299.79747
299.79665
299.79187
299.78702
299.76654
299.59095
299.51803
299.50735
299.50167
299.50584
299.73425
299.71672
299.70447
299.69549
299.64414
299.65159
299.6965
299.70314
299.71121
299.71494
299.70881
299.75662
299.71361
299.59525
299.5137
299.50312
299.49866
299.50556
299.70578
299.66991
299.65814
299.65468
299.62845
299.528
299.52939
299.53811
299.55272
299.61181
299.65268
299.64254
299.63872
299.63375
299.62282
299.62922
299.65043
299.65634
299.6578
299.65243
299.66047
299.74268
299.76492
299.79807
299.85301
299.70463
299.69978
299.76388
299.74825
299.99336
299.99507
299.98883
299.99333
299.9917
299.98791
299.98903
299.99175
300.16398
300.15411
300.14674
300.14058
300.10855
300.11117
300.14458
300.15099
300.15863
300.16885
300.17402
300.16342
300.15547
300.14879
300.11388
300.11665
300.1532
300.16018
300.16845
300.17948
300.18526
300.17378
300.16514
300.15783
300.11949
300.12239
300.16269
300.17035
300.17939
300.19137
300.19783
300.1853
300.17584
300.16778
300.12534
300.12834
300.1731
300.18158
300.19152
300.20463
300.21184
300.19808
300.18763
300.17868
300.13138
300.13447
300.18455
300.19401
300.20502
300.2195
300.22766
300.21239
300.20075
300.19073
300.13759
300.14074
300.19725
300.20789
300.22022
300.23638
300.24573
300.22859
300.21548
300.20415
300.1439
300.14706
300.21147
300.22356
300.23754
300.25579
300.26664
300.24714
300.23219
300.21924
300.15019
300.15325
300.22748
300.2414
300.25744
300.27834
300.29099
300.2685
300.25124
300.23624
300.15619
300.15893
300.24549
300.26171
300.28035
300.30462
300.31928
300.29299
300.2728
300.25522
300.16134
300.1633
300.26534
300.28445
300.30638
300.33492
300.35145
300.32041
300.29654
300.27572
300.16459
300.16493
300.2861
300.3088
300.33481
300.36862
300.38594
300.34915
300.32082
300.29606
300.16396
300.16118
300.30487
300.33181
300.3626
300.40251
300.4169
300.37387
300.3406
300.31144
300.15592
300.14742
300.31411
300.34539
300.38097
300.42681
300.42827
300.3805
300.34309
300.31007
300.13405
300.11261
300.2946
300.32852
300.36635
300.41353
300.37421
300.33483
300.30013
300.26697
300.08348
300.05215
300.22553
300.25489
300.28133
300.29979
300.12781
300.13073
300.115
300.09469
299.97067
299.77678
299.7777
299.77758
299.77589
299.76818
299.66056
299.65591
299.65462
299.65594
299.66617
299.62744
299.61384
299.61251
299.61704
299.63255
299.65995
299.61146
299.60316
299.60616
299.61718
299.74651
299.75733
299.76649
299.74353
299.92946
299.95003
299.9185
299.88521
299.67345
299.65784
299.68511
299.69356
299.7032
299.704
299.96783
299.92627
299.88984
299.85682
299.71167
299.73285
299.91884
299.94851
299.9787
300.01237
299.66062
299.61231
299.60407
299.60709
299.61808
299.62857
299.61478
299.61337
299.61775
299.63287
299.66119
299.6568
299.65565
299.65705
299.66744
299.77802
299.77893
299.77877
299.77702
299.76916
300.12907
300.13203
300.11633
300.09604
299.97202
300.05352
300.22703
300.25639
300.28282
300.30123
300.37573
300.33637
300.30166
300.26847
300.08475
300.11383
300.29611
300.33007
300.36792
300.41511
300.42989
300.3821
300.34465
300.31158
300.13526
300.14862
300.31562
300.34695
300.38257
300.42844
300.41853
300.37546
300.34214
300.31292
300.15709
300.1623
300.30633
300.33332
300.36416
300.40412
300.38751
300.35066
300.32227
300.29746
300.16505
300.16598
300.28745
300.31021
300.33627
300.37013
300.3529
300.3218
300.29788
300.27701
300.16559
300.16426
300.26657
300.28572
300.3077
300.33629
300.32058
300.29424
300.274
300.25637
300.16225
300.15979
300.24659
300.26284
300.28152
300.30585
300.29216
300.26961
300.25231
300.23727
300.15701
300.15404
300.22847
300.24242
300.25849
300.27944
300.26769
300.24814
300.23316
300.22017
300.15094
300.14778
300.21236
300.22449
300.23849
300.25678
300.24669
300.22951
300.21637
300.205
300.14458
300.14139
300.19807
300.20874
300.22111
300.2373
300.22855
300.21324
300.20157
300.19152
300.13821
300.13506
300.18531
300.1948
300.20584
300.22036
300.21268
300.19888
300.1884
300.17942
300.13195
300.12889
300.17382
300.18234
300.1923
300.20545
300.19863
300.18607
300.17657
300.16848
300.12587
300.1229
300.16338
300.17107
300.18014
300.19216
300.18603
300.17451
300.16583
300.15849
300.11999
300.11713
300.15384
300.16085
300.16916
300.18022
300.17474
300.16411
300.15613
300.14941
300.11434
300.11161
300.14518
300.15162
300.1593
300.16955
300.16465
300.15475
300.14734
300.14115
300.10894
300.10637
300.13736
300.14333
300.15048
300.16007
300.1069
300.13757
300.14361
300.15085
300.1606
300.16541
300.1553
300.14778
300.14149
300.10948
300.11213
300.1456
300.15217
300.16
300.17049
300.17589
300.16497
300.1568
300.14993
300.11484
300.11761
300.15447
300.16168
300.17022
300.18162
300.18771
300.17578
300.16684
300.15926
300.12043
300.12329
300.16428
300.17226
300.18166
300.19416
300.20103
300.1879
300.178
300.16956
300.1262
300.12915
300.17514
300.18407
300.19452
300.20837
300.21624
300.2016
300.19052
300.18104
300.13214
300.13515
300.1873
300.1974
300.20917
300.2247
300.23385
300.21731
300.20476
300.19397
300.13818
300.14123
300.20108
300.21264
300.22608
300.24376
300.25455
300.23557
300.22114
300.2087
300.14425
300.14724
300.21686
300.23029
300.24586
300.26632
300.2792
300.25706
300.2402
300.22564
300.15013
300.15289
300.23506
300.2509
300.26922
300.29329
300.30871
300.28245
300.26246
300.24516
300.15542
300.15764
300.25594
300.27488
300.29677
300.3255
300.34369
300.31217
300.28815
300.26735
300.15941
300.16053
300.27925
300.30212
300.32851
300.36313
300.38356
300.34555
300.31654
300.29139
300.16077
300.15977
300.30327
300.3309
300.36272
300.40433
300.42438
300.37906
300.34432
300.31409
300.15703
300.15185
300.32254
300.35535
300.39298
300.4419
300.45423
300.40225
300.362
300.32677
300.14333
300.12994
300.32373
300.36087
300.40302
300.45677
300.44107
300.38844
300.34619
300.30831
300.10882
300.07876
300.27802
300.31471
300.35327
300.39758
300.31549
300.29235
300.26235
300.22968
300.04277
299.96133
300.09314
300.11581
300.13516
300.13551
299.73329
299.74168
299.74395
299.74495
299.75347
299.63724
299.60839
299.60328
299.60098
299.60358
299.60168
299.59792
299.59812
299.60016
299.62108
299.59783
299.50928
299.49297
299.47777
299.45737
299.73758
299.71605
299.70409
299.6948
299.62862
299.61486
299.5828
299.57763
299.57794
299.59851
299.80797
299.77511
299.75906
299.74784
299.67511
299.68616
299.80316
299.82285
299.8488
299.88518
299.77873
299.75755
299.74445
299.73436
299.66073
299.64978
299.69204
299.69818
299.70574
299.70875
299.62267
299.61559
299.61251
299.61326
299.61256
299.59794
299.5278
299.51911
299.5164
299.52571
299.72794
299.68847
299.67384
299.66801
299.63166
299.63794
299.63225
299.63415
299.64328
299.66983
299.6779
299.666
299.66116
299.66088
299.66773
299.77567
299.78129
299.78244
299.78317
299.78112
300.13994
300.14047
300.12286
300.10127
299.97181
300.05309
300.23077
300.26093
300.28801
300.30813
300.38026
300.33977
300.30432
300.27059
300.08433
300.1137
300.29771
300.33206
300.37041
300.41832
300.4321
300.38384
300.34607
300.31274
300.1352
300.14856
300.31639
300.34788
300.38371
300.42989
300.41948
300.3762
300.34275
300.31342
300.15702
300.16221
300.30665
300.33373
300.36466
300.40475
300.38794
300.351
300.32255
300.29767
300.16491
300.1658
300.28757
300.31038
300.3365
300.37044
300.35313
300.32195
300.29798
300.27706
300.16537
300.164
300.26656
300.28577
300.30779
300.33645
300.32069
300.29428
300.274
300.25633
300.16198
300.1595
300.2465
300.2628
300.28152
300.3059
300.29217
300.26957
300.25223
300.23715
300.15671
300.15372
300.22832
300.2423
300.25841
300.27941
300.26761
300.24802
300.23301
300.21999
300.15062
300.14745
300.21215
300.2243
300.23834
300.25667
300.24654
300.22933
300.21616
300.20478
300.14426
300.14106
300.19782
300.20851
300.2209
300.23712
300.22835
300.21302
300.20133
300.19126
300.13789
300.13475
300.18505
300.19455
300.2056
300.22013
300.21245
300.19863
300.18814
300.17915
300.13165
300.12859
300.17355
300.18207
300.19204
300.2052
300.19836
300.1858
300.17629
300.1682
300.12558
300.12261
300.16309
300.17079
300.17986
300.19188
300.18575
300.17422
300.16555
300.15821
300.1197
300.11686
300.15356
300.16057
300.16888
300.17994
300.17446
300.16382
300.15585
300.14913
300.11408
300.11135
300.1449
300.15134
300.15901
300.16927
300.16435
300.15445
300.14704
300.14086
300.10868
300.10609
300.13699
300.14294
300.15009
300.15967
300.10854
300.14057
300.14673
300.1541
300.16397
300.16885
300.15863
300.15098
300.14456
300.11115
300.11385
300.14876
300.15545
300.16339
300.174
300.17945
300.16843
300.16015
300.15316
300.11662
300.11945
300.15778
300.16509
300.17373
300.18521
300.19131
300.17933
300.1703
300.16263
300.12234
300.12528
300.1677
300.17576
300.18522
300.19774
300.20453
300.19143
300.1815
300.17302
300.12827
300.1313
300.17858
300.18752
300.19796
300.21171
300.21934
300.20488
300.19387
300.18442
300.13438
300.13749
300.19058
300.20058
300.21221
300.22746
300.23615
300.22001
300.2077
300.19707
300.14062
300.14378
300.20394
300.21525
300.22833
300.24545
300.25545
300.23723
300.22329
300.21121
300.14692
300.15004
300.21894
300.23186
300.24677
300.26622
300.27785
300.25701
300.24102
300.22713
300.15308
300.15601
300.23583
300.25078
300.26798
300.29039
300.30391
300.27974
300.26117
300.24501
300.15874
300.16116
300.25466
300.27217
300.29226
300.31841
300.33388
300.30551
300.2837
300.26469
300.16311
300.16441
300.27495
300.29565
300.31936
300.35019
300.3671
300.33356
300.30775
300.28519
300.16476
300.1638
300.295
300.31957
300.34767
300.38413
300.40043
300.36088
300.33036
300.30364
300.16101
300.15574
300.31003
300.33895
300.37192
300.41453
300.42426
300.37885
300.34358
300.31256
300.14718
300.13376
300.30843
300.3412
300.37828
300.42561
300.41086
300.36405
300.32651
300.29284
300.11217
300.08267
300.265
300.29795
300.3324
300.37162
300.29814
300.27944
300.25325
300.22394
300.05085
299.96948
300.09406
300.11463
300.13096
300.12837
299.76723
299.77192
299.77288
299.77301
299.77345
299.66523
299.65098
299.64975
299.65286
299.66288
299.65149
299.6281
299.62113
299.62095
299.63475
299.64476
299.62412
299.62222
299.6238
299.63418
299.64727
299.63877
299.63663
299.63787
299.6578
299.77964
299.82202
299.82968
299.83784
299.84249
300.1836
300.17636
300.15534
300.13052
299.96328
300.04232
300.25988
300.29273
300.32349
300.34739
300.42507
300.38279
300.34468
300.30799
300.07603
300.10648
300.33976
300.37768
300.41925
300.46927
300.49046
300.43719
300.39499
300.3574
300.12861
300.14244
300.36169
300.39768
300.43809
300.48786
300.47879
300.43033
300.39193
300.35794
300.15115
300.15656
300.34963
300.38144
300.41764
300.46404
300.44518
300.40186
300.36812
300.33857
300.15947
300.16058
300.326
300.3533
300.38454
300.42471
300.40397
300.36681
300.33797
300.3128
300.1604
300.1593
300.29957
300.32273
300.34933
300.38363
300.36416
300.3325
300.30798
300.28664
300.15754
300.15532
300.27425
300.29391
300.31653
300.34576
300.32857
300.30154
300.28063
300.26249
300.15278
300.15002
300.25143
300.2682
300.28754
300.31257
300.29778
300.27455
300.25659
300.24105
300.14714
300.14417
300.23136
300.24579
300.26248
300.2841
300.27149
300.25131
300.23574
300.22229
300.14116
300.13814
300.21383
300.22638
300.24093
300.25981
300.24902
300.2313
300.21765
300.2059
300.13513
300.13213
300.19846
300.20948
300.22231
300.23899
300.22967
300.21393
300.20184
300.19147
300.12916
300.12623
300.18488
300.19465
300.20608
300.22097
300.21285
300.19872
300.1879
300.17866
300.12334
300.12049
300.17277
300.18151
300.19178
300.20521
300.19804
300.18524
300.17548
300.16719
300.11768
300.11494
300.16192
300.16979
300.1791
300.19131
300.18501
300.17333
300.16445
300.15694
300.11225
300.10962
300.15224
300.15941
300.16792
300.17912
300.17359
300.16283
300.15466
300.14779
300.10707
300.10708
300.14772
300.15457
300.16272
300.17345
300.17897
300.16781
300.15932
300.15217
300.10965
300.1123
300.15686
300.16434
300.1732
300.18483
300.1911
300.17894
300.16968
300.16183
300.11502
300.11779
300.16709
300.17534
300.18506
300.1978
300.20493
300.19158
300.18136
300.17267
300.12062
300.12349
300.17854
300.18772
300.19847
300.21251
300.22059
300.2058
300.19445
300.18473
300.12641
300.12937
300.1913
300.20159
300.2136
300.22922
300.23847
300.22193
300.2092
300.19826
300.13237
300.1354
300.20566
300.21731
300.23085
300.2484
300.2591
300.24041
300.22599
300.21354
300.13845
300.14151
300.22196
300.23528
300.25069
300.27064
300.28313
300.26176
300.24525
300.23095
300.14456
300.14756
300.24057
300.25595
300.27369
300.29663
300.31124
300.28655
300.26743
300.25085
300.15048
300.15327
300.26181
300.27974
300.30037
300.32702
300.344
300.31519
300.29287
300.27345
300.15583
300.15807
300.28572
300.30678
300.33097
300.36215
300.38139
300.34761
300.32138
300.29851
300.15983
300.16092
300.31162
300.33647
300.36492
300.40149
300.4221
300.38252
300.3517
300.32472
300.16107
300.1599
300.33725
300.36647
300.39979
300.44249
300.46153
300.4157
300.37988
300.34837
300.15689
300.15138
300.35689
300.39063
300.42874
300.47693
300.48672
300.43708
300.39687
300.36104
300.14258
300.12866
300.35748
300.39505
300.43724
300.49042
300.47231
300.42123
300.37919
300.341
300.10651
300.07638
300.31099
300.34829
300.3875
300.43217
300.35972
300.33162
300.29919
300.26536
300.04335
299.96543
300.14362
300.17036
300.19388
300.20524
299.88784
299.8801
299.86742
299.85536
299.78735
299.66289
299.64407
299.64256
299.64405
299.64972
299.64582
299.62326
299.61777
299.61921
299.63115
299.59018
299.55569
299.55083
299.55153
299.56738
299.5546
299.54527
299.54886
299.5558
299.58175
299.58613
299.54864