/*--------------------------------*- C++ -*----------------------------------*\
  =========                 |
  \\      /  F ield         | OpenFOAM: The Open Source CFD Toolbox
   \\    /   O peration     | Website:  https://openfoam.org
    \\  /    A nd           | Version:  7
     \\/     M anipulation  |
\*---------------------------------------------------------------------------*/
FoamFile
{
    version     2.0;
    format      ascii;
    class       surfaceScalarField;
    location    "340";
    object      phi;
}
// * * * * * * * * * * * * * * * * * * * * * * * * * * * * * * * * * * * * * //

dimensions      [1 0 -1 0 0 0 0];

internalField   nonuniform List<scalar> 
74922
(
-0.16876608
0.32441482
-16.373978
21.540974
-2.5336004
-2.7890443
0.10482237
-16.282151
-1.2115806
17.022942
-17.608256
17.974583
-0.0031960453
-18.152109
0.22769942
0.29987186
-0.00033953997
0.62098951
0.024481906
-0.42242162
0.68731515
-0.63339553
16.34708
-1.9076456
-2.0910409
29.523135
-0.32732013
-0.83788601
21.54751
1.7765824
-0.62124852
17.640911
-0.49264602
-2.1457367
24.773354
-0.083306039
-1.6720152
27.796391
0.35614626
-1.6743434
27.854555
-1.8441741
-2.1531511
24.915319
0.33653296
-0.61020377
17.773029
1.8325555
-0.82974428
21.696099
-0.46547738
-2.0874145
29.812166
-0.74561622
-0.65226778
16.493576
0.46973084
-0.48618104
18.422859
0.4025255
-0.51026175
18.294237
0.26306331
-0.77012653
16.692815
-6.541772
-0.69843448
29.908437
-7.2597392
1.6402927
27.550391
3.6773198
-0.13930532
28.552996
7.1013607
1.5483755
19.842932
4.5901879
-1.9581364
25.434734
-2.6569854
-3.9657804
26.015412
-3.3978182
-1.3276852
22.479764
0.85304111
1.3414452
17.491095
7.6448956
2.1682844
24.759362
-0.74003898
-0.22296898
28.386454
0.042649128
-0.68466293
16.417871
0.00042633002
-0.62352276
17.932513
-0.042349832
-0.62371723
17.93254
0.73956562
-0.6854177
16.418522
-7.6300785
-0.22540985
28.378178
-0.85281686
2.1626424
24.751624
3.4072277
17.46408
1.3369469
2.6602103
22.440158
-1.3322124
-4.605408
26.05604
-3.9593683
-7.0968492
25.496157
-1.9439009
-3.6747904
19.85937
1.5667067
7.2699178
28.578333
-0.11172438
6.5568466
27.576141
1.6594236
-0.27134119
29.926025
-0.68726471
-0.37629037
16.706097
-0.76449679
-0.49376494
18.292832
-0.50801938
0.78758931
18.424457
-0.48366251
0.41953134
16.462298
-0.65220516
-1.7985415
29.796106
-2.0810164
-0.41583266
21.62818
-0.83393634
1.7883299
17.687473
-0.60185456
-0.50469801
24.847309
-2.1444412
-0.09406253
27.819846
-1.6635608
0.35358801
27.846187
-1.6709027
-1.8040453
24.900757
-2.1662721
0.2581422
17.679682
-0.61637611
1.9774357
21.628955
-0.80906612
-0.73625813
29.615837
-2.0748694
-0.55142816
16.380521
-0.62592617
-0.42364752
18.147547
-0.39764295
0.80850033
7.5350554
0.39970874
31.277783
-0.18857404
-0.16751247
0.83376881
7.5329449
1.4032991
5.8000784
-3.8802407
-1.1922128
33.054609
-0.51145105
-3.4945919
1.5315097
35.998826
1.3807176
7.9749419
2.5994334
5.9189728
-0.18843549
-1.6743318
25.935275
-0.051173074
-3.1562126
29.025235
0.10603363
-3.1558581
29.068028
-2.6458027
-1.6888663
26.041684
-1.398939
5.9494807
0.5260173
8.024903
3.9653793
-3.5101364
1.5484793
36.143912
-1.2444715
-1.2742048
33.17863
-0.80323771
5.8262019
-0.37210623
7.5758635
0.66137971
-0.73790771
-0.38744686
30.997461
0.68928058
7.440816
0.80098649
5.7527655
-5.9261382
-1.0619663
31.555438
-7.1495999
-3.501192
38.343001
-1.3464377
-5.1812484
40.891071
1.3771103
4.4509703
-6.031863
44.685904
7.0936905
8.4627792
4.9150606
8.9890654
-3.4711446
-0.56723868
25.330226
-4.654335
8.2506069
0.55358943
7.8795761
2.8205551
-4.9123922
3.2237259
42.345755
-5.7927456
47.731247
0.020373234
-6.9506038
1.3099429
42.819639
2.045273
-7.0334246
42.418179
3.9926981
-6.4068261
40.545497
3.9005684
-5.1106719
38.070143
-3.5994592
38.400294
3.6415929
-3.8635262
-4.2657616
38.118424
-2.6700911
38.874057
-4.8271528
-1.9686203
37.597547
-5.0851583
-3.0635164
39.687756
5.0980009
-4.2077495
-3.8839631
41.552622
-3.8276135
40.037333
-2.3001258
-5.95524
41.793748
-0.28920165
-6.381336
43.064495
1.7036091
-6.3663464
43.263511
6.2877582
3.3789961
-5.9376393
42.28008
2.8771046
41.253917
3.3713734
3.6985106
-5.0756069
38.644531
6.8873915
38.195324
-0.80496074
-0.78584103
32.883057
-0.42560792
5.7041422
-0.49241974
7.3715383
-0.75179915
-0.75190073
0.4938878
30.685584
-3.6577498
38.720286
-4.1356284
-4.1385397
3.6571318
38.422269
-5.1476199
40.568559
-3.9446005
-3.9568411
5.1391683
42.29842
-1.9783998
-4.4090934
43.724675
0.29375
-4.6472761
44.432113
2.4825915
-4.6538703
44.244229
-4.4095798
43.204931
4.5446255
-2.2429853
-2.6236825
44.209409
5.6768419
-2.0033711
42.600755
5.6797713
-1.5764401
40.477704
4.4141082
-0.90254748
38.126275
-0.34025476
37.382137
-4.9343675
0.044270853
33.539892
-6.0774253
0.05389444
37.833925
-5.9598284
0.07564436
40.788481
-4.7009333
0.10517402
43.04934
-2.6794146
0.13864749
44.643992
2.3396981
0.17389687
-0.25202418
45.552644
-0.27318021
45.16416
2.1795088
-2.3230719
45.38124
4.3867708
-2.2057906
44.863324
5.9209597
-1.9929702
43.730519
3.3840421
-1.7101709
6.2770213
42.288791
5.0710177
40.571975
3.6981744
-2.8778451
3.3716496
38.648507
0.78871332
38.721936
-0.80436115
-6.8833861
32.883644
-0.42616722
5.7043376
7.3716875
0.40007514
4.3916027
2.5800096
2.2012399
3.9031728
0.13705075
2.4271103
-0.30315309
-0.059768033
-0.13563987
0.52837197
16.270672
-8.972075e-05
17.65633
0.14032948
0.13513976
17.656643
0.14017806
0.52684337
16.269981
-0.1370127
0.83544944
30.987486
-2.6864621
-16.823584
0.12822069
19.125385
-1.5552665
1.531057
6.3718189
14.35176
4.6191099
-0.55790448
16.014412
-1.1441576
0.11022368
23.825782
-1.9869921
-1.3181582
30.994435
-3.451825
-0.36995348
27.869569
-2.5638023
2.5540426
23.613261
-22.904282
-2.5093147
-0.24170497
16.020036
-11.401526
-1.7454192
-3.9935185
19.39306
-14.045687
-1.7534658
-1.0245301
30.12124
-2.7583349
-0.43707327
16.481909
-0.2060829
-0.23828395
17.877545
0.23383853
0.14184786
17.795522
0.21510314
0.34057212
16.429834
-0.048603616
-0.26647074
32.043194
-1.4830599
0.18652335
20.945538
0.24073205
0.63103134
17.271206
-0.030603832
0.0155027
26.823117
-1.3789262
0.057880335
29.01124
-1.2232947
0.076019783
28.985948
-1.2224883
-0.5862928
26.738899
-1.3775104
-0.17978935
17.186357
-0.033574832
0.2501337
20.820062
0.24051058
-0.43914955
31.807817
-1.4665576
-0.045772264
-0.08106774
-2.2015963
-0.21242416
2.4493159
-2.5673017
3.0832929
-0.29718706
0.43552549
4.5301177
4.0340076
4.8221474
-0.17014985
-0.8304141
-6.0192216
-1.9564409
-2.4892237
32.336143
-2.4756182
1.9500413
-38.981745
37.992703
-1.9150956
-2.6786527
3.0935671
-3.3902201
-2.567571
1.1748024
3.417577
-3.687685
-3.7281284
38.163711
-2.5402635
38.963608
-1.9516683
-4.7304374
37.513315
4.4071877
-0.97730315
-5.6436045
38.025384
-0.40812893
37.273379
-4.932605
33.501941
-6.0678723
37.79298
-5.9353986
1.6783252
40.728736
-4.6638554
2.1459586
42.946969
-2.6427486
2.4347952
44.482726
-0.23027447
2.5893412
45.341128
-0.21004379
2.2858257
2.6398316
45.561316
2.2828763
45.789477
4.612653
0.24591375
45.38921
6.3394734
0.27861427
44.445463
6.9317164
0.28246534
43.278987
1.3120125
5.7802396
0.01820139
42.834761
4.9070694
41.26247
3.2223541
-0.55118443
2.8207321
42.350198
38.195328
4.894999
3.0687438
-3.5502363
38.837697
-5.0558749
-2.717062
1.037729
6.2129953
0.36133672
-6.3701549
0.49355488
3.159538
16.805736
1.5331454
-0.83680178
0.12804411
-1.5512811
19.13546
30.99211
-2.6846182
1.0298939
2.2136093
29.788644
-2.1755187
0.049160528
17.035714
0.029048897
-0.00051486121
18.060088
-0.41811061
-0.049940361
18.060556
-0.41846749
-1.0311434
17.035844
0.029133135
2.2113251
29.78907
-2.1768589
0.039245914
21.753963
-0.5713706
-0.98948212
17.362852
-0.38762138
-1.7505831
25.61307
-0.96808904
1.2537501
29.468412
-1.4935158
1.2094529
29.119005
-1.3232212
0.39608117
25.267654
-1.1332698
-0.16160986
17.342399
-1.0613815
-1.3170147
21.757973
-1.328648
0.47174619
29.844993
-1.6453162
-0.25019592
17.020794
-0.04195831
-0.28956404
18.103817
-0.27797478
-0.23166029
18.096688
-0.41508647
-1.3229909
17.133253
0.20120483
1.6659234
30.200174
-1.2819281
0.037293461
22.414777
0.15825464
-0.99916352
18.148134
0.19286794
-0.075799171
26.499025
-0.54904949
0.03761757
29.996573
-1.0812077
0.14051655
29.9382
-1.0824611
1.0232019
26.416154
-0.55393869
-0.037498449
18.092927
0.18755798
-1.7082926
22.328813
0.16099685
30.052759
-1.3006354
0.13417355
0.11790411
30.799496
-0.97800136
0.067821678
17.513396
-0.39479881
-0.00227767
18.693745
-0.62885013
-0.0688106
18.695479
-17.978725
-0.62989312
-17.033423
17.518312
-0.13049951
-0.39382067
-16.29868
-1.2093213
0.10738344
0.17133618
0.44512513
-0.21761595
-0.042847304
-0.23798864
31.8516
-1.461806
0.20859063
20.864378
0.25383446
0.63977356
17.234447
-0.033093157
0.021344843
26.790206
-1.3820754
0.075498816
29.008027
-1.2216366
0.10127326
29.01
-1.2158106
-0.57382773
26.789446
-1.3701563
-0.14618037
17.243583
-0.023600608
0.28025501
20.908751
0.23240111
-0.33158259
31.993018
-1.4766614
-0.1453937
16.41577
-0.04763018
0.23856615
17.791337
0.21734425
0.43196054
0.23556375
17.879652
1.0233324
-0.20274044
16.488091
3.9919201
30.131595
-2.7533954
-14.049347
19.394748
0.24151825
-1.7541854
-12.005983
11.417157
14.233593
9.7695589
6.8439251
22.946956
6.3552541
0.36950559
2.5507438
-2.5132363
23.604551
1.3139051
27.84358
-2.5656652
-0.11444805
30.970714
-3.4525947
0.54912163
23.850248
-1.9844598
-14.317374
-1.1403057
16.037556
4.6185776
2.7621891
2.3499434
-0.09056507
1.9736212
-0.26117272
2.5554208
-4.59929
15.341327
-2.1491827
-3.1646132
-3.5386131
3.9642056
0.58983798
-4.2171997
6.8407214
0.6934253
-6.4815602
-7.8789957
0.12318294
4.6589346
3.4720354
8.2518005
-0.55842977
25.337568
-4.9193155
-4.4528019
47.746546
-6.0119399
1.3455623
44.710752
1.3517002
-7.0061843
2.0438953
42.439428
-6.3440993
2.294169
43.08642
-4.60687
2.4685667
44.264893
2.5980692
45.18026
-2.1790966
4.5224282
4.3534148
44.231177
0.20519654
4.6668068
44.659638
2.4984865
4.6176393
44.490727
4.4133377
4.357865
43.711071
5.5881455
3.8423298
42.307746
3.0353388
40.325696
-4.8664829
39.540784
-3.9005249
4.8212381
41.120803
-2.2121892
5.5454258
42.315682
-0.17353005
5.8996815
42.961105
1.937517
5.9326755
43.068208
3.8254937
5.6580489
42.623131
-4.1954251
5.0508013
5.0735631
41.577119
5.9102611
43.230177
6.373408
3.8221509
41.819539
5.1570983
3.9917651
40.570255
7.1529123
40.919573
-3.479146
5.9283098
38.3701
-5.0757478
3.8982022
38.094838
4.2600972
40.062462
-3.8220148
3.6340307
3.569456
38.13621
-3.0130241
4.8142504
39.704029
-1.5207974
5.6623716
40.493682
0.13259579
6.0566084
40.805798
1.7350887
6.0442011
40.747285
3.0864716
5.6163426
40.342408
4.7009585
39.551471
-1.9836357
3.4800118
37.539554
-1.0095692
4.3959372
38.054466
-0.083342597
4.9208838
37.815978
0.87287339
4.9178993
37.845035
1.9391589
4.3951077
38.127691
2.6437897
3.4933879
37.596711
0.37083559
1.2607475
38.876455
-0.73680013
0.65400896
31.005683
0.36296971
1.042199
38.421259
-0.803145
31.576775
-0.67666432
5.7560589
7.4429151
2.5915527
0.4472732
4.4040892
0.10378673
-0.34027522
3.063605
-2.2355575
-0.27718593
2.4137897
3.9677746
-0.16291702
4.8014283
-0.9479226
6.049075
-2.148178
16.327898
0.03889603
0.27723787
-2.7247894
21.509506
-2.7729526
-0.47443079
-0.24797337
17.023841
1.3147581
29.850993
-1.6408017
0.1606393
21.761704
-1.3287065
-16.007319
-0.40226559
17.344921
-1.0623799
-1.7492189
-3.1752449
20.10924
-6.2038058
-3.4264399
-4.0462241
3.8919885
0.40543061
-2.3609632
0.92447294
6.9936148
-8.9835645
0.4367378
2.5240218
4.2679701
5.2919715
0.37942969
-2.2229065
-2.539594
18.717169
1.1365591
27.340483
-1.4562951
-8.2228667
-0.080711281
-1.2103355
25.270301
-1.2538883
29.122036
-1.3268758
1.7477676
29.469491
-1.4951557
0.99254247
25.609642
-0.96651203
-0.040680605
17.359331
-0.38562388
21.752485
-0.56875164
-0.3567284
0.032117262
22.831957
-0.7517629
0.0044591798
30.723914
-1.2884496
0.011048032
17.535055
-0.47525394
-0.00060684826
18.752392
-0.65877517
-0.011826696
18.752775
-0.65912144
-0.0056310035
17.535217
-0.47493057
0.35515385
30.724177
-1.2880822
0.031054641
22.832182
-0.75177543
-0.34783536
18.467625
-0.69324336
-0.34610246
26.818246
-1.1639145
0.1833893
30.324462
-1.3479255
0.47202694
30.293761
-1.4116559
0.2555152
26.788365
-1.2337501
-0.1328679
18.469292
-0.69435393
-0.59776722
22.841278
-0.61866867
-0.24866902
30.712835
-1.2020704
-0.19167035
17.512258
-0.50976988
-0.24298111
18.746778
-0.56496051
-0.17708841
18.748699
-0.69491128
-0.22761185
17.573015
-0.35886342
0.06454779
30.883651
-0.95428499
0.0020238841
23.043205
-0.60038161
-0.17446343
18.668159
-0.41483982
-0.12936785
27.038793
-0.62722132
0.019984762
30.489781
-0.64776659
0.15607462
30.482677
-0.64711625
0.18595288
27.010443
-0.62746662
-0.0099653442
18.63223
-0.41823757
22.989353
-0.59187347
-0.042392101
0.014010275
23.235619
-0.21789268
0.02092998
31.090011
-0.35068088
0.0033562093
17.685093
-0.15321466
-0.0012816129
18.910189
-0.21231221
-0.0043202235
18.910875
-0.21284002
-0.018564013
17.686393
-0.15279813
-30.81307
31.094103
-0.35036407
0.054321618
-30.08132
-0.97684499
0.13536438
1.7288768
-1.2975032
0.063583759
0.17507447
22.355109
-0.97503944
18.11431
0.1852815
-0.05471146
26.471638
-0.5543822
0.061056204
29.990083
-1.0810044
0.16697721
29.953814
-1.0775295
1.0553507
26.449358
-0.54379731
-0.0048977483
18.129776
0.20057249
-1.633967
22.392842
0.14454826
1.3302858
30.176776
-1.2793242
0.23312824
17.124648
0.20172439
0.28738769
18.093203
-0.4132572
18.104629
0.19026999
-0.24209221
18.747906
-0.5647314
0.2467058
17.514256
-0.50811346
0.59565632
30.716353
-1.1994763
0.13189513
22.843497
-0.61856556
-0.25665831
18.470448
-0.6935326
-0.47321624
26.789194
-1.2330191
-0.18444367
30.294037
-1.4107797
0.34511024
30.324418
-1.3474331
0.34656029
26.818019
-1.164696
18.46737
-0.69449653
-0.0092697969
-0.095865795
18.802057
-0.22708902
-0.11691318
23.204304
-0.26278322
-0.040442388
31.086412
-0.4354046
-0.026557816
17.70322
-0.18076329
-0.00062814764
18.943663
-0.21619184
0.025933769
18.943716
-0.21647859
0.039624346
17.703326
-0.18051016
0.1159225
31.086583
-0.43513816
0.0086907843
23.20442
-0.26307123
-0.096504847
18.802203
-0.22690321
-0.099245319
27.218488
-0.39476607
0.019555235
30.672625
-0.46063696
0.10863069
30.682128
-0.46832623
0.059699655
27.240095
-0.39836388
-0.065953139
18.817829
-0.22281865
-0.25186274
23.21279
-0.1867756
-0.17585503
31.064279
-0.42418634
-0.13355854
17.678852
-0.20769228
-0.14780546
18.928845
-0.16651351
-0.076903162
18.928778
-0.25005764
-0.087622723
17.71259
-0.1267748
-0.0022142403
31.133917
-0.33171808
0.0020780254
23.26657
-0.22650181
-0.033741829
18.857674
-0.15168033
-0.028441483
27.274148
-0.23472354
0.0066765862
30.701654
-0.23978224
0.038003356
30.693969
-0.23910775
0.032198987
27.253981
-0.23518184
18.835823
-0.15553303
-0.025922326
0.018213567
18.878753
-0.036600833
-0.044358685
23.286715
-0.033559034
-0.018073315
31.142314
-0.078492967
-0.0094642054
17.710886
-0.034452631
-0.0014587809
18.941478
-0.039458755
0.0079728585
18.94132
-0.040017845
0.018181691
17.710223
-0.034007437
0.049575097
31.141199
-0.078221724
0.032833463
23.286942
-23.241323
-0.029584979
-18.838829
18.87791
0.031478429
-0.038198268
-18.643776
-0.0061448149
-0.028228768
-0.15930035
-0.14625347
-0.42341617
-0.031056812
-0.10211519
27.017988
-0.63292099
0.048055609
30.483119
-0.64907756
0.1860375
30.492976
-0.64400495
0.21810587
27.034861
-0.61986674
0.022817964
18.658772
-0.40797125
-0.040390369
23.030022
-0.61239009
0.23608311
30.872735
-0.95160488
0.17904133
17.569434
-0.35761519
18.747416
-0.69430682
0.14703909
-0.078126382
18.929419
-0.25006465
0.13241251
18.93039
-0.16657869
0.17426584
17.680434
-0.20683311
0.25018707
31.066635
-0.42293484
0.065295623
23.214174
-0.18693912
-0.0603053
18.818611
-0.22247499
-0.10920674
27.240698
-0.3981333
-0.02014046
30.682364
-0.46824955
0.098627681
30.672613
-0.46064116
27.21835
-0.39486778
0.014135847
-0.032685083
27.316105
-0.080808651
-0.017339063
18.878814
-0.047263399
-0.060125583
23.290663
-0.045337787
-0.038194251
31.15857
-0.094196831
-0.020180097
17.726317
-0.040955539
-0.00035639689
18.962492
-0.038291676
0.01977652
18.962427
-0.038477938
0.037703944
17.726351
-0.040798467
0.05957164
31.158652
-0.094049195
0.017027578
23.290705
-0.045506717
-0.01447368
18.878876
-0.047157568
-0.033013953
27.316166
-0.080742472
-0.025115131
30.757914
-0.093813433
-0.013449205
30.763688
-0.093141704
-0.024124398
27.328702
-0.078772389
-0.047303479
18.887086
-0.04777614
-0.11493965
23.292634
-0.014669236
-0.093631234
31.137913
-0.095144812
-0.066665916
17.70692
-0.055111722
-0.069893662
18.947387
-0.015033762
-0.030157733
18.94771
-0.05837014
-0.0221743
17.724516
-0.019502568
0.011258939
31.168269
-0.067464066
0.012398732
23.307423
-0.042273251
0.0075967586
18.895062
-0.032520509
0.0026833742
27.330913
-0.051356177
-0.0028064909
30.761097
-0.054290813
-0.0096731118
30.753938
-0.055109232
27.314017
-0.053961393
-0.029739804
0.022344228
27.345275
-0.026849311
-0.029483082
18.896949
-0.020345559
-0.046425948
23.304424
-0.0022085531
-0.024494218
31.152747
-0.032897814
-0.011052403
17.713153
-0.016367385
-0.0015702729
18.942521
-0.01110914
0.0090684561
18.942002
-0.011900037
0.022651014
17.711757
-0.015744717
0.046196345
31.149615
-0.03243521
0.030860891
23.30225
-0.0012844282
0.033407619
18.894676
-0.020558802
-27.312597
27.342785
0.02832159
-0.026754696
-27.255999
0.029100673
-0.055041277
7.4547009e-05
-0.2397034
0.036186021
30.693254
-0.24132567
0.067898369
30.701049
-0.23730078
0.062046841
27.273988
-0.22948587
0.014428854
18.855872
-0.14699286
0.018374591
23.262148
-0.23523734
0.093311403
31.131806
-0.33045606
17.712593
-0.1260338
0.030270225
-0.02449635
17.726436
-0.019285279
0.068815361
18.949492
-0.058351955
0.065634061
18.949146
-0.015300623
0.092346553
17.708298
-0.054641841
0.11372458
31.139664
-0.094593647
0.046819348
23.293528
-0.014883624
0.023732033
18.887584
-0.047574463
0.013133928
27.329089
-0.078627688
0.024813851
30.76385
-0.09307848
30.757935
-0.093814412
0.012510335
-0.027547691
30.799556
-0.028702115
-0.0059933676
27.358816
-0.026361159
-0.018966944
18.908417
-0.018599419
-0.041707592
23.320341
-0.0087622078
-0.026685065
31.177038
-0.034251641
-0.012739602
17.728974
-0.017254564
-0.00015977129
18.960477
-0.011029143
0.012517987
18.96042
-0.011133487
0.026414611
17.728971
-0.017169421
0.041425297
31.177058
-0.034180064
0.018810662
23.32036
-0.0088622813
0.0058268834
18.908446
-0.01855695
-0.012662437
27.358836
-0.026338378
-0.027703188
30.799538
-0.028709009
-0.03526399
30.797486
-0.027792376
-0.037552521
27.354431
-0.024997214
-0.036080129
18.90352
-0.019338302
-0.062678879
23.310865
0.006617844
-0.045076675
31.15316
-0.033531509
-0.028910866
17.712121
-0.022146439
-0.026426898
18.945951
-0.0016366923
-0.0075231535
18.947831
-0.019582626
0.0019492528
17.72355
-0.0091008434
0.022321849
31.174634
-0.027320741
0.016043665
23.323022
-0.010450582
0.014315031
18.912629
-0.016660725
0.0058671139
27.362958
-0.024287602
-0.008458344
30.799553
-0.02709751
30.791594
-0.027951387
-0.022159809
0.01048914
30.834238
-0.034755016
-0.026947133
27.379772
-0.032667692
-0.026306124
18.918442
-0.024243106
-0.040900517
23.325191
-0.0080359276
-0.020068282
31.169187
-0.038370356
-0.0093269109
17.721446
-0.020259587
-0.0015581947
18.94927
-0.015657346
0.0072005445
18.948676
-0.016574633
0.017219133
17.720058
-0.019545076
0.037600915
31.165922
-0.037801946
0.024543606
23.322488
-0.008983421
0.025085046
18.9161
-0.023774331
0.020410814
27.377485
-0.032160929
-30.79004
30.833508
0.0089003264
-0.034291857
-30.751574
0.015564532
-0.027588565
0.025064962
-0.055372748
0.017509433
30.760878
-0.053820145
0.006902746
27.333289
-0.049955149
-0.0041702773
18.896604
-0.030495798
-0.0035094151
23.308018
-0.046966284
31.170972
-0.067024695
-0.0023063691
0.021034287
31.178986
-0.027373248
0.0067561944
17.726026
-0.0092619308
0.025051756
18.94991
-0.019267932
0.027987206
18.947602
-0.0019689477
0.044048142
17.713262
-0.021794125
0.061792536
31.154461
-0.033218289
0.035731271
23.31144
0.0064213124
0.037284688
18.90383
-0.019213975
0.035076015
27.354665
-0.024911879
30.797582
-0.027753455
0.018518421
-0.027505737
30.836551
-0.032162623
0.0042222595
30.843921
-0.032615679
-0.0084745395
27.399311
-0.030198917
-0.016184971
18.935657
-0.021664862
-0.031071728
23.3471
-0.013865022
-0.016400179
31.199098
-0.038017328
-0.0079476476
17.739151
-0.019914796
-8.2086477e-05
18.967866
-0.016412396
0.0078375747
18.967804
-0.016461894
0.016256747
17.739138
-0.019872995
0.030925074
31.199087
-0.037988461
0.016107354
23.347097
-0.013916882
0.0083943072
18.935662
-0.021645236
-0.0042995592
27.399316
-0.030192533
-0.018600956
30.843908
-0.032622688
-0.027620174
30.836499
-0.032185312
-0.028604215
27.383005
-0.029608564
-0.025637675
18.920874
-0.02207035
-0.039227718
23.327935
-0.0053143096
-0.021447532
31.170253
-0.036074834
-0.012356605
17.722452
-0.020755373
-0.0082015065
18.953551
-0.01298381
0.00092097838
18.956765
-0.019279856
0.0071907977
17.732849
-0.016867518
0.02306759
31.193053
-0.035555051
0.014201279
23.345421
-0.015282782
0.01058805
18.935762
-0.021168923
0.002525996
27.399945
-0.030534164
30.843612
-0.034053624
-0.0099064293
0.00046586692
30.8828
-0.03276248
-0.017869443
30.872625
-0.033251883
-0.020377741
27.410757
-0.031163402
-0.020018699
18.938441
-0.022796785
-0.030942052
23.344512
-0.010776165
-0.013999749
31.186939
-0.036505891
-0.0067850285
17.73179
-0.019479288
-0.0013478285
18.958374
-0.016371851
0.0048605725
18.957859
-0.017227631
0.011068674
17.730717
-0.01879822
0.026725929
31.184367
-0.035950618
0.017105385
23.342191
-0.01243971
0.016315113
18.93655
-0.022113595
0.012937184
27.408823
-0.030653516
0.0047065181
30.871871
-0.032981327
-30.844792
30.883671
-0.00432726
-0.032762709
-30.80051
-0.003982749
-0.033864188
0.00060148837
-0.026781126
-0.0099498787
27.366
-0.023982227
-0.01391395
18.915305
-0.016185459
23.325719
-0.011818851
-0.025436207
0.015525102
23.348444
-0.014606233
-0.0090333769
31.197175
-0.035827584
-0.0021197923
17.735051
-0.017221386
0.0067438278
18.958595
-0.018754627
0.011572596
18.954858
-0.013298237
0.02066247
17.723308
-0.020447353
0.038606348
31.171168
-0.035832835
0.02539924
23.328292
-0.0054603874
0.028426898
18.921053
-0.02199203
27.383137
-0.029558207
0.016616622
-0.017571714
27.410923
-0.02943628
0.0098684996
30.872601
-0.032069454
0.00025762538
30.882824
-0.032245495
-0.0071203417
27.433565
-0.029683789
-0.012049567
18.95892
-0.020931205
-0.022033171
23.370131
-0.015477724
-0.009699253
31.220923
-0.036106777
-0.0049420481
17.751359
-0.018941086
-4.3349882e-05
18.978347
-0.017244498
0.0048823739
18.978285
-0.017272828
0.0096372599
17.751324
-0.018919869
0.021973187
31.220889
-0.036089139
0.012019135
23.370118
-0.015500304
0.0070865116
18.958916
-0.020926227
-0.0002906424
27.433568
-0.029686581
-0.0099093746
30.882826
-0.032257161
-0.016681059
30.872582
-0.032085601
-0.017679214
27.410858
-0.029469926
-0.016704204
18.938623
-0.021123879
-0.025126799
23.345112
-0.011085295
-0.010712868
31.188462
-0.034516665
-0.0057384551
17.734171
-0.018692166
-0.002127177
18.964097
-0.016072687
0.0026521785
18.968106
-0.018036074
0.0061239402
17.745147
-0.017782512
0.017817108
31.214335
-0.034952982
0.010071395
23.36745
-0.016659523
0.0058263188
18.957862
-0.020410737
27.433
-0.029580501
-0.0019715669
-0.002253586
27.456915
-0.023149705
-0.0079036203
30.910681
-0.025547542
-0.012545593
30.899693
-0.025890287
-0.013529881
27.432688
-0.024287261
-0.013452924
18.952873
-0.017685629
-0.020722843
23.358253
-0.0095061267
-0.0086508227
31.200396
-0.02815588
-0.0043818143
17.739974
-0.015165103
-0.0010376858
18.965641
-0.013218076
0.0028722561
18.965247
-0.013911673
0.0062102525
17.739262
-0.014611382
0.016919821
31.198663
-0.027676825
0.010622397
23.356595
-0.011140676
0.0093902755
18.951604
-0.017036921
0.0073368822
27.43136
-0.023859173
0.0022983095
30.899145
-0.025740074
-0.0031776846
30.911246
-0.025635576
-27.435048
27.458277
-0.0062876321
-0.023516292
-27.402528
-0.0096748874
-0.029913341
-0.012052222
-0.030690028
18.938317
-0.021463893
-0.012743036
18.959851
-0.020984481
-0.02147811
23.36995
-0.015143745
-0.0083776429
31.21745
-0.035298661
-0.0038886787
17.746763
-0.01818334
0.00083277581
18.969463
-0.017475606
0.0051240952
18.965013
-0.016336433
0.010144833
17.734752
-0.018444721
0.024712466
31.189051
-0.034332715
0.016555533
23.345318
-0.01117987
18.938724
-0.021070272
0.0095750845
-0.0099566399
18.952516
-0.016586982
0.0087173665
27.431962
-0.023506344
0.0044708978
30.899008
-0.025618685
-0.0010955995
30.910543
-0.025693917
-0.0049202683
27.457592
-0.023619012
-0.0080668254
18.975352
-0.016559108
-0.014453859
23.386282
-0.012824674
-0.0054266785
31.237072
-0.027891907
-0.0029424049
17.760864
-0.014740731
-2.0767689e-05
18.986721
-0.013928482
0.0029218982
18.986647
-0.013937935
0.0054024782
17.760827
-0.014738066
0.014434301
31.237034
-0.027895994
0.0080568943
23.386267
-0.012834475
0.0049119166
18.975349
-0.016564922
0.0010869237
27.457596
-0.023629277
-0.0044850837
30.910549
-0.025704349
-0.0087467068
30.899003
-0.025635025
-0.0096319799
27.431932
-0.023532328
-0.010044985
18.952468
-0.016622623
-0.015472586
23.358347
-0.010824322
-0.0054230678
31.202682
-0.026971149
-0.0029166056
17.743321
-0.014423185
-0.00051806051
18.972568
-0.013529827
0.002063942
18.976993
-0.014134958
0.0036148459
17.755025
-0.01421375
0.011452577
31.230948
-0.027210446
0.0060065014
23.38371
-0.01387764
18.974242
-0.015937463
0.0001002267
-0.0030836649
18.984538
-0.011440705
-0.0023527181
27.471769
-0.016620973
-0.0055205078
30.927815
-0.018308046
-0.0077524038
30.916213
-0.01854371
-0.0078715567
27.446066
-0.017407292
-0.0081364413
18.961748
-0.012644276
-0.012565202
23.36646
-0.0075800413
-0.0046128684
31.20873
-0.019775838
-0.0025193215
17.745148
-0.01081876
-0.00071448397
18.970194
-0.0097818557
0.0014659916
18.969911
-0.010274124
0.0028635433
17.744717
-0.010414407
0.0097250938
31.207709
-0.019423399
0.0059535811
23.365414
-0.0088484147
0.0046195531
18.961004
-0.012128004
0.0036036487
27.445283
-0.017072909
0.0010246497
30.91588
-0.018437006
-0.0017721505
30.928133
-0.018386362
-0.0033045062
27.472552
-0.016921225
-18.975551
18.985288
-0.0052001431
-0.011920034
-0.0087033152
-0.016530729
-0.014927157
23.385453
-0.012324019
-0.0056247422
31.232974
-0.02753126
-0.0030983205
17.756055
-0.014569081
-0.00049063963
18.977875
-0.013656247
0.0024776533
18.97313
-0.013721908
0.005043553
17.743679
-0.014234589
0.015213458
31.203029
-0.026831069
23.358454
-0.010881234
0.0055349582
-0.0087984264
23.366845
-0.0089049489
0.0045151994
18.961505
-0.012013224
0.0039887574
27.445447
-0.017105005
0.0017593056
30.915609
-0.018631258
-0.0010091892
30.927687
-0.018668396
-0.0027418702
27.472316
-0.017170864
-0.0048805126
18.985441
-0.01203229
-0.0087290653
23.395996
-0.0096733177
-0.0025927698
31.247051
-0.019648287
-0.0015930062
17.766847
-0.01054985
-4.0271659e-06
18.99197
-0.010270326
0.0015881971
18.991894
-0.010269488
0.0025943943
17.766804
-0.010549542
0.0087402421
31.247009
-0.019654952
0.0048887662
23.395981
-0.0096754047
0.0027483715
18.985439
-0.012044571
0.0010155821
27.472319
-0.017182943
-0.001756041
30.927696
-0.018681339
-0.0039947065
30.91562
-0.018651148
-0.0045384987
27.445445
-0.017129202
-0.0055788412
18.961486
-0.012037953
-0.0089493639
23.366803
-0.008883534
-0.0024297371
31.211833
-0.019206712
-0.0014800665
17.74915
-0.010361473
-0.00018610339
18.977942
-0.010125557
0.0011205521
18.982585
-0.010360913
0.0014267162
17.761365
-0.010248068
0.0064456274
31.241531
-0.019182132
23.393777
-0.010530376
0.0013811529
-0.0033422397
23.399206
-0.0080506986
-0.00094775879
18.990196
-0.0082619052
-0.0021178172
27.479898
-0.011946243
-0.0034160605
30.937135
-0.013120743
-0.0041252409
30.925148
-0.013274184
-0.0038330697
27.453275
-0.01244918
-0.0044720357
18.966524
-0.0090167468
-0.0070212423
23.370692
-0.0062515525
-0.0018877796
31.213178
-0.013864975
-0.0012528772
17.74792
-0.0077428799
-0.00043863316
18.972613
-0.0074242049
0.00059996463
18.972412
-0.0077350942
0.00077535576
17.747684
-0.0074830469
0.0051899008
31.212618
-0.013624556
0.0030347156
23.370091
-0.0070847829
0.001676134
18.966137
-0.0086660945
0.0013546776
27.452864
-0.012216225
0.0004035397
30.924964
-0.01319278
-0.0006451825
30.93729
-0.013173065
-0.0011917204
27.480295
-0.012153571
-0.0027838639
18.990573
-0.0085874793
-23.394844
23.399796
-0.0050689534
-0.0072283219
-0.0090985668
-0.0092973487
-0.0029165258
31.242692
-0.019423706
-0.0018607576
17.761945
-0.010509074
-0.00050541384
18.983097
-0.010010156
0.0011934579
18.978249
-0.010251831
0.0021957233
17.749345
-0.010230563
31.212018
-0.019109723
0.0047833338
-0.00048111776
31.216963
-0.013539
0.0028267367
23.371433
-0.0071803224
0.0015666594
18.966555
-0.0086682609
0.0014181699
27.45299
-0.012335799
0.00059694707
30.924798
-0.013415813
-0.00042127732
30.93708
-0.013431149
-0.0010059121
27.480324
-0.012376539
-0.0026700656
18.990918
-0.0087057666
-0.0048919778
23.401103
-0.0074434803
-0.00074671807
31.252406
-0.013798367
-0.00071644408
17.770067
-0.0075868174
2.9532656e-06
18.994776
-0.0077152967
0.00072858873
18.994689
-0.0077085282
0.00076423
17.770023
-0.0075947313
0.0049183938
31.25236
-0.013812226
0.0026822471
23.401089
-0.0074387938
0.0010226133
18.990915
-0.0087173552
0.00043934159
27.480336
-0.012396825
-0.00058139054
30.937098
-0.013453031
-0.0014092186
30.924819
-0.013435347
-0.0015689971
27.453005
-0.012357126
-0.0028476075
18.966563
-0.008690659
-0.0048608176
23.371428
-0.0071772891
-0.0006122865
31.216882
-0.013609895
-0.00065182155
17.752339
-0.0075016821
-0.00011637511
18.98085
-0.0076559913
0.00042835364
18.985607
-0.0077832922
-8.3129425e-06
17.76484
-0.0074054815
31.247333
-0.013491821
0.0017345237
0.00078048572
31.250014
-0.010115951
0.00056214096
23.401687
-0.006494419
-0.0013089139
18.992855
-0.0063461761
-0.0016571422
27.48372
-0.0090460086
-0.0018455074
30.941493
-0.0098295339
-0.001713976
30.929304
-0.0099163751
-0.0012692132
27.456609
-0.0093263369
-0.0022252496
18.968717
-0.0067623187
-0.0036974327
23.372515