/*--------------------------------*- C++ -*----------------------------------*\
  =========                 |
  \\      /  F ield         | OpenFOAM: The Open Source CFD Toolbox
   \\    /   O peration     | Website:  https://openfoam.org
    \\  /    A nd           | Version:  7
     \\/     M anipulation  |
\*---------------------------------------------------------------------------*/
FoamFile
{
    version     2.0;
    format      ascii;
    class       volScalarField;
    location    "30";
    object      rho;
}
// * * * * * * * * * * * * * * * * * * * * * * * * * * * * * * * * * * * * * //

dimensions      [1 -3 0 0 0 0 0];

internalField   nonuniform List<scalar> 
25201
(
1.1739398
1.1739333
1.1739398
1.1739333
1.1739153
1.1739209
1.1739288
1.173933
1.1739262
1.1739209
1.1739262
1.1739208
1.1739165
1.1738987
1.1739015
1.1739049
1.1738982
1.1738948
1.1738797
1.1738822
1.1738819
1.1738998
1.1738973
1.1738997
1.1738805
1.1738778
1.1738883
1.1738948
1.1738936
1.1738814
1.1738816
1.1738806
1.1738886
1.173886
1.1738835
1.1739023
1.1738988
1.1739019
1.1739058
1.1739086
1.1739016
1.1739037
1.173883
1.1738908
1.1739108
1.1739273
1.1739128
1.173907
1.1739123
1.1739167
1.1739225
1.17392
1.1739193
1.1739194
1.1739181
1.1739161
1.1739081
1.1739076
1.1739167
1.1739203
1.1739101
1.1739088
1.1739177
1.1739213
1.1739205
1.1739191
1.1739192
1.1739214
1.1739223
1.1739242
1.1739235
1.1739141
1.1739063
1.1739165
1.1739181
1.173926
1.173917
1.1739172
1.1739107
1.1739073
1.1739075
1.1739024
1.1739095
1.1739166
1.1739219
1.1739151
1.1739127
1.1738993
1.1738925
1.1738989
1.1739031
1.1739208
1.1739144
1.1739047
1.1738959
1.1738842
1.1738699
1.173882
1.173894
1.1738828
1.1738954
1.1739065
1.1739171
1.1739069
1.1739133
1.1739256
1.1739342
1.1739164
1.1739096
1.1738826
1.1738849
1.1738976
1.1739189
1.1739049
1.173922
1.1738992
1.1739158
1.173937
1.1739471
1.173929
1.1739116
1.1739279
1.1739325
1.1739517
1.1739717
1.1739435
1.1739186
1.1739095
1.1738986
1.1739051
1.1739082
1.1739108
1.1739291
1.1739261
1.1739222
1.173917
1.1739127
1.1739093
1.1739086
1.1739078
1.173916
1.1739178
1.1739206
1.1739099
1.1739073
1.1739168
1.1739196
1.1739181
1.1739225
1.1739191
1.1739205
1.1739213
1.1739226
1.1739216
1.1739193
1.1739187
1.1739201
1.1739121
1.1739059
1.1739166
1.1739242
1.1739142
1.1739153
1.1739073
1.1739019
1.1739069
1.1739106
1.1739176
1.1739307
1.1739246
1.1739222
1.1739167
1.173918
1.1739098
1.1739189
1.1739212
1.1739179
1.1739116
1.173922
1.1739276
1.1739376
1.1739216
1.1739206
1.1739361
1.1739358
1.1739532
1.1739364
1.1739389
1.1739532
1.1739716
1.1739489
1.173931
1.1739219
1.1739115
1.1739211
1.173903
1.1738916
1.1739473
1.1739278
1.1739111
1.1739065
1.1739134
1.1739258
1.1739144
1.1739042
1.1739169
1.173929
1.1739345
1.1739165
1.1739328
1.1739523
1.1739725
1.1739437
1.1739389
1.1739261
1.1738915
1.1739334
1.1739399
1.173911
1.1738951
1.1738937
1.1738831
1.1738868
1.1738822
1.1738818
1.1739018
1.1739038
1.1739109
1.1738909
1.1738891
1.1739088
1.1739061
1.1739023
1.1738992
1.1738814
1.1738845
1.1739027
1.1738999
1.1739003
1.1738986
1.1723442
1.1729974
1.1737532
1.1742014
1.17451
1.1747545
1.1746674
1.1745054
1.1742283
1.1739906
1.1744895
1.1745245
1.1745706
1.1745976
1.1745898
1.1745294
1.1745255
1.1745222
1.1745176
1.1745157
1.1744153
1.1744147
1.1744145
1.1744149
1.1744214
1.1743453
1.1743388
1.1743387
1.1743394
1.1743406
1.174273
1.1742721
1.1742717
1.1742718
1.1742774
1.1742225
1.1742171
1.1742168
1.1742172
1.174218
1.1741721
1.1741715
1.1741713
1.1741715
1.174176
1.1741372
1.1741333
1.1741332
1.1741334
1.174134
1.1741016
1.1741012
1.174101
1.1741011
1.1741043
1.1740765
1.1740737
1.1740736
1.1740738
1.1740743
1.1740509
1.1740507
1.1740505
1.1740506
1.1740529
1.1740328
1.1740305
1.1740304
1.1740305
1.1740308
1.1740138
1.1740136
1.1740136
1.1740137
1.1740155
1.1740006
1.1739989
1.1739987
1.1739987
1.1739988
1.173986
1.173986
1.1739862
1.1739864
1.1739876
1.1739762
1.1739748
1.1739745
1.1739741
1.1739739
1.173964
1.1739644
1.1739649
1.1739653
1.1739663
1.1739575
1.1739565
1.173956
1.1739553
1.1739549
1.1739469
1.1739476
1.1739483
1.1739488
1.1739495
1.1739429
1.173942
1.1739415
1.1739409
1.1739404
1.1739344
1.173935
1.1739355
1.1739359
1.1739368
1.1739306
1.1739294
1.1739286
1.1739274
1.1739263
1.1739209
1.1739222
1.1739236
1.1739244
1.1739254
1.173921
1.1739198
1.173919
1.1739178
1.1739167
1.1739129
1.173914
1.1739151
1.1739158
1.1739169
1.1739124
1.1739115
1.1739106
1.1739093
1.173908
1.1739036
1.1739058
1.1739078
1.1739089
1.1739095
1.1739125
1.1739117
1.1739117
1.1739116
1.1739112
1.1739346
1.173928
1.1739202
1.1739156
1.1739157
1.1739052
1.1739039
1.173905
1.1739071
1.1739087
1.1739087
1.1739092
1.1739151
1.1739253
1.1739344
1.1739581
1.1739445
1.1739286
1.1739196
1.1739177
1.1739135
1.1739135
1.1739163
1.173921
1.1739249
1.1738918
1.1738973
1.1739029
1.1739063
1.1739083
1.1739118
1.1739099
1.1739069
1.1739017
1.1738967
1.1739027
1.1739069
1.1739115
1.1739143
1.1739166
1.1739208
1.1739189
1.1739163
1.1739117
1.1739078
1.1739119
1.1739161
1.1739207
1.1739234
1.1739252
1.1739306
1.1739293
1.1739274
1.173924
1.1739212
1.1739321
1.1739334
1.1739349
1.1739359
1.1739367
1.1739427
1.1739423
1.1739419
1.1739413
1.1739408
1.1739466
1.1739473
1.1739482
1.1739487
1.1739491
1.1739573
1.1739564
1.1739559
1.1739553
1.1739548
1.1739635
1.1739639
1.1739645
1.1739648
1.173966
1.173976
1.1739746
1.1739743
1.1739741
1.173974
1.173985
1.1739851
1.1739853
1.1739854
1.173987
1.1739999
1.173998
1.1739979
1.1739979
1.1739981
1.1740123
1.1740122
1.1740122
1.1740123
1.1740143
1.1740315
1.1740289
1.1740288
1.174029
1.1740294
1.1740483
1.1740481
1.174048
1.1740481
1.1740509
1.1740743
1.1740708
1.1740707
1.1740709
1.1740714
1.1740974
1.1740971
1.1740969
1.1740971
1.174101
1.1741334
1.1741284
1.1741283
1.1741286
1.1741292
1.1741653
1.1741648
1.1741646
1.1741647
1.1741704
1.1742155
1.1742085
1.1742083
1.1742088
1.1742097
1.1742606
1.1742597
1.1742592
1.1742593
1.1742671
1.1743319
1.1743223
1.1743223
1.1743232
1.1743246
1.1743923
1.1743914
1.1743909
1.1743911
1.1744016
1.1745004
1.1744896
1.1744876
1.1744854
1.1744853
1.174495
1.1745137
1.1745383
1.1745532
1.1745603
1.1747095
1.1746319
1.1745616
1.1744437
1.1743386
1.1742841
1.1744065
1.1745338
1.1746148
1.1747136
1.175209
1.1654229
1.1654232
1.1652534
1.1650484
1.174674
1.1747897
1.1749141
1.1749941
1.1750996
1.1749462
1.1748784
1.1748115
1.1746989
1.1745967
1.174653
1.1746707
1.1746943
1.1747082
1.1747121
1.1746009
1.1745947
1.1745933
1.1745915
1.1745912
1.1744629
1.1744622
1.1744617
1.1744619
1.1744701
1.1743818
1.174374
1.1743739
1.1743746
1.1743757
1.174297
1.1742962
1.1742958
1.1742958
1.1743024
1.1742428
1.1742367
1.1742366
1.174237
1.1742377
1.1741858
1.1741852
1.1741849
1.174185
1.1741899
1.1741488
1.1741442
1.1741441
1.1741443
1.1741449
1.1741094
1.174109
1.1741087
1.1741088
1.1741123
1.1740835
1.1740802
1.1740801
1.1740802
1.1740806
1.1740553
1.1740551
1.1740549
1.174055
1.1740576
1.1740371
1.1740345
1.1740344
1.1740345
1.1740348
1.1740166
1.1740164
1.1740163
1.1740164
1.1740184
1.1740034
1.1740014
1.1740013
1.1740014
1.1740016
1.1739882
1.1739881
1.1739881
1.1739881
1.1739897
1.1739785
1.1739771
1.173977
1.173977
1.1739771
1.1739671
1.1739671
1.1739672
1.1739673
1.1739682
1.1739599
1.173959
1.1739589
1.1739588
1.1739587
1.1739511
1.1739512
1.1739514
1.1739515
1.173952
1.1739455
1.1739448
1.1739447
1.1739445
1.1739445
1.1739345
1.1739355
1.1739367
1.1739375
1.1739384
1.1739315
1.1739304
1.1739284
1.1739249
1.173922
1.1739116
1.173916
1.173921
1.1739239
1.1739253
1.1739207
1.1739192
1.1739161
1.1739108
1.1739063
1.173901
1.1739057
1.1739111
1.1739143
1.1739161
1.1739113
1.1739099
1.1739065
1.1739005
1.173895
1.1738904
1.1738964
1.1739026
1.1739062
1.1739077
1.1739133
1.1739124
1.1739149
1.1739192
1.1739227
1.1739558
1.1739427
1.173927
1.1739181
1.1739177
1.1739101
1.1739098
1.1739152
1.1739247
1.173933
1.1739018
1.1739012
1.1739004
1.1738998
1.1738995
1.1739026
1.173902
1.1739009
1.1739002
1.1739
1.1739113
1.17391
1.1739146
1.1739225
1.1739293
1.1739339
1.1739276
1.1739194
1.1739146
1.1739168
1.1739155
1.1739147
1.1739175
1.1739222
1.1739258
1.1738982
1.1739022
1.1739062
1.1739085
1.1739093
1.1739112
1.1739103
1.1739078
1.1739037
1.1739
1.1739039
1.1739074
1.1739114
1.1739138
1.1739153
1.1739198
1.1739187
1.1739163
1.1739123
1.173909
1.1739139
1.1739172
1.173921
1.1739233
1.1739243
1.1739307
1.1739301
1.1739286
1.1739261
1.173924
1.1739338
1.1739349
1.1739361
1.1739368
1.1739376
1.173945
1.1739445
1.1739444
1.1739443
1.1739443
1.1739507
1.1739509
1.1739511
1.1739512
1.1739517
1.1739597
1.173959
1.1739589
1.1739588
1.1739588
1.1739668
1.1739669
1.173967
1.1739672
1.173968
1.1739784
1.1739772
1.1739771
1.173977
1.1739772
1.1739879
1.1739879
1.1739879
1.173988
1.1739894
1.1740034
1.1740016
1.1740016
1.1740017
1.1740021
1.1740164
1.1740164
1.1740163
1.1740164
1.1740182
1.1740371
1.1740348
1.1740347
1.1740348
1.1740352
1.1740553
1.1740551
1.174055
1.1740551
1.1740575
1.1740837
1.1740806
1.1740805
1.1740808
1.1740812
1.1741096
1.1741093
1.1741091
1.1741092
1.1741123
1.1741493
1.1741451
1.174145
1.1741453
1.1741459
1.1741867
1.1741862
1.1741859
1.174186
1.1741904
1.1742439
1.1742383
1.1742381
1.1742384
1.1742392
1.1742984
1.1742979
1.1742978
1.1742981
1.174304
1.1743859
1.1743786
1.1743781
1.1743781
1.1743787
1.174469
1.1744691
1.1744695
1.1744701
1.1744775
1.1746196
1.1746124
1.1746129
1.1746144
1.1746166
1.1748293
1.1748064
1.1747833
1.1747697
1.1747678
1.1751139
1.1751858
1.1752751
1.1754256
1.1755641
1.1764541
1.176118
1.1757614
1.1755522
1.1753246
1.1741943
1.1739106
1.1733789
1.1724642
1.1716563
1.1741187
1.1743405
1.1746095
1.1747652
1.174788
1.1746188
1.1746221
1.1745967
1.1745526
1.1745163
1.1745471
1.1745498
1.1745546
1.1745579
1.1745618
1.1744457
1.1744382
1.1744374
1.174437
1.174437
1.174358
1.1743573
1.1743571
1.1743574
1.1743639
1.1742914
1.1742852
1.1742848
1.174285
1.1742856
1.174229
1.1742284
1.1742282
1.1742284
1.1742334
1.1741844
1.1741798
1.1741796
1.1741798
1.1741805
1.1741405
1.1741401
1.1741398
1.17414
1.1741437
1.1741096
1.1741062
1.1741061
1.1741064
1.1741069
1.1740783
1.174078
1.1740778
1.1740779
1.1740806
1.174056
1.1740534
1.1740533
1.1740533
1.1740536
1.1740337
1.1740334
1.1740332
1.1740333
1.1740354
1.1740175
1.1740154
1.1740153
1.1740153
1.1740156
1.1740006
1.1740005
1.1740004
1.1740005
1.1740022
1.1739891
1.1739874
1.1739873
1.1739873
1.1739875
1.1739763
1.1739763
1.1739763
1.1739764
1.1739777
1.1739679
1.1739666
1.1739665
1.1739665
1.1739666
1.1739581
1.1739581
1.1739582
1.1739583
1.1739593
1.1739517
1.1739505
1.1739504
1.1739503
1.1739503
1.1739436
1.1739438
1.1739439
1.173944
1.1739448
1.1739386
1.1739378
1.1739376
1.1739375
1.1739374
1.1739318
1.1739321
1.1739322
1.1739324
1.1739329
1.1739276
1.1739271
1.1739269
1.1739266
1.1739264
1.1739216
1.173922
1.1739224
1.1739226
1.173923
1.1739186
1.1739181
1.1739178
1.1739173
1.1739168
1.1739128
1.1739135
1.1739141
1.1739144
1.1739148
1.1739117
1.1739104
1.17391
1.1739093
1.1739085
1.173906
1.1739068
1.1739071
1.1739073
1.1739096
1.1739071
1.1739044
1.1739043
1.1739043
1.173904
1.173902
1.1739021
1.1739022
1.1739022
1.1739027
1.173897
1.1738975
1.1738976
1.1738977
1.1738979
1.1739057
1.173904
1.173902
1.1739007
1.1739004
1.1739121
1.1739109
1.1739161
1.1739251
1.173933
1.173937
1.1739298
1.1739206
1.1739153
1.1739175
1.1739159
1.173915
1.1739182
1.1739235
1.1739275
1.1738982
1.1739022
1.1739061
1.1739083
1.1739092
1.1739107
1.1739097
1.173907
1.1739023
1.1738982
1.173901
1.1739052
1.1739101
1.173913
1.1739147
1.1739191
1.173918
1.173915
1.1739102
1.1739061
1.1739104
1.1739147
1.1739196
1.1739224
1.1739237
1.17393
1.1739292
1.1739272
1.1739238
1.1739209
1.1739314
1.173933
1.1739349
1.1739361
1.173937
1.1739445
1.173944
1.1739436
1.173943
1.1739426
1.1739496
1.1739501
1.1739505
1.1739508
1.1739513
1.1739593
1.1739587
1.1739586
1.1739583
1.1739583
1.1739665
1.1739666
1.1739668
1.173967
1.1739677
1.1739781
1.173977
1.1739769
1.1739768
1.173977
1.1739877
1.1739877
1.1739877
1.1739878
1.1739892
1.1740029
1.1740012
1.174001
1.174001
1.1740012
1.1740162
1.1740161
1.174016
1.1740161
1.1740179
1.1740366
1.1740343
1.1740343
1.1740344
1.1740348
1.1740548
1.1740545
1.1740544
1.1740545
1.1740569
1.1740828
1.1740798
1.1740797
1.1740799
1.1740804
1.1741087
1.1741083
1.1741081
1.1741082
1.1741114
1.1741479
1.1741438
1.1741438
1.1741441
1.1741447
1.1741852
1.1741847
1.1741843
1.1741844
1.1741888
1.1742419
1.1742364
1.1742364
1.174237
1.174238
1.1742985
1.1742973
1.1742964
1.1742962
1.174302
1.1743832
1.1743762
1.1743769
1.1743787
1.1743808
1.174475
1.1744719
1.1744687
1.1744672
1.1744742
1.174614
1.1746071
1.1746108
1.1746178
1.1746249
1.1748259
1.1747984
1.1747693
1.1747525
1.1747535
1.1750902
1.1751535
1.1752456
1.1754026
1.175549
1.1764681
1.1760786
1.1756581
1.1754142
1.1752405
1.1749249
1.1749866
1.1749342
1.174837
1.1747494
1.1747536
1.1748238
1.1749078
1.174956
1.1749517
1.174691
1.1747007
1.1746932
1.1746797
1.1746689
1.1745872
1.1745852
1.1745845
1.1745843
1.1745863
1.1744599
1.1744526
1.1744528
1.1744537
1.1744551
1.1743673
1.1743661
1.1743654
1.1743653
1.1743719
1.1742964
1.1742897
1.1742896
1.17429
1.1742908
1.1742317
1.174231
1.1742306
1.1742307
1.1742362
1.1741863
1.1741812
1.1741811
1.1741814
1.1741821
1.1741414
1.1741409
1.1741407
1.1741407
1.1741448
1.1741102
1.1741064
1.1741063
1.1741065
1.1741071
1.1740785
1.1740781
1.1740779
1.174078
1.1740809
1.1740563
1.1740535
1.1740534
1.1740536
1.1740539
1.1740334
1.1740332
1.1740331
1.1740332
1.1740354
1.1740176
1.1740154
1.1740153
1.1740154
1.1740156
1.1740005
1.1740004
1.1740004
1.1740005
1.1740022
1.1739891
1.1739874
1.1739873
1.1739872
1.1739873
1.1739759
1.173976
1.1739761
1.1739763
1.1739775
1.1739676
1.1739665
1.1739663
1.173966
1.1739659
1.1739571
1.1739574
1.1739579
1.1739581
1.1739588
1.1739512
1.1739505
1.1739502
1.1739497
1.1739494
1.1739428
1.1739431
1.1739436
1.1739438
1.1739444
1.1739376
1.1739365
1.1739356
1.1739342
1.173933
1.1739203
1.1739235
1.1739271
1.1739292
1.1739304
1.1739245
1.1739231
1.1739201
1.1739151
1.1739107
1.1739053
1.1739099
1.1739151
1.1739182
1.1739198
1.1739156
1.1739138
1.1739107
1.1739055
1.173901
1.173895
1.1739004
1.1739061
1.1739093
1.1739108
1.1739082
1.1739068
1.1739034
1.1738976
1.1738921
1.1739251
1.1739214
1.1739168
1.173914
1.1739141
1.1739189
1.1739183
1.1739273
1.1739431
1.1739565
1.1739349
1.1739263
1.1739164
1.1739107
1.1739107
1.1738997
1.1738996
1.1739003
1.1739012
1.1739019
1.173898
1.1738976
1.1738976
1.1738974
1.1738972
1.1739079
1.173907
1.1739054
1.1739045
1.1739067
1.1739163
1.1739148
1.1739192
1.173927
1.1739334
1.1739109
1.1739116
1.1739117
1.1739117
1.1739128
1.1739093
1.1739089
1.1739078
1.1739059
1.1739038
1.1739075
1.1739089
1.1739104
1.1739114
1.1739119
1.173916
1.1739151
1.1739142
1.1739128
1.1739117
1.1739157
1.173917
1.1739184
1.1739193
1.1739202
1.1739247
1.1739238
1.1739229
1.1739215
1.1739202
1.1739258
1.1739271
1.1739285
1.1739294
1.1739303
1.173937
1.173936
1.1739357
1.1739351
1.1739347
1.1739411
1.1739417
1.1739423
1.1739427
1.1739436
1.1739504
1.1739496
1.1739492
1.1739486
1.1739481
1.1739558
1.1739563
1.1739569
1.1739573
1.1739583
1.173967
1.173966
1.1739657
1.1739653
1.1739651
1.1739752
1.1739753
1.1739756
1.1739758
1.173977
1.1739885
1.1739869
1.1739868
1.1739867
1.1739868
1.1739997
1.1739997
1.1739997
1.1739999
1.1740016
1.1740167
1.1740148
1.1740147
1.1740148
1.174015
1.1740323
1.1740322
1.1740321
1.1740322
1.1740344
1.174055
1.1740523
1.1740523
1.1740525
1.1740529
1.1740767
1.1740764
1.1740762
1.1740763
1.1740793
1.1741079
1.1741043
1.1741042
1.1741045
1.1741051
1.1741382
1.1741378
1.1741376
1.1741377
1.1741419
1.1741822
1.1741772
1.1741771
1.1741775
1.1741782
1.1742259
1.1742253
1.174225
1.1742251
1.1742308
1.1742887
1.1742818
1.1742817
1.1742822
1.1742832
1.1743552
1.1743541
1.1743534
1.1743534
1.1743612
1.1744431
1.1744342
1.1744341
1.1744346
1.1744356
1.1745469
1.1745478
1.1745511
1.1745534
1.1745596
1.174619
1.1746216
1.1745984
1.1745576
1.1745251
1.174119
1.1743395
1.1746048
1.1747579
1.1747795
1.1742382
1.1739677
1.1734708
1.1726132
1.1718551
1.1725131
1.1731804
1.173956
1.1744143
1.1747244
1.1748996
1.1748117
1.1746478
1.1743667
1.1741262
1.174569
1.1746068
1.1746555
1.1746838
1.1746808
1.1745901
1.1745841
1.1745804
1.1745747
1.1745713
1.1744538
1.1744538
1.1744542
1.1744549
1.1744635
1.1743762
1.1743684
1.1743682
1.1743685
1.1743695
1.1742935
1.1742929
1.1742925
1.1742927
1.1742995
1.1742397
1.1742338
1.1742337
1.174234
1.1742347
1.1741844
1.1741839
1.1741836
1.1741837
1.1741886
1.1741471
1.1741429
1.1741428
1.174143
1.1741436
1.1741086
1.1741083
1.1741082
1.1741083
1.1741118
1.1740826
1.1740795
1.1740794
1.1740796
1.17408
1.1740554
1.1740551
1.1740549
1.1740549
1.1740574
1.1740364
1.174034
1.1740339
1.1740339
1.1740341
1.1740164
1.1740163
1.1740162
1.1740163
1.1740182
1.174003
1.1740011
1.174001
1.174001
1.1740013
1.173988
1.173988
1.1739879
1.173988
1.1739895
1.1739782
1.1739768
1.1739767
1.1739767
1.1739769
1.173967
1.173967
1.173967
1.1739671
1.1739681
1.1739595
1.1739586
1.1739585
1.1739584
1.1739585
1.1739507
1.1739508
1.1739509
1.173951
1.1739518
1.173945
1.1739439
1.1739438
1.1739438
1.1739438
1.1739366
1.1739369
1.173937
1.1739372
1.1739382
1.1739315
1.1739302
1.1739294
1.1739283
1.1739274
1.1739205
1.1739219
1.1739234
1.1739244
1.1739257
1.1739211
1.1739195
1.1739184
1.1739168
1.1739153
1.1739103
1.173912
1.1739138
1.173915
1.1739166
1.1739122
1.1739109
1.1739096
1.1739075
1.1739056
1.1739015
1.1739043
1.173907
1.1739085
1.1739091
1.1739119
1.1739116
1.1739115
1.1739112
1.1739104
1.1739334
1.1739271
1.1739195
1.1739151
1.173915
1.1739058
1.1739042
1.1739049
1.1739061
1.1739068
1.1738967
1.1738972
1.1738976
1.1738978
1.1738978
1.1739422
1.1739344
1.1739422
1.1739344
1.173921
1.1739256
1.1739314
1.1739344
1.1739273
1.1739256
1.1739198
1.1739172
1.1739274
1.17392
1.1739121
1.173915
1.1739179
1.1739194
1.173915
1.1739147
1.1739138
1.1739182
1.173919
1.1739189
1.173917
1.1739176
1.1739149
1.173907
1.1739107
1.1739064
1.1739093
1.173906
1.1739118
1.1739095
1.1739034
1.1738997
1.1739019
1.1739012
1.1739064
1.1739117
1.1739119
1.1739136
1.1739134
1.1739193
1.1739174
1.1739196
1.1739213
1.1739196
1.1739249
1.1739227
1.1739239
1.173927
1.1739274
1.1739175
1.1739067
1.1739187
1.1739189
1.1739123
1.1739334
1.17394
1.1739214
1.173917
1.1749801
1.1751704
1.1754619
1.1759676
1.1764359
1.1754222
1.1752517
1.1750632
1.1749536
1.1748862
1.1746157
1.1746047
1.1746242
1.1746587
1.1746916
1.1745111
1.1745063
1.1745016
1.1744994
1.1745094
1.1744033
1.1743925
1.1743919
1.1743919
1.1743923
1.174321
1.1743206
1.1743208
1.1743213
1.1743292
1.1742657
1.1742581
1.1742577
1.1742577
1.1742582
1.1742082
1.1742077
1.1742075
1.1742077
1.1742134
1.1741699
1.1741646
1.1741644
1.1741646
1.1741652
1.1741287
1.1741282
1.174128
1.1741281
1.1741321
1.1741013
1.1740975
1.1740974
1.1740976
1.174098
1.1740715
1.1740712
1.174071
1.174071
1.1740738
1.1740512
1.1740482
1.1740482
1.1740484
1.1740488
1.1740292
1.174029
1.1740288
1.1740289
1.1740312
1.1740145
1.1740121
1.174012
1.174012
1.1740122
1.1739981
1.1739979
1.1739979
1.173998
1.1739998
1.1739873
1.1739854
1.1739853
1.1739853
1.1739855
1.1739751
1.173975
1.1739749
1.1739749
1.1739763
1.173967
1.1739654
1.1739653
1.1739654
1.1739656
1.1739577
1.1739576
1.1739574
1.1739574
1.1739586
1.1739515
1.1739501
1.1739502
1.1739505
1.1739509
1.173945
1.1739446
1.1739442
1.173944
1.1739449
1.1739392
1.1739383
1.1739386
1.1739392
1.1739398
1.173935
1.1739345
1.1739337
1.1739333
1.1739339
1.1739292
1.1739285
1.1739289
1.1739297
1.1739304
1.1739259
1.1739254
1.1739247
1.1739242
1.1739247
1.1739203
1.1739194
1.1739196
1.17392
1.1739202
1.1739151
1.1739153
1.1739153
1.1739154
1.1739162
1.1739124
1.173911
1.1739106
1.1739101
1.1739093
1.1739038
1.1739053
1.1739064
1.1739071
1.1739087
1.1739055
1.173904
1.1739031
1.1739017
1.1739003
1.1738984
1.1738998
1.1739013
1.1739021
1.1739021
1.1738971
1.1738978
1.1738974
1.1738966
1.173896
1.1739301
1.1739227
1.1739142
1.1739093
1.1739082
1.1739151
1.1739153
1.1739203
1.1739289
1.1739362
1.1739278
1.1739235
1.1739182
1.1739151
1.1739147
1.1739107
1.1739092
1.1739075
1.1739047
1.1739017
1.1739029
1.1739058
1.1739088
1.1739107
1.173913
1.1739175
1.1739151
1.1739135
1.1739111
1.173909
1.1739123
1.1739148
1.1739175
1.1739192
1.1739215
1.1739257
1.1739238
1.173922
1.1739191
1.1739166
1.1739228
1.173925
1.1739275
1.173929
1.1739306
1.1739355
1.1739352
1.1739341
1.1739323
1.1739309
1.1739378
1.1739391
1.1739405
1.1739413
1.1739407
1.1739478
1.1739478
1.1739469
1.1739454
1.1739443
1.1739521
1.1739532
1.1739545
1.1739554
1.1739564
1.1739653
1.173964
1.1739634
1.1739623
1.1739616
1.1739718
1.1739724
1.1739731
1.1739736
1.1739748
1.1739861
1.1739847
1.1739845
1.1739841
1.1739841
1.1739966
1.1739967
1.1739968
1.173997
1.1739985
1.1740131
1.1740112
1.1740111
1.1740112
1.1740115
1.1740274
1.1740272
1.1740271
1.1740272
1.1740293
1.1740489
1.1740462
1.1740461
1.1740463
1.1740467
1.1740678
1.1740675
1.1740674
1.1740676
1.1740706
1.1740981
1.1740943
1.1740942
1.1740944
1.1740949
1.1741245
1.174124
1.1741238
1.174124
1.174128
1.174165
1.1741599
1.1741598
1.1741602
1.1741611
1.1742015
1.1742008
1.1742005
1.1742006
1.1742062
1.1742571
1.1742501
1.1742499
1.1742503
1.1742512
1.1743091
1.1743082
1.1743079
1.1743082
1.1743154
1.1743836
1.174374
1.1743732
1.1743727
1.174373
1.1744646
1.1744644
1.1744657
1.174467
1.1744752
1.174553
1.1745457
1.1745511
1.1745613
1.174572
1.1750914
1.1749841
1.1748685
1.1748002
1.1747375
1.1747437
1.1749182
1.175095
1.1754043
1.1757015
1.1685898
1.1685935
1.1702061
1.1724956
1.1737609
1.1772479
1.1883813
1.1882712
1.1884804
1.1887491
1.1714317
1.1722145
1.173109
1.1736288
1.1739602
1.1746322
1.1746245
1.1744821
1.1742391
1.1740387
1.1743913
1.1744211
1.1744568
1.1744776
1.1744792
1.174459
1.1744525
1.1744496
1.174446
1.1744445
1.1743522
1.1743526
1.1743535
1.1743545
1.1743626
1.174304
1.1742963
1.1742955
1.1742952
1.1742955
1.1742364
1.1742361
1.1742361
1.1742366
1.1742431
1.1741979
1.1741921
1.1741918
1.1741919
1.1741925
1.1741524
1.1741519
1.1741517
1.1741518
1.174156
1.1741244
1.1741198
1.1741196
1.1741198
1.1741203
1.1740902
1.1740899
1.1740897
1.1740899
1.1740932
1.1740686
1.1740651
1.1740649
1.1740651
1.1740655
1.1740438
1.1740436
1.1740435
1.1740436
1.174046
1.1740283
1.1740256
1.1740255
1.1740255
1.1740258
1.1740096
1.1740094
1.1740093
1.1740094
1.1740113
1.173998
1.1739957
1.1739956
1.1739957
1.1739959
1.1739841
1.1739839
1.1739837
1.1739838
1.1739853
1.1739753
1.1739735
1.1739735
1.1739737
1.173974
1.1739656
1.1739653
1.1739649
1.1739647
1.1739658
1.1739581
1.1739567
1.1739568
1.1739572
1.1739576
1.1739507
1.1739504
1.1739499
1.1739497
1.1739507
1.1739445
1.1739433
1.1739434
1.1739438
1.1739442
1.1739382
1.1739381
1.1739377
1.1739376
1.1739384
1.1739333
1.1739321
1.1739321
1.1739323
1.1739324
1.173927
1.1739271
1.1739272
1.1739273
1.1739281
1.1739235
1.1739224
1.1739221
1.1739218
1.1739215
1.1739168
1.1739174
1.1739179
1.1739182
1.1739191
1.1739151
1.1739138
1.1739134
1.1739127
1.173912
1.1739074
1.1739085
1.1739094
1.1739099
1.1739112
1.1739077
1.173906
1.1739054
1.1739044
1.1739033
1.1739007
1.1739019
1.1739028
1.1739034
1.1739044
1.173901
1.1739012
1.1739008
1.1739001
1.1738994
1.1738969
1.1738969
1.173897
1.173897
1.1738962
1.1739046
1.173904
1.1739032
1.1739027
1.1739031
1.1739086
1.1739072
1.1739074
1.1739077
1.1739079
1.17391
1.17391
1.1739094
1.1739091
1.1739112
1.1739136
1.1739124
1.1739132
1.1739146
1.1739156
1.1739223
1.1739206
1.1739182
1.1739169
1.1739173
1.1739214
1.1739209
1.1739224
1.1739251
1.1739273
1.1739313
1.1739293
1.1739267
1.1739252
1.1739253
1.1739297
1.1739296
1.1739314
1.1739345
1.1739371
1.1739391
1.1739373
1.1739351
1.1739338
1.1739336
1.1739332
1.1739324
1.1739289
1.173923
1.173918
1.1739132
1.1739203
1.1739286
1.1739335
1.1739353
1.1739439
1.1739413
1.1739372
1.1739303
1.1739245
1.1739542
1.1739539
1.173954
1.1739543
1.1739564
1.173966
1.173965
1.1739653
1.1739657
1.1739662
1.1739746
1.1739745
1.1739743
1.1739742
1.1739748
1.1739858
1.1739849
1.173985
1.1739852
1.1739856
1.1739968
1.1739966
1.1739965
1.1739965
1.1739976
1.174012
1.1740102
1.1740102
1.1740104
1.1740108
1.1740258
1.1740256
1.1740255
1.1740256
1.1740277
1.1740471
1.1740443
1.1740442
1.1740444
1.1740448
1.1740657
1.1740653
1.174065
1.1740651
1.174068
1.1740956
1.1740915
1.1740914
1.1740916
1.1740921
1.1741204
1.1741199
1.1741197
1.1741198
1.1741237
1.17416
1.1741549
1.1741547
1.174155
1.1741557
1.1741948
1.174194
1.1741935
1.1741936
1.1741988
1.1742485
1.1742416
1.1742415
1.1742422
1.1742435
1.1742992
1.1742976
1.1742964
1.1742962
1.1743028
1.1743685
1.1743595
1.1743598
1.1743612
1.1743633
1.1744539
1.1744506
1.1744483
1.1744475
1.1744542
1.1745231
1.1745169
1.1745259
1.1745423
1.1745584
1.1750632
1.1749486
1.1748252
1.1747528
1.1746867
1.1746881
1.1748448
1.1750339
1.175366
1.1756844
1.1684162
1.1683826
1.1704499
1.1725142
1.1736316
1.1746314
1.1679105
1.1666603
1.1667385
1.1665342
1.1824662
1.182833
1.1805169
1.1780903
1.1773494
1.1765039
1.1838231
1.1854394
1.1851853
1.1852321
1.1762989
1.1758541
1.1753697
1.1750914
1.174945
1.1749061
1.1749554
1.1750559
1.1752291
1.1753876
1.1747102
1.1746771
1.1746417
1.1746218
1.1746319
1.1745304
1.1745196
1.1745243
1.1745335
1.1745424
1.1744187
1.1744151
1.1744113
1.1744096
1.1744189
1.1743426
1.1743344
1.1743349
1.1743368
1.174339
1.1742704
1.1742692
1.1742682
1.174268
1.1742747
1.1742211
1.1742149
1.1742148
1.1742153
1.1742163
1.1741708
1.1741702
1.1741698
1.1741699
1.1741748
1.1741367
1.1741322
1.174132
1.1741322
1.1741328
1.1741009
1.1741005
1.1741003
1.1741004
1.1741039
1.1740766
1.1740733
1.1740732
1.1740734
1.1740738
1.1740502
1.17405
1.1740499
1.1740501
1.1740527
1.1740329
1.1740303
1.1740302
1.1740304
1.1740306
1.1740136
1.1740134
1.1740133
1.1740134
1.1740154
1.1740007
1.1739987
1.1739986
1.1739987
1.1739989
1.1739863
1.1739863
1.1739862
1.1739863
1.1739879
1.173977
1.1739754
1.1739753
1.1739753
1.1739755
1.173966
1.173966
1.1739659
1.173966
1.1739672
1.1739589
1.1739575
1.1739574
1.1739574
1.1739575
1.1739502
1.1739502
1.1739502
1.1739503
1.1739514
1.1739448
1.1739437
1.1739436
1.1739435
1.1739436
1.1739376
1.1739378
1.1739378
1.1739379
1.1739388
1.1739334
1.1739325
1.1739323
1.1739322
1.1739321
1.1739271
1.1739273
1.1739275
1.1739277
1.1739284
1.173924
1.1739232
1.173923
1.1739227
1.1739225
1.1739183
1.1739187
1.1739189
1.173919
1.1739198
1.173916
1.1739149
1.1739147
1.1739143
1.1739137
1.1739095
1.1739104
1.1739108
1.1739111
1.1739124
1.1739094
1.1739075
1.1739072
1.1739066
1.1739058
1.1739028
1.1739037
1.1739044
1.1739048
1.1739063
1.1739029
1.1739029
1.1739027
1.1739024
1.173902
1.1738992
1.1738989
1.1738987
1.1738985
1.1738976
1.173898
1.173899
1.1738992
1.1738993
1.1738996
1.1739026
1.173903
1.1739034
1.1739036
1.1739035
1.1739077
1.1739059
1.1739056
1.1739052
1.1739046
1.1739068
1.1739078
1.1739083
1.1739087
1.1739104
1.1739127
1.1739114
1.1739111
1.1739107
1.17391
1.1739135
1.1739141
1.1739145
1.1739147
1.1739157
1.1739194
1.1739184
1.1739183
1.1739181
1.1739178
1.1739221
1.1739224
1.1739226
1.1739227
1.1739236
1.1739281
1.1739272
1.1739271
1.1739272
1.1739272
1.173932
1.1739321
1.1739321
1.1739322
1.1739331
1.1739387
1.1739377
1.1739377
1.1739378
1.173938
1.1739437
1.1739437
1.1739437
1.1739437
1.1739448
1.1739517
1.1739504
1.1739504
1.1739505
1.1739506
1.1739578
1.1739578
1.1739578
1.1739578
1.1739591
1.1739677
1.1739663
1.1739662
1.1739663
1.1739665
1.1739757
1.1739756
1.1739757
1.1739757
1.1739773
1.1739887
1.1739868
1.1739868
1.1739868
1.1739871
1.1739995
1.1739994
1.1739994
1.1739995
1.1740014
1.1740167
1.1740143
1.1740143
1.1740144
1.1740147
1.1740317
1.1740316
1.1740315
1.1740316
1.1740341
1.1740548
1.1740518
1.1740517
1.1740519
1.1740523
1.1740755
1.1740753
1.1740751
1.1740752
1.1740786
1.1741074
1.1741032
1.1741031
1.1741034
1.1741039
1.1741361
1.1741357
1.1741355
1.1741356
1.1741404
1.1741806
1.1741748
1.1741746
1.1741749
1.1741756
1.1742217
1.1742212
1.1742209
1.1742211
1.1742277
1.1742845
1.1742762
1.174276
1.1742764
1.1742772
1.1743456
1.1743448
1.1743444
1.1743447
1.1743537
1.1744336
1.1744226
1.1744224
1.174423
1.1744239
1.1745394
1.1745379
1.1745374
1.1745377
1.1745458
1.1746276
1.1746262
1.174619
1.1746069
1.174597
1.1746508
1.1747167
1.1747959
1.1748428
1.1748676
1.1747371
1.1747241
1.1746635
1.1745563
1.1744545
1.1750067
1.1650646
1.1650322
1.164834
1.1646009
1.1746972
1.1746967
1.1746969
1.174706
1.1747643
1.1747196
1.1746508
1.1746104
1.1745433
1.1744827
1.174526
1.1745312
1.1745395
1.1745451
1.1745552
1.174484
1.1744743
1.174475
1.1744776
1.1744808
1.174379
1.1743774
1.1743762
1.174376
1.1743853
1.1743185
1.1743101
1.17431
1.1743107
1.1743119
1.17425
1.1742492
1.1742488
1.174249
1.1742558
1.1742073
1.1742011
1.1742009
1.1742012
1.174202
1.1741597
1.1741591
1.1741589
1.174159
1.174164
1.1741289
1.1741242
1.1741241
1.1741243
1.1741249
1.1740945
1.1740941
1.1740939
1.174094
1.1740976
1.1740719
1.1740685
1.1740684
1.1740686
1.174069
1.1740465
1.1740462
1.1740461
1.1740461
1.1740489
1.1740301
1.1740274
1.1740273
1.1740274
1.1740277
1.1740111
1.174011
1.1740109
1.1740109
1.174013
1.1739991
1.1739969
1.1739969
1.1739969
1.1739972
1.1739849
1.1739848
1.1739847
1.1739848
1.1739864
1.173976
1.1739743
1.1739743
1.1739744
1.1739746
1.1739654
1.1739652
1.1739651
1.1739651
1.1739664
1.1739585
1.173957
1.173957
1.1739572
1.1739575
1.1739504
1.1739502
1.17395
1.1739499
1.173951
1.1739448
1.1739435
1.1739436
1.1739439
1.1739443
1.1739386
1.1739384
1.1739381
1.1739379
1.1739388
1.1739337
1.1739326
1.1739328
1.1739331
1.1739334
1.1739284
1.1739283
1.1739281
1.1739279
1.1739287
1.1739244
1.1739234
1.1739234
1.1739236
1.1739237
1.1739188
1.1739191
1.1739191
1.1739191
1.17392
1.1739161
1.1739149
1.1739147
1.1739144
1.1739139
1.173909
1.1739099
1.1739105
1.1739108
1.1739122
1.1739088
1.173907
1.1739064
1.1739055
1.1739045
1.1739014
1.1739027
1.1739037
1.1739043
1.1739055
1.1739022
1.1739026
1.1739021
1.1739012
1.1739004
1.173898
1.1738981
1.1738984
1.1738984
1.1738973
1.1738959
1.1738962