/*--------------------------------*- C++ -*----------------------------------*\
  =========                 |
  \\      /  F ield         | OpenFOAM: The Open Source CFD Toolbox
   \\    /   O peration     | Website:  https://openfoam.org
    \\  /    A nd           | Version:  7
     \\/     M anipulation  |
\*---------------------------------------------------------------------------*/
FoamFile
{
    version     2.0;
    format      ascii;
    class       volVectorField;
    location    "30";
    object      U;
}
// * * * * * * * * * * * * * * * * * * * * * * * * * * * * * * * * * * * * * //

dimensions      [0 1 -1 0 0 0 0];

internalField   nonuniform List<vector> 
25201
(
(120.04656 -0.001560016 8.5452077e-05)
(120.05058 0.0070380721 0.0032549386)
(120.0465 7.1165688e-05 -0.001609466)
(120.05027 0.0030071272 0.0068112022)
(120.02985 -0.0067460885 -0.0069347956)
(120.03818 -0.0099967511 -0.012202955)
(120.04105 -0.0095732194 -0.0096548672)
(120.0429 -1.4959409e-05 -2.388526e-06)
(120.03665 -0.0040298688 -0.0033161412)
(120.02107 -0.005584815 -0.0055104651)
(120.03672 -0.0032628714 -0.0039396541)
(120.03838 -0.012059451 -0.010091338)
(120.0362 -0.00677535 -0.0043826013)
(120.03709 0.014754626 0.0081921057)
(120.03288 0.026497558 0.010911446)
(120.04608 -0.0096936296 -0.011588178)
(120.05012 -0.0063085134 -0.0074652744)
(120.0473 -0.0015567825 0.00098020639)
(120.05427 -0.0047714462 -0.0052780325)
(120.04782 0.0053349204 0.0067627774)
(120.05215 -9.2494718e-05 -0.0021742201)
(120.0411 0.0028431538 0.0068213429)
(120.04301 -0.00016657434 0.0034090887)
(120.03893 0.0055831288 0.010836788)
(120.05176 0.0012227663 0.003663311)
(120.04806 0.012450818 0.01465516)
(120.04209 0.018305133 0.017818703)
(120.04993 -0.00024398464 0.0029827581)
(120.05122 -0.00018907326 0.012089715)
(120.05008 0.0022408728 0.021314855)
(120.04979 0.0032701373 0.014651512)
(120.05047 0.0024310084 0.0057902687)
(120.04078 0.0066264675 0.043971359)
(120.04184 0.0085688842 0.033256001)
(120.04363 0.0087028475 0.020444891)
(120.03147 0.010386304 0.025297349)
(120.039 0.0043961513 0.013915025)
(120.03737 0.0045924943 0.021868252)
(120.02854 0.0093606344 0.035650628)
(120.02654 0.0066938462 0.044200151)
(120.03683 0.002905075 0.02749577)
(120.03621 0.0014995705 0.030689853)
(120.0499 0.0014691012 0.025145802)
(120.03995 0.0027393545 0.049411653)
(120.02533 0.0025090239 0.048344904)
(120.01407 0.0025023599 0.04879997)
(120.02532 0.001561619 0.033987622)
(120.03164 0.00073713243 0.017197266)
(120.03309 -0.00080743857 2.7066421e-05)
(120.0357 -0.0044804382 -0.0071024816)
(120.03059 -0.0017369918 0.00068936399)
(120.02615 -0.00030430712 0.0063048191)
(120.0112 0.0005291496 0.0075978186)
(120.01459 -0.0008853495 0.0033232517)
(120.01896 -0.0030045663 -0.00057773219)
(120.02432 -0.0026602745 -0.00072198334)
(120.03391 -0.0051933184 -0.0036885639)
(120.03437 -0.0014429313 0.0020323896)
(120.02157 6.3831363e-05 0.0044942372)
(120.01143 0.0056876118 0.014043654)
(120.02597 0.0029853896 0.010229687)
(120.02875 0.0022435465 0.0070056746)
(120.0165 0.0021592694 0.0057401823)
(120.00953 -0.00029132782 0.0028476125)
(120.00513 -0.0024638294 0.00041513211)
(120.01527 -0.0037552717 -0.00068117013)
(120.01007 -0.0023880985 0.0022286954)
(120.00013 -0.00054284952 0.0037752196)
(120.00438 0.0021913393 0.0078443575)
(119.99908 0.0034363139 0.015121283)
(120.00468 0.0069259149 0.026125709)
(120.02064 0.0056242688 0.021620329)
(120.0325 0.0017814338 0.010776573)
(120.01862 0.0017711722 0.010325473)
(120.01657 0.00089656316 0.014539313)
(120.00036 0.0028495828 0.033795335)
(120.01635 0.0033277944 0.03235551)
(120.0177 0.0052896649 0.028194128)
(120.02726 0.005293955 0.026265238)
(120.02959 0.0053550013 0.019020206)
(120.03196 0.0046503795 0.012407743)
(120.0343 0.0018511666 0.007667989)
(120.02874 0.0080971114 0.014780191)
(120.01981 0.0085915299 0.015573301)
(120.01676 0.010342033 0.021660788)
(120.02305 0.0050314878 0.015481816)
(120.02606 0.010248844 0.019840958)
(120.03605 0.0080655732 0.01409886)
(120.03498 0.011852218 0.014798662)
(120.03388 0.014690609 0.019582406)
(120.02967 0.013281697 0.018216527)
(120.01722 0.01811024 0.027109934)
(120.02501 0.013850188 0.022176391)
(120.03023 0.012790703 0.018965461)
(120.0362 0.011893846 0.01635946)
(120.04093 0.010899545 0.011788962)
(120.04826 0.008813583 0.0070203528)
(120.04324 0.010620735 0.012426157)
(120.03977 0.017760322 0.019810766)
(120.04544 0.01656423 0.01440788)
(120.03705 0.017746326 0.018196165)
(120.03152 0.018267857 0.022808639)
(120.02455 0.018152133 0.024805168)
(120.02978 0.017932021 0.020750888)
(120.02369 0.018150639 0.022687156)
(120.01862 0.018466819 0.026818044)
(120.01311 0.02403345 0.031520913)
(120.01885 0.023329513 0.027501586)
(120.02492 0.031070655 0.033505399)
(120.04264 0.034171933 0.032919863)
(120.04451 0.025952568 0.021342081)
(120.03442 0.025959478 0.024714055)
(120.02819 0.027478289 0.029928449)
(120.03819 0.028023954 0.027435819)
(120.03755 0.038516627 0.03798576)
(120.04381 0.03749445 0.032604546)
(120.03216 0.036436226 0.034714813)
(120.0256 0.036905746 0.039422978)
(120.01579 0.034037061 0.03922092)
(120.01957 0.025842915 0.030951196)
(120.02583 0.025071413 0.026357753)
(120.02203 0.034466649 0.035052375)
(120.01468 0.0312446 0.034616712)
(120.00856 0.030996623 0.038640309)
(120.00383 0.039671747 0.045676031)
(120.01048 0.039001044 0.040743456)
(120.01662 0.046458501 0.046653911)
(120.02518 0.033579898 0.031133677)
(120.03436 0.019918498 0.014667405)
(120.03034 0.037597162 0.010312479)
(120.0286 0.047222116 0.0080488216)
(120.02753 0.052534393 0.0040503162)
(120.01491 0.053609038 0.0043585188)
(120.01629 0.048908518 0.0084849955)
(120.01896 0.040594844 0.011461418)
(120.0221 0.030906166 0.012381828)
(120.02672 0.020714027 0.010919673)
(120.02923 0.0152437 0.0084274255)
(120.02906 0.0073201775 0.00228654)
(120.03436 -0.0033248237 -0.0052795203)
(120.02454 -0.00042007168 -0.0024490104)
(120.01661 0.0058997933 0.0024993509)
(120.01153 0.0146516 0.0064932532)
(120.02643 0.01083011 0.0034595805)
(120.03522 0.0026812405 -0.0012195645)
(120.02192 0.0051420697 0.0005749547)
(120.01469 0.0037867057 -0.00036062582)
(120.01906 -0.00039429209 -0.0027272213)
(120.03076 0.00096417539 -0.0014412067)
(120.0153 -0.00057428287 -0.0034854961)
(120.00511 0.00040223785 -0.0021553169)
(120.00954 0.0028906305 6.811129e-05)
(120.0043 0.0081823835 0.0028766606)
(120 0.0039452901 -2.3055152e-05)
(120.01005 0.0025342722 -0.0019502778)
(120.0067 0.005667253 -0.00023159974)
(120.02634 0.0070197542 0.00021760589)
(120.03401 0.00096117841 -0.00032565225)
(120.03367 0.012064457 0.0024063582)
(120.01903 0.011533242 0.0025741511)
(120.00461 0.027709614 0.0082585823)
(120.02121 0.023067148 0.0066112269)
(120.02357 0.016431944 0.0057515497)
(120.03282 0.013224788 0.0050748807)
(120.03497 0.0081836895 0.0020146189)
(120.03064 0.020295514 0.0060315816)
(120.0285 0.028227741 0.0062608871)
(120.01826 0.030351803 0.0065271028)
(120.00854 0.040851322 0.011348188)
(120.01243 0.032000004 0.011923122)
(120.01707 0.022577538 0.011275834)
(120.02008 0.016074033 0.0092198754)
(120.01473 0.020517898 0.015706615)
(120.02116 0.017110401 0.017113302)
(120.00919 0.010603288 0.010817757)
(120.00897 0.012873322 0.017876099)
(120.01463 0.015031049 0.020217252)
(120.02301 0.015745856 0.021303813)
(120.0136 0.025578501 0.030377953)
(120.00747 0.021944218 0.025930059)
(120.00108 0.022869112 0.033176149)
(120.01088 0.021173803 0.02926257)
(120.01407 0.022362608 0.028630263)
(120.00835 0.022782383 0.032834974)
(120.00578 0.021667618 0.033680776)
(119.99999 0.025834588 0.037815119)
(120.00514 0.025878273 0.033294067)
(120.00897 0.028373352 0.034071009)
(120.00348 0.027695568 0.038075637)
(119.99824 0.034872034 0.043364628)
(120.00429 0.035119111 0.038576149)
(120.00495 0.037681456 0.03808416)
(120.01374 0.030406739 0.026054808)
(120.02329 0.021635553 0.016172646)
(120.01756 0.027848497 0.019032329)
(120.03027 0.018758432 0.013636235)
(120.0357 0.015191956 0.011867359)
(120.01629 0.039403278 0.034697654)
(120.02241 0.035044442 0.034765941)
(120.02629 0.026502971 0.02525327)
(120.03035 0.021007007 0.018054166)
(120.02412 0.023086341 0.018616975)
(120.01911 0.0274367 0.019150997)
(120.02568 0.022932136 0.01442511)
(120.03108 0.019490761 0.013010892)
(120.02522 0.025253202 0.018518874)
(120.02014 0.03127279 0.026328397)
(120.01347 0.03202999 0.024856453)
(120.01913 0.02776781 0.023872702)
(120.01488 0.0347036 0.031889902)
(120.00882 0.038966488 0.031979569)
(120.004 0.045766463 0.040881883)
(120.01058 0.040637626 0.039761065)
(120.01851 0.042448389 0.043922962)
(120.02984 0.043469071 0.046307479)
(120.03797 0.052186443 0.051958552)
(120.05018 -0.0028904366 0.0068288724)
(120.04641 -3.2215772e-05 -0.0016005924)
(120.04677 0.011765594 -0.026729237)
(120.04933 0.00058420169 0.0031434622)
(120.05102 0.00062194686 0.01215374)
(120.04976 -0.00089852883 0.025165826)
(120.04097 -0.0082038867 0.03332656)
(120.04906 -0.0028429526 0.01478958)
(120.04959 -0.0017096886 0.021421379)
(120.0365 -0.0026636821 0.027374715)
(120.03611 -0.0012717232 0.030663385)
(120.02521 -0.0024052955 0.048248858)
(120.03975 -0.0022605717 0.049440918)
(120.04021 -0.0061750719 0.044027186)
(120.02617 -0.0065587744 0.043969797)
(120.02797 -0.0091992679 0.035308278)
(120.03686 -0.0043737949 0.02170305)
(120.03835 -0.0041798841 0.013697477)
(120.04955 -0.002103329 0.0059569768)
(120.04257 -0.0084328484 0.020499916)
(120.03077 -0.010202047 0.024897295)
(120.03522 -0.0078602448 0.013605374)
(120.04035 -0.0026647528 0.0065737897)
(120.04932 0.0064706235 -0.0073236402)
(106.75914 0.2071991 0.15748184)
(113.27038 0.23416789 0.1779278)
(115.28683 0.26350395 0.20809305)
(116.11106 0.27393516 0.24070011)
(118.64442 0.13185577 0.27726741)
(119.15833 -0.18529642 0.11013097)
(117.17973 -0.16345128 0.25030573)
(116.42228 -0.157693 0.27687806)
(114.47723 -0.15949045 0.30221884)
(107.9524 -0.17455397 0.32537945)
(107.90589 -0.044099847 0.074082774)
(114.40123 -0.048205265 0.07985691)
(116.35114 -0.049453033 0.078321316)
(117.11202 -0.051451913 0.07666039)
(119.14093 -0.074462583 0.058605103)
(119.26902 -0.068772864 0.03720291)
(117.26537 -0.055888412 0.059322677)
(116.50864 -0.054756994 0.063293277)
(114.56304 -0.05567302 0.068577661)
(108.06941 -0.058929001 0.076339889)
(108.12869 -0.034394861 0.042874888)
(114.61785 -0.03396291 0.040217378)
(116.56273 -0.033997625 0.038031076)
(117.31977 -0.035151514 0.036303291)
(119.338 -0.049662834 0.022681618)
(119.40941 -0.038733117 0.014956821)
(117.38488 -0.026448552 0.026233267)
(116.62755 -0.025421241 0.027746068)
(114.68355 -0.025475623 0.02985979)
(108.19402 -0.026627928 0.032973118)
(108.23692 -0.018863743 0.023217164)
(114.72579 -0.01819715 0.021237214)
(116.67016 -0.018210314 0.01978009)
(117.42827 -0.019045227 0.018736955)
(119.46286 -0.029701341 0.010002073)
(119.50868 -0.023541914 0.0066266877)
(117.46674 -0.014436854 0.013633312)
(116.70747 -0.013684098 0.014474063)
(114.76316 -0.013613753 0.01567522)
(108.2737 -0.014201327 0.017409765)
(108.30405 -0.010636012 0.012952174)
(114.79307 -0.010165403 0.011562153)
(116.73786 -0.010245554 0.010620124)
(117.49787 -0.01089975 0.0099910179)
(119.54601 -0.018721314 0.0044768755)
(119.57747 -0.015025211 0.0030311345)
(117.52388 -0.0084129024 0.0075178707)
(116.76276 -0.0078585019 0.0080201924)
(114.818 -0.0077992288 0.0088025659)
(108.32866 -0.0082314189 0.010017026)
(108.35062 -0.0063951142 0.007762472)
(114.83944 -0.006057977 0.0067730136)
(116.78462 -0.0061089269 0.0061367054)
(117.54624 -0.0065684594 0.0057263782)
(119.60379 -0.012113978 0.0019922723)
(119.62592 -0.0098354199 0.0012359923)
(117.56463 -0.0051866834 0.0044034087)
(116.80213 -0.0048060393 0.0047472768)
(114.85701 -0.0047517419 0.0052594408)
(108.36781 -0.004996392 0.0060295483)
(108.38369 -0.003911183 0.0046737723)
(114.87231 -0.0037163893 0.0040269104)
(116.81779 -0.0037777598 0.0036022)
(117.58056 -0.0041061784 0.0033172975)
(119.64445 -0.0080671543 0.00067679188)
(119.66004 -0.0066552939 0.00033262606)
(117.59338 -0.0032634293 0.0025389017)
(116.82991 -0.0029780692 0.0027736356)
(114.88453 -0.0029161435 0.0031229078)
(108.39557 -0.0030651389 0.0036531263)
(108.40717 -0.0024245884 0.0028823563)
(114.89553 -0.00230307 0.0024344487)
(116.84122 -0.0023663803 0.0021470026)
(117.6048 -0.0026194581 0.0019582107)
(119.67316 -0.005549724 0.00015063283)
(119.68426 -0.0046839013 0.00011814623)
(117.61394 -0.0021447687 0.0015821254)
(116.84979 -0.0019175732 0.0017310163)
(114.90425 -0.0018595626 0.0019744168)
(108.41559 -0.0019756218 0.0023779709)
(108.4244 -0.0016951875 0.0021151848)
(114.91241 -0.0015681555 0.0017313373)
(116.85821 -0.0016117029 0.0015111839)
(117.62234 -0.0018124276 0.0013882796)
(119.69371 -0.0039838231 0.00014705677)
(119.70181 -0.0033572455 0.00011488622)
(117.62903 -0.001616667 0.0013726262)
(116.86444 -0.0014580533 0.0015010589)
(114.91884 -0.0014312946 0.0017109761)
(108.43066 -0.0015447586 0.0020440247)
(108.43763 -0.0014388821 0.0019410595)
(114.92502 -0.0013856512 0.0017095525)
(116.87082 -0.0014102862 0.0015259134)
(117.63533 -0.0015173084 0.0013676469)
(119.70876 -0.0027906397 -8.029682e-05)
(119.71472 -0.0023243032 -0.00041717654)
(117.64032 -0.0013045342 0.0011132345)
(116.87545 -0.0012177023 0.0013008843)
(114.92992 -0.0011278376 0.0014172374)
(108.44248 -0.00099036705 0.0014239764)
(108.44829 3.8015421e-05 7.1646856e-05)
(114.935 -0.00027784181 0.00028525829)
(116.8807 -0.00051082307 0.00032126635)
(117.64542 -0.00068065 0.00022116696)
(119.71986 -0.0019437463 -0.00072414448)
(119.7243 -0.0016335448 -0.0009301565)
(117.64938 0.00024032845 -0.0010766218)
(116.88439 0.00053768672 -0.0011398691)
(114.939 0.00083190421 -0.0012391451)
(108.45226 0.0010488071 -0.0013153147)
(108.45718 0.0015141065 -0.0019152939)
(114.94319 0.0015785967 -0.0022267108)
(116.88876 0.0013361109 -0.0021985267)
(117.65353 0.00094506958 -0.0020083447)
(119.72821 -0.0013895341 -0.00099212747)
(119.73183 -0.0012063169 -0.00090529249)
(117.65706 0.0013149067 -0.0022542647)
(116.89205 0.0017417008 -0.0024713542)
(114.94683 0.0019510713 -0.0024200381)
(108.46078 0.0017601637 -0.0019700911)
(108.46614 0.001691858 -0.0019045932)
(114.95138 0.0019553162 -0.002450728)
(116.89666 0.0017479711 -0.0025421176)
(117.66135 0.001295032 -0.0023121345)
(119.7352 -0.0012068957 -0.00073220765)
(119.73819 -0.0012242782 -0.00039904132)
(117.66532 0.0011082722 -0.0021651921)
(116.90057 0.0015735138 -0.0024110432)
(114.95571 0.001753577 -0.0022566876)
(108.47028 0.0013169834 -0.0014555669)
(108.47575 -8.3940438e-05 0.00045648557)
(114.96095 0.00085314629 -0.00093376539)
(116.90594 0.00098113365 -0.0014115993)
(117.67014 0.00064873868 -0.0012741114)
(119.74075 -0.0010778937 7.2483668e-05)
(119.74317 -0.00053621333 0.00040529069)
(117.67371 -0.00046149681 0.0011274311)
(116.90952 -0.00054717037 0.001317833)
(114.96478 -0.0010433386 0.0020141512)
(108.47903 -0.0019368209 0.0031301144)
(108.484 -0.0024830624 0.0039932499)
(114.96857 -0.0024374987 0.0041092648)
(116.91316 -0.0020537649 0.0037635922)
(117.677 -0.0016060004 0.0032765383)
(119.746 -0.00037113161 7.4587289e-05)
(119.74876 -0.0012492616 -0.0011048065)
(117.68079 -0.0024396028 0.0024122466)
(116.91703 -0.002842349 0.0029509332)
(114.97354 -0.0027656786 0.0028241041)
(108.48948 -0.0018854733 0.0015164297)
(108.49495 -0.0029941196 7.2967163e-05)
(114.98036 -0.0039431395 0.00085728554)
(116.92409 -0.0041349123 0.0009899295)
(117.687 -0.0038653738 0.00059759248)
(119.75036 -0.0023579286 -0.0016729178)
(119.75185 -0.00084139162 0.00021607747)
(117.6907 -0.0012432769 0.0018686922)
(116.92852 -0.0014927199 0.0019875868)
(114.983 -0.0016176381 0.0018302672)
(108.49029 -0.0014682728 0.0014372594)
(119.78302 -0.0013255358 -0.00015663403)
(117.51626 -0.0017442643 -0.00043646002)
(116.76635 -0.0020319112 -0.0005704691)
(114.79917 -0.0022526077 -0.00084116917)
(108.21891 -0.001952043 -0.0011328911)
(108.22614 -0.0049627937 -0.00044901813)
(114.79835 -0.0057566547 -0.00031735792)
(116.76324 -0.0061622598 -0.00038845449)
(117.51391 -0.0062875266 -0.00065526399)
(119.7818 -0.0042760637 -0.0015002066)
(119.78088 -0.0040648323 -0.0016586937)
(117.50563 -0.0045268594 0.00053663063)
(116.75381 -0.0041857143 0.001049664)
(114.78985 -0.0035383789 0.0011654808)
(108.22051 -0.0028397688 0.00049912211)
(108.21066 -0.00050267817 0.0034717379)
(114.77923 -0.00068967048 0.003685071)
(116.74443 -0.0010670206 0.0033594561)
(117.49695 -0.0013468264 0.0028366135)
(119.77836 -0.0022674618 -0.00055034392)
(119.7753 -0.0008071118 0.00051830102)
(117.493 0.00022899537 0.0022668608)
(116.7402 0.00029846497 0.0024800928)
(114.77451 0.00023758163 0.0028721651)
(108.20408 6.2461862e-05 0.0033284372)
(108.20208 0.00061912982 0.0019024948)
(114.77269 0.0010836021 0.0010514192)
(116.73891 0.0012883602 0.00075418202)
(117.49143 0.0012513082 0.00080247708)
(119.77278 -0.00011186089 0.0007758309)
(119.7703 -8.4782319e-05 0.0004372818)
(117.48936 0.001599685 -5.0015706e-05)
(116.73676 0.001693072 -0.00015776811)
(114.77106 0.0015860101 -9.7489828e-06)
(108.1999 0.0011954791 0.00056561366)
(108.1968 0.0014157079 4.9735006e-05)
(114.76742 0.0017046674 -0.00035285053)
(116.73348 0.0017517884 -0.00046779159)
(117.48596 0.0016370419 -0.00038811219)
(119.76744 -0.00025927801 -2.793292e-05)
(119.76421 -0.0004964698 -0.00032276551)
(117.48276 0.0013430778 -0.00051802973)
(116.73015 0.0014353838 -0.00057304789)
(114.7644 0.0013767831 -0.00048023922)
(108.19299 0.0011996285 -0.0001559076)
(108.18949 0.00062560662 -0.00018453006)
(114.76072 0.0007918919 -0.00056718582)
(116.72695 0.0008567198 -0.00067234818)
(117.47937 0.00077509235 -0.00060250774)
(119.76071 -0.00089747676 -0.00034176706)
(119.75687 -0.0014072088 -0.00031606007)
(117.47606 0.00030840525 -0.00061790929)
(116.72356 0.00043068852 -0.0006863401)
(114.75769 0.00045916305 -0.00064894454)
(108.18563 0.00037094647 -0.00041665418)
(108.18077 0.00022422563 -0.00019837838)
(114.75261 0.00015410023 -0.00013653978)
(116.71895 2.4334643e-05 -7.2182005e-05)
(117.47134 -0.00013325382 -5.4081835e-05)
(119.75242 -0.0019344637 -0.00022591579)
(119.74734 -0.002464275 3.4979743e-05)
(117.46634 -0.00064806897 0.00092576445)
(116.71381 -0.00050204281 0.00097157971)
(114.74774 -0.00035908683 0.00089771668)
(108.17498 -0.00019411119 0.00064865504)
(108.16912 -0.00072165979 0.0018218795)
(114.74183 -0.00078248597 0.0017959092)
(116.70842 -0.00085084284 0.0017336435)
(117.46075 -0.0009849237 0.0016733211)
(119.74147 -0.002997109 0.00053519679)
(119.73466 -0.0036274503 0.00093236126)
(117.45521 -0.0011851101 0.0018781049)
(116.70292 -0.0010166996 0.0019153631)
(114.73665 -0.00097557951 0.0020844484)
(108.1629 -0.0010180643 0.0024136058)
(108.15615 -0.0011641745 0.0026065204)
(114.72979 -0.0011057516 0.0021738868)
(116.69649 -0.0011820974 0.0019789387)
(117.44844 -0.0014086224 0.001950415)
(119.72669 -0.0043960991 0.0011105274)
(119.7174 -0.0052649616 0.0012215789)
(117.44108 -0.0017641401 0.0022775064)
(116.68929 -0.0014921233 0.0023335253)
(114.72309 -0.0013739565 0.0025431235)
(108.14881 -0.0013970109 0.0029801688)
(108.14003 -0.0017362362 0.0036178452)
(114.714 -0.0017446508 0.0031795315)
(116.68056 -0.0018936277 0.0029375311)
(117.43193 -0.0022110238 0.0028475724)
(119.70649 -0.0062942323 0.0014416627)
(119.69359 -0.0075384008 0.0018940417)
(117.42157 -0.0027915153 0.0037837907)
(116.67044 -0.0024330378 0.0039201808)
(114.70435 -0.0022699086 0.0042228738)
(108.12965 -0.0022631921 0.0047477662)
(108.11732 -0.0028674957 0.0060431328)
(114.69175 -0.0028808942 0.005439708)
(116.65819 -0.0030721822 0.0050712741)
(117.40877 -0.0034942817 0.0049009173)
(119.6783 -0.0090981485 0.0025732302)
(119.66018 -0.011017193 0.003545356)
(117.39414 -0.0044535173 0.0066330868)
(116.64393 -0.0039789471 0.0068809099)
(114.67797 -0.0037780818 0.0073528398)
(108.10272 -0.003786118 0.0081260322)
(108.08547 -0.0047456789 0.010196889)
(114.66038 -0.004687251 0.0091970341)
(116.62664 -0.0049094432 0.008591494)
(117.37613 -0.0054837804 0.0083205006)
(119.63856 -0.013417391 0.0047757983)
(119.61297 -0.016396491 0.0063291903)
(117.35567 -0.0067674298 0.010446409)
(116.60679 -0.0060721175 0.010752692)
(114.64104 -0.0058026581 0.011467987)
(108.06527 -0.0058956249 0.012679723)
(108.0414 -0.0073198054 0.01576064)
(114.61684 -0.0072477554 0.014409659)
(116.58285 -0.0075925545 0.013589864)
(117.33078 -0.0084382543 0.013239449)
(119.58254 -0.020126052 0.0083869157)
(119.54679 -0.024915883 0.01129607)
(117.30263 -0.010973086 0.017700515)
(116.55554 -0.0099736676 0.018212554)
(114.5901 -0.0095476989 0.019224479)
(108.01388 -0.0095917081 0.020813729)
(107.97932 -0.012552947 0.027415102)
(114.55497 -0.012525814 0.025548485)
(116.52072 -0.012999346 0.024286094)
(117.26685 -0.014167012 0.023623141)
(119.5034 -0.030932485 0.015478652)
(119.45315 -0.039409437 0.021416591)
(117.22823 -0.019242328 0.032271013)
(116.48298 -0.017765242 0.033265218)
(114.51764 -0.017137734 0.035007199)
(107.94111 -0.017190901 0.037636082)
(107.88374 -0.022034132 0.049085471)
(114.46014 -0.022439905 0.046654638)
(116.42649 -0.023120688 0.044716524)
(117.17138 -0.024801434 0.043485708)
(119.3878 -0.048782949 0.029890738)
(119.32258 -0.064282731 0.043647412)
(117.11923 -0.035329774 0.063292072)
(116.37455 -0.033078657 0.065408078)
(114.40653 -0.032195162 0.068734357)
(107.82457 -0.032775641 0.073976864)
(107.73067 -0.02713943 0.07938073)
(114.3226 -0.03070472 0.081610563)
(116.29283 -0.033127343 0.080165945)
(117.03583 -0.036136242 0.077002628)
(119.21847 -0.065665565 0.054050439)
(119.19025 -0.084490541 0.10315573)
(116.91535 -0.022393795 0.15075085)
(116.1606 -0.023016606 0.15418878)
(114.182 -0.025777013 0.15114752)
(107.597 -0.029998934 0.14025443)
(108.21821 0.047482391 -0.092502207)
(114.86101 0.021427587 0.025663511)
(116.80228 0.014473573 0.080899852)
(117.45033 0.025559656 0.075041441)
(119.01679 0.082894846 0.038612513)
(119.31616 -0.46403787 0.54308636)
(118.40812 0.34482829 2.2462153)
(117.82671 0.50359855 2.53107)
(115.83045 0.62528687 2.8034713)
(108.6667 0.36473211 2.8253975)
(108.0631 0.60596285 0.26577841)
(114.72677 0.44773877 0.22113865)
(116.66749 0.36538967 0.20671914)
(117.29358 0.35845648 0.21570418)
(118.71972 0.34128621 0.28594138)
(118.98775 0.11505371 0.030198033)
(116.73665 0.089156969 0.083889192)
(115.98756 0.09009939 0.082675873)
(114.01273 0.10347219 0.081275255)
(107.4364 0.12743702 0.081556113)
(107.64682 0.089230686 0.04582979)
(114.23769 0.07953724 0.038214789)
(116.20605 0.074613777 0.034626545)
(116.94457 0.074576063 0.031900999)
(119.09994 0.079295737 0.0073450226)
(119.24567 0.046173812 -0.015212632)
(117.05925 0.034122008 0.0083023225)
(116.31727 0.033387563 0.010250537)
(114.35018 0.034408972 0.012031989)
(107.76912 0.036018216 0.014771441)
(107.84987 0.025126684 0.010240149)
(114.42552 0.023774715 0.0080407772)
(116.39099 0.023121017 0.006799527)
(117.13377 0.023541023 0.0054424852)
(119.33695 0.032253684 -0.01362302)
(119.41864 0.022942372 -0.013963803)
(117.20307 0.014868249 0.0021226801)
(116.45919 0.014370728 0.0033208698)
(114.49435 0.014479804 0.0043277118)
(107.91849 0.014946704 0.0056482736)
(107.96538 0.010288132 0.003804803)
(114.54019 0.0098469822 0.002817398)
(116.50535 0.0097437335 0.0020624533)
(117.2503 0.01014553 0.0011547359)
(119.47947 0.016956508 -0.012132429)
(119.52992 0.012926266 -0.010869742)
(117.29118 0.0073286857 0.00037464665)
(116.54485 0.006990566 0.0011768137)
(114.5798 0.0069829029 0.0018071491)
(108.0044 0.0071761455 0.0025337736)
(108.03587 0.0049316746 0.001636682)
(114.61058 0.0048141904 0.0010643214)
(116.57614 0.0048587797 0.00054443299)
(117.32335 0.005165209 -0.00012688623)
(119.5705 0.0099715717 -0.00952542)
(119.60423 0.0077566023 -0.0083364768)
(117.35046 0.0037638234 -0.00039483454)
(116.60201 0.0035077668 0.00018554341)
(114.63651 0.0034260796 0.00061761615)
(108.06135 0.0034330734 0.0010623811)
(108.08357 0.002348073 0.00066068759)
(114.65793 0.0023700197 0.00029296666)
(116.62385 0.0024592558 -7.3357532e-05)
(117.37286 0.0026877549 -0.00056567943)
(119.63216 0.0061061481 -0.0072339106)
(119.65545 0.0048766355 -0.0062320525)
(117.3916 0.0020397269 -0.00059082754)
(116.64162 0.0018498187 -0.00016741224)
(114.67581 0.0017519347 0.00013842763)
(108.10102 0.001690107 0.00043236271)
(108.11694 0.001175245 0.00025295533)
(114.69104 0.0012170438 -1.2745313e-06)
(116.65724 0.0013027114 -0.00026461643)
(117.40751 0.0014743982 -0.00062222702)
(119.67487 0.0039188544 -0.0053506378)
(119.69111 0.003163864 -0.0045728815)
(117.42057 0.001172308 -0.00056035407)
(116.66954 0.0010367852 -0.00025316379)
(114.7035 0.00095907851 -3.1639672e-05)
(108.12899 0.00090355838 0.00017697719)
(108.1406 0.00059455902 7.5322397e-05)
(114.71439 0.00063114962 -0.00010571289)
(116.68077 0.00069771312 -0.00029757254)
(117.4319 0.00081975628 -0.00055739744)
(119.70473 0.0025464947 -0.0039204314)
(119.71616 0.0020487726 -0.0033448961)
(117.44116 0.0006344233 -0.0004971827)
(116.68943 0.0005379168 -0.00027493023)
(114.72325 0.00048556408 -0.00011172068)
(108.14909 0.0004562799 3.9442763e-05)
(108.15775 0.00029540461 5.0143783e-06)
(114.7312 0.00032126112 -0.00012452153)
(116.69769 0.0003648769 -0.00026463352)
(117.44938 0.00044560911 -0.00045397697)
(119.72579 0.0016332997 -0.0028624094)
(119.73392 0.0012897166 -0.0024619485)
(117.45597 0.00034153912 -0.00038343153)
(116.70377 0.00028418963 -0.00022109907)
(114.73753 0.00025266218 -0.00010331435)
(108.16378 0.0002327972 5.1154727e-06)
(108.17057 0.00021393944 2.59335e-05)
(114.74343 0.00018994973 -8.5582254e-05)
(116.70992 0.00019597084 -0.00019500016)
(117.46199 0.00023379921 -0.00033919217)
(119.74084 0.00100122 -0.0021818044)
(119.74671 0.00077302328 -0.0020051938)
(117.46678 0.00024507531 -0.00027471833)
(116.71429 0.00023780699 -0.00013271298)
(114.74816 0.00027461037 -1.6425659e-05)
(108.17524 0.00036247058 0.00010539365)
(108.18121 0.00062777556 0.0002190598)
(114.75315 0.00051273122 0.0001059172)
(116.71941 0.00042024435 -2.3660404e-05)
(117.47165 0.00037644692 -0.00017453284)
(119.75172 0.00058757817 -0.0018675418)
(119.75597 0.00037853519 -0.0016320301)
(117.4756 0.00059110584 8.017836e-05)
(116.72308 0.00069874412 0.00022075431)
(114.75718 0.00081905892 0.00031217306)
(108.18506 0.0008870368 0.0003911805)
(108.18949 0.00088101465 0.00083502719)
(114.76099 0.00087339612 0.00081107621)
(116.72719 0.00074162354 0.00077568539)
(117.47946 0.00058422084 0.00064711745)
(119.75966 0.00011195418 -0.0012467273)
(119.76308 -8.4310455e-05 -0.00072602313)
(117.48244 0.00046553327 0.0014212017)
(116.72982 0.00064387296 0.0015568697)
(114.76394 0.00076534665 0.001580579)
(108.19219 0.00073658639 0.0014693512)
(108.19645 0.00053484078 0.0018149572)
(114.76748 0.00059637989 0.0020299277)
(116.73358 0.0005116401 0.0020168326)
(117.48593 0.0003523785 0.0018801269)
(119.76627 -0.00013059596 -0.00019625521)
(119.76908 5.4420159e-05 0.00044150021)
(117.48868 0.00045637386 0.0020990872)
(116.73602 0.00058639932 0.0021818955)
(114.77014 0.00061949431 0.0021457426)
(108.19858 0.00045532216 0.0018228658)
(108.20099 -0.00044519491 0.0015129588)
(114.77208 0.00011556202 0.0019305112)
(116.73845 0.00028899017 0.0021202309)
(117.49091 0.00024811184 0.0021180476)
(119.7716 0.00029165592 0.00091170133)
(119.77416 0.00065380212 0.00061547545)
(117.49138 -0.00070398965 0.0014730478)
(116.73836 -0.00091726989 0.0014610352)
(114.77228 -0.0013623317 0.0012802542)
(108.20138 -0.0020252266 0.00094771033)
(108.20701 -0.0028091812 2.4564321e-05)
(114.77591 -0.0025724728 0.00012095275)
(116.74158 -0.0020742533 -5.7616393e-05)
(117.49434 -0.0015665948 -0.00021636412)
(119.77718 0.0014549442 -0.00084413276)
(119.77964 0.0025725653 -0.003372667)
(117.50052 0.00012314225 -0.0039989904)
(116.74807 -0.00043060659 -0.0037563716)
(114.78367 -0.00073406597 -0.0032623331)
(108.21524 -0.00040015972 -0.0027601449)
(108.22391 0.00093261959 -0.0049509897)
(114.79288 0.00088688409 -0.005851479)
(116.75719 0.0010641057 -0.0062521456)
(117.50835 0.0014302323 -0.006391682)
(119.78048 0.0027129024 -0.0045689396)
(119.78192 0.0014660718 -0.0023981947)
(117.51572 0.0014793045 -0.0028968493)
(116.76526 0.001416417 -0.0028042449)
(114.80101 0.0015236357 -0.0025591387)
(108.22941 0.0017933452 -0.0018253529)
(108.22507 -0.00049122193 -6.5685991e-05)
(114.80333 -0.00064284744 0.00011739984)
(116.76972 -0.00075731361 0.00038786454)
(117.51933 -0.00080519975 0.0006100295)
(119.78483 -0.00026664587 0.00018852578)
(108.48133 0.00034867762 0.0001179388)
(114.97575 0.00021364476 0.00029508532)
(116.91995 9.8478826e-05 0.00052648449)
(117.67764 3.4055908e-07 0.0006914159)
(119.75305 -0.00025264636 0.00018540611)
(119.75025 0.00030078629 -0.0030266946)
(117.67266 0.00088713887 -0.0031157402)
(116.91416 0.0009371253 -0.002894793)
(114.97204 0.00078268852 -0.0026408171)
(108.48401 0.00044959485 -0.0022560165)
(108.4756 0.0012340658 -0.0029411365)
(114.9612 0.0029771235 -0.0030050194)
(116.90383 0.0035401186 -0.0032557503)
(117.66348 0.0031731643 -0.0035734679)
(119.74858 0.00056502601 -0.0043567651)
(119.74743 0.00091194966 -0.0029379353)
(117.65812 0.0058424724 -0.0015880989)
(116.89767 0.0066766667 -0.0013647044)
(114.95456 0.0066572777 -0.001232082)
(108.46828 0.0052192705 -0.0014108902)
(108.46354 0.0059584845 0.0015818114)
(114.951 0.0061365905 0.0017595141)
(116.89526 0.0056727022 0.0016373007)
(117.65567 0.0049749209 0.0014520265)
(119.74499 0.00092950698 -0.00040278302)
(119.74204 0.00089880296 0.00052072573)
(117.6541 0.0017640149 0.0014090666)
(116.89375 0.0019717002 0.0015170366)
(114.94954 0.0027047298 0.0016836339)
(108.46045 0.0040114285 0.0018035293)
(108.45828 0.00038470202 0.0012834247)
(114.94678 -0.00098527386 0.00099078471)
(116.8912 -0.0013460947 0.00082737648)
(117.65148 -0.0010779932 0.00073520499)
(119.73962 0.00065758516 0.00031883257)
(119.73721 0.00031395055 -9.7156863e-05)
(117.64802 -0.0022805825 0.00042994781)
(116.88748 -0.0027232191 0.00053547409)
(114.94352 -0.0027742899 0.00066783077)
(108.45485 -0.002182064 0.00087384333)