/*--------------------------------*- C++ -*----------------------------------*\
  =========                 |
  \\      /  F ield         | OpenFOAM: The Open Source CFD Toolbox
   \\    /   O peration     | Website:  https://openfoam.org
    \\  /    A nd           | Version:  7
     \\/     M anipulation  |
\*---------------------------------------------------------------------------*/
FoamFile
{
    version     2.0;
    format      ascii;
    class       volScalarField;
    location    "110";
    object      alphat;
}
// * * * * * * * * * * * * * * * * * * * * * * * * * * * * * * * * * * * * * //

dimensions      [1 -1 -1 0 0 0 0];

internalField   nonuniform List<scalar> 
24789
(
0.001769523
0.011747349
0.028645869
0.04845111
0.59755941
0.5985229
0.048517013
0.02868675
0.011765755
0.001771185
0.0017736545
0.011794964
0.028756827
0.048631494
0.59987315
0.60145766
0.048740564
0.028822176
0.01182275
0.001776002
0.0017789392
0.011857856
0.028907021
0.048880495
0.60321648
0.60513695
0.049010948
0.028984824
0.011890624
0.0017816887
0.0017849666
0.011929643
0.029078977
0.049166341
0.60721352
0.60944195
0.049313614
0.02916676
0.011966517
0.001788067
0.0017916787
0.0120094
0.029270394
0.049485146
0.61182795
0.6143533
0.049645525
0.029366091
0.012049626
0.0017950839
0.001799004
0.01209604
0.029478392
0.049831772
0.61701099
0.6198191
0.050003468
0.029580975
0.012139192
0.00180268
0.0018068778
0.012188737
0.029701073
0.050203155
0.62275753
0.62583779
0.050385194
0.029809681
0.012234368
0.0018107824
0.0018151897
0.012286099
0.029935022
0.050593761
0.62903561
0.63237079
0.050783715
0.030048242
0.012333663
0.0018192768
0.0018238564
0.012387206
0.030177893
0.050999599
0.63582152
0.63940474
0.05119632
0.030294928
0.012436359
0.001828082
0.0018327743
0.012491208
0.030427413
0.05141691
0.64309493
0.64689754
0.051618332
0.03054697
0.012541514
0.0018370701
0.0018417746
0.012596844
0.030679633
0.051838825
0.65078576
0.65474553
0.052037544
0.030798044
0.012647374
0.0018460354
0.001850705
0.012703351
0.030930719
0.052257558
0.6587356
0.66274473
0.052450676
0.031045402
0.012752877
0.0018547991
0.0018591899
0.012806055
0.031170997
0.052659563
0.66676816
0.67077779
0.052826213
0.031268446
0.012847582
0.0018628797
0.0018670488
0.012888472
0.031371912
0.053006315
0.6747942
0.67906434
0.053137895
0.031440514
0.012913747
0.001870949
0.0018761167
0.012935024
0.031509832
0.053278546
0.6838843
0.6897039
0.053363011
0.031537292
0.012936772
0.0018820413
0.0018917955
0.012936934
0.031563384
0.053462758
0.69728945
0.70835248
0.053655004
0.031621257
0.012946606
0.0019085754
0.0019314473
0.012970094
0.031906185
0.054310546
0.72549059
0.75997245
0.056635115
0.033344023
0.013589201
0.0019853004
0.0020082674
0.013716896
0.033406356
0.056377088
0.78255171
0.79581885
0.05848647
0.03469305
0.014239403
0.0020441931
0.0020394408
0.014849734
0.036676366
0.062475192
0.77961566
0.85566864
0.054308764
0.032810915
0.01363379
0.001992789
0.0019543481
0.013252061
0.032077713
0.053729703
0.85595626
0.8344838
0.050188185
0.02991144
0.012299052
0.0018826416
0.0018363475
0.011952534
0.028976745
0.048715189
0.80905038
0.79453141
0.048378454
0.028812348
0.011913306
0.0018109318
0.0017953409
0.011913121
0.028811226
0.048323674
0.7836719
0.77539586
0.048298901
0.028822502
0.01192201
0.0017865252
0.0017810823
0.011925856
0.028813799
0.048248444
0.76879322
0.76318134
0.048155029
0.028772312
0.011913938
0.001776669
0.0017731539
0.011890841
0.028707727
0.048031204
0.7580611
0.75319288
0.047876684
0.028618548
0.011854842
0.0017695167
0.0017661381
0.011813628
0.028519757
0.047711943
0.74829236
0.74346512
0.047525716
0.028406127
0.011764855
0.001762273
0.0017583789
0.011714602
0.02828738
0.047328447
0.73865675
0.73390103
0.047126475
0.028164122
0.011661723
0.0017540748
0.0017499891
0.01161143
0.028045703
0.04693146
0.72919877
0.72457872
0.046729349
0.027922689
0.011559154
0.0017456046
0.0017415205
0.011510226
0.027806761
0.046538152
0.72011954
0.71576333
0.046340694
0.027686813
0.011459539
0.0017372106
0.0017332039
0.011411755
0.02757292
0.046152431
0.71157704
0.70758189
0.045965641
0.027459048
0.011363537
0.0017290742
0.0017252222
0.011317391
0.027348571
0.045782635
0.7036989
0.69999699
0.04560045
0.027237583
0.011270531
0.0017212396
0.0017175461
0.011226024
0.027130909
0.045423833
0.69639715
0.69298344
0.045247869
0.027023707
0.01118083
0.0017137338
0.0017102465
0.011138627
0.026922717
0.045081066
0.6897164
0.68665639
0.044918086
0.026823089
0.011096491
0.0017066966
0.0017034902
0.01105746
0.026729709
0.044763929
0.6837643
0.6809996
0.044612198
0.026636949
0.011018265
0.0017002114
0.0016973033
0.010982663
0.026551804
0.044471712
0.67847847
0.67607733
0.044332107
0.026466516
0.010946667
0.001694312
0.0016917174
0.010914802
0.026390426
0.044206816
0.67385931
0.67182041
0.044083119
0.026314728
0.010882786
0.0016890584
0.0016868264
0.010855362
0.02624942
0.043975836
0.6699899
0.66845321
0.043877878
0.026188703
0.010829283
0.0016846252
0.0016829631
0.010809644
0.026142995
0.04380409
0.66723291
0.66938064
0.043921325
0.026211743
0.010837751
0.0016851573
0.0016870623
0.010859369
0.026261019
0.043997391
0.67046305
0.67207789
0.044088269
0.026316621
0.010883461
0.0016890845
0.0016917088
0.010915322
0.026392774
0.044211875
0.67401959
0.67618263
0.044328683
0.026463386
0.01094537
0.0016941893
0.0016971788
0.010981688
0.026550421
0.044470582
0.67854294
0.68107368
0.044601683
0.02662993
0.011015558
0.0016999952
0.0017033339
0.011056006
0.026726945
0.044760236
0.68378929
0.68667823
0.044906593
0.026815645
0.011093678
0.0017064733
0.0017101056
0.011137465
0.026920634
0.045078374
0.68975673
0.69300853
0.045238965
0.027017575
0.011178434
0.0017135217
0.0017173747
0.011224558
0.027128143
0.04542021
0.69643809
0.70002968
0.045587748
0.027229502
0.011267551
0.0017209959
0.0017250875
0.011316458
0.027347006
0.045780857
0.70377073
0.70766324
0.04595571
0.027452631
0.011361254
0.0017288772
0.0017331224
0.011411728
0.027573683
0.046154654
0.71171239
0.71590407
0.046334352
0.027682325
0.011457933
0.0017370424
0.0017414235
0.011510095
0.027807089
0.046539301
0.72024739
0.72472541
0.046725333
0.027919337
0.011557901
0.0017454393
0.0017498594
0.011611007
0.0280453
0.046931495
0.72934439
0.7340658
0.047119882
0.028159352
0.011660055
0.0017538853
0.0017582943
0.011714735
0.028288309
0.047330917
0.73887226
0.74374713
0.047520477
0.028402442
0.011763855
0.0017621552
0.0017662251
0.011816004
0.028526308
0.047723903
0.74871909
0.7537516
0.047881654
0.028621259
0.011856376
0.0017696054
0.0017735499
0.011896338
0.028722301
0.048055763
0.75882397
0.76419792
0.048179066
0.028786692
0.011919976
0.0017772713
0.0017822374
0.01193766
0.028844477
0.048299552
0.77016142
0.77707764
0.048352529
0.028855045
0.011935584
0.0017880587
0.0017973793
0.011932656
0.028857808
0.048396283
0.78553476
0.79640872
0.048441102
0.028850317
0.011932501
0.0018132835
0.0018410267
0.012002016
0.029069342
0.048866751
0.81127755
0.83589777
0.050436153
0.030028983
0.01232237
0.0018850889
0.0019601531
0.013381579
0.032458977
0.054719373
0.86045481
0.85788799
0.051059721
0.031065931
0.012997573
0.0019417898
0.0020145165
0.014664909
0.036244698
0.061593718
0.78081295
0.80831791
0.058787643
0.034435028
0.014029927
0.0019992123
0.0020549553
0.014620181
0.036069955
0.061710513
0.78784178
0.7585255
0.056232156
0.033254005
0.013549258
0.001985375
0.0019333672
0.013008031
0.031728997
0.053722333
0.7290211
0.71161552
0.052831797
0.031238446
0.012842157
0.0018992932
0.00187846
0.012783569
0.031099131
0.052549278
0.69970498
0.69100642
0.05239599
0.031026931
0.012756756
0.0018664868
0.0018593539
0.012742726
0.030976549
0.05228119
0.68447879
0.6791474
0.052145381
0.030910231
0.012720507
0.0018538745
0.0018497576
0.012692565
0.030834853
0.052003195
0.67457637
0.67028222
0.051828513
0.030735328
0.012652411
0.0018456359
0.0018418757
0.012607216
0.030627538
0.051649286
0.66598711
0.6617836
0.051442404
0.030503124
0.012553954
0.0018375378
0.001833185
0.012499834
0.030375319
0.051227651
0.65761752
0.65349059
0.051007139
0.030242566
0.012443153
0.0018284291
0.0018240037
0.012390038
0.030117224
0.050798889
0.64946084
0.64548561
0.050581656
0.029986559
0.012334835
0.0018192924
0.0018149231
0.012283189
0.029863255
0.050376005
0.64163942
0.63788649
0.05016371
0.029735805
0.012229729
0.0018103214
0.0018060535
0.01217941
0.029614978
0.0499619
0.63428298
0.63075891
0.049754029
0.029490229
0.012127257
0.0018015695
0.001797434
0.012078423
0.029372824
0.049558098
0.6274106
0.62414516
0.049356976
0.029252029
0.012027962
0.0017931121
0.0017891624
0.011981159
0.029139565
0.049169604
0.62106125
0.61808668
0.048978924
0.029024839
0.011933177
0.0017850665
0.0017813518
0.011888898
0.028918403
0.04880167
0.61526762
0.61256912
0.048622301
0.028810359
0.011843685
0.0017775115
0.0017740631
0.011802347
0.028710965
0.048456816
0.61003054
0.60768162
0.048296215
0.028613715
0.011761398
0.0017705736
0.0017674643
0.011723846
0.028523246
0.048145363
0.60545055
0.60336755
0.047995729
0.028432818
0.011685903
0.0017642631
0.0017615138
0.011652741
0.028353335
0.047863847
0.60147007
0.59975051
0.047735289
0.02827531
0.01161981
0.0017587215
0.0017564884
0.01159325
0.028212553
0.047632431
0.59835406
0.59743123
0.047561301
0.028166606
0.011572394
0.0017545513
0.00177206
0.011778082
0.028720246
0.048575959
0.59923508
0.60022848
0.048644785
0.028762938
0.011797219
0.0017737839
0.0017763207
0.011827042
0.028834079
0.04876057
0.60165253
0.60333598
0.048874509
0.028902483
0.011856187
0.0017787914
0.0017818773
0.011893015
0.028991458
0.049021347
0.60522281
0.6072774
0.049156744
0.029072575
0.011927347
0.0017847792
0.001788259
0.01196886
0.02917301
0.049322864
0.60949903
0.61186146
0.04947776
0.029265321
0.012007599
0.0017915206
0.0017952814
0.012052121
0.029372836
0.049655753
0.61440047
0.61707226
0.049822911
0.029472632
0.01209406
0.0017988372
0.0018029031
0.01214213
0.029588958
0.050015898
0.61988218
0.62283296
0.050196455
0.029696289
0.012187026
0.0018067127
0.001810977
0.01223706
0.029817146
0.050396859
0.62590835
0.62910894
0.050586038
0.029929438
0.012284001
0.0018149809
0.0018194268
0.012335895
0.030054719
0.050793952
0.63243877
0.63588543
0.050988681
0.030170398
0.012384366
0.0018235855
0.0018282025
0.012438226
0.030300517
0.051205153
0.63948055
0.64318009
0.051403603
0.030418503
0.01248787
0.001832469
0.0018372091
0.012543411
0.030552359
0.051626418
0.64700455
0.65091644
0.051827683
0.030672076
0.012594137
0.0018415284
0.0018462904
0.012650575
0.030806633
0.052050925
0.65492359
0.65897386
0.052250423
0.030925576
0.012701727
0.0018505752
0.0018552566
0.012758336
0.031059764
0.052474087
0.66307304
0.66721727
0.052662603
0.031171492
0.012806586
0.0018592426
0.0018635482
0.012854941
0.031287641
0.052857995
0.67139525
0.67561651
0.053020185
0.03137807
0.012891177
0.0018673834
0.001872067
0.012924443
0.031467953
0.053185006
0.68021619
0.6854611
0.053312512
0.031528394
0.012943463
0.0018771332
0.0018843784
0.012960299
0.031591535
0.053450697
0.69185272
0.70014315
0.05356447
0.03163018
0.012969528
0.0018947812
0.0019139428
0.013013794
0.031759064
0.053852931
0.71195771
0.72974358
0.0546435
0.032150889
0.01309852
0.0019407883
0.0019941509
0.013711901
0.033677515
0.057204116
0.76277568
0.78628683
0.05831886
0.034405232
0.014092165
0.0020345583
0.0020426437
0.014271781
0.034754874
0.058591687
0.79905105
0.7852398
0.062896485
0.036893053
0.014908512
0.0020423601
0.59686013
0.075028058
0.042660655
0.0169155
0.0022614571
0.002114254
0.015088841
0.037143523
0.063900912
0.76250504
0.88324316
0.053011227
0.031961416
0.013343927
0.0019883844
0.001980132
0.013644806
0.033212659
0.056350015
0.81964402
0.81115287
0.060189867
0.035139736
0.014281282
0.0020208232
0.0020287272
0.014264539
0.035100613
0.059749784
0.78821261
0.75549279
0.055500642
0.032793346
0.013380061
0.0019715746
0.0019228297
0.01288414
0.031448225
0.05331559
0.72534128
0.70864814
0.052626353
0.031096869
0.012778607
0.0018932677
0.0018749779
0.012748232
0.031019363
0.052431116
0.69747336
0.68947708
0.052331449
0.030984592
0.012738239
0.0018645597
0.0018582916
0.012733191
0.030954068
0.052244754
0.68343193
0.67849169
0.05212587
0.030898197
0.012715291
0.0018532941
0.0018494476
0.012689647
0.030828008
0.051991459
0.67412917
0.66997544
0.051819491
0.03072994
0.012650222
0.0018454339
0.001841762
0.012605863
0.030624697
0.051644781
0.66577374
0.66160171
0.051432182
0.030497234
0.012551595
0.0018373716
0.0018330475
0.012498119
0.030371414
0.051221255
0.65747145
0.65339347
0.051001349
0.030238941
0.012441574
0.0018283055
0.0018239154
0.012388957
0.03011491
0.050795295
0.64936752
0.64541468
0.050578872
0.029984686
0.012333965
0.0018192234
0.0018148928
0.01228286
0.029862778
0.050375522
0.64159759
0.63786069
0.050162955
0.02973517
0.012229389
0.0018102965
0.0018060475
0.012179338
0.029615003
0.049962097
0.63425553
0.63074589
0.049756068
0.029491172
0.012127518
0.0018015876
0.0017974674
0.012078818
0.029373907
0.049559955
0.62740298
0.62415197
0.049359419
0.029253307
0.01202842
0.0017931509
0.0017892032
0.011981602
0.029140656
0.049171347
0.62105386
0.61810105
0.048982627
0.02902684
0.011933913
0.0017851239
0.0017814182
0.01188971
0.028920423
0.048804995
0.61527934
0.61259904
0.048626102
0.028812521
0.011844536
0.0017775808
0.0017741454
0.011803374
0.028713561
0.048461216
0.61005723
0.60765932
0.048293502
0.028612408
0.011761068
0.001770574
0.0017674533
0.011723625
0.028522651
0.048144366
0.60541828
0.60333653
0.047993416
0.028431464
0.0116854
0.0017642297
0.0017614804
0.011652342
0.028352376
0.04786226
0.60143019
0.59972338
0.047731617
0.02827316
0.01161899
0.0017586604
0.0017564225
0.01159247
0.028210642
0.047629239
0.59829626
0.59742171
0.047557443
0.028164171
0.011571392
0.0017544676
0.0016850787
0.010835814
0.026206364
0.043909346
0.66897357
0.67026512
0.043979787
0.026250264
0.010855416
0.0016867812
0.0016891892
0.010884629
0.02631999
0.044092744
0.67197688
0.67393875
0.044198401
0.026384308
0.010912236
0.0016914845
0.0016943438
0.010947117
0.026468086
0.044335181
0.67611847
0.67848595
0.044460185
0.026543895
0.010979414
0.0016970201
0.0017002136
0.011018195
0.026636977
0.044612338
0.68104637
0.68377709
0.044752558
0.026721984
0.011054313
0.0017032155
0.0017067122
0.011096608
0.026823474
0.044918618
0.68668567
0.68975462
0.045073875
0.02691709
0.011136136
0.001709996
0.0017137113
0.011180613
0.027023455
0.04524762
0.69299564
0.69638244
0.045413189
0.027123238
0.011222738
0.0017172334
0.0017211779
0.011269742
0.027235794
0.045597589
0.69996959
0.70368935
0.045768512
0.027339215
0.01131363
0.0017248873
0.001729062
0.011363318
0.02745845
0.045964402
0.70757633
0.7116042
0.046142877
0.027566271
0.011409045
0.0017329352
0.0017372489
0.01146026
0.027688873
0.046344157
0.71579303
0.72010471
0.046530186
0.027800725
0.011507595
0.0017412297
0.0017455715
0.011559152
0.027923146
0.046730344
0.72456625
0.72912064
0.046918208
0.028036433
0.011607494
0.0017495906
0.0017539716
0.011660603
0.028161471
0.047121775
0.73380429
0.73852834
0.047313385
0.028277124
0.011710317
0.0017579648
0.0017622237
0.011764083
0.028404144
0.047521573
0.74332497
0.74816152
0.047704515
0.028513713
0.011810783
0.0017658219
0.0017695122
0.011855398
0.028620531
0.047878389
0.75304604
0.75781403
0.048021932
0.028700969
0.011887308
0.001772739
0.0017765172
0.011912111
0.028770759
0.048152452
0.7627359
0.76807547
0.048226291
0.02879688
0.011916604
0.0017803663
0.0017857426
0.011906644
0.028794735
0.048262825
0.77429181
0.7820455
0.048224841
0.028738832
0.01187733
0.0017933759
0.0018084892
0.011862401
0.028707997
0.048244005
0.79266834
0.80786385
0.048521494
0.028823362
0.011885675
0.0018323789
0.001876807
0.012194518
0.029655428
0.049813346
0.83451019
0.85779035
0.05239266
0.031418301
0.013033799
0.0019434803
0.0019928809
0.013642101
0.03278541
0.054157249
0.85808526
0.78126778
0.064482508
0.037672816
0.015258533
0.0020798594
0.0020652511
0.014458948
0.035290118
0.059572077
0.79683764
0.78115509
0.055230755
0.032814127
0.013497528
0.0020001892
0.00199407
0.013691574
0.033626984
0.057263736
0.75958845
0.7248275
0.054400079
0.031951909
0.012979094
0.0019341378
0.0019099997
0.012948105
0.031623731
0.053655084
0.70757461
0.69640668
0.053411554
0.031532109
0.012924589
0.0018916589
0.0018819873
0.01292951
0.031521085
0.053336485
0.68900026
0.68336391
0.053246889
0.031489681
0.012926068
0.0018755661
0.0018709603
0.012912757
0.031439826
0.053136112
0.6787648
0.67459366
0.052992648
0.031363495
0.012884772
0.0018667052
0.0018630239
0.012849227
0.031273366
0.052832967
0.67067762
0.66667879
0.052649999
0.031165067
0.01280354
0.0018589388
0.0018549696
0.012754781
0.031050556
0.052457933
0.6626955
0.65866431
0.052247659
0.030924699
0.012700959
0.0018504717
0.0018461761
0.012648902
0.030801883
0.052042316
0.65471225
0.65074988
0.051832833
0.030675727
0.012595207
0.0018415869
0.0018372324
0.012543293
0.030551364
0.051624085
0.64690911
0.64309294
0.051412804
0.030424562
0.012489979
0.0018326267
0.0018282841
0.012438648
0.03030068
0.051204559
0.63942149
0.63579405
0.05099257
0.030173688
0.0123856
0.0018237005
0.0018194403
0.012335413
0.030052564
0.050789495
0.63235101
0.62898164
0.050584483
0.029929567
0.012284022
0.0018150018
0.0018109109
0.012235718
0.029813073
0.050389544
0.62580404
0.62271375
0.05019422
0.029695694
0.012186622
0.0018066829
0.0018028133
0.012140692
0.029584895
0.050008916
0.61980405
0.61698197
0.049823993
0.029473653
0.012094151
0.0017988264
0.0017952159
0.01205105
0.0293697
0.049650268
0.61434533
0.6117956
0.049479928
0.029266986
0.012007957
0.0017915314
0.0017882069
0.011967924
0.029170145
0.049317723
0.60944191
0.60718962
0.049163212
0.029076637
0.01192856
0.0017848438
0.0017818562
0.011892386
0.028989083
0.049016502
0.60514915
0.60320633
0.048877185
0.028904675
0.011856821
0.0017788275
0.001776218
0.011825191
0.028828291
0.048749453
0.60148053
0.59988762
0.04862872
0.028754979
0.011794209
0.0017735787
0.0017715238
0.011770019
0.028697916
0.048535099
0.59865032
0.59922417
0.048567889
0.028714684
0.011775854
0.0017718337
0.0017738903
0.011798373
0.028765814
0.048647577
0.60021116
0.60162666
0.048754192
0.028829647
0.01182538
0.0017761602
0.0017789503
0.011858065
0.028907493
0.048881424
0.60332257
0.6051992
0.049013781
0.028986402
0.011891139
0.001781707
0.0017849244
0.011929027
0.029077105
0.049162906
0.60725021
0.60946338
0.049314285
0.029167342
0.011966738
0.0017880725
0.0017916499
0.012008834
0.029268301
0.049480766
0.61183581
0.61436291
0.04964968
0.029368609
0.012050559
0.001795135
0.0017989966
0.012095808
0.029477146
0.049828818
0.61704447
0.61985135
0.050009782
0.029584683
0.012140539
0.0018027516
0.0018068619
0.012188532
0.029700012
0.050200756
0.62281441
0.62587741
0.050390542
0.029812835
0.012235497
0.0018108296
0.0018151463
0.012285672
0.029933491
0.050590741
0.62909908
0.63242751
0.050787475
0.030050441
0.012334431
0.001819291
0.001823792
0.012386606
0.030175931
0.050995939
0.6358903
0.63947827
0.051198925
0.03029646
0.012436911
0.001828079
0.0018327122
0.012490685
0.030425699
0.051413904
0.64319561
0.64701188
0.051620191
0.030548211
0.012542052
0.0018370734
0.0018417621
0.012596867
0.030679014
0.05183743
0.65092815
0.65490569
0.052043696
0.030801891
0.012649004
0.0018461259
0.0018507874
0.012704406
0.030932338
0.052259666
0.65893931
0.66300493
0.052464804
0.031053752
0.012756274
0.001855019
0.0018593435
0.012808154
0.031175046
0.052665839
0.6671136
0.67119846
0.052842672
0.031277642
0.01285124
0.0018631459
0.001867252
0.012890068
0.031374796
0.053012463
0.67533628
0.67976918
0.053153732
0.031448426
0.012917374
0.00187136
0.0018767018
0.012939375
0.031515642
0.053289407
0.68485744
0.69100258
0.053394381
0.031557684
0.012949249
0.0018832621
0.0018939279
0.012962245
0.031601152
0.053509721
0.69900749
0.71036963
0.053750699
0.031700951
0.012999861
0.0019126066
0.0019417602
0.013113033
0.032108178
0.054558137
0.72788382
0.76061486
0.05708424
0.033625627
0.013689516
0.0019909354
0.0020392566
0.014219105
0.034769868
0.059130867
0.78736435
0.7982701
0.05690228
0.033854753
0.013954403
0.0020110374
1.8745606
3.3003879
2.3981182
0.86113968
0.054351136
0.032843607
0.01363705
0.0019947205
0.0020391753
0.0144559
0.035676897
0.061239673
0.80829622
0.0022196755
0.016464632
0.041374246
0.072524954
0.59353716
0.51775551
0.069717277
0.039699328
0.015785384
0.0021411725
0.0021448174
0.015677532
0.039519242
0.069510038
0.51486992
0.69362939
0.067166647
0.038626466
0.015525396
0.0021159381
1.2660616
1.5027914
2.9665203
2.3746247
8.2757468
8.3014649
8.4253839
8.2756617
8.7023281
8.6306801
8.4811264
8.524301
0.0017547932
0.011575077
0.028173023
0.047571511
0.59747153
0.59841913
0.047631625
0.028211314
0.011592819
0.0017564351
0.0017589733
0.011622947
0.02828341
0.04774916
0.59984039
0.60154391
0.047859936
0.028350252
0.011651582
0.001761404
0.0017644695
0.011688488
0.028439566
0.048007284
0.60342872
0.605489
0.0481399
0.02851917
0.011722227
0.0017673105
0.0017707129
0.011763029
0.028617956
0.048303429
0.60771308
0.61008148
0.048449852
0.028706008
0.011800387
0.0017738813
0.0017776333
0.011845302
0.0288149
0.048630427
0.61259833
0.61526431
0.048791116
0.028911385
0.011886135
0.0017811055
0.0017851386
0.011934155
0.029027748
0.048984217
0.61806802
0.62101297
0.049156806
0.029131252
0.01197788
0.0017888712
0.0017931481
0.012028531
0.029253929
0.049360487
0.62409818
0.62731762
0.049544015
0.02936366
0.012074751
0.0017971011
0.0018015572
0.012127213
0.029490537
0.049754687
0.6306671
0.63414929
0.049946133
0.029604677
0.012175237
0.0018056717
0.0018102679
0.012229194
0.029734987
0.050162605
0.63776273
0.6414908
0.050357001
0.029851155
0.012278333
0.0018144883
0.0018192156
0.012334111
0.029985527
0.05058039
0.64533741
0.64927526
0.050778149
0.030103788
0.012384491
0.001823498
0.0018282563
0.012441203
0.030238674
0.051001265
0.65329434
0.65737943
0.051199545
0.030357647
0.012492642
0.0018325565
0.0018373034
0.012550803
0.03049586
0.05142986
0.6615151
0.6657297
0.051623507
0.030610726
0.012600103
0.0018412633
0.0018454077
0.012649091
0.030728357
0.051818042
0.66998267
0.67420832
0.051970196
0.030813806
0.012683865
0.0018490251
0.0018534228
0.012715295
0.030898491
0.052127327
0.67870263
0.68382279
0.052226255
0.030941516
0.012728519
0.0018580371
0.0018650261
0.012741473
0.030990931
0.052342587
0.6901282
0.69859689
0.052453475
0.031031651
0.012754081
0.0018756194
0.0018958232
0.012815855
0.031203931
0.052802911
0.71080298
0.72897085
0.053720974
0.031681356
0.012935072
0.0019238871
0.0019813669
0.01364749
0.033405008
0.056611837
0.76136053
0.78454976
0.057187749
0.033829132
0.013827722
0.0019948454
0.0020359419
0.014446963
0.035697137
0.061297317
0.80425164
0.05339362
0.032163602
0.013437936
0.0019952595
0.0019564109
0.012804
0.030484159
0.050398708
0.86713868
0.73949673
0.057994245
0.033841589
0.013797347
0.0020355064
0.0021167157
0.015496199
0.038614079
0.067485507
0.68901359
0.81485463
0.05755302
0.033772163
0.01386623
0.0019934429
0.0020387545
0.014475399
0.035762753
0.061402279
0.80569406
0.78570331
0.057240961
0.033862001
0.013842316
0.0019964335
0.0019827615
0.013661231
0.033437301
0.056665964
0.76214231
0.72945436
0.053767559
0.031710822
0.012947376
0.0019251163
0.0018967751
0.012823504
0.031220979
0.05283041
0.71116021
0.69881609
0.05248976
0.031053601
0.012762721
0.0018765623
0.0018656993
0.01274595
0.031000411
0.052357867
0.69026889
0.68386721
0.052252814
0.030957401
0.012734611
0.0018587374
0.0018539559
0.012719007
0.030906327
0.052140023
0.67877759
0.6742443
0.051997728
0.0308305
0.012690309
0.0018496698
0.0018459697
0.012654069
0.030739462
0.051836096
0.67011254
0.66586281
0.051653675
0.030629735
0.012607683
0.0018419456
0.0018379484
0.012557327
0.030510802
0.051453919
0.6617421
0.65756365
0.05123512
0.030379561
0.012501255
0.0018333225
0.0018289147
0.012447662
0.030253244
0.051024154
0.65349145
0.64939545
0.050803842
0.030120389
0.012391248
0.0018241464
0.0018197298
0.012338818
0.029995773
0.050596138
0.6454623
0.64158747
0.05038385
0.029867883
0.012284879
0.0018150799
0.0018107519
0.012233822
0.029745241
0.050178509
0.63789172
0.6342437
0.049970427
0.029619983
0.012181262
0.0018062127
0.0018019952
0.012131466
0.029499925
0.049769253
0.63077678
0.62737946
0.049568607
0.029378917
0.012080696
0.0017976139
0.0017935531
0.012032506
0.029262532
0.049373532
0.62417778
0.62102534
0.049175363
0.029143247
0.01198267
0.0017892961
0.0017854213
0.011936605
0.029032339
0.048990209
0.61805919
0.61522206
0.048805423
0.028920728
0.011889796
0.0017814234
0.0017778334
0.011846973
0.028817766
0.048633825
0.61257258
0.61003791
0.048464048
0.028715043
0.011803802
0.0017741567
0.0017708754
0.011764341
0.028619975
0.048305381
0.60766933
0.60539027
0.048144998
0.028523148
0.011723805
0.0017674599
0.0017644916
0.011688058
0.028437303
0.048002188
0.60330833
0.60135047
0.047859065
0.028350699
0.011651697
0.0017614264
0.001758834
0.011620428
0.028275768
0.047734636
0.59958909
0.59798659
0.047614007
0.028202358
0.011589374
0.0017561981
0.0017540553
0.011563488
0.02814046
0.047511357
0.59661294
0.59552275
0.047427879
0.028088282
0.01154071
0.001752026
0.59898826
0.04854654
0.02870277
0.011771599
0.0017715725
0.0017738179
0.011797456
0.028763807
0.048644638
0.60011437
0.6015912
0.048744453
0.028824197
0.011823485
0.0017760443
0.001778945
0.011858206
0.028908223
0.048883161
0.60330534
0.60520373
0.049008932
0.028983621
0.011890192
0.0017816477
0.0017849393
0.011929579
0.029079054
0.049166948
0.60726682
0.60948443
0.049310385
0.029164909
0.011965851
0.0017880064
0.0017916395
0.012009229
0.029270081
0.049484832
0.61185626
0.61436741
0.04964353
0.029364911
0.012049138
0.0017950163
0.0017989145
0.012095357
0.029476839
0.049829372
0.61701514
0.61978641
0.049999619
0.029578602
0.012138179
0.0018025585
0.0018067177
0.012187213
0.029697238
0.050196674
0.62270434
0.62577627
0.050378714
0.029805779
0.012232798
0.0018106118
0.0018150049
0.012284479
0.029931082
0.050587364
0.62898243
0.63230718
0.050775119
0.030043153
0.012331662
0.0018190628
0.0018236425
0.012385421
0.030173586
0.050992684
0.63575948
0.6393267
0.051186633
0.030289118
0.012434065
0.0018278301
0.0018325176
0.01248904
0.030422228
0.051408712
0.64302159
0.6468017
0.051605252
0.030539329
0.012538584
0.0018367713
0.0018415166
0.012594568
0.030673918
0.051829312
0.65068539
0.65463151
0.052026295
0.030791619
0.012644934
0.0018457807
0.0018505086
0.012701611
0.030926264
0.052249816
0.65863356
0.66264585
0.052446181
0.031042735
0.012751714
0.0018546507
0.0018590673
0.012805193
0.031169346
0.052657035
0.66668087
0.6707007
0.052824301
0.031267625
0.01284709
0.0018627501
0.001866876
0.01288753
0.031370253
0.053003113
0.67467624
0.67882116
0.053127733
0.031434435
0.012910837
0.0018706635
0.0018757124
0.012929141
0.031497222
0.053258701
0.68345736
0.68905376
0.053328028
0.031515317
0.012927297
0.001881606
0.0018916659
0.012926778
0.031538136
0.053421781
0.6964786
0.70754462
0.053639981
0.031613361
0.012943669
0.001909376
0.0019338705
0.012978233
0.031950798
0.0543988
0.72472406
0.75918689
0.057236709
0.033608296
0.013683208
0.0019931095
0.0019994421
0.013489451
0.032793282
0.055193033
0.7804586
0.79567937
0.059545364
0.035273377
0.014449965
0.0020643686
0.0020775903
0.01522238
0.037616371
0.064406836
0.78011714
0.85701221
0.054137504
0.032769355
0.013632901
0.0019918591
0.0020191961
0.014267183
0.035110504
0.0601485
0.81012754
0.80687222
0.058671815
0.034369057
0.014004713
0.0019971544
0.0019408797
0.012982431
0.031034963
0.05101289
0.85708061
0.79835844
0.056926773
0.033865854
0.013955418
0.0020112014
0.0020439426
0.014284094
0.034792619
0.058658596
0.79957899
0.86173919
0.054427957
0.032887564
0.013652976
0.0019962153
0.0020416142
0.014481991
0.035740788
0.061344191
0.80940427
0.78815269
0.056393697
0.033421848
0.013675626
0.0019874681
0.0019772804
0.013607344
0.033325711
0.056525458
0.76453814
0.73120526
0.053795617
0.031712598
0.012942409
0.0019236046
0.001896334
0.01282219
0.031227477
0.052857017
0.71228616
0.69970769
0.052511292
0.031063016
0.012765373
0.0018765672
0.001865975
0.012751359
0.0310142
0.052383375
0.69098819
0.68443392
0.052273
0.030969357
0.012739771
0.0018590682
0.0018542866
0.012723564
0.03091691
0.052157908
0.67922192
0.67458478
0.052008479
0.030837115
0.012693333
0.0018499259
0.0018461759
0.012656402
0.030744819
0.051845173
0.67034512
0.66603045
0.051656968
0.030631925
0.012608812
0.0018420704
0.0018380332
0.012558154
0.030512681
0.051457155
0.66183956
0.65763295
0.05123613
0.030380234
0.01250162
0.0018333687
0.0018289474
0.012447993
0.030254058
0.051025629
0.65353523
0.64944934
0.050807953
0.030122608
0.012392063
0.0018242056
0.0018198
0.012339721
0.029998112
0.050600208
0.64551745
0.64164218
0.05038638
0.029869394
0.012285523
0.0018151366
0.0018108118
0.012234563
0.029747125
0.050181789
0.6379284
0.63426557
0.049966823
0.029618255
0.012180791
0.0018061982
0.0018019663
0.012131047
0.029498854
0.049767526
0.63075525
0.62736228
0.049559089
0.029373771
0.012078879
0.0017974961
0.0017934302
0.012030987
0.029258875
0.049367672
0.6241115
0.62098756
0.049168781
0.029139359
0.011981108
0.0017891699
0.0017853239
0.011935568
0.029030119
0.048986996
0.61802813
0.61518086
0.04880287
0.028919061
0.011889039
0.001781352
0.0017777862
0.011846523
0.028816925
0.048632755
0.61255945
0.61000765
0.048457479
0.028711356
0.011802431
0.0017740597
0.0017707775
0.011763152
0.028617182
0.048300955
0.60762086
0.60537887
0.048141198
0.028520803
0.011722814
0.001767374
0.0017644229
0.011687328
0.02843572
0.047999846
0.60328938
0.60138595
0.047859674
0.028350815
0.011651613
0.0017614022
0.0017588309
0.011620536
0.028276249
0.047735696
0.59961062
0.59800342
0.047610083
0.028200253
0.011588645
0.0017561501
0.0017540121
0.011563035
0.028139482
0.04751
0.59661249
0.59553642
0.04742194
0.028084909
0.011539411
0.0017519385
0.59749313
0.047566492
0.028169401
0.011573845
0.0017546795
0.0017566641
0.011595626
0.028218657
0.047642467
0.59842802
0.59983298
0.047742892
0.028279176
0.011621508
0.0017588552
0.0017616395
0.011654446
0.028357792
0.047871108
0.60152
0.60340297
0.047999882
0.02843483
0.011686894