/*--------------------------------*- C++ -*----------------------------------*\
  =========                 |
  \\      /  F ield         | OpenFOAM: The Open Source CFD Toolbox
   \\    /   O peration     | Website:  https://openfoam.org
    \\  /    A nd           | Version:  7
     \\/     M anipulation  |
\*---------------------------------------------------------------------------*/
FoamFile
{
    version     2.0;
    format      ascii;
    class       volScalarField;
    location    "110";
    object      k;
}
// * * * * * * * * * * * * * * * * * * * * * * * * * * * * * * * * * * * * * //

dimensions      [0 2 -2 0 0 0 0];

internalField   nonuniform List<scalar> 
24789
(
182.47705
379.42119
542.24532
686.9314
1485.0033
1489.1439
688.85636
543.75274
380.44657
182.81531
183.32399
381.96998
545.96843
691.63021
1494.6228
1500.8073
694.44991
548.16566
383.45337
183.80877
184.41871
385.28246
550.8347
697.80254
1507.4637
1514.5522
701.1173
553.42131
387.02887
184.9912
185.67654
389.07784
556.40819
704.86294
1522.0298
1529.8839
708.59118
559.32641
391.05201
186.32674
187.08642
393.31841
562.63112
712.7341
1538.1109
1546.6619
716.80551
565.83004
395.48851
187.80512
188.63522
397.95846
569.4315
721.31785
1555.4463
1564.5253
725.69163
572.88173
400.30549
189.41667
190.31144
402.96005
576.75075
730.53484
1573.7986
1583.2797
735.1748
580.41982
405.46004
191.14739
192.09343
408.25569
584.48699
740.25374
1592.8612
1602.5897
745.10558
588.33434
410.88286
192.97527
193.96566
413.80085
592.56855
750.37702
1612.3655
1622.2313
755.40338
596.56479
416.53649
194.8851
195.90803
419.54942
600.919
760.80266
1632.0642
1641.8971
765.94763
605.01928
422.36656
196.85066
197.88618
425.43618
609.42422
771.37927
1651.6296
1661.3063
776.53267
613.55807
428.3035
198.83206
199.87285
431.45439
618.04272
782.03518
1670.8253
1680.3148
787.18512
622.1867
434.34474
200.79878
201.80162
437.45178
626.63234
792.66224
1689.7676
1699.3528
797.64279
630.5725
440.12141
202.66667
203.65756
442.90278
634.81132
803.02981
1709.1484
1719.5194
808.02261
638.5653
445.21338
204.60995
205.87432
447.73314
642.79074
813.6968
1730.737
1743.3513
819.49495
646.88993
449.91346
207.3349
209.54089
453.17074
652.51135
827.1697
1757.9174
1774.3474
837.68926
660.74689
459.00414
213.37976
220.35504
466.76005
673.89639
853.94045
1789.4254
1808.384
878.97329
696.70927
484.99518
228.81891
233.37638
497.15215
709.8415
890.22303
1826.3254
1843.4582
933.61045
752.88774
532.48957
247.93822
259.05528
574.21352
811.51409
1001.5627
1849.1923
1863.7976
886.04384
717.06446
508.98128
239.64518
229.52019
481.07995
683.87726
856.4729
1848.2997
1829.7007
807.99577
638.80265
444.43252
215.67515
205.82887
426.08485
613.93068
781.22473
1811.9968
1797.5183
765.61129
600.78449
416.90442
199.00718
195.49211
411.74792
593.35735
756.04258
1781.9823
1767.9792
749.53483
588.68469
409.02409
193.53047
192.21468
407.09789
585.05912
744.28274
1755.6247
1744.6761
739.53243
581.59923
405.0666
191.14672
190.30146
402.98427
578.11304
734.80646
1734.2913
1724.4926
730.07364
574.41601
400.56832
189.44816
188.66807
398.11194
570.67657
725.28798
1714.7538
1705.3285
720.42237
566.73932
395.38232
187.79555
186.92867
392.62906
562.70007
715.34942
1695.6904
1686.0592
710.30873
558.60249
389.75212
185.98451
185.09369
387.0206
554.61154
705.29977
1676.2016
1666.2396
700.27898
550.55898
384.19454
184.14428
183.26358
381.54503
546.66684
695.37248
1656.274
1646.2497
690.47557
542.7342
378.81877
182.33877
181.48171
376.25113
538.94167
685.67129
1636.2456
1626.5184
681.01674
535.20787
373.66703
180.60238
179.78469
371.21088
531.56296
676.37763
1616.6923
1607.0942
671.87018
527.9609
368.72658
178.94261
178.16434
366.37936
524.46908
667.4139
1597.4165
1588.0327
663.08632
521.02049
364.00631
177.36357
176.63382
361.79671
517.72851
658.87772
1578.751
1569.8844
654.86338
514.53099
359.59619
175.89306
175.22635
357.56716
511.49969
650.97573
1561.239
1552.8321
647.26538
508.54915
355.53871
174.54641
173.94534
353.70012
505.79549
643.72332
1544.943
1537.2967
640.33306
503.10634
351.85346
173.32876
172.79621
350.21662
500.64971
637.16726
1530.0141
1523.1863
634.17011
498.27319
348.58296
172.25177
171.79704
347.17799
496.15801
631.43625
1516.8269
1511.316
629.01533
494.22695
345.84076
171.3496
171.01482
344.80942
492.66988
626.99856
1506.6951
1513.7891
629.78931
494.78746
346.20879
171.46193
171.84619
347.34386
496.42179
631.8055
1517.8657
1523.5999
634.21712
498.29406
348.60439
172.25685
172.79359
350.22103
500.66546
637.20638
1530.1556
1537.2493
640.19622
502.985
351.78016
173.30257
173.91858
353.63256
505.7049
643.62716
1544.7729
1552.67
646.9899
508.32801
355.40245
174.50035
175.19234
357.47804
511.37509
650.83302
1560.9327
1569.5343
654.57389
514.30099
359.45512
175.84506
176.60247
361.71889
517.61965
658.75275
1578.4558
1587.6578
662.83341
520.81373
363.87766
177.31736
178.12593
366.28429
524.33688
667.26268
1597.09
1606.7205
671.55283
527.71089
368.57391
178.88889
179.75327
371.14111
531.46712
676.2712
1616.4554
1626.2977
680.75744
535.00359
373.54601
180.55737
181.46042
376.21998
538.90446
685.64175
1636.2095
1646.1553
690.27498
542.57144
378.72304
182.29881
183.23797
381.50634
546.61561
695.31965
1656.1127
1666.0464
700.10731
550.41357
384.10744
184.10374
185.05949
386.96225
554.5323
705.21247
1675.9415
1685.761
710.08712
558.42184
389.64544
185.93703
186.90261
392.59912
562.66137
715.31258
1695.494
1705.1761
720.2416
566.60409
395.31512
187.76193
188.67789
398.18921
570.79454
725.4448
1714.8768
1724.6988
730.09578
574.44644
400.61297
189.4583
190.37608
403.1901
578.4215
735.19364
1734.7746
1745.3683
739.86881
581.89132
405.29626
191.26517
192.44911
407.57577
585.7306
745.10117
1756.7232
1769.1743
750.34887
589.39212
409.59365
193.8457
195.9233
412.56034
594.44085
757.28344
1783.1149
1798.5895
766.98332
602.0691
418.03173
199.43595
206.49699
428.86274
616.32365
783.48585
1812.7788
1828.3934
810.69259
641.08909
445.91777
216.97863
228.27642
482.24707
685.91989
861.22297
1845.6547
1857.6966
851.30826
688.01969
488.51982
229.62252
256.35369
568.93184
804.33636
992.05191
1841.3233
1826.2244
913.69425
727.94569
509.64682
234.79453
244.84509
528.42468
749.0966
933.91738
1813.3668
1796.0966
881.27054
703.43411
492.6055
233.49304
221.39479
470.44371
672.98098
848.83332
1779.0925
1763.6635
827.76911
654.05258
455.64407
212.59998
207.88635
447.27017
642.98768
814.57149
1746.7752
1731.7753
805.65368
636.03567
442.78665
205.18611
203.47218
439.89805
631.09127
798.94727
1718.7216
1706.976
793.09213
626.69254
437.1942
202.15481
201.16502
434.71111
622.64341
787.71226
1696.1998
1686.0368
782.38977
618.46399
431.95813
200.19613
199.32043
429.21507
614.32978
777.15114
1676.0412
1666.4865
771.79072
609.96377
426.15074
198.33038
197.35278
423.08648
605.5355
766.27767
1656.6948
1646.9432
760.78939
601.05045
419.9082
196.29865
195.32323
416.94551
596.75627
755.43856
1637.1292
1627.2679
750.07324
592.4038
413.89301
194.29151
193.33831
411.03771
588.22685
744.8358
1617.3458
1607.4622
739.613
584.01129
408.10158
192.33896
191.41529
405.34245
579.95249
734.50003
1597.5864
1587.7183
729.40776
575.85857
402.50307
190.44925
189.56152
399.84732
571.94038
724.45674
1577.9871
1568.3131
719.54359
568.00235
397.12301
188.63711
187.79527
394.59666
564.26763
714.81322
1558.8449
1549.5718
710.16073
560.5458
392.02496
186.92525
186.1389
389.6544
557.03303
705.69856
1540.4794
1531.6585
701.33844
553.5511
387.25046
185.32843
184.60346
385.05451
550.28916
697.1824
1523.0736
1515.0576
693.25677
547.15066
382.88311
183.87179
183.22224
380.90362
544.1987
689.47935
1507.1795
1499.7296
685.86505
541.31788
378.91396
182.55513
181.9845
377.16933
538.71414
682.53039
1492.6764
1486.1726
679.40758
536.22296
375.4444
181.40624
180.94602
374.03409
534.11649
676.70912
1480.5146
1476.5776
674.73356
532.49662
372.8803
180.54882
182.98887
380.98123
544.54283
689.85401
1491.0808
1495.4232
691.8933
546.13632
382.06237
183.34526
183.87225
383.63601
548.42082
694.74698
1501.1222
1507.5825
697.71264
550.737
385.20258
184.38582
185.02939
387.13109
553.55201
701.2484
1514.582
1522.0258
704.71835
556.2711
388.97344
185.63597
186.36579
391.1563
559.45711
708.71689
1529.8703
1538.0404
712.63663
562.52887
393.23579
187.05199
187.84539
395.59876
565.97175
716.94801
1546.5841
1555.3961
721.19144
569.31246
397.86783
188.59841
189.4622
400.43423
573.05119
725.86964
1564.4319
1573.7041
730.43276
576.64497
402.87526
190.27478
191.18681
405.57246
580.56472
735.32087
1583.1066
1592.666
740.112
584.34687
408.14603
192.04706
193.00477
410.96814
588.4396
745.20182
1602.321
1612.0677
750.16016
592.36997
413.6518
193.90533
194.90741
416.60118
596.63897
755.45924
1621.9101
1631.7491
760.53737
600.68303
419.37553
195.83908
196.87656
422.43806
605.09732
765.99831
1641.5866
1651.3575
771.17452
609.23695
425.29587
197.82889
198.88214
428.44235
613.73293
776.70168
1661.0704
1670.7003
781.93173
617.94294
431.37728
199.8395
200.89255
434.6058
622.53771
787.56922
1680.2951
1689.9152
792.78962
626.70942
437.4891
201.80702
202.80454
440.4993
631.09937
798.24716
1699.6675
1709.6612
803.44783
635.11096
443.08635
203.7202
204.8392
445.8112
639.40196
809.00581
1720.3113
1731.7974
814.59279
643.51805
448.24082
206.07267
207.8143
451.16122
648.52941
821.33747
1744.6109
1759.3216
829.39174
654.55636
454.81852
210.15965
214.52422
462.22416
664.58572
841.62249
1775.7611
1790.5774
859.80341
679.97294
472.24169
222.1319
232.41533
493.38333
706.85962
889.06618
1807.8033
1824.0368
909.16202
726.9749
511.30746
238.14392
247.75122
533.839
753.74558
933.63397
1838.3143
1843.8384
1001.6632
812.14433
574.73639
259.34343
1772.6792
1111.3729
909.03038
649.57883
292.32482
261.90115
580.40225
820.15791
1016.4957
1840.6618
1865.2418
896.08333
725.55768
516.55231
243.12374
235.385
507.27829
723.44427
907.27536
1838.3537
1830.8884
932.33489
743.75102
521.39479
239.71582
240.18127
516.72931
735.80827
919.25179
1815.6437
1796.1511
872.94907
694.62906
485.09874
229.60515
219.05561
465.20422
667.17629
843.38421
1778.1633
1762.5462
824.45538
650.67573
452.72099
211.25928
207.11942
445.63669
640.98486
812.50087
1745.7937
1731.006
804.4044
634.87638
441.88478
204.76672
203.24315
439.38174
630.39972
798.16438
1718.0761
1706.6327
792.6296
626.28853
436.90033
202.03189
201.10126
434.53879
622.39668
787.41924
1695.9259
1685.8314
782.1554
618.27172
431.82875
200.15545
199.29861
429.13675
614.21977
777.02309
1675.9394
1666.2745
771.5724
609.79082
426.03361
198.29706
197.32545
422.99688
605.41172
766.13135
1656.5139
1646.8433
760.65458
600.93823
419.8285
196.2744
195.30624
416.89004
596.68101
755.35104
1637.0268
1627.2053
750.00378
592.34263
413.84819
194.27813
193.3329
411.01852
588.2043
744.81475
1617.3786
1607.5221
739.59156
583.98968
408.08475
192.33478
191.4153
405.33906
579.95112
734.50304
1597.6462
1587.8061
729.44844
575.88304
402.51597
190.45412
189.5692
399.8681
571.97347
724.50207
1578.1263
1568.4879
719.60034
568.04181
397.14755
188.64586
187.80429
394.62145
564.30528
714.86262
1558.9782
1549.777
710.24401
560.60495
392.06217
186.93764
186.15313
389.69625
557.09626
705.78122
1540.6943
1531.9324
701.4293
553.61859
387.29471
185.34338
184.62101
385.10713
550.3692
697.28797
1523.3523
1515.1257
693.23362
547.13698
382.87784
183.87226
183.22045
380.89683
544.19068
689.47266
1507.2033
1499.7306
685.82676
541.28663
378.89282
182.54872
181.97819
377.15052
538.68837
682.50074
1492.6483
1486.1606
679.33577
536.16656
375.40696
181.39428
180.93333
373.99631
534.06227
676.64312
1480.4087
1476.5754
674.64905
532.42767
372.83298
180.53314
171.43822
346.10876
494.6058
629.49968
1512.6425
1517.4497
631.50394
496.16573
347.16364
171.78398
172.27677
348.64861
498.34382
634.25007
1523.4436
1530.0852
637.0001
500.48181
350.08833
172.74698
173.33468
351.85937
503.08562
640.29152
1537.2278
1544.8048
643.4965
505.58177
353.54143
173.88614
174.54618
355.52402
508.49378
647.17276
1552.7749
1561.0981
650.75507
511.29236
357.41335
175.16853
175.89565
359.59043
514.48647
654.78164
1569.7314
1578.6362
658.71965
517.56165
361.66513
176.58091
177.35829
363.97995
520.94803
662.97279
1587.7635
1597.1201
667.18308
524.24462
366.20885
178.09816
178.9288
368.67424
527.84882
671.70589
1606.7414
1616.4656
676.09558
531.30608
371.02291
179.71345
180.59865
373.64519
535.13646
680.89888
1626.31
1636.2154
685.48363
538.7563
376.10977
181.42389
182.34513
378.83401
542.7204
690.43482
1646.1654
1656.0792
695.19245
546.47791
381.39569
183.20012
184.13552
384.16734
550.48336
700.16118
1665.955
1675.751
705.00018
554.32587
386.80414
185.00722
185.96079
389.67331
558.44335
710.07546
1685.503
1695.1521
715.01674
562.38962
392.39676
186.83887
187.78404
395.32225
566.59447
720.19083
1704.7393
1714.3282
725.0536
570.44237
397.93177
188.60082
189.45061
400.52667
574.29561
729.86714
1724.0286
1733.8702
734.42584
577.75477
402.70883
190.21489
191.117
404.85789
581.27728
739.11367
1744.1306
1755.1867
743.57115
584.35756
406.52296
192.05923
193.35637
408.27298
587.74644
748.53842
1767.4787
1781.3743
754.25002
591.56645
410.20987
195.05256
198.40823
415.05664
598.56346
763.42459
1797.044
1811.8812
777.85822
610.47605
423.70563
204.834
213.85521
439.03439
632.26646
801.74158
1829.5102
1848.1212
841.69536
671.3959
471.81294
225.74726
240.02369
511.18444
719.36627
887.44895
1863.9337
1850.1311
1023.4724
831.25497
590.94671
265.31569
252.9882
543.48167
766.69953
948.07706
1844.2641
1825.7719
882.16453
703.49805
492.53048
232.05796
230.5117
488.93697
701.9505
885.41234
1807.6773
1788.6256
855.46505
675.23813
467.79086
221.05257
213.63878
459.42621
661.18016
838.02072
1773.4934
1756.973
826.70568
652.08637
452.81075
209.47297
207.30331
449.67389
646.60296
819.14832
1742.4767
1729.9813
813.20976
642.32011
447.31266
205.7441
204.6099
445.14593
638.47289
807.87555
1718.8601
1708.5423
802.76297
634.56334
442.68451
203.58181
202.69786
440.17378
630.62199
797.64289
1698.789
1689.2447
792.4971
626.47823
437.30938
201.74632
200.83517
434.42678
622.27416
787.23012
1679.8014
1670.2984
781.88349
617.90438
431.32881
199.82154
198.86159
428.36971
613.61957
776.5434
1660.7942
1651.1931
771.30117
609.33836
425.34471
197.84475
196.88455
422.44754
605.10283
765.98817
1641.5788
1631.8026
760.76689
600.86679
419.482
195.8751
194.92718
416.64436
596.69229
755.50655
1621.9756
1612.0386
750.30324
592.49475
413.72434
193.9319
193.00982
410.96741
588.42898
745.16944
1602.2164
1592.4254
740.13309
584.37823
408.15705
192.05314
191.17441
405.52274
580.48454
735.20413
1582.8354
1573.3724
730.40948
576.6369
402.85747
190.26987
189.44477
400.37285
572.95553
725.73562
1564.1334
1555.0744
721.21296
569.33365
397.86699
188.59757
187.83294
395.55349
565.89841
716.83968
1546.307
1537.7595
712.67835
562.567
393.24725
187.05506
186.35556
391.11801
559.39333
708.61965
1529.6105
1521.7591
704.84655
556.37103
389.02281
185.65012
185.02563
387.11152
553.51258
701.17668
1514.3427
1507.2435
697.78743
550.80096
385.23107
184.3941
183.85187
383.56381
548.30054
694.5682
1500.6403
1494.4773
691.6269
545.94864
381.93034
183.3042
182.88051
380.62888
543.99733
689.11771
1489.3351
1490.9086
689.78643
544.45419
380.89917
182.95425
183.37453
382.12813
546.20306
691.9293
1495.2112
1500.9119
694.68497
548.34304
383.56576
183.84207
184.4206
385.28929
550.8399
697.80207
1507.3642
1514.3432
701.14987
553.44891
387.04544
184.99443
185.6668
389.04857
556.35744
704.78752
1521.7436
1529.5887
708.59654
559.33643
391.05824
186.32671
187.07908
393.29537
562.5852
712.65824
1537.7716
1546.3234
716.88226
565.89163
395.52733
187.81459
188.63212
397.9501
569.4062
721.26649
1555.1401
1564.2035
725.79917
572.96702
400.35941
189.42977
190.30577
402.94785
576.72078
730.47927
1573.4886
1582.8973
735.25326
580.48373
405.50006
191.15491
192.08153
408.22877
584.43571
740.17169
1592.496
1602.1893
745.14261
588.36783
410.90363
192.97536
193.94867
413.76316
592.50138
750.27494
1611.9571
1621.8191
755.41603
596.58057
416.54651
194.88044
195.89046
419.51508
600.85823
760.71093
1631.6867
1641.535
765.95492
605.03611
422.37982
196.84657
197.87803
425.43111
609.40334
771.33366
1651.2939
1660.9691
776.63857
613.65357
428.37064
198.84528
199.88363
431.50527
618.09731
782.07559
1670.5471
1680.1479
787.46421
622.41752
434.50214
200.83868
201.82591
437.56408
626.78355
792.82943
1689.7423
1699.481
798.06112
630.89785
440.32703
202.71306
203.68609
443.05739
635.05522
803.34325
1709.4649
1720.0474
808.65076
639.04254
445.51568
204.67766
205.96918
448.14222
643.36107
814.39863
1731.507
1744.2677
820.80996
648.01611
450.78122
207.55922
209.96735
454.72224
654.32361
829.0818
1758.9439
1775.5183
841.13357
664.17477
462.05069
214.17382
222.12494
474.37624
680.53233
859.88041
1790.581
1807.8033
888.6934
706.63606
493.119
232.18183
238.12118
513.67312
730.67279
914.65083
1824.8996
1838.332
917.92231
739.31019
522.52627
241.55736
2060.0226
2188.1474
2118.1955
1860.6312
885.24094
716.58963
508.55943
239.88206
243.70995
528.35547
753.28108
942.76531
1827.8687
283.28968
631.68486
887.76115
1089.5384
1769.9632
1735.1517
1073.6932
868.64175
612.7698
272.2709
275.01771
618.16196
875.43751
1080.2697
1735.3396
1816.5419
1042.4453
839.90882
592.69898
263.30013
1968.9947
1999.1565
2136.4248
2094.3937
1276.2739
1351.3711
1364.234
1276.2589
1361.7545
1374.2858
1342.6346
1317.7532
180.59942
373.01206
532.65093
674.90331
1477.0796
1481.081
676.76491
534.12221
374.02123
180.93522
181.45942
375.59036
536.40753
679.62919
1486.7271
1493.1854
682.51438
538.66471
377.12037
181.96215
182.59881
379.03153
541.46074
686.03344
1500.1374
1507.5349
689.4183
544.11215
380.82794
183.19048
183.90149
382.95641
547.22546
693.33559
1515.3302
1523.4589
697.08269
550.17397
384.96081
184.56572
185.3546
387.31708
553.62069
701.41678
1531.9187
1540.6739
705.51968
556.85615
389.51931
186.08727
186.94074
392.05949
560.56701
710.17673
1549.6797
1558.9084
714.58395
564.05075
394.43417
187.73407
188.64516
397.13565
567.99005
719.5156
1568.3411
1577.9235
724.19075
571.69074
399.66046
189.49105
190.4469
402.4841
575.79708
729.31449
1587.6202
1597.418
734.19061
579.66377
405.12691
191.33439
192.32782
408.0557
583.9099
739.47059
1607.2736
1617.1366
744.45433
587.88369
410.78606
193.24547
194.27548
413.8327
592.28213
749.90713
1626.9981
1636.7808
754.99756
596.35805
416.65125
195.21511
196.26234
419.78357
600.83507
760.50643
1646.4859
1656.1477
765.68667
605.01636
422.70792
197.21781
198.27998
425.969
609.65904
771.38632
1665.8093
1675.5314
776.59198
613.81748
428.83135
199.18687
200.14521
431.75533
618.13115
781.96418
1685.3616
1695.4434
786.96282
621.98779
434.23991
201.00412
202.05392
436.89473
626.21103
792.48864
1706.0787
1717.5483
797.81066
630.09952
439.18379
203.18023
204.85371
442.11581
635.0594
804.50603
1730.3692
1745.08
812.65705
641.26679
445.99063
207.21537
211.84842
454.14224
652.22149
825.79373
1761.5583
1776.4526
845.49241
669.04728
465.43596
219.83206
229.82734
489.10319
698.76722
877.74836
1794.6288
1811.7971
895.23441
715.74973
502.21194
234.20853
243.24566
526.87705
751.3817
940.85638
1827.1763
905.05291
734.34175
524.97535
246.44821
236.56535
502.07413
704.87387
871.92738
1864.4451
1832.938
963.12616
770.05005
539.59232
246.72412
260.23764
583.32332
829.80104
1034.495
1815.8618
1841.8061
916.36082
730.2047
512.23325
235.44548
243.93698
528.75901
753.93751
943.86832
1832.1632
1816.1312
896.99815
717.19419
503.23724
234.58979
230.16348
490.00501
700.07351
879.37679
1797.9023
1779.0469
846.96587
670.22684
466.22348
220.12482
212.07045
454.72231
653.07176
826.85469
1763.7447
1747.1056
813.88362
642.21109
446.58634
207.43182
205.01025
442.52408
635.68219
805.3017
1732.1683
1719.1741
798.80382
630.84993
439.64331
203.34176
202.17888
437.23616
626.73361
793.15968
1707.6666
1696.9036
787.88048
622.68685
434.67358
201.15262
200.27419
432.11322
618.66519
782.64128
1686.9234
1677.0236
777.47982
614.51213
429.2781
199.34179
198.42654
426.36805
610.24196
772.11445
1667.4416
1657.6738
766.63692
605.76066
423.19031
197.3891
196.40987
420.17559
601.40092
761.20218
1647.9399
1637.9884
755.74358
596.95541
417.0426
195.35935
194.39039
414.12854
592.70778
750.42736
1628.0834
1618.1342
745.17386
588.44804
411.1482
193.37589
192.43492
408.3369
584.31535
739.96632
1608.3036
1598.3897
734.84215
580.17839
405.45795
191.45268
190.54312
402.74017
576.1666
729.76698
1588.5849
1578.7937
724.82975
572.18971
399.97902
189.6022
188.73309
397.37313
568.33081
719.92956
1569.2047
1559.5858
715.09824
564.45849
394.69532
187.82553
187.00212
392.21957
560.7909
710.43864
1550.1863
1541.0727
705.92089
557.17287
389.71741
186.15586
185.39825
387.42994
553.77696
701.59537
1532.2542
1523.7745
697.4498
550.4606
385.13653
184.62468
183.9366
383.04677
547.34765
693.46914
1515.5528
1507.5797
689.6017
544.26374
380.91842
183.22248
182.60428
379.03425
541.4544
686.00504
1500.0199
1492.8568
682.55387
538.70323
377.13331
181.96734
181.43097
375.49064
536.24678
679.39954
1486.1448
1479.9674
676.47011
533.90636
373.8673
180.88652
180.44589
372.50869
531.86405
673.83374
1474.3619
1469.8074
671.68251
530.12532
371.28664
180.03001
1490.3778
689.36473
544.13762
380.6984
182.8927
183.35542
382.07478
546.13101
691.84691
1495.118
1500.9815
694.49919
548.2057
383.48101
183.81616
184.419
385.29101
550.85025
697.82522
1507.509
1514.5439
701.05877
553.38082
387.00464
184.98182
185.66996
389.06722
556.39478
704.84794
1521.9957
1529.8357
708.51004
559.2686
391.0164
186.31291
187.07698
393.30136
562.60632
712.7017
1538.0224
1546.5086
716.73634
565.77897
395.45467
187.78973
188.61493
397.91259
569.3643
721.23139
1555.2409
1564.1835
725.57123
572.78776
400.24096
189.38937
190.27577
402.87096
576.61769
730.36184
1573.386
1582.8594
734.99727
580.28136
405.36671
191.10918
192.05175
408.15653
584.3414
740.06877
1592.462
1602.1622
744.87735
588.15847
410.76574
192.92707
193.91688
413.68886
592.40515
750.17115
1611.9397
1621.7466
755.14077
596.35978
416.39891
194.82739
195.84872
419.41314
600.7221
760.55769
1631.583
1641.342
765.61639
604.7644
422.19728
196.78186
197.82551
425.29435
609.21622
771.11515
1651.0625
1660.6841
776.23921
613.33365
428.15451
198.77134
199.824
431.33529
617.86349
781.79909
1670.2371
1679.7274
786.98688
622.03861
434.24653
200.76002
201.76777
437.35607
626.48623
792.46402
1689.1867
1698.7889
797.43044
630.4134
440.01719
202.63161
203.61247
442.76181
634.60456
802.76396
1708.5879
1718.8918
807.64047
638.25198
444.98598
204.53826
205.76936
447.39424
642.36119
813.20639
1730.0361
1742.4802
818.87084
646.34223
449.48329
207.21216
209.46897
452.82829
652.04079
826.60263
1756.9009
1773.1354
837.52167
660.73266
459.09873
213.49694
220.98352
467.6209
674.91442
855.00889
1787.8515
1806.1477
884.54482
701.19
488.37718
230.28732
231.87666
492.00549
702.64644
881.00725
1823.1888
1840.3791
947.1909
765.94194
542.85167
252.72946
264.66718
589.10084
828.90306
1020.6715
1845.6319
1860.612
886.43863
718.50193
510.49897
239.75723
239.35222
520.38242
742.29737
930.51794
1827.1525
1822.0268
911.55041
726.15042
508.34052
234.32686
229.38175
487.78586
687.08522
850.2912
1858.4138
1840.9734
918.47491
739.58651
522.61992
241.57206
248.06966
534.71356
755.04398
935.33558
1842.7388
1864.8119
887.13996
718.0702
509.58437
240.25322
244.3167
530.11161
755.79517
945.87013
1833.8329
1817.5167
889.29682
710.20103
497.54871
232.44363
228.99677
487.46871
697.56832
877.49522
1799.3395
1780.3638
846.93175
669.8498
465.70317
219.81356
211.97176
454.70294
653.23292
827.23132
1764.8848
1748.0229
814.28015
642.50416
446.76164
207.4374
205.07357
442.80848
636.0901
805.81228
1732.9776
1719.829
799.23426
631.21304
439.9075
203.41388
202.24972
437.47426
627.06467
793.5602
1708.2713
1697.4121
788.14931
622.91744
434.84445
201.20715
200.3182
432.24735
618.85377
782.87218
1687.2861
1677.2878
777.58784
614.60897
429.35194
199.36805
198.44452
426.41933
610.316
772.20695
1667.5864
1657.762
766.67461
605.79445
423.21579
197.39893
196.4169
420.19521
601.43074
761.24113
1648.0069
1638.1194
755.827
597.01713
417.08244
195.37212
194.40549
414.17472
592.77765
750.51851
1628.2889
1618.362
745.23695
588.49873
411.18373
193.38806
192.44777
408.37635
584.37549
740.04581
1608.4962
1598.4911
734.78964
580.14737
405.44315
191.44959
190.53714
402.72173
576.14076
729.7366
1588.5311
1578.6937
724.64444
572.05762
399.89719
189.57738
188.70736
397.29589
568.21965
719.79281
1568.9341
1559.3753
714.94114
564.33802
394.61506
187.79915
186.98193
392.16137
560.70945
710.34134
1550.0121
1540.8643
705.8425
557.10956
389.67364
186.14075
185.38827
387.40211
553.73889
701.55112
1532.1836
1523.6102
697.3095
550.35742
385.07114
184.60432
183.91646
382.98625
547.26037
693.36133
1515.3324
1507.4553
689.5017
544.1861
380.86611
183.20499
182.59039
378.99384
541.39693
685.93511
1499.8809
1492.9042
682.53906
538.68939
377.12237
181.9627
181.43076
375.4918
536.25012
679.40613
1486.1722
1479.9595
676.39226
533.85244
373.8354
180.87718
180.43799
372.48481
531.83092
673.79557
1474.3065
1469.7342
671.56147
530.0364
371.22947
180.01372
1477.0803
674.87307
532.59959
372.96261
180.57714
180.9837
374.15074
534.29218
676.94376
1481.0455
1486.6746
679.57882
536.34174
375.53228
181.43504
182.01138
377.25246
538.84068
682.70285
1493.0905
1500.064
685.96639
541.38504
378.96785
182.57324
183.24022
380.95913
544.2852
689.60209
1507.499
1515.2918
693.29277
547.17215
382.9094
183.88214
184.62436
385.11876
550.38789
697.3195
1523.4178
1531.9353
701.40143
553.59011
387.2865
185.34126
186.15578
389.70528
557.10997
705.8043
1540.7208
1549.7592
710.22908
560.58454
392.05835
186.93649
187.80386
394.62343
564.31001
714.87629
1558.9988
1568.4122
719.55513
567.9931
397.12218
188.63634
189.55229
399.8211
571.90613
724.42445
1577.9426
1587.5989
729.30811
575.7595
402.44094
190.42827
191.38594
405.25592
579.83332
734.36578
1597.3705
1607.159
739.35734
583.79592
407.96483
192.2952
193.29923
410.91981
588.0625
744.64543
1617.0165
1626.8589
749.7621
592.14593
413.72768
194.23929
195.27676
416.8012
596.5531
755.19762
1636.6641
1646.4403
760.4616
600.7749
419.72798
196.24224
197.29815
422.91444
605.29513
765.99271
1656.165
1665.8861
771.43048
609.65635
425.94556
198.26846
199.27329
429.0502
614.10472
776.89444
1675.6331
1685.4998
782.05605
618.17546
431.77147
200.14818
201.134
434.58679
622.45055
787.47878
1695.6669
1706.3808
792.75906
626.41467
437.03412
202.0942
203.3393
439.65197
630.72495
798.51724
1717.9619
1730.909
804.84706
635.32059
442.29559
204.88457
207.31169
446.40256
641.87703
813.4059
1745.641
1762.2284
825.90994
652.15386
453.95471
211.68767
219.57846
465.05393
668.82336
845.5736
1777.179
1795.5561
875.62437
695.97635
486.31294
228.56328
231.98808
496.22981
708.28832
886.91692
1813.1325
1846.2902
826.58606
658.59547
462.31262
222.18846
212.90811
438.14714
630.31914
799.24871
1829.5165
1812.3144
779.4683
611.51381
423.07427
205.06831
199.14833
416.95212
601.10612
766.19641
1798.1321
1782.6088
757.15866
594.23949
412.27217
195.7909
193.91248
409.77073
589.65398
750.59596
1768.5125
1756.0258
745.12916
585.75868
407.57472
192.45343
191.36233
405.49075
582.11153
740.04874
1744.6713
1734.0751
735.16638
578.39243
403.15287
190.38356
189.53362
400.72972
574.5769
730.187
1724.0774
1714.2385
725.29889
570.66138
398.06903
188.65189
187.80124
395.35888
566.64136
720.2268
1704.5118
1694.8929
715.13221
562.49933
392.4588
186.86041
185.96004
389.65868
558.41147
710.00942
1685.0876
1675.2587
704.97788
554.33073
386.79887
185.00682
184.11507
384.09644
550.36895
699.99201
1665.3506
1655.424
695.09852
546.42348
381.34967
183.18484
182.31715
378.74458
542.58058
690.23676
1645.5442
1635.6731
685.49813
538.77496
376.10726
181.4203
180.58661
373.60557
535.06893
680.79083
1625.8807
1616.2487
676.24088
531.42508
371.08744
179.73135
178.9382
368.69888
527.87533
671.71686
1606.6084
1597.1661
667.35641
524.39263
366.29759
178.12571
177.3767
364.03151
521.01599
663.03986
1587.8075
1578.6702
658.87886
517.70211
361.75147
176.60882
175.90931
359.62547
514.52865
654.81416
1569.6853
1561.0299
650.97794
511.47218
357.52081
175.20194
174.56737
355.58259
508.57066
647.24866
1552.821
1544.7886
643.68418
505.74136
353.63915
173.91762
173.35164
351.90382
503.14114
640.34002
1537.2043
1530.0647
637.19881
500.64782
350.18881
172.77902
172.30146
348.71854
498.44006
634.35451
1523.5737
1517.9082
631.8607
496.44888
347.3388
171.83889
171.51856
346.35932
494.98263
629.98234
1513.8217
1513.8039
629.87509
494.85873
346.25747
171.47806
171.86052
347.38536
496.47894
631.87126
1517.9418
1523.6734
634.34181
498.3893
348.66595
172.27613
172.80464
350.25243
500.70858
637.25607
1530.2301
1537.3059
640.28016
503.05642
351.8294
173.31889
173.93365
353.67569
505.76195
643.68889
1544.8241
1552.7229
647.14043
508.44138
355.4743
174.52185
175.19702
357.49279
511.39308
650.84877
1560.9062
1569.4571
654.6421
514.34567
359.47916
175.85007
176.5883
361.6797
517.56306
658.68186
1578.31
1587.4032
662.73642
520.73834
363.82602
177.29902
178.10393
366.22014
524.23889
667.13215
1596.7475
1606.2921
671.47081
527.64317
368.52454
178.86987
179.72407
371.05603
531.33706
676.09772
1616.006
1625.8077
680.65812
534.92136
373.48533
180.53362
181.42247
376.11012
538.73904
685.4249
1635.6869
1645.6194
690.12185
542.44795
378.63526
182.26612
183.1943
381.38066
546.42878
695.07758
1655.5567
1665.4459
699.91749
550.25619
383.99396
184.06229
185.00235
386.79273
554.28164
704.88958
1675.2138
1684.9103
709.81137
558.1976
389.48593
185.88227
186.83091
392.37495
562.32925
714.88385
1694.5203
1704.0971
719.88377
566.31021
395.10602
187.69452
188.58468
397.89003
570.3494
724.87658
1713.6494
1723.279
729.5169
573.98373
400.29963
189.35217
190.21818
402.76658
577.78223
734.38267
1733.1873
1743.5317
739.0158
581.19253
404.81543
191.05127
192.12363
406.88289
584.73328
743.86787
1754.6001
1766.8058
748.98803
588.24282
408.74219
193.41294
195.35937
411.43937
592.896
755.46271
1780.6743
1796.0396
764.85012
600.166
416.49509
198.8401
205.63552
425.60417
613.2431
780.37855
1810.2675
1827.401
806.89999
637.89248
443.81182
215.43395
229.24172
480.3267
682.76139
855.03791
1845.0827
1859.8085
884.94172
716.1791
508.30186
239.37949
258.37669
572.37646
809.31948
999.18033
1846.1337