/*--------------------------------*- C++ -*----------------------------------*\
  =========                 |
  \\      /  F ield         | OpenFOAM: The Open Source CFD Toolbox
   \\    /   O peration     | Website:  https://openfoam.org
    \\  /    A nd           | Version:  7
     \\/     M anipulation  |
\*---------------------------------------------------------------------------*/
FoamFile
{
    version     2.0;
    format      ascii;
    class       surfaceScalarField;
    location    "110";
    object      phi;
}
// * * * * * * * * * * * * * * * * * * * * * * * * * * * * * * * * * * * * * //

dimensions      [1 0 -1 0 0 0 0];

internalField   nonuniform List<scalar> 
74673
(
6.5600483e-08
-0.0023522528
-2.0382545e-07
2.0836534e-09
-0.0027859964
-2.3529962e-07
-9.8610778e-08
-0.003152124
-2.5969186e-07
-2.0646554e-07
-0.0035294291
-2.8276926e-07
-0.056797835
-4.4394235e-06
-3.3395763e-07
-7.6081466e-08
-0.056796166
-3.9971902e-06
2.3279371e-06
7.6518471e-08
-1.2377746e-07
-0.0035294001
-2.5054539e-07
2.6897199e-07
-1.5267145e-07
-0.0031521145
-2.3017696e-07
2.493129e-07
-1.3638572e-07
-0.0027860325
-2.083859e-07
2.2758473e-07
-0.0023524083
-1.7898561e-07
1.9813083e-07
1.812312e-07
-0.0023526081
-1.2075292e-07
1.385559e-07
2.1862704e-07
-0.0027860908
-1.4116859e-07
1.6167327e-07
2.0678251e-07
-0.003152125
-1.5670337e-07
1.7882488e-07
1.7327126e-07
-0.0035293892
-1.7192158e-07
1.9447863e-07
-0.056794852
-2.9169125e-06
1.7792942e-06
-3.3436929e-09
-2.9160638e-07
-0.05679381
-1.8050876e-06
1.1459577e-06
-9.2069686e-08
-2.9822504e-07
-0.0035294047
-1.0409875e-07
1.2593022e-07
-2.8678203e-07
-0.0031521578
-9.4995538e-08
1.1600987e-07
-2.2054051e-07
-0.0027861768
-8.5735536e-08
1.049075e-07
-0.002352845
-7.3339893e-08
8.9747115e-08
2.5553585e-07
-0.0023531164
-3.236315e-08
4.7415506e-08
3.4879036e-07
-0.0027862885
-3.7850565e-08
5.58898e-08
3.8586365e-07
-0.0031522156
-4.1800518e-08
6.2237321e-08
4.0239715e-07
-0.0035294431
-4.6145335e-08
6.7937189e-08
-0.056793043
-8.8820482e-07
6.3594964e-07
-1.123167e-07
-5.1627361e-07
-0.05679256
-2.7340658e-07
3.0946207e-07
-3.9586719e-09
-4.7596965e-07
-0.0035295073
-9.2259248e-09
3.2871272e-08
-4.1238021e-07
-0.0031523013
-8.2266727e-09
3.0058141e-08
-2.9002987e-07
-0.0027864308
-7.6625322e-09
2.6928568e-08
-0.0023534224
-6.6116544e-09
2.252603e-08
3.2316593e-07
-0.0023537636
7.5233098e-09
9.6809067e-09
4.7676891e-07
-0.0027866057
9.1158194e-09
1.1722032e-08
5.6789656e-07
-0.0031524165
1.0657278e-08
1.3164802e-08
6.3977596e-07
-0.003529605
1.1514564e-08
1.4229755e-08
-0.056792346
8.6331763e-08
1.2629842e-07
2.132858e-07
-7.7360925e-07
-0.056792443
2.9156884e-07
5.1218932e-08
5.2723491e-07
-6.6883114e-07
-0.0035297391
2.1830324e-08
7.2280861e-09
-5.4635859e-07
-0.0031525659
1.978639e-08
6.829546e-09
-3.627469e-07
-0.0027868132
1.7018229e-08
6.1506972e-09
-0.0023541452
1.3858466e-08
5.0185971e-09
3.9980873e-07
-0.0023545809
1.8205539e-08
1.68214e-08
6.1623612e-07
-0.0027870712
2.2548575e-08
1.8715937e-08
7.7632082e-07
-0.0031527722
2.637388e-08
1.9542703e-08
9.1374733e-07
-0.0035299258
2.9253489e-08
1.9928122e-08
-0.05679304
4.5142647e-07
9.6385014e-08
9.6254914e-07
-1.0685023e-06
-0.056794001
6.0661279e-07
-7.2193192e-09
1.4293335e-06
-8.8973952e-07
-0.0035301431
3.5183114e-08
3.1488645e-09
-6.9544659e-07
-0.0031530014
3.1200435e-08
3.4706429e-09
-4.4028937e-07
-0.0027873568
2.6492402e-08
3.349816e-09
-0.0023550451
2.1114788e-08
2.8025945e-09
4.7936825e-07
-0.0023555525
2.2827606e-08
4.545617e-09
7.7648612e-07
-0.0027876887
2.9278896e-08
5.1845739e-09
1.0124364e-06
-0.0031532778
3.5056705e-08
5.2369909e-09
1.231286e-06
-0.0035304067
3.9949499e-08
4.7038599e-09
-0.05679541
7.519878e-07
-1.362967e-08
1.9017906e-06
-1.4045165e-06
-0.056797236
8.8421521e-07
-9.5221289e-09
2.3554021e-06
-1.1380115e-06
-0.0035307232
4.3133106e-08
6.6938293e-09
-8.5873419e-07
-0.0031536018
3.7296314e-08
7.2206042e-09
-5.2231269e-07
-0.0027880638
3.0940814e-08
7.1919317e-09
-0.0023561051
2.3963548e-08
6.3565582e-09
5.6206057e-07
-0.0023567015
2.5488031e-08
8.3391949e-09
9.4067612e-07
-0.0027884847
3.2902177e-08
9.1490695e-09
1.2663562e-06
-0.003153977
4.0102542e-08
9.2429434e-09
1.5749481e-06
-0.0035310875
4.6888177e-08
8.6998188e-09
-0.056799487
1.0105648e-06
-5.5231553e-09
2.8210411e-06
-1.7424799e-06
-0.056802233
1.15497e-06
-9.1852535e-09
3.3425564e-06
-1.3853413e-06
-0.0035315061
5.0902866e-08
1.0537252e-08
-1.0185398e-06
-0.0031543986
4.3322243e-08
1.135591e-08
-5.9823117e-07
-0.002788952
3.5511482e-08
1.1260913e-08
-0.0023573373
2.7444435e-08
1.0177686e-08
6.3010834e-07
-0.00235801
3.0089771e-08
1.2244405e-08
1.087825e-06
-0.0027894622
3.8916569e-08
1.3400748e-08
1.4975059e-06
-0.0031548695
4.76997e-08
1.3407033e-08
1.8961103e-06
-0.0035319733
5.6291072e-08
1.2272392e-08
-0.056805464
1.3172796e-06
-2.1649701e-08
3.8316446e-06
-2.0279448e-06
-0.056809062
1.4869539e-06
-5.0351792e-08
4.1895198e-06
-1.5880833e-06
-0.0035324885
6.140896e-08
1.3914209e-08
-1.1440564e-06
-0.0031553806
5.1558346e-08
1.5566971e-08
-6.5223861e-07
-0.0027900117
4.1940065e-08
1.57418e-08
-0.0023587088
3.226637e-08
1.4304279e-08
6.6535562e-07
-0.002359424
3.6164128e-08
1.3823295e-08
1.176587e-06
-0.0027905856
4.7011956e-08
1.5652884e-08
1.6513656e-06
-0.0031559284
5.7720057e-08
1.5243926e-08
2.1182591e-06
-0.0035330369
6.8681173e-08
1.284803e-08
-0.056812997
1.6931469e-06
-1.1180597e-07
4.4714222e-06
-2.1518512e-06
-0.05681727
1.938141e-06
-2.7445554e-07
4.7604898e-06
-1.6652166e-06
-0.003533595
7.667556e-08
-6.0699949e-09
-1.1795288e-06
-0.0031564769
6.4297786e-08
-2.3076927e-09
-6.6031888e-07
-0.0027911578
5.2197929e-08
-1.2133055e-09
-0.0023601217
4.0068218e-08
-2.7081226e-09
6.2539882e-07
-0.0023608004
4.2798239e-08
8.3693907e-09
1.1308716e-06
-0.0027917315
5.5441523e-08
1.1912367e-08
1.6150219e-06
-0.0031570414
6.8274783e-08
1.1458774e-08
2.1069071e-06
-0.0035341759
8.1860605e-08
7.1352015e-09
-0.056822123
2.1663706e-06
-2.6109506e-07
5.0546631e-06
-1.9142608e-06
-0.056827568
2.3837368e-06
-3.3730605e-07
5.3128051e-06
-1.4507077e-06
-0.0035347239
8.316388e-08
7.4514196e-10
-9.9749805e-07
-0.0031575697
6.8747141e-08
5.7367279e-09
-5.4440347e-07
-0.0027922483
5.5961014e-08
6.2243403e-09
-0.0023613915
4.4352977e-08
2.2967827e-09
4.0300842e-07
-0.0023618318
4.4414288e-08
-9.191263e-09
7.4771006e-07
-0.0027926441
5.4437562e-08
-4.1908593e-09
1.1167948e-06
-0.0031580006
6.626403e-08
-4.9911745e-09
1.5190374e-06
-0.0035351963
8.0951593e-08
-1.0759197e-08
-0.056834024
2.5986704e-06
-4.3148745e-07
5.8079688e-06
-8.4984605e-07
-0.056842334
2.7889008e-06
-5.391681e-07
6.9099256e-06
-5.7085768e-07
-0.0035355188
7.2294426e-08
-2.9474916e-08
-3.5720373e-07
-0.0031582503
5.8360844e-08
-2.3084009e-08
-1.9627575e-07
-0.0027928318
4.8409049e-08
-2.3503131e-08
-0.002362038
4.156064e-08
-3.1661821e-08
-4.8029028e-08
-0.0023619559
3.2693831e-08
-6.9022434e-08
-1.417432e-07
-0.0027927181
3.6486873e-08
-5.7491069e-08
-1.4784561e-07
-0.0031582331
4.3495371e-08
-5.5202397e-08
-4.145768e-08
-0.0035356201
5.580356e-08
-6.0836108e-08
-0.05685401
3.0693575e-06
-6.5660427e-07
9.2224941e-06
8.1423724e-07
-0.056871612
3.8057038e-06
-8.2669843e-07
1.3808022e-05
7.6512265e-07
-0.0035355017
4.3983128e-08
-1.1392325e-07
5.4008744e-07
-0.0031579309
3.1594871e-08
-1.0945292e-07
2.1617521e-07
-0.0027923109
2.9796258e-08
-1.146569e-07
-0.0023616457
3.6962406e-08
-1.3106037e-07
-6.9423925e-08
-0.0023614374
9.8806115e-08
-2.392181e-07
-3.8273098e-07
-0.0027918517
6.725436e-08
-2.136786e-07
-5.9975959e-07
-0.0031575693
5.8918463e-08
-2.0371825e-07
-5.5662781e-07
-0.0035354118
7.2550513e-08
-2.0551388e-07
-0.056899119
5.5089469e-06
-1.0940442e-06
2.2536418e-05
-2.3363118e-06
-0.056942471
9.1278082e-06
-1.5487336e-06
3.8109609e-05
-1.565954e-06
-0.0035360218
1.9743991e-07
-3.5795771e-07
-1.1321246e-06
-0.0031578182
1.7548362e-07
-3.6061595e-07
-7.6514676e-07
-0.0027920358
1.9468342e-07
-3.7808946e-07
-0.0023620524
2.6213904e-07
-4.1229796e-07
2.6967362e-06
-0.0023646683
6.0920019e-07
-6.9102249e-07
4.8777925e-06
-0.0027940938
5.2527489e-07
-6.4879762e-07
7.0877312e-06
-0.0031599052
5.0251296e-07
-6.2569972e-07
9.7010456e-06
-0.0035385644
5.4609972e-07
-6.1671532e-07
-0.057009905
1.5688033e-05
-2.4046866e-06
6.3851476e-05
-2.2968862e-05
-0.057111997
2.5703596e-05
-3.8397753e-06
0.00010319766
-1.6982065e-05
-0.003544835
1.2982965e-06
-1.0147033e-06
-1.1447228e-05
-0.0031656328
1.2213173e-06
-1.0289714e-06
-5.9370019e-06
-0.0027997816
1.2242811e-06
-1.0476047e-06
-0.0023708361
1.3003211e-06
-1.0695969e-06
1.0741098e-05
-0.0023823481
2.2160021e-06
-1.4450799e-06
2.0966659e-05
-0.0028107951
2.2987528e-06
-1.5111918e-06
3.123938e-05
-0.0031767507
2.3638803e-06
-1.5187496e-06
4.1982134e-05
-0.0035565523
2.475639e-06
-1.5010105e-06
-0.057261208
3.761498e-05
-5.5013654e-06
0.00015907985
-6.7120542e-05
-0.05747986
5.1855074e-05
-6.8878218e-06
0.00024080585
-5.0048709e-05
-0.0035755711
3.8648822e-06
-1.9192122e-06
-3.3580616e-05
-0.0031949799
3.6943564e-06
-1.9349132e-06
-1.7192053e-05
-0.0028287926
3.4915743e-06
-1.8865315e-06
-0.0024009447
3.1262146e-06
-1.7216343e-06
2.7597974e-05
-0.0024300371
3.4083461e-06
-1.9239954e-06
5.8240596e-05
-0.0028612684
3.9495353e-06
-2.121123e-06
8.9584019e-05
-0.0032284455
4.3491152e-06
-2.2297004e-06
0.00012176809
-0.0036102117
4.7121317e-06
-2.255589e-06
-0.057795475
7.543669e-05
-1.0240492e-05
0.00037218777
-0.00021716525
-0.05811133
9.6715622e-05
-1.1680591e-05
0.00044798578
-0.00015863709
-0.0036705652
3.4436654e-06
-1.6178421e-06
-9.9564192e-05
-0.0032887372
2.7666972e-06
-1.5475959e-06
-4.3810618e-05
-0.0029175974
2.0181069e-06
-1.4420603e-06
-0.0024737604
1.1959906e-06
-1.283389e-06
9.1372639e-05
-0.00255445
-1.3540744e-05
2.8124425e-06
0.00016892924
-0.0029896884
-7.286807e-06
1.8026343e-06
0.00024238055
-0.0033597191
-4.1905455e-06
1.7103409e-06
0.00031838443
-0.0037448971
-3.6816178e-06
2.0097083e-06
-0.058223119
6.6744265e-05
5.2705194e-06
0.00035816162
0.000120782
-0.059615961
3.4834068e-05
-2.4490424e-05
0.0012617221
8.6404578e-05
-0.0037155908
8.6063637e-06
-3.5287316e-06
5.6949127e-05
-0.0033345082
7.4134317e-06
-3.1614535e-06
2.9448879e-05
-0.0029674768
9.0155089e-06
-3.709322e-06
-0.0025359708
1.7674334e-05
-6.7045311e-06
-2.7667773e-05
-0.0024129614
-0.00010822252
1.292404e-05
-5.819756e-05
-0.0028248627
-0.00011961853
7.5517279e-06
-9.5021373e-05
-0.003176476
-0.00012723338
6.038289e-06
-0.00013873918
-0.0035425359
-0.00013548309
6.1477442e-06
-0.059674032
-0.0018840657
3.284911e-05
0.001770554
0.00054126687
-0.056398423
-0.003104078
7.4375621e-05
-0.00078716739
0.00037573764
-0.0031878323
-0.00020621127
1.7038405e-05
0.00023290784
-0.0028566529
-0.00019350121
1.6509581e-05
0.00010788475
-0.0025390714
-0.00017785763
1.7093224e-05
-0.0021731569
-0.00015148717
1.9567434e-05
-2.5748388e-05
0.0020360097
-0.0021325846
-0.0020508323
-5.8800892e-05
0.0024067771
-0.0025078541
-0.0024049416
-9.3193884e-05
0.0027443149
-0.0028419592
-0.0027246167
-0.00012776652
0.0031082043
-0.003195237
-0.0030662267
0.07154744
-0.027701194
-0.034720163
-0.065652274
0.00031331222
0.087001681
-0.014430515
-0.0044411147
0.00020908206
0.0038264672
-0.00082024205
0.00011404939
0.0033749082
-0.00072905975
3.6710936e-05
0.0029538178
-0.00064755519
0.0024843187
-0.00056308513
-0.00010642267
0.0024948154
-1.2240425e-05
-0.00020988994
0.0029663507
-2.8662629e-05
-0.00031589412
0.0033933419
-3.9645441e-05
-0.00043124421
0.0038556669
-4.9331536e-05
0.085384431
-0.0015828358
0.00088478199
-0.00023174876
0.084972177
-0.00054985184
0.001228692
-0.00018461857
0.0038634525
-4.63072e-05
-0.00013946338
0.0033987161
-4.3113466e-05
-8.5365201e-05
0.0029659521
-4.4678181e-05
0.0024806064
-5.3481865e-05
6.3939638e-05
0.0024139941
-1.0870483e-05
0.00014041321
0.0028976995
-1.550701e-05
0.00022393618
0.0033277573
-1.6753786e-05
0.00031222771
0.0037879724
-1.6492247e-05
0.084750876
-0.00011793517
0.00071821149
-0.00021629129
0.084312254
-2.5061256e-05
0.00077669255
-0.00015387863
0.0037292338
-2.2940932e-07
-9.4690917e-05
0.0032713122
2.4954076e-08
-4.1215703e-05
0.0028460046
2.3987098e-07
0.0023734061
5.6828124e-07
2.7952454e-05
0.0023476125
1.2487786e-06
5.9418959e-05
0.0028168263
1.6617966e-06
9.3041541e-05
0.003240261
1.7782696e-06
0.00012906826
0.0036961936
1.7259336e-06
0.083909085
3.7273127e-06
0.00060394811
-7.5962839e-05
0.083619719
1.5455751e-05
0.00040172839
-5.5516173e-05
0.0036773793
2.2328124e-06
-3.6434889e-05
0.003222665
2.2092172e-06
-1.8141535e-05
0.0027998535
2.1714302e-06
0.0023305564
2.0408047e-06
1.1068249e-05
0.0023200952
1.6094389e-06
2.2134055e-05
0.0027895217
1.5651752e-06
3.3644518e-05
0.0032119683
1.5505903e-06
4.6098952e-05
0.0036658155
1.5851852e-06
0.0834161
1.3112909e-05
0.00027422151
-2.3505992e-05
0.083274092
8.8633455e-06
0.00018235522
-1.707208e-05
0.0036598474
8.3283838e-07
-1.1367249e-05
0.0032066774
8.0758935e-07
-5.8437958e-06
0.0027843844
8.3870031e-07
0.0023146272
9.2453768e-07
2.4279519e-06
0.0023124396
3.6905382e-07
4.3109926e-06
0.0027827312
2.9568167e-07
6.2353518e-06
0.0032049817
2.7415797e-07
8.6704085e-06
0.0036576615
2.9706995e-07
0.083177844
5.4045595e-06
0.00011520195
-1.0176042e-06
0.083114767
3.4633853e-06
6.9759274e-05
-6.2476042e-07
0.0036574222
4.4084118e-08
-5.7554809e-07
0.0032050876
2.0533853e-08
-5.3299873e-07
0.0027828616
2.211932e-08
0.0023121022
6.6493077e-08
-2.0138607e-07
0.0023125007
-9.8228886e-08
-7.5788739e-07
0.0027835726
-8.7159436e-08
-1.2931921e-06
0.003205745
-6.3074064e-08
-1.6040018e-06
0.0036578411
-3.5384704e-08
0.083074137
2.6640112e-06
4.187132e-05
1.5770726e-06
0.083047877
2.2980227e-06
2.6191035e-05
1.2715543e-06
0.0036582029
-1.2196291e-08
8.1551182e-07
0.0032062701
-3.7329605e-08
3.1115119e-07
0.0027841732
-6.6183864e-08
0.0023129532
-1.0440768e-07
-9.1709732e-08
0.0023131306
-5.2958962e-08
-2.8249578e-07
0.0027844178
-1.7199556e-08
-4.1313329e-07
0.0032064359
8.3881234e-09
-4.3972276e-07
0.0036582571
2.8230859e-08
0.083030333
2.0259863e-06
1.8147457e-05
-7.15166e-07
0.083017953
1.8708483e-06
1.4013713e-05
-4.7223108e-07
0.003658019
6.7461912e-08
-3.0388105e-07
0.0032062742
5.1729267e-08
-1.8373364e-07
0.0027843147
3.1341317e-08
0.0023129862
2.1337904e-09
4.0710811e-07
0.002312579
4.4577524e-08
7.4410168e-07
0.002783966
6.6191888e-08
1.1160821e-06
0.0032058873
8.1257929e-08
1.5424602e-06
0.0036575795
9.4168494e-08
0.083008514
1.7725769e-06
1.1807403e-05
-2.0375272e-06
0.083000734
1.6649897e-06
1.0536382e-05
-1.5071489e-06
0.0036570265
1.0576768e-07
-1.0200292e-06
0.0032053739
9.507174e-08
-5.5027485e-07
0.0027834678
8.4567972e-08
0.0023120013
7.1721853e-08
6.4212934e-07
0.0023113225
7.9273541e-08
1.177918e-06
0.0027828996
8.7799808e-08
1.7212396e-06
0.0032048032
9.5572964e-08
2.2965523e-06
0.003656428
1.0508064e-07
0.082993895
1.5310109e-06
9.7714996e-06
-2.3949319e-06
0.082987767
1.3111661e-06
9.1491996e-06
-1.8087035e-06
0.0036558247
9.3602439e-08
-1.2527893e-06
0.0032042256
8.5858078e-08
-6.8458724e-07
0.0027823032
8.0220921e-08
0.0023106033
7.4718631e-08
6.9744472e-07
0.0023098758
6.6461242e-08
1.2584605e-06
0.0027817204
6.8829492e-08
1.8077825e-06
0.0032036617
7.2374359e-08
2.3794675e-06
0.0036552433
7.8476986e-08
0.082982207
1.0825057e-06
8.550295e-06
-2.2849969e-06
0.08297714
9.1594463e-07
7.9225717e-06
-1.7464227e-06
0.0036546983
6.7837181e-08
-1.227477e-06
0.0032031316
6.2744023e-08
-6.8761547e-07
0.0027811625
6.0059301e-08
0.0023091616
5.8863456e-08
6.6289027e-07
0.0023084749
5.3949154e-08
1.1722627e-06
0.0027806372
5.4821741e-08
1.6500125e-06
0.0032026444
5.7133673e-08
2.1442056e-06
0.0036541988
6.1528986e-08
0.082972607
8.160762e-07
7.1791922e-06
-1.9784144e-06
0.082968745
7.1233995e-07
6.2822043e-06
-1.5342377e-06
0.0036537502
5.5375029e-08
-1.1022033e-06
0.0032022042
5.1568317e-08
-6.3655956e-07
0.0027801576
4.9516721e-08
0.0023078172
4.8593082e-08
5.9655089e-07
0.0023072014
4.4638581e-08
1.0226594e-06
0.0027797185
4.5899358e-08
1.4085858e-06
0.0032018105
4.7827024e-08
1.7977741e-06
0.0036533568
5.1074054e-08
0.082965579
6.2831246e-07
5.3461081e-06
-1.6101726e-06
0.082963029
5.5451715e-07
4.490148e-06
-1.2718879e-06
0.0036530134
4.8203643e-08
-9.3819676e-07
0.0032014685
4.5462202e-08
-5.5920977e-07
0.0027793269
4.3458917e-08
0.0023066244
4.1774106e-08
5.1680002e-07
0.0023060913
3.8955317e-08
8.5276089e-07
0.00277898
4.0198281e-08
1.1389071e-06
0.0032011758
4.1611079e-08
1.4222731e-06
0.0036527262
4.3717943e-08
0.082961077
4.6974318e-07
3.6557359e-06
-1.2380395e-06
0.082959767
3.5856676e-07
2.7958194e-06
-1.0038722e-06
0.0036524907
3.6469718e-08
-7.6389994e-07
0.0032009318
3.5108538e-08
-4.7181775e-07
0.00277868
3.4239529e-08
0.0023056072
3.3448262e-08
4.3428111e-07
0.0023051627
2.8202376e-08
6.8503953e-07
0.0027784238
2.7961563e-08
8.8361152e-07
0.0032007314
2.8104845e-08
1.0692798e-06
0.0036523053
2.8932057e-08
0.082959113
2.5677859e-07
1.9177304e-06
-9.1061991e-07
0.082959024
1.7031465e-07
1.120497e-06
-7.6349485e-07
0.0036521582
2.1736305e-08
-6.0651844e-07
0.0032005727
2.1447668e-08
-3.9067595e-07
0.0027782031
2.1689416e-08
0.0023047635
2.2360779e-08
3.5506682e-07
0.0023044
1.5728232e-08
5.3441546e-07
0.0027780189
1.3969684e-08
6.5580969e-07
0.0032004489
1.3001749e-08
7.6405671e-07
0.0036520488
1.2624497e-08
0.082959375
5.4558639e-08
4.4509659e-07
-6.2586176e-07
0.082960132
-1.9928537e-07
-2.056186e-07
-5.5540718e-07
0.0036519761
-7.0909448e-09
-4.6480264e-07
0.0032003552
-5.3040918e-09
-3.1784103e-07
0.0027778667
-2.6460779e-09
0.0023040741
1.4624984e-09
2.8307385e-07
0.0023037837
-2.5316149e-08
3.9905924e-07
0.0027777464
-3.3559819e-08
4.6036229e-07
0.0032002914
-3.9402915e-08
5.0075817e-07
0.0036519337
-4.4170357e-08
0.082961258
-6.9112587e-07
-8.2283628e-07
-3.901743e-07
0.082962719
-1.4446984e-06
-1.4310703e-06
-3.7341399e-07
0.0036519141
-1.0133709e-07
-3.3810772e-07
0.0032002531
-9.2057336e-08
-2.4800156e-07
0.0027776517
-8.1333788e-08
0.0023035289
-6.6521797e-08
2.0762879e-07
0.002303317
-1.1672191e-07
2.7079881e-07
0.0027775864
-1.391593e-07
2.7718138e-07
0.0032002456
-1.5564728e-07
2.6470451e-07
0.0036519252
-1.7062887e-07
0.082964457
-2.3612502e-06
-2.0295756e-06
-2.1332895e-07
0.082966456
-3.1603257e-06
-2.6223881e-06
-2.2858234e-07
0.0036519247
-2.3488747e-07
-2.2332536e-07
0.0032002254
-2.153349e-07
-1.7420877e-07
0.0027775224
-1.9361855e-07
0.0023031278
-1.6399679e-07
7.0922561e-08
-1.7714073e-07
2.0675558e-09
-2.0654002e-07
-1.1130644e-07
-2.2868883e-07
-2.3243979e-07
-2.4902772e-07
-3.3063689e-06
-3.5407647e-06
1.3566956e-07
-0.082963267
-7.6097356e-06
1.0372933e-05
3.6726876e-08
-0.0036518266
-5.545938e-07
6.2322913e-07
-5.2877484e-08
-0.0032001579
-5.0798039e-07
5.6876712e-07
-9.5030778e-08
-0.0027775198
-4.5910486e-07
5.1327171e-07
-0.002303287
-3.9499815e-07
4.425529e-07
1.8108748e-07
-0.0023035043
-2.7335085e-07
3.0845631e-07
2.3443477e-07
-0.0027776114
-3.1888919e-07
3.5655416e-07
2.4412088e-07
-0.0032002086
-3.5354707e-07
3.9402841e-07
2.3324055e-07
-0.0036518606
-3.8636736e-07
4.3120192e-07
-0.082961869
-5.3634096e-06
7.2293975e-06
-3.0304536e-06
-3.2840314e-07
-0.082960529
-3.3482384e-06
4.4915042e-06
-2.1561611e-06
-3.2418868e-07
-0.0036518898
-2.3707102e-07
2.6166216e-07
-3.0144455e-07
-0.0032002539
-2.1658705e-07
2.3883729e-07
-2.2744111e-07
-0.0027777075
-1.950051e-07
2.1630391e-07
-0.0023037528
-1.6677668e-07
1.8774415e-07
2.6807128e-07
-0.0023040339
-8.8430964e-08
1.0065106e-07
3.7756118e-07
-0.0027778282
-1.0429529e-07
1.1502354e-07
4.2979941e-07
-0.0032003166
-1.164589e-07
1.264647e-07
4.6417798e-07
-0.0036519349
-1.279575e-07
1.3863957e-07
-0.08295935
-1.8657898e-06
2.4860771e-06
-1.3347463e-06
-5.9207893e-07
-0.082958467
-9.4649968e-07
1.2289717e-06
-5.7466659e-07
-5.285494e-07
-0.0036520013
-6.0525225e-08
6.3051419e-08
-4.4653125e-07
-0.0032004017
-5.4552188e-08
5.7339416e-08
-3.0676331e-07
-0.0027779731
-4.8351882e-08
5.2782628e-08
-0.0023043477
-4.0289743e-08
4.7295445e-08
3.4610808e-07
-0.0023046993
-1.3926172e-08
1.8664106e-08
5.1899362e-07
-0.0027781479
-1.7790792e-08
1.9335947e-08
6.3451859e-07
-0.0032005166
-2.0931225e-08
1.9977217e-08
7.3598621e-07
-0.0036521008
-2.3879275e-08
2.1867578e-08
-0.082957955
-4.408002e-07
5.2256705e-07
1.4164241e-07
-8.9138817e-07
-0.082957891
-1.8577047e-07
1.5157111e-07
8.6202487e-07
-7.5081723e-07
-0.0036522383
-5.0240447e-09
1.718002e-09
-5.9748922e-07
-0.0032006685
-3.6668327e-09
1.9175156e-09
-3.8912222e-07
-0.0027783582
-2.1687426e-09
3.4303187e-09
-0.0023050938
-1.299067e-10
5.4950211e-09
4.2860746e-07
-0.0023055295
5.9939794e-09
4.5381258e-10
6.7579552e-07
-0.0027786078
4.6639301e-09
-2.5634934e-09
8.672622e-07
-0.0032008589
3.7187579e-09
-5.0971411e-09
1.0480335e-06
-0.0036524158
3.0203356e-09
-6.3978873e-09
-0.082958377
-7.3958209e-08
-3.4938245e-08
1.6424232e-06
-1.2232304e-06
-0.082959434
-4.8275035e-08
-1.3051386e-07
2.4580847e-06
-9.9497548e-07
-0.0036526401
4.0944752e-09
-8.2857642e-09
-7.5940792e-07
-0.003201093
4.6507433e-09
-6.3852032e-09
-4.7082501e-07
-0.0027788993
5.4839202e-09
-3.0813582e-09
-0.0023060082
6.971557e-09
8.058665e-10
5.1211286e-07
-0.00230653
9.1377531e-09
3.8402496e-11
8.4355216e-07
-0.0027792339
7.1516361e-09
-4.3091194e-09
1.1223402e-06
-0.00320137
6.1475277e-09
-8.1548999e-09
1.3994324e-06
-0.0036529125
5.9495172e-09
-1.0702371e-08
-0.082961065
-1.4025769e-08
-2.2528776e-07
3.2698446e-06
-1.5761034e-06
-0.082963352
6.5323478e-08
-3.5394558e-07
4.1509337e-06
-1.2503924e-06
-0.0036532347
1.1665626e-08
-1.5320629e-08
-9.2315721e-07
-0.003201697
1.1504042e-08
-1.1880559e-08
-5.5143089e-07
-0.0027796107
1.2232122e-08
-7.5013941e-09
-0.0023070924
1.3811081e-08
-2.849731e-09
5.9050672e-07
-0.0023076973
1.8408464e-08
-4.3284881e-09
1.007011e-06
-0.0027800343
1.6846563e-08
-9.8829124e-09
1.3837762e-06
-0.0032020755
1.6510728e-08
-1.5002577e-08
1.7650594e-06
-0.003653614
1.730566e-08
-1.9271807e-08
-0.082966332
1.4335974e-07
-4.7227402e-07
5.0742952e-06
-1.9398569e-06
-0.08296993
1.9176125e-07
-5.7824551e-07
5.9239189e-06
-1.509493e-06
-0.0036540422
1.973636e-08
-2.2016353e-08
-1.0875347e-06
-0.0032024991
1.8725194e-08
-1.7053046e-08
-6.276212e-07
-0.0027805022
1.9026307e-08
-1.113408e-08
-0.0023083406
2.0534925e-08
-4.7882513e-09
6.58623e-07
-0.002309017
2.3971439e-08
-6.4055054e-09
1.1570904e-06
-0.0027810098
2.2946685e-08
-1.3982741e-08
1.6234232e-06
-0.0032029679
2.323332e-08
-2.0934411e-08
2.1044629e-06
-0.0036545214
2.4953089e-08
-2.6762074e-08
-0.082974106
2.8536106e-07
-7.2044516e-07
6.7150296e-06
-2.2380542e-06
-0.0829789
4.5755184e-07
-9.0768596e-07
7.4816509e-06
-1.714173e-06
-0.0036550464
3.387235e-08
-3.2718592e-08
-1.2088806e-06
-0.0032034786
3.1010509e-08
-2.5586649e-08
-6.7993079e-07
-0.0027815511
2.9755629e-08
-1.7409015e-08
-0.0023097181
2.941686e-08
-8.2646709e-09
6.8943554e-07
-0.0023104288
3.1790825e-08
-1.024943e-08
1.2397875e-06
-0.0027821146
3.3156744e-08
-1.9961054e-08
1.7749302e-06
-0.00320402
3.5535508e-08
-2.925629e-08
2.3314156e-06
-0.0036556049
3.9920329e-08
-3.7887658e-08
-0.082984233
6.4228001e-07
-1.1306816e-06
8.1535549e-06
-2.3505961e-06
-0.082990028
8.3581813e-07
-1.3758173e-06
8.6852534e-06
-1.780596e-06
-0.003656175
4.0332077e-08
-4.0262093e-08
-1.2332037e-06
-0.0032045714
3.4169936e-08
-3.0220273e-08
-6.779304e-07
-0.0027826807
3.0723127e-08
-1.9989836e-08
-0.0023111261
2.9123418e-08
-9.71955e-09
6.3615449e-07
-0.0023117791
2.6378614e-08
-9.6138596e-09
1.1669466e-06
-0.0027832217
2.9198114e-08
-1.9061791e-08
1.6991834e-06
-0.0032051082
3.4403606e-08
-2.9953706e-08
2.2642175e-06
-0.0036567411
4.3096301e-08
-4.2071846e-08
-0.082996406
1.130184e-06
-1.6965264e-06
9.2083738e-06
-2.0037688e-06
-0.083003783
1.5433127e-06
-2.1445992e-06
9.9812373e-06
-1.4867111e-06
-0.003657262
5.1563635e-08
-4.886512e-08
-1.0109408e-06
-0.0032055899
3.922019e-08
-3.4485567e-08
-5.4929575e-07
-0.0027836936
3.0902369e-08
-2.3380659e-08
-0.0023123373
2.4582376e-08
-1.5652797e-08
3.9381519e-07
-0.0023127247
1.7869273e-08
-2.6936252e-08
7.1958858e-07
-0.0027840194
3.1465344e-08
-3.2459757e-08
1.0795701e-06
-0.0032059524
4.4677502e-08
-4.2982543e-08
1.4908531e-06
-0.0036576752
6.1425671e-08
-5.9556871e-08
-0.083012818
2.0222723e-06
-2.671116e-06
1.1174512e-05
-6.3945169e-07
-0.083024638
2.4484868e-06
-3.1956472e-06
1.3206533e-05
-4.1952809e-07
-0.0036578878
6.2679053e-08
-7.0602877e-08
-2.7061425e-07
-0.0032060898
4.1233662e-08
-5.3395679e-08
-1.6943499e-07
-0.0027841
2.1355707e-08
-4.3500083e-08
-0.0023128525
-2.0152535e-09
-3.9560782e-08
-1.1629505e-07
-0.0023126554
-4.5868357e-08
-3.6087626e-08
-3.3593012e-07
-0.0027838285
-9.5409396e-09
-4.2766705e-08
-5.0203555e-07
-0.0032058911
1.9461757e-08
-5.2427824e-08
-5.6761748e-07
-0.0036577989
4.5753618e-08
-6.9037032e-08
-0.083041407
2.8232462e-06
-3.7783806e-06
1.7156151e-05
1.7837604e-06
-0.083066596
3.2460285e-06
-4.7990103e-06
2.4958353e-05
1.4081026e-06
-0.0036573803
1.154173e-08
-5.439311e-08
8.9272857e-07
-0.0032053175
-2.2779077e-08
-3.5393293e-08
3.3827509e-07
-0.0027831881
-6.1861931e-08
-2.3858087e-08
-0.0023121921
-1.1087571e-07
-1.4219531e-08
-2.495845e-07
-0.0023118208
-1.3263802e-07
1.1718296e-08
-8.8541596e-07
-0.0027824491
-1.0550706e-07
2.7243135e-09
-1.5090706e-06
-0.0032046116
-7.1754178e-08
-1.0146651e-08
-1.9213016e-06
-0.0036568964
-3.5975185e-08
-3.5506002e-08
-0.083105988
3.5570436e-06
-6.5526953e-06
4.0466658e-05
-6.0175387e-07
-0.083167697
4.3139279e-06
-1.0051983e-05
6.8048979e-05
-3.1750172e-07
-0.0036571442
-3.040326e-09
-3.3104796e-08
-3.8016633e-07
-0.003204525
-3.65772e-08
1.3064773e-08
-4.4333142e-07
-0.0027823803
-4.3832042e-08
3.9051016e-08
-0.0023123053
-1.5055272e-08
5.6281085e-08
2.1875337e-06
-0.0023148711
3.0665675e-07
7.0586183e-08
3.8974282e-06
-0.0027843303
1.931143e-07
4.676758e-08
5.6766642e-06
-0.0032064618
1.6694953e-07
-9.6537515e-09
7.9855919e-06
-0.0036595529
1.9565303e-07
-9.5732183e-08
-0.08326243
5.8022156e-06
-1.5668687e-05
0.0001125852
-2.2119753e-05
-0.083402993
8.1178372e-06
-2.3093552e-05
0.00017765856
-1.589955e-05
-0.0036661394
6.0530075e-07
-2.392406e-07
-1.0453551e-05
-0.003212392
5.8327706e-07
-9.9343883e-08
-5.2822926e-06
-0.002790139
6.4430037e-07
-7.4752585e-09
-0.002321023
8.2039483e-07
4.9279104e-08
1.0091263e-05
-0.0023323907
1.340749e-06
-6.4666726e-08
2.0485661e-05
-0.0028015957
1.2254838e-06
-1.6330743e-07
3.1480748e-05
-0.0032242565
1.1666041e-06
-2.9725193e-07
4.3503316e-05
-0.0036788569
1.1808631e-06
-4.8581451e-07
-0.083604659
1.1185546e-05
-3.1014994e-05
0.00026499891
-7.0999124e-05
-0.083890824
1.4085844e-05
-3.9174712e-05
0.00038225386
-5.1573105e-05
-0.0036991179
1.6269853e-06
-7.9260149e-07
-3.3586018e-05
-0.0032433001
1.6095639e-06
-5.5391665e-07
-1.6591236e-05
-0.0028198511
1.6581426e-06
-3.994754e-07
-0.0023504095
1.761158e-06
-3.3364887e-07
2.482145e-05
-0.0023764856
1.5003354e-06
-2.567877e-07
5.2924934e-05
-0.0028491495
1.2734803e-06
-8.3090976e-08
8.3395468e-05
-0.0032747374
1.173678e-06
-2.1007661e-07
0.00011634961
-0.0037326883
1.1264067e-06
-5.0999478e-07
-0.084303509
7.6160621e-06
-4.6529553e-05
0.00056794857
-0.00021226154
-0.084776636
-1.3730932e-05
-5.7073765e-05
0.00075619359
-0.00015076292
-0.0037934326
-1.1825278e-06
4.2749189e-07
-9.2751442e-05
-0.0033325855
-1.0695763e-06
9.052055e-07
-4.0196075e-05
-0.0029020782
-7.6381713e-07
1.1350249e-06
-0.0024174319
3.2092487e-07
4.2920952e-07
6.3971687e-05
-0.0024800934
-3.4771224e-06
2.1530615e-06
0.00014145651
-0.0029744553
-7.0785031e-06
1.9656435e-06
0.00022605211
-0.0034098856
-7.9552595e-06
6.5634752e-07
0.0003140594
-0.0038736845
-8.1928753e-06
4.3803551e-07
-0.084975782
-6.5451119e-05
-6.6907505e-05
0.00064556515
-0.00019752472
-0.085431157
-0.00035490118
0.00012724254
0.00088056201
-0.00015937182
-0.0038842639
-7.4899592e-06
-2.0083781e-05
-0.00012515116
-0.0034177563
-4.4720673e-06
-2.1877867e-05
-8.1619505e-05
-0.0029915605
-2.7490136e-06
-2.3677426e-05
-0.0025286759
-4.6572258e-06
-2.8379498e-05
-0.00017390672
-0.002419743
-4.5707489e-05
0.00011081011
-0.00033921544
-0.0028913064
-5.584799e-05
0.00012095545
-0.00051101012
-0.0033111189
-6.4938326e-05
0.00013013292
-0.00070237098
-0.0037572765
-7.48789e-05
0.00013925406
-0.088025831
-0.0017312318
0.0020368684
0.0015866721
-1.496193e-05
-0.071704348
-0.014724662
0.0029197343
-0.0045015885
-3.4836168e-05
-0.0031040596
-0.00080747042
0.00017412958
-4.8369473e-05
-0.0027408694
-0.00071706811
0.00016035422
-4.3995184e-05
-0.002404587
-0.00063562415
0.00014453573
-0.0020331472
-0.00054887936
0.00011828845
1.0223056e-05
0.0021316743
2.0203587e-05
0.0024990288
3.1587301e-05
0.0028173849
4.1187385e-05
0.0031512271
0.056157664
0.00063139965
0.070338768
-0.00015224213
-0.0084887467
0.00044746154
0.0037627808
-2.2252402e-05
0.00028020031
0.0033355165
-2.2026356e-05
0.00013003331
0.0029325078
-2.3429874e-05
0.0024775739
-2.8342542e-05
-0.00023241007
0.0025875819
7.6703093e-05
-0.0004612805
0.0030359718
6.9563591e-05
-0.00069594775
0.0034383464
6.6904237e-05
-0.00094528885
0.0038711274
6.611645e-05
0.067587833
0.00034266525
-0.00026825028
4.419963e-06
0.066844969
7.8691862e-05
0.00030485202
-6.8821841e-06
0.0038531884
2.1750639e-05
-1.9003574e-05
0.0034231347
2.2860446e-05
-2.2749985e-05
0.0030143126
2.2655104e-05
0.0025401899
1.9984829e-05
5.4953034e-05
0.0024685341
1.322501e-05
0.00011359714
0.0029350981
1.3491684e-05
0.00017568408
0.003340121
1.2971701e-05
0.00024104269
0.0037673775
1.2259732e-05
0.066683924
1.6769244e-05
0.00031986781
-0.0001853475
0.066303245
1.9617128e-05
0.00053267929
-0.00013264035
0.003705101
8.3869378e-06
-8.1940657e-05
0.003279565
8.7868405e-06
-3.5448843e-05
0.0028786127
9.2298171e-06
0.0024237907
9.6154041e-06
2.3798696e-05
0.0023957475
5.74472e-06
5.043377e-05
0.0028480219
5.22915e-06
7.8789683e-05
0.0032475465
4.8362104e-06
0.00010879722
0.0036716276
4.5924003e-06
0.06597564
1.0600592e-05
0.00043341809
-7.1249823e-05
0.065756567
6.2919818e-06
0.00029811782
-5.2529957e-05
0.0036526261
1.9087371e-06
-3.472543e-05
0.003229345
2.0066005e-06
-1.7438092e-05
0.002830112
2.2808532e-06
0.002377261
2.8095598e-06
1.1246648e-05
0.0023661429
1.2130117e-06
2.2119365e-05
0.0028193631
1.1020121e-06