/*--------------------------------*- C++ -*----------------------------------*\
  =========                 |
  \\      /  F ield         | OpenFOAM: The Open Source CFD Toolbox
   \\    /   O peration     | Website:  https://openfoam.org
    \\  /    A nd           | Version:  7
     \\/     M anipulation  |
\*---------------------------------------------------------------------------*/
FoamFile
{
    version     2.0;
    format      ascii;
    class       volScalarField;
    location    "330";
    object      alphat;
}
// * * * * * * * * * * * * * * * * * * * * * * * * * * * * * * * * * * * * * //

dimensions      [1 -1 -1 0 0 0 0];

internalField   nonuniform List<scalar> 
25201
(
7.9984532
7.9839424
7.9984759
7.983992
7.8414425
7.9469116
7.971281
8.0154998
7.996998
7.9141945
7.9969794
7.9468891
7.8973016
7.2081947
7.0790848
7.7393645
7.6292089
7.5249515
7.4747068
7.1820328
7.3905254
7.3970485
7.4835726
7.3323295
7.3166452
7.1243742
7.2572224
7.5320269
7.4611642
7.1792322
7.23441
7.309343
6.8598554
6.9443317
7.0534596
7.0790631
7.3121883
7.235315
6.972492
6.8868469
7.1777937
7.145589
7.1473352
6.8149403
6.8430346
6.8949369
7.1697331
7.5289712
7.832649
7.8973473
7.9570889
7.9011198
7.7039027
7.780636
7.8608854
7.8187275
7.783954
7.6844708
7.729195
7.4431094
7.483035
7.5875702
7.6290106
7.6948795
7.733815
7.8957656
7.8176011
7.5607665
7.5008354
7.295647
7.2353149
7.3008839
7.5938742
7.6478442
7.5859281
7.0977798
7.1612173
7.240674
7.2616651
7.3316494
7.4236578
7.5045552
7.3680474
7.3842243
7.2941064
7.4180354
7.2511982
7.2080547
7.0656202
7.1458155
7.0494974
6.9958983
6.9822602
6.9868379
6.9723532
7.0545505
7.0506693
6.969514
6.8201103
6.9210476
6.9266474
6.8316498
6.8486221
6.9437413
6.9509556
6.8720379
6.6970625
6.8088667
6.8792064
6.8653994
6.7783424
6.7873902
6.6681531
6.6554336
6.4748691
6.6147334
6.6208756
6.4880504
6.5033889
6.6821195
6.8008611
6.6399266
6.6471683
6.5179911
6.3205562
6.4853192
6.6105946
6.879173
7.1458633
6.9725104
6.8868731
6.843037
6.8949635
6.9351088
7.0225825
7.1202027
7.2512448
7.3681003
7.5875721
7.7839419
7.8187104
7.6289882
7.4430579
7.4829932
7.684446
7.7291533
7.7805832
7.860856
7.9570475
7.89574
7.7337903
7.6948287
7.5007976
7.5606736
7.8175326
7.744783
7.901055
7.8325658
7.5938393
7.6477956
7.2352515
7.3008011
7.4180078
7.4236539
7.5045609
7.331625
7.2616355
7.2405973
7.0702425
7.1527171
7.2940678
7.3842104
7.2152382
7.3260698
7.3895371
7.2479821
7.2151862
7.1887351
6.92818
6.9544663
6.7156239
6.7919868
6.8159412
6.7020642
6.6972923
6.5652676
6.6749122
6.6694657
6.5373111
6.3391897
6.5069818
6.6508934
6.9281045
7.1887609
6.9959286
7.0494796
7.0655395
6.5034823
6.6400195
6.8009853
6.9437831
6.9510603
6.8721538
6.9823062
6.9868222
6.8485455
6.6822859
6.6971363
6.8089185
6.6472642
6.5180993
6.3206399
6.4853268
6.4747996
6.4561613
6.587005
7.9838701
7.9982687
7.8324709
7.5319985
7.4611457
7.1473895
6.9443805
7.2343651
7.1792174
7.1778434
7.1455577
6.8430249
6.8148305
6.8597751
6.8868421
6.9724918
7.2352699
7.3121773
7.3092703
7.0534298
7.0790075
7.208041
7.3969735
7.629118
0.0012930493
0.0058929358
0.014149494
0.024437771
0.32728486
0.33434623
0.025367148
0.014664052
0.006099382
0.0013292856
0.0013465782
0.0062732193
0.015102857
0.026099401
0.34206039
0.3466334
0.026384493
0.015280326
0.0063481236
0.0013554497
0.0013587621
0.0063801845
0.015355085
0.026492814
0.34954822
0.35151371
0.026552413
0.015398434
0.0063991164
0.0013606621
0.0013621868
0.0064178744
0.015444286
0.026620759
0.35304559
0.35438336
0.026705515
0.015497144
0.0064386805
0.0013637382
0.0013653407
0.0064616764
0.015556479
0.026803032
0.355638
0.35687502
0.026907695
0.015619001
0.0064856703
0.0013669685
0.0013686398
0.0065108213
0.015684466
0.027017227
0.35811479
0.35937891
0.027129697
0.015751317
0.0065364434
0.0013703256
0.0013720577
0.0065630084
0.015820408
0.027245474
0.36066832
0.36199085
0.02736369
0.015890723
0.0065900141
0.0013738108
0.0013756164
0.006617946
0.015963207
0.02748508
0.36334342
0.36473254
0.027609126
0.016037075
0.0066463864
0.0013774511
0.001379343
0.006675754
0.016113133
0.027736425
0.36615554
0.36761834
0.027866591
0.01619072
0.0067056911
0.001381272
0.0013832624
0.0067365681
0.016270506
0.02800006
0.36911741
0.37065717
0.028136684
0.016352023
0.0067680949
0.0013852983
0.0013873987
0.0068005843
0.016435766
0.028276644
0.37223529
0.37385685
0.028419961
0.016521377
0.0068337803
0.0013895458
0.0013917553
0.0068679334
0.01660921
0.02856667
0.37552087
0.377232
0.028716728
0.016698886
0.0069027765
0.0013940116
0.0013963327
0.0069385905
0.016790821
0.028870268
0.37898455
0.38077932
0.029027187
0.016884673
0.0069751442
0.0013987053
0.0014011495
0.0070126945
0.016980837
0.0291877
0.3826151
0.38449707
0.029352086
0.017079221
0.0070511108
0.0014036606
0.0014062569
0.0070906255
0.017180214
0.029520602
0.38642832
0.3884169
0.029693779
0.017283929
0.0071311974
0.0014089266
0.0014116701
0.0071730317
0.017390354
0.029870964
0.39046414
0.39255363
0.030051368
0.017498498
0.0072155003
0.0014144785
0.44013457
0.027113146
0.015938334
0.006647774
0.0013560244
0.0013534892
0.0066093436
0.015840489
0.026951213
0.43781234
0.43552784
0.026790917
0.015743292
0.0065710606
0.0013510041
0.0013485621
0.0065334646
0.015647257
0.026632138
0.43328631
0.43110872
0.026477603
0.015553906
0.0064970018
0.0013461776
0.0013438662
0.0064615294
0.015462897
0.0263267
0.42899207
0.42693448
0.026179828
0.015374179
0.0064269134
0.0013416166
0.0013394289
0.0063932181
0.015287543
0.026036148
0.42493096
0.42298334
0.025896435
0.01520318
0.0063603842
0.0013372953
0.0013352253
0.0063285559
0.015121123
0.025760206
0.42108944
0.41924549
0.025627955
0.015041331
0.0062975662
0.0013332097
0.0013312511
0.0062673537
0.014963266
0.025498235
0.41744356
0.41568609
0.025371737
0.014886971
0.0062377836
0.0013293375
0.001327478
0.0062089992
0.014812381
0.025247654
0.41397194
0.4123032
0.025126952
0.014739632
0.006180871
0.0013256606
0.0013238969
0.0061535342
0.01466858
0.025008569
0.41067462
0.40909447
0.024893847
0.014599456
0.0061268553
0.0013221733
0.0013204973
0.0061009085
0.014531834
0.024781007
0.40754983
0.40604626
0.024671504
0.014465917
0.0060755222
0.0013188517
0.0013172483
0.0060508574
0.014401456
0.024563792
0.40457387
0.40313784
0.024459227
0.01433855
0.0060266789
0.0013156673
0.0013141213
0.0060032374
0.014277169
0.024356607
0.40173078
0.40035007
0.0242576
0.014217507
0.005980319
0.0013125917
0.0013110938
0.0059583341
0.014160016
0.024161967
0.39897889
0.39759424
0.024073639
0.014105833
0.0059373263
0.0013096187
0.0013081749
0.0059181693
0.014056911
0.023995531
0.39613575
0.39450908
0.023933056
0.014014555
0.0059007476
0.0013067261
0.0013048902
0.0058831079
0.013973653
0.023876659
0.39246712
0.38951297
0.023779526
0.013905318
0.0058531231
0.0013015381
0.0012935152
0.0057871491
0.013747011
0.023528332
0.38488298
0.3780488
0.022991138
0.013426591
0.0056561031
0.0012771102
0.0012534882
0.0054512035
0.012937859
0.022164479
0.36980431
0.34605532
0.019787441
0.011417936
0.0048299497
0.0012069523
0.0012516318
0.005460903
0.012962318
0.022200124
0.37046384
0.37875604
0.02302376
0.013447362
0.0056642042
0.001276144
0.0012931147
0.0057954949
0.013767533
0.023560482
0.38546297
0.38995708
0.023803885
0.013920869
0.0058595346
0.0013013134
0.0013047884
0.0058883113
0.013986534
0.02389719
0.39284425
0.39483037
0.023948984
0.014024562
0.0059048302
0.0013066747
0.0013081593
0.0059215824
0.014065518
0.02400953
0.39641694
0.3978323
0.024084812
0.014112713
0.0059400874
0.0013096185
0.0013111084
0.0059607125
0.014166087
0.024171972
0.39918605
0.40053223
0.024265737
0.014222469
0.0059823005
0.0013126113
0.0013141489
0.0060050049
0.014281729
0.024364213
0.40189009
0.40327873
0.024465466
0.014342333
0.0060281862
0.0013156971
0.001317285
0.0060522565
0.014405084
0.024569874
0.40469954
0.40615965
0.024676623
0.014469034
0.0060767721
0.0013188913
0.0013205443
0.006102156
0.014535062
0.024786406
0.40765637
0.40919494
0.024898624
0.014602378
0.0061280242
0.0013222233
0.0013239531
0.0061547615
0.014671762
0.0250139
0.41077292
0.41239453
0.025131757
0.014742548
0.0061820296
0.001325715
0.0013275315
0.006210172
0.014815413
0.025252723
0.41405783
0.41576657
0.025376407
0.014889784
0.006238892
0.0013293845
0.0013312934
0.0062684793
0.014966205
0.025503175
0.4175188
0.41931812
0.025632787
0.015044226
0.0062986915
0.0013332428
0.0013352505
0.0063297407
0.01512422
0.025765389
0.42116384
0.42305997
0.025901182
0.015206012
0.0063614778
0.001337308
0.0013394325
0.0063942014
0.015290172
0.026040647
0.42500987
0.42701642
0.026183645
0.015376398
0.0064277471
0.0013416121
0.0013438608
0.0064622729
0.015464934
0.026330262
0.42907769
0.43119736
0.026480686
0.015555679
0.0064976605
0.0013461753
0.0013485701
0.0065341371
0.015649071
0.026635266
0.43337643
0.43561828
0.026794242
0.015745304
0.0065718391
0.0013510292
0.0013535353
0.0066103665
0.015843089
0.026955402
0.43790694
0.44023966
0.027118489
0.015941635
0.0066490733
0.0013560946
0.0013587514
0.0066888039
0.016042806
0.027285947
0.44264843
0.0014067862
0.0071447037
0.017287079
0.029628872
0.39421635
0.39207253
0.029447555
0.017178222
0.0071018913
0.0014039357
0.001401164
0.0070597896
0.017071173
0.029269425
0.38997947
0.38793974
0.029095654
0.016966701
0.0070187417
0.0013984714
0.001395833
0.0069784507
0.016863858
0.028924395
0.38594231
0.38400239
0.02875759
0.016763717
0.0069392686
0.0013932555
0.0013907534
0.0069011549
0.016666088
0.028594709
0.38211473
0.38027782
0.028436219
0.016570963
0.0068639882
0.0013883192
0.0013859573
0.0068278425
0.016478132
0.028281212
0.37848622
0.37674577
0.028130634
0.016387819
0.0067926487
0.001383661
0.0013814359
0.0067583997
0.016299612
0.02798317
0.37504684
0.37339298
0.027839703
0.016213621
0.0067249637
0.0013792695
0.0013771663
0.0066923953
0.016129544
0.027699041
0.37177825
0.37020542
0.027562033
0.016047466
0.0066605517
0.0013751119
0.0013731155
0.0066295625
0.015967249
0.027427685
0.36867117
0.3671789
0.027297081
0.015889042
0.0065992794
0.0013711631
0.0013692657
0.0065698348
0.015812631
0.027168962
0.36572261
0.36430608
0.0270445
0.015738147
0.0065410503
0.0013674065
0.0013655983
0.0065130949
0.015665421
0.026922419
0.36292429
0.36158037
0.026803979
0.015594579
0.006485771
0.0013638236
0.001362095
0.006459271
0.015525455
0.02668778
0.36026892
0.35899227
0.026575198
0.015458155
0.0064333655
0.0013603926
0.0013587297
0.0064083037
0.015392622
0.026464931
0.35774403
0.35652348
0.026359008
0.015329201
0.0063839088
0.0013570865
0.0013554811
0.0063606218
0.015268359
0.026257139
0.35531199
0.3540911
0.026164172
0.015211621
0.0063385893
0.0013539052
0.0013523757
0.0063188637
0.015161379
0.02608381
0.35280014
0.35134915
0.026022783
0.015119535
0.0063015298
0.0013508567
0.0013489171
0.0062842698
0.015080096
0.025969968
0.34949838
0.3467509
0.025867724
0.015008442
0.0062530992
0.0013451772
0.001335846
0.0061831642
0.01483782
0.025591022
0.34248887
0.33642055
0.024991236
0.01448894
0.0060442804
0.0013164554
0.0012854674
0.005849812
0.014000589
0.024120714
0.32954157
0.32850244
0.024503548
0.014211792
0.0059297641
0.001288294
0.0013295916
0.0060914987
0.014637842
0.025329609
0.33415795
0.34226489
0.026120394
0.015115998
0.0062782404
0.00134656
0.0013556017
0.0063513556
0.015287709
0.026396117
0.34673582
0.34966775
0.026503823
0.015361784
0.0063828568
0.0013588151
0.0013607163
0.0064014792
0.015404208
0.026561353
0.35161785
0.3531475
0.026628335
0.015448813
0.0064196342
0.0013622115
0.0013637823
0.0064405291
0.01550172
0.026712587
0.35447662
0.35572611
0.026809327
0.015560215
0.0064631117
0.0013653715
0.0013670182
0.0064872667
0.015622969
0.026913837
0.35695246
0.35818897
0.027022786
0.015687744
0.0065120704
0.0013686765
0.0013703792
0.0065378533
0.015754836
0.027135165
0.35944566
0.36073359
0.027250463
0.015823338
0.0065641237
0.0013720993
0.0013738676
0.0065913095
0.015893959
0.027368755
0.36205246
0.36340482
0.027489781
0.015965969
0.0066189962
0.0013756627
0.001377512
0.0066476225
0.016040166
0.027613992
0.3647909
0.36621424
0.027741108
0.016115894
0.0066768088
0.0013793949
0.001381336
0.0067069406
0.016193829
0.027871499
0.36767416
0.36917366
0.028005021
0.016273438
0.006737687
0.0013833165
0.0013853593
0.0067693803
0.016355239
0.028141809
0.37071183
0.37229009
0.028281886
0.016438836
0.0068017432
0.0013874474
0.0013896031
0.0068350794
0.016524705
0.028425434
0.3739077
0.37556713
0.02857244
0.016612508
0.0068691553
0.0013918121
0.0013940924
0.0069042114
0.016702584
0.028722919
0.37726714
0.37901094
0.028877003
0.016794691
0.0069400487
0.0013964312
0.0013988441
0.0069768981
0.016889155
0.029034736
0.38079996
0.38263896
0.02919626
0.016985811
0.0070146093
0.0014013186
0.0014038647
0.0070533678
0.017084923
0.029361646
0.38453018
0.38647827
0.029530793
0.017186196
0.0070929679
0.0014064685
0.0014091417
0.0071336209
0.017289941
0.029703862
0.38848515
0.39054581
0.02988114
0.017396163
0.0071752508
0.0014118791
0.0014146983
0.0072180889
0.017505062
0.03006245
0.39265905
0.3948221
0.030247814
0.017616316
0.0072618582
0.0014175921
0.0014067486
0.0071443024
0.017286074
0.029627196
0.39420231
0.39206429
0.029446028
0.0171773
0.00710152
0.0014038945
0.00140112
0.0070594223
0.017070268
0.02926792
0.38997485
0.38793616
0.029094043
0.016965724
0.0070183375
0.0013984255
0.0013957866
0.0069780243
0.016862816
0.028922667
0.38593831
0.38399601
0.028755761
0.016762621
0.0069388253
0.0013932117
0.0013907138
0.0069006965
0.016664949
0.028592799
0.38210416
0.38026376
0.028434249
0.016569802
0.0068635313
0.001388285
0.001385929
0.0068273937
0.016476989
0.028279287
0.37846996
0.37672581
0.02812857
0.016386603
0.0067921776
0.0013836355
0.0013814134
0.0067579525
0.016298461
0.027981246
0.37502595
0.37337264
0.027837889
0.01621253
0.0067245378
0.0013792494
0.0013771482
0.0066920045
0.016128551
0.027697411
0.37175905
0.37018828
0.027560576
0.016046565
0.0066601921
0.0013750953
0.0013731
0.0066292389
0.015966449
0.027426399
0.36865522
0.36716593
0.027295982
0.01588834
0.0065989919
0.0013711495
0.0013692543
0.006569584
0.015812023
0.027168012
0.36571105
0.36429592
0.027043645
0.015737588
0.0065408161
0.0013673967
0.0013655907
0.0065128973
0.015664939
0.026921674
0.3629141
0.36157244
0.026803396
0.015594177
0.0064855995
0.0013638185
0.0013620919
0.0064591132
0.015525076
0.026687206
0.36026075
0.35898343
0.026574698
0.015457803
0.0064332137
0.001360391
0.0013587296
0.0064081568
0.015392275
0.026464414
0.35773591
0.35651423
0.026358391
0.015328788
0.0063837406
0.0013570874
0.0013554824
0.006360436
0.015267904
0.026256442
0.35530156
0.35407884
0.026163285
0.01521106
0.0063383689
0.0013539057
0.0013523759
0.0063186635
0.015160864
0.026082999
0.35279078
0.35134063
0.026021743
0.015118902
0.0063012878
0.001350852
0.0013489023
0.0062841364
0.015079669
0.025969138
0.34949571
0.34676191
0.025866897
0.015008032
0.0062529532
0.0013451484
0.0013357201
0.0061824577
0.014836204
0.025588171
0.34250559
0.33647242
0.02498706
0.014486797
0.0060434581
0.0013163186
0.0012845624
0.0058466329
0.013994962
0.024110562
0.32972153
0.37143421
0.022256663
0.013019855
0.0054921767
0.001246993
0.0012760694
0.0056592525
0.013427961
0.022992521
0.37848049
0.38549835
0.023563945
0.013769574
0.0057961194
0.00129309
0.0013015049
0.0058602132
0.0139218
0.023805069
0.38996841
0.39282514
0.023896028
0.013985538
0.0058879092
0.0013048509
0.0013067192
0.0059044391
0.014023439
0.023946927
0.39478549
0.39636318
0.024006697
0.014063567
0.005920783
0.0013081618
0.0013096276
0.0059395675
0.014111304
0.024082232
0.39777734
0.39913372
0.02416924
0.014164274
0.00595998
0.0013110974
0.0013126121
0.0059818769
0.014221307
0.024263569
0.40047942
0.40184372
0.024361956
0.014280211
0.0060043847
0.0013141329
0.0013156913
0.0060278027
0.014341284
0.024463527
0.40323449
0.40465963
0.024567767
0.014403668
0.0060516805
0.001317264
0.0013188787
0.0060763898
0.014467985
0.024674703
0.40611921
0.40761864
0.02478429
0.014533649
0.0061015825
0.0013205165
0.0013222016
0.0061275966
0.014601214
0.024896543
0.40915664
0.41073652
0.025011564
0.014670229
0.006154141
0.0013239168
0.0013256822
0.0061815147
0.014741164
0.02512934
0.41235663
0.41402061
0.025249949
0.01481362
0.0062094473
0.0013274829
0.0013293388
0.0062382343
0.014888047
0.025373447
0.41572804
0.41747971
0.025499785
0.014964058
0.0062676212
0.0013312355
0.0013331932
0.006297908
0.015042168
0.0256293
0.41927599
0.4211208
0.025761788
0.015121954
0.0063288408
0.0013351993
0.001337277
0.0063607187
0.015204023
0.025897844
0.42301582
0.42496765
0.026037603
0.01528825
0.0063934458
0.0013394155
0.0013416246
0.0064272216
0.015374966
0.026181233
0.42697536
0.4290398
0.026328428
0.015463764
0.0064618273
0.0013438912
0.0013462288
0.0064974479
0.01555498
0.026479439
0.4311604
0.43334002
0.026634278
0.015648448
0.0065339243
0.0013486247
0.0013510795
0.0065716283
0.015744615
0.026793025
0.43557882
0.43786321
0.026953918
0.015842121
0.0066099935
0.001353565
0.0013561055
0.0066485699
0.015940201
0.027116034
0.44018862
0.44258841
0.027283319
0.01604124
0.0066882199
0.0013587448
0.3947234
0.030239756
0.017611577
0.0072600127
0.0014174683
0.0014145573
0.0072161644
0.017500083
0.030053904
0.39256204
0.39046734
0.029873713
0.01739195
0.0071736426
0.0014117499
0.0014090077
0.0071317767
0.017285293
0.029695916
0.38841276
0.38641682
0.029522608
0.017181381
0.0070910689
0.0014063238
0.0014037096
0.0070514259
0.017079923
0.029353065
0.3844787
0.38259493
0.029188067
0.016981039
0.0070127425
0.0014011632
0.0013986917
0.006975078
0.016884442
0.029026558
0.38075992
0.37897286
0.028869386
0.016790286
0.0069383339
0.0013962868
0.0013939546
0.0069025533
0.016698279
0.028715437
0.37722934
0.37553073
0.02856591
0.016608734
0.006867687
0.0013916887
0.0013894939
0.0068337222
0.016521168
0.028419287
0.37387157
0.3722531
0.02827678
0.016435848
0.0068005681
0.0013873554
0.0013852785
0.0067682805
0.016352378
0.028136874
0.37067361
0.36913436
0.028000896
0.016271004
0.0067367241
0.0013832482
0.0013812745
0.0067060101
0.016191397
0.027867307
0.36763273
0.36617073
0.027737515
0.016113769
0.0066759643
0.0013793408
0.00137746
0.0066467595
0.016037889
0.027610044
0.364745
0.36335787
0.027486361
0.015963958
0.0066181981
0.0013756155
0.0013738196
0.0065904603
0.01589171
0.02736484
0.36200434
0.36068656
0.027247068
0.015821352
0.0065633342
0.0013720544
0.0013703325
0.0065370123
0.015752605
0.027131288
0.35939878
0.35814179
0.027019392
0.015685756
0.0065112808
0.001368633
0.0013669727
0.006486428
0.015620733
0.026909929
0.3569055
0.35567915
0.026806281
0.01555841
0.0064623851
0.0013653307
0.0013637399
0.0064397839
0.015499711
0.026709025
0.35443343
0.35310883
0.02662572
0.015447308
0.0064190362
0.0013621744
0.0013606789
0.0064010349
0.015402892
0.026558827
0.35158442
0.34964045
0.026502711
0.015361211
0.0063826446
0.0013587832
0.0013555465
0.0063519358
0.015288914
0.026397632
0.3467336
0.3422569
0.026119479
0.015114567
0.0062774688
0.0013464103
0.001328867
0.0060954947
0.014646987
0.025342118
0.33423461
0.3282767
0.024496467
0.014208742
0.0059288314
0.0012874373
0.00129311
0.0059078075
0.014183003
0.024487414
0.327814
0.33468161
0.025385428
0.014676249
0.0061047593
0.0013288942
0.0013462437
0.0062770205
0.01511159
0.026112565
0.34232949
0.34685286
0.026397166
0.015288281
0.006351351
0.0013552831
0.0013586919
0.006383303
0.015362723
0.026504862
0.34973876
0.35167097
0.026563716
0.015405476
0.0064019164
0.0013606475
0.0013621969
0.0064203324
0.015450385
0.026630401
0.35318238
0.35450273
0.026714359
0.015502677
0.0064408757
0.0013637645
0.0013653735
0.0064635907
0.015561268
0.026810621
0.35574241
0.35696448
0.02691486
0.015623466
0.0064874301
0.0013670069
0.0013686778
0.0065123469
0.015688289
0.027023276
0.35819471
0.35945015
0.027135619
0.015755002
0.0065378862
0.0013703679
0.0013721009
0.0065642961
0.015823629
0.027250572
0.3607339
0.36205318
0.027368875
0.015893942
0.0065912772
0.0013738584
0.0013756657
0.0066191168
0.015966158
0.027489787
0.36340374
0.36479184
0.02761404
0.016040107
0.0066475718
0.0013775057
0.0013793993
0.0066768978
0.01611601
0.027741044
0.36621512
0.36767853
0.027871537
0.016193753
0.0067068813
0.0013813315
0.0013833204
0.00673774
0.016273462
0.028004843
0.36918062
0.37072567
0.028141746
0.016355109
0.0067693034
0.0013853524
0.0013874426
0.0068017556
0.01643878
0.028281639
0.37231142
0.37393991
0.02842504
0.016524371
0.0068349185
0.0013895778
0.0013917727
0.0068689513
0.016611905
0.028571286
0.37560792
0.37731798
0.02872112
0.016701424
0.0069037244
0.0013940185
0.0013963305
0.0069394435
0.016793098
0.028874179
0.37906935
0.38086431
0.029031055
0.016886946
0.0069759958
0.0013987009
0.0014011479
0.0070135627
0.016983128
0.029191531
0.38270244
0.38459054
0.029356396
0.017081838
0.0070521137
0.0014036683
0.0014062755
0.0070917971
0.017183258
0.029525614
0.38653314
0.38853563
0.029699579
0.017287453
0.0071325646
0.001408959
0.0014117205
0.0071745768
0.017394273
0.029877401
0.39058644
0.39267504
0.030058359
0.017502679
0.0072171205
0.00141455
0.0014174863
0.0072610213
0.01761424
0.030244274
0.3948291
8.0821701
8.0777757
8.0821482
8.0777314
8.0172408
8.045975
8.0572598
8.1020338
8.0954631
8.0459913
7.9846353
8.0524896
8.0954482
8.0752047
8.0121486
7.9726419
7.9371326
7.797387
7.8400957
7.6915318
7.9086756
7.8691961
7.6262208
7.4378959
7.8033346
7.9757239
8.0437334
7.9049313
7.9584551
7.9992382
8.0474044
7.9466277
7.9018894
7.7599722
7.8268885
7.6770531
7.9515091
7.912491
7.8630886
7.7995209
7.8478845
7.5149514
7.3947289
7.3115994
7.7535561
7.6887717
7.6477175
7.7038064
7.2955071
7.3632738
7.2318152
7.1603165
7.0976099
7.1611437
7.5288893
7.5858242
7.5858575
7.8325522
7.9838328
7.9982399
7.9467256
7.8971619
0.33040266
0.024099121
0.013990954
0.0058453598
0.0012902289
0.0013180597
0.0060343942
0.014462343
0.024943346
0.33642929
0.34221462
0.025546017
0.014810426
0.0061722105
0.0013362481
0.0013453532
0.0062450615
0.014988314
0.025835158
0.34644468
0.34924293
0.02594765
0.015065601
0.0062783297
0.0013489825
0.0013509092
0.0062974022
0.01510922
0.026006521
0.35114188
0.35264681
0.026072211
0.015153555
0.0063156311
0.0013523948
0.001353929
0.0063363477
0.015205941
0.026155245
0.35396589
0.35521814
0.02625066
0.015263828
0.006358732
0.001355486
0.001357102
0.0063826469
0.015325948
0.026353907
0.3564494
0.35768903
0.026461301
0.015389947
0.0064071682
0.0013587313
0.0013604056
0.0064326571
0.015456298
0.026572308
0.35894763
0.36023471
0.02668573
0.015523837
0.0064585702
0.0013620966
0.0013638362
0.006485385
0.015593526
0.026802341
0.36155097
0.36290232
0.026921361
0.01566447
0.0065126638
0.0013656012
0.0013674204
0.0065408703
0.015737621
0.027043684
0.3642849
0.36570431
0.027168592
0.015812149
0.0065695913
0.0013692714
0.00137118
0.0065992366
0.015888861
0.027296787
0.36715881
0.3686522
0.027427837
0.015967138
0.0066294753
0.0013731281
0.0013751374
0.0066606775
0.016047704
0.027562395
0.37018282
0.37175412
0.02769998
0.016129945
0.0066925146
0.0013771902
0.001379307
0.0067253061
0.016214423
0.027840988
0.37336466
0.37501782
0.027985278
0.016300734
0.0067588004
0.0013814736
0.0013837072
0.0067932653
0.016389316
0.028133056
0.37671222
0.37845137
0.028284271
0.016479844
0.0068284835
0.0013859956
0.0013883549
0.0068647022
0.016572715
0.028439138
0.38023635
0.38206997
0.028597547
0.016667639
0.0069017259
0.0013907735
0.0013932663
0.0069397937
0.01676502
0.028759836
0.38395368
0.38589111
0.028925873
0.01686459
0.0069787306
0.0013958225
0.0013984555
0.0070187337
0.016966642
0.029095792
0.38788288
0.38993026
0.029269934
0.017071186
0.0070597327
0.0014011596
0.0014039444
0.0071018202
0.017178226
0.029447975
0.39203322
0.39419302
0.029630345
0.017287817
0.0071449284
0.0014068039
0.0014038618
0.007100787
0.017175369
0.029442809
0.39198703
0.38990413
0.029266273
0.01706924
0.0070590167
0.0014011052
0.0013984162
0.0070180375
0.016964843
0.029092476
0.38786893
0.38587585
0.028921175
0.016861796
0.006977576
0.0013957686
0.0013931886
0.0069382977
0.016761254
0.028753496
0.38393763
0.38205384
0.028590402
0.016663366
0.0069000246
0.0013906767
0.0013882399
0.006862777
0.016567829
0.028430919
0.38021984
0.37843255
0.028275751
0.016474738
0.0068264596
0.0013858689
0.0013835742
0.0067912075
0.016384033
0.028124161
0.37668842
0.3749926
0.027977321
0.016296023
0.0067569708
0.0013813481
0.0013791938
0.0067237397
0.0162103
0.027833906
0.37334037
0.37172807
0.027694186
0.016126538
0.0066911953
0.001377092
0.0013750497
0.0066594076
0.016044414
0.027556802
0.37015114
0.36861465
0.027423113
0.015964293
0.0066283428
0.0013730532
0.0013711131
0.006598136
0.015885988
0.027291905
0.36711523
0.36565421
0.027164361
0.0158096
0.00656858
0.001369213
0.0013673644
0.0065398324
0.015734905
0.02703906
0.36423276
0.36284638
0.026917202
0.015661974
0.006511672
0.0013655499
0.0013637836
0.0064843147
0.015590719
0.026797525
0.36149124
0.36017183
0.026681324
0.015521198
0.0064575207
0.0013620467
0.0013603529
0.0064314912
0.015453231
0.026567039
0.35887844
0.35761917
0.026456578
0.0153871
0.0064060316
0.0013586816
0.0013570498
0.0063813835
0.015322644
0.026348283
0.35637576
0.35514136
0.02624524
0.015260565
0.0063574355
0.0013554358
0.0013538763
0.0063348898
0.015202148
0.026148852
0.35388471
0.35256002
0.026066242
0.0151499
0.0063141616
0.0013523502
0.0013508685
0.0062957602
0.015105029
0.025999548
0.35104851
0.34913073
0.025941686
0.015061775
0.0062767267
0.0013489796
0.0013453894
0.0062434061
0.014984816
0.025830468
0.34628761
0.34188099
0.025543281
0.014806061
0.006169531
0.0013364076
0.0013181458
0.0060309904
0.01445952
0.024949015
0.33574484
0.32866236
0.024072207
0.013956522
0.0058275184
0.0012898956
0.0012469029
0.0054581422
0.013023178
0.022508058
0.31552747
0.33001687
0.02591793
0.01491771
0.006150848
0.0013169185
0.0012921458
0.0059556784
0.014268698
0.024589602
0.33009767
0.33437581
0.025330158
0.014641215
0.0060941445
0.0013310647
0.0013469595
0.0062751179
0.015107216
0.02610384
0.34222207
0.346573
0.026377117
0.015276015
0.0063467857
0.0013558046
0.0013589545
0.0063795317
0.015353311
0.026489791
0.34950003
0.35145989
0.026549207
0.01539634
0.0063982719
0.0013607959
0.0013622777
0.0064172746
0.015442835
0.026618565
0.35300408
0.35434961
0.026703996
0.01549608
0.0064382228
0.0013638084
0.0013653972
0.0064613623
0.015555746
0.026801973
0.35561168
0.35685312
0.026907343
0.015618678
0.0064855145
0.0013670184
0.0013686838
0.0065107678
0.015684372
0.027017178
0.35810236
0.35937372
0.02713016
0.015751535
0.0065365105
0.0013703682
0.0013721002
0.0065631841
0.015820882
0.027246324
0.3606678
0.36199419
0.027364998
0.015891477
0.0065902985
0.0013738545
0.0013756614
0.0066183183
0.015964182
0.027486737
0.36335203
0.36474792
0.027611186
0.016038288
0.0066468521
0.0013774982
0.0013793919
0.0066763106
0.016114582
0.027738875
0.36617507
0.36764032
0.027869378
0.016192378
0.0067063336
0.0013813215
0.0013833098
0.0067373056
0.016272415
0.028003265
0.36914156
0.37068169
0.028140076
0.01635404
0.006768873
0.0013853378
0.001387429
0.0068013909
0.016437908
0.028280308
0.37225862
0.3738763
0.028423638
0.016523499
0.0068345691
0.0013895669
0.0013917718
0.0068687164
0.016611358
0.028570465
0.37553449
0.37723853
0.028720682
0.016701132
0.006903597
0.0013940301
0.001396361
0.0069394722
0.016793243
0.028874539
0.37898624
0.38078183
0.029032016
0.016887425
0.0069761604
0.0013987521
0.0014012182
0.0070138927
0.016984047
0.029193278
0.38262439
0.38451637
0.029358379
0.017082909
0.0070525062
0.0014037499
0.0014063627
0.007092247
0.017184407
0.029527615
0.38645809
0.38845346
0.029701222
0.017288507
0.0071330263
0.0014090487
0.0014118268
0.0071751664
0.017395689
0.029879493
0.39050202
0.39260585
0.030063344
0.017506646
0.0072190887
0.0014146968
0.0014176381
0.0072661763
0.017621554
0.030250129
0.39476487
0.0014038504
0.007100323
0.017174412
0.029441497
0.39199009
0.38989245
0.029262961
0.017067108
0.0070581421
0.0014010645
0.0013983531
0.0070170489
0.016962268
0.02908826
0.3878507
0.38586875
0.028918783
0.016860525
0.0069771811
0.0013957223
0.0013931743
0.0069383999
0.01676132
0.028753304
0.38394166
0.38206564
0.028592218
0.016664619
0.006900573
0.0013906987
0.0013882981
0.0068637396
0.016570148
0.02843454
0.38023691
0.378455
0.028280962
0.016478015
0.0068277915
0.0013859606
0.0013836942
0.0067926925
0.016387835
0.028130395
0.37671394
0.37500405
0.027981761
0.016298532
0.0067578603
0.0013814563
0.00137927
0.0067240725
0.016211345
0.027836032
0.37333588
0.37171436
0.027694234
0.016126385
0.0066911001
0.0013771283
0.0013750692
0.0066594264
0.016044404
0.027556865
0.37014238
0.36860891
0.027423318
0.015964388
0.0066283844
0.0013730657
0.0013711227
0.0065981851
0.015886146
0.027292236
0.36711383
0.36565577
0.027164708
0.015809781
0.0065686413
0.0013692224
0.0013673754
0.0065398916
0.015735076
0.027039366
0.3642313
0.36284238
0.026917267
0.015662026
0.0065116927
0.0013655615
0.001363796
0.0064842886
0.01559065
0.02679741
0.36148352
0.36016023
0.026680833
0.015520918
0.0064574138
0.0013620585
0.0013603648
0.0064313347
0.015452841
0.026566411
0.35886389
0.3576
0.026455532
0.015386477
0.0064057861
0.0013586936
0.001357064
0.0063810784
0.015321896
0.026347085
0.35635184
0.35511389
0.026243759
0.015259648
0.0063570599
0.0013554533
0.0013538994
0.006334467
0.01520112
0.026147212
0.3538512
0.35252512
0.026064417
0.015148753
0.0063136851
0.001352381
0.001350909
0.006295264
0.015103809
0.025997573
0.35101051
0.34909511
0.025939202
0.015060244
0.00627609
0.0013490266
0.0013454496
0.0062429268
0.014983594
0.025828382
0.34627421
0.34192179
0.025543498
0.014806345
0.0061696983
0.0013365053
0.0013183565
0.0060327654
0.014463903
0.024956144
0.335907
0.32895417
0.02408867
0.013965284
0.0058309772
0.0012903673
0.0012481976
0.0054896316
0.013103617
0.022637034
0.31684546
0.35078775
0.020276231
0.011727762
0.0049520017
0.0012180489
0.0012886945
0.0058021081
0.013907473
0.023960582
0.32361182
0.32815764
0.024112481
0.014004478
0.0058416761
0.0012864115
0.0012888565
0.0058398885
0.013977965
0.024080505
0.33017942
0.33642116
0.024946437
0.014464165
0.0060353749
0.0013177116
0.0013359921
0.0061721557
0.01481071
0.025546729
0.34223866
0.34653122
0.025838814
0.014990479
0.0062459681