/*--------------------------------*- C++ -*----------------------------------*\
  =========                 |
  \\      /  F ield         | OpenFOAM: The Open Source CFD Toolbox
   \\    /   O peration     | Website:  https://openfoam.org
    \\  /    A nd           | Version:  7
     \\/     M anipulation  |
\*---------------------------------------------------------------------------*/
FoamFile
{
    version     2.0;
    format      ascii;
    class       volScalarField;
    location    "220";
    object      alphat;
}
// * * * * * * * * * * * * * * * * * * * * * * * * * * * * * * * * * * * * * //

dimensions      [1 -1 -1 0 0 0 0];

internalField   nonuniform List<scalar> 
24789
(
0.0014818124
0.0080973419
0.019759066
0.033854367
0.44222334
0.44266803
0.033890659
0.019781352
0.0081067417
0.0014825135
0.0014834749
0.008120434
0.01981551
0.03394697
0.44326706
0.4439411
0.034000679
0.019847589
0.0081335175
0.0014843919
0.001485533
0.008149949
0.019888504
0.034068355
0.44467432
0.44547111
0.034134025
0.019927811
0.0081659836
0.0014866463
0.0014879965
0.0081854768
0.019975993
0.034213429
0.44634421
0.44730118
0.034293485
0.020024126
0.008205171
0.0014893576
0.0014909778
0.0082286472
0.020081913
0.034388636
0.44836118
0.44952947
0.034485747
0.020140592
0.008252761
0.0014926411
0.0014945863
0.0082810662
0.020209986
0.034599866
0.45080948
0.45222431
0.034717206
0.020281186
0.0083104221
0.0014966069
0.0014989343
0.008344334
0.02036404
0.034853351
0.45377888
0.4554893
0.034994301
0.020449706
0.0083797123
0.0015013691
0.0015041286
0.0084197555
0.02054724
0.035154424
0.45736086
0.45941236
0.035321335
0.02064869
0.0084616388
0.0015070374
0.0015102998
0.0085081355
0.020761995
0.035507635
0.46164865
0.46408941
0.035702343
0.020879953
0.0085566283
0.0015137704
0.0015176484
0.0086094776
0.021009324
0.035916097
0.46674641
0.46964772
0.036140354
0.021144212
0.0086644568
0.0015218284
0.0015265057
0.0087235053
0.021290177
0.036383756
0.47281908
0.47630233
0.036640116
0.021442682
0.0087848597
0.0015316237
0.0015373845
0.0088502736
0.021606889
0.036917751
0.48013952
0.48439696
0.037211049
0.021778667
0.0089181118
0.0015437658
0.0015509838
0.0089899211
0.021962862
0.037528325
0.48914755
0.49448986
0.037864135
0.022155398
0.009063991
0.0015590566
0.0015682209
0.0091411419
0.022359264
0.038224061
0.50054259
0.50747429
0.03860078
0.022569145
0.0092191086
0.0015786059
0.0015906078
0.0092973922
0.022785454
0.038994981
0.51550739
0.52500599
0.039399796
0.0230044
0.0093738668
0.001604697
0.0016230507
0.0094584788
0.023237181
0.039841688
0.53670307
0.55177742
0.040446094
0.023549661
0.0095732176
0.0016493938
0.0016812622
0.0097013683
0.024085318
0.041471728
0.57198929
0.60776916
0.044005086
0.025670469
0.010376211
0.0017365257
0.0017690765
0.010707071
0.026289411
0.044724949
0.63301801
0.65318744
0.047656005
0.027968545
0.011356329
0.0018045449
0.001796677
0.011919869
0.029727066
0.051091624
0.6532864
0.6965758
0.043802389
0.026260872
0.010814098
0.0017604313
0.0017222906
0.010336353
0.025214255
0.042593053
0.68742692
0.6617489
0.038836063
0.022925578
0.0093467771
0.0016563921
0.0016082248
0.0089436391
0.021836939
0.037096147
0.63517982
0.61756546
0.036350546
0.021398955
0.008802333
0.0015751232
0.0015505049
0.0086973044
0.021146373
0.035904149
0.60286091
0.59062325
0.035558402
0.02095724
0.008623016
0.001533331
0.0015200072
0.0085576848
0.02077907
0.035230306
0.58031099
0.571362
0.034899153
0.02059717
0.0084911886
0.0015088146
0.0014991374
0.0084224759
0.020412717
0.034569382
0.56348956
0.55652457
0.034248204
0.020229546
0.0083528913
0.0014905858
0.0014830033
0.0082844398
0.020051911
0.033941064
0.55031582
0.54476579
0.033650445
0.01988145
0.0082177082
0.0014762225
0.0014702028
0.0081538162
0.019719797
0.033377268
0.53977061
0.535267
0.033120867
0.019566493
0.0080925091
0.0014647988
0.0014600022
0.0080346352
0.019422631
0.03288157
0.53118649
0.52747842
0.032656846
0.019286468
0.0079793694
0.0014556632
0.0014517987
0.0079276982
0.019159665
0.032448331
0.52410827
0.52102829
0.032252622
0.019039927
0.0078785575
0.0014482595
0.0014450865
0.0078330034
0.018929023
0.032071462
0.51821617
0.51566683
0.031903441
0.018825511
0.0077901754
0.0014421501
0.0014395083
0.0077509004
0.018730175
0.031748071
0.51332822
0.51120534
0.03160443
0.018641545
0.0077141547
0.0014370364
0.0014348199
0.0076808959
0.018560687
0.031472509
0.50925693
0.50749489
0.031350749
0.018485623
0.0076498287
0.0014327332
0.0014308799
0.0076220741
0.018417901
0.03124003
0.50588479
0.50444029
0.03113877
0.018355471
0.0075962649
0.0014291328
0.0014276016
0.0075734433
0.018299507
0.031046961
0.50312677
0.50191897
0.030962407
0.018247499
0.0075520193
0.001426141
0.0014248807
0.0075333452
0.018201442
0.030886538
0.50085277
0.49985786
0.030815613
0.018157973
0.0075155116
0.0014236566
0.0014226127
0.0075001482
0.018119836
0.030752526
0.49894511
0.49810288
0.030692908
0.018083384
0.0074852346
0.0014215794
0.00142071
0.0074725442
0.018051678
0.030640244
0.49732828
0.49665873
0.030592678
0.01802232
0.0074604326
0.0014198517
0.0014191601
0.0074508569
0.01799849
0.030553367
0.49609693
0.49703969
0.030605338
0.018028395
0.0074625041
0.0014199276
0.0014207211
0.0074732866
0.018054266
0.030645843
0.49749384
0.49818735
0.030692337
0.018082545
0.0074849391
0.0014215389
0.0014225756
0.0075000197
0.01811989
0.030753322
0.49900109
0.49990171
0.0308132
0.018156114
0.0075148517
0.0014235932
0.0014248311
0.0075330154
0.018200899
0.03088626
0.50089278
0.50197907
0.030959027
0.018245276
0.0075512897
0.0014260787
0.0014275718
0.0075733746
0.018299493
0.031047369
0.50318002
0.50450818
0.031137023
0.018354323
0.0075959859
0.0014291
0.0014308857
0.0076225654
0.018419242
0.031242598
0.50598029
0.50760758
0.031351995
0.018486208
0.0076502034
0.0014327388
0.0014348587
0.0076818617
0.018563186
0.031477002
0.50940437
0.51138415
0.03160753
0.018643374
0.0077150778
0.0014370825
0.0014396005
0.0077526867
0.018734711
0.031755914
0.51355575
0.51593851
0.031910635
0.018829758
0.007792027
0.0014422557
0.0014452402
0.0078357328
0.018935992
0.032083435
0.51854916
0.52140767
0.032264342
0.019046824
0.0078813977
0.0014484318
0.0014520236
0.0079313639
0.01916896
0.032464024
0.52454118
0.52797885
0.032673972
0.019296629
0.0079834859
0.0014559257
0.0014603232
0.0080396395
0.019435161
0.032902456
0.531757
0.53591509
0.033143623
0.019580218
0.0080981313
0.0014651619
0.0014706191
0.0081605204
0.019736268
0.033404413
0.54050268
0.5455771
0.033679554
0.019899315
0.0082251822
0.0014766625
0.0014834652
0.0082932172
0.020072909
0.033975089
0.551208
0.55747823
0.034283951
0.020251902
0.0083624777
0.0014910188
0.0014995195
0.0084329526
0.020436983
0.034607875
0.56448944
0.57237699
0.034935757
0.02062068
0.0085017673
0.001509093
0.0015201747
0.0085679504
0.020800171
0.035262254
0.58130254
0.59150901
0.03557533
0.020969811
0.0086310946
0.0015333928
0.0015505146
0.0087015385
0.021143593
0.035895367
0.6035228
0.61797223
0.036311382
0.021372171
0.0087992572
0.0015752857
0.0016110185
0.0089717265
0.021846804
0.037130116
0.63585522
0.66212943
0.038982153
0.022972838
0.009339285
0.0016567303
0.001725373
0.010427276
0.02547959
0.043390223
0.69126402
0.69793662
0.04105004
0.024815432
0.010288789
0.0017188157
0.0017772945
0.011776945
0.029396493
0.050395569
0.65387118
0.66143174
0.047043274
0.027288747
0.011033572
0.0017615711
0.0017951748
0.011406951
0.02841507
0.049194935
0.63680007
0.60443089
0.043846628
0.025670268
0.0103457
0.0017333314
0.0016834214
0.0098028381
0.02408066
0.0411991
0.57422378
0.55440873
0.039939086
0.023358833
0.0095492416
0.001643349
0.0016141518
0.0093906864
0.022974911
0.039259539
0.53918728
0.52709344
0.038773932
0.022699708
0.0092817455
0.0015942309
0.0015792281
0.0091925639
0.02246298
0.038351371
0.51721136
0.50882641
0.037948863
0.022237516
0.0091078682
0.0015669169
0.0015564603
0.0090251122
0.022019475
0.037563397
0.5015884
0.49526227
0.037196333
0.021809124
0.0089441778
0.0015473054
0.0015392265
0.0088663762
0.021609236
0.036851186
0.48967347
0.48471075
0.036528233
0.021420119
0.0087917703
0.0015320076
0.0015255878
0.0087211811
0.021242628
0.036227288
0.48026181
0.47625935
0.035946048
0.021075338
0.0086539842
0.0015198013
0.0015146437
0.0085910224
0.020919428
0.035685237
0.47264625
0.46936607
0.035440865
0.020772375
0.0085311852
0.001509953
0.0015057551
0.0084754462
0.020635779
0.03521455
0.46638273
0.46365938
0.035002361
0.020507031
0.0084225933
0.0015018948
0.0014984219
0.0083736937
0.020387941
0.034806237
0.46117359
0.45889029
0.034622299
0.020275817
0.008327447
0.001495187
0.001492273
0.0082851192
0.020172975
0.034453398
0.45680978
0.45489768
0.034295375
0.020076488
0.0082452764
0.0014895359
0.0014870887
0.0082094028
0.019989223
0.034152056
0.45316683
0.45158898
0.034018676
0.019907783
0.0081758074
0.0014847853
0.0014827497
0.0081459279
0.019834818
0.033898578
0.45015865
0.44885581
0.033786803
0.019766668
0.0081178848
0.0014808229
0.0014791383
0.0080931917
0.019706045
0.033686641
0.44767338
0.44662836
0.033595539
0.019650375
0.0080702512
0.0014775467
0.0014761719
0.0080501297
0.01960063
0.033512898
0.44566218
0.44478098
0.0334356
0.019553659
0.0080309018
0.0014748386
0.0014737103
0.008014462
0.019512874
0.033367768
0.44398376
0.44325983
0.033304129
0.019474203
0.0079986342
0.0014726025
0.0014717029
0.007985715
0.019442227
0.033251228
0.4426574
0.44227091
0.033212413
0.019417306
0.0079749779
0.0014708898
0.0014827271
0.0081104034
0.019791898
0.033909855
0.44292726
0.4433613
0.033947875
0.019815266
0.0081202643
0.0014834497
0.0014844526
0.0081345717
0.019850656
0.034005849
0.44398072
0.44469719
0.034063703
0.019885412
0.0081488249
0.0014854487
0.001486694
0.0081668223
0.019930091
0.034137503
0.44549547
0.44637449
0.034209685
0.019973572
0.0081846581
0.0014879324
0.0014894321
0.0082064242
0.020027357
0.03429839
0.44734572
0.44841226
0.034387774
0.020081195
0.0082284778
0.0014909521
0.0014927406
0.0082544413
0.020144925
0.034492594
0.44959852
0.45090163
0.034600693
0.020210365
0.0082813654
0.001494593
0.0014967385
0.0083126208
0.020286837
0.034726352
0.45233455
0.45391441
0.034857129
0.020366097
0.008345269
0.0014989799
0.0015015289
0.0083823429
0.02045639
0.035005194
0.45564847
0.45755299
0.035161037
0.020550937
0.0084213243
0.0015042158
0.0015072342
0.0084648019
0.020656719
0.035334666
0.4596404
0.46192158
0.0355174
0.020767553
0.0085104498
0.0015104415
0.001514029
0.008560626
0.020890005
0.035719148
0.46441723
0.46714022
0.035930869
0.021017872
0.0086130065
0.0015178767
0.0015221835
0.0086698067
0.021157511
0.036162596
0.47011975
0.47338507
0.036406178
0.021303332
0.0087289308
0.0015268636
0.0015321225
0.0087923788
0.021461141
0.036670901
0.4769795
0.4809525
0.036950764
0.021626606
0.0088584842
0.0015379208
0.0015444718
0.0089290612
0.021805084
0.037254596
0.48537124
0.49031461
0.037577515
0.021992822
0.0090025681
0.0015517758
0.0015600597
0.0090802411
0.022193714
0.037926067
0.49588408
0.50220745
0.038296056
0.022404274
0.0091605847
0.0015694018
0.001580134
0.0092441538
0.022626323
0.0386905
0.50946783
0.51789615
0.039104097
0.022856441
0.0093292753
0.0015925769
0.0016074666
0.0094177944
0.023100435
0.039543629
0.52787169
0.54013075
0.040038824
0.023373549
0.0095223323
0.0016269644
0.001654964
0.0096729629
0.023756106
0.040733622
0.55576461
0.57619011
0.041910013
0.024400967
0.0098549652
0.0016899669
0.0017440745
0.010518108
0.026061084
0.044663749
0.61019518
0.63678882
0.046648165
0.027272267
0.011066277
0.0017901158
0.0018040754
0.011418862
0.02810041
0.047875094
0.65659415
0.65887358
0.051640565
0.030028135
0.012019373
0.001802686
0.5098029
0.06328705
0.035597184
0.013962984
0.0020042029
0.0018822875
0.012359893
0.030679833
0.053266127
0.64578825
0.73721139
0.044184245
0.026490544
0.010962641
0.0017867412
0.0017606646
0.010915268
0.026734846
0.0457159
0.67894123
0.66608212
0.048257808
0.02787641
0.011236615
0.0017757366
0.0017729033
0.011089192
0.027556697
0.04740275
0.63852927
0.60297154
0.043186125
0.025256952
0.010200892
0.0017213435
0.0016736338
0.009679085
0.023790046
0.040778624
0.57138339
0.55175881
0.039693626
0.023189194
0.0094764747
0.0016371722
0.0016102319
0.0093444529
0.022864067
0.039096861
0.53691262
0.52521951
0.038658218
0.02262253
0.0092502856
0.0015916722
0.001577455
0.0091700476
0.022407823
0.038266781
0.5157019
0.50762877
0.03788625
0.022197355
0.0090915373
0.0015656581
0.0015555472
0.0090131115
0.021989836
0.037516484
0.5006386
0.49451177
0.037160748
0.021786938
0.0089352314
0.0015466285
0.00153872
0.008859706
0.021592706
0.036824421
0.4890828
0.4842387
0.036506975
0.021407158
0.0087865694
0.0015316161
0.0015252871
0.0087172038
0.021232745
0.036210999
0.47988625
0.47596376
0.035933181
0.02106759
0.0086508713
0.0015195679
0.0015144645
0.0085886122
0.020913444
0.035675257
0.47240953
0.46917866
0.035432962
0.020767649
0.0085292845
0.001509815
0.0015056511
0.0084739935
0.020632208
0.035208596
0.466238
0.46354644
0.034997541
0.020504133
0.0084214099
0.0015018129
0.0014983585
0.0083727642
0.020385697
0.034802499
0.46108253
0.45881846
0.034619672
0.020274179
0.0083267458
0.0014951403
0.0014922401
0.008284605
0.020171773
0.034451428
0.45675684
0.45485997
0.034294041
0.020075614
0.0082448875
0.001489512
0.0014870728
0.0082091168
0.019988569
0.034150979
0.45313373
0.45157371
0.034018626
0.019907639
0.008175699
0.0014847794
0.0014827534
0.0081459688
0.019835003
0.033898954
0.45015239
0.44886534
0.033787814
0.019767172
0.0081180454
0.0014808345
0.0014791605
0.0080935137
0.01970696
0.033688303
0.44768952
0.44662124
0.033594597
0.01964996
0.0080701568
0.0014775511
0.001476172
0.0080500415
0.019600396
0.033512515
0.44565091
0.44477098
0.033434712
0.019553146
0.0080307162
0.0014748314
0.0014737024
0.0080143302
0.019512563
0.033367281
0.4439717
0.44325558
0.033303006
0.019473547
0.0079983916
0.0014725871
0.0014716855
0.0079855113
0.019441725
0.033250404
0.44264253
0.44227682
0.033211272
0.019416581
0.007974686
0.0014708646
0.0014199623
0.0074623835
0.018027694
0.030602643
0.49687754
0.49743898
0.030640218
0.018050848
0.0074720832
0.0014206635
0.0014216008
0.0074856956
0.018084639
0.030695422
0.49816404
0.49897753
0.030748383
0.01811679
0.0074989019
0.0014225151
0.0014236525
0.0075155841
0.018158129
0.030816067
0.49987705
0.50086427
0.030881914
0.018198171
0.0075320348
0.0014247778
0.0014261353
0.0075520589
0.018247484
0.030962404
0.50195182
0.50314778
0.031043168
0.018296774
0.0075723475
0.0014275108
0.0014291319
0.0075964202
0.01835573
0.031139151
0.50446602
0.50591581
0.031237887
0.018416035
0.0076212621
0.0014308016
0.0014327282
0.0076499352
0.018485783
0.031350977
0.50751318
0.50927619
0.031470126
0.018558786
0.0076800996
0.0014347469
0.0014370403
0.0077143494
0.018641904
0.031604944
0.51123065
0.51336964
0.031746275
0.018728799
0.0077503566
0.0014394555
0.0014421746
0.0077907044
0.018826756
0.031905384
0.51571463
0.5182766
0.032071779
0.018928878
0.0078328873
0.0014450576
0.0014482908
0.007879224
0.019041736
0.032255666
0.5210775
0.52413502
0.032448908
0.019159629
0.0079275526
0.0014517697
0.0014556734
0.0079796582
0.019287483
0.032658647
0.52748171
0.53114765
0.03288028
0.019421445
0.0080339645
0.0014599472
0.0014647643
0.0080919388
0.019565547
0.033119576
0.53518019
0.53962227
0.033372491
0.019716306
0.0081520941
0.00147009
0.0014760921
0.0082155223
0.019876902
0.033643799
0.54453561
0.54998753
0.033929342
0.020043653
0.0082805572
0.0014827584
0.0014902564
0.0083473673
0.020217602
0.034230914
0.55606662
0.56288067
0.034542196
0.020393666
0.0084137223
0.0014986318
0.0015081607
0.0084788666
0.020570163
0.034860674
0.57058477
0.57937686
0.035175443
0.020739989
0.0085399812
0.0015191298
0.0015322472
0.0085988417
0.020903493
0.035483668
0.58956722
0.60178758
0.035801004
0.021070882
0.0086634803
0.0015490817
0.0015733472
0.0087574635
0.02129629
0.036216315
0.61680732
0.6354551
0.036933517
0.021707791
0.0088962936
0.0016062547
0.0016536488
0.0092666498
0.022707279
0.038497036
0.66305768
0.69023102
0.041536705
0.024726484
0.01018526
0.0017178333
0.0017632274
0.010871905
0.026364123
0.043873058
0.70003742
0.65598316
0.053227352
0.03077483
0.01234888
0.0018338568
0.0018245364
0.011590521
0.028599888
0.048795204
0.65506373
0.63301697
0.043897789
0.025904612
0.010575364
0.0017670143
0.0017464466
0.010512828
0.026040311
0.044804481
0.60815955
0.57237884
0.041700793
0.024224248
0.0097505924
0.001686293
0.0016528049
0.0096069437
0.023620928
0.040541725
0.55210361
0.53669094
0.039861869
0.023255584
0.009468595
0.0016248117
0.0016054861
0.0093744854
0.023003916
0.039395063
0.52482154
0.51525534
0.038981975
0.022778092
0.0092945662
0.0015908724
0.0015786516
0.0092157846
0.02256147
0.038588259
0.50721337
0.50029867
0.038211484
0.022351217
0.009137547
0.0015681236
0.0015589574
0.0090613856
0.022149713
0.037855216
0.49428091
0.48897446
0.037519774
0.02195731
0.0089874054
0.001550845
0.0015436832
0.0089166703
0.021775606
0.037206216
0.48426139
0.48003256
0.036912421
0.021603446
0.0088487251
0.0015372769
0.0015315856
0.0087843263
0.021441596
0.036638199
0.4762247
0.47276354
0.036381298
0.021288534
0.0087227326
0.0015264397
0.0015218331
0.0086646073
0.021144691
0.036140804
0.469618
0.46672806
0.035915273
0.021008713
0.008609151
0.0015176127
0.0015138076
0.008557228
0.020881509
0.035704472
0.46408155
0.46163615
0.03550658
0.020761375
0.0085078606
0.0015102717
0.0015070795
0.0084622825
0.020650281
0.03532338
0.45940036
0.45733851
0.035152465
0.020546156
0.0084193305
0.0015040921
0.0015014069
0.0083802626
0.020451021
0.034995798
0.45546588
0.45374902
0.034850661
0.020362497
0.0083437199
0.0014988853
0.0014966418
0.0083109472
0.02028248
0.034718701
0.45219845
0.45077878
0.034596951
0.020208277
0.0082803701
0.0014945301
0.0014926761
0.008253278
0.02014184
0.034487076
0.4495032
0.44832853
0.034386496
0.020080551
0.0082280422
0.0014909252
0.0014894011
0.0082057587
0.020025493
0.034294887
0.44728415
0.44631978
0.034212054
0.01997499
0.008184978
0.0014879499
0.0014867025
0.0081667477
0.019929622
0.034136131
0.44546043
0.44465521
0.034067015
0.019887564
0.0081494892
0.0014854924
0.0014844688
0.0081345508
0.019850126
0.034004067
0.44393555
0.44325695
0.033945718
0.019814724
0.0081200762
0.0014834519
0.0014826334
0.0081084086
0.0197857
0.033897383
0.44270912
0.4429064
0.033905364
0.019788942
0.0081092388
0.0014826101
0.0014834748
0.008120775
0.019816467
0.033948813
0.44334024
0.44395798
0.034002985
0.019848718
0.0081338372
0.0014843866
0.0014855029
0.008149652
0.019887563
0.034066576
0.44467965
0.44547462
0.034134218
0.019927967
0.0081660449
0.0014866341
0.0014879845
0.0081853954
0.019975472
0.034212153
0.44635147
0.44732166
0.03429508
0.02002522
0.0082056409
0.0014893752
0.0014910016
0.0082290972
0.020082636
0.034389279
0.4483928
0.44957757
0.03449045
0.020143448
0.0082538991
0.0014926984
0.001494645
0.0082820809
0.020212163
0.034603021
0.45088482
0.45231983
0.034724354
0.020285456
0.0083121167
0.0014966988
0.0014990254
0.0083458737
0.02036756
0.034858886
0.45390349
0.45563544
0.035003353
0.020455103
0.0083818745
0.0015014912
0.0015042542
0.0084218467
0.020552169
0.035162466
0.45754334
0.45963018
0.035332686
0.020655414
0.0084643542
0.0015071965
0.0015104729
0.0085109678
0.020768763
0.035518909
0.46191173
0.46440313
0.035716959
0.020888602
0.0085601649
0.001513984
0.0015178887
0.0086134186
0.021018741
0.035931911
0.46712315
0.47009371
0.036159857
0.021155835
0.0086693184
0.0015221162
0.0015268318
0.0087291942
0.021303444
0.036405796
0.47334578
0.47691569
0.036666773
0.021458831
0.0087918457
0.001531997
0.0015377834
0.0088584858
0.02162529
0.036947612
0.48085234
0.48521583
0.037246461
0.021800706
0.0089281004
0.0015441872
0.0015513884
0.0090015458
0.02198755
0.037567066
0.49007812
0.49553236
0.03790761
0.022183655
0.0090777106
0.0015594314
0.0015685387
0.0091568547
0.0223899
0.038269499
0.50170151
0.50875762
0.038649159
0.022603237
0.0092376841
0.0015789075
0.0015910228
0.0093202993
0.022824076
0.039046241
0.51693885
0.5266257
0.039462997
0.023054933
0.0094062351
0.0016055904
0.0016247525
0.009508895
0.023316764
0.039936388
0.53857179
0.55392165
0.040602689
0.023682166
0.0096571824
0.0016526483
0.0016896541
0.0098705393
0.024335361
0.041790197
0.57439994
0.6080898
0.044461539
0.025956857
0.010474754
0.0017395227
0.0017917454
0.011149233
0.027484204
0.047227708
0.6372442
0.6548731
0.046246326
0.027238371
0.011119548
0.0017757353
1.5434192
2.6865107
1.9539552
0.70201624
0.043953175
0.026359321
0.010844439
0.0017651627
0.0017937807
0.011418835
0.028412876
0.049298057
0.66364461
0.0019657131
0.013526805
0.03435792
0.060867726
0.50629171
0.43880396
0.057427452
0.03241061
0.012766594
0.0018881861
0.001893222
0.012707697
0.032343307
0.057392787
0.43648937
0.58221979
0.055044279
0.031340941
0.012500118
0.0018633305
1.0565956
1.267498
2.4675817
1.9660565
8.1747613
8.2634491
8.2385906
8.1747154
8.1545026
8.1971087
8.1961427
8.1530073
0.0014708961
0.0079750891
0.019417588
0.033213052
0.44224302
0.44262995
0.033246578
0.019438842
0.00798431
0.0014715919
0.0014725923
0.0079986569
0.019474412
0.033304913
0.44323804
0.44395311
0.033361376
0.019508519
0.0080127004
0.0014735747
0.0014748074
0.0080306346
0.019553106
0.033435001
0.44474056
0.44560968
0.033505783
0.01959585
0.0080481897
0.0014760225
0.0014774936
0.0080696129
0.019648782
0.03359302
0.44656864
0.44762441
0.033679254
0.019701145
0.0080912093
0.0014789856
0.0014807613
0.0081171969
0.019765086
0.033784462
0.44879011
0.45007742
0.033890059
0.019829351
0.0081437412
0.0014825848
0.0014847092
0.0081748721
0.019905543
0.034015114
0.45149508
0.45305729
0.034142983
0.019983496
0.008207116
0.0014869187
0.0014894467
0.0082441324
0.020073701
0.034290773
0.45477751
0.45666675
0.034443921
0.020167063
0.0082827538
0.0014920982
0.0014950807
0.0083260355
0.020272289
0.034616298
0.45873287
0.46098998
0.034796024
0.020381646
0.0083711854
0.0014982334
0.0015017573
0.0084207986
0.020502482
0.034994568
0.4634538
0.46614209
0.035202054
0.020628224
0.0084724772
0.0015055306
0.0015097574
0.0085286298
0.020765856
0.035429795
0.46908438
0.47231232
0.035668724
0.020909421
0.0085870923
0.0015143489
0.0015195105
0.0086500473
0.021065205
0.035929041
0.47586962
0.47980965
0.036204366
0.021228748
0.0087158069
0.0015251956
0.0015316026
0.0087861365
0.021405355
0.036503628
0.48419369
0.48909707
0.036820762
0.021590619
0.0088592725
0.001538714
0.00154674
0.0089362967
0.021788032
0.037161722
0.49461364
0.5008716
0.037520686
0.021993167
0.0090153967
0.0015557465
0.001566081
0.0090970659
0.022207755
0.037900902
0.50804924
0.51638639
0.038295678
0.022427674
0.0091796997
0.0015781186
0.0015927459
0.009267982
0.022661721
0.038717282
0.52627098
0.53850343
0.039212174
0.022936785
0.0093745961
0.0016119043
0.0016395541
0.0095289855
0.023338511
0.039934352
0.55415375
0.57474054
0.041187596
0.024030333
0.0097302428
0.0016736788
0.0017274482
0.01045682
0.025800957
0.044145999
0.60879694
0.63434598
0.045139133
0.026470944
0.010733052
0.0017466839
0.0017879855
0.011370215
0.028318369
0.049142377
0.65934803
0.044671052
0.026744593
0.011096369
0.0017939426
0.0017605875
0.0105132
0.025180057
0.041836227
0.7203169
0.62342858
0.047746813
0.027647518
0.011191043
0.0018180583
0.0018627026
0.012404253
0.031148057
0.055078099
0.57658286
0.67276198
0.046629904
0.027121038
0.011079158
0.0017686449
0.0017879451
0.011370906
0.028319868
0.049144813
0.65951137
0.63445968
0.045142641
0.026472676
0.010733828
0.0017466984
0.0017274807
0.01045758
0.025802631
0.044149194
0.60887214
0.57480218
0.041188308
0.024030999
0.0097306366
0.001673706
0.0016395804
0.0095293571
0.023339075
0.039934952
0.55421969
0.53857659
0.03921489
0.022938665
0.0093754578
0.001611961
0.0015928123
0.0092686826
0.022663232
0.038719498
0.52634936
0.51646415
0.038298989
0.022429709
0.0091804916
0.0015782033
0.0015661673
0.009097658
0.02220921
0.037903295
0.50812975
0.50094619
0.037524132
0.02199515
0.0090160927
0.0015558453
0.0015468356
0.0089368112
0.021789393
0.03716411
0.49469144
0.48916808
0.036824248
0.021592587
0.0088599351
0.001538819
0.0015317029
0.0087866379
0.02140672
0.036506129
0.48426856
0.47987355
0.036208328
0.021230932
0.0087165267
0.001525307
0.0015196115
0.0086505302
0.021066466
0.035931287
0.47592841
0.47235303
0.035671623
0.0209111
0.0085876532
0.0015144495
0.0015098411
0.0085289249
0.02076656
0.035430998
0.46911865
0.46616855
0.035205794
0.020630363
0.0084731834
0.0015056284
0.0015018468
0.0084213466
0.020503789
0.034996694
0.46349015
0.4610271
0.034801008
0.02038461
0.0083722294
0.0014983446
0.0014951891
0.0083269803
0.020274547
0.034619907
0.45878346
0.45671623
0.034451348
0.020171482
0.0082843619
0.0014922388
0.0014895849
0.0082455407
0.020077044
0.034296032
0.45484218
0.4531103
0.034151029
0.019988462
0.0082089832
0.0014870798
0.0014848528
0.0081762892
0.019908734
0.0340198
0.45154388
0.45012007
0.033898287
0.019834469
0.0081456599
0.0014827484
0.0014809057
0.0081186732
0.019768408
0.033789327
0.44884034
0.44768104
0.033689114
0.019707151
0.0080934272
0.0014791612
0.0014776509
0.0080713431
0.019652733
0.033598881
0.44662975
0.44565364
0.033513736
0.019600972
0.0080501526
0.0014761868
0.00147494
0.0080319917
0.019556026
0.033439025
0.44477667
0.443966
0.033368067
0.019512939
0.0080143855
0.0014737149
0.0014726895
0.0079995182
0.019475945
0.033306363
0.44323338
0.44255822
0.033248114
0.01944051
0.0079850163
0.0014716691
0.0014708308
0.0079728905
0.019410114
0.033197155
0.44195263
0.44146186
0.033154214
0.019383473
0.0079617861
0.0014700083
0.44275654
0.033893864
0.019782491
0.0081069334
0.0014824911
0.0014833902
0.0081194777
0.019813444
0.033944235
0.44325009
0.44388604
0.033994728
0.019843926
0.0081320511
0.0014842755
0.0014854122
0.0081484929
0.019884944
0.034062669
0.44460692
0.44540395
0.03412717
0.019923755
0.0081644132
0.0014865205
0.0014878819
0.0081841725
0.019972781
0.034208236
0.44627979
0.44724291
0.034287567
0.020020645
0.0082038275
0.0014892434
0.0014908754
0.0082275822
0.02007927
0.034384297
0.44830384
0.44947034
0.034481334
0.02013796
0.0082517099
0.001492538
0.0014944851
0.008280038
0.020207425
0.034595593
0.45075157
0.45215712
0.034713072
0.02027875
0.0083094525
0.0014965094
0.001498841
0.0083434101
0.020361644
0.034849143
0.45371301
0.45543146
0.034991062
0.020447864
0.0083789886
0.0015012874
0.0015040535
0.0084191869
0.020545845
0.035152008
0.4573111
0.45936408
0.035318647
0.02064723
0.0084610694
0.0015069607
0.0015102224
0.0085076326
0.020760767
0.035505459
0.4615988
0.46402752
0.035699584
0.02087845
0.0085560402
0.0015136837
0.0015175517
0.0086088501
0.021007802
0.0359134
0.46667099
0.4695469
0.036136295
0.021141976
0.0086635831
0.0015217113
0.0015263704
0.0087224637
0.021287609
0.036379252
0.47268898
0.47613303
0.036633896
0.021439119
0.0087834214
0.0015314603
0.0015371916
0.0088484103
0.021602381
0.036910073
0.47992874
0.48413666
0.037201374
0.02177287
0.0089156639
0.0015435415
0.0015507346
0.0089867775
0.021955465
0.037516093
0.48883314
0.49412069
0.037849388
0.022146405
0.0090601467
0.0015588011
0.0015679955
0.009136619
0.022348663
0.038206659
0.50012298
0.50701741
0.038581439
0.022557598
0.0092142999
0.0015784869
0.0015907383
0.00929336
0.022774908
0.038976139
0.51504282
0.52458839
0.039387657
0.022999667
0.0093728207
0.0016053271
0.0016246769
0.0094670247
0.023251705
0.039855048
0.5364366
0.55182036
0.04053333
0.023615973
0.0096048911
0.0016526467
0.0016861616
0.009748397
0.024219163
0.041692272
0.57205912
0.60779482
0.0447946
0.02603486
0.010510556
0.0017462833
0.0017668847
0.010572876
0.025898746
0.043887769
0.63257089
0.65455566
0.048779625
0.028591468
0.011586537
0.0018244794
0.0018340325
0.012339044
0.030771184
0.053229677
0.65543166
0.69941135
0.043868893
0.026361261
0.010870008
0.0017632345
0.0017754797
0.011236729
0.027875149
0.0482567
0.66542357
0.660817
0.047001034
0.027265254
0.011024787
0.0017608614
0.0017186562
0.010282347
0.024804551
0.041034209
0.69721514
0.65433289
0.046228759
0.027228852
0.011113839
0.0017756254
0.0018038587
0.01141059
0.028087242
0.047853076
0.65619014
0.70163454
0.043935761
0.026348733
0.010837838
0.0017650047
0.0017934872
0.011412158
0.028401491
0.049280894
0.66349177
0.63695304
0.044396059
0.026077417
0.010581327
0.0017418602
0.0017229112
0.010385267
0.025642649
0.043924187
0.61112707
0.57678036
0.041194718
0.024018074
0.0097186541
0.0016720374
0.0016387256
0.0095206183
0.02333123
0.039943577
0.55541678
0.53937019
0.039219016
0.022933497
0.0093704856
0.0016114949
0.001592583
0.0092669326
0.022662292
0.038724855
0.52693711
0.51693244
0.038305708
0.022431421
0.0091805901
0.0015781137
0.0015661693
0.0090988995
0.022212873
0.037911637
0.50852603
0.50129303
0.03753335
0.021999922
0.009017945
0.0015559076
0.0015469374
0.008939
0.02179484
0.03717394
0.49499722
0.48943872
0.036833658
0.021598003
0.0088621505
0.0015389395
0.0015318291
0.0087887822
0.021411999
0.036515189
0.48450478
0.48007965
0.036216511
0.021235769
0.0087185004
0.0015254293
0.0015197243
0.008652288
0.021070803
0.035938621
0.47610556
0.47250761
0.035678409
0.020915075
0.008589245
0.0015145535
0.0015099341
0.0085303098
0.020770032
0.035436929
0.46925411
0.46628693
0.035210756
0.020633268
0.0084743481
0.0015057089
0.0015019181
0.0084223767
0.020506393
0.035001179
0.46358908
0.4611072
0.03480359
0.020386238
0.0083729368
0.0014983975
0.0014952301
0.0083275357
0.020275891
0.034622177
0.45883758
0.45675793
0.034451225
0.020171587
0.0082844907
0.0014922562
0.0014895895
0.0082455556
0.020077029
0.034296023
0.45485722
0.45312449
0.034150385
0.019988122
0.0082088762
0.0014870752
0.001484846
0.0081762132
0.019908596
0.034019723
0.45155451
0.45011969
0.033898327
0.019834446
0.0081456386
0.0014827444
0.0014809046
0.0081187145
0.01976859
0.033789778
0.44885267
0.44767805
0.033687481
0.019706317
0.0080931611
0.001479146
0.0014776289
0.0080710213
0.019651917
0.03359755
0.44661502
0.4456495
0.033512431
0.019600195
0.0080498481
0.0014761637
0.0014749176
0.0080317186
0.019555376
0.03343803
0.44476745
0.4439852
0.033368553
0.019513085
0.0080143849
0.0014737058
0.0014726875
0.0079996037
0.019476257
0.033307027
0.44324817
0.44256934
0.033246925
0.019439929
0.0079848393