/*--------------------------------*- C++ -*----------------------------------*\
  =========                 |
  \\      /  F ield         | OpenFOAM: The Open Source CFD Toolbox
   \\    /   O peration     | Website:  https://openfoam.org
    \\  /    A nd           | Version:  7
     \\/     M anipulation  |
\*---------------------------------------------------------------------------*/
FoamFile
{
    version     2.0;
    format      ascii;
    class       volScalarField;
    location    "220";
    object      k;
}
// * * * * * * * * * * * * * * * * * * * * * * * * * * * * * * * * * * * * * //

dimensions      [0 2 -2 0 0 0 0];

internalField   nonuniform List<scalar> 
24789
(
127.61567
216.18255
299.59222
377.7195
811.78459
813.28988
378.41276
300.13235
216.54393
127.73219
127.89442
217.05127
300.88922
379.37224
815.23155
817.42441
380.34212
301.6363
217.5451
128.04869
128.24228
218.15696
302.55133
381.50738
819.83624
822.48817
382.69731
303.46916
218.76417
128.43087
128.66118
219.49627
304.56293
384.08974
825.4103
828.63041
385.54984
305.69319
220.24609
128.89335
129.17116
221.13427
307.02032
387.24033
832.19097
836.11451
389.02576
308.40815
222.05796
129.45668
129.79274
223.13734
310.02062
391.07978
840.41176
845.13966
393.2555
311.71821
224.2703
130.14264
130.54796
225.57553
313.66687
395.73665
850.31635
855.98445
398.37253
315.728
226.95307
130.97345
131.45848
228.51336
318.05716
401.33665
862.16609
868.91283
404.49791
320.53129
230.16608
131.97213
132.55187
232.0102
323.2899
408.0118
876.25196
884.23712
411.76572
326.22436
233.96465
133.1722
133.86977
236.11773
329.45733
415.89453
892.90057
902.30468
420.31605
332.90334
238.40325
134.62663
135.47979
240.90048
336.66974
425.14519
912.49886
923.55974
430.33228
340.69729
243.56124
136.42024
137.48691
246.46248
345.09189
435.99518
935.55273
948.58121
442.09497
349.80575
249.56502
138.67791
140.03592
252.94493
354.94854
448.76152
962.74379
978.1695
455.97286
360.48456
256.56787
141.56734
143.31879
260.49803
366.51685
463.86099
994.99621
1013.403
472.44288
373.03432
264.71021
145.31703
147.64944
269.26435
380.18038
481.91237
1033.5784
1055.7717
492.49865
388.12537
274.13713
150.38933
153.85724
280.27878
397.65869
504.94131
1080.2849
1106.5676
520.38198
410.03781
289.35239
159.03321
166.78192
298.75909
425.82777
539.95991
1132.5183
1162.6834
567.7238
450.351
317.4465
175.18219
181.12787
334.65415
471.45795
589.3442
1192.9692
1223.3799
633.19379
512.12002
366.29849
193.19974
200.72516
397.52958
556.85856
685.85883
1248.4795
1233.6092
598.43234
486.10908
349.23691
187.09231
178.32402
323.68429
453.85848
566.82008
1205.3738
1174.8574
522.42848
413.84763
292.30248
167.24586
157.72946
274.2984
389.04546
494.7647
1146.2893
1121.0104
476.07363
373.55509
264.21625
150.30325
145.51547
256.13697
362.32646
462.04422
1095.2448
1071.0841
450.9245
353.8567
250.60435
142.29292
139.72654
246.14259
346.79754
441.455
1049.0642
1028.9149
432.98135
340.47228
242.11896
137.57107
135.72618
238.37753
334.64289
425.22173
1010.4303
993.47896
418.06624
329.21897
234.86357
134.10576
132.67889
231.5841
324.17772
411.44946
977.89195
963.5719
405.34179
319.4929
228.51699
131.41256
130.29668
225.67694
315.15389
399.695
950.36792
938.2064
394.4821
311.1278
223.02993
129.30238
128.4262
220.59102
307.40998
389.66771
926.97707
916.61496
385.21628
303.95625
218.31442
127.63908
126.943
216.22463
300.77781
381.11555
907.06417
898.25592
377.32747
297.82704
214.272
126.3096
125.74538
212.48583
295.11815
373.84049
890.14124
882.7219
370.64795
292.6222
210.82569
125.22649
124.76242
209.31668
290.33816
367.70892
875.87977
869.62874
365.02609
288.23834
207.91551
124.33043
123.94532
206.6544
286.32878
362.56512
863.86213
858.61214
360.32438
284.57536
205.48309
123.58404
123.26511
204.44064
282.99313
358.28001
853.79059
849.43378
356.43492
281.54879
203.47469
122.96522
122.70383
202.62377
280.25227
354.75336
845.45256
841.81249
353.23335
279.06267
201.82777
122.45489
122.24112
201.13546
278.0033
351.85381
838.55746
835.56599
350.59677
277.0204
200.47748
122.0337
121.85786
199.9112
276.15001
349.45958
832.83466
830.35441
348.41818
275.33482
199.36431
121.68373
121.53816
198.89892
274.61625
347.47637
828.09349
826.14316
346.64637
273.9609
198.45542
121.39421
121.27933
198.10015
273.41147
345.92673
824.48374
826.76464
346.79444
274.05857
198.51689
121.40839
121.53984
198.91671
274.64949
347.5323
828.29127
830.40136
348.38796
275.30599
199.34877
121.67575
121.8501
199.89931
276.13541
349.449
832.83224
835.53557
350.54088
276.97225
200.44932
122.02127
122.23099
201.11713
277.97874
351.82987
838.52095
841.80911
353.169
279.01135
201.79868
122.44225
122.69669
202.61541
280.24189
354.7457
845.43683
849.43624
356.40087
281.52207
203.46184
122.95744
123.26386
204.45214
283.01235
358.30874
853.83918
858.67625
360.33691
284.58412
205.4926
123.58266
123.94943
206.68343
286.37433
362.62687
863.97611
869.77409
365.07269
288.27647
207.94551
124.33563
124.77555
209.37504
290.42735
367.82464
876.09103
882.97423
370.75646
292.7095
210.88784
125.24162
125.76878
212.57602
295.25533
374.01624
890.4621
898.59828
377.49824
297.96381
214.3664
126.33582
126.9782
216.34456
300.95677
381.33966
907.43148
917.01319
385.45309
304.14801
218.44755
127.68048
128.4774
220.75086
307.64137
389.95144
927.40218
938.66139
394.78393
311.37807
223.20893
129.36065
130.36398
225.88932
315.45112
400.05184
950.86408
964.0946
405.71679
319.81161
228.75191
131.48334
132.75273
231.85458
324.54626
411.88268
978.45101
994.04414
418.50955
329.60198
235.14995
134.17314
135.78281
238.67957
335.05165
425.69603
1011.0003
1029.4651
433.43694
340.86645
242.41088
137.60566
139.73492
246.42511
347.18028
441.90296
1049.5845
1071.5212
451.32924
354.20223
250.8706
142.28163
145.49777
256.46049
362.68885
462.45305
1095.5396
1121.2973
476.59521
374.08758
264.78631
150.23609
157.99494
277.00194
390.48576
495.9201
1146.4042
1173.8213
523.77527
414.7715
292.6021
168.06405
176.75198
324.30484
454.80769
570.01719
1204.2012
1229.9963
575.26615
467.11585
335.66891
180.04594
199.28193
395.05527
553.27759
680.66786
1244.5804
1218.5223
615.35868
490.63501
347.2066
182.24647
186.76667
353.12502
495.39164
617.8185
1189.4159
1157.7563
570.5317
455.74224
322.75722
178.44612
167.71213
304.22797
428.01359
539.32934
1128.7825
1102.5923
516.55858
408.24685
289.31119
158.84963
153.17188
278.51104
393.99188
499.46995
1075.9305
1051.2437
486.15804
383.49502
271.49431
149.38586
146.46734
266.01573
375.0102
475.09105
1028.8813
1008.5072
465.38001
367.6019
261.21371
144.08279
142.07543
256.86351
360.91736
456.63338
989.91257
972.91143
448.65129
354.78348
252.8446
140.32938
138.80061
249.13663
349.14211
441.33353
957.31928
943.02764
434.61714
343.93874
245.69769
137.44612
136.25142
242.53238
339.14711
428.4369
929.86264
917.74694
422.74481
334.71645
239.59363
135.18292
134.23792
236.89717
330.64281
417.509
906.58294
896.2934
412.67667
326.86858
234.38763
133.38477
132.62661
232.08876
323.40161
408.23167
886.8047
878.0683
404.13039
320.18848
229.94522
131.93369
131.31433
227.98772
317.24311
400.36069
870.02181
862.61112
396.88484
314.51376
226.16019
130.74072
130.22718
224.50297
312.02482
393.7013
855.80898
849.55555
390.77291
309.72275
222.95716
129.74691
129.32005
221.57208
307.6418
388.10839
843.83599
838.60878
385.66969
305.72475
220.28347
128.91965
128.56771
219.14108
304.00352
383.45963
833.82814
829.47357
381.44144
302.41794
218.075
128.23542
127.94656
217.13836
301.00109
379.61543
825.49396
821.95048
377.97972
299.71367
216.27045
127.6741
127.43996
215.51209
298.56011
376.48541
818.67946
815.72025
375.12353
297.49007
214.79123
127.21286
127.02175
214.1745
296.54899
373.90214
813.03031
810.61395
372.79127
295.6743
213.58333
126.83385
126.68219
213.09772
294.93176
371.8277
808.5252
807.03623
371.09667
294.33799
212.6845
126.54525
127.76224
216.64942
300.29515
378.62295
813.68574
815.30795
379.36911
300.87406
217.03544
127.88513
128.05628
217.5722
301.67356
380.38166
817.40166
819.79451
381.44096
302.49162
218.11421
128.22528
128.43753
218.78793
303.49964
382.7255
822.45698
825.39992
384.04473
304.52159
219.46643
128.64816
128.90476
220.28595
305.74739
385.60703
828.64986
832.2243
387.2407
307.01424
221.1274
129.16488
129.47251
222.11336
308.48664
389.11517
836.17315
840.5079
391.10732
310.03835
223.14749
129.79178
130.16392
224.34458
311.82545
393.382
845.2574
850.46684
395.80798
313.7187
225.60815
130.55374
130.99956
227.04353
315.85897
398.52853
856.15701
862.3762
401.45021
318.14306
228.56904
131.47126
132.00428
230.27689
320.69279
404.69281
869.15722
876.54129
408.17451
323.41669
232.0941
132.5736
133.21448
234.10711
326.43169
412.01678
884.57516
893.29551
416.13255
329.64729
236.24609
133.90613
134.68562
238.59639
333.18156
420.65119
902.75893
913.02031
425.49606
336.95541
241.09766
135.53864
136.5042
243.83262
341.08294
430.79355
924.15061
936.22555
436.49679
345.5098
246.75809
137.57702
138.79858
249.95497
350.34881
442.73463
949.33786
963.59196
449.48292
355.56337
253.3906
140.17158
141.74117
257.13624
361.25783
456.86436
979.11059
996.03521
464.89894
367.42544
261.17394
143.52406
145.58478
265.5818
374.18519
473.73196
1014.5481
1034.8338
483.49317
381.62027
270.38144
147.99602
150.88715
275.69267
390.06768
494.5718
1057.1394
1081.7557
507.71195
400.34044
282.49303
154.57941
160.04811
292.65505
413.94033
524.26371
1108.1436
1133.9078
545.51171
431.63706
303.92524
168.29708
178.01282
324.13657
458.67081
576.05956
1163.2145
1193.4965
604.61269
484.92737
345.03513
184.26196
193.32324
368.92324
514.80574
635.52074
1222.5561
1247.9873
689.00301
560.13957
400.1999
201.71802
1240.3624
786.45927
644.57915
464.39789
228.882
206.94994
415.04253
579.67177
716.01416
1276.4124
1287.876
635.10141
517.57683
373.03507
195.98088
185.8333
354.61487
499.48727
624.68731
1249.7787
1222.4053
627.71228
500.65792
354.24021
184.94825
183.43118
344.1621
485.59998
606.87288
1191.4462
1158.443
564.78907
449.56539
317.57501
175.35625
165.78191
300.20624
423.59229
535.29713
1128.6737
1102.242
513.91481
405.45318
286.87198
157.64948
152.41006
277.03519
392.17741
497.66934
1075.4698
1050.7526
484.88528
382.25923
270.53305
148.89317
146.1307
265.31745
374.11762
474.15009
1028.4021
1008.072
464.66678
366.93836
260.70113
143.84594
141.90526
256.48021
360.41392
456.08176
989.51627
972.55659
448.21629
354.39388
252.55265
140.20473
138.70848
248.91432
348.8417
440.99331
957.00916
942.74124
434.33603
343.69589
245.52143
137.37574
136.198
242.39463
338.95529
428.2127
929.60878
917.52938
422.56083
334.56136
239.48405
135.14209
134.20694
236.81079
330.51909
417.36085
906.39068
896.12847
412.5549
326.76778
234.31821
133.36105
132.60896
232.03473
323.32281
408.13619
886.67348
877.96049
404.05111
320.12352
229.90113
131.92013
131.30424
227.95307
317.19207
400.29819
869.93073
862.53869
396.83961
314.47579
226.13406
130.73342
130.22213
224.48379
311.99685
393.66743
855.7641
849.5319
390.74956
309.70257
222.94304
129.7434
129.31783
221.56216
307.62746
388.09116
843.81622
838.62059
385.66735
305.72067
220.27978
128.91914
128.56892
219.14283
304.00694
383.46526
833.85675
829.53268
381.45681
302.42835
218.08129
128.23805
127.95099
217.15059
301.02043
379.6417
825.56804
821.96953
377.97338
299.71066
216.27001
127.67537
127.4405
215.51101
298.5588
376.4846
818.68903
815.7282
375.11457
297.48281
214.78651
127.21217
127.02101
214.17093
296.54441
373.89755
813.03435
810.62908
372.77711
295.66304
213.57595
126.83191
126.68012
213.09109
294.92257
371.8172
808.51804
807.06111
371.08085
294.32467
212.67531
126.54235
121.4094
198.50896
274.03596
346.74514
826.47681
828.23545
347.46256
274.58924
198.8754
121.52711
121.68575
199.37304
275.33888
348.42099
830.40189
832.83766
349.39304
276.08528
199.86435
121.83973
122.03225
200.47533
277.00729
350.57567
835.53865
838.52084
351.78287
277.93614
201.08739
122.22246
122.45322
201.82542
279.04868
353.20911
841.80929
845.43083
354.69539
280.19597
202.58292
122.68716
122.96449
203.47626
281.54127
356.41885
849.41243
853.78353
358.24342
282.9518
204.40843
123.25067
123.58268
205.48276
284.56617
360.30705
858.57349
863.83165
362.52623
286.28747
206.62299
123.93177
124.33057
207.91815
288.23381
365.01449
869.60222
875.88962
367.67864
290.30703
209.29365
124.7525
125.23047
210.83891
292.63383
370.65638
882.74199
890.19514
373.83505
295.10651
212.47526
125.73986
126.31473
214.28685
297.84364
377.34461
898.29424
907.08008
381.10305
300.75958
216.20873
126.93723
127.64071
218.31233
303.94934
385.20578
916.60973
926.94109
389.61846
307.36165
220.5542
128.41621
129.29643
222.9976
311.07878
394.42236
938.14572
950.2937
399.59311
315.05879
225.6053
130.27682
131.38965
228.43256
319.37641
405.20906
963.47357
977.7859
411.25712
323.99599
231.44304
132.635
134.04612
234.67469
328.97628
417.80577
993.34688
1010.2832
424.85779
334.28968
238.09179
135.63264
137.44645
241.73716
340.00705
432.50683
1028.7526
1048.921
440.83907
346.17221
245.61802
139.55323
142.07391
249.92811
353.06054
450.15748
1070.9766
1095.206
461.07667
361.29024
255.23678
145.22371
149.8908
263.14092
372.24512
474.86919
1121.19
1146.7615
493.09184
387.27589
273.51834
157.24636
166.32817
289.19094
409.97607
518.77332
1175.2563
1205.7005
558.4791
447.26952
319.01113
176.46064
188.01855
352.89389
490.29962
601.99388
1234.2339
1249.5299
704.70713
574.04074
412.60164
205.71421
197.42762
375.78109
523.96891
645.47574
1224.3807
1193.1023
585.90843
469.49687
333.64538
181.18015
176.90382
322.00031
456.39602
575.03196
1162.9053
1132.6664
542.86322
428.59413
300.97483
167.8867
159.64259
290.70319
411.56204
521.8184
1106.715
1080.3417
505.52554
398.27449
280.81357
154.16496
150.52283
274.2655
388.29627
492.66749
1055.7547
1033.5105
481.87747
380.14316
269.22703
147.69024
145.32239
264.62743
372.93921
472.34518
1013.3078
994.88922
463.72939
366.38823
260.38819
143.30015
141.54945
256.48416
360.38328
455.86409
978.06202
962.64189
448.65313
354.84534
252.85903
140.01088
138.66338
249.5156
349.74384
442.02476
948.48608
935.46228
435.92266
345.02426
246.40681
137.46766
136.4136
243.54049
340.66908
430.29531
923.47568
912.42699
425.10879
336.63421
240.86946
135.46791
134.62757
238.40494
332.90352
420.30888
902.25231
892.85817
415.88161
329.44247
236.10202
133.86304
133.17871
233.98238
326.24641
411.78334
884.19671
876.19884
408.00116
323.27899
231.9981
132.54681
131.97985
230.18647
320.55622
404.517
868.84722
862.08148
401.31703
318.03981
228.4969
131.45199
130.98028
226.97074
315.74846
398.38474
855.88835
850.21259
395.70813
313.64172
225.55297
130.53918
130.14892
224.28699
311.73754
393.26616
845.03382
840.30217
391.04845
309.99252
223.11198
129.78272
129.46294
222.07437
308.42622
389.03306
836.00228
832.07547
387.21998
306.99867
221.11174
129.16162
128.90067
220.26509
305.71375
385.55796
828.53778
825.31426
384.08009
304.54812
219.47718
128.65254
128.4403
218.78924
303.49823
382.71516
822.40745
819.74693
381.49936
302.53843
218.13924
128.2343
128.06071
217.57802
301.67744
380.37557
817.34804
815.15113
379.36411
300.87815
217.03563
127.88761
127.74911
216.59347
300.2004
378.4823
813.30211
813.62935
378.59429
300.2614
216.6206
127.75069
127.8946
217.05912
300.90086
379.3867
815.24285
817.33714
380.36164
301.6486
217.55048
128.04717
128.23595
218.14328
302.52854
381.47476
819.72802
822.38534
382.69404
303.46753
218.76243
128.42752
128.65764
219.49169
304.55292
384.07181
825.31928
828.57342
385.57421
305.71447
220.26002
128.89478
129.17358
221.1494
307.03903
387.25726
832.15564
836.1103
389.09896
308.46631
222.09572
129.46497
129.80103
223.17273
310.06985
391.13543
840.45064
845.21083
393.36587
311.80586
224.32771
130.15646
130.56132
225.62964
313.74451
395.82886
850.42673
856.12122
398.5147
315.84147
227.02808
130.99209
131.47734
228.58816
318.16607
401.46867
862.34864
869.1362
404.67843
320.6761
230.26269
131.99661
132.57823
232.11318
323.44064
408.19632
876.52221
884.55691
412.00066
326.41406
234.09279
133.20501
133.90661
236.26184
329.66667
416.15067
893.27725
902.7365
420.62765
333.15857
238.5797
134.67105
135.52981
241.10616
336.96121
425.49677
912.98827
924.10315
430.75305
341.04805
243.81108
136.47726
137.54675
246.75342
345.49151
436.46679
936.15653
949.24576
442.65211
350.2806
249.91353
138.7397
140.09195
253.34555
355.48462
449.38029
963.46568
978.94198
456.68788
361.10866
257.03738
141.61478
143.35227
261.04077
367.22713
464.66135
995.81394
1014.2617
473.39033
373.88816
265.37284
145.34327
147.69108
270.1379
381.26043
483.074
1034.4779
1056.708
494.06747
389.64819
275.48786
150.52198
154.15537
282.3268
399.92038
507.18472
1081.2792
1107.8075
523.78085
413.61416
292.63604
159.56
168.03426
306.07766
431.89063
545.26143
1133.5421
1162.4401
574.88507
457.76654
323.46682
177.60733
183.66478
346.83006
486.54489
607.50701
1192.8593
1220.5997
622.98945
503.52537
360.33965
188.45352
1341.7852
1396.4325
1369.1883
1233.9801
599.8171
487.53345
350.27439
187.9349
188.46543
360.82334
509.49831
637.56444
1224.0938
221.71361
450.0582
627.63193
769.17522
1237.4566
1193.8751
742.70829
601.77457
428.1826
211.37193
214.0927
433.91254
608.66881
749.23111
1194.1982
1241.0803
719.28488
580.43913
413.78938
203.88706
1323.8927
1363.8944
1424.1813
1406.4598
1258.1686
1344.67
1329.99
1258.1593
1249.251
1289.1255
1289.1589
1246.1465
126.54634
212.68549
294.32794
371.07867
807.06528
808.55297
371.76012
294.86358
213.04674
126.6628
126.83233
213.57961
295.66002
372.77222
810.63022
813.02725
373.80728
296.46041
214.11057
126.99816
127.20762
214.77671
297.4599
375.08391
815.68419
818.62415
376.37709
298.46086
215.44074
127.41381
127.66502
216.24315
299.66353
377.91314
821.87158
825.44923
379.50056
300.89789
217.06492
127.91984
128.225
218.04459
302.36557
381.37459
829.3911
833.72645
383.32663
303.88733
219.05947
128.53878
128.90653
220.24379
305.6589
385.58555
838.48401
843.69746
387.96568
307.51878
221.48617
129.29026
129.73173
222.9095
309.64535
390.67397
849.40466
855.63635
393.55027
311.89542
224.41286
130.19646
130.72241
226.10226
314.42093
396.7662
862.42822
869.82239
400.19728
317.1037
227.89103
131.28129
131.90976
229.87314
320.07576
403.98849
877.86029
886.58521
408.04094
323.24016
231.97679
132.5868
133.35017
234.29256
326.72575
412.50159
896.05572
906.32725
417.28022
330.44648
236.75811
134.18499
135.13028
239.46043
334.52438
422.51579
917.473
929.57713
428.15541
338.90231
242.35554
136.17915
137.37024
245.52214
343.69348
434.3324
942.73299
957.04651
441.00981
348.8515
248.92103
138.70291
140.21921
252.62013
354.47872
448.31066
972.63857
989.65625
456.24564
360.56206
256.59804
141.93368
143.91363
260.94253
367.23527
464.98172
1008.2751
1028.6806
474.64526
374.59358
265.70471
146.24235
149.07238
271.17997
383.03998
485.67176
1051.109
1075.9278
498.82239
393.35794
278.06102
152.67888
158.14366
288.24383
407.15386
515.58021
1102.5636
1128.7523
537.35135
425.27209
299.9515
166.28337
174.82605
320.85481
452.86012
568.74863
1159.6067
1191.1629
591.16921
473.02834
335.61527
179.76747
187.54592
358.37004
506.66173
634.61036
1223.4748
643.35923
525.8505
382.14184
198.94613
191.52223
365.1958
503.79897
618.3116
1286.748
1269.8379
675.4101
542.04796
384.90346
196.50674
200.79718
404.69032
570.63822
711.68728
1240.9458
1252.5946
630.6779
503.61963
357.88656
184.8391
187.54925
358.40293
506.68603
634.61701
1223.3035
1191.0204
591.18008
473.05231
335.64642
179.77336
174.83434
320.88604
452.88662
568.76337
1159.4699
1128.6317
537.35613
425.29094
299.97376
166.29055
158.15051
288.25815
407.16297
515.57875
1102.4646
1075.8558
498.84456
393.38452
278.0861
152.69117
149.08709
271.20336
383.06245
485.68848
1051.0583
1028.6488
474.68303
374.62995
265.7345
146.2606
143.93227
260.96901
367.26526
465.01095
1008.2668
989.66273
456.29664
360.60623
256.6305
141.95457
140.2395
252.64896
354.51544
448.35132
972.67385
957.0976
441.07254
348.90318
248.95637
138.72486
137.39117
245.55442
343.73826
434.38597
942.8174
929.67295
428.23651
338.96596
242.3965
136.20191
135.15093
239.49536
334.57498
422.57764
917.58292
906.42936
417.35643
330.50668
236.79583
134.20547
133.36744
234.32188
326.76935
412.55521
896.15978
886.69483
408.13161
323.30948
232.01847
132.60646
131.92787
229.90987
320.13076
404.05636
877.99737
869.97589
400.30573
317.18794
227.94273
131.30309
130.74369
226.15091
314.49287
396.85451
862.60949
855.8286
393.69228
312.00565
224.4817
130.22326
129.75786
222.97328
309.73846
390.78719
849.6269
843.90906
388.11986
307.64091
221.56385
129.32034
128.9335
220.30797
305.75086
385.69448
838.68198
833.92114
383.48425
304.01215
219.1383
128.56931
128.25199
218.10963
302.45903
381.48515
829.59063
825.67326
379.67853
301.03726
217.15201
127.9522
127.69398
216.31606
299.76874
378.03783
822.09576
818.81951
376.5313
298.58532
215.51971
127.44385
127.23208
214.83637
297.54484
375.18214
815.85158
813.15457
373.94136
296.56904
214.1783
127.02378
126.85046
213.6214
295.71724
372.83323
810.70928
808.50508
371.82326
294.91975
213.08102
126.67748
126.53598
212.62902
294.22402
370.91403
806.52034
804.8926
370.15228
293.61329
212.20894
126.39693
813.37511
378.41191
300.12436
216.53472
127.72509
127.87714
217.0077
300.8273
379.29873
815.10688
817.23118
380.22955
301.54759
217.48585
128.02671
128.21995
218.09843
302.46536
381.40028
819.62735
822.28735
382.57752
303.37616
218.70269
128.40775
128.64001
219.4433
304.48533
383.99296
825.22221
828.45954
385.44525
305.61201
220.19222
128.87207
129.15195
221.08887
306.95391
387.15703
832.02499
835.94415
388.94119
308.34142
222.01251
129.43742
129.77368
223.09233
309.95467
390.99651
840.24278
844.9535
393.17385
311.65392
224.22657
130.12419
130.53032
225.53289
313.60275
395.65333
850.13346
855.81989
398.29948
315.67213
226.91611
130.95782
131.444
228.4799
318.00652
401.27042
862.01881
868.77108
404.4266
320.47752
230.1313
131.95736
132.53661
231.97568
323.23748
407.9441
876.11713
884.09695
411.6881
326.16459
233.9256
133.155
133.8507
236.07589
329.39507
415.8158
892.76162
902.15392
420.21911
332.82721
238.35223
134.60386
135.45364
240.8433
336.58763
425.04421
912.34218
923.3893
430.21133
340.59769
243.49062
136.38876
137.45005
246.37786
344.97632
435.8586
935.37785
948.39764
441.93699
349.66875
249.46182
138.63527
139.98835
252.82018
354.78614
448.5775
962.55384
977.97883
455.76883
360.30071
256.42361
141.5182
143.27415
260.34023
366.31937
463.64514
994.81203
1013.2347
472.24185
372.84885
264.55997
145.28954
147.66302
269.17078
380.06528
481.78533
1033.4465
1055.6991
492.56004
388.20036
274.19308
150.49082
154.13772
280.74699
398.18621
505.42547
1080.2981
1106.6799
521.70367
411.45592
290.61969
159.6114
167.85855
300.89119
428.49103
542.75078
1132.6442
1162.8962
574.90624
456.27547
321.90108
176.87192
181.1487
333.5434
469.37722
585.78663
1193.1018
1224.401
645.35139
523.84424
375.65712
197.38143
205.6919
412.51423
574.02613
704.7097
1249.5911
1234.2111
601.9432
490.2472
352.83513
187.9919
184.89884
354.25127
500.63765
627.66999
1222.264
1218.2499
614.85815
490.16859
346.83793
182.09692
179.99045
335.44558
466.84192
574.96663
1229.7454
1220.3799
622.68241
503.25523
360.12172
188.40664
193.28031
368.60884
514.42974
635.10944
1222.3141
1233.7189
599.45564
487.21134
350.01553
187.91506
188.42212
360.5679
509.22492
637.2844
1223.8677
1191.3069
585.9904
468.49016
332.00019
178.76347
173.99476
318.49651
450.41274
566.70443
1159.8365
1129.0586
536.92672
424.55815
299.20053
166.00723
157.99166
287.95699
406.93369
515.50259
1102.8461
1076.1832
498.89728
393.34302
277.98366
152.61216
149.05132
271.19499
383.11412
485.80925
1051.3624
1028.9326
474.82992
374.72397
265.77537
146.24701
143.93375
261.03639
367.38176
465.17146
1008.5369
989.91592
456.45674
360.73027
256.71031
141.96632
140.25796
252.73416
354.64156
448.50926
972.90559
957.30863
441.21715
349.02165
249.03888
138.74633
137.41357
245.63214
343.84915
434.52079
943.00463
929.84003
428.35626
339.06546
242.46683
136.22351
135.17077
239.55781
334.6638
422.68506
917.73323
906.5731
417.45708
330.58876
236.85275
134.22372
133.38369
234.37251
326.84306
412.64603
896.30317
886.83263
408.20999
323.37312
232.0621
132.6205
131.94028
229.94898
320.18867
404.12876
878.12143
870.0767
400.35111
317.22684
227.97039
131.31222
130.75072
226.17257
314.52463
396.89383
862.67163
855.87107
393.69682
312.01322
224.48881
130.2261
129.75849
222.97487
309.74059
390.78964
849.62221
843.90528
388.11095
307.63523
221.56062
129.31934
128.93215
220.30498
305.74725
385.69114
838.67726
833.89873
383.48222
304.01011
219.13664
128.56824
128.25149
218.11013
302.46072
381.48858
829.60251
825.6505
379.65447
301.021
217.14269
127.94929
127.6901
216.30451
299.7515
378.01626
822.05005
818.79258
376.50849
298.56791
215.5083
127.43988
127.22825
214.82579
297.52947
375.16342
815.81549
813.17889
373.94162
296.56776
214.17649
127.02232
126.85031
213.62318
295.72071
372.8388
810.7283
808.51132
371.80575
294.90858
213.07506
126.67559
126.53411
212.62316
294.21566
370.90431
806.50804
804.85677
370.11043
293.5835
212.19065
126.39296
807.09156
371.07821
294.31963
212.67632
126.54174
126.68081
213.09876
294.93613
371.84056
808.57607
810.65276
372.77604
295.65544
213.57325
126.82912
127.0172
214.16514
296.53751
373.89441
813.04357
815.71269
375.08843
297.45723
214.77215
127.20547
127.43333
215.49559
298.53782
376.4638
818.66656
821.91361
377.92889
299.67101
216.24595
127.66552
127.94116
217.12586
300.98462
379.60066
825.49416
829.45388
381.40067
302.38191
218.05382
128.22763
128.56136
219.12489
303.98091
383.43564
833.79924
838.56667
385.62967
305.68807
220.26077
128.91132
129.31165
221.54885
307.60887
388.07142
843.78445
849.49174
390.71845
309.67441
222.92613
129.7362
130.21603
224.46932
311.97605
393.64403
855.71868
862.51375
396.81239
314.45161
226.12009
130.72774
131.30108
227.94677
317.18334
400.29004
869.91712
877.95893
404.03908
320.11299
229.897
131.91805
132.61084
232.04399
323.33616
408.15454
886.70015
896.18705
412.57929
326.78694
234.33419
133.36485
134.21522
236.84325
330.56602
417.42055
906.48108
917.65503
422.64035
334.62475
239.53015
135.15377
136.21531
242.46331
339.05357
428.33466
929.78509
942.96535
434.4974
343.8262
245.61428
137.39828
138.73811
249.04011
349.01972
441.21071
957.29926
972.91105
448.49957
354.62898
252.72226
140.24361
141.95866
256.71651
360.73875
456.46621
989.95019
1008.5886
465.18034
367.38254
261.0321
143.9211
146.24019
265.78668
374.74255
474.85532
1029.0144
1051.4632
485.83669
383.12913
271.20046
149.04117
152.60957
278.01337
393.38385
498.95007
1076.302
1102.9904
515.56733
406.98381
287.99308
157.98773
166.00987
299.27236
424.65044
537.03014
1129.2183
1160.0189
566.83222
450.52103
318.58318
173.99715
178.77278
332.13848
468.65164
586.1637
1191.5168
1205.7768
547.02059
437.64972
311.94788
174.05966
165.33047
287.82582
407.78083
516.32519
1176.1681
1147.4246
492.97291
386.68027
271.90069
157.24995
150.27001
263.72263
373.24115
476.12865
1122.219
1096.4267
462.77426
362.79766
256.31302
145.69564
142.56614
251.07419
354.58093
451.83938
1072.2002
1050.1019
442.34603
347.52422
246.63669
139.99144
137.80435
242.57465
341.12894
433.77361
1029.8492
1011.2698
425.91232
335.20858
238.7648
135.91667
134.26602
235.20283
329.70684
418.65468
994.22519
978.55395
411.95383
324.58759
231.86224
132.80509
131.51931
228.76048
319.84226
405.76229
964.13324
950.86075
400.0541
315.44305
225.87072
130.37783
129.37269
223.20328
311.3758
394.7794
938.61317
927.32178
389.91423
307.60627
220.72003
128.47533
127.68389
218.43615
304.12997
385.42388
916.90558
907.30275
381.28597
300.91035
216.3086
126.97059
126.33757
214.35686
297.94654
377.46824
898.46055
890.31801
373.96096
295.20806
212.53953
125.75927
125.24312
210.88179
292.69702
370.73084
882.83348
875.98076
367.78194
290.38902
209.34351
124.76603
124.33976
207.95208
288.28368
365.07224
869.67878
863.92232
362.61108
286.35633
206.66454
123.94264
123.59021
205.51132
284.60789
360.35467
858.64169
853.82655
358.30935
283.00737
204.44176
123.25942
122.96849
203.49162
281.5618
356.43759
849.40939
845.39379
354.75593
280.24473
202.61016
122.69395
122.45568
201.8356
279.06148
353.21762
841.78278
838.45644
351.82132
277.96975
201.10526
122.22669
122.03133
200.47346
277.00101
350.55856
835.44591
832.71947
349.41571
276.10642
199.87361
121.84142
121.6836
199.36703
275.32686
348.39736
830.29852
828.2033
347.51035
274.62755
198.89447
121.53152
121.41901
198.54391
274.09157
346.81712
826.67044
826.59193
346.74242
274.01782
198.48921
121.39864
121.52815
198.88298
274.59789
347.46496
828.12261
830.2229
348.33341
275.2612
199.3175
121.66413
121.83593
199.85844
276.07321
349.36846
832.64918
835.3429
350.46786
276.91587
200.41151
122.00758
122.21584
201.07467
277.91387
351.74491
838.31945
841.59884
353.10128
278.95497
201.75868
122.42686
122.67647
202.55787
280.15551
354.63502
845.19527
849.1752
356.29709
281.43663
203.40244
122.93607
123.23813
204.3764
282.89982
358.16708
853.55682
858.36221
360.18473
284.46382
205.41176
123.55568
123.92125
206.59709
286.24468
362.46169
863.63467
869.40399
364.90891
288.14611
207.85763
124.30705
124.74432
209.27674
290.27859
367.63451
875.70571
882.56878
370.56776
292.5594
210.78743
125.20911
125.73102
212.46018
295.0795
373.79261
890.03555
898.15191
377.26504
297.77797
214.24246
126.29361
126.92777
216.20103
300.74173
381.0697
906.95971
916.51136
385.16116
303.91164
218.28668
127.6215
128.40724
220.56219
307.36663
389.61262
926.86135
938.08707
394.41662
311.07541
222.99624
129.28094
130.27461
225.6442
315.10684
399.63641
950.26194
963.47616
405.2753
319.43882
228.48047
131.3888
132.65565
231.55084
324.13278
411.39607
977.82417
993.41956
418.00418
329.16679
234.82628
134.08147
135.7032
238.3435
334.59965
425.17297
1010.3968
1028.8982
432.92851
340.42454
242.08195
137.54831
139.70621
246.10856
346.75749
441.41335
1049.0756
1071.111
450.88236
353.8154
250.57012
142.27496
145.50167
256.10637
362.2918
462.01064
1095.292
1121.0772
476.03855
373.51725
264.18223
150.29243
157.72169
274.26065
389.00689
494.73199
1146.3775
1174.9645
522.38183
413.79062
292.24779
167.23467
178.30961
323.61012
453.77912
566.74479
1205.4955
1233.7536
598.38812
486.054
349.16352
187.07895
200.71633
397.43149
556.84777
685.88103