/*--------------------------------*- C++ -*----------------------------------*\
  =========                 |
  \\      /  F ield         | OpenFOAM: The Open Source CFD Toolbox
   \\    /   O peration     | Website:  https://openfoam.org
    \\  /    A nd           | Version:  7
     \\/     M anipulation  |
\*---------------------------------------------------------------------------*/
FoamFile
{
    version     2.0;
    format      ascii;
    class       volScalarField;
    location    "220";
    object      omega;
}
// * * * * * * * * * * * * * * * * * * * * * * * * * * * * * * * * * * * * * //

dimensions      [0 0 -1 0 0 0 0];

internalField   nonuniform List<scalar> 
24789
(
101093.63
31339.39
17798.203
13096.845
2154.818
2156.6336
13106.772
17810.122
31355.235
101137.62
101199.79
31375.51
17824.148
13118.128
2158.847
2161.3507
13130.791
17839.39
31396.07
101258.47
101332.71
31420.609
17856.534
13144.737
2164.1338
2167.2274
13160.225
17875.181
31445.847
101404.57
101492.86
31475.533
17896.107
13177.286
2170.6455
2174.4198
13196.301
17919.07
31506.762
101581.46
101687.88
31543
17944.76
13217.256
2178.5636
2183.1038
13240.533
17972.984
31581.537
101796.86
101925.7
31625.8
18004.486
13266.226
2188.0448
2193.4139
13294.577
18039.015
31673.188
102059.46
102214.84
31727.001
18077.345
13325.772
2199.2245
2205.497
13360.005
18119.225
31784.756
102377.57
102563.37
31849.638
18165.454
13397.531
2212.2495
2219.5079
13438.581
18215.885
31919.516
102759.71
102981.49
31997.448
18271.302
13483.417
2227.3012
2235.65
13532.335
18331.697
32081.778
103218.25
103484.35
32175.497
18397.848
13585.595
2244.5566
2254.0169
13643.551
18469.888
32277.51
103772.32
104096.59
32390.943
18548.665
13706.477
2264.0012
2274.4667
13774.864
18634.551
32515.37
104453.05
104856.54
32654.056
18728.518
13849.097
2285.3366
2296.5065
13929.731
18831.141
32807.207
105305.64
105816.25
32978.454
18943.691
14017.398
2307.8223
2319.0757
14113.013
19067.232
33168.758
106389.67
107042.63
33382.72
19204.147
14218.176
2329.9912
2340.1533
14335.628
19357.828
33624.582
107783.46
108642.74
33901.798
19533.99
14469.872
2348.8454
2355.1356
14630.269
19744.725
34220.178
109644.18
110900.11
34671.143
20025.425
14832.483
2357.2934
2347.132
15049.524
20364.22
35347.013
112750.25
115467.53
35856.183
20590.023
15166.56
2310.7268
2241.013
15108.885
20542.804
35819.296
118088.85
120039.66
36651.879
21031.881
15455.511
2211.5415
2201.3351
15610.792
21511.178
37888.673
125739.02
131654.3
39312.907
22086.301
15830.213
2253.7888
2080.2693
16017.712
21697.813
37847.853
124509.32
121451.6
36737.698
21118.038
15613.476
2057.841
2077.9619
15714.199
21080.803
36509.401
117828.18
114316.22
35754.659
20772.656
15553.168
2107.321
2124.639
15318.28
20415.486
35100.48
111575.62
109784.51
34454.615
20048.361
15059.413
2127.6649
2123.8843
14841.362
19758.553
34004.457
108563.84
107582.68
33667.358
19538.051
14670.58
2117.8548
2110.3429
14530.83
19358.412
33389.4
106752.12
106036.66
33152.445
19204.893
14410.855
2101.8485
2092.8495
14305.079
19070.076
32945.606
105404.82
104846.04
32762.662
18949.174
14209.474
2083.5999
2074.3022
14122.392
18839.585
32598.817
104348.12
103908.04
32452.467
18739.639
14042.177
2065.0679
2056.0198
13968.521
18648.266
32320.415
103514.8
103167.6
32202.044
18564.534
13900.34
2047.2123
2038.73
13837.713
18487.793
32094.519
102854.91
102578.08
31997.934
18417.442
13779.745
2030.6095
2022.9088
13726.722
18353.048
31909.667
102325.63
102100.56
31830.153
18294.023
13677.67
2015.6265
2008.8076
13633.113
18240.184
31757.157
101893.28
101707.88
31691.367
18190.898
13591.906
2002.4046
1996.4457
13554.664
18146.024
31630.659
101535.06
101381.14
31576.193
18105.037
13520.227
1990.8608
1985.6897
13489.294
18067.835
31525.808
101236.47
101109.05
31481.004
18033.957
13460.674
1980.8737
1976.4526
13435.225
18003.379
31439.505
100989.01
100884.65
31403.04
17975.656
13411.661
1972.3629
1968.6297
13390.902
17950.691
31368.987
100785.01
100699.67
31339.363
17928.071
13371.572
1965.2206
1962.1319
13354.638
17907.685
31311.379
100616.62
100546.5
31287.236
17889.186
13338.773
1959.3166
1956.8025
13324.976
17872.494
31264.101
100476.78
100418.75
31244.323
17857.291
13311.897
1954.5289
1952.5669
13300.831
17843.808
31225.466
100361.12
100315.46
31209.763
17831.678
13290.355
1950.8619
1952.5423
13301.043
17844.205
31226.558
100367.8
100419.79
31244.138
17856.96
13311.654
1954.3498
1956.5862
13324.114
17871.517
31263.018
100473.46
100543.17
31286.044
17888.257
13338.074
1959.0963
1961.8939
13353.607
17906.479
31309.864
100611.31
100695.33
31338.027
17927.102
13370.839
1964.9838
1968.3922
13389.985
17949.661
31367.65
100779.53
100881.47
31402.198
17975.096
13411.26
1972.124
1976.1994
13434.765
18002.896
31438.854
100985.55
101108.31
31480.946
18033.977
13460.724
1980.62
1985.4053
13489.31
18067.937
31525.938
101235.68
101382.59
31576.899
18105.609
13520.691
1990.5561
1996.091
13555.166
18146.786
31631.698
101536.94
101713.07
31693.19
18192.239
13592.937
2002.011
2008.3358
13634.154
18241.685
31759.291
101899.22
102109.92
31832.925
18295.984
13679.13
2015.0717
2022.2225
13728.098
18355.04
31912.61
102336.03
102592.13
32001.321
18419.701
13781.351
2029.7722
2037.7018
13839.152
18489.982
32098.018
102871.39
103187.96
32205.874
18566.833
13901.847
2045.9752
2054.5534
13969.858
18650.532
32324.539
103538
103934.89
32457.072
18742.065
14043.579
2063.3743
2072.3714
14123.574
18841.925
32603.562
104376.31
104875.42
32767.261
18951.433
14210.583
2081.4504
2090.4962
14305.778
19071.849
32949.209
105431.55
106059.02
33154.656
19206.285
14411.411
2099.3501
2107.7758
14531.501
19359.634
33389.784
106765.47
107585.36
33667.876
19540.968
14672.988
2115.3582
2121.5858
14848.254
19766.974
34010.682
108558.12
109775.13
34482.259
20071.333
15076.507
2125.8378
2124.3012
15355.455
20475.389
35197.677
111546.6
114403.01
36022.085
20855.583
15586.107
2105.8138
2071.5497
15646.357
21015.483
36452.79
117963.24
120894.43
36701.498
21061.832
15498.521
2051.5187
2068.7103
16420.433
22051.102
38210.745
122641.07
132088.42
39530.692
22184.672
15922.968
2243.558
2165.2222
15372.009
21127.621
36975.164
121537.77
122653.5
36496.391
20552.387
14802.869
2198.9499
2238.0665
15162.531
20679.186
36322.814
119798.88
116161.47
36191.804
20729.767
15269.361
2295.0748
2327.8923
15129.615
20442.271
35433.229
113043.22
111005.43
34698.313
20065.518
14887.923
2336.6999
2335.6888
14674.964
19771.039
34226.725
109627.73
108554.85
33876.214
19545.737
14504.965
2330.5089
2322.6933
14364.401
19361.175
33587.213
107670.73
106921.3
33341.647
19203.325
14243.293
2313.282
2303.0413
14136.163
19064.34
33126.693
106265.5
105688.58
32935.768
18939.347
14039.079
2292.38
2281.6088
13950.44
18825.753
32764.017
105175.3
104721.14
32609.883
18721.952
13868.682
2270.8824
2260.3786
13793.529
18626.912
32470.174
104313.63
103952.52
32344.513
18539.793
13723.989
2250.1668
2240.3635
13660.155
18459.988
32230.126
103625.71
103334.88
32127.099
18386.843
13601.117
2230.9889
2222.1286
13547.163
18319.94
32032.823
103068.41
102830.07
31947.886
18258.705
13497.324
2213.7578
2205.9317
13452
18202.79
31869.732
102608.93
102410.97
31799.464
18151.712
13410.17
2198.5989
2191.7904
13372.319
18105.163
31734.516
102225.48
102060.82
31676.375
18062.692
13337.355
2185.4213
2179.535
13305.93
18024.139
31622.586
101906.1
101770.34
31574.858
17989.083
13276.908
2174.0505
2169.0218
13251.031
17957.379
31530.556
101641.93
101530.6
31491.563
17928.592
13227.071
2164.3581
2160.1458
13206.018
17902.794
31455.406
101425.38
101335.22
31423.923
17879.413
13186.439
2156.2446
2152.7336
13169.278
17858.351
31394.199
101247.43
101173.82
31368.603
17839.255
13153.222
2149.5101
2146.6408
13139.316
17822.11
31344.196
101101.08
101042.68
31323.752
17806.721
13126.3
2144.0396
2141.9746
13115.874
17793.776
31305.277
100989.84
101147.11
31356.428
17810.33
13106.658
2156.4249
2158.5952
13117.707
17823.522
31373.975
101194.49
101260.66
31396.01
17838.89
13130.197
2161.1026
2163.9176
13144.283
17855.842
31418.889
101325.36
101406.94
31446.144
17874.992
13159.897
2167.0323
2170.4768
13177.229
17895.91
31474.519
101487.36
101585.81
31507.781
17919.426
13196.42
2174.2607
2178.4093
13217.651
17945.118
31542.8
101685.14
101803.03
31583.134
17973.773
13241.005
2182.9289
2187.8556
13266.904
18005.263
31626.251
101925.01
102067.75
31675.47
18040.288
13295.417
2193.1932
2198.9659
13326.8
18078.606
31728.216
102216.88
102387.76
31787.647
18120.928
13361.156
2205.1807
2211.8699
13398.885
18167.209
31851.678
102568.12
102772.14
31923.193
18218.112
13440.077
2219.0422
2226.7325
13485.184
18273.715
32000.569
102989.58
103234.39
32086.618
18334.683
13534.33
2234.9398
2243.6715
13587.907
18401.146
32180.12
103497.98
103794.81
32284.092
18473.906
13646.173
2252.904
2262.6049
13709.499
18553.165
32397.717
104118.79
104484.92
32524.231
18639.855
13778.233
2272.7109
2283.1363
13852.847
18734.393
32663.454
104890.51
105351.23
32818.794
18837.861
13933.814
2293.7489
2304.3833
14021.817
18951.033
32990.855
105867.15
106454.65
33183.56
19075.579
14117.817
2314.808
2324.7204
14223.535
19213.564
33399.22
107118.52
107881.42
33644.96
19369.041
14341.79
2333.6602
2340.8861
14477.287
19547.754
33927.394
108767.68
109821.62
34254.936
19761.604
14638.778
2345.3911
2345.4793
14840.463
20043.002
34711.147
111154.77
113104.08
35386.748
20381.938
15056.48
2333.7896
2296.9755
15169.327
20611.498
35928.124
115988.66
119208.03
36004.349
20567.094
15075.775
2231.3741
2203.6223
15249.55
20920.436
36682.831
121091.49
125647.99
37891.363
21488.702
15572.239
2186.2889
2234.3329
15738.563
22000.425
39261.12
131898.07
2877.4469
14719.815
21453.841
39412.356
135339.25
130279.44
39791.13
22389.458
15927.024
2336.1416
2061.3885
16961.432
23052.97
40144.781
129376.69
124317.5
38272.011
22011.768
16100.443
2168.708
2158.7174
15305.281
21132.742
37093.407
122535.83
121560.97
36471.613
20710.788
15047.651
2193.4937
2245.7708
15261.557
20765.503
36309.48
118762.14
115492.99
36168.551
20765.599
15311.239
2306.4337
2338.2739
15145.599
20451.496
35405.466
112616.9
110730.25
34687.344
20071.018
14896.691
2345.6178
2342.9281
14680.759
19775.204
34222.904
109447.68
108430.65
33871.071
19547.576
14508.449
2336.2284
2327.1554
14366.215
19361.419
33582.047
107582.63
106857.52
33336.54
19202.511
14243.939
2316.7306
2305.6835
14136
19062.85
33121.74
106218.51
105653.7
32931.226
18937.552
14038.448
2294.3946
2283.1298
13949.515
18823.834
32759.896
105148.51
104700.73
32606.202
18720.043
13867.633
2272.0308
2261.2386
13792.428
18625.086
32466.941
104298.02
103940.62
32341.714
18538.11
13722.92
2250.8102
2240.8402
13659.134
18458.446
32227.678
103616.5
103328
32125.041
18385.495
13600.199
2231.3461
2222.3926
13546.338
18318.767
32031.1
103063.18
102826.24
31946.495
18257.731
13496.634
2213.9592
2206.0881
13451.457
18202.019
31868.653
102606.13
102409.01
31798.653
18151.128
13409.757
2198.7353
2191.9084
13372.016
18104.737
31733.939
102224.13
102059.96
31676.004
18062.41
13337.162
2185.5273
2179.6372
13305.849
18024.001
31622.425
101905.93
101770.9
31574.909
17989.094
13276.94
2174.1535
2169.1286
13251.153
17957.517
31530.8
101643.07
101532.46
31492.047
17928.892
13227.321
2164.4727
2160.2287
13206.154
17902.974
31455.676
101425.97
101335.54
31424.079
17879.53
13186.55
2156.323
2152.8018
13169.303
17858.37
31394.208
101247.27
101173.69
31368.571
17839.25
13153.243
2149.578
2146.7005
13139.252
17822.022
31344.044
101100.53
101042.17
31323.564
17806.618
13126.249
2144.0919
2142.0114
13115.761
17793.629
31305.062
100989.22
100365.95
31225.75
17843.391
13300.298
1952.4967
1954.4309
13311.4
17856.387
31242.612
100413.11
100477.1
31263.595
17871.544
13324.012
1956.6761
1959.1985
13338.051
17888.029
31285.157
100538.63
100615.9
31310.796
17906.715
13353.66
1961.9946
1965.0919
13370.9
17926.994
31337.382
100691.77
100784.23
31368.516
17949.839
13390.008
1968.4957
1972.2323
13411.131
17974.762
31401.312
100877.56
100988.67
31439.166
18002.679
13434.48
1976.3046
1980.7385
13460.247
18033.185
31479.458
101102.95
101235.91
31525.378
18067.129
13488.572
1985.5313
1990.718
13519.824
18104.312
31574.727
101375.41
101535.09
31630.32
18145.423
13554.038
1996.2888
2002.2687
13591.58
18190.319
31690.162
101703.71
101894.96
31757.05
18239.736
13632.618
2008.6704
2015.5173
13677.359
18293.472
31829.091
102098.27
102327.7
31909.224
18352.355
13726.072
2022.808
2030.546
13779.067
18416.382
31996.202
102575.56
102855.54
32093.074
18486.419
13836.589
2038.7099
2047.2876
13899.143
18562.762
32199.369
103163.45
103512.44
32318.014
18646.24
13966.961
2056.2251
2065.4804
14040.618
18737.31
32449.02
103900.12
104339.12
32595.449
18837.036
14120.568
2074.9732
2084.6256
14207.756
18946.37
32758.076
104828.69
105381.39
32940.943
19067.306
14303.414
2094.3025
2103.8262
14409.895
19202.596
33147.246
105999.68
106702.6
33385.416
19357.456
14531.01
2112.8961
2121.004
14673.174
19539.866
33665.81
107513.42
108475.9
34008.607
19765.056
14847.497
2127.4692
2131.353
15071.258
20062.81
34468.045
109667.69
111414.09
35142.182
20445.038
15338.473
2127.8372
2107.5612
15572.526
20806.182
35851.151
114132.75
117316.74
36414.503
21073.005
15733.017
2073.6488
2051.2567
15790.258
21242.337
36779.075
120600.7
124877.73
38027.805
21794.311
16084.648
2071.5138
2247.3937
15668.102
22081.722
39564.11
132858.33
127048.7
38074.526
21518.259
15538.886
2197.027
2210.5091
15639.605
21233.639
36956.978
120074.49
118709.31
35899.045
20543.039
15043.825
2240.8459
2309.4926
15159.913
20597.897
35925.936
115836.96
112955.19
35389.525
20379.493
15056.324
2346.0965
2357.4599
14842.211
20040.685
34700.406
111002.42
109687.35
34233.825
19753.765
14636.996
2355.9187
2349.8463
14473.651
19538.378
33907.366
108654.54
107783.89
33626.087
19359.432
14337.294
2341.1428
2330.8814
14218.801
19204.276
33381.665
107034.87
106382.61
33167.391
19066.737
14112.958
2319.8056
2308.3986
14017.197
18942.951
32976.424
105806.5
105300.05
32805.977
18830.443
13929.324
2296.9221
2285.6274
13848.792
18727.825
32652.371
104849.07
104450.49
32514.565
18633.952
13774.403
2274.6327
2264.0909
13706.234
18548.142
32389.64
104091.92
103772.72
32277.188
18469.486
13643.155
2254.0307
2244.5402
13585.492
18397.562
32174.589
103481.61
103220.82
32081.983
18331.585
13532.117
2235.5876
2227.2281
13483.473
18271.241
31996.829
102979.52
102762.91
31919.937
18215.91
13438.446
2219.3999
2212.1419
13397.632
18165.434
31848.972
102560.86
102380.4
31785.164
18119.246
13359.852
2205.3642
2199.1021
13325.848
18077.277
31726.182
102211.38
102062.07
31673.566
18038.995
13294.373
2193.2659
2187.9096
13266.289
18004.388
31624.886
101921.74
101799.47
31581.913
17972.936
13240.28
2182.9396
2178.4209
13217.391
17944.721
31542.124
101684.03
101584.33
31507.245
17919.064
13196.048
2174.2606
2170.5128
13177.492
17896.146
31474.735
101489.3
101408.25
31446.528
17875.279
13160.035
2167.0677
2163.992
13144.985
17856.627
31419.85
101329.25
101262.79
31396.851
17839.552
13130.644
2161.1768
2158.6843
13118.338
17824.211
31374.655
101196.05
101142.81
31355.959
17810.244
13106.579
2156.4664
2156.377
13107.402
17810.988
31356.759
101145.95
101200.3
31375.431
17824.033
13117.955
2158.5256
2161.0429
13130.614
17839.159
31395.717
101257.99
101330.14
31419.897
17856.095
13144.343
2163.8277
2166.9452
13160.084
17875.01
31445.481
101403.16
101491.33
31475.319
17896.056
13177.212
2170.377
2174.1774
13196.575
17919.415
31507.092
101581.87
101688.7
31543.587
17945.29
13217.645
2178.3246
2182.8669
13241.282
17973.916
31582.719
101800.06
101928.85
31627.127
18005.505
13266.975
2187.7887
2193.1445
13295.649
18040.401
31675.046
102064.77
102219.9
31728.987
18078.819
13326.846
2198.916
2205.1527
13361.414
18121.093
31787.32
102384.73
102570.56
31852.448
18167.473
13398.982
2211.8473
2219.0395
13440.382
18218.361
31923.008
102769.12
102991.56
32001.388
18274.069
13485.375
2226.7338
2234.9641
13534.682
18335.006
32086.548
103230.76
103498.4
32180.948
18401.574
13588.173
2243.7109
2252.9769
13646.532
18474.234
32283.939
103789.29
104115.67
32398.26
18553.571
13709.783
2262.7183
2272.9044
13778.641
18640.194
32523.823
104474.79
104879.34
32663.473
18734.853
13853.274
2283.451
2294.2703
13934.513
18838.375
32817.708
105329.19
105837.54
32989.779
18951.887
14022.836
2305.2048
2316.0665
14119.633
19076.977
33181.337
106407.64
107055.2
33397.323
19216.272
14226.608
2326.5649
2336.2789
14347.324
19374.293
33643.794
107793.01
108657.25
33931.48
19558.006
14486.803
2344.4434
2349.9885
14654.296
19780.214
34273.388
109690.63
111003.81
34740.641
20071.137
14863.303
2351.2027
2341.1048
15092.802
20431.737
35446.214
112930.62
115891.36
36143.973
20689.297
15212.756
2303.7483
2235.227
15086.17
20569.724
36007.329
119000.4
120883.24
36683.925
20874.623
15166.49
2204.0134
2186.6058
15780.756
21651.448
37949.989
124252.81
1022.0925
610.35515
823.62379
2064.8665
16004.775
21687.306
37866.354
124779.8
123659.81
37195.118
21108.313
15223.42
2170.5498
133244.23
39309.663
21583.471
14930.068
2886.8787
3205.4572
15245.834
21886.576
39531.9
131913.87
132707.24
40084.812
22096.682
15331.447
3216.3972
2511.4443
15396.129
21819.288
38994.641
128868.03
1476.9311
1271.7479
679.82041
843.40515
180.66603
191.01837
189.49485
180.6657
179.82835
184.60225
184.6301
179.41377
100990.23
31304.977
17792.906
13114.984
2142.1863
2144.246
13125.748
17805.702
31321.764
101034.8
101100.53
31343.552
17821.056
13138.333
2146.7891
2149.6501
13152.401
17837.903
31366.125
101164.31
101245.36
31393.112
17857.041
13168.12
2152.8338
2156.3526
13185.44
17877.822
31421.078
101324.64
101421.75
31453.907
17901.242
13204.677
2160.2267
2164.4768
13225.96
17926.889
31488.6
101519.79
101637.78
31528.801
17955.691
13249.616
2169.1226
2174.1764
13275.627
17987.147
31571.541
101758.64
101900.8
31620.465
18022.262
13304.404
2179.6621
2185.5888
13335.976
18060.617
31672.867
102048.8
102219.45
31732.081
18103.122
13370.707
2191.9776
2198.8412
13408.692
18149.472
31795.722
102398.62
102601.66
31866.91
18200.551
13450.286
2206.2174
2214.1284
13495.75
18256.283
31943.844
102816.94
103059.01
32029.556
18317.524
13545.399
2222.5833
2231.5838
13599.567
18384.368
32122.81
103319.17
103612.25
32226.686
18457.696
13658.608
2241.1089
2251.117
13722.809
18537.646
32340.331
103931.9
104293.34
32466.953
18625.193
13792.584
2261.5472
2272.3172
13868.367
18720.719
32606.33
104693.17
105146.16
32761.837
18825.4
13950.746
2283.3223
2294.4187
14040.465
18940.065
32934.039
105651.13
106223.58
33127.08
19066.667
14138.736
2305.4024
2315.984
14247.65
19207.793
33344.017
106867.67
107607.41
33593.535
19368.406
14370.64
2325.6965
2333.7487
14512.86
19555.5
33885.684
108471.39
109512.91
34241.11
19782.266
14682.763
2339.0818
2339.8792
14889.123
20070.171
34708.49
110827.16
112793.19
35374.845
20403.466
15101.145
2328.3357
2292.1645
15198.59
20612.337
35897.769
115667.98
118580.75
35957.289
20569.86
15099.34
2232.0569
2200.6079
15323.723
20903.774
36570.561
120319.38
123344.45
37069.996
21045.998
15191.54
2183.766
16975.329
23173.862
40588.427
130687.19
127917.06
40859.536
23538.05
17390.135
2102.733
2397.8542
16654.806
23079.371
40481.71
127177.73
127934.33
38710.375
21732.703
15323.35
2545.1543
2199.7942
16004.106
21974.592
38227.37
123678.14
123346.66
37070.354
21045.516
15190.721
2182.9127
2199.9407
15322.756
20903.401
36571.204
120321.65
118583.89
35958.133
20569.692
15098.599
2231.5037
2291.6479
15198.369
20612.57
35898.831
115670.76
112795.87
35375.05
20403.313
15100.778
2327.8246
2339.3806
14888.681
20069.798
34708.309
110831.91
109518.59
34241.27
19781.977
14682.326
2338.5978
2333.3039
14512.655
19555.487
33886.335
108478.46
107614.68
33594.51
19368.571
14370.525
2325.2892
2315.6364
14247.825
19208.267
33345.408
106875.82
106231.53
33128.687
19067.299
14138.999
2305.1071
2294.193
14041.025
18940.996
32935.989
105659.79
105154.44
32764.018
18826.507
13951.407
2283.1599
2272.2363
13869.379
18722.173
32608.904
104702.21
104301.55
32469.64
18626.765
13793.648
2261.5272
2251.1659
13724.114
18539.413
32343.149
103940.12
103619.22
32229.395
18459.418
13659.839
2241.1956
2231.7242
13601.069
18386.299
32125.714
103327.13
103066.41
32032.412
18319.405
13546.783
2222.748
2214.3334
13497.411
18258.388
31946.944
102825.83
102610.38
31869.996
18202.604
13451.818
2206.4309
2199.0906
13410.585
18151.831
31799.162
102409.58
102230.11
31735.604
18105.477
13372.48
2192.2334
2185.8755
13338.084
18063.234
31676.646
102061.08
101911.85
31624.076
18024.729
13306.283
2179.9356
2174.4725
13277.816
17989.828
31575.345
101771.18
101648.86
31532.352
17958.158
13251.503
2169.3961
2164.785
13228.247
17929.666
31492.491
101533.05
101433.58
31457.655
17903.865
13206.686
2160.5149
2156.6492
13187.67
17880.545
31424.826
101336.9
101255.36
31396.418
17859.415
13169.942
2153.0957
2149.9194
13154.441
17840.342
31369.35
101174.76
101107.98
31346.212
17823.049
13139.874
2147.0165
2144.4619
13127.333
17807.512
31323.936
101040.89
100986.19
31305.222
17793.435
13115.417
2142.1428
2140.2071
13105.49
17780.983
31287.095
100932.16
2156.4305
13105.517
17808.643
31353.199
101133.66
101192.12
31372.972
17822.373
13116.667
2158.6022
2161.1109
13129.227
17837.469
31393.245
101249.26
101323.55
31417.865
17854.695
13143.268
2163.9136
2167.0285
13158.777
17873.382
31443.134
101395.16
101484.26
31473.035
17894.469
13175.997
2170.4678
2174.2587
13195.031
17917.473
31504.3
101572.77
101680.06
31540.697
17943.289
13216.115
2178.4119
2182.9507
13239.386
17971.495
31579.189
101789.07
101917.97
31623.446
18002.99
13265.078
2187.8905
2193.2616
13293.44
18037.518
31670.811
102052
102207.78
31724.629
18075.838
13324.618
2199.076
2205.3589
13358.839
18117.716
31782.444
102371.33
102557.64
31847.258
18163.868
13396.292
2212.1186
2219.3863
13437.289
18214.196
31916.983
102753.92
102975.44
31994.732
18269.505
13482.066
2227.2066
2235.6026
13530.898
18329.754
32078.802
103211.41
103476.83
32172.33
18395.809
13584.118
2244.5798
2254.1353
13642.018
18467.731
32274.061
103763.42
104086.43
32387.339
18546.5
13705.006
2264.2476
2274.8697
13773.425
18632.329
32511.492
104440.81
104842.32
32649.955
18726.289
13847.739
2285.9284
2297.3147
13928.478
18828.914
32802.874
105289.25
105797.93
32973.941
18941.54
14016.324
2308.8709
2320.3794
14112.297
19065.373
33164.369
106370.67
107025.08
33379.188
19203.024
14218.133
2331.5391
2341.9015
14336.805
19358.214
33623.183
107771.53
108644.38
33904.924
19537.253
14473.162
2350.6926
2356.8678
14636.656
19752.661
34231.069
109675.47
110992.51
34698.112
20039.699
14841.904
2358.5043
2347.2497
15056.182
20378.568
35386.993
112944.05
115827.28
35924.288
20597.419
15159.991
2310.7587
2242.1928
15043.914
20541.98
35895.837
118699.29
120063.1
36954.556
21233.133
15639.994
2212.0811
2198.7643
15540.906
21519.552
38075.227
127024.04
132832.4
39587.471
22083.864
15667.518
2249.3919
2073.323
16084.969
21794.59
38028.633
124861.83
122520.84
37094.047
21132.707
15304.487
2160.6099
2166.7751
15373.401
21125.863
36965.618
121488.21
122614.32
38209.162
22047.815
16418.222
2070.4553
2187.9979
15778.609
21646.876
37945.575
124226.17
125628.35
37884.8
21482.216
15568.771
2187.1751
2065.5249
16000.856
21680.742
37859.55
124770.76
123644.3
37188.639
21104.525
15221.47
2170.6322
2192.2671
15447.365
21019.94
36700.505
119990.6
118301.18
35931.749
20581.357
15118.653
2224.0117
2284.46
15182.185
20585.754
35846.063
115571.4
112740.13
35370.473
20398.815
15095.437
2323.638
2336.6598
14888.572
20071.981
34713.414
110804.43
109506.39
34246.26
19785.27
14683.823
2336.6578
2331.8346
14514.579
19558.86
33891.073
108474
107615.56
33598.592
19371.526
14372.331
2324.1017
2314.6278
14249.338
19210.724
33348.953
106880.45
106238.67
33131.787
19069.339
14140.256
2304.2333
2293.4317
14042.057
18942.701
32938.716
105668.03
105163.07
32766.435
18827.961
13952.291
2282.5016
2271.671
13870.138
18723.424
32611.019
104710.55
104309.23
32471.541
18627.894
13794.352
2261.058
2250.7885
13724.825
18540.511
32344.959
103947.21
103625.55
32231.154
18460.512
13660.571
2240.9092
2231.5064
13601.776
18387.344
32127.366
103332.63
103071.28
32033.964
18320.406
13547.484
2222.5894
2214.2071
13497.952
18259.185
31948.149
102829.44
102613.16
31870.943
18203.247
13452.278
2206.3309
2199.0001
13410.795
18152.189
31799.694
102410.67
102230.33
31735.789
18105.624
13372.573
2192.1498
2185.7981
13338.035
18063.214
31676.611
102060.65
101911.27
31623.948
18024.646
13306.202
2179.8726
2174.4166
13277.735
17989.734
31575.201
101770.65
101648.57
31532.274
17958.099
13251.45
2169.3681
2164.7404
13228.055
17929.464
31492.189
101531.83
101432.02
31457.236
17903.583
13206.458
2160.4664
2156.5986
13187.388
17880.215
31424.358
101335.35
101253.87
31395.947
17859.089
13169.679
2153.0454
2149.891
13154.261
17840.135
31369.094
101174.25
101108.03
31346.148
17822.977
13139.812
2146.9956
2144.4249
13127.188
17807.375
31323.767
101040.33
100985.77
31304.935
17793.238
13115.265
2142.0942
2140.1213
13105.158
17780.625
31286.651
100930.96
2142.1382
13115.596
17793.436
31304.99
100988.86
101042.38
31323.535
17806.526
13126.282
2144.2072
2146.7718
13139.004
17821.664
31343.714
101099.33
101172.08
31368.002
17838.812
13153.017
2149.6376
2152.8346
13168.823
17857.717
31393.408
101244.52
101332.57
31423.11
17878.839
13186.127
2156.3538
2160.2318
13205.517
17902.112
31454.522
101421.92
101528.43
31490.828
17928.069
13226.793
2164.4756
2169.1193
13250.532
17956.693
31529.672
101638.81
101767.81
31573.981
17988.453
13276.542
2174.1606
2179.6322
13305.343
18023.316
31621.507
101902.75
102057.41
31675.134
18061.814
13336.793
2185.5322
2191.8989
13371.537
18104.08
31733.039
102221.1
102406.41
31797.831
18150.577
13409.416
2198.7274
2206.073
13451.08
18201.51
31867.947
102603.69
102824.76
31946.037
18257.438
13496.483
2213.9394
2222.3479
13546.247
18318.64
32030.928
103062.17
103328.62
32125.392
18385.755
13600.449
2231.2849
2240.7357
13659.582
18459.065
32228.579
103617.85
103943.67
32343.406
18539.315
13723.844
2250.6511
2260.9743
13793.715
18626.868
32469.488
104302.3
104707.18
32609.866
18722.628
13869.513
2271.6208
2282.4985
13951.98
18827.325
32764.872
105156.92
105664.72
32937.94
18942.278
14041.758
2293.457
2304.2977
14140.263
19069.112
33130.759
106232.94
106877.36
33348.706
19210.747
14249.408
2314.7109
2324.2115
14372.702
19371.784
33598.259
107610.51
108471.23
33891.558
19559.428
14515.063
2331.9492
2336.7782
14684.648
19786.198
34247.034
109502.36
110803.28
34715.002
20073.216
14889.541
2336.7586
2323.7137
15096.666
20400.185
35371.396
112738.45
115572.02
35848.552
20587.839
15183.697
2284.4597
2224.0103
15120.708
20584.163
35935.615
118301.58
119993.87
36707.272
21024.095
15450.112
2192.2403
2043.1886
15896.152
21278.48
36736.1
119838.25
117006.02
35973.398
20857.278
15613.687
2047.8474
2086.9002
15471.688
20668.343
35616.182
114136.4
111559.95
35075.093
20375.394
15277.534
2110.538
2117.021
15038.86
20029.333
34441.41
109848.29
108664.65
34007.76
19752.105
14832.077
2115.5175
2111.2515
14668.053
19538.795
33677.815
107682.27
106841.22
33401.941
19362.223
14531.39
2105.0816
2097.6443
14412.946
19209.656
33163.939
106110.24
105467.35
32956.047
19074.763
14307.386
2089.4603
2080.8694
14212.006
18953.516
32771.174
104895.48
104390.2
32606.351
18843.364
14124.511
2072.0739
2063.2635
14044.306
18742.928
32458.181
103940.01
103542.6
32325.565
18651.015
13970.132
2054.5321
2046.0016
13901.985
18566.884
32205.624
103186.9
102872.66
32098.042
18489.752
13838.861
2037.7261
2029.7952
13781.052
18419.176
32000.206
102588.83
102336.65
31912.153
18354.453
13727.517
2022.2247
2015.0704
13678.715
18295.301
31831.531
102105.83
101899.79
31758.789
18241.061
13633.523
2008.3124
2001.9997
13592.589
18191.631
31691.807
101709
101538.65
31631.587
18146.425
13554.721
1996.0675
1990.5504
13520.652
18105.386
31576.022
101379.75
101238.88
31526.392
18067.952
13489.119
1985.3902
1980.6297
13460.955
18034.085
31480.482
101106.42
100990.19
31439.792
18003.246
13434.834
1976.1983
1972.1432
13411.752
17975.479
31402.023
100880.27
100785.13
31368.923
17950.262
13390.26
1968.4102
1965.0107
13371.355
17927.519
31337.816
100693.42
100615.37
31310.799
17906.862
13353.682
1961.8904
1959.0883
13338.293
17888.286
31285.197
100539.13
100475.92
31263.311
17871.464
13323.833
1956.5465
1954.3178
13311.577
17856.599
31242.647
100414.57
100369.32
31226.119
17843.696
13300.401
1952.4856
1952.5541
13300.197
17843.11
31224.92
100362.83
100414.43
31242.558
17855.894
13310.814
1954.3537
1956.5892
13323.34
17870.491
31261.497
100468.48
100537.27
31284.34
17887.09
13337.157
1959.0954
1961.8999
13352.724
17905.335
31308.182
100605.65
100689.07
31336.148
17925.812
13369.835
1964.9935
1968.4079
13388.917
17948.234
31365.568
100773.18
100873.08
31399.581
17973.283
13409.85
1972.1387
1976.2284
13433.241
18000.887
31435.947
100976.68
101097.63
31477.534
18031.62
13458.899
1980.6652
1985.4855
13487.402
18065.449
31522.315
101224.51
101370.97
31573.053
18102.973
13518.684
1990.6819
1996.2795
13553.102
18144.02
31627.665
101525.23
101700.26
31688.814
18189.218
13590.672
2002.2724
2008.6909
13631.814
18238.502
31754.667
101885.94
102094.53
31827.837
18292.506
13676.572
2015.5423
2022.8455
13725.503
18351.433
31907.226
102318.89
102571.7
31995.492
18415.904
13778.659
2030.5815
2038.7374
13836.519
18486.143
32091.888
102847.56
103159.71
32199.279
18562.902
13899.231
2047.2671
2056.1324
13967.414
18646.649
32317.613
103505.99
103899.06
32449.782
18738.203
14041.273
2065.2528
2074.5582
14121.569
18838.268
32596.257
104338.46
104836.65
32760.322
18948.096
14208.898
2083.934
2093.2543
14304.603
19069.137
32943.437
105395.07
106027.47
33150.594
19204.226
14410.639
2102.3302
2110.8942
14530.731
19357.907
33387.811
106743.06
107574.69
33666.06
19537.755
14670.678
2118.4763
2124.5648
14841.493
19758.303
34003.291
108556.83
109779.06
34453.652
20048.192
15059.619
2128.4059
2125.4373
15318.46
20415.384
35100.113
111571.19
114312.74
35753.184
20772.227
15553.29
2108.2134
2078.936
15714.585
21080.638
36508.176
117823.22
121445.02
36736.525
21118.292
15614.593
2058.9022
2081.5054
16019.273
21699.12
37849.963
124499.65
131635.1
39335.582
22088.585
15830.038
2255.3099