/*--------------------------------*- C++ -*----------------------------------*\
  =========                 |
  \\      /  F ield         | OpenFOAM: The Open Source CFD Toolbox
   \\    /   O peration     | Website:  https://openfoam.org
    \\  /    A nd           | Version:  7
     \\/     M anipulation  |
\*---------------------------------------------------------------------------*/
FoamFile
{
    version     2.0;
    format      ascii;
    class       volScalarField;
    location    "220";
    object      rho;
}
// * * * * * * * * * * * * * * * * * * * * * * * * * * * * * * * * * * * * * //

dimensions      [1 -3 0 0 0 0 0];

internalField   nonuniform List<scalar> 
24789
(
1.1738512
1.1738494
1.1738485
1.1738484
1.1738469
1.1738407
1.1738429
1.1738431
1.173844
1.1738456
1.1738382
1.1738368
1.1738359
1.1738357
1.1738331
1.173824
1.1738269
1.1738271
1.1738278
1.1738289
1.1738178
1.1738171
1.1738165
1.1738163
1.1738133
1.1738007
1.1738035
1.1738037
1.173804
1.1738044
1.1737886
1.1737887
1.1737886
1.1737885
1.173786
1.1737688
1.1737708
1.1737707
1.1737705
1.1737698
1.1737479
1.1737494
1.17375
1.1737502
1.173749
1.1737262
1.1737261
1.1737256
1.1737245
1.1737222
1.1736924
1.1736957
1.1736974
1.1736982
1.1737001
1.17367
1.1736659
1.1736646
1.1736621
1.1736576
1.1736172
1.1736233
1.1736266
1.1736285
1.1736357
1.1735964
1.1735851
1.1735824
1.1735779
1.17357
1.173515
1.1735251
1.173531
1.1735347
1.1735515
1.1735002
1.1734761
1.173471
1.1734632
1.1734502
1.1733741
1.1733907
1.1734009
1.1734078
1.1734417
1.1733747
1.1733276
1.1733182
1.1733048
1.1732834
1.1731764
1.1732038
1.1732213
1.1732338
1.1732984
1.1732111
1.1731238
1.173107
1.1730842
1.1730491
1.1728984
1.1729431
1.1729726
1.1729949
1.1731116
1.1729981
1.1728439
1.1728146
1.1727767
1.1727201
1.1725104
1.1725814
1.1726297
1.1726678
1.1728686
1.1727206
1.1724628
1.172414
1.1723532
1.1722649
1.17198
1.1720879
1.1721634
1.172225
1.1725504
1.1723524
1.1719492
1.1718729
1.1717809
1.1716509
1.1712804
1.1714337
1.1715439
1.1716364
1.1721249
1.1718612
1.1712875
1.1711781
1.1710492
1.1708718
1.1703938
1.1705906
1.170736
1.170861
1.1715097
1.1711436
1.1704187
1.1702805
1.1701275
1.1699347
1.169893
1.170036
1.1701855
1.1703363
1.1711416
1.1703708
1.1697071
1.1695762
1.1694552
1.1693756
1.1639823
1.1643296
1.1645958
1.1648707
1.1670548
1.1714441
1.1711113
1.1709609
1.170807
1.1705775
1.1724277
1.1726562
1.1727785
1.1729087
1.1734968
1.1753376
1.1749136
1.1747956
1.1746601
1.174441
1.1784284
1.178792
1.1790444
1.1792387
1.1793302
1.174655
1.17242
1.1721721
1.1719563
1.1715613
1.1730049
1.1731611
1.1732195
1.173257
1.1735905
1.1704306
1.1681553
1.167796
1.1674387
1.1669626
1.1655792
1.1657989
1.1659594
1.1661353
1.167705
1.1704652
1.1696255
1.169493
1.1693683
1.1692717
1.1697823
1.1699298
1.1700777
1.1702244
1.171141
1.1711643
1.1703403
1.1702046
1.1700554
1.1698706
1.1703321
1.1705193
1.1706615
1.1707853
1.171534
1.1718848
1.1712136
1.1711041
1.1709769
1.1708069
1.1712075
1.171359
1.1714698
1.1715638
1.1721439
1.1723672
1.1718795
1.1718006
1.1717061
1.1715749
1.1719047
1.1720162
1.1720952
1.1721601
1.172561
1.1727292
1.172405
1.1723524
1.1722873
1.1721943
1.1724466
1.1725232
1.172576
1.1726179
1.1728752
1.1730037
1.1728023
1.1727694
1.1727271
1.1726648
1.172852
1.1729021
1.1729356
1.172961
1.1731159
1.1732146
1.173097
1.1730775
1.1730513
1.1730115
1.1731465
1.173178
1.1731983
1.173213
1.1733009
1.1733769
1.1733118
1.1733008
1.1732851
1.1732605
1.1733563
1.1733756
1.1733876
1.1733958
1.1734432
1.1735015
1.1734672
1.1734611
1.173452
1.1734371
1.1735051
1.1735167
1.1735237
1.1735282
1.1735524
1.173597
1.1735803
1.1735771
1.1735719
1.1735629
1.1736117
1.1736186
1.1736226
1.1736249
1.173636
1.1736701
1.1736632
1.1736616
1.1736588
1.1736536
1.173689
1.173693
1.173695
1.1736961
1.1736998
1.1737258
1.1737244
1.1737238
1.1737224
1.1737197
1.1737456
1.1737475
1.1737483
1.1737487
1.1737484
1.173768
1.1737696
1.1737694
1.173769
1.1737681
1.1737868
1.1737872
1.1737873
1.1737874
1.173785
1.1737997
1.1738025
1.1738026
1.1738028
1.173803
1.1738162
1.1738157
1.1738153
1.1738152
1.1738122
1.1738228
1.1738258
1.173826
1.1738266
1.1738276
1.1738364
1.1738353
1.1738347
1.1738346
1.1738318
1.1738394
1.1738419
1.1738421
1.1738429
1.1738443
1.1738497
1.173848
1.1738472
1.1738471
1.1738456
1.173842
1.173845
1.1738453
1.1738463
1.1738481
1.1738415
1.17384
1.1738391
1.1738387
1.1738347
1.1738257
1.1738299
1.1738303
1.1738311
1.1738323
1.1738215
1.1738207
1.17382
1.1738196
1.1738153
1.1738029
1.1738071
1.1738074
1.1738079
1.1738083
1.1737927
1.1737928
1.1737926
1.1737923
1.1737885
1.1737717
1.1737748
1.1737749
1.1737748
1.1737741
1.1737524
1.1737538
1.1737543
1.1737544
1.1737523
1.17373
1.1737306
1.1737302
1.1737292
1.1737268
1.1736971
1.1737005
1.1737021
1.1737028
1.1737043
1.1736749
1.1736705
1.1736693
1.1736668
1.1736621
1.1736212
1.1736275
1.173631
1.1736329
1.1736412
1.1736028
1.173589
1.1735863
1.1735815
1.1735732
1.1735167
1.1735275
1.1735339
1.1735378
1.1735587
1.1735085
1.1734779
1.1734724
1.1734638
1.1734497
1.1733704
1.1733887
1.1734
1.1734076
1.1734511
1.1733857
1.1733248
1.1733144
1.1732994
1.1732757
1.1731635
1.1731939
1.1732134
1.1732274
1.1733107
1.1732257
1.1731131
1.1730944
1.1730691
1.1730305
1.1728737
1.1729223
1.1729547
1.1729792
1.1731282
1.1730174
1.1728231
1.1727913
1.1727504
1.1726899
1.172476
1.1725503
1.1726014
1.1726418
1.1728904
1.1727463
1.1724328
1.1723821
1.1723191
1.172229
1.171946
1.1720537
1.17213
1.1721926
1.17258
1.1723887
1.1719173
1.1718413
1.1717503
1.1716237
1.1712644
1.17141
1.1715165
1.1716067
1.1721667
1.1719119
1.1712638
1.171159
1.1710373
1.1708749
1.1704199
1.1705978
1.1707332
1.1708513
1.1715712
1.1711734
1.1703907
1.1702629
1.1701228
1.1699489
1.169832
1.1699607
1.1700942
1.1702307
1.1711047
1.1707503
1.169919
1.1697889
1.169673
1.1696108
1.166527
1.1667077
1.1668232
1.16695
1.1679935
1.1685203
1.1644854
1.163979
1.1635015
1.1628499
1.1801169
1.1800522
1.1799423
1.1797614
1.1776612
1.173848
1.1717349
1.1714602
1.1712204
1.1707978
1.1780297
1.1784446
1.1787059
1.1789113
1.1787088
1.1753143
1.1751676
1.1751022
1.1750011
1.1747686
1.1789281
1.1789381
1.1788603
1.1787057
1.1772934
1.1684294
1.1652742
1.1647817
1.164296
1.1636631
1.1659783
1.1661728
1.1662865
1.1664189
1.1675292
1.1705177
1.169786
1.1696541
1.1695381
1.1694673
1.1697945
1.1699392
1.1700837
1.1702266
1.1710039
1.1711141
1.1704137
1.1702807
1.1701304
1.1699361
1.1704511
1.1706423
1.1707828
1.1709025
1.1715303
1.1718782
1.1713281
1.1712248
1.171102
1.1709316
1.1713409
1.1714864
1.1715899
1.1716762
1.1721393
1.1723672
1.1719869
1.1719163
1.1718306
1.1717088
1.1720313
1.1721316
1.1722013
1.1722579
1.1725635
1.1727337
1.1724916
1.1724468
1.1723908
1.1723093
1.1725477
1.1726133
1.1726577
1.1726925
1.1728808
1.1730101
1.1728657
1.1728389
1.172804
1.1727517
1.1729252
1.1729665
1.1729935
1.1730138
1.1731226
1.1732214
1.1731405
1.1731253
1.1731045
1.173072
1.1731961
1.1732214
1.1732373
1.1732485
1.1733076
1.1733834
1.1733409
1.1733326
1.1733205
1.1733009
1.1733893
1.1734045
1.1734136
1.1734196
1.1734495
1.1735075
1.1734869
1.1734826
1.1734758
1.1734641
1.1735271
1.1735362
1.1735413
1.1735443
1.173558
1.1736023
1.1735938
1.1735918
1.173588
1.1735811
1.1736269
1.1736322
1.173635
1.1736363
1.1736409
1.1736748
1.173673
1.1736722
1.1736704
1.1736666
1.1737001
1.1737029
1.1737041
1.1737045
1.1737042
1.17373
1.1737319
1.1737318
1.1737311
1.1737294
1.1737541
1.1737551
1.1737553
1.1737552
1.1737524
1.1737719
1.1737754
1.1737757
1.1737758
1.1737756
1.1737936
1.1737934
1.173793
1.1737926
1.1737887
1.1738031
1.1738072
1.1738076
1.1738083
1.1738091
1.1738218
1.1738207
1.17382
1.1738195
1.1738155
1.1738259
1.1738297
1.1738301
1.1738311
1.1738326
1.1738413
1.1738397
1.1738387
1.1738383
1.1738348
1.173842
1.1738446
1.173845
1.1738462
1.1738482
1.1738489
1.1738471
1.173846
1.1738456
1.1738431
1.1738357
1.1738391
1.1738394
1.1738404
1.173842
1.1738327
1.1738315
1.1738306
1.1738303
1.1738267
1.1738162
1.1738199
1.1738202
1.1738209
1.1738218
1.1738088
1.1738082
1.1738077
1.1738074
1.1738037
1.1737892
1.1737926
1.1737928
1.1737931
1.1737931
1.1737748
1.1737753
1.1737754
1.1737752
1.1737723
1.1737526
1.1737547
1.1737547
1.1737543
1.1737531
1.173728
1.1737301
1.1737309
1.1737312
1.1737301
1.1737042
1.1737036
1.173703
1.1737015
1.1736985
1.1736642
1.1736685
1.1736707
1.1736717
1.1736745
1.1736405
1.1736347
1.1736331
1.17363
1.1736243
1.1735779
1.1735853
1.1735895
1.1735919
1.1736016
1.1735571
1.173542
1.1735386
1.173533
1.1735233
1.1734596
1.1734721
1.1734795
1.1734842
1.1735063
1.1734482
1.1734165
1.1734099
1.1734001
1.173384
1.1732949
1.1733157
1.1733286
1.1733375
1.173382
1.1733062
1.1732447
1.1732325
1.1732156
1.1731888
1.1730632
1.1730976
1.1731197
1.173136
1.1732198
1.1731211
1.1730085
1.1729867
1.172958
1.1729142
1.1727382
1.1727937
1.1728307
1.1728593
1.1730085
1.1728799
1.1726851
1.1726479
1.1726006
1.1725309
1.1722887
1.1723753
1.1724348
1.1724825
1.1727329
1.1725635
1.1722471
1.1721869
1.172113
1.172007
1.1716823
1.1718096
1.1718997
1.1719743
1.1723665
1.1721392
1.1716639
1.1715737
1.171466
1.1713158
1.1709129
1.1710862
1.171212
1.1713186
1.1718762
1.1715272
1.1708981
1.1707766
1.1706351
1.1704429
1.1699776
1.1701651
1.1703139
1.1704477
1.171147
1.1711197
1.1703382
1.1701943
1.1700504
1.1699156
1.1695432
1.1696183
1.1697229
1.1698405
1.1704599
1.1671976
1.1654134
1.165193
1.1649918
1.1647083
1.1679366
1.1683274
1.1685957
1.1688732
1.1705267
1.1757404
1.1765607
1.1765632
1.1765248
1.176411
1.1725359
1.1728083
1.1729499
1.173089
1.1741829
1.1796137
1.1796005
1.1794056
1.1791458
1.1787286
1.1826631
1.1845161
1.1847984
1.1850056
1.1850968
1.1849405
1.1849728
1.1849893
1.1848521
1.1819478
1.1799887
1.1800132
1.1798939
1.1797625
1.1795164
1.1778375
1.1780365
1.1781706
1.1782635
1.1781488
1.1762735
1.1766526
1.1766617
1.176615
1.1764985
1.174914
1.175146
1.1752902
1.1753698
1.1755545
1.1689275
1.1669622
1.166623
1.1663043
1.1658007
1.1659473
1.1661266
1.1662501
1.1664013
1.1676164
1.17049
1.1698121
1.169688
1.1695775
1.1695139
1.1698793
1.1700111
1.1701467
1.1702828
1.1710155
1.1711144
1.1704459
1.1703188
1.1701773
1.1699987
1.1704896
1.1706706
1.1708046
1.1709196
1.1715236
1.1718717
1.1713383
1.1712384
1.1711205
1.1709584
1.1713584
1.1714976
1.1715976
1.1716814
1.1721331
1.1723613
1.1719885
1.1719196
1.1718365
1.1717192
1.1720369
1.1721342
1.1722021
1.1722576
1.1725582
1.1727288
1.1724898
1.1724458
1.1723909
1.1723114
1.1725479
1.1726122
1.1726558
1.1726902
1.1728766
1.1730062
1.1728627
1.1728362
1.1728018
1.1727503
1.1729228
1.1729636
1.1729904
1.1730106
1.1731191
1.1732184
1.1731373
1.1731222
1.1731014
1.1730693
1.173193
1.1732183
1.1732342
1.1732455
1.1733049
1.1733811
1.173338
1.1733297
1.1733175
1.1732979
1.1733861
1.1734014
1.1734107
1.1734168
1.1734474
1.1735056
1.1734843
1.1734799
1.1734728
1.173461
1.1735244
1.1735336
1.1735389
1.173542
1.1735564
1.1736009
1.1735917
1.1735896
1.1735857
1.1735786
1.1736246
1.1736301
1.1736329
1.1736344
1.1736396
1.1736736
1.1736713
1.1736704
1.1736684
1.1736645
1.1736985
1.1737013
1.1737026
1.1737031
1.1737033
1.1737291
1.1737305
1.1737303
1.1737296
1.1737278
1.1737527
1.1737538
1.1737541
1.173754
1.1737515
1.1737711
1.1737743
1.1737745
1.1737746
1.1737743
1.1737923
1.1737922
1.1737919
1.1737916
1.1737879
1.1738024
1.1738063
1.1738067
1.1738073
1.173808
1.1738208
1.1738198
1.1738191
1.1738187
1.1738149
1.1738254
1.173829
1.1738294
1.1738304
1.1738318
1.1738408
1.1738392
1.1738382
1.1738378
1.1738344
1.1738417
1.1738443
1.1738447
1.1738459
1.173848
1.1738454
1.1738439
1.173843
1.1738428
1.1738403
1.173833
1.1738364
1.1738367
1.1738375
1.1738388
1.1738295
1.1738285
1.1738278
1.1738276
1.173824
1.1738134
1.173817
1.1738173
1.1738178
1.1738184
1.1738051
1.1738049
1.1738046
1.1738044
1.1738009
1.1737864
1.1737893
1.1737894
1.1737894
1.1737891
1.1737703
1.1737713
1.1737716
1.1737717
1.1737694
1.1737498
1.1737508
1.1737505
1.1737497
1.173748
1.173722
1.1737247
1.173726
1.1737266
1.1737273
1.1737014
1.1736983
1.1736972
1.1736953
1.1736915
1.1736558
1.173661
1.1736638
1.1736654
1.1736716
1.1736376
1.173627
1.1736248
1.1736208
1.173614
1.173565
1.173574
1.1735793
1.1735825
1.1735987
1.1735542
1.1735303
1.1735259
1.1735189
1.1735072
1.1734391
1.1734541
1.1734633
1.1734694
1.1735034
1.1734455
1.1733978
1.1733896
1.1733774
1.1733581
1.1732619
1.1732867
1.1733025
1.1733137
1.1733791
1.1733036
1.1732146
1.1731997
1.1731792
1.1731474
1.1730119
1.1730522
1.1730787
1.1730984
1.1732171
1.1731188
1.1729622
1.1729364
1.1729026
1.1728519
1.1726645
1.1727274
1.17277
1.1728033
1.1730064
1.1728787
1.1726188
1.1725765
1.1725232
1.172446
1.172194
1.1722875
1.1723531
1.172406
1.1727325
1.1725656
1.1721616
1.1720962
1.1720168
1.1719049
1.1715765
1.1717078
1.1718025
1.1718817
1.1723716
1.1721497
1.1715671
1.1714729
1.1713622
1.1712114
1.1708172
1.1709846
1.1711111
1.1712203
1.1718915
1.1715473
1.1708023
1.1706792
1.1705386
1.1703551
1.1698974
1.170075
1.1702206
1.1703541
1.171161
1.1711237
1.1702309
1.1700872
1.1699459
1.1698105
1.1694718
1.1695497
1.1696687
1.1698021
1.1706005
1.1678631
1.1664118
1.166239
1.166073
1.1658538
1.166373
1.1668431
1.1671671
1.1675129
1.169914
1.1742891
1.1743954
1.1743441
1.1742677
1.1740403
1.1710964
1.1715553
1.1719118
1.1722423
1.174929
1.1798457
1.18343
1.1838206
1.1841262
1.1843769
1.1741264
1.1743635
1.1745349
1.1746733
1.1754454
1.1728162
1.17176
1.1715716
1.1714039
1.1710629
1.1719333
1.1720501
1.1721117
1.1721623
1.1718855
1.1670733
1.1645298
1.1641983
1.1638819
1.1634934
1.1694429
1.1695268
1.1696476
1.1697735
1.1703902
1.1711362
1.170343
1.1701925
1.1700435
1.169903
1.1699322
1.1701234
1.1702764
1.1704149
1.1711403
1.1715129
1.1708609
1.1707352
1.1705892
1.1703922
1.1708671
1.1710455
1.1711755
1.1712858
1.171864
1.1721273
1.1716348
1.1715413
1.17143
1.1712752
1.1716468
1.1717781
1.1718711
1.1719481
1.1723547
1.1725523
1.1722243
1.1721621
1.1720858
1.1719767
1.1722628
1.1723519
1.1724132
1.1724624
1.1727222
1.1728699
1.1726677
1.1726293
1.1725806
1.1725089
1.1727193
1.1727764
1.1728146
1.1728441
1.1729992
1.1731126
1.1729952
1.1729728
1.1729431
1.1728981
1.1730492
1.1730845
1.1731074
1.1731243
1.1732122
1.1732993
1.1732345
1.1732218
1.1732043
1.1731767
1.1732841
1.1733056
1.1733191
1.1733284
1.1733757
1.1734426
1.1734085
1.1734016
1.1733913
1.1733746
1.1734509
1.173464
1.1734718
1.1734769
1.173501
1.1735523
1.1735355
1.1735318
1.1735259
1.1735157
1.1735708
1.1735787
1.1735832
1.1735858
1.1735972
1.1736364
1.1736292
1.1736273
1.173624
1.173618
1.1736584
1.1736629
1.1736654
1.1736666
1.1736707
1.1737007
1.173699
1.1736982
1.1736965
1.1736933
1.173723
1.1737253
1.1737264
1.1737268
1.1737269
1.1737496
1.1737508
1.1737506
1.1737501
1.1737487
1.1737706
1.1737713
1.1737715
1.1737715
1.1737694
1.1737865
1.1737892
1.1737893
1.1737895
1.1737895
1.1738052
1.1738048
1.1738044
1.1738042
1.1738013
1.1738139
1.1738169
1.1738172
1.1738178
1.1738187
1.1738296
1.1738285
1.1738278
1.1738275
1.1738246
1.1738336
1.1738364
1.1738367
1.1738376
1.1738392
1.1738455
1.1738439
1.173843
1.1738428
1.173841
1.1738431
1.1738456
1.1738459
1.173847
1.173849
1.1738423
1.1738407
1.1738396
1.1738393
1.1738358
1.1738268
1.1738304
1.1738308
1.1738317
1.1738331
1.1738223
1.1738213
1.1738205
1.1738201
1.1738163
1.1738039
1.1738076
1.173808
1.1738085
1.1738092
1.1737937
1.1737936
1.1737932
1.1737929
1.1737893
1.1737724
1.1737756
1.1737757
1.1737758
1.1737754
1.173754
1.1737551
1.1737554
1.1737554
1.1737529
1.1737303
1.1737317
1.1737315
1.1737308
1.1737289
1.1736998
1.1737026
1.173704
1.1737044
1.1737045
1.1736749
1.1736728
1.1736719
1.1736699
1.173666
1.1736265
1.1736318
1.1736346
1.1736361
1.173641
1.1736022
1.1735935
1.1735914
1.1735875
1.1735805
1.1735269
1.173536
1.1735412
1.1735442
1.1735578
1.1735071
1.1734868
1.1734825
1.1734756
1.1734638
1.1733899
1.173405
1.1734142
1.1734201
1.1734494
1.1733833
1.173342
1.1733337
1.1733217
1.1733022
1.1731986
1.1732236
1.1732394
1.1732506
1.173308
1.1732219
1.1731436
1.1731286
1.173108
1.173076
1.172931
1.1729717
1.1729984
1.1730184
1.1731237
1.1730117
1.1728722
1.1728458
1.1728115
1.17276
1.1725592
1.1726237
1.1726674
1.1727018
1.1728838
1.1727377
1.1725038
1.1724597
1.1724047
1.1723248
1.1720526
1.1721501
1.1722183
1.1722739
1.1725694
1.1723738
1.1720073
1.1719383
1.1718551
1.1717379
1.1713817
1.1715198
1.1716194
1.1717031
1.1721478
1.1718867
1.1713632
1.171264
1.1711475
1.1709877
1.1705255
1.1707041
1.1708359
1.1709494
1.1715416
1.1711508
1.1704929
1.1703673
1.1702278
1.1700498
1.1699477
1.1700806
1.1702178
1.1703559
1.171105
1.1705902
1.1699709
1.1698531
1.1697485
1.1696828
1.1653356
1.1655882
1.1657616
1.1659436
1.1673787
1.1692807
1.1667625
1.1663705
1.1660173
1.1655144
1.1792788
1.179245
1.1791767
1.1790458
1.1774186
1.1731523
1.1714516
1.1712422
1.1710804
1.1707933
1.1756852
1.1742248
1.1753854
1.1747108
1.172792
1.1725609
1.1723363
1.1719838
1.1769722
1.1770993
1.1771342
1.1771124
1.1767674
1.1813435
1.1814786
1.1815256
1.1814724
1.1811346
1.1781529
1.1788335
1.1787757
1.1786741
1.1783869
1.1735302
1.1739362
1.1741685
1.1744233
1.1756199
1.1781773
1.1782103
1.1781373
1.1779849
1.1777292
1.1787352
1.1818641
1.1778784
1.1789759
1.1738503
1.1738721
1.1738212
1.1738502
1.173832
1.1738226
1.173831
1.1738281
1.1738477
1.1738458
1.1738448
1.1738444
1.1738417
1.1738346
1.1738381
1.1738385
1.1738394
1.1738411
1.1738321
1.1738308
1.1738299
1.1738295
1.1738257
1.1738153
1.1738193
1.1738197
1.1738204
1.1738215
1.1738086
1.173808
1.1738074
1.173807
1.173803
1.1737885
1.1737922
1.1737925
1.1737929
1.173793
1.1737748
1.1737752
1.1737751
1.1737749
1.1737716
1.1737519
1.1737545
1.1737545
1.1737542
1.1737531
1.1737282
1.17373
1.1737308
1.1737309
1.1737294
1.1737036
1.1737034
1.173703
1.1737017
1.1736988
1.1736648
1.1736688
1.1736708
1.1736716
1.1736738
1.1736398
1.1736347
1.1736332
1.1736304
1.173625
1.173579
1.173586
1.1735899
1.1735921
1.173601
1.1735566
1.1735424
1.1735393
1.1735341
1.173525
1.1734618
1.1734735
1.1734805
1.1734848
1.1735057
1.1734476
1.1734174
1.1734114
1.1734022
1.1733871
1.1732992
1.1733186
1.1733306
1.1733388
1.1733811
1.1733053
1.1732467
1.1732356
1.1732199
1.173195
1.1730721
1.1731038
1.1731241
1.173139
1.1732186
1.1731196
1.1730129
1.1729931
1.1729668
1.1729267
1.1727558
1.1728062
1.1728399
1.1728658
1.1730063
1.1728771
1.1726943
1.1726607
1.172618
1.1725552
1.1723218
1.1723993
1.1724527
1.1724956
1.1727289
1.172559
1.1722655
1.1722115
1.1721453
1.1720509
1.1717386
1.171852
1.1719326
1.1719993
1.1723609
1.1721349
1.1716969
1.1716158
1.1715193
1.1713851
1.1709935
1.1711491
1.1712622
1.1713583
1.171871
1.1715163
1.1709373
1.1708273
1.1706996
1.1705277
1.1700775
1.1702413
1.1703744
1.1704957
1.1711353
1.171113
1.1704264
1.1702959
1.1701679
1.1700555
1.1693832
1.1694487
1.1695493
1.1696617
1.1702327
1.1671293
1.164961
1.1647163
1.1645016
1.1642238
1.171691
1.1718662
1.1719338
1.1720036
1.1718365
1.1719194
1.1700534
1.1697875
1.1695348
1.1690653
1.1759152
1.1761414
1.1763042
1.1763886
1.1768626
1.1786662
1.1786154
1.1785785
1.1784361
1.1758906
1.176258
1.1764404
1.1766521
1.1771023
1.1772296
1.1773793
1.1771787
1.1770031
1.1766341
1.1867876
1.1865203
1.1862708
1.1858874
1.1825596
1.1814979
1.1832822
1.1833807
1.1834115
1.1834224
1.1758887
1.1761163
1.1762831
1.1763712
1.176859
1.1719142
1.170049
1.1697839
1.1695313
1.1690588
1.1716885
1.1718648
1.1719317
1.1720005
1.171829
1.167116
1.1649539
1.1647101
1.1644968
1.1642204
1.169379
1.169443
1.1695426
1.1696542
1.1702201
1.1711009
1.1704207
1.170291
1.1701638
1.1700527
1.1700715
1.1702343
1.1703667
1.1704875
1.1711238
1.1715056
1.1709288
1.1708191
1.1706918
1.1705207
1.1709854
1.1711404
1.1712534
1.1713493
1.1718611
1.1721258
1.171688
1.1716068
1.1715104
1.1713765
1.1717292
1.1718426
1.1719232
1.1719901
1.1723526
1.1725512
1.1722566
1.1722023
1.172136
1.1720415
1.1723124
1.1723901
1.1724437
1.1724869
1.1727218
1.1728706
1.1726862
1.1726522
1.1726092
1.1725461
1.1727468
1.1727976
1.1728316
1.1728579
1.1730003
1.1731141
1.1730056
1.1729855
1.1729588
1.1729183
1.173064
1.1730961
1.1731168
1.173132
1.1732134
1.1733006
1.1732403
1.1732289
1.1732129
1.1731877
1.1732923
1.1733121
1.1733244
1.1733329
1.1733769
1.1734437
1.1734119
1.1734057
1.1733962
1.1733808
1.1734558
1.1734679
1.1734751
1.1734797
1.173502
1.1735532
1.1735377
1.1735344
1.1735289
1.1735195
1.1735737
1.1735811
1.1735852
1.1735876
1.1735978
1.1736368
1.1736305
1.1736289
1.1736258
1.1736203
1.17366
1.1736642
1.1736664
1.1736675
1.1736708
1.1737005
1.1736994
1.1736987
1.1736973
1.1736943
1.1737235
1.1737256
1.1737265
1.1737269
1.1737265
1.173749
1.1737506
1.1737505
1.1737501
1.1737489
1.1737704
1.173771
1.1737711
1.1737711
1.1737687
1.1737856
1.1737885
1.1737887
1.1737889
1.173789
1.1738044
1.1738039
1.1738035
1.1738033
1.1738002
1.1738127
1.1738157
1.173816
1.1738167
1.1738176
1.1738283
1.1738272
1.1738264
1.1738262
1.1738232
1.1738321
1.1738347
1.173835
1.1738358
1.1738373
1.1738447
1.1738431
1.1738423
1.1738421
1.1738397
1.1738458
1.1738472
1.1738474
1.1738485
1.1738505
1.1738418
1.1738442
1.1738445
1.1738455
1.1738473
1.1738407
1.1738392
1.1738382
1.1738379
1.1738346
1.1738257
1.1738291
1.1738294
1.1738302
1.1738315
1.1738207
1.1738198
1.1738191
1.1738187
1.1738151
1.1738026
1.1738061
1.1738064
1.1738069
1.1738075
1.1737918
1.1737918
1.1737915
1.1737913
1.173788
1.173771
1.1737737
1.1737738
1.1737738
1.1737732
1.1737515
1.1737528
1.1737532
1.1737533
1.1737513
1.1737286
1.1737293
1.173729
1.173728
1.1737259
1.1736963
1.1736994
1.1737009
1.1737016
1.1737025
1.1736727
1.1736694
1.1736683
1.173666
1.1736617
1.1736216
1.1736274
1.1736306
1.1736323
1.1736385
1.1735996
1.1735892
1.1735867
1.1735823
1.1735747
1.1735201
1.17353
1.1735357
1.1735392
1.1735549
1.173504
1.1734809
1.173476
1.1734684
1.1734557
1.1733801
1.1733964
1.1734064
1.1734131
1.1734457
1.1733794
1.1733335
1.1733243
1.1733112
1.1732901
1.1731836
1.1732107
1.173228
1.1732403
1.1733034
1.1732169
1.1731308
1.1731142
1.1730916
1.1730568
1.1729064
1.172951
1.1729803
1.1730024
1.1731178
1.1730054
1.172852
1.1728227
1.1727849
1.1727283
1.1725186
1.1725899
1.1726382
1.1726763
1.1728765
1.1727299
1.1724715
1.1724224
1.1723614
1.1722725
1.1719869
1.1720958
1.1721718
1.1722338
1.1725605
1.1723643
1.1719577
1.1718808
1.1717878
1.1716565
1.1712848
1.1714399
1.1715512
1.1716446
1.1721373
1.1718754
1.1712951
1.1711845
1.1710543
1.1708753
1.1704
1.1705976
1.170744
1.17087
1.1715239
1.1711533
1.170423
1.1702839
1.1701304
1.1699384
1.1699081
1.1700495
1.1701992
1.1703502
1.1711471
1.1704019
1.1697775
1.1696507
1.1695292
1.1694442
1.1635006
1.1638899
1.164207
1.164539
1.1670837
1.1718958
1.1721669
1.1721155
1.1720533
1.1719361
1.1710691
1.1714095
1.1715769
1.1717653
1.1728237
1.175443
1.1746772
1.1745392
1.1743688
1.1741365
1.1843876
1.1841326
1.1838253
1.1834333
1.1798441
1.1749252
1.1722531
1.1719249
1.1715713
1.1711179
1.1764988
1.1766105
1.1766541
1.1766439
1.1762768
1.1753268
1.1751747
1.17511
1.1750101
1.1747804
1.1707947
1.1712179
1.171459
1.1717354
1.1738631
1.1731421
1.1714246
1.171214
1.1710513
1.170761
1.1724722
1.1727552
1.172903
1.1730476
1.1741685
1.1746951
1.172747
1.1725098
1.1722785
1.1719176
1.1769026
1.1770394
1.1770829
1.1770689
1.1767584
1.1721339
1.17033
1.1700262
1.1696982
1.1691809
1.1714286
1.1716323
1.1717264
1.1718181
1.1718494
1.1670179
1.1648253
1.1645758
1.1643545
1.1640439
1.1693663
1.1694412
1.1695503
1.1696658
1.1702335
1.171106
1.1704116
1.1702781
1.1701463
1.1700298
1.1700535
1.1702199
1.1703551
1.1704778
1.1711201
1.1715062
1.1709271
1.1708165
1.170688
1.1705149
1.1709844
1.1711402
1.1712537
1.17135
1.1718621
1.1721266
1.1716891
1.1716079
1.1715113
1.1713772
1.1717308
1.1718441
1.1719247
1.1719915
1.1723533
1.1725521
1.172258
1.1722038
1.1721377
1.1720433
1.1723141
1.1723916
1.1724452
1.1724883
1.1727227
1.1728717
1.1726874
1.1726535
1.1726106
1.1725476
1.1727481
1.1727989
1.1728328
1.172859
1.1730013
1.1731152
1.1730066
1.1729865
1.1729599
1.1729195
1.1730651
1.1730972
1.1731178
1.173133
1.1732145
1.1733017
1.1732413
1.1732299
1.1732139
1.1731887
1.1732931
1.173313
1.1733253
1.1733337
1.1733778
1.1734446
1.1734129
1.1734067
1.1733973
1.1733818
1.1734565
1.1734686
1.1734758
1.1734804
1.1735028
1.1735538
1.1735384
1.173535
1.1735296
1.1735202
1.1735743
1.1735816
1.1735858
1.1735881
1.1735983
1.1736372
1.173631
1.1736293
1.1736263
1.1736207
1.1736603
1.1736646
1.1736668
1.1736679
1.1736712
1.1737009
1.1736998
1.1736992
1.1736977
1.1736947
1.1737239
1.173726
1.1737269
1.1737273
1.1737268
1.1737494
1.1737511
1.173751
1.1737506
1.1737494
1.1737707
1.1737713
1.1737714
1.1737713
1.1737689
1.1737858
1.1737887
1.1737889
1.1737892
1.1737893
1.1738046
1.1738042
1.1738037
1.1738035
1.1738003
1.1738128
1.173816
1.1738163
1.173817
1.1738179
1.1738287
1.1738275
1.1738268
1.1738265
1.1738234
1.1738323
1.1738351
1.1738354
1.1738363
1.1738378
1.1738453
1.1738436
1.1738426
1.1738424
1.1738398
1.1738455
1.1738469
1.1738471
1.1738482
1.1738501
1.1738423
1.173845
1.1738454
1.1738465
1.1738485
1.1738416
1.17384
1.173839
1.1738386
1.173835
1.173826
1.1738298
1.1738302
1.1738311
1.1738325
1.1738217
1.1738207
1.17382
1.1738196
1.1738156
1.1738032
1.1738071
1.1738075
1.1738081
1.1738087
1.1737932
1.1737931
1.1737927
1.1737924
1.1737887
1.1737718
1.173775
1.1737752
1.1737753
1.1737749
1.1737535
1.1737546
1.1737549
1.1737548
1.1737523
1.1737298
1.1737312
1.173731
1.1737302
1.1737283
1.173699
1.1737018
1.1737032
1.1737037
1.1737039
1.1736743
1.1736719
1.1736709
1.1736689
1.1736649
1.1736252
1.1736306
1.1736335
1.173635
1.1736403
1.1736014
1.1735922
1.17359
1.173586
1.1735789
1.1735247
1.1735339
1.1735392
1.1735424
1.1735568
1.1735061
1.1734847
1.1734803
1.1734733
1.1734614
1.1733867
1.1734019
1.1734112
1.1734172
1.1734478
1.1733814
1.1733385
1.1733302
1.1733181
1.1732986
1.1731945
1.1732195
1.1732352
1.1732464
1.1733053
1.1732187
1.1731387
1.1731237
1.1731032
1.1730715
1.1729263
1.1729664
1.1729927
1.1730125
1.1731194
1.1730063
1.1728656
1.1728396
1.1728059
1.1727556
1.1725554
1.172618
1.1726606
1.1726942
1.1728765
1.1727285
1.1724958
1.172453
1.1723998
1.1723227
1.1720526
1.1721464
1.1722121
1.1722658
1.1725576
1.1723602
1.1720003
1.1719338
1.1718538
1.171741
1.1713885
1.1715217
1.1716177
1.1716983
1.1721329
1.1718704
1.1713606
1.1712648
1.1711521
1.1709973
1.1705298
1.1707015
1.1708289
1.1709386
1.1715134
1.1711298
1.1704912
1.1703697
1.1702361
1.1700717
1.1700507
1.1701643
1.1702942
1.1704261
1.1711135
1.1702446
1.169687
1.1695737
1.1694675
1.1693958
1.1640795
1.1643856
1.1646038
1.1648502
1.1670272
1.171865
1.1718498
1.1717617
1.1716723
1.1714763
1.1692397
1.1697451
1.1700654
1.1703637
1.172147
1.1734756
1.1724121
1.1722631
1.1721037
1.1718428
1.1690352
1.1693658
1.1695752
1.1698013
1.1709902
1.1676547
1.165676
1.1654611
1.1652636
1.1649938
1.1693082
1.169407
1.1695322
1.1696664
1.1704932
1.1711546
1.1702628
1.1701177
1.1699722
1.1698349
1.1698789
1.1700601
1.1702087
1.170344
1.1711614
1.17154
1.1707873
1.1706626
1.1705192
1.1703305
1.1708013
1.1709734
1.1711024
1.1712132
1.1718912
1.1721518
1.1715627
1.171467
1.1713541
1.1711993
1.1715671
1.1717016
1.1717983
1.1718787
1.1723747
1.1725691
1.17216
1.1720935
1.1720125
1.171898
1.1721894
1.1722851
1.1723519
1.1724058
1.1727365
1.1728827
1.1726196
1.1725765
1.1725222
1.1724433
1.1726634
1.1727276
1.1727711
1.1728048
1.1730104
1.1731227
1.1729643
1.1729381
1.1729037
1.172852
1.1730129
1.1730539
1.1730808
1.1731008
1.1732209
1.1733071
1.1732172
1.1732021
1.1731813
1.1731489
1.1732637
1.173289
1.1733051
1.1733163
1.1733824
1.1734486
1.1734005
1.1733922
1.1733799
1.1733603
1.1734414
1.1734567
1.173466
1.1734721
1.1735064
1.1735571
1.1735331
1.1735287
1.1735216
1.1735099
1.1735677
1.1735768
1.173582
1.1735852
1.1736014
1.1736402
1.1736298
1.1736275
1.1736237
1.1736168
1.1736585
1.1736637
1.1736665
1.1736681
1.1736741
1.1737037
1.1737009
1.1736999
1.173698
1.1736943
1.1737245
1.1737272
1.1737285
1.173729
1.1737295
1.1737519
1.1737532
1.1737529
1.1737522
1.1737506
1.1737726
1.1737735
1.1737738
1.1737739
1.1737715
1.1737883
1.1737915
1.1737916
1.1737917
1.1737915
1.1738071
1.1738069
1.1738066
1.1738064
1.1738028
1.1738152
1.173819
1.1738192
1.1738198
1.1738205
1.1738312
1.1738302
1.1738295
1.1738293
1.1738256
1.1738345
1.1738381
1.1738384
1.1738393
1.1738407
1.1738472
1.1738456
1.1738447
1.1738444
1.1738418
1.1738411
1.173844
1.1738443
1.1738453
1.173847
1.1738404
1.173839
1.1738382
1.1738379
1.1738339
1.173825
1.173829
1.1738293
1.17383
1.1738311
1.1738203
1.1738196
1.173819
1.1738187
1.1738145
1.1738021
1.173806
1.1738063
1.1738066
1.173807
1.1737911
1.1737914
1.1737913
1.1737911
1.1737876
1.1737707
1.1737734
1.1737734
1.1737731
1.1737723
1.1737501
1.1737518
1.1737524
1.1737526
1.1737511
1.1737286
1.1737284
1.1737279
1.1737267
1.1737242
1.1736938
1.1736975
1.1736994
1.1737002
1.1737026
1.173673
1.1736675
1.1736661
1.1736634
1.1736584
1.173617
1.1736236
1.1736274
1.1736294
1.173639
1.1736003
1.1735851
1.1735821
1.173577
1.1735683
1.1735112
1.1735225
1.1735292
1.1735334
1.1735559
1.1735053
1.1734729
1.173467
1.1734581
1.1734435
1.1733634
1.1733822
1.1733939
1.1734018
1.1734474
1.1733815
1.1733184
1.1733076
1.1732922
1.173268
1.1731547
1.1731857
1.1732057
1.1732201
1.1733061
1.1732202
1.1731046
1.1730854
1.1730595
1.17302
1.1728609
1.1729107
1.1729438
1.172969
1.1731219
1.1730102
1.1728107
1.172778
1.172736
1.1726739
1.1724557
1.1725322
1.1725848
1.1726265
1.1728822
1.1727369
1.1724138
1.1723613
1.1722963
1.1722032
1.1719131
1.1720247
1.1721039
1.1721688
1.1725694
1.1723763
1.1718878
1.1718087
1.1717139
1.1715822
1.1712135
1.1713659
1.1714772
1.1715715
1.1721538
1.1718955
1.1712202
1.1711101
1.170982
1.1708107
1.170334
1.1705226
1.1706659
1.1707906
1.1715453
1.1711763
1.170344
1.1702071
1.1700564
1.1698696
1.1697784
1.169928
1.1700776
1.1702259
1.1711521
1.1704736
1.1696206
1.1694864
1.1693599
1.1692609
1.1655703
1.1657926
1.1659554
1.1661334
1.1677159
1.1704375
1.1681512
1.1677896
1.1674298
1.1669514
1.17298
1.1731433
1.1732052
1.1732454
1.1735916
1.1746524
1.1724073
1.1721565
1.1719374
1.1715387
1.1783882
1.1787602
1.1790167
1.179214
1.1793224
1.1753279
1.1748931