/*--------------------------------*- C++ -*----------------------------------*\
  =========                 |
  \\      /  F ield         | OpenFOAM: The Open Source CFD Toolbox
   \\    /   O peration     | Website:  https://openfoam.org
    \\  /    A nd           | Version:  7
     \\/     M anipulation  |
\*---------------------------------------------------------------------------*/
FoamFile
{
    version     2.0;
    format      ascii;
    class       volScalarField;
    location    "440";
    object      k;
}
// * * * * * * * * * * * * * * * * * * * * * * * * * * * * * * * * * * * * * //

dimensions      [0 2 -2 0 0 0 0];

internalField   nonuniform List<scalar> 
25201
(
1109.7424
1109.0519
1109.7454
1109.0585
1090.7572
1094.8518
1096.3426
1132.3806
1130.6162
1126.0703
1130.6141
1094.8496
1093.2037
1048.4117
1044.0477
1065.3594
1061.0688
1055.919
1050.3403
1039.1897
1047.3272
1056.157
1059.2974
1052.9655
1043.7919
1036.2087
1045.2342
1057.4419
1054.8185
1039.8056
1041.739
1044.4614
1027.8975
1030.8335
1034.6913
1044.0455
1053.2834
1050.539
1040.2854
1037.359
1048.5905
1047.4172
1038.6564
1026.3124
1035.8058
1045.9973
1056.2512
1072.3016
1090.2833
1093.2078
1129.6767
1127.2076
1110.9174
1113.7677
1116.7359
1099.9827
1081.5036
1077.9401
1096.4465
1084.3958
1076.0869
1073.5845
1091.4393
1109.8982
1128.7369
1135.9282
1132.8102
1122.5737
1103.1741
1096.1863
1077.2163
1070.0901
1074.6711
1093.5829
1091.3191
1072.6062
1065.3603
1067.8148
1059.3726
1061.92
1064.9132
1067.6391
1062.0618
1071.5751
1067.9889
1073.75
1058.1835
1048.4096
1040.6436
1045.5674
1044.8168
1048.1544
1042.3466
1037.8416
1033.2553
1036.2444
1031.6284
1028.6955
1022.9284
1026.475
1031.0937
1027.5598
1032.4146
1035.7444
1040.609
1037.5628
1030.9193
1035.0223
1035.2229
1026.1902
1020.9395
1025.6704
1021.2016
1016.5314
1009.5267
1014.5413
1019.1722
1014.2063
1018.992
1025.9842
1030.2009
1023.8459
1028.565
1023.772
1016.1765
1022.3559
1025.0045
1035.2267
1045.5708
1040.2868
1037.3602
1035.8073
1045.9963
1047.4442
1050.3694
1053.872
1058.183
1062.0627
1073.5841
1081.502
1099.9807
1091.4384
1084.3942
1076.0854
1077.9376
1096.4437
1113.765
1116.7341
1129.6729
1135.9264
1128.7362
1109.8977
1103.1727
1122.5728
1132.808
1130.1674
1127.2029
1090.2779
1074.6676
1093.5794
1077.2142
1070.0882
1073.7481
1064.9129
1067.6391
1061.9194
1059.3716
1067.8126
1060.262
1063.3464
1067.9876
1071.5741
1064.3538
1063.3826
1082.652
1072.9572
1064.355
1054.8112
1044.9497
1054.2962
1045.6013
1043.1721
1039.2218
1035.2472
1039.6893
1033.9944
1038.2097
1033.363
1028.7111
1021.1126
1027.1325
1034.606
1044.951
1054.8119
1048.1544
1044.8198
1040.6508
1019.0023
1023.8551
1030.2089
1035.7517
1040.6117
1037.5654
1042.3494
1037.8485
1032.4232
1025.9925
1030.9231
1035.0259
1028.568
1023.7756
1016.1793
1022.3585
1017.5499
1012.878
1015.5489
1108.9279
1109.3779
1061.6612
1057.3299
1054.7813
1038.6364
1030.7332
1041.6434
1039.7482
1048.5308
1047.3978
1035.7848
1026.2929
1027.8382
1037.2984
1040.1837
1050.4418
1053.1466
1044.3281
1034.5523
1043.905
1048.227
1055.9827
1060.8853
102.1946
146.81881
194.83919
243.52188
529.94201
535.06831
248.43648
198.68237
149.67408
103.90704
104.43581
151.94457
202.1887
252.73607
540.39097
544.86584
254.82907
203.87181
153.13667
104.90831
105.19797
153.8797
204.99381
256.25017
548.98219
552.93104
257.57066
206.02743
154.56747
105.49368
105.7903
155.31537
207.17251
259.0433
556.84543
560.77317
260.67371
208.43714
156.13934
106.10363
106.42328
157.01158
209.7814
262.41194
564.74106
568.76189
264.22012
211.17873
157.91698
106.74837
107.07589
158.84263
212.60873
266.07254
572.84541
576.99736
267.96416
214.06955
159.78806
107.40684
107.74076
160.74962
215.55539
269.88901
581.22233
585.52356
271.85107
217.07087
161.73063
108.07912
108.42178
162.72914
218.61297
273.84804
589.90449
594.36801
275.88503
220.18699
163.74885
108.77008
109.12379
164.78781
221.79014
277.96004
598.91762
603.55655
280.078
223.42757
165.84971
109.4842
109.85115
166.9332
225.09737
282.238
608.28873
613.11757
284.44533
226.80512
168.04234
110.22603
110.60867
169.17582
228.54906
286.69921
618.04729
623.0822
289.00439
230.33401
170.33696
111
111.39962
171.52447
232.15816
291.36006
628.22746
633.48714
293.7706
234.0258
172.74125
111.80862
112.22712
173.98682
235.93633
296.23634
638.86596
644.36831
298.76154
237.894
175.26406
112.65581
113.09491
176.57286
239.89849
301.34682
649.99928
655.76418
303.99765
241.95498
177.91695
113.5459
114.00935
179.29588
244.06353
306.71536
661.66919
667.72166
309.5053
246.22919
180.7127
114.48548
114.9724
182.16974
248.45309
312.36835
673.9297
680.29672
315.30554
250.73514
183.66644
115.47394
691.61714
289.19227
229.34446
168.95361
109.91386
109.4594
167.61873
227.28943
286.52568
685.16408
678.87122
283.9222
225.28251
166.31567
109.01708
108.58039
165.04149
223.3188
281.375
672.73257
666.74316
278.88998
221.40435
163.79992
108.15327
107.73768
162.58848
219.53567
276.46466
660.89585
655.18462
274.09884
217.71395
161.40884
107.33288
106.93744
160.25831
215.93551
271.78894
649.60403
644.1489
269.53564
214.20205
159.13808
106.55173
106.1758
158.04667
212.51135
267.33713
638.81471
633.59587
265.19321
210.86466
156.98528
105.80995
105.45196
155.94817
209.2545
263.09661
628.48752
623.48518
261.0457
207.68051
154.93511
105.10157
104.75791
153.94304
206.13826
259.03642
618.58507
613.78351
257.06954
204.62977
152.97355
104.42111
104.09025
152.02359
203.15077
255.14124
609.07678
604.46058
253.25241
201.70335
151.09463
103.76555
103.44579
150.18303
200.28231
251.39831
599.93162
595.48636
249.58019
198.8899
149.29023
103.13103
102.8201
148.41304
197.52145
247.79398
591.12188
586.83484
246.04132
196.17966
147.55308
102.51303
102.20861
146.70755
194.86047
244.31911
582.62175
578.4782
242.63238
193.56904
145.87956
101.90717
101.60786
145.06979
192.3075
240.98695
574.39927
570.37784
239.4073
191.09506
144.28999
101.31336
101.02521
143.55571
189.95851
237.93254
566.40562
562.46198
236.61169
188.93546
142.89065
100.75159
100.48494
142.29159
188.02587
235.44694
558.50966
554.43459
234.22678
187.06298
141.64691
100.21316
99.851658
140.67924
185.61649
232.40271
550.07323
545.14892
229.22227
183.10739
138.97017
99.328278
99.033193
136.11966
178.99076
224.17217
539.62419
530.73027
211.47718
168.01498
128.66786
96.854736
98.771282
136.23079
179.1296
224.3246
540.08383
545.51484
229.44293
183.28423
139.05954
99.176706
99.78065
140.80064
185.80628
232.62645
550.3718
554.67156
234.40998
187.21788
141.74617
100.17129
100.46247
142.37546
188.15487
235.60018
558.71355
562.64286
236.73966
189.04202
142.95984
100.73886
101.0188
143.6142
190.04878
238.04189
566.56956
570.52873
239.50342
191.17378
144.341
101.31118
101.60865
145.1153
192.37763
241.07295
574.53951
578.60984
242.71088
193.63274
145.92097
101.91008
102.21298
146.74561
194.91897
244.39142
582.74682
586.9549
246.10911
196.23428
147.58869
102.51852
102.82636
148.44654
197.57285
247.85794
591.2382
595.60003
249.64164
198.93914
149.32243
103.13804
103.45345
150.21435
200.33008
251.45791
600.0436
604.57194
253.31147
201.75073
151.12584
103.77394
104.09931
152.05512
203.19842
255.20053
609.18833
613.89604
257.12968
204.67801
153.00556
104.43076
104.76806
153.97564
206.1873
259.09762
618.69874
623.59997
261.10879
207.73098
154.96865
105.1123
105.46317
155.983
209.30692
263.16201
628.60374
633.714
265.26183
210.91993
157.0222
105.82167
106.1878
158.08508
212.56846
267.40774
638.93506
644.27206
269.60544
214.25803
159.17556
106.5633
106.9481
160.29316
215.98819
271.85545
649.73011
655.31429
274.16192
217.76322
161.44102
107.34265
107.74667
162.61804
219.5816
276.52426
661.02966
666.88144
278.94744
221.44819
163.82785
108.16198
108.58943
165.06935
223.36262
281.43237
672.87544
679.0186
283.98338
225.3301
166.34639
109.02729
109.47065
167.65322
227.34201
286.59224
685.31791
691.77916
289.26501
229.40222
168.99184
109.9259
110.40053
170.37245
231.5254
292.01882
698.41486
114.98977
182.13485
248.42142
312.38668
681.89611
675.39579
309.42513
246.12218
180.62746
114.47994
113.98685
179.16069
243.88425
306.543
669.06431
662.89351
303.7371
241.70688
177.73597
113.50878
113.03985
176.34547
239.58085
300.99761
656.8765
651.00845
298.3269
237.50936
174.99142
112.5812
112.13498
173.67156
235.48946
295.72267
645.28142
639.68887
293.18411
233.52196
172.38757
111.70093
111.27767
171.13633
231.60262
290.70688
634.22537
628.885
288.29012
229.73176
169.9181
110.86531
110.46297
168.72916
227.90437
285.92904
623.66273
618.55364
283.62283
226.12081
167.56998
110.07068
109.68682
166.43653
224.37562
281.36617
613.5532
608.65723
279.15874
222.66968
165.32951
109.31115
108.94265
164.24554
220.99843
276.99639
603.8619
599.16332
274.87981
219.36369
163.18603
108.58151
108.22669
162.14783
217.76101
272.80495
594.55798
590.04234
270.77275
216.19249
161.13248
107.87844
107.5356
160.13671
214.65353
268.77914
585.61316
581.26724
266.82534
213.14648
159.16217
107.1983
106.86526
158.20538
211.66647
264.90699
577.00148
572.81284
263.02589
210.21627
157.26821
106.53651
106.21061
156.3476
208.79184
261.17895
568.69797
564.65257
259.37183
207.39889
155.44726
105.88784
105.56727
154.56846
206.04061
257.61151
560.67209
556.75028
255.92525
204.73863
153.72473
105.25159
104.94219
152.93439
203.52385
254.35678
552.8809
549.04662
252.96074
202.4391
152.22525
104.64647
104.35235
151.59223
201.48287
251.73746
545.21409
541.26801
250.43886
200.45762
150.90504
104.03057
103.56091
149.88093
198.92755
248.50287
537.07007
532.41767
245.15781
196.30053
148.12612
102.85475
102.07903
145.81112
192.61666
240.39192
527.3672
530.97764
244.37858
195.73527
147.44712
101.35304
103.83462
149.62798
198.5074
248.25221
535.21759
540.60543
252.89729
202.32113
152.01109
104.38328
104.9029
153.19685
203.95696
254.93302
545.02791
549.14373
256.36139
205.08611
153.93995
105.19813
105.49855
154.62022
206.10668
257.6674
553.08622
556.99664
259.13676
207.24952
155.36638
105.79766
106.1121
156.18615
208.50758
260.76023
560.92046
564.88516
262.49715
209.85121
157.058
106.43308
106.75833
157.96007
211.24355
264.3003
568.90354
572.98506
266.15234
212.67367
158.88578
107.08663
107.41744
159.82848
214.13047
268.04006
577.13547
581.3595
269.96523
215.61703
160.79054
107.75204
108.09027
161.76961
217.12964
271.92462
585.66037
590.04157
273.92296
218.67334
162.76925
108.43357
108.78184
163.78773
220.24549
275.95837
594.50605
599.05707
278.03591
221.85131
164.82867
109.13634
109.49685
165.89044
223.4884
280.15404
603.69792
608.432
282.31748
225.16165
166.97639
109.86447
110.23908
168.08513
226.869
284.52506
613.2629
618.19468
286.78182
228.61554
169.2202
110.62181
111.01255
170.38045
230.39962
289.08699
623.23106
628.37622
291.44544
232.2262
171.56943
111.41244
111.8214
172.78602
234.09383
293.8567
633.63448
639.0111
296.32574
236.00741
174.03361
112.24051
112.66975
175.3117
237.96633
298.85293
644.51157
650.14242
301.44341
239.97565
176.62396
113.11025
113.56196
177.96958
242.03445
304.09733
655.90998
661.82072
306.81893
244.1467
179.35116
114.02577
114.50148
180.76881
246.31278
309.6096
667.88143
674.09894
312.47618
248.5394
182.22773
114.99076
115.49494
183.72916
250.82775
315.42081
680.47972
687.03001
318.44621
253.17972
185.27344
116.0145
114.98496
182.12118
248.40122
312.36164
681.85352
675.35716
309.40192
246.10349
180.6148
114.47541
113.98256
179.14854
243.8664
306.52087
669.02879
662.86006
303.71572
241.68967
177.72425
113.50482
113.03619
176.33404
239.56394
300.97657
656.84446
650.97682
298.30628
237.49287
174.98037
112.57789
112.13197
173.66077
235.47319
295.70219
645.24952
639.65635
293.16349
233.50566
172.37688
111.69822
111.27508
171.12544
231.58596
290.68587
634.19203
628.85136
288.26889
229.7148
169.90694
110.86269
110.46032
168.71795
227.88745
285.90801
623.62932
618.52083
283.60234
226.10421
167.55886
110.06797
109.68413
166.42581
224.35967
281.34656
613.52138
608.62662
279.14024
222.65459
165.31933
109.30853
108.94017
164.23607
220.98439
276.97915
603.83266
599.13518
274.86366
219.35058
163.17722
108.57922
108.22462
162.13959
217.74868
272.7897
594.53076
590.01583
270.7581
216.18064
161.12455
107.87647
107.53376
160.12915
214.64214
268.76504
585.58735
581.24179
266.81141
213.13524
159.15472
107.19657
106.86363
158.19793
211.65519
264.89302
576.97622
572.78765
263.01183
210.20488
157.26069
106.53496
106.20915
156.33999
208.78025
261.16464
568.67263
564.627
259.35713
207.38694
155.43945
105.88646
105.56594
154.56034
206.0282
257.59631
560.64625
556.7242
255.90948
204.72574
153.71635
105.25027
104.94097
152.92607
203.51083
254.34071
552.85472
549.021
252.94431
202.42591
152.21696
104.64538
104.35143
151.58488
201.47067
251.72157
545.19039
541.24897
250.42268
200.44569
150.89881
104.03091
103.55451
149.86731
198.91003
248.4812
537.0613
532.42299
245.12258
196.27811
148.12672
102.85973
101.97811
145.75222
192.60059
240.38088
527.5487
540.78977
225.14292
180.01133
136.82262
98.22764
99.160459
139.07169
183.15237
229.26016
545.44188
550.32844
232.62322
185.8052
140.78869
99.748911
100.17123
141.73591
187.19093
234.37545
554.60801
558.64227
235.56315
188.12489
142.35602
100.45932
100.73721
142.93837
189.00773
236.69752
562.56718
566.49219
238.00242
190.01765
143.59425
101.017
101.30862
144.32035
191.14155
239.46316
570.45152
574.46342
241.03599
192.34881
145.09676
101.60586
101.90638
145.90155
193.60266
242.67319
578.53525
582.67324
244.35659
194.8919
146.72813
102.20926
102.51406
147.57016
196.20572
246.07325
586.88194
591.16556
247.82444
197.54691
148.42978
102.82201
103.13305
149.3046
198.91165
249.60698
595.52735
599.97057
251.42499
200.30464
150.19791
103.44852
103.76828
151.10785
201.72308
253.27658
604.49811
609.11343
255.16627
203.17182
152.03782
104.09355
104.4241
152.98609
204.64832
257.0924
613.81957
618.62028
259.0595
206.15738
153.95595
104.76107
105.10431
154.94612
207.69702
261.06651
623.51904
628.52014
263.11805
209.27201
155.95977
105.45486
105.81248
156.99609
210.88102
265.21374
633.62766
638.84599
267.35856
212.52907
158.05863
106.17849
106.55349
159.14719
214.21604
269.55365
644.18004
649.6352
271.80477
215.94768
160.2659
106.9387
107.33338
161.41367
217.72256
274.1113
655.21653
660.92891
276.47666
219.54425
162.59326
107.7383
108.15397
163.8039
221.41163
278.9008
666.77762
672.76823
281.38721
223.32789
165.04687
108.58185
109.01895
166.32188
225.29261
283.93557
678.908
685.20258
286.54285
227.30358
167.62819
109.462
109.91676
168.96468
229.36044
289.21174
691.65805
698.28614
291.96143
231.48059
170.34343
110.3911
686.84184
318.34025
253.09558
185.21761
115.99717
115.47661
183.67369
250.74471
315.31642
680.30189
673.93208
312.37898
248.46261
182.1768
114.97514
114.48745
180.71772
246.23632
309.5138
667.72194
661.66883
306.72266
244.06985
179.30028
114.01092
113.54637
177.9187
241.95789
304.00159
655.76515
650.00325
301.34935
239.90036
176.57371
113.09469
112.65466
175.26299
237.89332
298.7617
644.37664
638.87913
296.23731
235.93674
173.98656
112.22591
111.8072
172.74083
234.02594
293.77174
633.50492
628.24869
291.36456
232.16172
171.52663
111.39892
110.99984
170.34012
230.33879
289.01065
623.10525
618.07054
286.70953
228.55802
169.18215
110.60975
110.22749
168.04899
226.81437
284.45643
613.14018
608.31029
282.25125
225.10897
166.94154
109.85318
109.48581
165.85659
223.43725
280.08976
603.57711
598.93731
277.97275
221.80108
164.79545
109.12546
108.7711
163.75501
220.19596
275.89615
594.38736
589.92404
273.86094
218.624
162.73666
108.42285
108.07955
161.73712
217.08048
271.863
585.54396
581.2441
269.90356
215.56787
160.75806
107.74128
107.4067
159.79602
214.08135
267.97863
577.0212
572.87197
266.09085
212.62449
158.8533
107.07583
106.74749
157.92778
211.19468
264.23934
568.792
564.77558
262.43637
209.80248
157.02584
106.42217
106.10121
156.15468
208.45979
260.70064
560.81324
556.89229
259.0786
207.20316
155.3361
105.78691
105.48837
154.59335
206.06483
257.61413
552.98644
549.05109
256.31426
205.04968
153.91747
105.18855
104.89344
153.18789
203.94059
254.90901
544.95178
540.54618
252.86822
202.29391
151.99598
104.36952
103.79429
149.69252
198.59992
248.34845
535.21701
530.96944
244.44196
195.81226
147.53819
101.42194
102.08274
146.99838
195.12963
243.85441
530.42655
535.41046
248.60415
198.82343
149.75704
103.81824
104.38529
152.01183
202.29919
252.87147
540.66519
545.09217
254.95331
203.97272
153.19982
104.88398
105.18841
153.94317
205.09204
256.36992
549.18072
553.10779
257.68065
206.11792
154.62656
105.49221
105.79364
155.37114
207.25684
259.14546
557.00781
560.92505
260.76814
208.51498
156.19102
106.10969
106.43098
157.05997
209.85408
262.50037
564.88544
568.90077
264.3033
211.24686
157.9624
106.75705
107.08517
158.88555
212.6732
266.15161
572.98014
577.12896
268.03982
214.131
159.82893
107.41656
107.75084
160.78905
215.61472
269.96236
581.35194
585.65203
271.92268
217.12861
161.76899
108.08953
108.43256
162.76684
218.6698
273.91879
590.0329
594.49734
275.95552
220.24353
163.7864
108.78127
109.13551
164.82586
221.8473
278.03139
599.04871
603.69032
280.15101
223.48605
165.88874
109.49646
109.86394
166.97356
225.15775
282.31334
608.42577
613.25859
284.52273
226.86703
168.08366
110.23904
110.62151
169.21759
228.61202
286.77837
618.19315
623.23313
289.08444
230.39722
170.3786
111.01239
111.41155
171.56566
232.22116
291.44043
628.38276
633.6461
293.85094
234.08848
172.78205
111.82033
112.23874
174.02736
235.9988
296.31658
639.02811
644.53287
298.84191
237.95672
175.30489
112.66761
113.10714
176.61472
239.96253
301.42848
650.16704
655.93597
304.08171
242.0214
177.9607
113.55876
114.02275
179.34182
244.1329
306.8027
661.84578
667.90384
309.59536
246.30083
180.7604
114.49919
114.98674
182.21903
248.52663
312.46074
674.11678
680.4887
315.40005
250.80996
183.71621
115.48848
116.00966
185.26178
253.16381
318.42804
687.03235
1179.2514
1179.36
1179.248
1179.3526
1163.942
1164.2446
1164.7275
1204.742
1203.9136
1164.2469
1162.9416
1201.7885
1203.9113
1204.3086
1192.3612
1173.7285
1153.3518
1148.1348
1168.1329
1163.2021
1171.3787
1151.0157
1142.6397
1136.6136
1148.6732
1162.167
1203.0815
1189.0376
1190.7817
1212.1462
1213.7525
1209.5379
1188.4269
1184.3414
1205.9546
1201.7664
1210.7062
1209.5273
1187.7256
1167.7105
1169.3245
1157.7611
1154.1997
1132.7277
1146.9622
1128.1815
1108.9038
1110.9147
1096.1852
1116.0497
1111.8643
1091.7643
1072.6051
1065.358
1072.2981
1091.3161
1091.2765
1090.2013
1108.9188
1109.3668
1094.5002
1092.9948
527.39178
239.91171
192.21901
145.50696
102.44299
103.024
147.93626
195.99726
244.78755
532.36649
537.00495
248.25286
198.71191
149.73516
103.6352
104.07622
150.80822
200.31579
250.28107
541.21954
545.19104
251.64602
201.39784
151.53259
104.38186
104.66701
152.18472
202.3821
252.9024
549.04444
552.89523
254.32314
203.48942
152.90923
104.95752
105.26305
153.70725
204.7153
255.90456
556.77753
560.70894
257.60382
206.0296
154.55945
105.57695
105.89573
155.44199
207.39321
259.3706
564.69667
568.74775
261.18585
208.79404
156.34775
106.21795
106.54286
157.26994
210.22077
263.03589
572.86697
577.05861
264.92226
211.67627
158.21081
106.87155
107.20393
159.16798
213.15684
266.84176
581.32656
585.67367
268.79911
214.66763
160.14514
107.54141
107.88381
161.14063
216.20617
270.79272
590.10362
594.6194
272.82752
217.77761
162.15806
108.23242
108.58703
163.19593
219.37977
274.90222
599.22439
603.92197
277.02162
221.01764
164.25777
108.9488
109.31754
165.34226
222.68939
279.18481
608.71623
613.61072
281.39632
224.39963
166.45259
109.69425
110.07875
167.58761
226.14672
283.65539
618.60942
623.71662
285.96672
227.93538
168.75061
110.47216
110.87438
169.94069
229.76433
288.32988
628.93659
634.27454
290.74959
231.6382
171.16107
111.28644
111.7083
172.4111
233.55608
293.22582
639.73546
645.32538
295.76317
235.5225
173.6939
112.14104
112.58467
175.00902
237.53693
298.36216
651.05018
656.91611
301.02731
239.60373
176.35951
113.0402
113.50777
177.74527
241.72288
303.75957
662.92991
669.09867
306.56522
243.90024
179.17055
113.9888
114.48373
180.63576
246.13675
309.4464
675.42956
681.93027
312.40861
248.43749
182.14458
114.99387
114.47238
180.60118
246.08247
309.37506
675.28957
668.96341
306.49964
243.85078
179.13932
113.98044
113.5024
177.7159
241.67555
303.69668
662.79804
656.78564
300.95737
239.54948
176.32477
113.0332
112.5739
174.96796
237.47464
298.28359
650.92117
645.19721
295.67651
235.45256
173.64657
112.1273
111.69231
172.35884
233.47993
293.13256
639.60684
634.1441
290.65141
231.55759
171.10549
111.2686
110.85563
169.88416
229.68228
288.23006
628.8039
623.58174
285.86942
227.85593
168.69645
110.45394
110.06183
167.53802
226.073
283.56438
618.47407
613.47514
281.31178
224.33164
166.40721
109.67846
109.30265
165.29949
222.62543
279.10519
608.57986
603.78443
276.94564
220.95685
164.21727
108.93492
108.57398
163.15721
219.32126
274.82879
599.08527
594.47894
272.7551
217.7201
162.12013
108.21986
107.87145
161.10261
216.14849
270.72012
589.96165
585.53011
268.72516
214.60885
160.10635
107.52898
107.19134
159.12812
213.09658
266.76618
581.18116
576.91158
264.84474
211.6143
158.16973
106.85871
106.52978
157.22766
210.15713
262.95657
572.71824
568.59725
261.10437
208.72856
156.30422
106.20469
105.88236
155.39704
207.32573
259.28694
564.5441
560.5537
257.51715
205.95952
154.51272
105.56355
105.2498
153.65855
204.64242
255.81481
556.61915
552.73267
254.22961
203.41333
152.8584
104.94509
104.65641
152.132
202.30362
252.80634
548.87518
545.00874
251.54968
201.31854
151.47938
104.3772
104.08137
150.75862
200.24604
250.19988
541.01268
536.72527
248.19422
198.64973
149.685
103.66575
103.09236
147.91833
196.0044
244.83925
531.96264
526.6092
240.01077
192.18261
145.4064
102.57686
101.17023
141.08447
185.47614
231.86751
519.60823
526.65705
250.10667
200.29466
151.16813
107.20866
101.5875
147.78028
196.15257
244.80288
531.46671
535.24697
248.19917
198.49746
149.67203
103.98064
104.44807
151.97799
202.25053
252.80393
540.59385
544.98692
254.84639
203.88545
153.1588
104.95345
105.23419
153.90851
205.03158
256.29821
549.1064
553.05452
257.61837
206.06343
154.59404
105.52537
105.81683
155.3431
207.21216
259.09556
556.97295
560.90379
260.72812
208.47843
156.16754
106.12653
106.44337
157.04072
209.82475
262.46881
564.87442
568.8976
264.27888
211.22364
157.94689
106.76641
107.09238
158.87323
212.65502
266.13293
572.98298
577.13665
268.02592
214.11695
159.8192
107.4222
107.75535
160.78137
215.60388
269.95205
581.36335
585.66657
271.91568
217.12065
161.76317
108.09325
108.43568
162.76257
218.66417
273.91434
590.04944
594.51505
275.95313
220.23976
163.78337
108.78399
109.13798
164.82397
221.84519
278.03072
599.06717
603.70905
280.15223
223.48569
165.88809
109.49887
109.86633
166.97403
225.15888
282.31606
608.444
613.27563
284.52699
226.86959
168.08515
110.24144
110.62402
169.22001
228.61576
286.78373
618.20757
623.24374
289.09097
230.40217
170.38197
111.01509
111.41446
171.56979
232.22713
291.44794
628.38814
633.64528
293.85936
234.09542
172.78681
111.82321
112.24126
174.03212
236.00584
296.32507
639.02051
644.51887
298.85034
237.96369
175.30958
112.66993
113.10931
176.61893
239.96877
301.43595
650.14591
655.90792
304.08723
242.0262
177.9638
113.5606
114.0242
179.34462
244.13641
306.80551
661.81117
667.86225
309.59654
246.30511
180.7658
114.50168
114.99403
182.22942
248.53379
312.4623
674.06827
680.43626
315.40676
250.82736
183.74235
115.50332
116.02737
185.30703
253.18228
318.42572
686.97431
114.47318
180.60022
246.08384
309.37946
675.31959
668.9872
306.4901
243.83996
179.12957
113.97641
113.49427
177.70113
241.65769
303.6786
662.8174
656.80396
300.94489
239.53774
176.31548
113.02657
112.57177
174.96721
237.47356
298.28244
650.93895
645.21517
295.68845
235.4636
173.65552
112.12958
111.69856
172.37693
233.5028
293.15749
639.62578
634.16508
290.68864
231.59133
171.13154
111.27869
110.86937
169.9144
229.7224
288.27514
628.82641
623.60327
285.90892
227.88972
168.72097
110.46668
110.06989
167.55334
226.09505
283.59143
618.49361
613.49296
281.32576
224.34176
166.41313
109.68097
109.30314
165.30261
222.63164
279.11434
608.59749
603.80196
276.95322
220.96178
164.21949
108.93551
108.57484
163.15979
219.32615
274.83594
599.10235
594.49502
272.76205
217.72519
162.12323
108.22106
107.87312
161.10614
216.15379
270.72691
589.97639
585.54324
268.73141
214.6139
160.10992
107.53109
107.19381
159.13139
213.10098
266.77155
581.19269
576.92149
264.84889
211.6177
158.17237
106.86147
106.53294
157.22965
210.15945
262.95945
572.72655
568.60376
261.10572
208.72955
156.3053
106.20826
105.88647
155.3973
207.3254
259.28676
564.54877
560.55636
257.51549
205.95793
154.51222
105.56838
105.25571
153.65753
204.63974
255.81177
556.61988
552.7312
254.22489
203.40932
152.85675
104.95243
104.6658
152.13027
202.29867
252.80019
548.87186
545.00466
251.54116
201.31165
151.47667
104.38889
104.09691
150.75747
200.23961
250.19142
541.01302
536.74001
248.19447
198.6515
149.69156
103.68691
103.12037
147.94315
196.03101
244.8694
532.00975
526.73131
240.08364
192.23399
145.44427
102.59611
101.23536
141.5098
186.06886
232.53496
519.96883
531.41037
213.74364
170.0214
130.17217
97.781198
104.64834
145.26229
191.38807
238.99121
524.45363
525.90351
239.97956
192.34802
146.1064
104.63004
102.27247
145.4648
192.20894
239.92608
527.52772
532.38755
244.81985
196.02635
147.96422
102.9974
103.60439
149.72728
198.71611
248.26433
537.03068
541.2503
250.30094
200.33144
150.81536
104.05787
104.36659
151.53393
201.40457
251.65618
545.21363
549.06045
252.91366
202.39133
152.18922
104.65685
104.94979
152.91166
203.49482
254.33025
552.90617
556.78515
255.91257
204.72225
153.71108
105.25783
105.5727
154.56137
206.03337
257.60863
560.71428
564.70032
259.37637
207.39846
155.44509
105.89287
106.21532
156.34895
208.79628
261.18869
568.74999
572.86811
263.03962
210.22429
157.27209
106.54104
106.86968
158.21105
211.677
264.92338
577.05917
581.32653
266.84391
213.15896
159.16919
107.20269
107.53998
160.14473
214.66734
268.79906
585.67336
590.10275
270.79368
216.20724
161.14119
107.88289
108.23127
162.15706
217.77644
272.82649
594.61832
599.22326
274.90227
219.38
163.19594
108.58635
108.94791
164.25635
221.01585
277.0199
603.92111
608.71549
279.18405
222.68883
165.34172
109.31702
109.69345
166.45069
224.39714
281.39388
613.61065
618.61026
283.65408
226.14561
167.5867
110.07835
110.47158
168.74878
227.9329
285.9643
623.71871
628.94043
288.32906
229.76362
169.94013
110.87421
111.28612
171.15993
231.63669
290.74825
634.28029
639.74374
293.22654
233.55669
172.41141
111.70837
112.14091
173.69396
235.52286
295.76407
645.33607
651.06358
298.36532
237.53944
175.0105
112.58479
113.04006
176.36057
239.60595
301.03075
656.93236
662.94902
303.76545
241.72727
177.74772
113.50789
113.9889
179.17307
243.90489
306.57187
669.11992
675.45246
309.45577
246.14408
180.64037
114.48451
114.995
182.14988
248.44578
312.41928
681.95456
698.44734
292.04657
231.54781
170.38749
110.4075
109.93239
169.00284
229.41988
289.28871
691.80828
685.34159
286.6049
227.34991
167.65695
109.47117
109.02269
166.34743
225.33416
283.99106
679.03994
672.89634
281.44521
223.37203
165.07412
108.58617
108.16121
163.83459
221.46024
278.96384
666.9028
661.05229
276.54475
219.59789
162.62842
107.74775
107.34456
161.4522
217.78022
274.1834
655.33921
649.75741
271.8789
216.00752
160.30623
106.95143
106.56729
159.18748
214.27567
269.62744
644.30156
638.96634
267.42875
212.58559
158.09668
106.19216
105.82516
157.03103
210.93324
265.27906
633.74678
628.63811
263.17839
209.3199
155.99153
105.4664
105.11492
154.97506
207.74116
261.12269
623.63595
618.73598
259.11216
206.19846
153.98269
104.77088
104.43328
153.01128
204.68727
257.14266
613.93414
609.22699
255.21457
203.2091
152.06182
104.10224
103.77669
151.13114
201.75932
253.32371
604.61063
600.08199
251.47096
200.33993
150.22052
103.45672
103.14116
149.32669
198.9462
249.65215
595.63755
591.27406
247.86841
197.58051
148.45126
102.83009
102.52225
147.59095
196.23827
246.116
586.98859
582.77752
244.39737
194.92284
146.74785
102.21762
101.91512
145.91995
193.63164
242.71173
578.63674
574.5612
241.07114
192.37498
145.11331
101.61521
101.31925
144.33459
191.16416
239.49409
570.54374
566.57607
238.02698
190.03519
143.60515
101.02973
100.7545
142.94519
189.01818
236.71283
562.63876
558.69775
235.56179
188.12225
142.35385
100.48213
100.20651
141.7151
187.15615
234.33482
554.64239
550.3623
232.52256
185.71605
140.72221
99.781755
99.273161
138.97767
182.99089
229.07033
545.45738
540.8176
224.91246
179.79838
136.64233
98.303364
532.39303
211.62303
168.22712
128.64008
96.346063
98.999687
136.09799
178.84485
223.95619
540.35492
545.55425
229.17385
183.0801
138.9502
99.303868
99.859471
140.70188
185.63888
232.41991
550.31278
554.61346
234.27403
187.10212
141.67385
100.22608
100.50055
142.32651
188.07848
235.51351
558.67457
562.62268
236.68116
188.98889
142.92523
100.76645
101.03893
143.58951
190.01147
238.00197
566.56522
570.53693
239.47622
191.1475
144.32335
101.32634
101.62028
145.10299
192.35971
241.05539
574.5577
578.63597
242.7007
193.62124
145.9128
101.91931
102.22053
146.7408
194.91264
244.38718
582.77891
586.99152
246.10944
196.23195
147.58647
102.52489
102.83194
148.44657
197.57383
247.86197
591.27798
595.64215
249.64867
198.94279
149.32425
103.14304
103.45801
150.21761
200.33585
251.46729
600.08701
604.61612
253.32259
201.7581
151.13021
103.77815
104.10329
152.06049
203.20723
255.2132
609.23265
613.93991
257.14373
204.6881
153.01182
104.43456
104.77176
153.9828
206.19862
259.11298
618.74131
623.64078
261.12554
207.74361
154.97679
105.11599
105.46705
155.99249
209.32123
263.18052
628.642
633.74934
265.28245
210.93618
157.0332
105.82597
106.19254
158.09777
212.58691
267.43076
638.96707
644.2998
269.62947
214.2776
159.18911
106.56772
106.95124
160.30598
216.00665
271.87805
649.75248
655.33022
274.18071
217.77841
161.45146
107.34409
107.74625
162.62485
219.59208
276.53774
661.03899
666.8844
278.95365
221.4522
163.82939
108.15891
108.58236
165.06524
223.35898
281.42967
672.87266
679.01052
283.97135
225.31785
166.33633
109.01786
109.46539
167.64233
227.32869
286.57983
685.30549
691.7651
289.26017
229.39611
168.98638
109.92606
110.40034
170.36901
231.52107
292.01437
698.39719
116.007
185.2518
253.14811
318.40754