/*--------------------------------*- C++ -*----------------------------------*\
  =========                 |
  \\      /  F ield         | OpenFOAM: The Open Source CFD Toolbox
   \\    /   O peration     | Website:  https://openfoam.org
    \\  /    A nd           | Version:  7
     \\/     M anipulation  |
\*---------------------------------------------------------------------------*/
FoamFile
{
    version     2.0;
    format      ascii;
    class       surfaceScalarField;
    location    "440";
    object      phi;
}
// * * * * * * * * * * * * * * * * * * * * * * * * * * * * * * * * * * * * * //

dimensions      [1 0 -1 0 0 0 0];

internalField   nonuniform List<scalar> 
76009
(
0.0018925624
1.4786191
-1.4802391
-2.0327497
2.0329758
-36.227875
2.0781805
-2.0798097
-2.0791941
2.0770696
-34.809884
0.0002898287
0.0017459115
2.0330031
1.4786817
-1.4801929
-2.032718
-36.227809
2.0771177
2.0782305
-2.0797418
-2.0791048
0.0002106672
-34.809692
-0.0028682362
-9.3254692
-0.0028047713
-0.38312768
0.37477767
0.36808254
-0.39122367
0.36809708
0.37480613
-0.38311165
-0.39121803
-0.012543878
-7.6963242
0.066425657
-7.4067704
0.012605194
-0.012692043
-0.012657709
-10.341853
0.0055149663
-0.054879457
-9.6923697
-0.0054766761
0.38345537
0.37875248
-0.37537408
-0.38013734
0.38346652
-0.38012978
-0.37537207
0.37875541
-9.3278941
7.6963479
-0.054846158
-9.6923858
0.066500175
0.37066771
-0.37685913
0.52403922
-0.53752047
-8.2568628
-0.0016877804
-0.0001076625
-0.57861738
-0.020062395
0.023915819
-0.024943657
0.032545056
-0.00030618367
-0.56494417
0.032735947
-0.025185785
-0.025306166
0.032626182
-0.011020636
-0.0077046838
-2.48105
0.098798229
0.13271784
-0.12915654
-0.096133568
0.0036102314
-2.6368472
0.094988588
-0.092189621
-0.12661662
0.12825816
-0.1302782
-2.342827
0.0024627796
-0.47562375
0.0020457704
-0.0016412913
-0.0014075798
0.00065791023
-0.57545649
-0.031891731
-0.023486502
0.023775688
0.032335587
-0.52702019
0.0016263714
-0.00066396938
0.00043039544
-0.65442161
-0.001521551
-0.00041452572
-0.66419639
0.48062146
-0.62368159
0.0097308616
0.006298123
0.0047535923
-0.13147348
-0.51098301
-0.023260835
0.023555847
0.032692404
-0.032747132
-0.0017156187
-0.13248416
-0.10176623
0.098030591
-0.10176311
-0.13247713
-2.3805752
0.0020823787
0.13654393
0.1336099
-0.13103041
-0.13368263
-2.5351961
0.13607802
-0.13333555
-0.12901006
0.13157039
-2.4760437
4.6216289e-05
-7.918242e-05
0.0016581167
-0.5335474
-0.000656846
-0.00080369498
0.0016927585
-0.53493448
0.0016486063
-0.53166334
8.8351038e-05
-0.54550622
-4.9051929e-05
0.032312848
0.032356308
-0.031922038
-0.031915463
3.7492354e-06
-0.54629826
0.032388531
-0.03191501
-0.031931587
0.03235321
-0.54743272
-0.032093084
0.032543497
0.032387124
-0.031915101
0.0028052342
-0.00030131975
0.0001077162
0.032738628
0.032629626
-0.025300602
-0.025181333
-0.56493067
-0.00056236498
-0.65889575
-0.0029264677
-0.00012416654
-0.66612883
-0.00013045634
0.032630355
0.032593301
-0.02538125
-0.025309609
-0.56392839
0.0029916449
-1.0422879e-05
-0.025378046
0.032594654
0.032555916
-0.025374805
-0.56301562
0.00057101511
-0.66458649
0.52519423
-0.0030117621
-0.6506358
1.4297103e-05
0.0016239555
1.6152649e-05
-0.54367655
1.5917359e-05
-0.031896109
0.032300145
0.032276383
-0.031881987
-0.56108722
1.4914924e-05
-0.025353087
0.032542678
0.032520997
-0.025337023
0.0046467745
3.1291385e-05
-0.57239919
1.2215709e-05
0.0066216863
-0.12872345
0.0006494124
-0.51792762
1.2630913e-05
-0.50023508
0.002420451
-2.0269611
-0.10832062
0.13312275
-0.10483362
4.0015611e-05
0.0017271884
-7.791057
0.51969713
-0.54577864
-0.52573504
9.5870047e-05
-8.2568073
-0.37683482
0.37069042
0.52405372
-0.53749485
0.012452182
0.5477928
0.38617126
-0.37561585
-0.52886075
-10.433368
0.55323298
7.6573836e-05
-0.53184187
-0.51393563
0.53648186
-9.9017235
-0.0068771564
0.020326686
2.6815809
-2.1402634
-0.0015339762
-0.013365909
2.6566644
-2.1177885
0.015405623
2.626083
0.0064509383
-1.8762732
1.8142293
0.021731823
0.030159434
0.042721961
0.035925335
-2.1038228
-0.08497625
-0.0029691597
0.12979394
0.096589934
-0.10468718
0.040396365
-0.0033177541
0.63388367
0.02149302
-2.3268372
-0.0074300968
0.61574546
0.53947988
0.62211103
0.077665974
-0.098053034
-0.13415626
0.096493938
0.084328451
0.47526408
-0.0044958962
-0.0061892152
-2.037745
0.094770398
0.12577344
-0.1187889
0.081499386
-2.1869246
-0.19039162
-1.949533
0.0027615873
0.14505015
-0.0048305667
0.0010217743
-0.14286467
-2.1782336
-0.0066473423
-2.6302097
0.0050538112
-0.002446399
-2.655904
2.3144122
0.095920189
0.13057322
-0.12957817
-0.095153241
0.00044331717
-2.310542
0.0015409091
0.13181113
0.096402566
-0.094776005
-0.12923638
2.2163506
-2.2004596
3.596816e-05
-0.12989091
0.13277709
0.13214789
-0.12909344
0.62856583
-0.064506805
-0.0017982711
0.63333768
0.54548558
0.54225608
0.098767848
-0.13599554
-0.13516167
0.097969729
0.10538294
-0.001863138
0.52325532
0.0054488298
-0.003658131
-2.0661447
-0.10877174
0.13353292
0.13071878
0.0018329882
0.061927108
3.0283684e-05
-2.6128205
0.63243286
0.54156936
0.5392393
0.61775918
3.4058702e-05
0.097967497
-0.13485706
-0.13467478
0.097670618
-2.1970122
0.0010718854
-0.0039990645
0.52628977
0.00074964469
0.5276998
-0.003925117
-0.00031443664
-0.0044933317
-8.833643e-05
-0.00089243954
-0.0043436396
-0.0023928677
-0.5199333
-0.0031939357
3.5159286e-05
-0.51577302
0.0098979564
0.0080020737
-0.0030703757
-0.020241981
0.0032498389
0.57476409
-0.037825227
-0.0037791957
0.5786067
0.0034231062
-0.00056169086
0.023918646
-0.02005893
-0.024939817
0.032547337
-0.023753683
-0.11762407
0.0005766193
0.16436977
0.00035001097
-0.020323092
0.03274859
-0.029819293
-0.010756072
-0.63277286
-0.15567135
-0.0011061843
-0.0012285629
0.15372331
0.15581383
0.13477765
-0.0070796072
-0.022776644
0.018954171
0.023175921
-0.028201904
-0.0030565023
-0.57757846
0.12944218
-0.00064866703
-0.0011162075
0.16270785
-0.00021668551
7.4974036e-05
0.00012473716
0.13077548
-0.00010060821
1.6509262e-05
0.11834548
-0.00059830701
0.00020038909
0.00041727544
-0.0001033685
0.00010008035
0.00011825985
-0.14563967
-0.00018131141
-6.1317558e-05
-0.13142948
8.2512379e-05
-2.0554861e-05
-0.16404988
-0.00070447898
-0.14539295
-0.00034856207
-1.932139e-05
-0.00036385465
-0.14387031
-0.0012507434
-0.00012472757
-0.13064856
-0.00066658221
-0.00063580433
-0.0052467728
-0.0094074392
-0.00096969715
0.0001139539
0.14492869
0.0003061768
-0.15422292
-0.00053333662
0.028503104
0.13138224
8.2801045e-06
-0.16502645
0.49523601
0.033002809
0.032226863
-0.032342262
-0.035095572
-0.57704705
0.03257328
-0.032426334
0.031915241
-0.032276818
0.031469491
-0.13146328
-0.0001410625
-0.00011237176
-3.8681989e-05
-0.00054482028
-0.16401059
0.14538833
-0.0004335292
-0.14529585
-4.6194209e-05
-0.00022057105
-9.1017266e-05
0.00015758676
-0.1447515
-0.00021661346
-0.00011167676
-0.12996756
-7.9571935e-05
-7.8669687e-05
-0.16211998
-0.00059054648
-0.14487983
-0.00031248592
-7.1383621e-05
0.0011560339
-0.00020235828
-0.14550192
-0.00030432835
-2.725816e-05
-0.0003957479
-6.6124529e-05
-0.00068786744
-0.13053093
-0.00025241109
0.00013148922
-0.00071058047
-0.16228582
-0.00029904656
-0.14470913
-5.6083096e-05
-3.0118277e-05
-0.14372814
0.14388165
-3.0991737e-05
-0.00039144297
0.032632909
-0.16275304
-0.00038084298
0.12976028
0.035102028
-0.59563814
-0.032633255
0.032533539
0.52674473
0.024238382
-0.02479088
-0.024790217
0.024238414
0.032532744
0.010763921
-0.57705042
0.032226892
0.033004324
-0.028503127
-0.032343407
-0.63277891
-0.020322634
0.023755656
0.032749224
-0.029820106
-0.00014080535
-0.56394505
0.032626859
-0.025315601
-0.02538923
0.032587946
-2.5899113e-05
-0.56303402
0.032589518
-0.025386295
-0.025385866
0.032547774
-0.56110655
0.032535135
-0.025364156
-0.025351461
0.032509571
-4.0086945e-06
4.6382972e-05
0.0065844442
-4.6597414e-06
0.0046766424
-0.57240936
0.00024941671
0.0067169001
0.004635946
-0.5745899
0.00070271831
0.0045107033
-0.57592829
0.0070192353
0.00056507181
0.0043564591
-0.57660572
0.0074427359
-0.009897794
0.003203604
-0.57477129
0.0034131695
-0.12577511
-2.8086046e-05
-0.51577764
0.0079938626
-0.035904416
-2.037753
-0.084326133
0.094776481
-0.1187904
0.081476494
-1.81424
0.042737688
0.030144379
0.021737393
-2.6260925
-0.021494553
-2.1869286
-0.1904035
0.63388952
-0.040372695
-2.3268444
-0.0074472203
0.62211818
0.53948251
0.61574866
0.077661866
-0.098056651
-0.13416236
0.096488094
0.084985171
-0.0061894165
0.47526917
-0.0045015439
-2.103845
-0.0029619196
-0.10469725
0.1297881
0.096582731
-2.6566806
-0.0033201468
-0.013368247
-0.54777659
0.015387343
-2.1177956
0.0068725056
-0.38615529
-1.8762778
0.0064387787
-0.37563128
-0.52887762
0.012461811
-10.433403
0.0048210538
-0.0066461434
-2.6302137
1.9495348
0.0010190658
-2.1782345
-0.14287038
0.0027579306
0.14504241
-2.3144143
0.0015265382
0.096400237
-0.094778092
-0.12924021
0.13180661
-0.0050398584
-2.310542
0.00043342559
0.095918557
-0.095154689
-0.12958067
0.13057007
-0.0024499425
-2.6559093
0.53186495
-2.6831036
0.002446182
2.1402706
0.006071984
7.7911445
-9.9017715
-0.51396609
0.536446
0.55320938
7.0291144e-05
0.51967026
-0.54581786
0.50019461
-0.52578938
9.3867441e-05
-2.0661724
-0.10539575
0.13071077
0.13352124
-0.10878927
-0.0024288409
0.064468496
-2.6816002
0.0018212509
0.62857549
0.63334684
0.54225757
0.54548977
-2.2163561
-0.0018324437
-0.13600154
0.098760896
0.097955619
-0.13517479
0.0054515948
0.52326418
-0.0018673097
-0.0036687261
0.51994084
-0.0032577399
-0.0023946401
0.00089218066
0.00031149373
-0.52771041
-9.5535201e-05
-0.0039395417
-0.0010806067
0.0009020812
-0.00084782549
-0.037664515
0.003784355
-0.037666951
0.0030721957
-0.037834364
-0.020248731
0.11750427
0.50177366
0.0072445614
0.008731351
-0.65550257
-2.212716
-0.11750488
0.12603676
0.091478322
-0.10245371
0.091478802
0.12604077
-0.1024551
0.10985536
0.096442362
0.10985483
-0.09627403
-0.097984191
0.096444475
-0.097981974
-0.096272668
-2.6175953
0.65550015
0.0030466488
-0.47142982
0.00040436329
0.50177061
0.0087345138
0.0072481565
-0.0040430202
-0.51545188
-0.02095069
0.027466733
-0.03060144
0.031601618
0.018323912
-0.005017892
-0.050066422
-0.55408677
0.15884348
0.15607961
0.13516765
0.15521154
-0.012030436
-0.0021252256
0.023157976
0.018827892
-0.02466948
-0.033544839
-0.57993607
0.11860138
-0.0013168627
-0.0021683702
-0.00013363962
0.00012947885
-0.13041825
-0.00015058611
-0.00061180528
-0.0022292447
-0.0016281582
0.0012158984
0.14317345
-0.0013464217
-0.010104528
0.12963819
-0.0059805604
3.284797e-05
-0.00094938658
-0.0013321463
-0.00032126506
-7.3569164e-05
-0.14366102
-0.0011564849
-0.00016921247
-0.032531925
-0.13045264
-0.00079142775
-0.018321399
0.032531107
-0.029821507
-0.025260411
0.024203588
-0.56230307
-0.029820029
-0.02525908
0.024204644
0.0040483848
-0.020951743
0.027466542
0.031600512
-0.030603116
-0.5154536
0.0070777708
0.15567428
0.15581595
0.1347794
0.15372658
-0.0030638775
-0.57758384
-0.022778669
0.018952325
-0.028204852
0.023173643
0.11762641
-0.0012308174
-0.001106346
0.00034726372
0.0005770514
-0.00020167409
0.0011593699
-0.14550445
-0.0003072514
-2.911462e-05
0.00069035562
-0.13053252
-0.00025505459
0.00066987953
0.00039542159
-0.13138417
-0.13065096
0.00036388957
-0.00063632961
-0.0052496007
0.00065151829
0.14387357
-0.0094108817
-0.00097113625
0.12944534
-0.0011172453
-0.00022008404
7.4784549e-05
-0.0012542092
-0.00012548773
-0.14493159
-6.7417883e-05
0.00011494951
0.00030347645
-0.00053555806
-0.15422534
6.362431e-06
-0.16502831
0.0001300991
-0.00071242336
-0.16228724
-0.00030125148
-5.8650146e-05
-0.14471097
-2.8483152e-05
0.14388363
-0.00039278576
-3.4069441e-05
-0.14372955
0.12976139
-0.0003815843
-0.16275397
0.16225123
-6.9013042e-06
-0.00020445688
0.032499824
0.12948852
-0.00019035383
-0.00014089426
0.03226451
0.024143581
-0.024610574
-0.032501559
0.032260828
-0.02461133
0.024141642
-0.001463264
2.0771376
-2.0791043
-2.0796524
2.0783797
-34.809688
1.4788219
2.0331331
-2.0326464
-1.4801078
-36.227752
-0.53030684
-10.422878
-0.36946299
0.37484245
0.058436818
0.0020138803
0.13655507
-0.13367649
-0.13101337
0.13363357
-0.003543232
-2.5352188
0.13156831
0.13609392
-0.13332349
-0.12901284
-2.4760515
0.00068220087
-0.52519563
0.0016284139
-0.0017110059
-0.0001150024
-0.5463067
2.5517152e-05
0.032396974
0.032358057
-0.031928355
-0.031908324
5.0761702e-05
-0.53494085
-0.00078372343
-0.53355133
0.0016702391
0.00054843513
-0.0029819052
0.00014979021
-0.66459114
-0.0030082435
-0.65063749
0.54367855
3.9172873e-05
-0.5610893
0.032519931
0.032546379
-0.025350315
-0.02533774
7.9477164e-05
-0.031883271
0.032275304
0.032304578
-0.03189237
-0.54551175
0.032315034
-0.031914311
-0.031916498
0.032363204
0.00015616287
-0.56302125
0.032557424
0.032600374
-0.025373668
-0.025373529
0.002911709
0.00032287784
-0.56393727
0.032637456
0.032597026
-0.025378244
-0.025304091
0.00058068915
-0.66613653
0.53167132
-0.0027869647
-0.00041167573
-0.65890535
0.0016708017
-0.0016063401
-0.54744316
0.032552652
0.032393702
-0.031910449
-0.032085906
-0.00064125013
0.0001246967
-0.56494172
0.032746435
0.032634906
-0.025296366
-0.025175196
0.0015008235
0.032553656
0.57546919
-0.024934757
-0.020052424
0.023927001
-0.57861953
-0.0097192678
0.12914469
0.52702948
-0.65443297
-0.00065205174
-2.636882
0.13273679
-0.096113183
0.09882577
0.011057615
6.0275493e-05
-0.0020907046
1.4943771e-05
-3.5754512e-05
0.00012249035
-0.0025490867
1.9174256e-05
-3.9943991e-05
0.00019059942
-0.002921362
2.2436172e-05
-4.366358e-05
0.00026960024
-0.0032964717
2.5213001e-05
-4.7795253e-05
-0.054835326
0.00050395447
-0.00046578816
-0.0001701798
-0.00023148363
-0.054893266
0.00030519392
-0.00020067905
0.00018490809
-0.00016322266
-0.0033599754
1.7872893e-05
-2.2630271e-05
-0.00010118631
-0.0029788876
1.6489749e-05
-2.1000589e-05
-4.5906421e-05
-0.00260019
1.5290564e-05
-1.9467224e-05
-0.0021330636
1.3954286e-05
-1.7501642e-05
2.0179472e-05
-0.0021507894
3.1825706e-06
-5.6363077e-06
4.1299168e-05
-0.0026189402
3.9012096e-06
-6.2707661e-06
6.4467139e-05
-0.0029996325
4.2862138e-06
-6.7092514e-06
9.0655421e-05
-0.003383617
4.6313987e-06
-7.178114e-06
-0.055159288
0.00010797665
-6.4273094e-05
0.00031297426
-3.6556803e-05
-0.055494654
7.0176266e-05
-2.3508267e-05
0.00032525424
-2.6113356e-05
-0.0033941967
3.1735129e-06
-3.0373842e-06
-1.6571379e-05
-0.003009228
2.9575051e-06
-2.9040866e-06
-7.8432906e-06
-0.00262767
2.8184623e-06
-2.8169919e-06
-0.0021586179
2.7652251e-06
-2.7799277e-06
3.4085332e-06
-0.0021619052
1.5099379e-06
-1.6313979e-06
6.5681508e-06
-0.0026308177
1.6565137e-06
-1.6685282e-06
9.7101556e-06
-0.0030124514
1.788459e-06
-1.7071437e-06
1.2996718e-05
-0.0033976706
1.9506421e-06
-1.7633077e-06
-0.055779587
4.8449953e-05
-1.2465166e-05
0.00026194484
-7.2716692e-06
-0.055974648
3.9027835e-05
-1.088207e-05
0.00017418755
-5.6071626e-06
-0.0033995953
1.8015486e-06
-1.5413395e-06
-3.8867337e-06
-0.0030143487
1.6646051e-06
-1.4877021e-06
-2.0482584e-06
-0.0026327662
1.55372e-06
-1.4437191e-06
-0.0021640217
1.4666446e-06
-1.3983907e-06
1.7952844e-06
-0.002165802
1.1904346e-06
-1.2052092e-06
3.2741266e-06
-0.0026342784
1.3107401e-06
-1.2771922e-06
4.5800223e-06
-0.0030157382
1.4175282e-06
-1.3339052e-06
5.8053579e-06
-0.0034009609
1.5343003e-06
-1.3939784e-06
-0.056088634
3.0393086e-05
-1.0330123e-05
9.9728481e-05
-5.4516388e-06
-0.056147969
2.3619272e-05
-9.3448938e-06
5.0512272e-05
-4.3097495e-06
-0.0034021832
1.3029719e-06
-1.2227309e-06
-3.0888948e-06
-0.0030170032
1.2080465e-06
-1.1640421e-06
-1.6982164e-06
-0.002635681
1.1190154e-06
-1.1074102e-06
-0.0021674858
1.022453e-06
-1.0368471e-06
1.6451649e-06
-0.0021690991
8.2812905e-07
-8.6009383e-07
2.959553e-06
-0.0026369847
9.1493865e-07
-9.2567347e-07
4.0968123e-06
-0.0030181537
9.9045315e-07
-9.7720141e-07
5.1504317e-06
-0.0034032749
1.0675989e-06
-1.0294594e-06
-0.05617691
1.8374631e-05
-8.0147929e-06
2.3731343e-05
-4.9153342e-06
-0.056191163
1.4577631e-05
-6.6962199e-06
1.1287035e-05
-3.9260267e-06
-0.0034042819
8.7042854e-07
-8.5280793e-07
-2.8519407e-06
-0.0030192263
8.0699003e-07
-8.0840218e-07
-1.5981656e-06
-0.0026382177
7.438355e-07
-7.6451423e-07
-0.0021706599
6.7129496e-07
-7.0864997e-07
1.5573245e-06
-0.0021721746
5.4111315e-07
-5.8366997e-07
2.7611694e-06
-0.0026393938
6.0268579e-07
-6.3039859e-07
3.7748252e-06
-0.0030202294
6.5647294e-07
-6.6703226e-07
4.6972164e-06
-0.0034052101
7.0975568e-07
-7.0388865e-07
-0.056198979
1.1800261e-05
-5.541895e-06
6.2546495e-06
-4.5266214e-06
-0.056204021
9.7169761e-06
-4.5874722e-06
4.4392902e-06
-3.6553439e-06
-0.0034060807
5.8233859e-07
-5.8302502e-07
-2.6891185e-06
-0.0030211802
5.3693726e-07
-5.5239486e-07
-1.5255234e-06
-0.0026405259
4.9042762e-07
-5.2191979e-07
-0.0021736551
4.3754104e-07
-4.8261002e-07
1.5006558e-06
-0.0021751092
3.5278748e-07
-3.9937308e-07
2.6295487e-06
-0.0026416207
3.9846075e-07
-4.3264205e-07
3.559924e-06
-0.0030220915
4.3888481e-07
-4.5794846e-07
4.3884851e-06
-0.0034069044
4.7807483e-07
-4.829257e-07
-0.056207767
8.0501545e-06
-3.7804258e-06
3.8644763e-06
-4.2869637e-06
-0.056210778
6.6216122e-06
-3.0803732e-06
3.7567388e-06
-3.4894057e-06
-0.0034076928
3.8823491e-07
-3.973842e-07
-2.5890008e-06
-0.0030229694
3.5465564e-07
-3.7723472e-07
-1.4845007e-06
-0.002642688
3.196665e-07
-3.5682756e-07
-0.0021765448
2.8041807e-07
-3.2935006e-07
1.4745124e-06
-0.0021779643
2.1206514e-07
-2.6699519e-07
2.5614355e-06
-0.0026437308
2.4375902e-07
-2.8788728e-07
3.4397599e-06
-0.0030238172
2.7294549e-07
-3.0343039e-07
4.2096788e-06
-0.0034084448
3.0057931e-07
-3.1853766e-07
-0.056213227
5.2244924e-06
-2.4193316e-06
3.8531117e-06
-4.1612451e-06
-0.056215164
3.6595673e-06
-1.7102982e-06
4.149309e-06
-3.4068296e-06
-0.003409165
2.0203207e-07
-2.362139e-07
-2.5440577e-06
-0.003024635
1.815972e-07
-2.2652229e-07
-1.4669403e-06
-0.0026447509
1.597772e-07
-2.1672351e-07
-0.0021793653
1.3745356e-07
-2.0339358e-07
1.4680577e-06
-0.0021807511
5.2482288e-08
-1.3466754e-07
2.5348478e-06
-0.0026457414
6.2529003e-08
-1.3878746e-07
3.3901729e-06
-0.0030254238
7.5181136e-08
-1.416971e-07
4.1310631e-06
-0.003409848
8.6708365e-08
-1.44623e-07
-0.056216623
1.8342472e-06
-9.0697887e-07
4.6632933e-06
-4.1221557e-06
-0.056217436
-2.2602275e-07
-1.2373199e-07
5.2842937e-06
-3.3861005e-06
-0.0034104775
-4.4924158e-08
-6.1609835e-08
-2.5367527e-06
-0.0030261619
-4.5811784e-08
-6.5410879e-08
-1.4700378e-06
-0.0026466912
-4.7363833e-08
-6.9637998e-08
-0.0021821035
-4.267336e-08
-7.4957903e-08
1.4784849e-06
-0.0021834533
-1.3435832e-07
5.6316541e-09
2.5483417e-06
-0.0026476292
-1.5397986e-07
2.2177239e-08
3.3946569e-06
-0.0030268794
-1.6324155e-07
3.4409479e-08
4.1320663e-06
-0.0034110877
-1.727527e-07
4.5565278e-08
-0.056217777
-2.191913e-06
7.550835e-07
5.9099487e-06
-4.1438971e-06
-0.056217716
-3.4002341e-06
1.2025054e-06
6.280955e-06
-3.4088409e-06
-0.0034116684
-2.5402998e-07
9.9678517e-08
-2.5545549e-06
-0.0030275802
-2.383557e-07
8.4856509e-08
-1.4858896e-06
-0.0026485447
-2.2199979e-07
6.8779141e-08
-0.0021847934
-1.9269949e-07
4.6890196e-08
1.4884541e-06
-0.0021861355
-1.8585511e-07
3.9510542e-08
2.560034e-06
-0.0026494611
-2.1367913e-07
5.8521361e-08
3.4079014e-06
-0.0030282717
-2.2861894e-07
7.2233634e-08
4.1407329e-06
-0.0034122431
-2.4287309e-07
8.4726338e-08
-0.056217559
-3.1714063e-06
1.0089906e-06
6.1459532e-06
-4.1287314e-06
-0.056217734
-1.2089965e-06
6.8142631e-08
5.4447258e-06
-3.4019632e-06
-0.0034128355
-1.244509e-07
-9.8927143e-09
-2.5599687e-06
-0.003028979
-1.2141317e-07
-1.3324842e-08
-1.4932404e-06
-0.002650392
-1.1866641e-07
-1.7143694e-08
-0.0021874982
-1.073341e-07
-2.3203153e-08
1.4929194e-06
-0.0021888984
4.1335257e-08
-1.3399361e-07
2.5563068e-06
-0.0026513644
5.9496345e-08
-1.5044587e-07
3.3940637e-06
-0.003029732
7.8421718e-08
-1.6311005e-07
4.1130427e-06
-0.0034134752
9.5692051e-08
-1.7502778e-07
-0.056218666
2.3456366e-06
-1.5241312e-06
4.2231412e-06
-4.1303896e-06
-0.056220556
6.7498109e-06
-3.4220768e-06
2.6925929e-06
-3.4087904e-06
-0.0034141931
3.7236094e-07
-3.7600765e-07
-2.5696886e-06
-0.0030305553
3.3027976e-07
-3.4613092e-07
-1.5037466e-06
-0.0026524007
2.8441574e-07
-3.1406447e-07
-0.002190361
2.2970504e-07
-2.7087504e-07
1.5054485e-06
-0.0021918811
4.0939087e-07
-3.9477183e-07
2.5719833e-06
-0.0026535014
4.9595777e-07
-4.6184541e-07
3.41041e-06
-0.0030314487
5.658318e-07
-5.1083305e-07
4.1311077e-06
-0.0034149884
6.3075011e-07
-5.5613232e-07
-0.056223504
1.0813952e-05
-5.0905229e-06
1.3563906e-06
-4.1733312e-06
-0.056227256
1.3250309e-05
-5.9798794e-06
6.5425877e-07
-3.445074e-06
-0.003415846
7.8202244e-07
-6.5268466e-07
-2.5987817e-06
-0.0030323988
7.0302428e-07
-5.9916109e-07
-1.521616e-06
-0.0026546557
6.1826658e-07
-5.411419e-07
-0.0021934528
5.1159338e-07
-4.6150749e-07
1.5452665e-06
-0.0021950773
5.1321114e-07
-4.3389938e-07
2.6460376e-06
-0.0026558671
6.2134171e-07
-5.1066173e-07
3.5156993e-06
-0.0030334094
7.0739927e-07
-5.665087e-07
4.2672524e-06
-0.0034167676
7.877986e-07
-6.1774908e-07
-0.056231492
1.3411794e-05
-5.7108722e-06
8.0241401e-07
-4.4284467e-06
-0.056235582
1.1330177e-05
-4.5701581e-06
1.7587826e-06
-3.6367055e-06
-0.0034177078
6.502715e-07
-5.0188452e-07
-2.7262748e-06
-0.0030344392
5.8050327e-07
-4.6112963e-07
-1.5862507e-06
-0.0026570968
5.0618748e-07
-4.1654303e-07
-0.0021967241
4.1485105e-07
-3.5435093e-07
1.6381848e-06
-0.0021984
2.4925031e-07
-2.113866e-07
2.8263571e-06
-0.0026583415
3.0309621e-07
-2.4646226e-07
3.7860934e-06
-0.0030354829
3.5587277e-07
-2.7190397e-07
4.627513e-06
-0.0034186615
4.0740082e-07
-2.9505423e-07
-0.056239202
7.6076998e-06
-2.6476261e-06
3.2878601e-06
-4.7836312e-06
-0.056242285
3.0768617e-06
-5.5962029e-07
5.3487944e-06
-3.9124955e-06
-0.0034195674
1.0525109e-07
-7.0491473e-08
-2.9250268e-06
-0.003036481
7.7274978e-08
-6.6611439e-08
-1.6965567e-06
-0.0026595562
4.7743432e-08
-6.1534291e-08
-0.0022000657
2.2225738e-08
-5.3104608e-08
1.6562155e-06
-0.0022016516
-1.4932068e-07
7.9129637e-08
2.8422963e-06
-0.0026606967
-1.413703e-07
9.5773381e-08
3.7922661e-06
-0.0030374078
-1.3141134e-07
1.0822192e-07
4.6234671e-06
-0.0034203934
-1.2525161e-07
1.2003618e-07
-0.056245643
-6.4168989e-07
1.2059256e-06
7.4170789e-06
-5.0694037e-06
-2.6460888e-06
2.2966335e-06
8.2007008e-06
-4.1260976e-06
-2.6226406e-07
2.3927421e-07
-3.0690924e-06
-2.5805576e-07
2.1737831e-07
-1.7738185e-06
-2.5861282e-07
1.9390347e-07
-2.5550565e-07
1.6081096e-07
-4.6471713e-06
0.082178206
-2.4071175e-06
1.0925855e-05
-3.7106915e-06
0.0035190415
-1.3766016e-07
-2.7107048e-06
0.0030644217
-1.1899427e-07
-1.540921e-06
0.0026339525
-9.7591313e-08
0.0021381196
-6.7661378e-08
1.3913435e-06
0.0021364558
1.2323782e-07
2.3952293e-06
0.0026326959
1.1140493e-07
3.2219131e-06
0.0030633597
1.0394901e-07
3.976814e-06
0.0035180613
1.0004459e-07
0.082170523
3.2703249e-07
1.0690692e-05
-4.3725854e-06
0.082164834
3.5060102e-06
9.6326868e-06
-3.5308587e-06
0.0035170207
3.0405691e-07
-2.6255681e-06
0.0030622445
2.8714232e-07
-1.5301839e-06
0.0026313819
2.6628705e-07
0.0021347184
2.2937964e-07
1.654939e-06
0.0021329207
3.9216398e-07
2.8949458e-06
0.0026299859
4.5919878e-07
3.9540111e-06
0.0030610346
5.0678778e-07
4.9521499e-06
0.0035158798
5.501754e-07
0.08216138
7.2126148e-06
8.8014241e-06
-4.9172399e-06
0.082158151
1.0593467e-05
8.8820617e-06
-3.9200938e-06
0.0035147456
7.8734835e-07
-2.8597685e-06
0.0030598332
7.21562e-07
-1.6214866e-06
0.0026286024
6.5133522e-07
0.0021311591
5.5493686e-07
1.6018e-06
0.0021294327
6.3783911e-07
2.8225258e-06
0.0026272518
7.5121678e-07
3.861286e-06
0.0030586673
8.3453407e-07
4.8324159e-06
0.00351365
9.1228253e-07
0.082155059
1.239148e-05
8.9448652e-06
-4.8049819e-06
0.082152445
1.1793136e-05
8.8765604e-06
-3.8426966e-06
0.0035126053
8.6436093e-07
-2.8101421e-06
0.0030575475
7.903168e-07
-1.5969032e-06
0.0026259454
7.1148177e-07
0.0021277432
6.0416672e-07
1.5922461e-06
0.0021261068
4.5362584e-07
2.8102343e-06
0.0026246922
5.3118384e-07
3.8479466e-06
0.0030564869
5.8870845e-07
4.8169641e-06
0.0035116238
6.4331446e-07
0.082150512
8.7698724e-06
8.7939055e-06
-4.7686449e-06
0.082149088
4.1660922e-06
8.7767794e-06
-3.8101786e-06
0.0035107293
3.0840181e-07
-2.7778623e-06
0.0030555013
2.835496e-07
-1.5707206e-06
0.0026235111
2.5830645e-07
0.0021245408
2.2498307e-07
1.5201987e-06
0.0021230418
2.0133038e-08
2.6807287e-06
0.0026224007
9.3622569e-09
3.6649493e-06
0.0030545943
1.1833549e-09
4.5806023e-06
0.0035099154
-6.1432734e-09
0.082147855
-5.1522782e-07
8.6743423e-06
-4.4387101e-06
0.082146848
-4.2368986e-06
8.4736482e-06
-3.5538301e-06
0.0035091607
-2.5459559e-07
-2.5990131e-06
0.0030537397
-2.2156095e-07
-1.4760571e-06
0.0026213441
-1.8495244e-07
0.0021215916
-1.332499e-07
1.4752858e-06
0.0021201637
-2.331941e-07
2.5984715e-06
0.0026203048
-2.975895e-07
3.549829e-06
0.0030529077
-3.4805011e-07
4.4363454e-06
0.0035084261
-3.9479453e-07
0.082146094
-6.3165654e-06
8.3356676e-06
-4.4811211e-06
0.082145319
-6.5374785e-06
8.393493e-06
-3.5821635e-06
0.0035076919
-4.1876764e-07
-2.6129437e-06
0.0030520718
-3.7157551e-07
-1.477828e-06
0.0026192675
-3.1986908e-07
0.0021187451
-2.5190838e-07
1.4736198e-06
0.0021173141
-1.77012e-07
2.6084771e-06
0.0026182126
-2.3387401e-07
3.5762223e-06
0.0030512171
-2.7628313e-07
4.4771111e-06
0.0035069332
-3.1495679e-07
0.082144211
-5.1362101e-06
8.5287247e-06
-4.4571821e-06
0.082142612
-2.9163687e-06
8.7467215e-06
-3.5562292e-06
0.0035061361
-1.4874837e-07
-2.5906771e-06
0.0030503293
-1.2365997e-07
-1.4615546e-06
0.0026171319
-9.5785072e-08
0.0021158689
-5.89905e-08
1.4567087e-06
0.0021144056
5.9163615e-08
2.5842324e-06
0.002616024
4.288472e-08
3.5514801e-06
0.0030494075
2.9789647e-08
4.4527208e-06
0.0035053031
1.8408672e-08
0.082140457
-6.6405534e-07
9.1062666e-06
-4.4731066e-06
0.082137763
1.2301237e-06
9.5966092e-06
-3.560393e-06
0.0035044334
1.590373e-07
-2.5881576e-06
0.0030484577
1.5920047e-07
-1.4544513e-06
0.0026148899
1.6023257e-07
0.002112928
1.6055604e-07
1.4595259e-06
0.0021114366
2.439227e-07
2.6041604e-06
0.0026137337
2.5525976e-07
3.5909384e-06
0.0030474808
2.630366e-07
4.5206151e-06
0.0035035329
2.7141343e-07
0.082134464
2.7313633e-06
1.0312596e-05
-4.6009134e-06
0.082130393
3.9524861e-06
1.1340611e-05
-3.644173e-06
0.0035026002
3.6422305e-07
-2.6321416e-06
0.0030464741
3.4936304e-07
-1.4720384e-06
0.0026125583
3.349483e-07
0.0021099299
3.1506576e-07
1.4876195e-06
0.0021084112
3.8395362e-07
2.678904e-06
0.0026113546
4.1087846e-07
3.7220628e-06
0.0030454391
4.306572e-07
4.717179e-06
0.0035016322
4.5097512e-07
0.082125299
5.0614805e-06
1.2800386e-05
-4.8742186e-06
0.082118406
6.2630164e-06
1.5221368e-05
-3.8309572e-06
0.0035006231
5.4812148e-07
-2.7445713e-06
0.0030443675
5.2223596e-07
-1.5190747e-06
0.0026101227
4.9685741e-07
0.0021068673
4.6231601e-07
1.5545286e-06
0.0021052947
5.5920005e-07
2.8280999e-06
0.002608849
6.0280738e-07
3.970736e-06
0.0030432466
6.3471928e-07
5.0761844e-06
0.0034995606
6.6683938e-07
0.082107674
7.6925355e-06
1.9915108e-05
-5.3443046e-06
0.082088072
9.4462341e-06
3.0077681e-05
-4.1557814e-06
0.003498429
8.1354199e-07
-2.9415409e-06
0.0030420656
7.7370286e-07
-1.6060371e-06
0.002607523
7.3437658e-07
0.0021036792
6.808223e-07
1.667538e-06
0.0021020134
8.2639664e-07
3.0829596e-06
0.0026061307
8.9181828e-07
4.3826116e-06
0.0030408167
9.3972572e-07
5.6604767e-06
0.0034972306
9.8812001e-07
0.082048353
1.1493188e-05
5.2261323e-05
-6.1107116e-06
0.081967059
1.3675554e-05
9.7347962e-05
-4.7036641e-06
0.0034959437
1.182735e-06
-3.2828695e-06
0.0030394774
1.1265195e-06
-1.7584978e-06
0.0026046534
1.0719345e-06
0.0021002785
9.9878123e-07
1.8881127e-06
0.0020984266
1.154431e-06
3.5607041e-06
0.0026030562
1.2354276e-06
5.1352183e-06
0.0030380272
1.2933225e-06
6.7021291e-06
0.0034945579
1.3532657e-06
0.08181068
1.5450805e-05
0.00017802412
-8.8290873e-06
0.08154249
1.6177751e-05
0.00029986917
-6.6505728e-06
0.003492701
1.4798714e-06
-4.506961e-06
0.0030361196
1.4285522e-06
-2.3295213e-06
0.0026010481
1.3844121e-06
0.0020962312
1.3325673e-06
3.7201741e-06
0.0020926977
1.3232246e-06
7.5062171e-06
0.0025975551
1.3634151e-06
1.1476768e-05
0.0030325531
1.3844124e-06
1.5795707e-05
0.0034889196
1.4130996e-06
0.081147462
1.4657284e-05
0.00044461607
-4.0713194e-05
0.08067869
1.5019133e-05
0.00056464169
-2.8716843e-05
0.0034784428
1.6539043e-06
-1.811934e-05
0.0030232533
1.6597432e-06
-8.6310339e-06
0.0025891993
1.6858906e-06
0.002085135
1.696874e-06
1.9521302e-05
0.0020674516
1.3446591e-06
4.2516891e-05
0.0025685905
1.5144234e-06
6.8862329e-05
0.0029996643
1.5298049e-06
9.9276403e-05
0.0034511637
1.4964056e-06
0.080280059
1.7563054e-05
0.00058832167
-0.00019502903
0.080168721
7.5792498e-05
0.00053576838
-0.00013423868
0.0034028966
5.3495636e-06
-8.2305039e-05
0.002959245
4.9753576e-06
-3.7722415e-05
0.0025348922
4.4061077e-06
0.002040204
3.4795309e-06
5.5194891e-05
0.001997773
2.1805814e-06
0.00011704009
0.0024882927
3.9288649e-06
0.00018729042
0.0029062342
5.1968724e-06
0.00026842982
0.003340725
6.2452355e-06
0.080215358
0.00012853528
0.00059721159
-0.0010056343
0.00040270112
0.0016921385
-0.00073462997
4.0830456e-05
-0.00048269338
4.0365454e-05
-0.00024120706
3.6254144e-05
2.5328246e-05
5.6272843e-05
-0.0020342516
-5.1046781e-06
-4.3206751e-07
0.00011962221
-0.0025280314
-1.2620126e-06
-4.8608786e-06
0.00019160817
-0.0029513483
1.3578061e-06
-8.2586448e-06
0.00027502762
-0.0033938849
3.2926132e-06
-1.1415135e-05
-0.080010644
0.00016814962
-0.00038360462
0.00054831067
-0.00019013049
-0.080184193
5.1429074e-05
-0.00019253629
0.00050478701
-0.0001305858
-0.0034462237
6.3271656e-07
-7.83841e-06
-8.0120318e-05
-0.0029953575
1.5600334e-07
-6.6121051e-06
-3.697003e-05
-0.0025649132
-7.0546718e-07
-5.5625763e-06
-0.0020644826
-2.145542e-06
-4.5935199e-06
1.8478311e-05
-0.002083663
-3.7757689e-06
4.4778574e-06
4.0196449e-05
-0.0025873423
-3.8071475e-06
4.5179855e-06
6.5273616e-05
-0.0030210612
-3.8894226e-06
4.5159743e-06
9.4495164e-05
-0.003475908
-4.0194393e-06
4.4821517e-06
-0.080621337
-3.3024924e-05
1.1754937e-05
0.00055290943
-3.7614543e-05
-0.081110195
-4.085187e-05
2.7851156e-05
0.00053947323
-2.638137e-05
-0.0034873731
-3.4248843e-06
3.6568756e-06
-1.6558356e-05
-0.0030312129
-3.1743825e-06
3.5031529e-06
-7.8399091e-06