/*--------------------------------*- C++ -*----------------------------------*\
  =========                 |
  \\      /  F ield         | OpenFOAM: The Open Source CFD Toolbox
   \\    /   O peration     | Website:  https://openfoam.org
    \\  /    A nd           | Version:  7
     \\/     M anipulation  |
\*---------------------------------------------------------------------------*/
FoamFile
{
    version     2.0;
    format      ascii;
    class       volVectorField;
    location    "440";
    object      U;
}
// * * * * * * * * * * * * * * * * * * * * * * * * * * * * * * * * * * * * * //

dimensions      [0 1 -1 0 0 0 0];

internalField   nonuniform List<vector> 
25201
(
(120.03265 0.020818095 0.01382881)
(120.03537 0.025821029 0.0047120703)
(120.03233 0.01439546 0.020416603)
(120.03431 0.0051364772 0.025391006)
(120.02066 0.020260699 0.019238189)
(120.03204 0.014941268 0.020069611)
(120.03255 0.018375317 0.017582354)
(120.03637 0.02460064 0.024098504)
(120.03802 0.018762657 0.025514648)
(120.02964 0.020696306 0.02016975)
(120.03833 0.0260438 0.018269816)
(120.03255 0.02081016 0.013969153)
(120.0266 0.026048309 0.010403988)
(119.9613 0.061803524 0.03218903)
(119.95044 0.072952874 0.030116755)
(120.01407 0.019120624 0.026444963)
(120.0026 0.017366961 0.032885766)
(119.9953 0.028493756 0.036265964)
(119.99499 0.027869114 0.047126284)
(119.97074 0.038444013 0.068621142)
(119.98691 0.02678323 0.056440606)
(119.97619 0.02336291 0.050897624)
(119.98531 0.024927098 0.04308488)
(119.96962 0.033858942 0.051139319)
(119.98119 0.038787645 0.057869583)
(119.96814 0.051978076 0.069141037)
(119.97419 0.048699818 0.046571367)
(119.99451 0.012425824 0.040988357)
(119.98827 0.0029735597 0.045997566)
(119.96942 0.011604382 0.079725877)
(119.97383 0.018784306 0.074024055)
(119.98062 0.024340615 0.065200495)
(119.94219 0.018609639 0.10495567)
(119.95025 0.029173704 0.095078616)
(119.96004 0.036197865 0.083046479)
(119.94637 0.029639013 0.069907364)
(119.96886 0.020602407 0.057606745)
(119.96143 0.015574749 0.064354529)
(119.93621 0.023236531 0.078367779)
(119.92794 0.01435343 0.085160614)
(119.95652 0.0093922372 0.06837118)
(119.95335 0.0012118816 0.070832613)
(119.96635 0.0017589596 0.083140098)
(119.93779 0.0040321648 0.109686)
(119.92364 0.0027838742 0.088255138)
(119.91964 0.0017468125 0.071965004)
(119.94728 0.00098273065 0.059328355)
(119.98005 0.0026353329 0.03812798)
(120.01822 0.0028445593 0.029552061)
(120.0254 0.011251677 0.025190829)
(120.03293 0.013462174 0.028775181)
(120.02634 0.0033206367 0.030387574)
(119.99427 0.0070733498 0.026291057)
(120.00325 0.011941484 0.025096825)
(120.01608 0.01583004 0.024089449)
(120.01098 0.016072108 0.024456571)
(120.01022 0.018148332 0.026801554)
(119.9963 0.015766598 0.03054603)
(119.99724 0.012964326 0.02801102)
(119.96821 0.016527543 0.029486311)
(119.97726 0.018836575 0.033888086)
(119.98725 0.023139925 0.030971813)
(119.98767 0.019140336 0.024274613)
(119.99462 0.01567287 0.020804737)
(120.00322 0.014342015 0.018972396)
(120.02311 0.01575974 0.024099439)
(120.01139 0.011562938 0.024263982)
(119.98493 0.01052774 0.019555316)
(119.97382 0.011473903 0.02217815)
(119.95619 0.0071014077 0.024341348)
(119.94997 0.010555125 0.034966516)
(119.95977 0.014251171 0.042854962)
(119.98688 0.010176083 0.035440214)
(119.98811 0.0079882299 0.030716741)
(119.98132 0.0018337785 0.032148882)
(119.93884 0.0026945376 0.037674268)
(119.94712 0.0059070396 0.048557364)
(119.95204 0.010315751 0.046798291)
(119.95545 0.01314987 0.05483025)
(119.96284 0.017460533 0.049770639)
(119.97063 0.020333825 0.044979279)
(119.98031 0.022202245 0.039095648)
(119.96374 0.028931341 0.044749258)
(119.96063 0.024701921 0.037852442)
(119.94999 0.022357659 0.043556692)
(119.96736 0.017135118 0.039304142)
(119.95287 0.026185419 0.051495691)
(119.95826 0.032677721 0.059470282)
(119.95035 0.045236046 0.070506234)
(119.9546 0.043917437 0.058312255)
(119.94504 0.04021856 0.06306059)
(119.9317 0.035926022 0.056432287)
(119.93653 0.038720522 0.070406113)
(119.94229 0.043520347 0.078243459)
(119.9491 0.048132467 0.085630233)
(119.95687 0.049193869 0.076640277)
(119.96685 0.054164372 0.083446602)
(119.95935 0.053200566 0.093044745)
(119.94901 0.062747555 0.1043812)
(119.95687 0.063331813 0.09361313)
(119.94654 0.057766585 0.085639801)
(119.93876 0.057042015 0.095586333)
(119.93172 0.050691886 0.085560998)
(119.93945 0.05283208 0.077739189)
(119.93355 0.047629521 0.069450907)
(119.92546 0.045705816 0.076801789)
(119.91201 0.051884654 0.081687481)
(119.92215 0.052850111 0.074237633)
(119.93191 0.058258267 0.069085403)
(119.9476 0.071759157 0.084384256)
(119.94694 0.073661246 0.10272159)
(119.93561 0.066424676 0.092752128)
(119.92532 0.068186253 0.10482416)
(119.93627 0.075825918 0.11639106)
(119.92126 0.0889208 0.12825332)
(119.93316 0.087589037 0.11265872)
(119.92148 0.078284551 0.10096306)
(119.90985 0.079395928 0.11460523)
(119.90212 0.068724406 0.10128518)
(119.91754 0.059535408 0.093030346)
(119.92817 0.059886783 0.083734566)
(119.91371 0.069824063 0.090800171)
(119.9081 0.06113341 0.079784532)
(119.89697 0.060237219 0.088809781)
(119.87977 0.070490676 0.09412716)
(119.89485 0.069955097 0.083611381)
(119.90961 0.076529952 0.075695424)
(119.93289 0.070720634 0.057542311)
(119.95621 0.060344673 0.042981524)
(119.9413 0.082481511 0.024807325)
(119.93377 0.090847254 0.017100642)
(119.92992 0.095768946 0.0064426327)
(119.92286 0.07911305 0.0053978032)
(119.92673 0.075356017 0.013784829)
(119.9345 0.069051025 0.019988592)
(119.94351 0.06200691 0.024601271)
(119.95491 0.053609901 0.02651642)
(119.96517 0.046405626 0.028595309)
(119.98796 0.032254734 0.022272824)
(120.0112 0.028008773 0.017042446)
(120.0116 0.025455223 0.015542958)
(119.98803 0.025108918 0.018848263)
(119.96881 0.030754359 0.016956152)
(119.97848 0.035393824 0.018642773)
(119.99814 0.0319271 0.015117435)
(119.99826 0.029266271 0.012861854)
(120.00381 0.026116074 0.012002156)
(120.01647 0.024879845 0.015524927)
(120.03355 0.029552562 0.013147917)
(120.02336 0.024741485 0.015564922)
(120.00331 0.019429689 0.014271284)
(119.9948 0.021416465 0.015554311)
(119.97403 0.023073264 0.011944655)
(119.98496 0.020209413 0.010862357)
(120.01169 0.025077573 0.011633314)
(120.00339 0.025663872 0.0074253095)
(120.02724 0.031635041 0.003351411)
(120.02035 0.030913176 0.0025439832)
(119.98942 0.037458688 0.010231406)
(119.9894 0.032579097 0.0083908392)
(119.95061 0.037279879 0.011997633)
(119.96161 0.045233151 0.015043461)
(119.96892 0.041149436 0.017385291)
(119.97294 0.046943457 0.020148688)
(119.98201 0.040742409 0.021519456)
(119.96567 0.052254843 0.01782927)
(119.95877 0.058129432 0.01419563)
(119.95404 0.049967964 0.011678733)
(119.93089 0.057217822 0.016420049)
(119.94027 0.051887819 0.020147646)
(119.95128 0.045377244 0.023040084)
(119.96159 0.039238214 0.024836217)
(119.94594 0.040304894 0.029882408)
(119.96179 0.034923638 0.033999913)
(119.96189 0.024294059 0.023985824)
(119.94589 0.024328059 0.032354325)
(119.94532 0.029554645 0.039230677)
(119.9481 0.036804448 0.048496627)
(119.92486 0.04462507 0.055183659)
(119.92321 0.036381349 0.042848458)
(119.90525 0.034874187 0.050511563)
(119.91528 0.03959976 0.057840166)
(119.91762 0.046153514 0.066514075)
(119.90674 0.044835388 0.0728946)
(119.90514 0.038982418 0.064404477)
(119.89177 0.045190833 0.068532046)
(119.90186 0.046492576 0.062175448)
(119.90437 0.052986594 0.070757393)
(119.89379 0.051003376 0.077454213)
(119.8774 0.059086162 0.081087958)
(119.89179 0.060099301 0.073320253)
(119.90301 0.057307197 0.057318275)
(119.92547 0.05618199 0.044740809)
(119.94914 0.050025058 0.036638364)
(119.93328 0.05844688 0.036827469)
(119.94735 0.065382484 0.040103868)
(119.95324 0.073014541 0.044550649)
(119.90471 0.1039172 0.069744617)
(119.91552 0.092931567 0.069906926)
(119.93043 0.086113955 0.059715953)
(119.94208 0.080182527 0.052452399)
(119.9356 0.071614569 0.047820605)
(119.92805 0.079378498 0.046495986)
(119.93934 0.073014832 0.039174703)
(119.94585 0.081046388 0.043421855)
(119.93506 0.088427497 0.05097386)
(119.92055 0.095854958 0.060193285)
(119.91429 0.084100613 0.053091513)
(119.92388 0.076185576 0.053303455)
(119.90945 0.081395695 0.061866478)
(119.89889 0.090907789 0.061832066)
(119.88124 0.095698393 0.072417087)
(119.89579 0.08473151 0.070801385)
(119.90164 0.097740311 0.080892068)
(119.9098 0.11019362 0.091004023)
(119.92687 0.096831446 0.094382196)
(120.03465 -0.0065870722 0.024810861)
(120.03304 -0.014935399 0.019386764)
(120.02831 -0.011351631 0.015425983)
(119.99584 -0.016202878 0.03858949)
(119.98867 -0.0074917408 0.045136629)
(119.96667 -0.0075858067 0.082401689)
(119.95252 -0.034483002 0.090879051)
(119.97545 -0.023575621 0.070764655)
(119.9705 -0.017054379 0.077490835)
(119.95756 -0.014355859 0.066528041)
(119.95367 -0.0064657744 0.070237592)
(119.92415 -0.0089955933 0.087427338)
(119.93833 -0.010992233 0.10863343)
(119.9437 -0.024935759 0.10218811)
(119.92936 -0.020096412 0.082961523)
(119.9384 -0.028180709 0.074977474)
(119.96303 -0.020016822 0.061671463)
(119.97095 -0.024346905 0.054157589)
(119.98273 -0.028312256 0.061088428)
(119.96282 -0.040352242 0.078021184)
(119.9491 -0.033628481 0.065773774)
(119.96139 -0.03575791 0.05480515)
(119.9786 -0.026440279 0.046991611)
(120.00443 -0.020065473 0.029640687)
(93.098415 0.074017958 0.22912875)
(102.74302 0.097963446 0.24692214)
(106.5075 0.10676687 0.25323673)
(108.62005 0.10982424 0.25590476)
(116.73998 0.047337946 0.19937619)
(117.20726 -0.14297362 0.12110296)
(109.75706 -0.1511378 0.23208501)
(107.72751 -0.14675394 0.25599853)
(104.03082 -0.14611237 0.27888138)
(94.316499 -0.15762492 0.28667983)
(94.38074 -0.060877722 0.08745511)
(103.94583 -0.064036129 0.096245747)
(107.61474 -0.063158725 0.092183021)
(109.65839 -0.061612022 0.086706034)
(117.23104 -0.070487719 0.05376521)
(117.34038 -0.060689516 0.037317455)
(109.81149 -0.062081905 0.065755427)
(107.77949 -0.062468729 0.071421003)
(104.12864 -0.063600382 0.07714371)
(94.586747 -0.065944505 0.083366232)
(94.673546 -0.040384488 0.04870143)
(104.18495 -0.041696188 0.048051281)
(107.82217 -0.041762615 0.045150945)
(109.84805 -0.041736063 0.041974638)
(117.39411 -0.044908705 0.023107463)
(117.4465 -0.03609254 0.016537168)
(109.90562 -0.033669868 0.031585844)
(107.88777 -0.033400172 0.034447466)
(104.26254 -0.033169422 0.037333348)
(94.769094 -0.033050824 0.03960569)
(94.848471 -0.024338621 0.028196271)
(104.32303 -0.02519443 0.027220943)
(107.93731 -0.025858869 0.025066245)
(109.94845 -0.026380022 0.022872842)
(117.4827 -0.029078341 0.011622252)
(117.51226 -0.024076806 0.0084049696)
(109.99202 -0.021691273 0.017174886)
(107.98737 -0.021031591 0.019052873)
(104.38384 -0.020230618 0.020978139)
(94.927476 -0.019533641 0.022150504)
(95.001869 -0.015467724 0.016917938)
(104.43936 -0.016291361 0.016052464)
(108.03235 -0.017227293 0.014429316)
(110.03097 -0.017966456 0.01286675)
(117.53488 -0.020202082 0.0060432138)
(117.55325 -0.017253397 0.0042905723)
(110.06749 -0.015168055 0.0096766784)
(108.07483 -0.014385903 0.011012408)
(104.49242 -0.013382984 0.012437871)
(95.074019 -0.012542869 0.013208465)
(95.143561 -0.010251727 0.010312206)
(104.54245 -0.011115361 0.0096293629)
(108.11428 -0.012158069 0.0083744203)
(110.10106 -0.012961683 0.0072253429)
(117.56816 -0.014940273 0.0029404049)
(117.58057 -0.013123253 0.0018800083)
(110.13247 -0.011237692 0.0053158362)
(108.15161 -0.01041812 0.0063197457)
(104.59046 -0.0093464058 0.0074358349)
(95.211322 -0.0084423128 0.0080344562)
(95.277585 -0.0069971701 0.0062152697)
(104.63665 -0.0079433899 0.0056935254)
(108.18708 -0.0090367673 0.0046907674)
(110.16202 -0.0098681034 0.0038017926)
(117.591 -0.011677411 0.0010252607)
(117.59989 -0.010533537 0.00032692444)
(110.19016 -0.0087760268 0.0025828899)
(108.22118 -0.0079341494 0.0033816671)
(104.68158 -0.0068211844 0.0042983723)
(95.342817 -0.0058543441 0.0047513183)
(95.407294 -0.0049485479 0.0036063134)
(104.72547 -0.0059129564 0.0031749329)
(108.2542 -0.0070396128 0.0023209667)
(110.2172 -0.0078896266 0.0015936523)
(117.60759 -0.0096175878 -0.00024745267)
(117.61435 -0.0088799952 -0.0007258817)
(110.24342 -0.0071616351 0.0007842961)
(108.28645 -0.0063026607 0.0014542502)
(104.7687 -0.0051627924 0.0022573014)
(95.471319 -0.0041966282 0.0026694912)
(95.535072 -0.003575214 0.0019190116)
(104.81139 -0.0045432735 0.00151776)
(108.31812 -0.0056937543 0.00075305808)
(110.26904 -0.0065603811 0.00012738364)
(117.62041 -0.0082822778 -0.0011279522)
(117.62594 -0.0078050675 -0.001467945)
(110.29427 -0.0060557612 -0.00039004533)
(108.34944 -0.005182254 0.00020630079)
(104.85385 -0.004024322 0.00094558222)
(95.598808 -0.003061619 0.0013372306)
(95.662651 -0.0026736268 0.00086672674)
(104.89615 -0.0036374746 0.00047479471)
(108.38056 -0.0048003207 -0.00024960712)
(110.31926 -0.0056773407 -0.00082781449)
(117.63109 -0.0074577955 -0.0017637784)
(117.636 -0.007197001 -0.0019765501)
(110.34417 -0.005405097 -0.001126875)
(108.41165 -0.0045247435 -0.00055830345)
(104.93854 -0.0033573284 0.00016053199)
(95.726803 -0.0023988011 0.00055370942)
(95.791401 -0.0022229029 0.00031004601)
(104.98109 -0.0031693737 -8.2677754e-05)
(108.44284 -0.0043405216 -0.00079524576)
(110.36915 -0.0052230763 -0.0013536055)
(117.64084 -0.0070138943 -0.0021350854)
(117.64564 -0.0068849855 -0.0023690694)
(110.39419 -0.0050546102 -0.0016663892)
(108.47412 -0.0041620888 -0.0011247189)
(105.02385 -0.0029832702 -0.00042388378)
(95.856447 -0.0020326199 -2.3759926e-05)
(95.921802 -0.0018436338 -0.00028551795)
(105.06668 -0.0028103496 -0.00071572717)
(108.50545 -0.0039907602 -0.0014167327)
(110.41927 -0.0048889768 -0.0019525866)
(117.65045 -0.0067730157 -0.0026544392)
(117.65543 -0.0066221381 -0.0028883849)
(110.44466 -0.0046165953 -0.002104051)
(108.53713 -0.0037088096 -0.0015598324)
(105.10994 -0.0025227504 -0.00085026328)
(95.987738 -0.0015741439 -0.00042336872)
(96.054432 -0.001490403 -0.00058265303)
(105.15366 -0.0024318895 -0.001006646)
(108.56921 -0.0036242212 -0.001726246)
(110.47044 -0.0045356453 -0.0022834359)
(117.66071 -0.0066059369 -0.0031312871)
(117.66626 -0.006692865 -0.0034321231)
(110.49649 -0.004457169 -0.0026032112)
(108.60159 -0.0035179486 -0.0020494546)
(105.19775 -0.0022994007 -0.0013394975)
(96.121726 -0.0013231442 -0.00090763543)
(96.189758 -0.0011025662 -0.0012273298)
(105.24236 -0.0021465351 -0.0016726241)
(108.63445 -0.0034066617 -0.0023683043)
(110.52301 -0.0043895354 -0.002916597)
(117.67215 -0.0068611177 -0.0037130553)
(117.67862 -0.0070890837 -0.0039653106)
(110.55039 -0.0042744155 -0.0031709125)
(108.66821 -0.0032289812 -0.0026293292)
(105.28797 -0.0018962964 -0.0019396401)
(96.258879 -0.00080104286 -0.00150063)
(96.329828 -0.00039886306 -0.0021422886)
(105.3351 -0.0014006026 -0.0024308457)
(108.70336 -0.0028566784 -0.0031036172)
(110.57908 -0.0039974609 -0.0036131973)
(117.68599 -0.0073695121 -0.004358758)
(117.69377 -0.0080135055 -0.0053314399)
(110.60822 -0.0039866354 -0.0051378198)
(108.73902 -0.0027114663 -0.004727482)
(105.38295 -0.0011506756 -0.0042036135)
(96.402285 1.5603662e-05 -0.0039743941)
(96.473273 -0.00099546242 -0.0051615263)
(105.42913 -0.0026557753 -0.0056335364)
(108.77313 -0.0042327197 -0.0061167691)
(110.63594 -0.0054912253 -0.0064780322)
(117.70092 -0.0091680753 -0.0063583175)
(117.70906 -0.0087299166 -0.0059881802)
(110.66559 -0.0043912702 -0.0053868029)
(108.80929 -0.0030736164 -0.0049263158)
(105.47738 -0.0014371644 -0.0043352231)
(96.545797 4.31438e-05 -0.0040018394)
(117.81241 -0.010482985 -0.0047970521)
(109.35279 -0.0073671649 -0.0040579587)
(107.43145 -0.0062376685 -0.0037014623)
(103.99984 -0.0047890249 -0.0032512807)
(94.934308 -0.0031014756 -0.0027149133)
(94.858303 -0.0054652886 -0.002349741)
(103.94764 -0.0070066252 -0.0029378298)
(107.39156 -0.0082766327 -0.0034413328)
(109.31963 -0.0092031923 -0.0038262374)
(117.80472 -0.010756012 -0.0046306058)
(117.79801 -0.0089890854 -0.0041369264)
(109.28882 -0.0064989959 -0.0033516888)
(107.35415 -0.005475439 -0.0029982676)
(103.89781 -0.0041168148 -0.0025460616)
(94.783531 -0.0033921046 -0.0024260629)
(94.705493 -0.00087875583 -0.00073805966)
(103.84494 -0.0013584107 -0.00089323583)
(107.31411 -0.0028321019 -0.0014422142)
(109.25564 -0.0039689365 -0.0018932134)
(117.79048 -0.0074670711 -0.0033900013)
(117.78315 -0.0072816604 -0.0031392467)
(109.22185 -0.0039310569 -0.001565827)
(107.27341 -0.0027828264 -0.0010660549)
(103.79159 -0.0013877454 -0.00047039737)
(94.62804 -0.00042225233 -8.6737035e-05)
(94.553171 -0.00059323214 0.0001236551)
(103.74028 -0.0016211195 -0.0003239847)
(107.2345 -0.0029786963 -0.00091963219)
(109.18972 -0.0041059442 -0.0014269763)
(117.77689 -0.0072026853 -0.0029628115)
(117.77131 -0.0070878028 -0.002753462)
(109.15858 -0.0041772587 -0.0011933247)
(107.19663 -0.0030656458 -0.00067630283)
(103.69011 -0.0017122951 -7.2272327e-05)
(94.479449 -0.00072411758 0.00034431478)
(94.406326 -0.00085224438 0.00072435549)
(103.64033 -0.0018312251 0.00028196659)
(107.15913 -0.0031759924 -0.00034431516)
(109.12782 -0.0042724984 -0.00087940329)
(117.76604 -0.0070417664 -0.0025178556)
(117.76106 -0.0071552486 -0.0023004521)
(109.09741 -0.0046070636 -0.00068687106)
(107.12201 -0.0035369626 -0.00015010495)
(103.59104 -0.0022122278 0.00048121996)
(94.334025 -0.0011712298 0.00094458751)
(94.262929 -0.0018191842 0.0013325491)
(103.54254 -0.0028581577 0.00084836248)
(107.08557 -0.0041175566 0.00021923704)
(109.06763 -0.0051141125 -0.00031136561)
(117.75638 -0.0072818153 -0.0019399976)
(117.75181 -0.0072868776 -0.0015646806)
(109.03839 -0.0053929602 0.00013355897)
(107.04975 -0.0044493255 0.0006650451)
(103.49483 -0.0032410109 0.0012887331)
(94.1929 -0.0022507924 0.0017417348)
(94.123329 -0.0024006807 0.0020661445)
(103.44734 -0.0033631751 0.0016470806)
(107.01411 -0.0045553862 0.0010210418)
(109.00929 -0.0054845401 0.00048004159)
(117.74721 -0.0073015854 -0.0013084708)
(117.74263 -0.007481325 -0.0011752964)
(108.98034 -0.0056355959 0.00066455673)
(106.97864 -0.0046911687 0.0012201895)
(103.40013 -0.0034802629 0.0018588807)
(94.054265 -0.0024978964 0.0022755334)
(93.985734 -0.0027172259 0.0027213542)
(103.35318 -0.0037147487 0.0022890645)
(106.94339 -0.0049236338 0.0016320214)
(108.95158 -0.0058691449 0.001055653)
(117.73803 -0.0077507967 -0.00092643662)
(117.7332 -0.0080838316 -0.00058599956)
(108.92275 -0.0061454626 0.0015594586)
(106.90812 -0.0051995072 0.002157048)
(103.30635 -0.0039972195 0.0028306873)
(93.917506 -0.0029902799 0.0032676723)
(93.849455 -0.0033123976 0.0039268402)
(103.25937 -0.0043263304 0.0034914545)
(106.87267 -0.0055251691 0.0027973099)
(108.89371 -0.0064746717 0.0021727962)
(117.72802 -0.0085210649 -0.00018204153)
(117.72233 -0.0090714585 0.0002976802)
(108.86434 -0.0068660336 0.0029192374)
(106.83695 -0.0059100714 0.0035790218)
(103.21226 -0.004712543 0.0043050394)
(93.781508 -0.0036967073 0.0047675103)
(93.713433 -0.00415841 0.0058046937)
(103.16472 -0.0051767848 0.0053143326)
(106.80075 -0.0063777832 0.0045466764)
(108.83445 -0.0073450373 0.0038421889)
(117.71598 -0.0097615503 0.00088429446)
(117.70874 -0.010635086 0.0015997968)
(108.80386 -0.0079407412 0.004987532)
(106.76389 -0.0069567194 0.0057482646)
(103.11665 -0.0057458166 0.0065681104)
(93.645028 -0.0047206772 0.0070826487)
(93.576007 -0.0054122449 0.0086529134)
(103.06765 -0.0064459855 0.0081266051)
(106.72606 -0.0076765977 0.0072412716)
(108.77227 -0.0086825058 0.0064095192)
(117.70036 -0.011736523 0.0024701261)
(117.69055 -0.013146104 0.0035366788)
(108.73942 -0.0096273985 0.0082003712)
(106.68701 -0.0085921724 0.0091243068)
(103.01756 -0.007333299 0.010092793)
(93.506106 -0.0062850627 0.010617882)
(93.43491 -0.007383812 0.013078697)
(102.96583 -0.0084498603 0.012546717)
(106.64629 -0.0097401715 0.011472721)
(108.70489 -0.010809441 0.01042979)
(117.67886 -0.014936368 0.0048200837)
(117.66484 -0.017238721 0.006452783)
(108.66842 -0.01233207 0.013297043)
(106.60367 -0.011222056 0.014499261)
(102.91232 -0.0098973322 0.015721914)
(93.362158 -0.008817898 0.016301424)
(93.28709 -0.010640329 0.020393787)
(102.85606 -0.011745224 0.019792132)
(106.55833 -0.013096614 0.018395132)
(108.62931 -0.014241993 0.017000081)
(117.64757 -0.02019542 0.0085742425)
(117.62637 -0.024089537 0.011437096)
(108.58813 -0.016786942 0.021975855)
(106.51079 -0.015609959 0.023635174)
(102.79763 -0.01424019 0.025299627)
(93.21004 -0.013153748 0.026066075)
(93.129221 -0.016139553 0.032798463)
(102.73487 -0.017337489 0.032230697)
(106.45916 -0.018683723 0.030365029)
(108.54334 -0.01984896 0.028439299)
(117.59882 -0.029054541 0.015286483)
(117.56507 -0.035938552 0.020761284)
(108.49913 -0.024643846 0.038016212)
(106.40759 -0.023505585 0.040485248)
(102.67174 -0.022230469 0.042984519)
(93.047457 -0.02129764 0.044435001)
(92.954412 -0.025364379 0.053630461)
(102.59811 -0.026944331 0.053603035)
(106.34663 -0.028188509 0.051132536)
(108.4466 -0.029328312 0.048411008)
(117.5176 -0.043978192 0.027796831)
(117.46628 -0.057896728 0.04046607)
(108.39681 -0.041330781 0.071879107)
(106.28804 -0.040222209 0.07632848)
(102.52445 -0.039021696 0.081166129)
(92.854287 -0.038534052 0.082744163)
(92.699528 -0.030347869 0.076030309)
(102.41178 -0.033634482 0.080627072)
(106.19423 -0.035930335 0.077515486)
(108.31044 -0.038242422 0.072285373)
(117.38061 -0.062951761 0.046431811)
(117.32782 -0.094620931 0.09605928)
(108.16709 -0.046040995 0.14775015)
(106.03811 -0.041980609 0.15303051)
(102.22704 -0.040784641 0.15633809)
(92.476775 -0.045795402 0.15173674)
(92.622173 0.024880018 -0.11154265)
(102.38599 0.040026632 -0.079543397)
(106.15743 0.031162006 -0.060695087)
(108.2395 0.023693579 -0.046644496)
(117.20401 0.010709851 0.023385752)
(117.37637 -0.22717954 0.65470808)
(108.4636 0.50155701 1.7920472)
(106.34482 0.61265414 1.9870569)
(102.31303 0.68261877 2.1915051)
(91.738777 0.24428113 2.1204157)
(92.372412 0.69442629 0.27471146)
(102.15307 0.64785382 0.27546385)
(105.92422 0.5991655 0.25865255)
(108.00205 0.55595312 0.23841335)
(116.94821 0.28431533 0.17894302)
(117.1584 0.084856778 -0.00048830111)
(107.99334 0.099574578 0.063690068)
(105.86645 0.10322317 0.069444671)
(102.06108 0.109361 0.071161151)
(92.325002 0.11726968 0.068556887)
(92.611984 0.095063738 0.044236571)
(102.31558 0.08804786 0.038908436)
(106.09453 0.082497071 0.035314303)
(108.20913 0.078178822 0.031196952)
(117.27436 0.056866288 0.0018806609)
(117.39597 0.029455812 -0.014062112)
(108.32797 0.025826038 0.0040442439)
(106.22022 0.025936023 0.0059143318)
(102.45942 0.026177739 0.0074874422)
(92.796619 0.025671062 0.0092654685)
(92.917022 0.019040864 0.0067995323)
(102.55501 0.019229242 0.0050750241)
(106.30125 0.018900969 0.0037421745)
(108.40031 0.018600254 0.0023762806)
(117.46885 0.020348732 -0.011688234)
(117.53034 0.013811895 -0.011923787)
(108.46638 0.010431268 -0.001490584)
(106.37555 0.010212253 -0.00020431127)
(102.64151 0.0099454904 0.0011598582)
(93.021785 0.0094895838 0.0024300536)
(93.111307 0.0064583896 0.0011699114)
(102.71324 0.0068774108 3.9492968e-06)
(106.43602 0.0072147433 -0.001323406)
(108.51958 0.0074852686 -0.0025274394)
(117.57323 0.010196576 -0.010644983)
(117.60703 0.0077097197 -0.0097918062)
(108.5705 0.005252453 -0.0035619805)
(106.49369 0.0048764766 -0.002376068)
(102.78182 0.0044162821 -0.0010292693)
(93.197323 0.0039654219 6.2835735e-05)
(93.278024 0.0025889911 -0.0005233437)
(102.84437 0.0030292994 -0.0015653433)
(106.54551 0.0035227015 -0.0028752087)
(108.616 0.0039228786 -0.0039987097)
(117.63262 0.0060186166 -0.0089102186)
(117.65304 0.0048201412 -0.0082347613)
(108.65824 0.0029792416 -0.0042991166)
(106.59394 0.002560814 -0.0032259999)
(102.90358 0.0020421038 -0.0019459438)
(93.355701 0.0016067648 -0.00094173015)
(93.430356 0.00097099917 -0.0012027239)
(102.95928 0.0013953297 -0.0021823472)
(106.63885 0.0019200657 -0.0034262127)
(108.69701 0.002340007 -0.0044480569)
(117.66939 0.0039604694 -0.0076818209)
(117.68282 0.0033276149 -0.0072637083)
(108.73328 0.0018737883 -0.0045500595)
(106.68128 0.0014515626 -0.0035685362)
(103.01265 0.00092002569 -0.0023539569)
(93.50297 0.00050037681 -0.0013973567)
(93.573929 0.0001692988 -0.0015427021)
(103.06398 0.00058621205 -0.0024805922)
(106.72163 0.0011236677 -0.0036719099)
(108.76746 0.0015498283 -0.0046195664)
(117.69398 0.0028887852 -0.0069499718)
(117.7034 0.0025820977 -0.0066990581)
(108.80008 0.0013229025 -0.0046748079)
(106.76048 0.00089894502 -0.0037472345)
(103.11396 0.00036021026 -0.002569051)
(93.643794 -5.2840921e-05 -0.0016373843)
(93.712881 -0.00024456446 -0.0017267795)
(103.16282 0.000169656 -0.0026506445)
(106.79817 0.00071463388 -0.0038167575)
(108.8315 0.0011433097 -0.0047276558)
(117.71145 0.0023590028 -0.0065250364)
(117.71846 0.0022050669 -0.006411002)
(108.86205 0.0010318485 -0.0047716611)
(106.83503 0.00060072883 -0.0038699735)
(103.211 5.2678354e-05 -0.0027088573)
(93.781526 -0.00036084845 -0.0017866168)
(93.849918 -0.00047890485 -0.0018393608)
(103.25861 -5.938367e-05 -0.0027610388)
(106.87128 0.00049602068 -0.0039208644)
(108.89196 0.00093270239 -0.0048167589)
(117.72467 0.0020927532 -0.0063421444)
(117.73028 0.0020222031 -0.0063100892)
(108.92143 0.00087561024 -0.0048524151)
(106.90715 0.00043513107 -0.0039577671)
(103.30598 -0.00012564546 -0.0027956421)
(93.918294 -0.00054956185 -0.0018725892)
(93.986771 -0.00060647107 -0.0019015441)
(103.35313 -0.00017953871 -0.0028265706)
(106.94276 0.00038710878 -0.0039940942)
(108.95062 0.00083259078 -0.0048902594)
(117.73545 0.0019829443 -0.0063140167)
(117.74031 0.0019646494 -0.0063536898)
(108.97965 0.00079674157 -0.0049336804)
(106.97827 0.00034525611 -0.0040332093)
(103.40032 -0.00022748841 -0.0028587861)
(94.055515 -0.00065579276 -0.0019329514)
(94.12458 -0.00070088065 -0.0019742562)
(103.4475 -0.00026734068 -0.002913596)
(107.01372 0.00031088579 -0.0040926345)
(109.00861 0.00076894841 -0.0049994085)
(117.74498 0.0019624662 -0.0064354747)
(117.7495 0.0019443019 -0.0065586936)
(109.03749 0.00069511596 -0.0050734174)
(107.04914 0.00022552099 -0.0041565133)
(103.49476 -0.0003638928 -0.0029717287)
(94.193961 -0.00082582416 -0.0019782311)
(94.263802 -0.0012057358 -0.0017601359)
(103.54229 -0.00071204554 -0.0027839444)
(107.0848 -9.4459416e-05 -0.0039845891)
(109.0666 0.00040441163 -0.0049245554)
(117.75402 0.0018429068 -0.0066031598)
(117.75883 0.0017176809 -0.0065316718)
(109.09638 8.2171197e-05 -0.0044985701)
(107.12121 -0.00044405437 -0.0035171068)
(103.59072 -0.0010790369 -0.0022863214)
(94.334742 -0.0015486027 -0.0013068299)
(94.406898 -0.0017839813 -0.0010796427)
(103.63997 -0.0013358603 -0.0019863648)
(107.15835 -0.00068608197 -0.0032334361)
(109.12683 -0.00013961897 -0.0042393632)
(117.76399 0.0016469692 -0.0065250992)
(117.76941 0.0017100586 -0.0066453341)
(109.15761 -7.9785695e-05 -0.0041990817)
(107.19584 -0.00062346026 -0.0031771498)
(103.68971 -0.0012675339 -0.0019220851)
(94.479884 -0.0017121127 -0.0010166772)
(94.553563 -0.001544419 -0.00090346797)
(103.73991 -0.0010933724 -0.0018541733)
(107.23378 -0.00045834955 -0.0031254316)
(109.18882 7.715441e-05 -0.0041713815)
(117.77512 0.0018419603 -0.0068377601)
(117.78148 0.0020398849 -0.0070097875)
(109.22108 0.00026947043 -0.0040324173)
(107.27284 -0.00025502053 -0.0029527427)
(103.79138 -0.00089066607 -0.0016319927)
(94.628544 -0.0013014945 -0.00074540707)
(94.706246 -0.00031525153 -0.00113329)
(103.84495 -0.00011630359 -0.0015564423)
(107.31372 0.00046322896 -0.0029818403)
(109.25501 0.00092151794 -0.0040739774)
(117.78887 0.0024797121 -0.0072683223)
(117.79634 0.003635299 -0.0087365746)
(109.28818 0.003090994 -0.0064816601)
(107.35379 0.0027748795 -0.0054651924)
(103.89791 0.0023311658 -0.0041031993)
(94.784528 0.0021845836 -0.0034211477)
(94.859352 0.002466629 -0.0054242795)
(103.94765 0.0030803152 -0.0069444335)
(107.39106 0.0035640477 -0.0082084051)
(109.31885 0.0038987688 -0.0091343458)
(117.80292 0.0044038854 -0.010436433)
(117.81047 0.0044759342 -0.010258944)
(109.35189 0.0037991955 -0.007430391)
(107.43082 0.0034482499 -0.0063108197)
(103.99975 0.0029802839 -0.0048714747)
(94.935345 0.0024174217 -0.0031735245)
(95.017496 0.00024139537 -0.0019685318)
(104.05745 0.00077659081 -0.0032331803)
(107.47571 0.0014325709 -0.0047267988)
(109.38968 0.0019786674 -0.0059529607)
(117.82039 0.0039205957 -0.0099182372)
(96.378854 -0.003499347 -0.0027772906)
(105.3009 -0.0029634595 -0.0040444249)
(108.63434 -0.0023374359 -0.0056421127)
(110.49257 -0.0018041354 -0.0069275178)
(117.69356 0.00054426767 -0.010877005)
(117.68344 0.00064932698 -0.011481933)
(110.45945 -0.0015262807 -0.0086579025)
(108.59451 -0.0020457834 -0.0075103401)
(105.24869 -0.0026744346 -0.006013657)
(96.302013 -0.003317024 -0.0045695724)
(96.228846 -0.0045957678 -0.0051837001)
(105.20009 -0.0038316881 -0.0064468969)
(108.55813 -0.0030672342 -0.0078784222)
(110.42963 -0.0024321772 -0.0089784354)
(117.67542 0.0003500197 -0.011269566)
(117.66837 0.00021051532 -0.010196596)
(110.40157 -0.0021422866 -0.0077875585)
(108.52364 -0.0026849112 -0.0067089064)
(105.15346 -0.0033152529 -0.0053031677)
(96.157415 -0.0037629964 -0.0041991167)
(96.084372 -0.0037676931 -0.0020164435)
(105.10533 -0.0033518091 -0.0026614001)
(108.48785 -0.0027693756 -0.0041436407)
(110.37232 -0.0022777741 -0.0052836561)
(117.66071 -0.00011589189 -0.0082476957)
(117.65297 -0.00025565353 -0.0075964246)
(110.34213 -0.002332524 -0.0049218196)
(108.45101 -0.0028169508 -0.0038007041)
(105.05624 -0.0033880753 -0.0023589058)
(96.011068 -0.0038413982 -0.0014115582)
(95.940015 -0.0038186286 -0.0013880237)
(105.00882 -0.0033751351 -0.0023943807)
(108.41567 -0.0028203454 -0.0037714644)
(110.31336 -0.0023484207 -0.0048546908)
(117.64627 -0.00036279581 -0.0072562874)
(117.64023 -0.00046332666 -0.0069724127)
(110.28556 -0.0023699266 -0.004726113)
(108.38137 -0.0028271155 -0.0036711807)
(104.96255 -0.0033663597 -0.002323875)
(95.870158 -0.0037972713 -0.0013592844)
(95.801053 -0.0038183648 -0.001385552)
(104.9168 -0.0033972308 -0.0023471331)
(108.34753 -0.002868629 -0.0036753774)
(110.2582 -0.002418846 -0.0047055589)
(117.6345 -0.00054205257 -0.0068149965)