/*--------------------------------*- C++ -*----------------------------------*\
  =========                 |
  \\      /  F ield         | OpenFOAM: The Open Source CFD Toolbox
   \\    /   O peration     | Website:  https://openfoam.org
    \\  /    A nd           | Version:  7
     \\/     M anipulation  |
\*---------------------------------------------------------------------------*/
FoamFile
{
    version     2.0;
    format      ascii;
    class       volScalarField;
    location    "460";
    object      omega;
}
// * * * * * * * * * * * * * * * * * * * * * * * * * * * * * * * * * * * * * //

dimensions      [0 0 -1 0 0 0 0];

internalField   nonuniform List<scalar> 
24789
(
96266.072
30006.316
16911.952
12392.365
2050.4582
2058.406
12432.15
16959.688
30071.837
96489.053
96718.402
30139.819
17009.11
12473.198
2066.4959
2074.7419
12515.432
17060.057
30210.285
96954.703
97198.351
30283.379
17112.751
12558.981
2083.1446
2091.7138
12603.867
17167.167
30359.196
97449.838
97709.568
30437.942
17223.473
12650.174
2100.4509
2109.367
12697.999
17281.752
30519.76
97978.124
98255.913
30604.867
17342.106
12747.385
2118.462
2127.7476
12798.509
17404.726
30693.445
98543.713
98842.229
30785.786
17469.672
12851.379
2137.2254
2146.9087
12906.232
17537.219
30882.112
99152.263
99474.582
30982.767
17607.403
12963.057
2156.8014
2166.916
13022.161
17680.593
31088.02
99810.286
100160.41
31198.302
17756.821
13083.537
2177.2553
2187.8348
13147.545
17836.54
31313.987
100526.38
100909.57
31435.621
17919.807
13214.191
2198.6583
2209.7386
13283.914
18007.181
31563.706
101311.74
101734.81
31698.914
18098.784
13356.771
2221.0777
2232.6849
13433.267
18195.285
31841.99
102181.27
102654.04
31993.882
18296.937
13513.54
2244.5527
2256.6684
13598.189
18404.55
32155.592
103156.66
103693.39
32328.473
18518.6
13687.516
2268.9977
2281.4813
13782.292
18640.173
32514.099
104269.75
104892.63
32714.558
18770.168
13883.114
2294.0076
2306.3954
13991.182
18910.255
32932.376
105570.7
106314.98
33171.312
19062.591
14108.07
2318.3624
2329.4545
14236.641
19230.988
33437.064
107142.43
108079.06
33736.228
19420.979
14381.389
2338.9236
2345.8013
14551.775
19645.205
34076.679
109155.7
110482.93
34547.698
19937.958
14762.708
2348.2529
2338.0717
14986.398
20286.462
35242.745
112406.36
115188.11
35759.674
20517.7
15107.768
2301.6359
2232.0754
15052.647
20473.279
35726.028
117853.05
119829.98
36565.646
20965.829
15400.91
2203.0662
2193.1123
15555.698
21445.468
37800.984
125519.35
131408.34
39224.556
22025.582
15781.106
2245.3006
2072.8611
15963.665
21633.876
37763.616
124299.55
121245.85
36651.937
21051.753
15557.879
2050.4495
2070.3492
15658.103
21014.415
36427.713
117623.96
114071.36
35669.281
20704.023
15495.452
2099.4608
2116.7906
15256.42
20341.573
35006.524
111267.82
109406.46
34341.689
19964.292
14990.395
2119.7136
2115.6157
14763.154
19662.098
33870.679
108112.23
107054.73
33512.536
19428.539
14582.443
2109.087
2100.9204
14432.133
19235.36
33213.171
106145.11
105343.7
32952.967
19067.433
14301.068
2091.6377
2081.7544
14183.567
18917.623
32722.124
104620.09
103957.5
32512.639
18780.712
14075.689
2071.5547
2061.2101
13975.305
18653.897
32320.047
103346.65
102780.56
32141.777
18535.3
13880.946
2050.8349
2040.5062
13791.975
18423.991
31975.831
102253.62
101760.99
31820.815
18318.961
13707.61
2030.273
2020.1745
13627.631
18219.802
31675.47
101298.58
100862.91
31538.853
18125.734
13551.413
2010.2279
2000.4499
13478.869
18036.516
31409.977
100451.1
100060.51
31288.19
17951.495
13409.453
1990.8415
1981.4105
13343.165
17870.559
31172.768
99689.19
99335.176
31063.202
17793.144
13279.512
1972.1517
1963.0695
13218.545
17719.206
30958.987
98997.027
98673.275
30859.684
17648.273
13159.841
1954.1553
1945.4118
13103.457
17580.318
30764.906
98362.753
98064.477
30674.37
17514.974
13049.039
1936.8301
1928.4117
12996.637
17452.202
30587.695
97777.525
97501.042
30504.72
17391.737
12945.977
1920.1483
1912.0371
12897.078
17333.503
30425.082
97234.381
96976.756
30348.676
17277.324
12849.738
1904.0736
1896.256
12803.938
17223.093
30275.233
96727.777
96486.829
30204.644
17170.733
12759.559
1888.5786
1881.04
12716.527
17120.07
30136.695
96253.55
96027.389
30071.293
17071.135
12674.814
1873.6353
1866.3689
12634.308
17023.723
30008.35
95807.879
95594.312
29947.572
16977.9
12595.029
1859.2221
1866.3625
12635.301
17024.914
30009.902
95814.306
96033.754
30072.867
17072.361
12675.834
1873.6283
1881.019
12717.577
17121.328
30138.292
96259.981
96493.56
30206.332
17172.072
12760.671
1888.5434
1896.2053
12805.117
17224.522
30277.048
96734.946
96984.433
30350.649
17278.869
12851.009
1904.0044
1911.942
12898.433
17335.166
30427.232
97242.564
97509.875
30507.035
17393.533
12947.436
1920.0197
1928.243
12998.194
17454.146
30590.234
97787.108
98074.887
30677.111
17517.066
13050.708
1936.6115
1945.131
13105.227
17582.568
30767.887
98374.155
98685.709
30862.917
17650.692
13161.737
1953.8014
1962.627
13220.549
17721.8
30962.473
99010.713
99350.261
31066.996
17795.922
13281.641
1971.6061
1980.7422
13345.393
17873.521
31176.853
99705.774
100078.77
31292.583
17954.644
13411.8
1990.0314
1999.475
13481.303
18039.85
31414.696
100471.15
100884.95
31543.857
18129.222
13553.922
2009.0653
2018.7968
13630.16
18223.416
31680.736
101322.65
101787.14
31826.211
18322.619
13710.119
2028.6543
2038.6218
13794.384
18427.631
31981.294
102281.88
102810.79
32147.133
18538.803
13883.177
2048.6648
2058.7421
13977.229
18657.12
32325.092
103378.5
103990.28
32516.994
18783.44
14077.174
2068.7868
2078.7071
14184.494
18919.672
32725.387
104652.59
105373.95
32954.737
19068.753
14301.493
2088.3616
2097.5123
14432.561
19236.415
33213.398
106169.87
107070.69
33513.356
19431.257
14584.462
2105.7015
2112.4176
14769.787
19670.524
33877.648
108121.28
109411.88
34371.74
19987.997
15007.577
2117.0429
2115.62
15293.591
20402.401
35107.571
111258.88
114181.46
35939.005
20785.84
15526.915
2097.0756
2063.3778
15588.804
20947.595
36370.208
117776.4
120701.3
36619.661
20996.099
15442.119
2043.8729
2060.9131
16366.255
21986.371
38127.635
122454.66
131850.72
39446.327
22124.025
15874.005
2235.3431
2157.9292
15320.834
21068.835
36902.169
121364.6
122442.18
36410.904
20486.506
14747.741
2191.0122
2229.1294
15103.798
20607.295
36228.836
119592.78
115926.94
36098.078
20654.997
15207.833
2285.1115
2317.7954
15065.418
20364.318
35332.747
112746.52
110631.84
34577.804
19978.194
14817.596
2326.5749
2325.2007
14595.84
19671.484
34085.446
109179.13
108027.4
33714.032
19433.497
14416.441
2319.5253
2311.0669
14265.847
19235.697
33403.348
107060.33
106220.4
33134.247
19063.758
14134.19
2300.8814
2289.7334
14015.716
18909.855
32894.686
105469.39
104786.53
32676.788
18768.894
13906.684
2278.0772
2266.1922
13805.115
18638.228
32476.3
104159.44
103579.11
32290.563
18516.055
13709.667
2254.2606
2242.3996
13619.697
18401.418
32117.519
103038.82
102533.34
31955.672
18293.271
13534.434
2230.6734
2219.1297
13453.611
18191.166
31803.766
102058.35
101610.25
31660.74
18094.289
13376.615
2207.786
2196.6606
13303.329
18002.392
31525.687
101186.05
100783.31
31397.882
17914.81
13233.221
2185.7519
2175.0673
13166.266
17831.414
31276.639
100400.05
100034.33
31161.452
17751.656
13102.001
2164.599
2154.3505
13040.441
17675.456
31051.749
99684.638
99349.61
30947.158
17602.354
12981.179
2144.3107
2134.4806
12924.258
17532.309
30847.23
99028.134
98719.064
30751.679
17464.944
12869.331
2124.8481
2115.4131
12816.433
17400.211
30660.127
98421.655
98135.038
30572.382
17337.832
12765.289
2106.162
2097.098
12715.925
17277.749
30488.128
97858.527
97591.387
30407.2
17219.761
12668.127
2088.2086
2079.4938
12621.882
17163.769
30329.344
97333.111
97083.123
30254.423
17109.672
12577.056
2070.9427
2062.5544
12533.59
17057.311
30182.221
96840.96
96606.068
30112.644
17006.693
12491.434
2054.3212
2046.2314
12450.475
16957.602
30045.52
96377.975
96494.618
30072.925
16960.677
12432.956
2058.446
2066.5271
12474.164
17010.28
30141.34
96725.104
96962.328
30212.154
17061.505
12516.59
2074.7558
2083.1434
12560.237
17114.305
30285.476
97206.823
97459.011
30361.544
17168.898
12605.232
2091.6894
2100.4021
12651.647
17225.33
30440.484
97719.52
97988.828
30522.552
17283.746
12699.55
2109.2835
2118.3413
12749.082
17344.286
30607.888
98267.634
98556.446
30696.751
17407.025
12800.266
2127.5778
2137.0037
12853.313
17472.207
30789.35
98856.118
99167.443
30886.036
17539.879
12908.222
2146.6171
2156.4302
12965.271
17610.368
30987.018
99491.304
99828.647
31092.695
17683.7
13024.439
2166.4446
2176.6714
13086.064
17760.293
31203.406
100180.72
100548.78
31319.591
17840.175
13150.135
2187.1104
2197.7692
13217.065
17923.873
31441.76
100934.39
101339.28
31570.426
18011.447
13286.865
2208.648
2219.753
13360.015
18103.537
31706.303
101765.54
102215.61
31850.134
18200.312
13436.607
2231.0738
2242.6016
13517.195
18302.523
32002.83
102692.53
103199.96
32165.488
18410.501
13601.973
2254.3055
2266.1399
13691.61
18525.183
32339.401
103742.56
104326.03
32526.239
18647.224
13786.525
2278.0202
2289.8147
13887.637
18777.939
32728.062
104957.74
105647.01
32947.503
18918.67
13995.883
2301.3124
2312.2089
14113.161
19072.014
33188.468
106405.94
107253.38
33457.315
19241.814
14242.302
2322.0279
2330.0013
14388.018
19434.105
33761.738
108220.07
109346.53
34110.264
19660.841
14559.135
2335.1231
2335.6317
14769.272
19953.894
34585.944
110750.49
112766.91
35278.389
20301.833
14991.686
2324.0982
2287.6376
15109.235
20537.627
35829.632
115711.22
118968.94
35909.688
20496.576
15018.317
2222.618
2195.3959
15194.131
20853.794
36594.909
120869.67
125425.04
37804.536
21423.224
15516.84
2178.3539
2226.3234
15689.871
21939.805
39174.966
131644.73
2868.2835
14674.524
21395.476
39325.279
135092.91
130054.34
39710.156
22332.349
15881.011
2328.855
2055.6956
16911.632
22995.379
40069.443
129209.22
124143.26
38202.563
21956.259
16052.293
2162.0555
2151.2753
15254.896
21073.219
37015.774
122334.09
121337.79
36382.444
20644.675
14993.496
2185.4689
2236.9168
15204.093
20695.075
36216.822
118538.23
115237.14
36075.443
20692.657
15251.289
2296.8131
2328.5669
15082.534
20374.586
35304.09
112299.23
110338.8
34567.725
19985.05
14827.537
2335.8679
2332.8166
14602.826
19676.983
34081.989
108982.1
107887.45
33709.115
19436.569
14421.046
2325.6108
2315.8851
14268.726
19237.125
33398.523
106958.07
106143.98
33129.554
19064.045
14135.818
2304.6779
2292.7156
14016.451
18909.371
32890.195
105411.35
104741.59
32672.708
18767.995
13906.846
2280.4214
2268.0424
13804.929
18637.132
32472.645
104123.91
103550.68
32287.26
18514.853
13709.255
2255.726
2243.5642
13619.157
18400.199
32114.586
103015.8
102514.39
31953.059
18292.074
13533.821
2231.6032
2219.8735
13452.957
18189.997
31801.396
102042.57
101597.01
31658.616
18093.174
13375.946
2208.3824
2197.1398
13302.665
18001.341
31523.79
101174.95
100773.93
31396.203
17913.837
13232.584
2186.1375
2175.3786
13165.661
17830.516
31275.141
100391.92
100027.25
31160.087
17750.816
13101.419
2164.8505
2154.5539
13039.889
17674.678
31050.521
99678.481
99344.207
30946.052
17601.634
12980.659
2144.4743
2134.6115
12923.77
17531.641
30846.224
99023.354
98714.89
30750.758
17464.323
12868.871
2124.9511
2115.4945
12816.006
17399.644
30659.307
98417.971
98131.727
30571.65
17337.315
12764.895
2106.2281
2097.1503
12715.558
17277.272
30487.461
97855.559
97588.709
30406.596
17219.324
12667.786
2088.249
2079.5233
12621.564
17163.363
30328.787
97330.677
97080.876
30253.901
17109.291
12576.757
2070.962
2062.5632
12533.31
17056.953
30181.723
96838.894
96604.194
30112.169
17006.356
12491.172
2054.3178
2046.2143
12450.235
16957.293
30045.093
96376.395
95807.633
30008.093
17023.724
12634.339
1866.3419
1873.6281
12674.884
17071.157
30071.252
96027.648
96254.127
30136.843
17120.282
12716.708
1881.0413
1888.5873
12759.768
17170.952
30204.898
96487.633
96728.585
30275.58
17223.4
12804.186
1896.2679
1904.0891
12850.023
17277.642
30349.033
96977.598
97235.085
30425.494
17333.839
12897.352
1912.0531
1920.1658
12946.309
17392.108
30505.104
97501.752
97778.157
30588.132
17452.55
12996.921
1928.4278
1936.8479
13049.401
17515.385
30674.778
98065.102
98363.295
30765.345
17580.658
13103.737
1945.4267
1954.1708
13160.211
17648.693
30860.087
98673.764
98997.389
30959.369
17719.506
13218.797
1963.0812
1972.1649
13279.849
17793.518
31063.516
99335.493
99689.312
31173.039
17870.768
13343.349
1981.423
1990.8626
13409.704
17951.76
31288.347
100060.44
100450.56
31410.027
18036.554
13478.924
2000.4821
2010.2861
13551.491
18125.762
31538.667
100861.87
101296.8
31675.071
18219.536
13627.473
2020.2693
2030.4297
13707.417
18318.607
31820.081
101758.22
102249.41
31974.707
18423.249
13791.492
2040.7487
2051.2067
13880.358
18534.353
32140.135
102774.4
103337.6
32317.812
18652.495
13974.419
2061.76
2072.3516
14074.731
18779.081
32509.72
103944.36
104601.03
32718.718
18915.797
14182.581
2082.8784
2093.1771
14300.56
19066.034
32949.557
105316.05
106105.33
33210.587
19235.051
14432.647
2102.9482
2111.6315
14585.18
19430.96
33512.752
106998.51
108036.28
33876.481
19669.202
14769.47
2118.5599
2122.7159
15002.196
19979.343
34357.624
109304.06
111120.02
35048.784
20370.645
15275.881
2119.2618
2099.0983
15513.606
20736.338
35766.147
113899.4
117117.13
36333.533
21007.172
15677.463
2065.8867
2043.902
15735.257
21177.079
36695.996
120406.07
124669.08
37943.093
21729.882
16030.468
2064.189
2238.9848
15617.156
22018.751
39475.602
132608.45
126816.51
37982.609
21451.306
15483.901
2188.8409
2202.0154
15584.923
21167.305
36870.831
119864.77
118464.36
35803.849
20472.729
14986.827
2231.9024
2300.0457
15099.777
20524.257
35827.592
115563.2
112622.55
35283.802
20300.33
14992
2336.5228
2347.9692
14772.025
19953.187
34578.494
110599.07
109210.09
34091.079
19654.223
14558.309
2346.17
2339.5041
14384.786
19425.171
33742.581
108103.76
107153.42
33438.735
19232.174
14237.874
2330.0381
2318.877
14108.226
19062.421
33170.977
106319.63
105572.32
32931.354
18909.487
13990.813
2306.8203
2294.3467
13882.672
18769.381
32713.413
104892.87
104269.44
32513.102
18639.383
13781.79
2281.7421
2269.1974
13687.171
18518.048
32327.657
103692.94
103156.17
32154.991
18404.041
13597.841
2256.8156
2244.6641
13513.375
18296.673
31993.444
102653.68
102181
31841.715
18195.017
13433.072
2232.7645
2221.1383
13356.743
18098.719
31698.721
101734.64
101311.7
31563.631
18007.068
13283.825
2209.779
2198.6899
13214.26
17919.881
31435.626
100909.76
100526.62
31314.077
17836.545
13147.537
2187.855
2177.274
13083.662
17756.971
31198.404
100160.69
99810.498
31088.186
17680.669
13022.204
2166.9285
2156.8149
12963.208
17607.589
30982.929
99474.838
99152.476
30882.317
17537.331
12906.302
2146.9169
2137.2343
12851.532
17469.859
30785.965
98842.499
98543.953
30693.651
17404.854
12798.592
2127.7509
2118.4656
12747.519
17342.269
30605.032
98256.135
97978.251
30519.932
17281.875
12698.079
2109.3662
2100.4499
12650.274
17223.592
30438.074
97709.788
97450.029
30359.333
17167.279
12603.939
2091.7086
2083.1381
12559.031
17112.802
30283.446
97198.545
96954.696
30210.285
17060.108
12515.462
2074.7326
2066.4883
12473.136
17009.011
30139.671
96718.104
96488.283
30071.502
16959.562
12432.051
2058.3963
2058.3807
12433.313
16961.137
30073.823
96496.559
96726.006
30141.846
17010.607
12474.395
2066.4791
2074.7216
12516.68
17061.619
30212.392
96962.547
97206.606
30285.604
17114.407
12560.297
2083.116
2091.6657
12605.268
17168.941
30361.592
97458.631
97718.943
30440.539
17225.383
12651.672
2100.3798
2109.2648
12699.606
17283.814
30522.573
97988.144
98266.724
30607.919
17344.338
12749.111
2118.3231
2127.5634
12800.367
17407.148
30696.789
98555.427
98854.909
30789.424
17472.294
12853.371
2136.9887
2146.6062
12908.369
17540.056
30886.065
99165.957
99489.412
30987.07
17610.485
12965.36
2156.4188
2166.4367
13024.645
17683.947
31092.723
99826.442
100178
31203.448
17760.467
13086.206
2176.6627
2187.1072
13150.415
17840.507
31319.611
100545.5
100930.25
31441.746
17924.122
13217.281
2197.7707
2208.6646
13287.243
18011.883
31570.392
101334
101758.71
31706.207
18103.905
13360.352
2219.7888
2231.1468
13437.119
18200.868
31849.908
102206.67
102680.7
32002.44
18303.019
13517.69
2242.727
2254.5158
13602.662
18411.178
32164.826
103184.25
103721.46
32338.352
18525.821
13692.344
2266.475
2278.5466
13787.544
18648.077
32524.661
104297.55
104919.18
32725.845
18778.926
13888.935
2290.6191
2302.5176
13997.892
18920.248
32944.642
105595.02
106336.68
33185.451
19074.701
14116.364
2313.9682
2324.5218
14247.861
19247.083
33455.619
107163.23
108107.83
33765.226
19444.368
14397.606
2333.4085
2339.5498
14574.844
19679.857
34129.486
109218.06
110602.95
34616.427
19982.575
14792.382
2341.1397
2331.0569
15027.904
20352.099
35339.934
112602.72
115625.37
36047.392
20614.327
15151.355
2293.8275
2226.2246
15028.245
20498.993
35913.758
118767.82
120662.45
36597.765
20808.399
15111.069
2195.5921
2178.4618
15726.195
21587.62
37867.44
124042.95
1017.9553
607.81344
820.43841
2057.7838
15950.746
21623.786
37783.093
124566.98
123430.53
37115.821
21050.508
15175.913
2163.3208
133002.79
39225.035
21526.339
14885.523
2877.6855
3193.7978
15199.807
21826.804
39444.897
131671.23
132465.36
39997.594
22036.259
15284.754
3204.7085
2502.9243
15349.407
21760.845
38911.324
128628.43
1471.716
1267.5006
677.40815
840.61803
180.65585
191.01646
189.48439
180.65555
179.70183
184.54815
184.60288
179.34926
96378.803
30045.557
16957.689
12450.537
2046.4049
2054.4925
12491.46
17006.672
30112.622
96606.446
96840.977
30182.151
17057.326
12533.633
2062.7269
2071.1259
12577.065
17109.59
30254.26
97082.862
97332.474
30329.136
17163.676
12621.863
2079.6884
2088.4216
12668.096
17219.608
30406.882
97590.456
97857.188
30487.775
17277.539
12715.832
2097.3297
2106.4212
12765.214
17337.603
30571.928
98133.351
98419.506
30659.614
17399.882
12816.265
2115.6972
2125.1696
12869.202
17464.617
30751.028
98716.382
99024.717
30846.519
17531.862
12924.022
2134.8417
2144.7239
12981.015
17601.952
30946.334
99345.535
99679.657
31050.832
17674.908
13040.163
2154.8205
2165.1443
13101.82
17751.171
31160.382
100028.23
100392.58
31275.47
17830.795
13165.989
2175.6976
2186.4901
13233.089
17914.302
31396.57
100774.29
101174.98
31524.273
18001.787
13303.151
2197.5229
2208.803
13376.657
18093.879
31659.228
101596.79
102041.97
31802.208
18190.763
13453.713
2220.3254
2232.0867
13534.888
18293.208
31954.112
102513.41
103014.47
32116.048
18401.577
13620.41
2244.0645
2256.2247
13710.971
18516.819
32289.268
103549.17
104122.48
32475.436
18639.656
13807.06
2268.5016
2280.7849
13909.724
18771.535
32676.667
104740.77
105412.35
32895.911
18914.106
14020.153
2292.8857
2304.5084
14140.631
19070.5
33137.835
106148.99
106971.06
33410.185
19245.35
14274.488
2315.1473
2323.9778
14427.003
19446.066
33724.312
107914.36
109028.34
34100.566
19685.711
14606.527
2329.9133
2331.0842
14821.286
19985.508
34589.395
110416.53
112448.55
35270.06
20326.413
15038.788
2319.5944
2283.475
15139.893
20539.529
35801.481
115383.46
118333
35864.949
20501.487
15043.828
2223.6992
2192.7111
15271.146
20839.594
36484.507
120092.94
123112.09
36988.616
20987.561
15144.108
2176.3785
16924.264
23116.459
40518.081
130529.42
127757.12
40785.843
23479.926
17341.476
2096.3827
2389.7265
16608.704
23021.949
40402.753
126977.32
127694.63
38628.783
21675.604
15277.67
2536.3133
2192.8528
15958.445
21920.324
38155.996
123481.63
123112.95
36987.174
20985.846
15142.373
2175.3041
2191.8412
15269.354
20838.076
36483.549
120094.27
118333.88
35864.055
20500.148
15042.296
2222.9762
2282.8292
15138.458
20537.982
35799.767
115383.77
112447.53
35269.336
20325.33
15037.648
2319.0336
2330.5914
14820.211
19984.426
34588.412
110415.12
109026.89
34099.432
19684.577
14605.453
2329.4801
2323.5971
14425.982
19444.982
33723.251
107912.73
106969.09
33409.154
19244.318
14273.519
2314.8103
2304.2039
14139.692
19069.483
33136.781
106146.71
105409.76
32894.858
18913.111
14019.237
2292.6048
2280.5222
13908.824
18770.544
32675.591
104737.91
104119.42
32474.318
18638.659
13806.159
2268.2518
2255.9861
13710.072
18515.809
32288.109
103545.95
103011.15
32114.857
18400.559
13619.502
2243.8312
2231.8585
13533.989
18292.188
31952.91
102510.07
102038.6
31800.983
18189.742
13452.809
2220.0988
2208.5788
13375.762
18092.854
31657.992
101593.41
101171.67
31523.051
18000.772
13302.251
2197.2984
2186.2676
13232.214
17913.305
31395.375
100770.96
100389.26
31274.299
17829.817
13165.12
2175.4757
2164.9265
13100.97
17750.206
31159.213
100024.9
99676.277
31049.695
17673.961
13039.319
2154.6054
2144.5129
12980.195
17601.016
30945.195
99342.184
99021.395
30845.42
17530.951
12923.214
2134.6335
2124.968
12868.419
17463.73
30749.973
98713.079
98416.171
30658.566
17399.009
12815.488
2115.5004
2106.2328
12764.462
17336.754
30570.915
98129.975
97853.738
30486.77
17276.703
12715.089
2097.1504
2088.2521
12667.378
17218.793
30405.914
97586.915
97328.862
30328.165
17162.869
12621.154
2079.5266
2070.972
12576.378
17108.804
30253.3
97079.1
96837.1
30181.2
17056.548
12532.96
2062.5804
2054.3502
12490.812
17005.912
30111.67
96602.393
96374.438
30044.669
16956.982
12449.948
2046.2776
2038.3455
12410.159
16909.399
29979.805
96152.802
2058.5578
12432.609
16960.169
30072.273
96492.508
96721.602
30140.531
17009.749
12473.769
2066.661
2074.9129
12516.046
17060.739
30211.043
96957.88
97201.399
30284.188
17113.467
12559.625
2083.3254
2091.905
12604.528
17167.896
30360.005
97452.692
97712.208
30438.767
17224.217
12650.85
2100.6533
2109.5799
12698.689
17282.507
30520.579
97980.537
98258.182
30605.682
17342.87
12748.085
2118.6858
2127.9805
12799.221
17405.497
30694.254
98545.897
98844.275
30786.613
17470.45
12852.099
2137.4682
2147.1622
12906.955
17537.996
30882.914
99154.245
99476.55
30983.547
17608.172
12963.779
2157.0617
2167.1824
13022.884
17681.356
31088.79
99812.213
100162.36
31199.033
17757.552
13084.237
2177.5275
2188.1113
13148.219
17837.238
31314.683
100528.35
100911.49
31436.24
17920.454
13214.832
2198.9385
2210.0251
13284.508
18007.756
31564.219
101313.65
101736.72
31699.328
18099.27
13357.299
2221.3757
2232.9983
13433.714
18195.662
31842.259
102183.18
102655.92
31993.961
18297.171
13513.889
2244.8868
2257.0339
13598.424
18404.604
32155.414
103158.47
103695.23
32327.988
18518.448
13687.621
2269.4094
2281.9563
13782.29
18639.832
32513.342
104271.68
104894.89
32713.562
18769.692
13883.066
2294.5646
2307.0512
13991.241
18909.825
32931.376
105574.05
106321.05
33170.855
19062.627
14108.571
2319.1289
2330.3253
14238.244
19232.393
33438.503
107154.41
108104.28
33742.277
19425.335
14385.133
2339.8428
2346.5884
14558.685
19654.446
34091.013
109210.24
110598.7
34578.154
19953.221
14772.305
2348.501
2337.2085
14992.063
20299.918
35282.288
112621.4
115560.62
35825.691
20523.572
15099.775
2300.9593
2233.2092
14987.209
20473.255
35804.222
118460.82
119852.55
36870.02
21168.178
15586.324
2203.5162
2190.7239
15486.765
21454.57
37986.929
126792.36
132585.15
39502.48
22023.177
15617.779
2241.1504
2066.005
16031.082
21731.972
37947.768
124655.46
122326.38
37020.261
21074.154
15253.464
2153.245
2159.4908
15322.289
21068.999
36897.558
121321.29
122429.64
38127.561
21984.156
16364.73
2062.321
2179.7262
15724.052
21584.188
37866.104
124021.91
125416.81
37799.432
21416.706
15512.686
2179.0586
2058.3833
15945.879
21617.068
37777.849
124570.7
123423.7
37109.227
21045.967
15173.07
2163.3097
2184.3661
15395.281
20956.956
36618.139
119771.8
118053.61
35839.793
20513.335
15063.645
2215.5915
2275.4118
15121.542
20510.075
35745.456
115289.19
112397.74
35263.65
20319.736
15031.422
2314.5406
2327.5791
14819.323
19985.638
34592.406
110393.51
109019.66
34104.254
19687.377
14606.46
2327.2707
2321.8715
14427.498
19447.921
33727.731
107912.65
106973.66
33412.902
19246.847
14274.94
2313.3705
2302.9542
14140.876
19071.564
33139.977
106154.56
105419.69
32897.656
18914.843
14020.219
2291.5036
2279.5505
13909.671
18772.043
32678.119
104748.83
104130.58
32476.655
18640.01
13806.932
2267.3996
2255.2438
13710.793
18517.046
32290.265
103556.82
103021.41
32116.855
18401.709
13620.192
2243.1896
2231.3079
13534.647
18293.257
31954.743
102519.59
102047.3
31802.672
18190.741
13453.441
2219.6293
2208.1799
13376.36
18093.779
31659.531
101601.3
101178.73
31524.46
18001.632
13302.821
2196.9623
2185.9839
13232.741
17914.084
31396.618
100777.34
100395.01
31275.429
17830.534
13165.616
2175.2377
2164.7273
13101.434
17750.869
31160.256
100030.05
99680.912
31050.625
17674.57
13039.754
2154.4397
2144.3756
12980.6
17601.577
30946.048
99346.332
99025.081
30846.197
17531.471
12923.594
2134.5214
2124.8758
12868.764
17464.196
30750.648
98716.316
98419.071
30659.179
17399.434
12815.808
2115.4268
2106.173
12764.756
17337.136
30571.446
98132.646
97856.206
30487.285
17277.064
12715.367
2097.1022
2088.2134
12667.639
17219.126
30406.377
97589.17
97330.887
30328.586
17163.179
12621.399
2079.4941
2070.9449
12576.608
17109.089
30253.68
97080.921
96838.757
30181.54
17056.808
12533.175
2062.556
2054.3258
12491.012
17006.146
30111.959
96603.974
96376.116
30044.864
16957.159
12450.111
2046.248
2038.3172
12410.314
16909.578
29980.077
96154.755
2046.3334
12450.652
16957.81
30045.769
96380.028
96607.711
30112.902
17006.921
12491.64
2054.427
2062.6644
12533.792
17057.519
30182.462
96842.414
97084.477
30254.644
17109.869
12577.26
2071.0602
2079.6173
12622.075
17163.951
30329.556
97334.426
97592.611
30407.394
17219.93
12668.316
2088.3406
2097.2394
12716.099
17277.898
30488.301
97859.66
98136.08
30572.523
17337.965
12765.46
2106.3148
2115.578
12816.595
17400.339
30660.272
98422.578
98719.82
30751.808
17465.064
12869.499
2125.0293
2134.6811
12924.42
17532.424
30847.344
99028.652
99349.788
30947.251
17602.473
12981.36
2144.5374
2154.6083
13040.639
17675.596
31051.844
99684.349
100033.49
31161.543
17751.827
13102.244
2164.8966
2175.4125
13166.557
17831.635
31276.743
100398.54
100780.83
31397.996
17915.102
13233.6
2186.1582
2197.1422
13303.819
18002.805
31525.845
101182.26
101604.72
31660.983
18094.87
13377.277
2208.361
2219.8171
13454.499
18192
31804.159
102050.62
102522.74
31956.287
18294.447
13535.642
2231.4967
2243.3847
13621.327
18403.063
32118.425
103024.4
103559.59
32291.91
18518.359
13711.89
2255.4413
2267.6041
13808.16
18641.48
32478.333
104133.1
104750.99
32679.854
18773.5
13910.889
2279.759
2291.7204
14021.571
18916.463
32899.436
105421.36
106155.63
33141.812
19073.223
14142.272
2303.1773
2313.6025
14276.513
19248.728
33414.867
106973.95
107912.15
33729.936
19450.012
14429.237
2322.1081
2327.5008
14608.465
19689.839
34106.868
109018.63
110392.63
34595.944
19988.497
14821.561
2327.7807
2314.689
15033.771
20322.764
35267.047
112396.89
115290.58
35749.312
20513.215
15123.77
2275.4393
2215.6933
15066.129
20516.955
35845.032
118053.69
119773.32
36623.421
20960.609
15397.567
2184.427
2036.0576
15842.149
21215.076
36656.291
119647.29
116801.23
35892.863
20792.634
15559.399
2040.3388
2079.11
15415.17
20601.07
35531.925
113885.95
111245.4
34979.729
20301.282
15215.738
2102.5078
2108.7934
14969.977
19945.718
34329.559
109467.47
108213.02
33874.427
19656.077
14754.138
2106.9123
2102.0857
14580.053
19429.702
33523.926
107160.29
106242.49
33226.661
19239.647
14433.003
2095.2364
2086.9916
14303.443
19072.863
32966.178
105429.63
104694.71
32734.198
18923.119
14186.438
2077.9376
2068.4103
14078.784
18786.073
32523.451
104022.04
103402.55
32329.74
18658.856
13978.31
2058.6142
2048.6898
13883.959
18540.014
32150.414
102829.21
102296.12
31983.61
18428.273
13794.775
2038.7311
2028.8094
13710.41
18323.068
31827.827
101798.37
101331.57
31681.863
18223.52
13630.191
2018.9673
2009.2384
13553.974
18129.311
31544.61
100892.19
100477.06
31415.223
18039.725
13481.179
1999.6377
1990.183
13411.77
17954.604
31292.945
100083.73
99709.959
31177.126
17873.337
13345.231
1980.8763
1971.7272
13281.594
17795.852
31067.171
99353.867
99013.833
30962.635
17721.629
13220.401
1962.7314
1953.895
13161.705
17650.633
30863.016
98688.524
98376.595
30767.981
17582.435
13105.116
1945.2113
1936.6843
13050.702
17517.031
30677.169
98077.072
97789.008
30590.319
17454.076
12998.135
1928.3062
1920.0775
12947.458
17393.526
30507.085
97511.6
97244.058
30427.314
17335.157
12898.428
1911.9935
1904.0541
12851.049
17278.88
30350.704
96985.812
96736.142
30277.114
17224.556
12805.152
1896.2537
1888.5915
12760.688
17172.041
30206.31
96494.595
96260.627
30138.155
17121.296
12717.571
1881.0626
1873.6654
12675.684
17072.095
30072.429
96033.797
95813.607
30009.03
17024.503
12635.023
1866.3852
1866.4928
12634.892
17024.361
30009.045
95812.072
96031.177
30072.096
17071.859
12675.467
1873.7794
1881.1899
12717.196
17120.799
30137.496
96257.131
96490.261
30205.458
17171.478
12760.247
1888.7382
1896.4242
12804.634
17223.844
30276.048
96731.073
96979.931
30349.496
17278.087
12850.451
1904.2509
1912.2239
12897.798
17334.272
30425.913
97237.385
97503.951
30505.546
17392.514
12946.712
1920.3445
1928.6173
12997.379
17452.994
30588.549
97780.368
98067.279
30675.221
17515.773
13049.796
1937.045
1945.6325
13104.217
17581.131
30765.782
98365.561
98676.053
30860.566
17649.095
13160.62
1954.3812
1963.2982
13219.325
17720.035
30959.872
98999.864
99338.033
31064.12
17793.976
13280.303
1972.3841
1981.6447
13343.947
17871.393
31173.674
99692.054
100063.41
31289.092
17952.329
13410.25
1991.0786
2000.6894
13479.659
18037.353
31410.885
100454.01
100865.88
31539.74
18126.557
13552.202
2010.4712
2020.4216
13628.403
18220.615
31676.345
101301.53
101763.92
31821.642
18319.752
13708.381
2030.5265
2040.7691
13792.735
18424.777
31976.645
102256.57
102783.5
32142.563
18536.068
13881.705
2051.1109
2061.5049
13976.048
18654.648
32320.805
103349.51
103960.27
32513.313
18781.433
14076.429
2071.8735
2082.1084
14184.305
18918.334
32722.767
104622.73
105346.19
32953.578
19068.136
14301.816
2092.0356
2101.3705
14432.878
19236.042
33213.739
106147.46
107056.96
33512.958
19429.158
14583.169
2109.5953
2116.1961
14763.865
19662.64
33870.888
108114
109407.21
34341.777
19964.856
14991.174
2120.3834
2117.578
15257.386
20342.359
35006.907
111267.18
114069.47
35670.14
20705.059
15496.593
2100.363
2071.3706
15659.301
21015.334
36427.941
117621.59
121241.74
36652.904
21053.247
15559.604
2051.6256
2074.2411
15965.834
21636.367
37767.608
124289.97
131390.59
39249.937
22029.633