/*--------------------------------*- C++ -*----------------------------------*\
  =========                 |
  \\      /  F ield         | OpenFOAM: The Open Source CFD Toolbox
   \\    /   O peration     | Website:  https://openfoam.org
    \\  /    A nd           | Version:  7
     \\/     M anipulation  |
\*---------------------------------------------------------------------------*/
FoamFile
{
    version     2.0;
    format      ascii;
    class       volScalarField;
    location    "460";
    object      rho;
}
// * * * * * * * * * * * * * * * * * * * * * * * * * * * * * * * * * * * * * //

dimensions      [1 -3 0 0 0 0 0];

internalField   nonuniform List<scalar> 
24789
(
1.1732297
1.173262
1.1732854
1.1733044
1.1733972
1.1733732
1.1732761
1.1732563
1.173232
1.1731985
1.1731654
1.1732002
1.1732255
1.1732462
1.173348
1.1733215
1.1732144
1.1731928
1.1731663
1.1731301
1.1730925
1.1731303
1.1731579
1.1731806
1.1732935
1.1732637
1.1731445
1.1731206
1.1730917
1.1730522
1.1730088
1.1730502
1.1730807
1.1731059
1.1732321
1.1731983
1.1730643
1.1730377
1.1730056
1.1729621
1.1729115
1.1729574
1.1729913
1.1730196
1.1731623
1.1731236
1.1729711
1.172941
1.1729051
1.1728566
1.1727967
1.1728482
1.1728865
1.1729186
1.1730819
1.173037
1.1728614
1.172827
1.1727861
1.1727313
1.1726594
1.1727181
1.1727619
1.1727989
1.1729884
1.1729356
1.1727304
1.1726904
1.1726433
1.1725803
1.1724928
1.1725608
1.1726117
1.1726551
1.1728781
1.1728152
1.1725719
1.1725247
1.1724694
1.1723958
1.1722878
1.1723679
1.1724282
1.1724797
1.1727462
1.1726703
1.1723772
1.1723207
1.1722547
1.1721672
1.1720324
1.1721284
1.1722008
1.1722631
1.1725864
1.1724931
1.1721354
1.1720665
1.1719866
1.1718809
1.1717108
1.1718274
1.1719158
1.1719921
1.172389
1.1722721
1.171831
1.1717463
1.1716484
1.1715194
1.1713044
1.1714469
1.1715555
1.1716496
1.1721401
1.17199
1.1714452
1.1713407
1.1712206
1.1710633
1.1707933
1.1709661
1.1710987
1.1712143
1.1718171
1.1716168
1.1709538
1.1708266
1.1706814
1.1704931
1.1701688
1.1703711
1.1705286
1.1706672
1.1713884
1.1711149
1.1703463
1.1701976
1.1700298
1.169817
1.169408
1.1696214
1.1697937
1.1699487
1.170744
1.1703795
1.1695597
1.1694031
1.1692388
1.1690532
1.1691334
1.1692408
1.1693821
1.1695361
1.170373
1.1694741
1.168861
1.1687449
1.1686542
1.1686279
1.1631933
1.1634582
1.1636577
1.1638896
1.1659424
1.1700906
1.1695822
1.1694702
1.1693533
1.1691745
1.1711315
1.1713372
1.1714291
1.1715315
1.1719463
1.1739712
1.1736183
1.1735235
1.1734104
1.1732099
1.1773886
1.1777393
1.1779796
1.1781697
1.1781705
1.1732638
1.1711531
1.1709267
1.170732
1.170355
1.171729
1.1718763
1.1719046
1.1719054
1.1720255
1.1690885
1.1665784
1.16626
1.1659421
1.1655141
1.1647508
1.1648886
1.1649894
1.1651319
1.1665929
1.1695558
1.168769
1.168649
1.1685472
1.1684927
1.1689897
1.1691112
1.1692545
1.1694059
1.1703603
1.1703906
1.1694594
1.169305
1.1691435
1.168962
1.1693146
1.1695187
1.1696876
1.1698415
1.1707616
1.1711342
1.1702342
1.1700851
1.1699187
1.1697108
1.1700605
1.1702541
1.1704109
1.1705512
1.1714063
1.1716309
1.1708338
1.1707033
1.1705562
1.17037
1.1706599
1.1708352
1.170972
1.1710925
1.1718278
1.1719978
1.1713239
1.1712133
1.1710873
1.1709252
1.1711649
1.1713141
1.1714297
1.1715307
1.172146
1.1722767
1.1717161
1.171624
1.1715182
1.1713812
1.1715759
1.1717014
1.1717982
1.1718822
1.1723926
1.1724961
1.1720312
1.1719545
1.171866
1.1717509
1.1719083
1.172014
1.172095
1.172165
1.1725889
1.1726726
1.1722855
1.1722214
1.1721471
1.1720499
1.1721775
1.172267
1.1723354
1.1723941
1.1727484
1.1728172
1.1724922
1.1724382
1.1723752
1.1722926
1.1723966
1.1724731
1.1725313
1.1725811
1.1728799
1.1729373
1.1726618
1.1726158
1.1725618
1.1724908
1.1725762
1.1726424
1.1726926
1.1727353
1.17299
1.1730386
1.1728023
1.1727627
1.1727158
1.172654
1.172725
1.1727829
1.1728267
1.1728637
1.1730834
1.173125
1.1729201
1.1728855
1.1728444
1.1727899
1.1728494
1.1729008
1.1729395
1.172972
1.1731636
1.1731996
1.1730199
1.1729893
1.1729528
1.1729042
1.1729548
1.1730009
1.1730355
1.1730643
1.1732333
1.1732649
1.1731055
1.1730783
1.1730454
1.1730016
1.1730451
1.1730869
1.1731181
1.1731439
1.1732946
1.1733226
1.1731798
1.1731552
1.1731255
1.1730855
1.1731233
1.1731615
1.17319
1.1732134
1.173349
1.1733742
1.1732451
1.1732228
1.1731955
1.1731588
1.1731924
1.1732276
1.1732538
1.1732752
1.1733982
1.1733774
1.1732499
1.1732277
1.1732008
1.1731645
1.1731295
1.1731673
1.1731954
1.1732186
1.1733523
1.173326
1.1731853
1.173161
1.1731316
1.1730921
1.1730521
1.1730934
1.1731242
1.1731498
1.1732982
1.1732688
1.1731117
1.1730849
1.1730525
1.1730092
1.172963
1.1730085
1.1730426
1.173071
1.1732375
1.1732041
1.1730271
1.172997
1.172961
1.172913
1.1728589
1.1729096
1.1729478
1.1729798
1.1731684
1.1731301
1.1729285
1.1728944
1.1728539
1.1728002
1.1727361
1.1727933
1.1728364
1.1728728
1.1730889
1.1730445
1.1728122
1.1727731
1.172727
1.1726661
1.1725893
1.1726546
1.172704
1.1727459
1.1729964
1.1729442
1.1726734
1.1726281
1.172575
1.172505
1.1724121
1.1724875
1.1725448
1.1725937
1.1728873
1.1728251
1.1725059
1.1724528
1.1723909
1.1723095
1.172196
1.1722841
1.1723513
1.172409
1.1727569
1.1726818
1.1723017
1.1722388
1.1721657
1.1720702
1.1719305
1.1720344
1.172114
1.1721826
1.1725987
1.1725066
1.1720504
1.1719753
1.1718884
1.1717753
1.1716027
1.171726
1.1718209
1.1719032
1.1724038
1.1722887
1.1717391
1.1716489
1.1715452
1.1714109
1.1711977
1.1713439
1.1714571
1.1715559
1.1721588
1.1720114
1.1713515
1.1712435
1.1711202
1.1709614
1.1707003
1.1708716
1.1710052
1.1711228
1.1718423
1.1716464
1.1708669
1.1707397
1.1705965
1.1704154
1.1701095
1.1702974
1.1704499
1.1705864
1.1714221
1.1711537
1.1702747
1.1701299
1.1699686
1.1697671
1.1693857
1.1695808
1.1697436
1.1698925
1.1707891
1.1703855
1.1694879
1.1693401
1.1691866
1.1690154
1.1690046
1.169113
1.1692444
1.1693884
1.1703187
1.169827
1.1690557
1.1689356
1.168839
1.1688089
1.1656225
1.1657317
1.1658028
1.1659042
1.1668195
1.1671606
1.1628037
1.1623315
1.1618824
1.161254
1.1788704
1.178785
1.1786572
1.1784532
1.1760735
1.1724305
1.1704474
1.1701941
1.1699881
1.1696012
1.1768917
1.1773038
1.1775547
1.1777502
1.1774812
1.1738664
1.1738874
1.1738461
1.1737721
1.1735745
1.1775344
1.1775418
1.1774538
1.1772841
1.1757048
1.1670403
1.1635333
1.1630644
1.1625931
1.1619763
1.1650334
1.1651576
1.1652268
1.1653335
1.1663415
1.1695555
1.1688774
1.1687579
1.1686643
1.1686344
1.1689293
1.1690549
1.1691964
1.1693474
1.1701906
1.1703108
1.1694902
1.1693342
1.1691669
1.1689689
1.1693766
1.1696023
1.1697776
1.1699322
1.1707326
1.1711041
1.1703396
1.1701935
1.1700272
1.1698148
1.1701796
1.1703791
1.1705329
1.1706675
1.1713783
1.171609
1.1709593
1.1708367
1.170696
1.1705122
1.1708145
1.1709818
1.1711095
1.1712205
1.1718094
1.1719821
1.1714504
1.1713503
1.1712349
1.1710835
1.171322
1.1714589
1.171563
1.1716531
1.1721325
1.1722651
1.1718329
1.1717516
1.1716577
1.1715339
1.1717219
1.171834
1.171919
1.1719924
1.1723827
1.1724875
1.1721342
1.1720677
1.1719905
1.1718887
1.1720373
1.1721301
1.1722004
1.1722608
1.1725815
1.172666
1.172374
1.1723189
1.1722547
1.1721698
1.1722884
1.1723665
1.1724254
1.1724758
1.1727425
1.172812
1.1725674
1.1725211
1.1724669
1.1723948
1.1724905
1.1725573
1.1726075
1.1726502
1.1728752
1.172933
1.1727253
1.1726857
1.1726392
1.1725771
1.1726555
1.1727135
1.1727569
1.1727936
1.1729861
1.1730349
1.172856
1.1728218
1.1727812
1.1727268
1.1727918
1.172843
1.1728811
1.1729132
1.17308
1.1731217
1.1729658
1.1729357
1.1728998
1.1728515
1.1729062
1.172952
1.1729859
1.1730142
1.1731605
1.1731967
1.1730591
1.1730323
1.1730002
1.1729567
1.1730034
1.1730448
1.1730754
1.1731007
1.1732305
1.1732622
1.1731394
1.1731154
1.1730863
1.1730468
1.1730871
1.173125
1.1731528
1.1731756
1.173292
1.17332
1.1732095
1.1731877
1.1731611
1.1731248
1.1731601
1.173195
1.1732205
1.1732414
1.1733466
1.173372
1.1732714
1.1732515
1.173227
1.1731934
1.1732037
1.1732369
1.173261
1.1732806
1.1733767
1.1733516
1.1732509
1.1732305
1.1732054
1.1731708
1.1731359
1.1731718
1.173198
1.1732194
1.1733252
1.1732974
1.1731859
1.1731635
1.1731361
1.1730986
1.1730587
1.1730978
1.1731265
1.1731502
1.1732678
1.1732364
1.1731119
1.1730869
1.1730568
1.1730158
1.1729695
1.1730126
1.1730444
1.1730707
1.1732029
1.1731671
1.1730263
1.1729984
1.1729648
1.1729194
1.1728651
1.1729132
1.1729487
1.1729785
1.1731287
1.1730873
1.1729264
1.1728947
1.1728569
1.1728059
1.1727411
1.1727954
1.1728358
1.1728698
1.1730427
1.1729945
1.172808
1.1727714
1.1727282
1.1726701
1.1725919
1.1726542
1.1727008
1.1727402
1.172942
1.1728849
1.1726656
1.1726229
1.1725726
1.1725054
1.1724096
1.1724823
1.1725369
1.1725834
1.1728225
1.1727539
1.1724921
1.1724414
1.1723819
1.1723028
1.1721838
1.1722702
1.1723352
1.1723909
1.1726785
1.172595
1.172278
1.1722167
1.1721452
1.1720505
1.1719009
1.1720052
1.172084
1.1721516
1.1725024
1.1723988
1.1720099
1.1719349
1.1718479
1.1717328
1.1715437
1.1716709
1.1717672
1.1718504
1.1722824
1.1721508
1.1716707
1.1715783
1.1714716
1.1713311
1.1710927
1.1712476
1.1713656
1.171468
1.1720009
1.1718282
1.1712387
1.1711256
1.1709956
1.1708257
1.1705285
1.1707134
1.1708555
1.1709798
1.1716275
1.1713979
1.1706942
1.1705591
1.1704055
1.170207
1.1698593
1.1700676
1.1702308
1.1703753
1.1711235
1.1707525
1.1699812
1.1698313
1.1696643
1.1694556
1.169089
1.1692708
1.1694292
1.1695792
1.170371
1.1703316
1.1695145
1.1693696
1.1692365
1.1691327
1.1688149
1.1688288
1.1688982
1.1689923
1.1695125
1.1660675
1.1643555
1.1641647
1.164016
1.1638068
1.1665198
1.1668791
1.1671127
1.1673484
1.1691655
1.1741779
1.1752524
1.1752898
1.1752868
1.1752064
1.1713168
1.1715577
1.1716695
1.1717839
1.1727908
1.1784854
1.178548
1.1783667
1.1781343
1.1777553
1.1815511
1.1835667
1.1838903
1.1841394
1.18427
1.1840825
1.1840508
1.1840408
1.183883
1.1807758
1.1787743
1.1790053
1.1789039
1.1788012
1.1786026
1.1768501
1.1770139
1.1771235
1.1771927
1.1768583
1.1748681
1.1754326
1.1754674
1.1754462
1.1753586
1.1735427
1.1737665
1.173898
1.1739579
1.1739797
1.1675632
1.165352
1.1650554
1.1647778
1.1643167
1.1650906
1.1651937
1.1652666
1.165389
1.1664792
1.1695566
1.1689452
1.1688348
1.1687477
1.168731
1.1690673
1.1691728
1.1693038
1.1694457
1.1702197
1.1703239
1.1695593
1.1694126
1.1692579
1.1690815
1.1694744
1.1696744
1.1698362
1.1699815
1.1707336
1.171103
1.1703783
1.17024
1.1700839
1.1698858
1.1702364
1.1704236
1.1705693
1.1706976
1.1713765
1.1716062
1.1709817
1.1708641
1.1707302
1.1705568
1.1708493
1.1710081
1.1711303
1.1712372
1.1718062
1.1719789
1.1714629
1.1713661
1.1712551
1.1711105
1.1713429
1.1714744
1.171575
1.1716626
1.1721295
1.1722621
1.1718396
1.1717603
1.1716691
1.1715496
1.1717335
1.1718423
1.1719251
1.171997
1.1723797
1.1724847
1.1721373
1.172072
1.1719966
1.1718973
1.1720434
1.1721342
1.1722031
1.1722626
1.1725788
1.1726636
1.172375
1.1723206
1.1722574
1.172174
1.172291
1.1723679
1.172426
1.1724759
1.1727402
1.1728098
1.172567
1.1725211
1.1724674
1.1723963
1.1724912
1.1725573
1.172607
1.1726495
1.1728732
1.1729311
1.1727243
1.1726849
1.1726387
1.1725771
1.172655
1.1727126
1.1727558
1.1727924
1.1729843
1.1730332
1.1728547
1.1728205
1.1727801
1.1727259
1.1727908
1.1728418
1.1728798
1.1729118
1.1730785
1.1731203
1.1729643
1.1729342
1.1728984
1.1728502
1.1729049
1.1729506
1.1729845
1.1730128
1.1731592
1.1731954
1.1730576
1.1730309
1.1729988
1.1729553
1.173002
1.1730434
1.173074
1.1730993
1.1732293
1.1732611
1.1731381
1.1731141
1.173085
1.1730454
1.1730858
1.1731237
1.1731515
1.1731744
1.173291
1.1733192
1.1732084
1.1731866
1.17316
1.1731236
1.173159
1.173194
1.1732196
1.1732404
1.1733459
1.1733714
1.1732706
1.1732506
1.1732261
1.1731924
1.1731602
1.1731967
1.1732239
1.1732462
1.173375
1.1733498
1.1732147
1.1731913
1.173163
1.1731248
1.1730871
1.1731269
1.1731566
1.1731811
1.1733233
1.1732954
1.1731453
1.1731195
1.1730884
1.1730467
1.1730033
1.173047
1.1730797
1.1731069
1.1732657
1.1732342
1.1730657
1.173037
1.1730025
1.1729565
1.172906
1.1729544
1.1729909
1.1730214
1.1732006
1.1731647
1.1729735
1.1729411
1.1729024
1.1728512
1.1727916
1.172846
1.172887
1.1729216
1.1731261
1.1730846
1.1728652
1.1728283
1.1727845
1.1727266
1.1726556
1.1727174
1.1727642
1.1728038
1.1730398
1.1729913
1.1727367
1.1726941
1.1726439
1.1725777
1.1724922
1.1725632
1.1726172
1.1726632
1.1729387
1.1728813
1.1725824
1.1725326
1.1724744
1.1723978
1.1722937
1.1723764
1.1724394
1.1724935
1.1728186
1.1727499
1.1723952
1.1723364
1.1722679
1.1721784
1.1720506
1.1721478
1.1722223
1.1722864
1.1726741
1.1725905
1.1721659
1.1720957
1.1720146
1.1719088
1.1717512
1.1718665
1.1719551
1.1720319
1.1724977
1.1723943
1.1718829
1.1717987
1.1717018
1.1715761
1.1713816
1.1715186
1.1716245
1.1717168
1.1722785
1.1721479
1.1715316
1.1714304
1.1713147
1.1711656
1.1709267
1.1710885
1.1712145
1.1713251
1.1719998
1.17183
1.1710944
1.1709739
1.1708374
1.170663
1.1703763
1.1705604
1.1707067
1.170837
1.1716334
1.171409
1.1705563
1.1704165
1.1702608
1.1700704
1.1697272
1.1699311
1.1700957
1.1702439
1.1711382
1.1707695
1.1698621
1.1697099
1.1695443
1.169348
1.1689977
1.1691688
1.1693253
1.1694768
1.1703827
1.1703287
1.169409
1.1692605
1.1691242
1.1690152
1.1686959
1.1687332
1.1688263
1.1689468
1.1696633
1.1667816
1.1654232
1.1652858
1.1651755
1.1650289
1.1649945
1.1654171
1.1656928
1.165991
1.1685826
1.172702
1.1729986
1.1729763
1.172924
1.1727102
1.1698772
1.1703332
1.1706741
1.1709837
1.173525
1.1785693
1.1823743
1.1827988
1.1831462
1.1834454
1.1729342
1.1731402
1.1732916
1.1734074
1.1740755
1.1712387
1.1704072
1.1702589
1.1701379
1.1698382
1.1705869
1.1706486
1.1706603
1.1706598
1.1705035
1.1660176
1.1635663
1.1632692
1.1630125
1.1627022
1.1686981
1.1687185
1.1688007
1.1689043
1.1694531
1.1703464
1.1695153
1.1693622
1.1692222
1.1691162
1.1690372
1.1692225
1.1693868
1.1695438
1.1703675
1.1707415
1.1699403
1.1697843
1.169611
1.1693969
1.1698023
1.1700172
1.1701866
1.1703368
1.1711132
1.1713873
1.170658
1.1705178
1.1703585
1.1701536
1.1704795
1.1706702
1.1708173
1.1709461
1.1716166
1.1718173
1.1712078
1.1710908
1.1709566
1.1707815
1.1710533
1.1712126
1.1713343
1.1714399
1.1719902
1.1721404
1.1716453
1.1715502
1.1714404
1.1712962
1.1715128
1.1716432
1.1717421
1.1718276
1.1722725
1.1723894
1.1719894
1.1719125
1.1718233
1.1717055
1.1718769
1.1719834
1.172064
1.1721334
1.1724935
1.1725868
1.1722616
1.172199
1.172126
1.1720293
1.172165
1.1722531
1.1723194
1.1723763
1.1726708
1.1727467
1.172479
1.1724272
1.1723666
1.1722861
1.1723946
1.1724686
1.1725241
1.1725714
1.1728156
1.1728785
1.1726548
1.1726114
1.1725603
1.172492
1.1725798
1.172643
1.1726903
1.1727304
1.172936
1.1729888
1.172799
1.1727619
1.172718
1.1726592
1.1727312
1.1727862
1.1728271
1.1728616
1.1730374
1.1730824
1.1729189
1.1728867
1.1728484
1.1727969
1.1728568
1.1729054
1.1729414
1.1729715
1.173124
1.1731626
1.1730199
1.1729916
1.1729577
1.1729118
1.1729625
1.173006
1.1730381
1.1730647
1.1731987
1.1732324
1.1731063
1.1730811
1.1730507
1.1730093
1.1730526
1.1730921
1.1731211
1.173145
1.1732641
1.1732938
1.1731811
1.1731584
1.1731307
1.173093
1.1731306
1.1731668
1.1731933
1.1732149
1.1733219
1.1733484
1.1732466
1.173226
1.1732007
1.1731659
1.173199
1.1732325
1.1732568
1.1732765
1.1733736
1.1733766
1.1732811
1.1732616
1.1732376
1.1732046
1.1731721
1.1732064
1.1732313
1.1732516
1.1733516
1.1733253
1.1732203
1.173199
1.173173
1.1731374
1.1731004
1.1731376
1.1731647
1.173187
1.1732975
1.173268
1.1731515
1.1731281
1.1730996
1.1730609
1.1730184
1.173059
1.1730888
1.1731134
1.1732367
1.1732032
1.1730726
1.1730466
1.1730152
1.1729727
1.1729234
1.1729681
1.1730012
1.1730287
1.1731675
1.1731291
1.1729812
1.1729519
1.172917
1.1728697
1.1728115
1.1728615
1.1728986
1.1729298
1.1730879
1.1730435
1.1728739
1.1728406
1.1728011
1.1727479
1.1726782
1.1727349
1.1727771
1.1728128
1.1729953
1.1729431
1.172746
1.1727076
1.1726623
1.1726016
1.1725171
1.1725823
1.1726311
1.1726726
1.1728861
1.1728239
1.1725916
1.1725465
1.1724938
1.1724235
1.1723196
1.1723958
1.1724531
1.1725021
1.1727556
1.1726804
1.1724026
1.172349
1.1722865
1.1722036
1.1720741
1.1721646
1.172233
1.1722918
1.1725973
1.172505
1.172168
1.1721032
1.1720281
1.1719288
1.1717655
1.1718748
1.1719575
1.1720291
1.1724018
1.1722859
1.1718728
1.1717936
1.1717022
1.1715818
1.1713751
1.1715078
1.1716088
1.1716966
1.1721549
1.1720057
1.1714977
1.1714005
1.1712888
1.1711428
1.1708819
1.1710419
1.1711648
1.1712722
1.1718338
1.1716341
1.1710168
1.1708988
1.1707643
1.1705902
1.1702718
1.1704591
1.1706048
1.1707333
1.1714053
1.1711321
1.1704148
1.1702768
1.1701214
1.1699237
1.1695162
1.1697168
1.1698772
1.1700213
1.1707641
1.1703691
1.1696052
1.1694596
1.1693053
1.1691244
1.1691179
1.1692311
1.1693652
1.1695103
1.1703197
1.1696517
1.1691065
1.1690047
1.1689257
1.1689077
1.1643905
1.1645697
1.1646865
1.164838
1.1662178
1.1679215
1.1651252
1.1647611
1.1644296
1.1639457
1.1780569
1.1779919
1.1778976
1.1777403
1.17587
1.1717299
1.1701262
1.1699398
1.1698058
1.1695546
1.1740198
1.1728362
1.1738314
1.1733245
1.1715488
1.1713378
1.1711267
1.1707759
1.1758122
1.175919
1.1759288
1.1758796
1.175372
1.1803826
1.1804926
1.1805186
1.1804406
1.1799878
1.1769108
1.1777189
1.1776906
1.1776342
1.1774147
1.1725225
1.1728417
1.1730133
1.1732273
1.1743201
1.1769139
1.1770736
1.1770204
1.1768789
1.1766334
1.1770691
1.1803997
1.1763404
1.1772957
1.173831
1.1738514
1.1738013
1.1738308
1.1738027
1.1737995
1.1738088
1.1738009
1.1731929
1.1732265
1.1732511
1.1732711
1.173372
1.1733468
1.1732412
1.1732203
1.1731947
1.1731598
1.1731245
1.1731609
1.1731875
1.1732093
1.1733202
1.1732921
1.1731755
1.1731526
1.1731248
1.1730869
1.1730466
1.1730861
1.1731152
1.1731393
1.1732622
1.1732305
1.1731005
1.1730752
1.1730447
1.1730033
1.1729567
1.1730001
1.1730322
1.1730589
1.1731966
1.1731602
1.1730141
1.1729858
1.172952
1.1729064
1.1728519
1.1729
1.1729357
1.1729657
1.1731213
1.1730794
1.1729134
1.1728815
1.1728436
1.1727928
1.1727283
1.1727822
1.1728224
1.1728564
1.1730342
1.1729852
1.1727944
1.172758
1.172715
1.1726578
1.1725805
1.1726416
1.1726875
1.1727266
1.172932
1.172874
1.1726523
1.1726102
1.1725609
1.1724955
1.1724016
1.1724719
1.1725249
1.1725704
1.1728106
1.1727411
1.17248
1.1724307
1.1723734
1.1722976
1.172182
1.1722641
1.1723263
1.1723799
1.1726645
1.1725797
1.1722686
1.1722101
1.1721424
1.1720532
1.1719095
1.1720066
1.1720806
1.1721446
1.1724857
1.1723808
1.1720059
1.1719356
1.1718546
1.1717484
1.1715677
1.1716841
1.171773
1.1718504
1.1722632
1.1721307
1.1716756
1.1715903
1.1714925
1.1713648
1.1711371
1.171277
1.1713846
1.1714787
1.1719802
1.1718076
1.171256
1.1711524
1.1710343
1.1708812
1.1705947
1.1707613
1.1708903
1.1710038
1.1716073
1.1713777
1.1707239
1.1706004
1.1704607
1.1702816
1.169937
1.1701259
1.170275
1.1704073
1.1711016
1.1707232
1.1700068
1.1698687
1.1697154
1.1695261
1.1691709
1.1693325
1.1694778
1.169617
1.1703461
1.1703111
1.1695896
1.1694547
1.1693331
1.1692484
1.1685823
1.168592
1.1686688
1.1687684
1.169285
1.1660214
1.1639653
1.1637443
1.1635706
1.1633537
1.1702826
1.1704042
1.1704271
1.1704554
1.1704593
1.1703118
1.1685612
1.1683287
1.168107
1.1676661
1.1746305
1.1748983
1.1750627
1.1751343
1.1754961
1.1776422
1.1776278
1.1776426
1.1775908
1.1749003
1.1750977
1.1752198
1.1754148
1.1756905
1.1759421
1.1763386
1.1761688
1.1760364
1.1757191
1.185916
1.1855956
1.1853208
1.1849148
1.1813338
1.180215
1.1823237
1.1824504
1.1825092
1.1825586
1.1746196
1.1748873
1.1750523
1.1751245
1.1754909
1.1703062
1.1685551
1.1683229
1.1681018
1.1676621
1.1702794
1.1704004
1.1704227
1.1704506
1.170454
1.1660163
1.16396
1.1637392
1.1635657
1.1633494
1.1685792
1.1685886
1.168665
1.1687644
1.1692804
1.170306
1.1695845
1.1694497
1.1693283
1.1692439
1.1691662
1.1693276
1.1694728
1.1696121
1.1703414
1.1707184
1.1700016
1.1698635
1.1697102
1.1695209
1.1699316
1.1701205
1.1702696
1.170402
1.1710969
1.1713732
1.1707187
1.1705951
1.1704553
1.1702761
1.1705891
1.1707557
1.1708848
1.1709985
1.1716029
1.1718033
1.1712507
1.1711471
1.1710288
1.1708756
1.1711315
1.1712717
1.1713794
1.1714736
1.1719761
1.1721267
1.1716706
1.1715852
1.1714872
1.1713594
1.1715624
1.1716789
1.1717681
1.1718456
1.1722594
1.1723771
1.1720013
1.1719308
1.1718496
1.1717432
1.1719044
1.1720017
1.1720759
1.1721401
1.1724821
1.1725763
1.1722643
1.1722056
1.1721377
1.1720484
1.1721773
1.1722595
1.1723219
1.1723757
1.1726611
1.1727378
1.1724758
1.1724264
1.1723689
1.1722929
1.1723971
1.1724676
1.1725208
1.1725664
1.1728075
1.172871
1.1726484
1.1726062
1.1725567
1.1724911
1.1725763
1.1726376
1.1726837
1.1727228
1.172929
1.1729823
1.1727908
1.1727542
1.1727112
1.1726537
1.1727243
1.1727784
1.1728188
1.1728529
1.1730314
1.1730766
1.1729098
1.1728778
1.1728398
1.1727888
1.1728481
1.1728963
1.1729322
1.1729623
1.1731186
1.1731576
1.1730108
1.1729824
1.1729484
1.1729026
1.1729531
1.1729966
1.1730289
1.1730557
1.173194
1.173228
1.1730974
1.1730719
1.1730413
1.1729998
1.1730431
1.1730828
1.1731121
1.1731362
1.1732598
1.1732897
1.1731725
1.1731495
1.1731216
1.1730836
1.1731213
1.1731578
1.1731846
1.1732065
1.1733179
1.1733446
1.1732385
1.1732175
1.1731918
1.1731567
1.1731901
1.1732239
1.1732486
1.1732687
1.17337
1.1733942
1.1732974
1.1732782
1.1732544
1.1732218
1.1733767
1.1732804
1.1732608
1.1732366
1.1732033
1.1731706
1.1732051
1.1732303
1.1732508
1.1733517
1.1733254
1.1732192
1.1731978
1.1731715
1.1731355
1.1730981
1.1731357
1.1731631
1.1731857
1.1732975
1.173268
1.1731498
1.173126
1.1730973
1.173058
1.1730148
1.173056
1.1730863
1.1731113
1.1732365
1.1732029
1.1730699
1.1730434
1.1730115
1.1729682
1.1729178
1.1729634
1.1729971
1.1730252
1.173167
1.1731284
1.1729769
1.172947
1.1729113
1.172863
1.1728031
1.1728544
1.1728925
1.1729245
1.1730869
1.1730421
1.1728674
1.1728331
1.1727925
1.1727378
1.172666
1.1727245
1.1727681
1.172805
1.1729937
1.172941
1.1727366
1.1726967
1.1726497
1.1725868
1.1724993
1.1725672
1.172618
1.1726613
1.1728837
1.172821
1.1725781
1.172531
1.1724758
1.1724022
1.1722941
1.1723743
1.1724345
1.172486
1.1727522
1.1726765
1.1723836
1.172327
1.172261
1.1721734
1.1720383
1.1721345
1.1722071
1.1722694
1.1725928
1.1724999
1.1721417
1.1720727
1.1719926
1.1718866
1.1717159
1.1718331
1.1719218
1.1719982
1.172396
1.1722796
1.1718372
1.1717522
1.1716538
1.1715242
1.1713086
1.171452
1.1715611
1.1716556
1.1721479
1.1719982
1.1714512
1.1713462
1.1712253
1.171067
1.1707966
1.1709706
1.1711039
1.1712201
1.1718258
1.1716257
1.1709595
1.1708317
1.1706857
1.1704963
1.1701725
1.1703756
1.1705337
1.1706729
1.171397
1.1711235
1.1703531
1.1702042
1.1700363
1.1698236
1.169421
1.1696327
1.1698042
1.1699586
1.1707523
1.1703792
1.1695646
1.1694096
1.1692474
1.1690649
1.1691477
1.1692506
1.169388
1.1695389
1.1703594
1.1694653
1.1689309
1.1688305
1.1687518
1.1687349
1.162752
1.1630554
1.1633079
1.1636016
1.1660354
1.1705286
1.1707051
1.17071
1.1707038
1.1706491
1.1698966
1.1701877
1.1703027
1.1704468
1.1712584
1.1740962
1.1734514
1.1733398
1.1731934
1.1730032
1.1835366
1.1832225
1.1828651
1.1824323
1.1785925
1.1735446
1.1710546
1.1707537
1.1704235
1.169983
1.1754471
1.1755218
1.1755306
1.1754861
1.1748914
1.1739025
1.1739571
1.1739253
1.1738609
1.1736786
1.1696595
1.1700379
1.1702402
1.1704912
1.1724601
1.1717369
1.1701341
1.1699488
1.1698163
1.1695672
1.1712571
1.1715106
1.1716309
1.1717529
1.1727931
1.1733205
1.1714947
1.1712758
1.1710571
1.1706966
1.175734
1.1758545
1.1758751
1.1758349
1.1753638
1.1705261
1.1688552
1.1685826
1.1682844
1.1677945
1.1700432
1.1701862
1.1702384
1.1702892
1.1704773
1.165906
1.163796
1.1635696
1.1633887
1.1631318
1.168576
1.1685971
1.168684
1.1687869
1.1692925
1.1703125
1.1695769
1.1694378
1.1693125
1.1692219
1.1691458
1.1693119
1.1694605
1.1696023
1.1703389
1.1707201
1.1699994
1.1698597
1.1697043
1.1695121
1.1699279
1.1701186
1.170269
1.1704024
1.1710995
1.1713749
1.1707191
1.170595
1.1704543
1.170274
1.1705879
1.1707553
1.1708849
1.1709989
1.171604
1.1718043
1.1712512
1.1711473
1.1710287
1.170875
1.1711313
1.1712718
1.1713798
1.1714742
1.1719772
1.1721279
1.1716713
1.1715857
1.1714875
1.1713594
1.1715626
1.1716794
1.1717687
1.1718463
1.1722607
1.1723785
1.1720021
1.1719315
1.1718501
1.1717435
1.1719048
1.1720024
1.1720767
1.172141
1.1724835
1.1725777
1.1722652
1.1722064
1.1721384
1.1720489
1.1721778
1.1722602
1.1723228
1.1723766
1.1726625
1.1727393
1.172477
1.1724275
1.1723699
1.1722937
1.1723978
1.1724685
1.1725218
1.1725674
1.1728089
1.1728723
1.1726495
1.1726072
1.1725577
1.172492
1.1725772
1.1726386
1.1726847
1.172724
1.1729304
1.1729836
1.1727919
1.1727553
1.1727122
1.1726547
1.1727252
1.1727793
1.1728198
1.172854
1.1730326
1.1730779
1.172911
1.172879
1.1728409
1.1727899
1.1728492
1.1728974
1.1729333
1.1729635
1.1731198
1.1731588
1.173012
1.1729836
1.1729496
1.1729038
1.1729541
1.1729977
1.1730299
1.1730568
1.1731951
1.173229
1.1730985
1.173073
1.1730424
1.1730009
1.1730442
1.1730839
1.1731132
1.1731373
1.1732608
1.1732907
1.1731736
1.1731506
1.1731227
1.1730847
1.1731225
1.173159
1.1731857
1.1732076
1.1733189
1.1733456
1.1732396
1.1732186
1.173193
1.1731579
1.1731912
1.173225
1.1732497
1.1732698
1.1733708
1.1733948
1.173298
1.1732787
1.173255
1.1732224
1.1733724
1.1732716
1.1732516
1.1732271
1.1731934
1.1731602
1.1731952
1.1732207
1.1732416
1.173347
1.1733204
1.1732097
1.1731879
1.1731612
1.1731249
1.1730872
1.1731251
1.1731529
1.1731758
1.1732923
1.1732625
1.1731396
1.1731155
1.1730864
1.1730469
1.1730036
1.173045
1.1730755
1.1731008
1.1732307
1.1731968
1.1730592
1.1730325
1.1730004
1.1729571
1.1729069
1.1729525
1.1729863
1.1730145
1.1731606
1.1731216
1.1729662
1.1729362
1.1729005
1.1728525
1.1727933
1.1728441
1.1728819
1.1729138
1.1730797
1.1730346
1.172857
1.172823
1.1727828
1.172729
1.1726587
1.1727159
1.1727588
1.1727951
1.1729857
1.1729325
1.1727274
1.1726884
1.1726426
1.1725816
1.1724967
1.172562
1.1726112
1.1726532
1.1728746
1.1728113
1.1725715
1.1725262
1.1724732
1.1724031
1.1722994
1.172375
1.1724322
1.1724813
1.1727418
1.1726652
1.1723815
1.172328
1.172266
1.1721842
1.172056
1.1721448
1.1722123
1.1722706
1.1725805
1.1724865
1.1721469
1.1720831
1.1720095
1.1719128
1.1717525
1.1718581
1.1719387
1.1720086
1.1723816
1.1722641
1.1718537
1.1717767
1.1716883
1.1715727
1.1713708
1.1714975
1.1715947
1.1716794
1.1721314
1.1719811
1.1714833
1.17139
1.1712832
1.1711444
1.17089
1.1710417
1.1711589
1.1712616
1.1718084
1.1716084
1.1710106
1.170898
1.1707701
1.1706051
1.1702937
1.1704712
1.1706098
1.1707323
1.1713795
1.1711044
1.1704174
1.1702859
1.170138
1.1699506
1.1695384
1.1697266
1.1698791
1.1700165
1.1707252
1.1703442
1.1696216
1.1694827
1.1693377
1.1691763
1.1692581
1.1693434
1.1694653
1.1696012
1.1703198
1.1692989
1.1688125
1.1687136
1.1686316
1.1686178
1.1631784
1.1634254
1.1636002
1.1638219
1.1659105
1.1704853
1.1703243
1.1702793
1.1702337
1.1700981
1.1678629
1.1683401
1.1686297
1.1688953
1.1705351
1.1719113
1.17107
1.1709605
1.1708385
1.1706011
1.1677464
1.1680194
1.1681753
1.1683471
1.1696315
1.1665357
1.164678
1.1644904
1.1643412
1.1641429
1.1685681
1.168611
1.1687071
1.1688239
1.1695648
1.1703708
1.1694518
1.1693041
1.1691664
1.1690616
1.1689866
1.1691594
1.1693175
1.1694697
1.1703858
1.1707634
1.1698488
1.1696956
1.1695279
1.169327
1.1697129
1.1699216
1.1700885
1.170238
1.1711388
1.1714115
1.1705521
1.1704109
1.170253
1.1700583
1.1703655
1.1705534
1.1707019
1.1708336
1.1716366
1.1718337
1.1710918
1.17097
1.1708315
1.1706537
1.1709187
1.1710835
1.1712113
1.1713232
1.172004
1.1721523
1.1715303
1.171428
1.1713106
1.1711589
1.171376
1.1715153
1.1716227
1.1717161
1.172283
1.1723988
1.1718827
1.1717976
1.1716994
1.1715717
1.1717477
1.1718648
1.1719546
1.1720322
1.1725022
1.1725949
1.1721666
1.1720957
1.1720135
1.1719062
1.1720488
1.1721474
1.1722227
1.1722875
1.1726784
1.172754
1.1723965
1.1723372
1.172268
1.1721773
1.1722931
1.1723767
1.1724405
1.172495
1.1728226
1.1728851
1.1725842
1.172534
1.1724751
1.1723978
1.1724925
1.1725643
1.1726187
1.1726651
1.1729423
1.1729948
1.1727387
1.1726958
1.1726452
1.1725784
1.1726566
1.1727189
1.1727661
1.1728059
1.1730431
1.1730878
1.1728674
1.1728303
1.1727862
1.1727279
1.1727931
1.1728479
1.1728891
1.1729239
1.1731292
1.1731677
1.1729758
1.1729433
1.1729044
1.1728528
1.1729078
1.1729566
1.1729932
1.1730237
1.1732035
1.173237
1.1730681
1.1730393
1.1730047
1.1729585
1.1730053
1.1730492
1.173082
1.1731093
1.1732684
1.173298
1.1731476
1.1731218
1.1730906
1.1730488
1.1730892
1.1731291
1.1731589
1.1731834
1.1733258
1.1733521
1.173217
1.1731936
1.1731652
1.173127
1.1731623
1.1731989
1.1732261
1.1732484
1.1733771
1.1733768
1.1732483
1.1732261
1.1731989
1.1731624
1.1731272
1.1731653
1.1731936
1.173217
1.1733518
1.1733254
1.1731834
1.173159
1.1731293
1.1730896
1.1730492
1.1730909
1.1731219
1.1731477
1.1732976
1.173268
1.1731094
1.1730822
1.1730495
1.1730059
1.1729592
1.1730051
1.1730395
1.1730682
1.1732365
1.1732029
1.1730239
1.1729935
1.1729571
1.1729087
1.1728539
1.1729051
1.1729437
1.1729761
1.173167
1.1731284
1.1729242
1.1728897
1.1728487
1.1727944
1.1727295
1.1727873
1.172831
1.1728679
1.1730869
1.1730421
1.1728066
1.172767
1.1727203
1.1726586
1.1725808
1.1726469
1.172697
1.1727395
1.1729937
1.172941
1.1726661
1.1726202
1.1725663
1.1724953
1.1724012
1.1724776
1.1725358
1.1725855
1.1728837
1.172821
1.1724966
1.1724427
1.1723797
1.1722972
1.1721821
1.1722715
1.1723398
1.1723985
1.1727523
1.1726767
1.1722899
1.1722259
1.1721516
1.1720545
1.1719128
1.1720184
1.1720995
1.1721695
1.1725931
1.1725003
1.1720356
1.171959
1.1718705
1.1717553
1.1715801
1.1717058
1.1718026
1.1718866
1.172397
1.1722812
1.1717205
1.1716283
1.1715224
1.1713853
1.1711688
1.1713182
1.1714339
1.171535
1.1721506
1.1720025
1.1713281
1.1712174
1.1710911
1.1709288
1.1706632
1.1708388
1.1709758
1.1710965
1.1718327
1.171636
1.1708376
1.1707068
1.1705594
1.1703727
1.1700626
1.1702568
1.170414
1.1705546
1.1714114
1.1711394
1.1702372
1.1700877
1.1699209
1.1697124
1.1693151
1.1695201
1.1696896
1.169844
1.1707669
1.1703958
1.1694611
1.1693061
1.1691439
1.1689613
1.1689878
1.1691105
1.1692549
1.169407
1.1703654
1.1695609
1.1687692
1.1686483
1.168545
1.1684885
1.1647489
1.1648875
1.1649903
1.165134
1.1665986
1.1690949
1.1665828
1.1662648
1.1659487
1.1655233
1.1717167
1.1718697
1.1719003
1.1719028
1.1720308
1.1732691
1.1711544
1.1709268
1.17073
1.1703506
1.1773882
1.1777422
1.1779844
1.178176