/*--------------------------------*- C++ -*----------------------------------*\
  =========                 |
  \\      /  F ield         | OpenFOAM: The Open Source CFD Toolbox
   \\    /   O peration     | Website:  https://openfoam.org
    \\  /    A nd           | Version:  7
     \\/     M anipulation  |
\*---------------------------------------------------------------------------*/
FoamFile
{
    version     2.0;
    format      ascii;
    class       volScalarField;
    location    "210";
    object      omega;
}
// * * * * * * * * * * * * * * * * * * * * * * * * * * * * * * * * * * * * * //

dimensions      [0 0 -1 0 0 0 0];

internalField   nonuniform List<scalar> 
25201
(
162.90781
163.24907
162.90784
163.24929
164.86019
162.07511
161.54199
165.89388
166.19456
168.08807
166.19441
162.07502
163.35543
183.02618
187.42158
164.30454
167.58664
171.0362
172.22084
183.14842
175.11045
175.93558
173.08163
178.51106
178.06204
185.57864
180.51974
170.36673
172.31616
181.70161
180.04871
177.71522
194.15277
191.40623
187.72607
187.35586
178.58532
180.92274
190.83203
193.53136
182.61263
183.56333
182.66039
195.58964
194.90255
193.5478
183.62992
172.44155
164.88468
163.35522
167.24013
168.51462
172.494
170.50824
168.32981
167.06072
165.32899
168.22139
169.52078
178.26944
175.42776
171.34078
172.57167
173.10183
174.67123
170.20182
172.24315
179.75286
178.97063
185.00519
184.5117
181.02428
170.72006
171.698
173.28777
188.47869
185.08979
182.80306
180.97201
178.88916
176.08604
173.47368
178.26419
178.83526
181.82207
177.48801
182.29469
182.96343
188.72996
185.59775
189.58555
192.13443
192.21199
191.87021
192.2714
188.89025
188.78541
192.2112
198.86279
194.48347
194.44897
198.47457
197.86465
193.94157
193.78863
196.98148
204.58405
199.90155
196.42933
196.30423
200.66346
200.44428
205.66383
206.14941
214.18305
207.84844
207.74265
213.65993
213.07402
205.13359
200.04754
207.09424
206.99973
212.54702
221.40509
214.15936
207.98329
196.46658
185.64827
190.90403
193.61106
194.98829
193.58488
192.35872
189.6769
186.58847
182.31293
178.29235
171.34818
165.33357
167.06136
172.57114
178.27335
175.42879
168.23016
169.52317
170.5095
168.32986
167.23994
170.20191
174.67098
173.10028
178.97542
179.75392
172.24388
174.10058
168.51511
164.88607
170.73273
171.7025
184.5188
181.03469
177.49109
176.11301
173.49618
178.92357
181.01037
182.81604
188.83858
186.28893
181.82654
178.83836
184.98985
180.18333
180.50915
184.87931
184.98613
184.86185
195.23225
195.12778
204.56661
200.95467
199.80141
204.46915
204.78907
210.72985
206.16333
206.24967
211.82432
220.75566
213.45475
206.96202
195.24519
184.88051
192.15773
189.63227
188.81838
213.18754
207.19294
200.14277
194.03249
193.8342
197.0309
192.25995
191.96242
197.96053
205.23897
204.63806
199.94757
207.04343
212.6011
221.44644
214.18634
214.44061
215.13784
208.43321
163.2329
162.85824
160.39943
170.35793
172.31287
182.65976
191.412
180.04506
181.70162
182.61071
183.56363
194.90409
195.59125
194.15473
193.53664
190.83672
180.91923
178.57711
177.71132
187.72775
187.35818
182.95668
175.92441
167.56872
102808.46
32254.184
18304.13
13471.105
2270.2849
2241.9319
13239.179
18017.973
31784.627
101659.73
100830.29
31376.017
17790.298
13072.24
2208.4293
2191.2049
13016.191
17706.054
31219.247
100541.5
100476.84
31175.722
17688.193
13010.29
2182.4144
2178.9615
13023.018
17697.36
31180.633
100513.08
100591.09
31203.196
17714.794
13039.651
2178.078
2178.5181
13056.077
17733.668
31228.956
100675.47
100773.11
31257.679
17752.991
13071.696
2179.5394
2180.8076
13086.779
17771.847
31284.851
100862.61
100960
31313.417
17790.713
13101.443
2182.1012
2183.3606
13115.737
17808.879
31339.632
101045.76
101138.9
31367.063
17826.981
13129.711
2184.5406
2185.6318
13143.266
17844.264
31391.911
101219.5
101307.68
31417.97
17861.448
13156.481
2186.6239
2187.5248
13169.256
17877.773
31441.38
101383.34
101466.83
31466.014
17893.939
13181.625
2188.3269
2189.0374
13193.499
17909.149
31487.83
101537.45
101615.34
31510.666
17924.038
13204.815
2189.6388
2190.1518
13215.606
17937.884
31530.521
101679.78
101751.17
31551.325
17951.332
13225.737
2190.5665
2190.9179
13235.483
17963.88
31569.319
101809.72
101875.88
31588.427
17976.115
13244.643
2191.1784
2191.3868
13253.43
17987.474
31604.752
101928.88
101989.95
31622.248
17998.531
13261.643
2191.5473
2191.7024
13269.5
18008.702
31636.872
102037.37
102092.76
31652.734
18018.588
13276.791
2191.8425
2191.9887
13283.688
18027.496
31665.559
102134.04
102182.86
31679.318
18035.908
13289.819
2192.1151
2192.2484
13295.587
18043.111
31689.291
102217.62
102252.13
31698.348
18049.338
13300.312
2192.3739
2192.6016
13304.159
18054.162
31705.337
102273.81
1985.1803
13494.552
18077.015
31549.536
101438.72
101421.56
31542.963
18072.048
13490.299
1985.1005
1984.9538
13485.497
18065.996
31534.6
101388.45
101351.81
31525.872
18059.317
13479.788
1984.8731
1984.8494
13474.04
18051.441
31513.049
101303.44
101260.1
31500.487
18042.517
13466.837
1984.8143
1984.8093
13459.838
18033.035
31485.543
101207.02
101158.86
31471.454
18022.899
13451.649
1984.7668
1984.7269
13443.693
18012.246
31454.959
101101.29
101049.02
31439.122
18000.806
13434.444
1984.6168
1984.4966
13425.448
17988.927
31421.125
100988.09
100931.27
31404.106
17976.497
13415.327
1984.3075
1984.0888
13405.45
17963.606
31384.812
100864.59
100801.58
31366.03
17949.936
13394.321
1983.766
1983.377
13383.33
17935.677
31344.844
100729.08
100660.06
31324.16
17920.651
13371.087
1982.8661
1982.3657
13359.272
17905.396
31301.672
100583.98
100510.96
31279.812
17889.5
13346.284
1981.7322
1981.0315
13333.577
17873.217
31255.908
100429.44
100350.7
31232.476
17856.261
13319.72
1980.1828
1979.2646
13306.047
17838.844
31206.937
100263
100178.91
31182.021
17820.878
13291.336
1978.2498
1977.2136
13276.905
17802.649
31155.332
100086.93
99999.752
31129.677
17784.111
13261.514
1976.1809
1975.3361
13246.4
17765.736
31103.28
99908.256
99827.721
31079.75
17747.793
13230.269
1974.887
1975.5269
13215.631
17732.984
31061.791
99759.924
99736.946
31062.448
17727.126
13205.262
1978.1408
1985.0308
13215.675
17750.975
31115.991
99820.994
100159.65
31282.623
17839.134
13273.95
1998.8669
2022.0136
13418.568
18035.946
31634.583
100972.43
102527.03
32142.667
18308.397
13628.159
2049.3498
2150.6015
14337.053
19329.466
33973.969
103824.44
102465.48
32116.725
18291.264
13618.672
2048.0348
2020.0428
13414.043
18028.14
31615.665
100914.48
100133.95
31269.764
17833.055
13270.088
1997.29
1983.8097
13212.226
17745.96
31105.759
99800.679
99724.194
31054.705
17723.133
13202.541
1977.133
1974.6561
13212.874
17729.252
31055.126
99748.162
99820.027
31074.424
17744.767
13228.154
1974.1749
1974.6955
13244.023
17762.607
31098.251
99899.576
99992.131
31125.113
17781.241
13259.421
1975.6248
1976.7158
13274.462
17799.557
31150.75
100077.51
100170.45
31177.777
17818.05
13289.233
1977.8141
1978.8736
13303.618
17835.802
31202.573
100252.5
100341.54
31228.58
17853.624
13317.764
1979.8572
1980.7597
13331.485
17870.604
31252.187
100419.2
100504
31276.973
17887.582
13344.916
1981.5667
1982.284
13357.851
17903.625
31299.236
100577.05
100657.4
31322.662
17919.61
13370.43
1982.9017
1983.4293
13382.476
17934.599
31343.473
100725.72
100801.44
31365.426
17949.467
13394.104
1983.859
1984.2068
13405.143
17963.246
31384.594
100864.67
100935.04
31404.822
17976.826
13415.695
1984.4672
1984.6621
13425.66
17989.27
31422.118
100992.24
101056.09
31440.619
18001.551
13435.094
1984.789
1984.8676
13444.093
18012.884
31456.501
101107.73
101167.69
31473.583
18024.049
13452.616
1984.8899
1984.8836
13460.61
18034.116
31487.685
101214.57
101269.38
31503.157
18044.125
13468.195
1984.8477
1984.805
13475.329
18053.124
31515.866
101311.33
101361.88
31529.671
18061.838
13481.848
1984.7519
1984.736
13487.969
18069.347
31539.812
101400.38
101444.78
31551.334
18077.06
13493.805
1984.8062
1984.9764
13499.759
18084.353
31560.963
101476.18
101493.19
31566.588
18087.831
13502.398
1985.2106
102159.72
31663.395
18043.438
13317.818
2178.2214
2177.848
13314.834
18039.683
31657.507
102139.9
102104.61
31648.139
18032.964
13309.532
2177.4564
2177.1511
13303.822
18025.055
31635.204
102058.97
102018.02
31623.619
18016.727
13297.097
2176.9027
2176.7517
13290.745
18007.881
31609.131
101966.72
101921.8
31595.512
17998.308
13283.164
2176.5541
2176.4132
13275.98
17988.395
31579.622
101867.12
101817.66
31564.664
17977.822
13267.6
2176.1996
2176.0825
13259.739
17967.04
31547.603
101759.82
101705.94
31531.272
17955.492
13250.577
2175.8273
2175.5687
13241.631
17943.384
31512.337
101641.52
101581.25
31494.075
17930.486
13231.405
2175.1869
2174.7816
13221.374
17917.031
31473.242
101510.36
101443.6
31452.982
17902.761
13210.058
2174.2393
2173.6645
13198.99
17888.029
31430.377
101367.44
101295.33
31408.415
17872.555
13186.694
2172.9331
2172.1469
13174.638
17856.631
31384.159
101213.89
101136.68
31360.593
17840.034
13161.422
2171.2097
2170.2211
13148.482
17823.052
31334.847
101050.39
100968.3
31309.816
17805.466
13134.458
2169.085
2167.8989
13120.746
17787.559
31282.7
100877.36
100790.6
31256.353
17769.128
13106.013
2166.5933
2165.2897
13091.616
17750.48
31228.126
100695.79
100605.66
31200.807
17731.372
13076.115
2163.9669
2162.8933
13060.688
17712.205
31172.301
100510.36
100425.58
31146.216
17693.01
13043.766
2162.2796
2163.0053
13027.67
17676.292
31124.718
100351.57
100320.76
31121.819
17668.189
13015.321
2166.0953
2174.4207
13025.087
17691.537
31173.825
100393.79
100737.03
31343.987
17783.145
13086.457
2190.591
2216.4622
13242.986
17992.974
31711.609
101608.83
103332.06
32258.651
18288.038
13473.437
2244.9127
2265.5471
13472.924
18296.29
32188.666
102389.59
101560.16
31804.251
18029.164
13245.991
2243.544
2207.6599
13067.186
17782.648
31359.482
100767.58
100520.49
31213.272
17702.497
13013.476
2190.8444
2181.9913
13007.951
17684.792
31169.015
100456.18
100507.1
31177.452
17695.152
13021.256
2178.5902
2177.742
13038.122
17712.579
31198.943
100578.35
100672.65
31226.789
17731.92
13054.608
2178.1985
2179.251
13070.36
17751.071
31254.032
100761.94
100860.84
31283.069
17770.286
13085.452
2180.5286
2181.846
13100.152
17788.843
31309.896
100948.91
101043.59
31337.869
17807.288
13114.388
2183.0971
2184.3083
13128.402
17825.088
31363.503
101127.06
101217.21
31390.216
17842.711
13141.95
2185.4246
2186.4564
13155.238
17859.641
31414.516
101295.63
101381.65
31440.011
17876.428
13168.107
2187.3886
2188.2344
13180.615
17892.401
31462.921
101455.57
101537.06
31486.948
17908.122
13192.592
2188.9759
2189.6257
13204.144
17922.921
31508.212
101605.96
101681.79
31530.431
17937.334
13215.025
2190.1643
2190.6248
13225.478
17950.792
31549.793
101744.74
101814.72
31570.057
17963.807
13235.238
2190.9917
2191.2915
13244.483
17975.731
31587.172
101870.63
101933.23
31605.22
17987.219
13253.013
2191.5087
2191.7208
13261.236
17997.842
31620.408
101982.34
102039.24
31636.876
18008.235
13268.904
2191.8934
2192.0551
13276.356
18017.89
31650.664
102083.26
102136.82
31666.021
18027.454
13283.394
2192.179
2192.2778
13290.147
18036.184
31678.535
102176.94
102226.01
31692.315
18044.648
13296.344
2192.3518
2192.4536
13302.189
18051.949
31702.524
102260.84
102296.26
31711.7
18058.115
13306.85
2192.5681
2192.8081
13310.519
18062.595
31718.055
102318.35
102158.1
31662.906
18043.123
13317.573
2178.1071
2177.7326
13314.647
18039.442
31657.185
102139.7
102105.76
31648.174
18032.927
13309.493
2177.374
2177.1072
13303.948
18025.246
31635.627
102061.15
102020.79
31624.317
18017.116
13297.393
2176.8876
2176.752
13291.045
18008.288
31609.84
101968.94
101923.77
31596.246
17998.748
13283.512
2176.5819
2176.4623
13276.25
17988.747
31580.201
101868.34
101819
31565.272
17978.204
13267.916
2176.2875
2176.1245
13259.803
17967.143
31547.768
101759.11
101704.84
31531.17
17955.444
13250.561
2175.8678
2175.6011
13241.491
17943.197
31512.043
101639.95
101579.99
31493.769
17930.292
13231.275
2175.2228
2174.8178
13221.256
17916.868
31473.011
101509.52
101443.65
31452.959
17902.73
13210.044
2174.2839
2173.7478
13199.106
17888.173
31430.635
101368.49
101297.43
31408.999
17872.921
13186.989
2173.0383
2172.268
13175.049
17857.157
31384.987
101216.54
101140.07
31361.63
17840.726
13161.976
2171.3518
2170.4137
13149.202
17823.942
31336.177
101054.78
100973.3
31311.385
17806.536
13135.325
2169.3041
2168.1385
13121.734
17788.758
31284.45
100882.81
100796.35
31258.238
17770.433
13107.084
2166.8746
2165.5766
13092.664
17751.756
31229.946
100701.04
100610.58
31202.558
17732.61
13077.14
2164.2504
2163.1551
13061.584
17713.282
31173.809
100514.33
100429.58
31147.609
17694.012
13044.614
2162.5422
2163.2289
13028.402
17677.176
31125.992
100355.18
100325.4
31122.919
17669.004
13016.046
2166.2999
2174.5848
13025.881
17692.467
31175.366
100401.07
100744.85
31346.997
17785.025
13087.98
2190.7404
2216.4394
13244.743
17995.203
31717.244
101628.47
103311.45
32266.813
18295.354
13479.634
2244.701
2045.3637
13632.986
18301.705
32094.006
102341.88
100926.15
31645.003
18042.891
13423.755
2021.5502
1997.3564
13270.036
17832.366
31266.139
100109.66
99802.196
31105.44
17745.762
13212.14
1983.8958
1977.3401
13203.245
17723.616
31054.428
99721.361
99757.879
31057.801
17730.817
13214.083
1974.9424
1974.5253
13229.608
17746.316
31076.083
99822.567
99911.012
31101.784
17764.698
13245.593
1975.0579
1975.9953
13261.167
17783.189
31127.321
99996.131
100090.96
31154.787
17802.014
13276.349
1977.0734
1978.1607
13291.099
17820.114
31180.132
100175.59
100266.08
31206.495
17838.149
13305.399
1979.1744
1980.1247
13319.414
17855.437
31230.581
100345.97
100431.72
31255.639
17872.591
13332.959
1980.9681
1981.7381
13346.192
17888.943
31278.344
100506.75
100587.61
31301.984
17905.083
13358.872
1982.3964
1982.9791
13371.226
17920.39
31323.219
100657.66
100733.89
31345.396
17935.458
13383.005
1983.4497
1983.8628
13394.413
17949.634
31365.088
100798.8
100870.04
31385.709
17963.547
13405.223
1984.1887
1984.4495
13415.632
17976.546
31403.767
100929.36
100995.88
31422.921
17989.385
13425.583
1984.6412
1984.7817
13435.003
18001.199
31439.346
101049.19
101110.14
31457.004
18012.836
13443.921
1984.8527
1984.8717
13452.185
18023.259
31471.563
101158.02
101213.93
31487.181
18033.432
13459.928
1984.8373
1984.7843
13467.101
18042.485
31499.826
101256.19
101306.91
31513.785
18051.366
13473.772
1984.708
1984.6431
13479.871
18059.023
31524.605
101345.07
101390.99
31535.68
18066.181
13485.344
1984.6015
1984.6899
13490.878
18072.793
31543.945
101421.42
101450.92
31553.653
18079.779
13496.469
1984.8501
1985.151
13501.144
18085.523
31561.961
101474.86
2193.4035
13310.259
18061.951
31716.751
102310.95
102288.76
31710.158
18057.315
13306.546
2193.0685
2192.8271
13301.742
18051.043
31700.75
102257.48
102224.76
31691.648
18044.219
13296.029
2192.5419
2192.3505
13290.788
18036.783
31679.244
102180.1
102139.8
31667.147
18028.277
13284.009
2192.1269
2191.9532
13277.66
18019.347
31652.536
102089.64
102044.07
31638.661
18009.543
13269.885
2191.71
2191.5233
13262.599
17999.426
31622.428
101988.62
101937.15
31606.855
17988.429
13253.884
2191.2583
2191.0234
13245.632
17977.086
31588.871
101876.32
101818.87
31571.455
17964.821
13235.905
2190.6883
2190.3568
13226.639
17952.216
31551.687
101751.9
101688.15
31532.39
17938.674
13215.902
2189.929
2189.4566
13205.539
17924.719
31510.7
101614.87
101544.92
31489.427
17909.818
13193.73
2188.8205
2188.1321
13182.212
17894.461
31465.773
101465.36
101389.77
31442.659
17878.275
13169.376
2187.2844
2186.3909
13156.906
17861.761
31417.399
101305.31
101224.98
31392.814
17844.549
13143.231
2185.3481
2184.2617
13129.974
17827.089
31366.191
101136
101050.88
31340.27
17809.002
13115.579
2183.0352
2181.7806
13101.603
17790.697
31312.367
100957.17
100867.44
31285.203
17771.817
13086.504
2180.4336
2179.1745
13071.846
17752.916
31256.486
100770.86
100680.59
31229.107
17733.569
13055.769
2178.1323
2177.6951
13039.616
17714.471
31201.492
100588.15
100516.3
31179.637
17696.728
13022.368
2178.5118
2181.9288
13009.409
17686.696
31171.692
100467.91
100533.24
31214.778
17703.652
13014.231
2190.6747
2207.6808
13069.84
17786.68
31366.563
100787.47
101601.94
31805.199
18030.548
13247.173
2243.0983
2267.1737
13485.199
18314.388
32225.941
102564.78
102711.61
32219.379
18289.406
13462.061
2268.6132
2240.7307
13237.519
18014.834
31774.907
101612.21
100805.32
31368.844
17787.493
13070.597
2207.2944
2190.2007
13014.645
17703.711
31214.298
100527.53
100465.6
31170.505
17685.388
13008.243
2181.4856
2178.1695
13021.339
17695.028
31176.473
100505.6
100583.32
31199.11
17712.363
13037.787
2177.361
2177.8748
13054.52
17731.603
31225.544
100669.55
100766.66
31254.382
17750.928
13070.082
2178.9421
2180.2504
13085.411
17770.011
31281.906
100857.35
100953
31310.298
17788.706
13099.861
2181.5699
2182.8556
13114.414
17807.097
31336.83
101039.81
101131.2
31364.096
17825.078
13128.215
2184.0707
2185.2241
13142.136
17842.731
31389.464
101213.62
101301.17
31415.61
17859.947
13155.312
2186.264
2187.2268
13168.487
17876.686
31439.606
101379.01
101462.06
31464.335
17892.896
13180.822
2188.0673
2188.8223
13193.11
17908.545
31486.786
101535.11
101612.73
31509.809
17923.515
13204.397
2189.4442
2189.9811
13215.67
17937.945
31530.553
101680.39
101753.12
31551.876
17951.675
13225.957
2190.3942
2190.7356
13236.107
17964.685
31570.591
101814.57
101880.18
31589.798
17976.933
13245.193
2190.9715
2191.175
13254.325
17988.659
31606.656
101935.14
101995.17
31624.124
17999.684
13262.454
2191.3408
2191.5273
13270.709
18010.278
31639.307
102044.5
102099.82
31655.45
18020.381
13278.139
2191.6971
2191.8977
13285.621
18029.992
31669.232
102144.13
102195.42
31683.945
18039.044
13292.224
2192.0776
2192.2755
13298.748
18047.364
31695.807
102235.49
102281.6
31708.006
18054.939
13304.298
2192.5083
2192.836
13309.555
18061.702
31717.468
102315.18
102330.24
31721.435
18064.159
13311.373
2193.014
171.2891
171.44986
171.28904
171.44957
170.77538
169.99077
169.72057
174.56456
174.64435
169.99088
171.64332
175.57576
174.64436
175.26494
175.31803
173.65139
171.61496
175.50611
177.15391
181.32207
175.27101
173.40185
180.47413
185.77183
175.05147
171.69777
175.9556
178.01227
176.70381
178.70348
177.51789
180.02947
178.24862
182.19813
183.24569
187.17654
179.86069
180.76884
178.99629
177.93068
176.78046
186.17547
189.36428
189.19526
176.25973
175.48347
173.91096
172.49712
185.00793
185.43125
189.07299
188.82941
188.48773
185.10766
172.45773
173.29395
173.28832
164.87643
163.23207
162.85705
162.02836
163.32992
2237.8682
13447.937
18248.352
32192.269
103204.73
101593.46
31704.513
17986.499
13239.517
2215.1522
2191.3838
13088.716
17785.41
31349.634
100726.83
100395.22
31181.711
17694.567
13027.13
2175.6421
2167.3074
13016.796
17670.082
31125.96
100311.57
100349.19
31128.992
17677.72
13028.426
2164.0775
2163.2898
13044.584
17693.929
31147.991
100415.92
100508.79
31174.958
17712.998
13061.086
2163.7611
2164.7705
13076.668
17731.799
31201.387
100596.78
100694.85
31229.816
17750.809
13091.706
2165.9897
2167.2508
13106.259
17769.126
31256.093
100782.04
100876.49
31283.618
17787.439
13120.504
2168.4681
2169.6037
13134.343
17804.984
31308.712
100958.85
101048.91
31335.114
17822.536
13147.936
2170.6739
2171.6506
13161.058
17839.233
31358.96
101126.58
101212.47
31384.086
17855.884
13173.912
2172.5369
2173.3217
13186.152
17871.491
31406.366
101285.06
101365.3
31429.82
17886.934
13197.981
2174.0047
2174.5902
13209.263
17901.396
31450.489
101432.51
101508.12
31472.351
17915.671
13220.139
2175.0937
2175.5052
13230.331
17928.769
31491.106
101569.51
101638.37
31510.914
17941.574
13239.99
2175.826
2176.0892
13249.087
17953.298
31527.683
101693.23
101755.7
31545.593
17964.774
13257.675
2176.2881
2176.4729
13265.85
17975.325
31560.642
101804.48
101861.94
31577.123
17985.807
13273.656
2176.6358
2176.7913
13281.13
17995.464
31590.862
101905.86
101959.77
31606.271
18005.178
13288.375
2176.9422
2177.0936
13295.26
18013.989
31618.765
101999.87
102049.36
31632.73
18022.716
13301.738
2177.2498
2177.442
13307.972
18030.448
31643.421
102085.85
102123.89
31653.615
18037.318
13313.21
2177.6761
2178.0256
13317.102
18042.102
31660.461
102147.91
102106.42
31646.699
18032.439
13309.337
2177.5204
2177.2976
13306.12
18028.416
31640.739
102086.54
102051.83
31631.365
18021.587
13300.711
2177.028
2176.8695
13295.477
18014.316
31619.48
102005.21
101964
31607.731
18006.072
13288.912
2176.6796
2176.5671
13282.765
17997.381
31593.439
101913.8
101869.35
31580.215
17988.028
13275.338
2176.4385
2176.342
13268.279
17978.235
31564.489
101814.33
101764.16
31549.415
17967.612
13259.876
2176.1503
2176.0064
13251.694
17956.378
31531.632
101704.3
101648.56
31514.386
17944.204
13242.049
2175.7091
2175.4167
13232.703
17931.604
31494.794
101581.53
101518.23
31475.922
17918.259
13222.077
2175.0005
2174.558
13211.637
17904.295
31454.38
101444.76
101375.59
31433.425
17889.529
13199.894
2173.9694
2173.3414
13188.511
17874.377
31410.245
101297.38
101223.6
31387.846
17858.568
13175.899
2172.603
2171.7736
13163.486
17842.226
31363.013
101139.54
101059.85
31338.9
17825.253
13149.964
2170.7803
2169.7405
13136.69
17807.862
31312.562
100970.71
100885.66
31286.999
17789.906
13122.343
2168.5486
2167.3839
13108.424
17771.757
31259.562
100792.63
100703.61
31233.031
17753.154
13093.454
2166.0981
2164.8787
13078.648
17734.247
31204.609
100606.23
100516.6
31177.901
17715.134
13062.656
2163.8311
2163.3879
13046.558
17696.351
31151.249
100426.08
100359.11
31132.261
17679.985
13030.067
2164.1665
2167.5003
13018.799
17672.694
31129.813
100326.35
100414.01
31186.093
17697.04
13028.563
2176.0138
2192.6997
13091.473
17790.667
31360.078
100762.6
101666.39
31723.39
17994.425
13242.104
2218.2589
2246.9669
13472.226
18294.394
32273.163
103368.24
105401.49
33327.573
18884.766
13911.496
2310.8222
2253.0595
13212.325
18073.462
32184.421
106557.04
102273.24
32120.21
18259.937
13445.507
2256.1544
2241.5289
13238.454
18017.995
31789.017
101549.53
100778.99
31360.464
17781.431
13066.335
2207.2526
2191.2913
13014.454
17703.922
31217.473
100526.32
100468.48
31173.885
17686.278
13008.71
2182.549
2179.1831
13021.97
17696.231
31180.119
100507.46
100585.24
31202.296
17713.582
13038.572
2178.268
2178.6542
13054.923
17732.302
31227.672
100668.57
100764.32
31255.796
17751.339
13070.32
2179.5905
2180.8053
13085.345
17770.025
31282.561
100852.88
100948.46
31310.633
17788.626
13099.769
2182.0925
2183.3506
13114.081
17806.783
31336.757
101033.97
101127.15
31364.152
17824.925
13128.106
2184.5347
2185.6426
13141.755
17842.288
31389.055
101208.18
101296.61
31415.176
17859.531
13155.008
2186.6574
2187.5957
13167.91
17876.015
31438.809
101373.17
101457.72
31463.696
17892.36
13180.424
2188.4173
2189.1437
13192.423
17907.755
31485.792
101529.25
101609
31509.108
17922.949
13203.97
2189.7655
2190.2978
13214.957
17937.122
31529.519
101675.21
101749.44
31551.044
17950.999
13225.425
2190.7346
2191.0892
13235.246
17963.701
31569.342
101809
101875.94
31588.647
17976.03
13244.456
2191.3579
2191.5656
13253.153
17987.313
31604.869
101928.57
101989.24
31622.287
17998.324
13261.333
2191.7088
2191.8252
13269.045
18008.312
31636.59
102035.64
102090.17
31652.147
18018.044
13276.203
2191.91
2191.9833
13283.095
18026.98
31664.905
102131
102181.69
31679.263
18035.864
13289.633
2192.0468
2192.1273
13295.879
18043.861
31690.699
102219.44
102266.97
31703.046
18051.276
13301.263
2192.2138
2192.368
13305.846
18056.588
31709.756
102304.95
102322.74
31703.251
18056.166
13306.891
2192.577
102103.25
31646.932
18032.476
13309.318
2177.4293
2177.2518
13306.344
18028.721
31641.174
102081.49
102045.21
31631.418
18021.815
13300.949
2177.0025
2176.7947
13295.294
18013.858
31618.303
102000.04
101961.33
31606.287
18005.276
13288.414
2176.5874
2176.4565
13282.056
17996.452
31592.077
101913.13
101870.54
31579.031
17987.127
13274.602
2176.3227
2176.2107
13267.365
17977.205
31563.217
101816.28
101767.53
31548.375
17966.641
13258.978
2176.0348
2175.9292
13251.055
17955.927
31531.593
101705.62
101647.61
31514.918
17944.279
13241.882
2175.7176
2175.4634
13232.643
17931.753
31495.143
101577.71
101514.37
31475.259
17917.951
13221.833
2175.0216
2174.5436
13211.302
17903.843
31453.587
101441.98
101373.98
31432.912
17889.185
13199.632
2173.9973
2173.4067
13188.308
17874.167
31410.012
101296.61
101223.26
31387.821
17858.498
13175.836
2172.6707
2171.8401
13163.408
17842.165
31363.01
101138.84
101058.75
31338.837
17825.17
13149.892
2170.8447
2169.7886
13136.485
17807.645
31312.331
100968.73
100883.62
31286.675
17789.623
13122.107
2168.5959
2167.4306
13108.073
17771.374
31259.154
100790.07
100701.26
31232.648
17752.761
13093.113
2166.1528
2164.9461
13078.285
17733.871
31204.346
100604.17
100515.26
31177.803
17714.836
13062.362
2163.9077
2163.5133
13046.364
17696.213
31151.496
100425.96
100360.29
31132.736
17679.963
13029.977
2164.2999
2167.6093
13018.772
17672.807
31130.683
100328.74
100418.72
31186.571
17696.884
13028.385
2175.9984
2192.3471
13090.679
17789.619
31359.283
100770.26
101671.79
31718.947
17991.083
13239.572
2217.3755
2245.3522
13466.155
18286.727
32260.923
103347.98
105380.73
33249.961
18835.716
13875.409
2303.2863
2126.2288
14165.878
19086.296
33592.503
103924.36
105779.74
32565.139
18407.235
13565.915
2282.55
2259.8976
13557.433
18401.082
32594.478
106167.26
103161.73
32215.324
18265.175
13459.802
2239.8563
2215.3585
13240.523
17987.641
31705.694
101599.02
100729.2
31352.362
17787.317
13090.015
2191.2959
2175.1894
13026.733
17693.627
31178.675
100389.29
100313.38
31125.373
17669.829
13016.607
2166.904
2163.7241
13028.215
17677.14
31126.904
100342.99
100419.06
31147.913
17693.777
13044.423
2162.9826
2163.4834
13060.925
17712.54
31173.322
100503.37
100599.99
31201.53
17731.659
13076.448
2164.5059
2165.7562
13091.632
17750.505
31228.52
100689.91
100786.43
31256.676
17769.218
13106.216
2167.0313
2168.274
13120.589
17787.356
31282.704
100872.5
100964.55
31309.7
17805.28
13134.457
2169.4298
2170.5069
13148.07
17822.493
31334.302
101045.41
101131.71
31359.755
17839.376
13161.057
2171.4766
2172.3703
13173.885
17855.651
31382.973
101207.54
101289.72
31407.157
17871.621
13186.126
2173.1589
2173.8684
13198.08
17886.817
31428.839
101360.63
101437.34
31451.369
17901.588
13209.303
2174.4702
2175.0004
13220.303
17915.657
31471.483
101502.99
101575.35
31492.506
17929.318
13230.636
2175.4304
2175.7889
13240.565
17942.046
31510.725
101635.1
101701.01
31529.758
17954.278
13249.723
2176.0614
2176.2888
13258.587
17965.644
31546.004
101754.41
101813.9
31563.169
17976.574
13266.696
2176.457
2176.638
13274.726
17986.851
31577.804
101861.65
101916.13
31593.55
17996.817
13282.084
2176.803
2176.9863
13289.521
18006.34
31607.043
101959.38
102011.55
31622.078
18015.802
13296.545
2177.17
2177.3836
13303.531
18024.669
31634.632
102052.26
102101.7
31648.27
18033.108
13309.726
2177.6139
2177.8886
13315.229
18040.078
31657.925
102139.83
102158.81
31662.924
18043.213
13317.616
2178.1636
1985.7169
13502.383
18087.02
31564.343
101487.49
101467.13
31558.59
18082.91
13498.999
1985.5404
1985.337
13493.931
18076.564
31549.26
101430.4
101392.87
31538.757
18068.827
13487.441
1985.1398
1985.0162
13481.233
18060.435
31525.449
101345.6
101303.72
31513.03
18051.392
13473.816
1984.9093
1984.8784
13466.995
18042.195
31498.698
101253.92
101209.1
31485.345
18032.424
13459.012
1984.8216
1984.8501
13451.63
18022.504
31470.07
101156.47
101107.12
31455.45
18011.844
13442.957
1984.7898
1984.7214
13434.541
18000.65
31438.349
101047.66
100991.56
31421.722
17988.589
13424.755
1984.5637
1984.3747
13415.182
17975.98
31402.676
100925.94
100863.76
31384.111
17962.53
13404.259
1984.0742
1983.7455
13393.646
17948.678
31363.425
100793.16
100726.17
31343.33
17934.091
13381.767
1983.3023
1982.7956
13370.338
17919.249
31321.334
100651.45
100580.08
31299.931
17903.693
13357.61
1982.2233
1981.577
13345.316
17887.861
31276.615
100500.89
100424.83
31253.886
17871.364
13331.812
1980.8179
1979.9775
13318.579
17854.456
31229.048
100340.06
100258.22
31204.717
17836.886
13304.207
1979.0058
1977.9996
13290.149
17819.013
31178.483
100168.35
100082.08
31152.974
17800.653
13275.054
1976.9193
1975.8913
13260.416
17782.3
31126.113
99989.758
99903.619
31100.812
17763.793
13244.636
1975.0398
1974.6195
13229.105
17745.86
31075.784
99816.713
99751.53
31057.951
17730.397
13213.447
1975.1628
1977.7059
13203.172
17723.795
31055.634
99716.546
99797.596
31108.099
17746.407
13212.279
1984.4068
1997.49
13269.536
17831.617
31265.826
100093.99
100902.11
31637.267
18036.571
13419.118
2021.1455
2042.8416
13612.846
18272.798
32042.312
102165.92
2126.7722
14275.229
19225.984
33745.688
103141.19
102341.45
32078.016
18271.583
13605.185
2040.7207
2018.3803
13411.248
18023.225
31610.98
100902.57
100142.1
31277.447
17835.707
13272.1
1997.8263
1984.7956
13214.689
17749.646
31114.702
99809.987
99729.468
31061.584
17726.045
13204.404
1978.1033
1975.532
13214.419
17731.59
31060.46
99751.507
99820.28
31078.329
17746.48
13229.239
1974.9361
1975.3603
13245.037
17764.12
31101.462
99899.418
99991.778
31127.824
17782.596
13260.362
1976.2023
1977.2204
13275.42
17800.829
31153.126
100077.75
100170.06
31179.65
17819.06
13289.971
1978.2481
1979.2428
13304.337
17836.694
31204.171
100252.6
100340.14
31229.599
17854.159
13318.152
1980.1431
1980.9946
13331.861
17871.04
31253.009
100418.25
100501.53
31277.282
17887.67
13344.948
1981.7464
1982.4263
13357.863
17903.64
31299.409
100574.98
100654.31
31322.422
17919.323
13370.165
1983.0016
1983.4882
13382.104
17934.118
31342.947
100722.6
100796.09
31364.228
17948.514
13393.289
1983.8614
1984.1826
13404.201
17962.08
31383.082
100859
100927.23
31402.687
17975.213
13414.324
1984.4118
1984.5847
13424.158
17987.501
31419.792
100984.19
101047.44
31437.813
17999.46
13433.333
1984.6925
1984.771
13442.18
18010.516
31453.202
101098.82
101156.31
31469.619
18021.298
13450.378
1984.8102
1984.8456
13458.436
18031.39
31483.638
101202.52
101256.06
31498.931
18041.372
13466.024
1984.8646
1984.9013
13473.468
18050.659
31511.794
101297.9
101347.86
31526.104
18059.926
13480.487
1984.9415
1985.0189
13487.418
18068.521
31538.016
101387.13
101434.39
31550.905
18076.746
13493.583
1985.1091
1985.2415
13499.015
18083.515
31559.997
101470.63
101488.4
31564.769
18086.588
13501.435
1985.3923
102318.74