/*--------------------------------*- C++ -*----------------------------------*\
  =========                 |
  \\      /  F ield         | OpenFOAM: The Open Source CFD Toolbox
   \\    /   O peration     | Website:  https://openfoam.org
    \\  /    A nd           | Version:  7
     \\/     M anipulation  |
\*---------------------------------------------------------------------------*/
FoamFile
{
    version     2.0;
    format      ascii;
    class       volScalarField;
    location    "80";
    object      alphat;
}
// * * * * * * * * * * * * * * * * * * * * * * * * * * * * * * * * * * * * * //

dimensions      [1 -1 -1 0 0 0 0];

internalField   nonuniform List<scalar> 
24866
(
9.3765074
9.3845197
9.3807902
9.6004274
9.7936166
9.79106
9.7862925
9.7912976
9.7904396
9.7847302
9.7850359
9.7850789
9.7847577
9.7904792
9.7913948
9.7862749
9.7908545
9.7923736
9.791362
9.7860486
9.7742542
9.7911731
9.8269501
9.8121484
9.7819462
9.7773095
9.7865238
9.8147165
9.8091448
9.7780092
9.7887845
9.7923858
9.792387
9.7887943
9.778065
9.8092006
9.8148426
9.7866321
9.7771827
9.7817427
9.8120695
9.8268971
9.7911619
9.7742572
9.7860778
9.7914208
9.7923971
9.7909427
9.7862859
9.7913049
9.7905769
9.784871
9.7850329
9.78505
9.7848277
9.7904377
9.7911581
9.786156
9.7910177
9.7936723
9.7982037
9.7944087
9.7981937
9.7943385
9.7870271
9.7902452
9.7970901
9.7931195
9.7842121
9.7841981
9.7842268
9.7842165
9.79318
9.7971475
9.7902538
9.7868735
9.7937415
9.7969767
9.7928495
9.7941719
9.7880155
9.7790016
9.777065
9.7896875
9.7940125
9.8001887
9.7821114
9.7774918
9.7865398
9.8007434
9.7939174
9.788407
9.7872185
9.7881539
9.7862224
9.783141
9.7861195
9.784894
9.7891101
9.7862704
9.7836954
9.7833055
9.7833621
9.7841072
9.7849433
9.7849459
9.7847341
9.7880882
9.7869937
9.7866385
9.7826682
9.7909259
9.7956187
9.7930195
9.7881915
9.7854535
9.7844515
9.7838607
9.7842743
9.7846471
9.784565
9.7839574
9.7844249
9.7835307
9.7829773
9.783719
9.7860669
9.7831871
9.7823602
9.7826355
9.7836878
9.7847159
9.7853276
9.7850289
9.785133
9.7847693
9.7842784
9.78474
9.7844542
9.7869982
9.788195
9.7826776
9.7909297
9.7956209
9.6719402
9.668036
9.5853777
9.5916189
9.5995459
9.5995422
9.5916091
9.5888815
9.5520682
9.6985242
9.7016813
9.5595907
9.5887911
9.591053
9.5841236
9.5536174
9.5050613
9.5228849
9.576734
9.5898126
9.5981995
9.597697
9.5967253
9.5943593
9.5933592
9.5902139
9.5877455
9.5784435
9.5783971
9.5877313
9.5901022
9.5930495
9.5948331
9.5964064
9.5883341
9.5973118
9.6738763
9.6718563
9.5885334
9.5128731
9.5986567
9.6006407
9.5910973
9.7897161
9.7858161
9.7897243
9.7863277
9.7836547
9.786013
9.7831602
9.7823263
9.7825869
9.783613
9.7846102
9.7852026
9.7853332
9.7854541
9.7851385
9.7846564
9.7849565
9.7872276
9.7880941
9.7939301
9.7866508
9.5914369
9.6026869
9.6287386
9.6985915
9.5520138
9.5888579
9.3926105
9.3782773
9.3802848
9.3802804
9.378268
9.3926216
9.3523199
9.3515282
9.3741751
9.3988374
9.3733799
9.3465054
9.3303613
9.3497331
9.3798157
9.3776932
9.3791225
9.3777537
9.384793
9.3982182
9.3781443
9.3751973
9.3927235
9.3823364
9.3824055
9.3928314
9.3751692
9.3778485
9.3987513
9.2054367
9.1939614
9.1866818
9.1869566
9.1936514
9.3841776
9.5961073
9.5949633
9.5928564
9.5901974
9.5877235
9.5784169
9.5784215
9.587886
9.5899319
9.5935202
9.5943753
9.5969845
9.5976216
9.5983702
9.5897849
9.5767808
9.522941
9.661987
9.7157118
9.7007194
9.553733
9.5842818
9.5911699
9.588632
9.5593362
9.7017201
9.6365409
9.5596713
9.5561057
9.5110554
9.5890209
9.5838727
9.6213775
9.6668894
9.8007973
9.7865806
9.7774677
9.7884132
9.7940004
9.7881644
9.7849589
9.78458
9.78504
9.7844408
9.7847258
9.7846146
9.7841004
9.7833376
9.7828783
9.7837669
9.7831397
9.7833408
9.7836209
9.7837008
9.7835497
9.7833301
9.7839778
9.7841287
9.7862396
9.789682
9.7770765
9.7831703
9.7833907
9.7849277
9.783724
9.7829977
9.7826505
9.7825983
9.782884
9.7837666
9.786321
9.783664
9.7823409
9.7823781
9.7837391
9.7863033
9.7891548
9.7928822
9.7861564
9.7790397
9.7880648
9.7942166
9.6701357
9.5939966
9.5819207
9.6656026
9.5841741
9.5947871
9.5083419
9.3742213
9.3776511
9.379871
9.3497818
9.3303959
9.5052378
9.5358602
9.5477805
9.6073725
9.6168677
9.6288775
9.5868204
9.5084854
9.5512373
9.3547702
9.346536
9.373399
9.3988619
9.3741554
9.351524
9.3523415
9.1713234
9.1993799
9.1874607
9.1863398
9.186336
9.1874548
9.1993923
9.1713108
9.1654269
9.1819218
9.2084007
9.1813966
9.1588504
9.1565203
9.1786485
9.1905183
9.186567
9.1849214
9.1839975
9.1941452
9.2049283
9.1880441
9.1848371
9.2040651
9.1977952
9.1977557
9.2040872
9.1848726
9.1878363
9.0165145
9.0293123
9.0220075
9.0146567
9.014867
9.0217508
9.029446
9.2055953
9.3989026
9.3776702
9.3753416
9.3926185
9.3823478
9.3824737
9.3929125
9.3750737
9.3783828
9.3981229
9.3850906
9.3776616
9.3793183
9.1850818
9.1865176
9.1905672
9.178701
9.1565426
9.1588806
9.1814361
9.2084395
9.1818811
9.1653973
8.9991333
9.0057991
9.023846
9.0158872
9.0142194
9.0142159
9.0158831
9.0238563
9.0057887
8.9991588
9.0104738
9.0341996
9.0093755
8.991109
8.9949776
9.0155388
9.0178409
9.0148158
9.0126594
9.0122461
9.0219716
9.0288102
9.0166308
9.0139186
9.030004
9.0261251
9.0261507
9.0301158
9.0139987
8.8586198
8.8605
8.8690258
8.8651156
8.8587251
8.8588768
8.8649139
8.8691259
8.8603668
8.8586329
9.0140682
9.1849942
9.203934
9.197819
9.1978338
9.204108
9.1847839
9.1883147
9.2048144
9.1944113
9.1839122
9.0121771
9.0127778
9.0147664
9.0178775
9.0155866
8.9949876
8.9911319
9.0094158
9.0342395
9.0104361
8.8551238
8.8474435
8.8536703
8.864458
8.8596906
8.8581372
8.8581333
8.8596874
8.8644655
8.8536628
8.8474658
8.855157
8.8748491
8.8532564
8.8386573
8.8452711
8.8631895
8.860693
8.8585316
8.8565551
8.8564965
8.864842
8.8685182
8.8605232
8.8584924
8.8707676
8.8684826
8.8685401
8.8709309
8.7261674
8.7171852
8.7184593
8.7237486
8.7221411
8.7170393
8.7171443
8.7219859
8.7238159
8.7183362
8.7171448
8.7258739
8.8706539
9.0298813
9.0261547
9.0262248
9.0300946
9.0139191
9.0169
9.0287074
9.0221868
8.865008
8.8564438
8.8566362
8.8584852
8.8607175
8.8632295
8.8452744
8.8386746
8.8532958
8.874888
8.7297676
8.714144
8.708947
8.7142561
8.7201211
8.717529
8.7163343
8.7163302
8.7175259
8.7201258
8.714251
8.7089666
8.7141723
8.7297313
8.7115253
8.7000605
8.7075364
8.7226241
8.7180353
8.7163931
8.7147872
8.7149384
8.7216581
8.7232243
8.718396
8.7170203
8.7259723
8.7247276
8.7248052
8.5938993
8.5946479
8.5882638
8.5890311
8.5920508
8.5918718
8.5880486
8.5881191
8.5917525
8.5920896
8.5889139
8.5881791
8.5943519
8.5938201
8.7247445
8.8685086
8.8686006
8.87089
8.858541
8.8607787
8.868445
8.723183
8.7217845
8.7148994
8.7148392
8.7163508
8.7180493
8.7226556
8.707536
8.7000739
8.7115626
8.5827118
8.5977964
8.5858717
8.5823752
8.5866294
8.5892839
8.5880598
8.587277
8.587273
8.5880565
8.589286
8.5866263
8.5823924
8.5858951
8.5977632
8.5826772
8.5738077
8.5812052
8.5936462
8.5883867
8.5870155
8.5857873
8.5860437
8.5912174
8.5915011
8.5888891
8.5880685
8.5944334
8.5938099
8.4741379
8.474233
8.4746501
8.4701897
8.4705578
8.4720592
8.4727065
8.4700025
8.4700486
8.4726134
8.4720746
8.470443
8.4700714
8.4743596
8.4741434
8.474255
8.5939308
8.7248493
8.7261159
8.7171087
8.7186351
8.5891126
8.5914888
8.5913144
8.5860154
8.585818
8.5869772
8.5883924
8.5936696
8.5812029
8.5738182
8.4581842
8.4649758
8.4773654
8.4685164
8.4661864
8.4694189
8.4700385
8.4696222
8.4692112
8.4692074
8.4696186
8.4700386
8.4694172
8.4662014
8.4685355
8.4773354
8.4649441
8.4581757
8.4650716
8.4751892
8.4699509
8.4687047
8.4677882
8.4680778
8.4719176
8.4714793
8.4703452
8.4699686
8.4744246
8.3641753
8.3640514
8.3641499
8.3644093
8.3613297
8.3613932
8.3619161
8.3629945
8.3612045
8.3612335
8.36292
8.3619126
8.3612784
8.3611863
8.3641271
8.3640533
8.3641625
8.3643437
8.4745882
8.5945898
8.5881884
8.4701119
8.4705552
8.4714911
8.4719942
8.4680577
8.467804
8.46867
8.4699502
8.4752054
8.4650681
8.3577394
8.3515202
8.3566325
8.366767
8.3603733
8.358841
8.3611609
8.3605285
8.3605489
8.3604332
8.3604295
8.360545
8.360527
8.36116
8.3588539
8.3603885
8.3667399
8.3566037
8.3515131
8.3577436
8.3658872
8.3609791
8.3597742
8.3590826
8.3593563
8.3621055
8.3613047
8.3611182
8.3610849
8.2600293
8.262167
8.2621066
8.2622069
8.2624071
8.260296
8.260134
8.2600529
8.2613087
8.2602303
8.2602473
8.2612469
8.2600343
8.2600177
8.2601347
8.2621347
8.262106
8.2622107
8.2623377
8.2602004
8.3612448
8.3613171
8.3613359
8.3621684
8.3593423
8.3590883
8.3597424
8.3609735
8.3658973
8.2644614
8.2579538
8.2524385
8.2562227
8.2644994
8.2600138
8.2590215
8.2605656
8.2591964
8.2594132
8.2595098
8.2595064
8.259409
8.2591937
8.2605652
8.2590326
8.2600258
8.2644752
8.2561966
8.2524326
8.2579585
8.2644566
8.2599963
8.2587847
8.2582359
8.2584618
8.2603493
8.2594118
8.2598049
8.1652983
8.1657094
8.1671982
8.1671507
8.1672517
8.1674429
8.1659962
8.1656737
8.1652426
8.1665164
8.1659706
8.1659794
8.1664633
8.1652119
8.165555
8.1658225
8.1671809
8.1671487
8.1672474
8.1673693
8.1658875
8.1654809
8.2599949
8.2594583
8.2604034
8.2584523
8.2582347
8.2587551
8.2599868
8.1658328
8.1698337
8.1646839
8.1598524
8.1625956
8.1693541
8.1663215
8.1656875
8.166596
8.1648272
8.1650891
8.1653227
8.1653194
8.1650847
8.1648236
8.1665958
8.165697
8.1663308
8.1693324
8.162572
8.1598475
8.1646892
8.1698331
8.1658454
8.1646007
8.1641277
8.1642872
8.1655115
8.1645753
8.075856
8.0767427
8.0772831
8.0783418
8.0782857
8.0783867
8.0785899
8.0775883
8.0771575
8.0765454
8.0777414
8.0775793
8.0775824
8.0776938
8.0765049
8.077036
8.0774066
8.0783385
8.0782831
8.0783753
8.0785117
8.0774651
8.0769191
8.0759232
8.1646335
8.16556
8.1642812
8.1641219
8.1645728
8.0763215
8.0776233
8.0811693
8.0771257
8.0729302
8.0748646
8.0803874
8.0784416
8.0780383
8.0784423
8.0764924
8.0767086
8.0770173
8.0770143
8.076704
8.0764882
8.0784422
8.0780462
8.0784487
8.0803679
8.0748434
8.0729261
8.0771315
8.0811724
8.0776383
8.0763482
8.0759012
8.0759858
8.0767108
7.9932572
7.9925267
7.9934694
7.994094
7.9948777
7.9948088
7.9949094
7.9951284
7.9944159
7.9939171
7.9932339
7.9942981
7.9944009
7.9944
7.994254
7.9931854
7.993793
7.9942296
7.9948875
7.9948064
7.9948916
7.9950452
7.9942774
7.9936405
7.9926005
7.9933005
8.0767559
8.0759823
8.0758924
7.9928817
7.9933218
7.99467
7.9977986
7.9946489
7.9910311
7.9923438
7.9968624
7.9957143
7.9954521
7.9954673
7.9934755
7.9935952
7.9939318
7.9939289
7.9935906
7.993471
7.9954673
7.9954587
7.9957197
7.9968451
7.9923251
7.991028
7.9946555
7.997805
7.9946871
7.9933478
7.9928926
7.9929004
7.9145003
7.9145911
7.9140043
7.9149351
7.9156094
7.9162266
7.9161501
7.9162499
7.9164793
7.9159461
7.9154101
7.914725
7.9156301
7.9159065
7.9159027
7.9155879
7.91467
7.9152838
7.9157578
7.9162488
7.9161483
7.9162264
7.9163909
7.9157924
7.9151014
7.914083
7.9146333
7.9145001
7.9928988
7.9970495
8.0007014
7.9971516
7.9981362
8.0001563
7.9989232
7.9995621
8.0001052
8.0009426
8.001013
7.9994074
7.9207184
7.9174262
7.9171508
7.9152038
7.9152017
7.9155325
7.9155298
7.9151973
7.9151994
7.9171512
7.9174324
7.9176151
7.9181712
7.9144677
7.9136407
7.9167507
7.9191842
7.9164391
7.9150511
7.9145667
7.8404719
7.8403367
7.8402391
7.8398013
7.8406795
7.8413778
7.8419035
7.8418282
7.8419269
7.8421573
7.841727
7.8411763
7.8405312
7.8412667
7.8416485
7.8416428
7.8412258
7.8404711
7.8410485
7.8415388
7.8419369
7.8418274
7.8418985
7.8420636
7.8415588
7.8408412
7.8398835
7.8402808
7.8403374
7.8404583
7.9145542
7.9150254
7.91642
7.9191748
7.9167429
7.9136424
7.9144836
7.918186
7.9176105
7.8436856
7.8435354
7.8430497
7.8411991
7.8410661
7.8413687
7.8413665
7.8410625
7.8411959
7.8430516
7.8435427
7.8436915
7.8438507
7.8408116
7.8403356
7.8429858
7.8448467
7.842431
7.840997
7.7707871
7.7702165
7.770019
7.7697911
7.7694999
7.7703025
7.7710066
7.7714928
7.7714295
7.7715269
7.7717471
7.771366
7.7708164
7.7702348
7.7707996
7.7712374
7.7712302
7.7707594
7.7701707
7.7706877
7.7711796
7.7715365
7.77143
7.7714943
7.771648
7.7711843
7.7704596
7.769584
7.7698321
7.7700199
7.7702008
7.7707589
7.840971
7.8424094
7.8448336
7.8429753
7.840334
7.840823
7.8438612
7.7734641
7.7735564
7.7734087
7.7727767
7.7710515
7.7707873
7.7710487
7.7710474
7.7707861
7.7710521
7.7727837
7.7734219
7.7735687
7.7734628
7.7709656
7.7707454
7.7729878
7.7743915
7.7722644
7.7055881
7.7040667
7.70345
7.703197
7.7028811
7.7027321
7.7034474
7.704145
7.70463
7.7045907
7.7046867
7.7048839
7.7045123
7.7039737
7.7034676
7.7038639
7.7043227
7.7043144
7.7038242
7.7034006
7.7038449
7.7043291
7.704683
7.7045927
7.7046503
7.7047796
7.7043182
7.7035994
7.7028166
7.7029204
7.7031959
7.7034298
7.7040322
7.7055518
7.7722382
7.7743717
7.7729704
7.770736
7.7709677
7.7045707
7.7066236
7.7068827
7.7067128
7.7059843
7.7043994
7.7040072
7.7042215
7.7042221
7.7040121
7.7044098
7.7060052
7.706743
7.706914
7.7066443
7.7045903
7.7045488
7.706426
7.7074638
7.6437388
7.6420802
7.6405072
7.6398448
7.6395419
7.6391681
7.6391593
7.6397816
7.6404649
7.64098
7.6409785
7.6410728
7.6412328
7.6408378
7.6403158
7.6398909
7.6401189
7.6405746
7.6405656
7.6400796
7.6398219
7.640188
7.6406588
7.6410415
7.6409819
7.6410332
7.6411235
7.6406325
7.6399281
7.6392422
7.6392036
7.6395354
7.6398147
7.6404575
7.642021
7.6436724
7.7074297
7.7063915
7.7045202
7.64138
7.6413119
7.6430001
7.6433474
7.6431325
7.6423462
7.6409088
7.6403907
7.6405577
7.6405632
7.6404103
7.6409431
7.642401
7.6432053
7.643426
7.6430719
7.6413817
7.6414544
7.6429972
7.5824129
7.5829074
7.5814323
7.5797889
7.5790794
7.5787295
7.5783175
7.5784522
7.5789788
7.579643
7.5802178
7.5802689
7.5803614
7.5804688
7.5800193
7.5795168
7.5791752
7.5792295
7.5796658
7.5796565
7.5791908
7.5791053
7.5793906
7.5798454
7.5802867
7.5802742
7.5803192
7.5803548
7.5798043
7.579119
7.5785315
7.5783458
7.5787107
7.5790282
7.5797059
7.5813238
7.582771
7.5822483
7.6429221
7.6461247
7.6473271
7.6481552
7.6487522
7.6480581
7.6458599
7.5853619
7.5823537
7.5815395
7.5802538
7.579608
7.5797329
7.5797489
7.5796601
7.5803413
7.5816703
7.5825228
7.5828224
7.5824487
7.5810577
7.5811883
7.5235003
7.5244048
7.5246787
7.523349
7.5215991
7.5208338
7.520435
7.5199965
7.5202865
7.520715
7.5213583
7.5220251
7.5221464
7.522237
7.5222743
7.5217368
7.5212533
7.5209959
7.5208617
7.5212668
7.5212573
7.5208235
7.5209257
7.5211294
7.5215684
7.5221014
7.5221539
7.5221929
7.5221561
7.5215134
7.5208486
7.5203597
7.5200123
7.5203924
7.520741
7.5214485
7.523141
7.5244009
7.5240573
7.5231179
7.5810126
7.5808778
7.5822641
7.5826373
7.524443
7.5240617
7.5232419
7.5221119
7.5213295
7.5214221
7.5214595
7.5214483
7.5223085
7.5235287
7.5244289
7.5248461
7.5245086
7.5233645
7.4681008
7.4681876
7.4687478
7.4688002
7.4675664
7.4656488
7.4648065
7.4643489
7.4638889
7.4643564
7.4646838
7.4653086
7.4661066
7.4663177
7.4664065
7.4663533
7.4656883
7.4652205
7.465048
7.4646978
7.4650619
7.4650522
7.46466
7.4649777
7.465099
7.465526
7.4661903
7.4663287
7.4663617
7.4662316
7.4654578
7.4648111
7.4644214
7.4638842
7.4642643
7.4646381
7.4653726
7.4671728
7.4682567
7.4680548
7.4674152
7.4672767
7.522961
7.5240956
7.4681987
7.4684745
7.4679589
7.4671486
7.46618
7.4652422
7.4653163
7.4653939
7.4654858
7.4665806
7.4677292
7.4686997
7.4692888
7.4690414
7.415935
7.4151628
7.4151441
7.4153129
7.4151098
7.4139005
7.4117245
7.410765
7.4102289
7.4097473
7.4104243
7.4106485
7.4112618
7.4122364
7.4125608
7.4126485
7.4124825
7.4116443
7.4111842
7.4110969
7.4104921
7.4108047
7.4107949
7.4104543
7.411026
7.4110651
7.4114881
7.4123285
7.4125758
7.4126029
7.4123569
7.4114065
7.4107705
7.4104793
7.4097133
7.4100785
7.4104729
7.4112365
7.4131889
7.4141074
7.4140214
7.4136965
7.4136131
7.4143532
7.4145164
7.4138213
7.4130268
7.4122239
7.4111028
7.4111739
7.4113197
7.4115582
7.4129731
7.4141132
7.4152066
7.4160388
7.3651792
7.365272
7.3646385
7.3644579
7.3641737
7.3636421
7.362346
7.3597971
7.3586606
7.3580151
7.3575113
7.3584309
7.3585568
7.359175
7.3603709
7.3608309
7.3609197
7.3606203
7.3595657
7.3590977
7.3590907
7.3581927
7.3584417
7.3584313
7.3581539
7.3590183
7.3589794
7.3594137
7.3604735
7.36085
7.3608707
7.3604887
7.3593175
7.3586765
7.3584774
7.3574426
7.3577764
7.358189
7.3589898
7.3611423
7.361916
7.3619336
7.3619407
7.36194
7.362522
7.3625381
7.3616209
7.3608354
7.3601926
7.3588579
7.3589375
7.3591883
7.3596339
7.361479
7.3627164
7.3640218
7.3155732
7.317131
7.3174526
7.3169334
7.3165559
7.3157623
7.3147712
7.3132081
7.3101644
7.3087775
7.3079921
7.3074709
7.3086453
7.3087065
7.3093627
7.3108033
7.3114111
7.3115031
7.3110628
7.3097712
7.3092672
7.309312
7.3081122
7.3082881
7.308277
7.3080713
7.3092366
7.3091478
7.3096215
7.3109216
7.311436
7.3114495
7.3109209
7.3095079
7.3088319
7.3086938
7.3073769
7.3076639
7.3080925
7.3089443
7.3113258
7.3120061
7.3121461
7.3124766
7.3125584
7.312997
7.312849
7.3116916
7.3108878
7.3103674
7.3088043
7.3088919
7.30928
7.3100036
7.3123968
7.3139093
7.2684768
7.2707696
7.2727757
7.2733082
7.2728797
7.2723207
7.2709942
7.2692899
7.2671273
7.2634779
7.2617764
7.2608475
7.2603176
7.2616953
7.2618063
7.26256
7.2642127
7.2649731
7.2650719
7.2644931
7.2630021
7.2624105
7.2624046
7.2609717
7.2610839
7.2610715
7.2609269
7.2623232
7.2622867
7.2628487
7.2643509
7.2650046
7.265012
7.2643352
7.2627174
7.2619514
7.261768
7.2602347
7.2604772
7.2609188
7.261827
7.2644113
7.2651676
7.2654971
7.2660579
7.2661456
7.266449
7.2661523
7.2648022
7.2639157
7.2633855
7.2616346
7.2617197
7.2622457
7.2633075
7.26636
7.2240025
7.2274908
7.2308907
7.2333097
7.2339453
7.2335901
7.2329583
7.2311498
7.2282739
7.224754
7.2203978
7.2183836
7.2173504
7.2167993
7.2181217
7.2186804
7.219603
7.2212783
7.2223174
7.2224424
7.221606
7.2200912
7.2193466
7.2189139
7.2175363
7.2176463
7.2176322
7.2174864
7.2188258
7.2192182
7.2199306
7.2214427
7.2223577
7.2223798
7.2214328
7.2197826
7.2188614
7.2182577
7.2167941
7.2170534
7.2175087
7.2184424
7.221035
7.2224276
7.2230408
7.2235345
7.2234041
7.2236803
7.2232072
7.2218649
7.2207666
7.2197872
7.218095
7.2181837
7.218801
7.2201908
7.1808793
7.1853199
7.1921619
7.19775
7.2000243
7.2004683
7.2001891
7.1997891
7.1980606
7.1929258
7.1860795
7.1811172
7.1790787
7.1780294
7.1773614
7.1779337
7.1800323
7.1811654
7.1823837
7.1841327
7.184237
7.1827186
7.1816981
7.1807571
7.1788277
7.1781939
7.1784771
7.178462
7.1781397
7.1787327
7.1806263
7.1815322
7.1825767
7.1841813
7.1841729
7.182526
7.1813727
7.1802586
7.1781682
7.1774942
7.1779474
7.1784445
7.1792302
7.1814147
7.1850976
7.1857785
7.1852754
7.1847452
7.1855062
7.184378
7.183391
7.1820313
7.1795983
7.1786331
7.1788264
7.1794338
7.1495249
7.1498701
7.1535008
7.1638884
7.1731466
7.1741871
7.1745617
7.174307
7.1740632
7.1735307
7.1646515
7.1543274
7.1501835
7.1493183
7.148203
7.1469251
7.1476262
7.1488457
7.1500286
7.1509797
7.1513089
7.1514352
7.1513564
7.150597
7.1496101
7.1485973
7.1478486
7.1487694
7.1487532
7.1477814
7.1484817
7.1494631
7.1504476
7.1511835
7.1513693
7.1513767
7.1511485
7.1502846
7.1491211
7.1479192
7.1471998
7.1483004
7.1490627
7.149206
7.1521751
7.1585993
7.1604812
7.1562656
7.1541373
7.1532302
7.1530888
7.1522622
7.1508099
7.1493057
7.148111
7.1489661
7.1248701
7.1252556
7.1262
7.1292613
7.1298123
7.1326796
7.1353193
7.1350387
7.1330102
7.1303458
7.1301659
7.1265843
7.1251502
7.1241376
7.1235428
7.1257958
7.1248639
7.1259229
7.1285809
7.1288175
7.1289527
7.1289651
7.1264855
7.1256639
7.1268036
7.1245967
7.1248342
7.1248185
7.1245246
7.1267025
7.1255055
7.1263222
7.1287923
7.1288804
7.1288971
7.1287537
7.1261558
7.1252016
7.126148
7.1239695
7.1244959
7.1253752
7.1264408
7.1300342
7.1283526
7.1281898
7.1322185
7.1325872
7.1312174
7.1308344
7.1282566
7.1268074
7.1274804
7.1246992
7.1265334
7.1256774
7.1415106
7.1723096
7.2190975
7.2745722
7.3084856
7.3040044
7.2667329
7.2152616
7.1722985
7.1414442
7.125455
7.1262687
7.1392294
7.1726589
7.2379926
7.3361081
7.4343438
7.4745947
7.4773919
7.440211
7.3391455
7.2372906
7.1715954
7.1407105
7.1284214
7.1259559
7.1384167
7.1397109
7.1511867
7.1536413
7.1661253
7.1526816
7.1497779
7.1652942
7.1523283
7.1651047
7.1517431
7.1378149
7.1381254
7.1493697
7.1491706
7.1620412
7.1395453
7.1550454
7.179791
7.1957236
7.1913083
7.1721345
7.1522578
7.1409772
7.127946
7.1262783
7.1384604
7.1386835
7.1500315
7.1651801
7.1496899
7.1524332
7.1523291
7.1628505
7.17653
7.162409
7.1740864
7.1631595
7.1636118
7.1619171
7.1541186
7.1447213
7.1440074
7.1543282
7.1641078
7.1668586
7.1793125
7.1637417
7.164042
7.1528365
7.137632
7.1470049
7.1476728
7.1425627
7.1308331
7.1320834
7.1432444
7.1541436
7.1584753
7.1714879
7.1568048
7.1426448
7.1540485
7.1659109
7.1976661
7.1928457
7.2103401
7.1926974
7.1860012
7.1971398
7.1872739
7.226496
7.2698364
7.2818365
7.2689359
7.2253078
7.2383558
7.2705198
7.2336174
7.2770887
7.2924783
7.273192
7.2304907
7.2369426
7.2794623
7.2832281
7.2410798
7.2028607
7.170538
7.2208391
7.2018845
7.1782085
7.2465244
7.1933467
7.2274333
7.2830962
7.3491483
7.2356812
7.2551368
7.3929131
7.3465565
7.3077794
7.5027122
7.3864857
7.2669258
7.1935851
7.1643233
7.1965838
7.228384
7.2828429
7.2159545
7.2015498
7.1726703
7.1513507
7.1528235
7.1545814
7.1543211
7.1529417
7.1518828
7.1731721
7.1777165
7.1807022
7.1808496
7.1776697
7.2086001
7.2123711
7.2560662
7.2412051
7.1963664
7.1689677
7.2583912
7.4241155
7.5167663
7.4810393
7.4818446
7.4817979
7.4807591
7.5154893
7.4967273
7.4538199
7.4302273
7.4312101
7.455874
7.5035559
7.5236252
7.4913457
7.4931448
7.4934791
7.4920265
7.5251011
7.5055513
7.4594978
7.4353153
7.4354718
7.3391151
7.2202822
7.1558894
7.131342
7.1300201
7.1422254
7.1479743
7.1479521
7.1421269
7.1298427
7.1311379
7.1555938
7.2201598
7.3396963
7.4368799
7.4371496
7.4613206
7.5053221
7.5249028
7.4894818
7.4909376
7.4909227
7.4898893
7.5270927
7.5073179
7.4616351
7.4363739
7.4343942
7.4575982
7.4987578
7.5650306
7.6147994
7.6203146
7.4973237
7.3305032
7.2414191
7.2428118
7.3340818
7.5019168
7.6238821
7.6192827
7.5705722
7.5076969
7.4411906
7.2773564
7.1816969
7.2000834
7.3146625
7.4810825
7.495116
7.5272228
7.5895182
7.6223769
7.5050166
7.3711015
7.289325
7.143927
7.0747781
6.9952321
6.9707678
6.9698963
6.9932443
7.0720352
7.1394516
7.2837957
7.3658415
7.4979598
7.2840373
7.1889644
7.0450313
6.976194
6.8932693
6.8676569
6.8683985
6.8952647
6.9793909
7.0496828
7.1952798
7.2900756
7.1472598
7.341734
7.5043866
7.499193
7.4969646
7.4970548
7.4972806
7.481032
7.3146117
7.2000819
7.1818112
7.2774104
7.4405333
7.5266072
7.4952048
7.4997708
7.4971466
7.4914074
7.4910662
7.2552602
7.0025564
7.0799801
6.984231
7.0523994
6.9622411
6.8849539
6.8132401
6.7794757
6.7787834
6.8108345
6.8811275
6.9574929
7.0457188
7.1407392
7.333446
7.0731274
6.9772193
6.8816392
6.7879876
6.7150237
6.6784126
6.6797012
6.7177885
6.7921247
6.8870718
6.8172243
6.9018221
6.8761998
6.9788638
6.9790397
7.2556538
7.0025776
6.9018612
6.8761399
6.7842557
6.7846652
6.681987
6.7191572
6.6437112
6.6035557
6.602349
6.6411846
6.7148944
6.8115095
6.894396
6.9949878
7.2451743
6.9711709
6.8682326
6.7786259
6.6770943
6.6015619
6.5622215
6.5631725
6.60467
6.6039862
6.6817845
6.7186358
6.8161687
6.8869488
6.9844567
7.0808059
7.3432951
7.5053064
7.6224451
7.5891879
7.5697803
7.5065413
7.4596526
7.5438312
7.6032073
7.6186205
7.6241623
7.5074271
7.2931483
7.1486589
7.0537729
6.9627018
6.8853629
6.7910342
6.7171061
6.6420093
6.6026801
6.5625112
6.5613414
6.6007747
6.6777118
6.7783472
6.8685247
6.9712844
7.2457821
6.9950337
6.8945381
6.8113139
6.7148079
6.6396496
6.6011159
6.6785439
6.6788237
6.7799405
6.8131552
6.8976237
6.9816531
7.0521474
7.1983643
7.292061
7.3730741
7.5057024
7.3390913
7.145951
7.0771397
6.9976963
6.9732493
6.8706237
6.8702107
6.7788557
6.8118832
6.7150484
6.7885916
6.8819879
6.9778892
7.0740559
7.3349876
7.142531
7.0476809
6.958789
6.8825586
6.9795926
6.8959556
6.9963965
6.9725741
7.2490753
7.2496164
7.4858061
7.5004951
7.6203974
7.6174491
7.5684717
7.5437288
7.5018163
7.5294521
7.5618493
7.5934507
7.6107104
7.4965731
7.4956456
7.4953507
7.4960613
7.6107912
7.5937442
7.5625196
7.4614538
7.5456703
7.503758
7.5456977
7.5691474
7.5877341
7.4936139
7.4903436
7.489208
7.4922876
7.5875928
7.5688857
7.5441078
7.5019649
7.5429259
7.6019589
7.6162427
7.6171633
7.4946277
7.4791496
7.4808844
7.496886
7.6189896
7.6177251
7.6046258
7.6028155
7.5625151
7.5919416
7.6086431
7.4902271
7.4888773
7.4874357
7.4886555
7.6080031
7.5912602
7.5603466
7.528119
7.5712977
7.559776
7.5999174
7.6257967
7.647385
7.6289768
7.5000524
7.5233787
7.490579
7.2624121
7.3497184
7.5147049
7.6378554
7.6239415
7.5883375
7.6441722
7.6044918
7.5828633
7.6157127
7.4979891
7.4918384
7.4887202
7.4833089
7.4840595
7.4890065
7.4920966
7.4987713
7.6160633
7.500632
7.3683613
7.2872157
7.1427032
7.0753857
7.3367874
7.5018849
7.6204934
7.6136029
7.5635821
7.582147
7.6041911
7.490785
7.4895497
7.4891824
7.4904598
7.5260947
7.5031762
7.6271046
7.5157432
7.3529839
7.2657429
7.2388958
7.2247724
7.2834592
7.1839435
7.2838156
7.2245815
7.1829331
6.9844601
7.0094699
7.1110541
7.0596291
6.9715243
6.9577021
6.9449698
6.9605899
7.0189337
6.9382984
7.0199955
7.1127729
7.3534153
7.0103027
6.9590951
6.9851762
6.946218
6.9718929
7.0608744
6.9619543
6.8675152
6.9682685
7.2670641
7.4942689
7.4950281
7.5263178
7.5037318
7.6272599
7.6437426
7.587319
7.6229481
7.6377472
7.5174329
7.3541245
7.2674912
6.9500852
6.9499075
6.8419599
6.8554934
6.8052933
6.8319678
6.8164264
6.8448727
6.7557279
6.7892957
6.8626764
6.8422184
6.9183333
6.8415928
6.8617166
6.762371
6.7325678
6.6507318
6.763384
6.830391
6.8544276
6.9658882
6.9482902
6.8409895
6.8037053
6.8146343
6.84383
6.8656856
6.78812
6.7556556
6.729319
6.6102887
6.6467836
6.6852231
6.6072631
6.6857212
6.6507872
6.7642706
6.729616
6.6095566
6.6455479
6.5659986
6.5221936
6.5657923
6.5231602
6.5660283
6.5245037
6.4780723
6.432087
6.4799905
6.5736708
6.7091304
6.7444186
6.8279942
6.9082481
6.8909704
6.8033955
6.6775566
6.8043133
6.8285714
6.7033102
6.6162007
6.5847929
6.7192516
6.6799822
6.5395244
6.5091891
6.6721715
6.7792616
7.3252841
7.4175523
7.5790295
7.6994857
7.6650174
7.5566656
7.3994162
7.3172314
7.3187005
7.5249884
7.4921008
7.5018587
7.6306008
7.648158
7.6269652
7.6412153
7.5187431
7.3529382
7.2636612
6.9489422
6.8415695
6.8046405
6.8551703
6.9675574
6.8678024
6.8447252
6.8154616
6.8315488
6.9478957
6.9739022
7.0621074
7.114956
7.012391
6.9605304
6.9872133
7.0229395
6.9636582
6.8654322
6.7907878
6.7562451
6.7298377
6.7653721
6.652979
6.6109607
6.6483665
6.6880213
6.7663337
6.736188
6.844128
6.9220602
6.9425058
6.867619
6.8465267
6.7687144
6.6542832
6.5688606
6.5239657
6.56752
6.6094027
6.569091
6.5254343
6.4789201
6.5251693
6.613382
6.6501649
6.6890713
6.7942272
6.7610541
6.7342064
6.8228066
6.8383468
6.952229
6.9912315
7.1884105
7.2299077
7.288604
7.3582296
7.5205887
7.2705856
7.2439603
7.2297148
7.2897654
7.1896549
7.0259373
7.1191976
7.3585222
7.0158971
6.964783
6.977701
7.0678437
6.968161
6.8739969
6.975744
7.2728069
6.8617862
6.8116372
6.847724
6.9574137
6.8519179
6.8521187
6.7605706
6.6505079
6.5684943
6.5252196
6.5238874
6.5653786
6.6465779
6.7554537
6.845241
6.8164269
6.8417014
6.8052114
6.8548117
6.9680123
6.8673085
6.8314111
6.9463899
6.972232
7.0615445
6.9621847
7.0211073
7.1138433
7.010216
6.9588293
6.9852343
6.9185018
6.8418703
6.7636533
6.7292223
6.6091379
6.6499767
6.6850685
6.7888163
6.8625587
6.7625422
6.7321249
6.8415733
6.8628357
6.9391315
7.0220029
7.04862
7.1926895
7.2873614
7.2868829
7.2272133
7.2411202
7.1855888
7.1872049
7.2870023
7.517063
7.3555852
7.2672953
7.2267738
7.0107735
6.9864171
6.9593959
6.9469416
6.9635192
7.0628777
7.3530853
7.1144029
6.9724213
6.8553801
6.8320912
6.7633172
6.6495347
6.5653988
6.5217
6.477516
6.5222276
6.5651181
6.6055129
6.6847756
6.6469836
6.6089898
6.7288213
6.7552652
6.7884041
6.8678751
6.8462337
6.8164944
6.8051563
6.8410487
7.2662493
6.9690887
6.9510583
6.9517041
6.8468128
6.7564393
6.6477428
6.5668385
6.5230561
6.4787787
6.5245705
6.5674323
6.6084584
6.6890507
6.6533849
6.612384
6.7335808
6.7678905
6.7931864
6.8671242
6.7651417
6.6874122
6.6518259
6.6098849
6.7294088
6.7648446
6.7901607
6.8655568
6.8440915
6.734467
6.8455523
6.9217078
6.9426664
7.0267575
6.9684843
6.8740614
6.8378051
6.8224552
6.811074
6.8475804
7.2730384
6.9574179
6.9754531
6.8611049
6.977764
6.9517918
6.9639961
6.9904951
7.0153429
7.359274
7.0683276
7.1198809
7.2925316
7.1925238
7.025002
6.9656468
6.8696391
6.8331691
6.8169995
6.8057658
6.8417696
7.2668048
6.9704554
6.8559664
6.9744549
6.9489643
6.9613346
6.9885985
7.0127769
7.3549387
7.0647485
7.1171721
7.2915628
7.520221
7.2313057
7.1906106
7.2454427
7.2319258
7.5220546
7.3603078
7.2718759
7.6411226
7.6683514
7.5629892
7.407922
7.3269394
7.3268079
7.4077711
7.5622869
7.6683875
7.5602565
7.4024517
7.4201369
7.3265564
6.7803095
6.9517656
6.9533985
7.4584383
7.5959595
7.6183149
7.3892567
7.2498181
7.2014698
7.1698974
7.2144138
7.1943723
7.2309095
7.1994519
7.1939431
7.2087846
7.1930205
7.2270467
7.2806457
7.3438867
7.3003136
7.3419922
7.5420999
7.5445168
7.6197642
7.568214
7.4370571
7.3067759
7.4345417
7.3816343
7.3326949
7.2135746
7.1539195
7.1800236
7.2430847
7.2959175
7.3449902
7.3851628
7.328558
7.2854695
7.458204
7.4575884
7.2850502
7.1787743
7.1789261
7.2070623
7.2069385
7.2559525
7.2122221
7.2085784
7.2411988
7.1964223
7.169061
7.2579472
7.4227992
7.3307639
7.2131771
7.1542202
7.141184
7.1716006
7.2362957
7.3368957
7.4383878
7.4784743
7.4787726
7.4396047
7.3388336
7.2389784
7.1731956
7.1397571
7.1268987
7.1258256
7.1417199
7.1731708
7.2201955
7.2769136
7.3136716
7.3135629
7.2764026
7.2192553
7.1719845
7.1411273
7.1260211
7.1286971
7.1397291
7.1384199
7.1497656
7.1526543
7.1536191
7.1660522
7.1512327
7.1872006
7.1969598
7.2163026
7.2020212
7.2373735
7.2441145
7.2481171
7.2482854
7.244182
7.2369183
7.2774781
7.3219564
7.3696125
7.3841926
7.3717453
7.3649644
7.3161058
7.3273419
7.315475
7.3645576
7.3750631
7.4012708
7.370956
7.322848
7.3367533
7.3192049
7.3679108
7.372767
7.3248276
7.3281276
7.3755279
7.4193653
7.4049913
7.3831935
7.446027
7.4057956
7.3566168
7.3134565
7.3659484
7.3244558
7.2501851
7.2774613
7.3190032
7.3358927
7.2948822
7.4414941
7.3935542
7.4355699
7.486254
7.52509
7.3770263
7.361208
7.4733922
7.5096074
7.5607427
7.8810252
7.7747535
7.6017705
7.4698349
7.4015673
7.3571046
7.3241078
7.2789931
7.2364356
7.2715874
7.3142104
7.3671794
7.2950598
7.2541208
7.3258123
7.3942014
7.2816173