/*--------------------------------*- C++ -*----------------------------------*\
  =========                 |
  \\      /  F ield         | OpenFOAM: The Open Source CFD Toolbox
   \\    /   O peration     | Website:  https://openfoam.org
    \\  /    A nd           | Version:  7
     \\/     M anipulation  |
\*---------------------------------------------------------------------------*/
FoamFile
{
    version     2.0;
    format      ascii;
    class       volVectorField;
    location    "80";
    object      U;
}
// * * * * * * * * * * * * * * * * * * * * * * * * * * * * * * * * * * * * * //

dimensions      [0 1 -1 0 0 0 0];

internalField   nonuniform List<vector> 
24866
(
(120.00021 -0.00057082268 -0.00068823518)
(120.00033 -0.00036137342 -0.00052276209)
(120.00031 -0.00041985075 -0.00043333858)
(120.00012 -0.00022291532 -0.00022231712)
(120.00002 -6.1600472e-05 -6.4816629e-05)
(120.00003 -5.7142667e-05 -7.8017494e-05)
(120.00002 -4.5646492e-05 -8.9410073e-05)
(120.00002 -4.4689441e-05 -8.3612839e-05)
(120.00002 -2.6776969e-05 -9.0105307e-05)
(120.00003 -1.8267809e-05 -0.00010256014)
(120.00003 -4.9379423e-06 -0.00010133231)
(120.00003 6.8476958e-06 -0.00010121878)
(120.00003 2.0403693e-05 -0.00010214545)
(120.00002 2.905267e-05 -8.9488587e-05)
(120.00002 4.7230599e-05 -8.3200577e-05)
(120.00002 4.8308749e-05 -8.7339508e-05)
(120.00003 6.1183445e-05 -7.649492e-05)
(120.00002 6.5264943e-05 -6.1842227e-05)
(120.00002 7.0434023e-05 -5.930159e-05)
(120.00003 8.7310904e-05 -5.0948199e-05)
(120.00003 0.00010547864 -4.7917353e-05)
(120.00004 0.0001176746 -3.5359522e-05)
(120.00003 0.00010473179 -2.300735e-05)
(120.00004 9.2935533e-05 -3.8697535e-05)
(120.00003 0.0001167179 -8.4988997e-06)
(120.00003 0.00012663907 4.1939938e-06)
(120.00003 0.00010849163 1.7629143e-05)
(120.00004 8.5535587e-05 4.600997e-05)
(120.00004 9.8408171e-05 2.7649123e-05)
(120.00003 0.00010025317 5.3414365e-05)
(120.00003 8.0234345e-05 5.3487454e-05)
(120.00002 6.6625835e-05 6.3244437e-05)
(120.00002 6.3751389e-05 6.6206046e-05)
(120.00003 5.4035988e-05 7.9825308e-05)
(120.00003 5.397075e-05 9.9771899e-05)
(120.00004 2.8104765e-05 9.8004644e-05)
(120.00004 4.6473032e-05 8.5230537e-05)
(120.00003 1.8124717e-05 0.00010816158)
(120.00003 4.661722e-06 0.00012644452)
(120.00003 -7.9863364e-06 0.00011651148)
(120.00004 -3.8333255e-05 9.2808347e-05)
(120.00003 -2.283314e-05 0.00010458181)
(120.00004 -3.5255489e-05 0.00011743486)
(120.00003 -4.7866177e-05 0.00010524505)
(120.00003 -5.0928125e-05 8.6972815e-05)
(120.00002 -5.9406012e-05 7.0238966e-05)
(120.00002 -6.179951e-05 6.4869427e-05)
(120.00003 -7.6639921e-05 6.0927287e-05)
(120.00002 -8.7298446e-05 4.7914909e-05)
(120.00002 -8.3411131e-05 4.7116073e-05)
(120.00002 -8.9304682e-05 2.8812623e-05)
(120.00003 -0.00010216525 2.0167238e-05)
(120.00003 -0.00010122515 6.7442887e-06)
(120.00003 -0.00010120557 -5.0816963e-06)
(120.00003 -0.00010217337 -1.8445135e-05)
(120.00002 -9.0095289e-05 -2.7041353e-05)
(120.00002 -8.3376113e-05 -4.4929272e-05)
(120.00002 -8.9316367e-05 -4.6029271e-05)
(120.00003 -7.7583988e-05 -5.7329336e-05)
(120.00002 -6.4714128e-05 -6.2091299e-05)
(120.00002 -0.00011583805 -8.9580735e-05)
(120.00001 -0.00011750474 -0.00011779109)
(120.00002 -8.9229759e-05 -0.0001160908)
(120.00003 -9.2916205e-05 -0.00011037728)
(120.00001 -9.6643889e-05 -0.00014897834)
(120.00002 -7.0447058e-05 -0.00016542373)
(120.00001 -5.9552768e-05 -0.00015031349)
(120.00002 -5.0686479e-05 -0.00013583412)
(120.00001 -3.8514601e-05 -0.0001720306)
(120.00001 -1.2335616e-05 -0.00018182851)
(120.00001 1.4344763e-05 -0.00018175389)
(120.00001 4.0657311e-05 -0.00017179955)
(120.00002 5.2972975e-05 -0.00013529769)
(120.00001 6.1275254e-05 -0.00014966573)
(120.00002 7.319277e-05 -0.00016464143)
(120.00001 0.00010026849 -0.00014789344)
(120.00003 9.7132403e-05 -0.00010919775)
(120.00002 9.2623923e-05 -0.00011355127)
(120.00001 0.00012261157 -0.00011541644)
(120.00003 0.00012234572 -8.9410558e-05)
(120.00003 0.00012019088 -9.3471828e-05)
(120.00001 0.00016763546 -9.9988023e-05)
(120.00002 0.0001957504 -8.0824449e-05)
(120.00002 0.00020148264 -5.910837e-05)
(120.00002 0.00019891961 -1.041236e-05)
(120 0.00018225392 -2.4176594e-05)
(120.00002 0.00018145627 -9.6062801e-06)
(120 0.00018726619 1.1665603e-05)
(120.00002 0.00016613931 3.2871434e-05)
(120.00001 0.00016703247 4.8206405e-05)
(120.00002 0.00018319944 4.3916154e-05)
(120.00001 0.00020919806 1.6595884e-05)
(120.00001 0.00024021689 2.4809545e-05)
(120.00001 0.00024044908 -2.7352551e-05)
(120.00001 0.00022478273 -7.7330313e-05)
(120.00001 0.00020256326 -0.00011266709)
(120.00001 0.00016265338 -0.00012265419)
(120.00001 0.00016843939 -0.00016262431)
(120.00001 0.00012819097 -0.00015438361)
(120.00001 0.00011361969 -0.00019781857)
(120.00001 0.00014533011 -0.00019866953)
(120 0.00017782974 -0.00017430413)
(120.00001 0.00020446153 -0.00014216648)
(120.00001 0.00023113814 -9.8651378e-05)
(120 0.00024586933 -3.5954664e-05)
(120 0.00024542589 3.3971408e-05)
(120.00001 0.00022942557 9.8242913e-05)
(120.00001 0.00022544103 7.4236037e-05)
(120.00001 0.00019687448 0.00011248616)
(120.00002 0.00017561735 7.7046905e-05)
(120.00001 0.00016016831 0.00010128307)
(120.00003 0.00011243014 9.3277977e-05)
(120.00003 0.00011748688 9.1232707e-05)
(120.00001 0.00011878069 0.00011832945)
(120.00001 0.00015859924 0.00012487812)
(120.00001 0.00016630211 0.00016577395)
(120.00001 0.00020196594 0.00014323335)
(120 0.00017662378 0.00017604756)
(119.99999 0.00020219933 0.00012076632)
(119.99999 0.00021676635 4.2552556e-05)
(119.99999 0.00021723968 -4.3940094e-05)
(119.99999 0.00020285171 -0.00012054099)
(119.99998 0.00014029549 -0.00013813345)
(119.99999 0.00012265123 -0.00019949715)
(120 0.00010072049 -0.00022790911)
(120.00001 7.7231158e-05 -0.00022752561)
(120.00001 5.5719223e-05 -0.00019783288)
(120.00001 2.2570405e-05 -0.00021639529)
(120.00001 2.8475713e-05 -0.00024463444)
(120 3.6578393e-05 -0.00024422857)
(119.99999 4.4630734e-05 -0.00021408311)
(119.99997 5.0978556e-05 -0.00014840935)
(119.99996 5.461252e-05 -5.3812597e-05)
(119.99997 0.00015045714 -5.0126585e-05)
(119.99997 0.00015009113 4.9447437e-05)
(119.99998 0.00013949099 0.00013885469)
(119.99999 0.0001213549 0.00020159362)
(120.00001 9.8784517e-05 0.00022888342)
(120.00001 0.00014378365 0.00020143027)
(120.00001 0.00011300788 0.00019639761)
(120.00001 0.00012539976 0.00015809195)
(120.00001 0.00010183351 0.00015973286)
(120.00003 9.3809922e-05 0.00011201158)
(120.00003 9.1631214e-05 0.00011699818)
(120.00003 0.00017667248 0.0002408078)
(120.00003 0.00019843472 0.00022684272)
(120.00006 0.00028109248 0.00034025864)
(120.00013 0.00018123286 0.0002750344)
(120.00012 0.00022651252 0.00022585544)
(120.00012 0.00022718352 0.00022502422)
(120.00013 0.00027620984 0.0001795384)
(120.00011 0.00030799657 0.00014329005)
(120.00012 0.00035980134 0.00015484531)
(120.00004 0.0002136121 6.8260786e-05)
(120.00004 0.00018509835 8.7883449e-05)
(120.00011 0.00037523088 0.00011773438)
(120.00012 0.0003658094 7.6839975e-05)
(120.00011 0.00037617012 1.4357161e-05)
(120.00012 0.00039087902 -4.679129e-05)
(120.0001 0.00041354031 -0.00010114402)
(120.00014 0.00050019624 -0.00011244433)
(120.00013 0.00042043966 -0.0001728324)
(120.00012 0.00032637873 -0.00012918113)
(120.00014 0.00029228788 -0.0001718478)
(120.00012 0.00023996782 -0.00021577726)
(120.00012 0.00023598585 -0.000214105)
(120.00013 0.00020152621 -0.00026055469)
(120.00011 0.00015458462 -0.00027127458)
(120.00012 0.0001649313 -0.0002917351)
(120.00012 9.2137941e-05 -0.00032082166)
(120.00012 6.8687384e-05 -0.0003312094)
(120.00012 2.3504394e-05 -0.00034917059)
(120.00012 -1.7285399e-05 -0.00034945062)
(120.00012 -6.2149776e-05 -0.00033220901)
(120.00012 -8.5054317e-05 -0.00032256169)
(120.00012 -0.00015724936 -0.00029387388)
(120.00011 -0.00014610359 -0.00027590529)
(120.00013 -0.00018959126 -0.00026549795)
(120.00006 -0.00028083565 -0.00033353574)
(120.00006 -0.00025642658 -0.0003137181)
(120.00003 -0.00017363503 -0.00023989559)
(120.00003 -0.00019664745 -0.00022400202)
(120.00006 -0.00033776707 -0.00035910935)
(120.00012 -0.00033091344 -0.00039437914)
(120.00006 -0.00027902216 -0.00036489266)
(120.00004 -0.00033766913 -0.00033850015)
(120.00001 -0.00048558452 -0.00039393038)
(120.00001 -0.00015567962 -0.00012447432)
(120.00001 -0.00016297074 -0.00016336749)
(120.00001 -0.00012409754 -0.00015598654)
(120.00001 -0.00011037749 -0.00019868813)
(120.00001 -7.4420879e-05 -0.00022793219)
(120.00001 -5.3216492e-05 -0.00019826896)
(120.00001 -2.0323301e-05 -0.00021648188)
(120.00001 -2.6000354e-05 -0.00024475849)
(120 -3.3940241e-05 -0.00024431937)
(119.99999 -4.2020495e-05 -0.00021407377)
(119.99997 -4.8670663e-05 -0.00014827274)
(119.99996 -5.2809389e-05 -5.3571834e-05)
(119.99996 -5.3155317e-05 5.3817644e-05)
(119.99996 5.4255201e-05 5.354028e-05)
(119.99997 5.0068118e-05 0.00014939359)
(119.99999 4.3104415e-05 0.00021613285)
(120 3.4467421e-05 0.00024488154)
(120.00001 2.5268035e-05 0.0002397558)
(120.00001 7.4751673e-05 0.00022497029)
(120.00002 4.4412587e-05 0.00018277266)
(120.00002 7.7570867e-05 0.00017520634)
(120.00005 0.00021736983 0.00050933185)
(120.00011 0.00017380372 0.00048774126)
(120.00004 9.7290014e-05 0.00031353967)
(120.00004 6.9285969e-05 0.00021291173)
(120.00012 0.00015658107 0.00035882999)
(120.00011 0.00014483979 0.00030679236)
(120.00027 0.00030294905 0.0006074379)
(120.00032 0.00035833606 0.00053825599)
(120.0003 0.00042680909 0.00043997567)
(120.0003 0.00044229667 0.00042403261)
(120.00032 0.00054053725 0.00035543554)
(120.00027 0.0006096682 0.0003002221)
(120.00028 0.00062666378 0.0002934966)
(120.00028 0.00068623766 0.00019784051)
(120.00028 0.00068878208 0.00013844758)
(120.00027 0.00072164828 3.334629e-05)
(120.00027 0.00072460106 -7.0733234e-05)
(120.00026 0.00074205004 -0.00016746946)
(120.00029 0.00080149068 -0.00020541907)
(120.00029 0.00069765271 -0.00031038631)
(120.00028 0.00064404604 -0.00028430618)
(120.00033 0.00056582765 -0.00033742278)
(120.0003 0.0004606377 -0.00040688122)
(120.00031 0.00044280157 -0.00042310858)
(120.00033 0.00038121475 -0.0005144462)
(120.00029 0.0003170448 -0.00056572955)
(120.00031 0.00029883146 -0.00056550105)
(120.00032 0.00018432029 -0.00063157345)
(120.0003 0.0001361984 -0.00066856153)
(120.00031 4.3276565e-05 -0.00070729489)
(120.00031 -3.2041164e-05 -0.00070756187)
(120.00031 -0.00012471741 -0.00066986173)
(120.00032 -0.00017202144 -0.00063431652)
(120.00031 -0.00028492078 -0.00056925991)
(120.00029 -0.00030207197 -0.00057241262)
(120.00057 -0.00054805875 -0.001020181)
(120.00063 -0.00065483608 -0.00095465158)
(120.00061 -0.00077033576 -0.00079363516)
(120.00061 -0.00079158776 -0.00077279361)
(120.00063 -0.00095249716 -0.00065725174)
(120.00033 -0.00052133642 -0.00036304095)
(120.00013 -0.0002646726 -0.00019054015)
(120.00011 -0.00027513387 -0.00014693722)
(120.00012 -0.00029332407 -0.00015806841)
(120.00012 -0.00032239302 -8.5962643e-05)
(120.00012 -0.00033148963 -6.2835231e-05)
(120.00012 -0.0003491129 -1.7877442e-05)
(120.00012 -0.00034906563 2.2946163e-05)
(120.00012 -0.00033102612 6.7897445e-05)
(120.00012 -0.00032073606 9.1364873e-05)
(120.00012 -0.00029177794 0.00016410191)
(120.00011 -0.00027122025 0.00015349397)
(120.00013 -0.00026063282 0.00020055203)
(120.00012 -0.00021411036 0.00023495659)
(120.00012 -0.00021582923 0.00023914945)
(120.00013 -0.00017178853 0.00029138188)
(120.00011 -0.00012902836 0.00032558571)
(120.00013 -0.00017242793 0.00041949026)
(120.00005 -6.9324261e-05 0.00024615243)
(120.00002 -5.476593e-05 0.00025235813)
(120.00003 -6.1845261e-05 0.00021814291)
(120.0001 -0.00010025605 0.00041245215)
(120.00012 -4.5657275e-05 0.00038959682)
(120.00011 1.5827682e-05 0.00037522973)
(120.00012 7.843701e-05 0.00036522104)
(120.00011 0.00011939014 0.00037458192)
(120.00004 8.8887144e-05 0.00018456577)
(120.00004 0.00010026317 0.00028821201)
(120.00009 0.00014337637 0.00045576689)
(120.0001 0.00019798916 0.00046818285)
(120.00014 0.00018908271 0.00055407011)
(120.0001 0.00013389399 0.0004906886)
(120.0001 0.0001058678 0.00052213696)
(120.00009 8.7589649e-05 0.00057808889)
(120.00003 4.9842093e-05 0.00039556368)
(120.00001 4.857517e-05 0.00016658837)
(120.00002 3.3456736e-05 0.00016571716)
(120 1.2112745e-05 0.0001869267)
(120.00001 1.7035436e-05 0.00020879287)
(120.00002 -1.0093403e-05 0.00019860256)
(120.00001 -2.6980964e-05 0.00024000638)
(120 -3.5545173e-05 0.00024533412)
(119.99999 -4.3475174e-05 0.00021659292)
(119.99997 -4.9581633e-05 0.00014971258)
(119.99998 -0.00013770907 0.00013953783)
(119.99997 -0.00014787944 5.0149894e-05)
(119.99997 -0.00014763073 -4.9486941e-05)
(119.99998 -0.00013712243 -0.00013783144)
(119.99999 -0.00011933244 -0.00019955055)
(120 -9.7578323e-05 -0.00022822989)
(120.00001 -0.0001415297 -0.0001993633)
(120 -0.00017385774 -0.00017441008)
(119.99999 -0.00019899008 -0.00012002746)
(119.99999 -0.00021358855 -4.2800719e-05)
(119.99999 -0.00021370418 4.3847138e-05)
(119.99999 -0.00019921016 0.0001219405)
(120 -0.00017407799 0.00017722366)
(119.99999 -0.00012019759 0.00020220664)
(120.00001 -9.8344457e-05 0.00023061132)
(120.00001 -7.7045911e-05 0.00022436142)
(120.00002 -5.882567e-05 0.00020112562)
(120.00002 -8.064242e-05 0.00019536245)
(120.00001 -0.00011247915 0.00020214413)
(120.00001 -0.00014196225 0.00020395447)
(120.00001 -0.00016249762 0.00016797278)
(120.00001 -0.0001985306 0.00014479282)
(120 -0.00022771877 0.00010012644)
(120 -0.00024397637 3.5928984e-05)
(120 -0.00024397404 -3.4585517e-05)
(120 -0.00022783144 -9.8158363e-05)
(120.00001 -0.00019894294 -0.0001420304)
(120.00001 -0.00019840386 -0.00011079897)
(120.00001 -0.00022764766 -7.4862641e-05)
(120.00001 -0.00024450937 -2.6463192e-05)
(120.00001 -0.00024445203 2.8011762e-05)
(120.00001 -0.00022738366 7.6779939e-05)
(120.00001 -0.00019771385 0.00011316861)
(120.00001 -0.00015430464 0.00012777231)
(120.00001 -0.00011536027 0.00012228055)
(120.00001 -0.00012256638 0.00016226361)
(120.00001 -9.9874465e-05 0.00016725924)
(120.00003 -9.3430168e-05 0.00011980094)
(120.00003 -8.9399262e-05 0.0001220295)
(120.00003 -0.00017014948 0.00024983201)
(120.00006 -0.00025035012 0.00032754329)
(120.00006 -0.00027715291 0.00036064856)
(120.00003 -0.00019571421 0.00024086001)
(120.00006 -0.00033583049 0.00038737449)
(120.00006 -0.0002751278 0.00037781687)
(120.00012 -0.00032777218 0.00041820579)
(120.00021 -0.00056281358 0.00072194201)
(120.00032 -0.0003373196 0.00056423327)
(120.00028 -0.00028393319 0.00064256447)
(120.00029 -0.0003096334 0.00069622211)
(120.00029 -0.00020441943 0.0007999191)
(120.00014 -0.00011182442 0.00049889039)
(120.00007 -0.00019858484 0.00060171736)
(120.00013 -0.00015142934 0.00053442279)
(120.00012 -0.00012148923 0.00054964647)
(120.00005 -6.7157697e-05 0.00038824622)
(120.00003 -6.4045636e-05 0.0003587152)
(120.0001 -7.7181379e-05 0.00055305587)
(120.00014 -0.00013301275 0.00061528806)
(120.00008 -0.00010223226 0.00051451398)
(120.00018 -0.00021763653 0.0010145855)
(120.00025 -0.00016600127 0.00074055049)
(120.00027 -6.8858939e-05 0.00072315867)
(120.00027 3.5712861e-05 0.00072033965)
(120.00028 0.00014103824 0.0006872478)
(120.00028 0.00020050444 0.00068439066)
(120.00028 0.00029636555 0.00062487736)
(120.00055 0.00052364559 0.0010590343)
(120.00054 0.00055416502 0.0010575647)
(120.00062 0.00065998638 0.00097477114)
(120.00059 0.00078146355 0.00080333777)
(120.00059 0.00080696561 0.00077712081)
(120.00062 0.00097852387 0.00065562984)
(120.00054 0.0010610303 0.00054996053)
(120.00055 0.0010617916 0.00051931232)
(120.00058 0.0012019875 0.00033472189)
(120.00055 0.0012117215 0.00023497362)
(120.00054 0.0012558407 6.6737517e-05)
(120.00054 0.0012585037 -9.4922572e-05)
(120.00053 0.0012578471 -0.00026301372)
(120.00056 0.0012864091 -0.00034334687)
(120.00054 0.0011163037 -0.00051912217)
(120.00054 0.0010938872 -0.00053368028)
(120.00062 0.0010072354 -0.00063566729)
(120.0006 0.00082835486 -0.00075477648)
(120.0006 0.00080246541 -0.00078245065)
(120.00063 0.00068214031 -0.00094342151)
(120.00057 0.00056945989 -0.001011819)
(120.00059 0.00053187106 -0.0010028603)
(120.00061 0.00033164915 -0.0011409939)
(120.00058 0.00023977223 -0.001173086)
(120.00057 7.9729657e-05 -0.0012141197)
(120.00057 -6.3434636e-05 -0.0012150022)
(120.00058 -0.00022287607 -0.0011752455)
(120.00061 -0.00031344571 -0.0011447145)
(120.00059 -0.00051143052 -0.0010077765)
(120.00095 -0.00082213922 -0.001618857)
(120.00092 -0.00088918221 -0.0016239062)
(120.00102 -0.0010697964 -0.0015427985)
(120.00098 -0.0012521932 -0.0012940238)
(120.00098 -0.0012912551 -0.0012554396)
(120.00102 -0.0015399524 -0.0010730309)
(120.00092 -0.001621357 -0.00089237371)
(120.00057 -0.0010182602 -0.00055040762)
(120.00029 -0.00057114512 -0.00030362989)
(120.00031 -0.00056837554 -0.0002864507)
(120.00032 -0.00063356889 -0.0001734582)
(120.00031 -0.00066906197 -0.00012608567)
(120.00031 -0.00070705764 -3.3441535e-05)
(120.00031 -0.00070679285 4.182359e-05)
(120.0003 -0.00066807595 0.00013471918)
(120.00032 -0.00063128547 0.00018283968)
(120.00031 -0.00056542772 0.00029712917)
(120.00029 -0.00056577873 0.00031526369)
(120.00033 -0.00051454039 0.00037944526)
(120.00031 -0.00042309643 0.0004410253)
(120.0003 -0.00040695736 0.00045915578)
(120.00059 -0.00075476113 0.00082590838)
(120.00062 -0.0006353948 0.0010046548)
(120.00054 -0.00053296932 0.0010915257)
(120.00054 -0.00051791716 0.0011141552)
(120.00056 -0.00034174609 0.0012840863)
(120.00052 -0.00026073889 0.0012555627)
(120.00053 -9.2081852e-05 0.0012562612)
(120.00054 7.0116804e-05 0.0012536339)
(120.00055 0.00023876098 0.0012093108)
(120.00057 0.00033884187 0.0011990923)
(120.00093 0.00054008555 0.0018964661)
(120.0009 0.0008363315 0.0016676733)
(120.00089 0.00090086172 0.0016632052)
(120.00099 0.0010814864 0.0015676355)
(120.00096 0.0012681708 0.0013070808)
(120.00096 0.0013122885 0.001262039)
(120.00099 0.0015730712 0.0010754225)
(120.00089 0.0016681287 0.00089496069)
(120.0009 0.0016716745 0.00083026953)
(120.00093 0.0019006762 0.0005343708)
(120.00088 0.0019161062 0.00037761615)
(120.00087 0.001971695 0.00011450132)
(120.00086 0.0019748842 -0.00013310318)
(120.00086 0.0019518906 -0.0003972321)
(120.00091 0.0019628906 -0.00053824336)
(120.00089 0.0017137674 -0.00082317335)
(120.00088 0.0016976739 -0.00088055528)
(120.00099 0.0016003015 -0.001054845)
(120.00097 0.0013339467 -0.0012370056)
(120.00097 0.0012914276 -0.0012823935)
(120.00101 0.0011034013 -0.0015301375)
(120.00092 0.00091640137 -0.0016144573)
(120.00094 0.00084869403 -0.0016131574)
(120.00097 0.00054255707 -0.0018387847)
(120.00092 0.000389212 -0.0018659964)
(120.0009 0.00013056988 -0.0019176294)
(120.0009 -0.00010893767 -0.0019183729)
(120.00092 -0.00036671541 -0.0018682307)
(120.00097 -0.00051861607 -0.0018430958)
(120.00147 -0.00080452233 -0.002785922)
(120.00144 -0.0012413728 -0.0024538044)
(120.0014 -0.0013550259 -0.0024412801)
(120.00153 -0.0016352991 -0.0023314948)
(120.00149 -0.0019015266 -0.0019744546)
(120.00149 -0.0019709689 -0.0019055031)
(120.00153 -0.0023279699 -0.0016393444)
(120.0014 -0.0024381111 -0.0013591119)
(120.00144 -0.002450968 -0.0012456258)
(120.00147 -0.0027834913 -0.00080913239)
(120.00097 -0.0018411408 -0.00052207502)
(120.00061 -0.0011433964 -0.00031583439)
(120.00058 -0.0011736459 -0.00022509115)
(120.00057 -0.0012136639 -6.5582119e-05)
(120.00056 -0.0012138481 7.7489892e-05)
(120.00057 -0.0011729125 0.00023733739)
(120.00061 -0.001140647 0.00032904203)
(120.00059 -0.0010027733 0.00052902949)
(120.00057 -0.0010118685 0.00056664895)
(120.00063 -0.00094352145 0.00067928215)
(120.0006 -0.00078238248 0.00079960581)
(120.00097 -0.0012822752 0.0012872513)
(120.00096 -0.0012368581 0.0013303268)
(120.00099 -0.0010543668 0.0015965393)
(120.00088 -0.00087948564 0.0016942763)
(120.00089 -0.00082148356 0.0017107121)
(120.00091 -0.00053602999 0.0019596254)
(120.00086 -0.00039411472 0.0019486741)
(120.00086 -0.00012919688 0.0019716884)
(120.00087 0.00011915369 0.0019684485)
(120.00088 0.00038283821 0.0019125968)
(120.00133 0.00058569057 0.0028587064)
(120.00141 0.00082577137 0.0028363928)
(120.00138 0.0012601861 0.0025000087)
(120.00135 0.0013729036 0.0024800387)
(120.0015 0.0016536424 0.0023592575)
(120.00146 0.0019233267 0.0019906667)
(120.00146 0.0019977922 0.0019150818)
(120.0015 0.0023666705 0.0016455223)
(120.00136 0.0024867078 0.001364987)
(120.00139 0.0025055269 0.0012520775)
(120.00142 0.0028421423 0.00081815464)
(120.00134 0.0028635462 0.00057878531)
(120.00131 0.002935526 0.00018078914)
(120.0013 0.0029390825 -0.00019161971)
(120.00132 0.0028911865 -0.00059002195)
(120.0014 0.0028877532 -0.00081756019)
(120.00138 0.0025381727 -0.0012418321)
(120.00135 0.0025126136 -0.0013502065)
(120.0015 0.0023913996 -0.0016234736)
(120.00147 0.0020182428 -0.0018879549)
(120.00147 0.0019460963 -0.00196257)
(120.00152 0.0016742802 -0.002318446)
(120.00139 0.0013876986 -0.0024312633)
(120.00143 0.0012735778 -0.0024477414)
(120.00146 0.00083387055 -0.0027814526)
(120.00138 0.00059471626 -0.0028092343)
(120.00136 0.00019856114 -0.0028786742)
(120.00136 -0.00017155928 -0.0028793751)
(120.00138 -0.00056683364 -0.0028115617)
(120.00203 -0.0008398322 -0.0040787009)
(120.00215 -0.0011925706 -0.0040448539)
(120.00211 -0.0018027244 -0.0035741693)
(120.00206 -0.0019800613 -0.003532542)
(120.00225 -0.0023891806 -0.0033776613)
(120.00219 -0.0027642092 -0.0028815043)
(120.00219 -0.0028773949 -0.0027688398)
(120.00225 -0.0033735268 -0.0023939495)
(120.00206 -0.00352876 -0.0019849767)
(120.00211 -0.0035707825 -0.0018080038)
(120.00215 -0.0040418939 -0.0011983862)
(120.00203 -0.0040763209 -0.0008460429)
(120.00138 -0.0028095558 -0.00057158996)
(120.00092 -0.0018664503 -0.00037014628)
(120.0009 -0.0019169226 -0.0001122387)
(120.0009 -0.0019168652 0.00012712379)
(120.00092 -0.0018654406 0.00038533208)
(120.00097 -0.0018383778 0.00053855108)
(120.00094 -0.0016132028 0.00084447859)
(120.00091 -0.0016145162 0.000912329)
(120.00101 -0.0015302759 0.0010992049)
(120.00152 -0.0023186242 0.0016684824)
(120.00147 -0.0019624045 0.001940379)
(120.00146 -0.0018877186 0.0020132371)
(120.0015 -0.0016228276 0.0023862451)
(120.00134 -0.0013487961 0.0025079651)
(120.00137 -0.0012396428 0.0025340094)
(120.00139 -0.00081468239 0.0028833486)
(120.00131 -0.00058598073 0.0028868619)
(120.0013 -0.00018651261 0.0029347422)
(120.00131 0.00018691458 0.0029310522)
(120.00193 0.00027901722 0.0042241136)
(120.00197 0.00086275999 0.004125727)
(120.00209 0.001216535 0.0040925158)
(120.00206 0.0018271181 0.0036186586)
(120.00201 0.0020042877 0.0035703363)
(120.0022 0.0024144981 0.0034071385)
(120.00215 0.0027924799 0.002900651)
(120.00215 0.00291007 0.0027816989)
(120.00221 0.003416892 0.0024038946)
(120.00201 0.0035790877 0.0019939559)
(120.00206 0.0036259776 0.0018165876)
(120.0021 0.0041000798 0.0012066605)
(120.00198 0.0041321096 0.00085385572)
(120.00194 0.0042300077 0.00027119847)
(120.00193 0.0042335627 -0.00027626312)
(120.00196 0.0041533523 -0.00085853086)
(120.00208 0.0041333348 -0.0012024342)
(120.00205 0.0036512611 -0.001803713)
(120.00201 0.0036011702 -0.00197736)
(120.00221 0.0034384839 -0.0023799186)
(120.00216 0.0029285819 -0.0027526914)
(120.00217 0.0028131217 -0.0028695029)
(120.00223 0.0024329462 -0.0033648826)
(120.00205 0.0020178964 -0.0035224144)
(120.00211 0.0018401824 -0.0035681176)
(120.00214 0.0012269132 -0.0040404445)
(120.00203 0.00087277967 -0.0040763392)
(120.00199 0.00029016207 -0.0041729738)
(120.00199 -0.00025812151 -0.004173663)
(120.00285 -0.00037498221 -0.0058662751)
(120.00291 -0.0012022235 -0.0057309503)
(120.00307 -0.0017036158 -0.0056821453)
(120.00303 -0.0025312919 -0.0050352663)
(120.00296 -0.00279338 -0.0049449069)
(120.0032 -0.0033661731 -0.0047284226)
(120.00313 -0.0038779061 -0.004056398)
(120.00313 -0.0040517857 -0.0038830344)
(120.0032 -0.004723754 -0.0033714732)
(120.00296 -0.0049405918 -0.0027989717)
(120.00303 -0.0050313288 -0.0025375257)
(120.00307 -0.0056784736 -0.0017105981)
(120.00291 -0.0057279761 -0.0012098883)
(120.00285 -0.0058638621 -0.00038349921)
(120.00199 -0.0041717371 -0.00026482775)
(120.00136 -0.0028777377 -0.00017649238)
(120.00135 -0.0028775532 0.00019338646)
(120.00138 -0.0028083418 0.00058910019)
(120.00146 -0.0027809254 0.00082810322)
(120.00143 -0.0024477505 0.0012677065)
(120.00139 -0.0024313611 0.0013820647)
(120.00205 -0.0035225956 0.0020103281)
(120.00223 -0.0033651896 0.0024252395)
(120.00216 -0.002869344 0.0028055086)
(120.00216 -0.0027524846 0.0029219059)
(120.0022 -0.0023791821 0.0034316638)
(120.002 -0.0019756893 0.003595053)
(120.00204 -0.0018010766 0.0036457851)
(120.00207 -0.0011988911 0.0041275926)
(120.00196 -0.00085348575 0.0041477248)
(120.00192 -0.00026981267 0.0042279085)
(120.00277 -0.00038430312 0.0059196216)
(120.00278 0.00040137858 0.0059160306)
(120.00285 0.0012297472 0.0057779392)
(120.00301 0.0017318678 0.0057285278)
(120.00297 0.002561629 0.0050793961)
(120.0029 0.0028239819 0.0049826097)
(120.00315 0.0033985117 0.004759577)
(120.00308 0.0039130057 0.0040784874)
(120.00309 0.0040906363 0.0038991746)
(120.00316 0.0047721183 0.0033849135)
(120.00291 0.0049938508 0.0028107492)
(120.00297 0.0050888378 0.0025481955)
(120.00302 0.0057382083 0.0017193243)
(120.00286 0.0057861171 0.0012184864)
(120.00279 0.0059235527 0.00039158563)
(120.00279 0.0059268142 -0.00039223782)
(120.00284 0.0058022883 -0.0012180867)
(120.003 0.0057622638 -0.0017120364)
(120.00297 0.0051081335 -0.0025329168)
(120.00291 0.0050121167 -0.0027919514)
(120.00316 0.0047901545 -0.0033588882)
(120.0031 0.0041067729 -0.0038683446)
(120.00311 0.0039307772 -0.0040445895)
(120.00318 0.0034144547 -0.0047164242)
(120.00295 0.0028361783 -0.0049350579)
(120.00302 0.0025736745 -0.0050295688)
(120.00306 0.001742527 -0.0056780431)
(120.00291 0.0012397502 -0.0057286188)
(120.00285 0.00041158179 -0.0058656593)
(120.00397 0.0005675877 -0.0079986207)
(120.00397 -0.0005270367 -0.007999267)
(120.00406 -0.0016658702 -0.0078055283)
(120.00425 -0.0023530924 -0.0077337825)
(120.00421 -0.003435381 -0.0068726537)
(120.00413 -0.0038105264 -0.0066998413)
(120.00441 -0.0045850346 -0.0064049582)
(120.00433 -0.0052582255 -0.0055225585)
(120.00433 -0.0055176628 -0.005263621)
(120.00441 -0.0063998979 -0.0045906429)
(120.00413 -0.006695011 -0.0038165209)
(120.00421 -0.0068681795 -0.0034423254)
(120.00425 -0.0077292241 -0.0023611029)
(120.00406 -0.0078015926 -0.0016749003)
(120.00397 -0.0079960475 -0.00053739448)
(120.00397 -0.0079961008 0.00055605362)
(120.00285 -0.0058637894 0.00040232479)
(120.00199 -0.0041715416 0.00028300973)
(120.00203 -0.0040751467 0.00086514464)
(120.00214 -0.0040398543 0.0012190844)
(120.0021 -0.0035680742 0.0018322276)
(120.00301 -0.0050294228 0.0025631096)
(120.00294 -0.0049354022 0.0028262746)
(120.00318 -0.0047169666 0.0034044069)
(120.0031 -0.0040445624 0.0039207994)
(120.00309 -0.0038683266 0.0040980518)
(120.00315 -0.0033582224 0.0047812806)
(120.0029 -0.0027901421 0.0050041708)
(120.00296 -0.0025298985 0.0051010754)
(120.00299 -0.0017078315 0.0057549001)
(120.00283 -0.0012119871 0.0057951587)
(120.00398 -0.0016729148 0.0078669352)
(120.00389 -0.00053437737 0.0080527261)
(120.0039 0.00055878928 0.0080494031)
(120.00399 0.0016983933 0.0078534347)
(120.00419 0.0023864847 0.0077804623)
(120.00414 0.0034719908 0.0069176193)
(120.00407 0.0038477097 0.006738365)
(120.00436 0.0046245098 0.0064381304)
(120.00428 0.0053004302 0.0055476931)
(120.00428 0.0055630902 0.0052829347)
(120.00436 0.0064539906 0.0046072936)
(120.00407 0.0067525619 0.0038309709)
(120.00415 0.0069295301 0.0034550455)
(120.0042 0.0077925927 0.0023707255)
(120.004 0.0078636693 0.0016843464)
(120.00392 0.0080587939 0.00054670076)
(120.00391 0.0080616375 -0.00054398775)
(120.00399 0.0078758468 -0.0016800784)
(120.00419 0.007809702 -0.0023609911)
(120.00415 0.0069441397 -0.0034377209)
(120.00407 0.0067674073 -0.0038099646)
(120.00437 0.0064684999 -0.004579302)
(120.0043 0.0055767082 -0.0052503938)
(120.0043 0.0053151429 -0.0055113829)
(120.00439 0.0046378576 -0.0063940969)
(120.00411 0.0038581789 -0.0066905677)
(120.0042 0.0034824123 -0.0068676027)
(120.00425 0.0023961356 -0.0077302138)
(120.00405 0.0017075015 -0.0078033658)
(120.00547 0.0022680086 -0.010256192)
(120.00537 0.0007570885 -0.010528123)
(120.00537 -0.00071296661 -0.010528562)
(120.00547 -0.0022226063 -0.010257919)
(120.00568 -0.0031326712 -0.010159654)
(120.00564 -0.0044811113 -0.0090606672)
(120.00555 -0.0050082867 -0.0087504279)
(120.00584 -0.0060208196 -0.0083657449)
(120.00576 -0.0068678126 -0.0072552168)
(120.00576 -0.0072501544 -0.0068731471)
(120.00584 -0.0083603617 -0.0060262843)
(120.00556 -0.0087451725 -0.0050142233)
(120.00564 -0.0090555559 -0.0044883205)
(120.00569 -0.010153898 -0.0031414093)
(120.00548 -0.010252569 -0.0022327909)
(120.00538 -0.010523814 -0.00072524345)
(120.00537 -0.010524323 0.00074293217)
(120.00547 -0.010253389 0.0022522553)
(120.00405 -0.0078015609 0.0016949618)
(120.00291 -0.0057271983 0.0012298423)
(120.00306 -0.0056774674 0.0017322734)
(120.00424 -0.0077295777 0.0023830178)
(120.00419 -0.006867329 0.0034686128)
(120.00411 -0.0066910636 0.0038453269)
(120.00438 -0.0063949864 0.0046248754)
(120.00429 -0.0055116226 0.0053021778)
(120.00428 -0.0052507322 0.0055654174)
(120.00436 -0.004578854 0.0064570472)
(120.00406 -0.0038082092 0.0067572014)
(120.00413 -0.0034344874 0.006935187)
(120.00417 -0.0023562367 0.0078004623)
(120.0056 -0.0031351946 0.010223098)
(120.00539 -0.0022275889 0.01031832)
(120.00529 -0.00071849566 0.010583215)
(120.0053 0.00075003792 0.010580287)
(120.0054 0.0022604182 0.010307667)
(120.00562 0.0031716926 0.010207941)
(120.00557 0.0045242211 0.0091073989)
(120.00549 0.0050523128 0.0087905166)
(120.00579 0.0060676661 0.0084013299)
(120.00571 0.0069175735 0.0072834938)
(120.00571 0.0073028212 0.0068956353)
(120.00579 0.0084211767 0.0060460986)
(120.0055 0.0088082519 0.0050313075)
(120.00558 0.0091222063 0.0045029795)
(120.00563 0.01022291 0.0031520748)
(120.00542 0.01032028 0.0022430362)
(120.00532 0.010591777 0.00073527632)
(120.00532 0.010594134 -0.00072995597)