/*--------------------------------*- C++ -*----------------------------------*\
  =========                 |
  \\      /  F ield         | OpenFOAM: The Open Source CFD Toolbox
   \\    /   O peration     | Website:  https://openfoam.org
    \\  /    A nd           | Version:  7
     \\/     M anipulation  |
\*---------------------------------------------------------------------------*/
FoamFile
{
    version     2.0;
    format      ascii;
    class       volScalarField;
    location    "270";
    object      alphat;
}
// * * * * * * * * * * * * * * * * * * * * * * * * * * * * * * * * * * * * * //

dimensions      [1 -1 -1 0 0 0 0];

internalField   nonuniform List<scalar> 
25278
(
7.92098
7.8133691
7.8441884
7.8441684
7.7237105
7.8133779
7.9007519
7.9209629
7.9007828
7.8173404
7.870309
7.8958353
7.8574224
7.8183781
7.1267516
7.8440973
7.813319
7.2811157
6.824079
7.3637043
7.6322782
7.7165182
7.78206
7.8252433
7.7059315
7.8252058
7.7820486
7.6467801
7.585068
7.6244527
7.5271761
7.481898
7.1565433
7.3798042
7.4167924
7.3740325
7.4091552
7.3277098
7.2918993
7.0519168
7.1964682
7.234513
7.1073912
7.1484314
7.3674489
7.5766363
7.7647641
7.6847244
7.4854904
7.4260585
7.3493521
7.2816311
6.6715912
6.8932988
7.2026135
7.2457842
7.1579113
7.1115746
6.7466957
6.90211
6.9626143
6.8216961
6.7016642
7.0929875
7.0388273
6.9962606
7.0515378
6.6315676
6.5403547
6.6175822
6.0670177
6.2903583
6.5349722
6.7675226
6.9828856
7.1326981
7.4174814
7.6248319
7.7167554
7.653805
7.597099
7.1318901
7.2845561
6.8430871
7.5403117
7.4718849
6.5902883
5.6684415
6.2487999
6.8134935
6.8607244
6.2739737
6.2344188
5.1670601
5.271598
6.2876631
6.4261768
6.9584771
6.9872102
6.4512417
6.4127434
5.3992274
5.5353651
6.4626048
5.8645878
5.8459224
5.7013946
4.1249863
4.0410371
3.1338311
5.1508587
5.1347058
3.1093093
3.1010307
4.2300007
4.3479851
3.0953168
5.2573314
5.2850459
5.2809007
6.8403797
7.5400421
7.7235754
6.2185287
5.1440357
4.0265416
3.1254066
5.1454192
6.5870188
7.4715063
7.596835
7.6537733
7.2822701
7.1273622
6.2376457
5.6587382
5.6914913
5.128089
3.099112
4.107046
4.2102326
3.0885097
3.0801414
5.250117
5.8535195
5.8356584
6.4165123
6.2756278
5.2472112
6.2570152
7.1196151
6.8056625
6.8535609
6.9528813
7.2763176
6.9820619
6.4535416
5.5128547
4.3254148
2.588326
1.1872988
1.1947422
2.6088456
4.2904004
5.8235168
5.8081897
5.2195498
5.183925
2.9654856
2.9865684
4.1766412
2.5509092
1.2324708
1.1270951
0.40995766
0.45712783
1.2978416
1.2913843
0.47117613
0.42391272
1.1285766
1.2302341
2.5335289
4.1341147
5.3738222
6.3982849
6.4362748
5.7895905
4.2425543
2.8807249
2.9117352
5.1545667
6.8036222
5.7742094
5.1135362
5.3122305
2.8659039
1.031068
0.38329506
0.36950447
1.025956
2.9625801
5.381297
5.9923735
6.604515
7.0775903
7.3803086
7.5854204
7.4846816
7.5280838
7.3763214
7.1618857
7.200298
7.2376099
7.4102455
7.3302869
7.295847
7.0588242
7.1128579
7.1523991
7.2811888
7.4774198
7.6650579
7.7648744
7.6870954
7.4981294
7.4775045
7.5971957
7.5767911
7.442469
7.4560419
7.3004844
7.1841252
7.3824135
7.3689748
7.2939144
7.4867853
7.6849271
7.6329344
7.3684614
7.4285987
7.2089106
6.908055
6.9146986
6.972901
7.2496752
7.1644219
7.120529
6.7650981
6.8370356
6.7214892
7.1015856
7.3527506
7.2881156
6.6945494
7.0498956
6.641742
6.5665306
7.0070001
7.0593875
6.6516074
6.7196626
6.783986
6.8910167
7.0187404
7.0580874
7.3097602
7.2322063
7.214564
7.1567011
7.4203935
7.442943
7.5089733
7.3391878
7.410153
7.418795
7.4893149
7.3413521
7.3293973
7.2104033
7.2303033
7.1123985
7.348875
7.2768687
7.2671071
6.975409
7.0877606
6.9417774
7.016681
7.0916437
7.1472847
7.2475899
7.4979722
7.6868208
7.6645571
7.4765688
7.4416653
7.455963
7.3809759
7.1816822
7.2994063
7.2787408
7.0839327
7.2059091
7.1145462
7.056637
7.0323389
7.0061522
6.8361455
7.0334735
6.7373426
6.6845872
6.3723681
6.4715985
6.0229655
6.4356353
6.7406661
7.0378113
6.986826
6.6150694
6.6890634
6.3878814
6.7781015
6.8452062
6.484216
6.0352251
5.926555
6.3585434
5.7094591
5.9116825
5.3369724
5.4843208
5.8784757
6.1013339
6.3311848
6.5199736
6.7084262
6.8653212
6.8928781
6.7889127
6.9464523
6.9189456
6.7495268
6.5677078
6.604787
6.7410847
6.8083862
6.8372774
6.7688358
6.9209078
6.9363
7.0700524
6.9904442
6.9757399
6.8170666
6.8386547
6.6625989
6.7891695
6.6095149
6.5889223
6.5534238
6.39807
6.3473901
6.1212953
6.1683295
6.3707897
6.5084641
6.8113823
7.0855602
7.1151942
6.8394007
6.7746589
6.9257001
7.0597521
7.0365761
7.0111205
6.8720017
6.8974834
6.7978056
6.9533295
6.9268069
6.7599162
6.5807786
6.7151218
6.7470313
6.5617699
6.5277097
6.3639354
6.4120533
6.6160386
6.6465064
6.8241811
6.9814975
6.9942957
7.0722547
6.9398589
6.8450163
6.6704743
6.7935846
6.6152181
6.595171
6.4456297
6.4731327
6.4983456
6.6443977
6.8894653
6.9015536
7.1638748
7.1149334
7.0994857
6.9706689
6.9615634
6.864336
6.8791083
7.0243957
7.0431449
7.049361
7.1220333
6.9959868
6.9877239
6.8946132
6.9071158
6.7418423
6.8562214
6.8441878
6.8289956
6.8158685
6.6913425
6.709237
6.5181988
6.6552526
6.6771802
6.6873433
6.5555123
6.5371733
6.7253081
6.6085043
6.7993338
6.9700907
6.9512707
6.7817282
6.7644354
6.7434187
6.9183786
6.9030612
6.8730466
6.8423098
6.6331579
6.5552707
6.0326863
6.0558454
6.1558482
5.7981773
6.4148163
6.3236752
5.6682306
4.8773129
5.4436685
4.5074809
4.7038476
4.8403152
5.5538515
4.9976241
4.0586778
3.9020421
3.0141105
4.2648549
5.3057831
6.1132827
5.4545624
5.9800033
6.085571
6.2141182
5.4356815
5.1718609
5.0303436
3.7763242
3.1130676
2.149482
2.144443
3.0810609
4.36371
3.833124
4.4420865
4.6680777
4.9379822
5.2064598
5.4704
5.70727
5.9349401
6.1377503
6.3384363
6.3780931
6.145811
6.1055268
5.8709675
5.9308793
6.183096
6.222222
6.4150988
6.5585885
6.4090573
6.4335954
6.2419404
6.4623229
6.4328031
6.6351561
6.5011557
6.7091092
6.8952919
7.053073
7.3071545
7.2896334
7.2106499
7.2291657
6.9300924
6.8789505
7.0104739
6.8314673
6.6145721
6.3844963
5.7399705
6.1246458
6.020476
5.60577
5.2172943
5.3493854
6.1718909
6.0416634
5.930285
4.9370715
5.0791984
3.6673162
4.2140468
4.9053014
5.5114463
5.399013
4.443013
4.7849905
3.8035368
4.6676869
4.801924
3.9516234
2.8935508
2.848893
4.1240566
3.6229943
1.9738326
1.9450092
2.5913763
3.4553354
4.2886967
4.9553325
5.5315298
5.9684464
6.3372824
6.7044375
7.1126299
7.4186261
7.4423014
7.508558
7.5967968
7.4769767
7.4892667
7.4181113
7.4087314
7.2089457
7.3290976
7.3411355
7.229429
7.110939
7.3480247
7.3370527
7.2654706
7.2755226
7.0002271
6.969062
7.0846738
6.9366815
7.0129607
7.0894596
7.1460542
7.1638142
7.1136015
7.0978744
7.0219695
6.87569
6.9680965
6.9587461
6.8587061
6.6855302
6.812688
6.8879275
6.9002043
6.8425865
6.9865601
6.9951041
7.1210852
7.0477749
7.0403284
6.8918602
6.905222
6.7390725
6.8547467
6.6853619
6.6737754
6.6514304
6.8254511
6.704383
6.5121125
6.48887
6.639065
6.4638807
6.6081839
6.6349195
6.5034658
6.4794494
6.2982657
6.2714273
6.0330408
6.2502119
6.2108159
6.1884507
6.1401714
5.9163536
5.8538783
5.5858983
5.6444634
5.926997
5.654255
5.5956853
5.2728362
5.3480052
5.4014285
5.6936142
5.9601956
6.2074082
6.0020252
6.2648318
6.2236507
6.463393
6.6759504
6.8630347
6.7676398
6.731974
6.5115295
6.6363152
6.4244687
6.2686002
6.3165949
6.5600573
6.5970083
6.8041405
6.8232122
6.911684
6.7346464
6.6264599
6.5158064
6.7430668
6.7204183
6.6807473
6.6407794
6.5448028
6.5867108
6.321678
6.4399383
6.3893288
6.2604777
5.9427727
6.1092046
6.159702
6.0003913
5.6235543
5.8352372
6.0372531
5.9710848
6.1727239
5.9059988
5.9541669
5.7232281
5.6604913
5.2988683
5.6001566
5.6606283
5.3782093
5.4362223
5.7762811
6.0841867
6.3572533
6.3935968
6.5305479
6.2999672
6.1259897
5.9399971
6.2491537
6.2067769
6.4804401
6.3675178
6.6318755
6.6564773
6.4059263
6.1023771
6.0532405
5.6844468
5.8887709
5.5276088
5.4643361
5.4020736
5.7684643
5.5408859
5.3267388
5.7837059
6.1469778
6.4624947
6.7684629
7.1502906
7.172789
7.1359183
6.7688457
6.8277431
6.8748967
7.2109446
7.2237606
7.1907534
7.1770427
6.820266
6.8604069
6.9105488
6.6777717
6.7392708
6.8141727
6.8872823
6.9673173
6.947503
6.8631173
6.8510041
6.6534467
6.7574354
6.7769756
6.6755939
6.6972197
6.7951056
6.8111791
6.9761111
6.8961446
6.7154229
6.6211043
6.8256748
6.7525804
6.5301662
6.5036131
6.5978846
6.5732493
6.7883184
6.7734626
6.6921254
6.7085562
6.4735445
6.4419879
6.5461306
6.2875489
6.4245668
6.5573756
6.5812979
6.4529208
6.1983143
6.3585058
6.3302953
6.1626447
5.9853939
6.0278695
6.3211849
6.1894464
6.1465165
5.7977034
5.7413737
5.5405236
5.9587373
6.302851
6.5860816
6.5579422
6.5092703
6.4362306
6.386133
6.0414049
6.110996
6.2078344
6.2586017
6.166059
6.4891208
6.5194009
6.2135989
6.1477279
6.4762525
6.4438951
6.3884575
6.3625086
6.309208
5.9293041
6.0020488
6.0375934
6.0954481
6.0616719
6.4189933
6.4518815
6.1137772
5.6798265
5.7301847
5.8294898
5.7684954
5.9030572
5.8435947
5.7041624
5.6383963
5.1128218
5.2052293
5.4060051
5.4736769
5.2772446
5.3490317
5.1951929
5.1185772
5.6643977
5.5971007
5.5433647
5.4750919
4.8683074
4.9610773
5.0434118
4.3526613
4.5950263
4.8854732
5.1843186
5.110805
4.6001508
4.9811792
5.0566721
4.6941133
4.7662194
5.2534456
5.3207456
5.5842285
5.8241023
6.041133
5.7563815
5.9965016
5.7355175
6.0072796
6.2155871
6.4381981
6.2529414
6.0091385
5.9730491
6.1922809
5.9743343
5.7023891
5.7432637
5.4475273
5.4903515
5.772781
6.0432443
6.2538398
6.4675346
6.4838527
6.2686595
6.0698816
6.3047596
6.2804917
6.0408868
5.7801309
5.8135492
6.0671914
6.2650149
6.0618702
6.0906616
6.3224378
6.5330309
6.7214458
6.6025756
6.6217877
6.5021951
6.477884
6.2291877
6.3840245
6.4076874
6.5515937
6.344224
6.5173141
6.3094428
6.2961141
6.0975568
6.2994364
6.5058164
6.5194528
6.310918
6.1197762
6.3478387
6.3273818
6.0955146
5.8443767
5.8721247
6.1161282
5.8682196
6.1146632
5.9021088
6.166883
6.1389627
6.1094084
6.0771222
5.8682708
5.908804
5.5876158
5.8340386
5.7962754
5.5386224
5.4885976
5.1864219
5.1218277
4.6902777
5.0704703
5.3987004
5.7095757
5.3421361
5.2850369
4.9356842
5.0069725
4.6236057
5.0054048
4.9355741
4.5333788
4.1024275
4.5525237
4.618952
4.1688805
4.0927031
3.5597003
3.6488654
4.1771303
4.2465949
4.6872964
5.0645185
5.1184319
5.4477175
5.12846
4.7485746
4.3144471
4.7566116
4.3141194
4.8382124
4.9136423
5.386237
5.6382318
5.690591
5.4524077
5.8504793
5.9019038
6.227909
6.3529394
6.3820837
6.2637302
5.9487902
6.1049168
6.2574313
5.9819927
5.9459802
5.6322255
5.8682004
5.5762808
5.8378825
5.8063886
5.5291273
5.5658407
5.5996428
5.3039481
5.6127429
5.3387673
5.6740662
5.4280713
5.7865727
5.7396414
6.0662858
5.5168573
5.5790461
5.150303
5.0701887
5.3687054
5.3091533
5.2475973
4.8248237
5.1836472
5.4932739
5.5353674
5.2372358
4.8672024
5.2153167
5.1673591
4.807169
4.3838675
4.4555601
4.8926972
4.4788264
4.990235
4.623392
5.1933683
5.669414
6.0606266
6.3809417
6.6444217
6.6242071
6.5623289
6.585076
6.3014097
6.2592407
6.3435734
6.0103587
5.8885675
5.945227
5.4970306
5.4216228
5.6039562
5.1123684
5.0351916
4.9604976
4.6713876
4.7507925
4.0238456
4.4433669
4.3651987
4.2914794
4.2120207
4.8146791
4.5222674
3.7922342
3.8804072
3.9471518
3.5772833
4.427409
4.507577
4.3751603
5.1139478
5.0360674
5.6116308
5.6226886
6.066338
6.4213762
6.7704447
7.1363598
7.4188039
7.6847514
7.6322579
7.2829136
6.830059
6.4281319
6.9609836
6.4236741
5.8302739
5.2363329
5.204625
5.8472222
4.3336305
3.0109322
3.0234985
4.2145669
5.4122091
5.5480004
6.4602208
6.9893886
7.2842884
6.4641127
5.8601531
4.351324
2.6441196
1.1592579
1.2616704
2.5821223
1.3173145
0.48259848
0.43551008
1.2138124
3.0904929
3.0995596
4.2350654
5.8437889
6.8403631
5.2818269
5.7704108
4.1201163
2.5275391
1.3027962
0.47722731
0.42960248
1.1975464
2.5796518
1.1029332
1.2072111
2.8886341
2.8511359
4.2265024
5.7829221
6.8016158
5.1446692
5.1026431
5.3017944
2.8300757
1.0031328
0.3885842
0.39543482
1.060239
3.0190128
5.4037111
6.6766802
7.2830915
7.3492775
7.4278251
7.3650765
6.9008558
7.1164334
7.0432139
6.9972474
7.0520866
7.0963548
6.7095119
6.6339775
6.5440725
6.6264273
6.7558607
6.8298078
7.1604366
7.248711
7.2053131
6.9098403
6.9690963
7.0165741
7.2921899
7.4860419
7.5089392
7.4422437
7.1780877
7.190964
7.2245035
7.2117133
7.1738269
7.1525199
7.1125325
6.7056604
6.7750645
6.8325241
6.8779612
6.8211584
6.8609305
6.9125151
7.0021849
7.2759659
7.2658875
7.230192
7.2124512
6.885792
6.93452
7.056341
7.3087487
7.3384924
7.3486944
7.1119508
7.0870436
6.971781
6.700154
6.6328991
6.5695782
6.5269775
6.4998861
6.498214
6.5210696
6.546427
6.524046
6.2119658
6.2413732
6.1962098
6.1643657
5.7452587
5.7934748
5.8562342
5.8096282
5.2818839
5.3558391
5.2732248
5.1949979
4.4645575
4.596026
4.8360254
4.9286895
4.2141761
4.1107836
4.528134
3.8711211
4.391957
3.8603427
3.7832765
3.7139104
4.2393112
3.7163898
3.6496812
3.5969649
3.0594653
3.098163
2.342629
3.0255582
2.9770933
2.3037876
1.7251767
1.7012278
2.5918819
3.5204659
3.3175596
4.2214507
4.16031
3.2518046
2.3080613
2.2877596
1.2954308
1.3327308
0.70369444
1.0938129
1.7345841
2.4611322
3.1000009
3.6781566
4.1477738
4.580107
4.9542651
5.3139809
5.6308806
5.6904373
5.9813012
6.2459711
6.4816342
6.689514
6.651588
6.5326972
6.7474521
6.7805275
6.5788902
6.612987
6.7190619
6.5156919
6.5436442
6.3166409
6.2834369
6.1149
6.3793056
6.3406799
6.295891
6.4432883
6.1965704
6.0087855
6.0701832
5.8850317
6.1948547
6.4651928
6.6977372
6.6596877
6.417209
6.2976626
6.5682179
6.60746
6.353105
6.3954983
6.5028394
6.7353972
6.8149749
6.8323606
6.6395374
6.4121932
6.1522789
5.9794246
6.27643
6.5336975
6.7551422
6.9372636
6.8389129
7.1767568
7.1399978
7.1178117
7.1181203
7.4200223
7.6848683
7.813265
7.8440623
7.9208121
7.9006747
7.8184592
7.7820548
7.7165974
7.6328175
7.2879967
7.3517174
7.0064778
6.6921275
6.5645005
6.650042
7.0580324
7.1001632
7.0482723
6.6390716
6.717991
6.8337918
7.1627485
7.4285985
7.367214
6.9046208
7.1186935
6.7600513
6.9115656
7.207053
7.2490897
6.9700953
7.0169663
6.8883531
6.7810136
6.7179095
6.7784274
6.7790989
6.8274665
6.8816625
7.2137704
7.2251643
6.9147593
7.0030165
6.820692
6.8913047
6.8688828
6.858389
6.6640705
6.6841161
6.7034483
6.720368
6.8135957
6.9781764
6.899034
6.8307722
6.6277388
6.607743
6.5854722
6.7960185
6.7833004
6.561751
6.4632568
6.7047226
6.6710946
6.6495182
6.57988
6.5336621
6.4900312
6.1898619
6.2465776
6.1539528
6.4625731
6.4170975
6.0881842
5.7103252
5.8460454
5.9932054
6.1471423
5.8212652
5.6137751
5.6908026
6.04735
6.0968805
6.2375408
5.9335501
5.746656
5.7983056
6.1393045
6.4290134
6.3332782
6.6042606
6.5391373
6.512068
6.2041439
6.2923107
5.957643
5.901759
5.492443
5.4151295
5.2175236
5.3059393
5.7712236
5.8308506
5.8854827
6.0061187
5.6150121
5.5545307
5.373326
5.4391817
5.2918907
5.7881302
6.1820643
6.2465538
6.2889325
6.3694054
6.6395581
6.6578639
6.7192585
6.4904423
6.5173621
6.7468695
6.7583089
6.5398989
6.2792458
6.3925403
6.5089754
6.625318
6.4137776
6.3920127
6.3695225
6.5879306
6.567295
6.3442302
6.186292
6.4402064
6.4653803
6.2160909
6.2436456
6.4868843
6.3669377
6.3398023
6.3096744
6.0193683
6.0565196
5.8926946
6.214553
6.1783729
5.8457704
5.4596057
5.6860841
5.8973739
6.0944982
6.0612193
6.0246146
5.7381214
5.7796988
5.53165
5.8567981
5.8143966
5.7648984
5.4278713
5.3503458
4.990276
5.0598774
5.3694548
5.023792
4.6681185
4.5796824
4.1855621
4.6413801
5.0624967
5.1366705
5.5292731
5.2760803
4.8109244
4.7177453
4.2278925
4.3054363
4.7074744
4.2621483
3.786188
3.6917263
3.1610392
3.7788399
4.3690864
4.4523801
5.0063842
4.7406607
4.0785114
3.9829273
3.2835545
3.339624
3.8414965
3.2234987
2.5899684
2.5288127
1.9581054
2.8300883
3.6602414
3.7366947
4.5085626
5.1501293
5.6665417
6.081682
6.4162876
6.3676703
6.0161328
5.9745355
6.3386473
6.3871878
6.0423184
6.0975685
6.1343926
6.4680789
6.4965735
6.4697708
6.4397407
6.4397204
6.385652
6.3374765
6.0818256
5.9754953
5.4469263
5.024862
5.1640919
5.419644
6.2066335
6.1045631
5.2889499
4.2394464
3.7631772
3.0940246
2.1310398
2.1210597
3.817272
4.3338735
3.0392928
2.9787785
3.8708223
4.8518469
5.6538379
6.3168436
6.0213707
6.5497392
6.6273245
6.4071571
5.7824554
6.1441472
6.0418875
5.4238882
4.4825227
4.6752487
4.8113329
4.0217655
4.9702395
5.5338993
5.6899071
5.4484898
5.1803699
4.9096185
4.6404186
4.4206591
4.2936
4.3009392
4.9686991
5.0632399
5.6033102
5.5431616
5.6071347
5.0584115
5.1300888
5.2200888
5.7284983
5.6710343
5.731868
6.1446076
6.1913051
6.2260467
6.5380096
6.5780543
6.5980073
6.3243065
6.4013105
6.4328037
6.6864579
6.7005718
6.4591812
6.390389
6.646106
6.6306479
6.358678
6.0327665
6.1344677
6.2471755
5.935015
6.0903966
6.1221623
6.2685194
5.9973419
6.1750221
6.1503131
6.1234886
5.8517248
5.8164604
5.5765694
5.6190114
5.9329033
5.9658057
5.6582789
5.8827729
5.9119245
5.6941218
5.3624
5.623304
5.5890133
5.5524435
5.513237
5.4704478
5.423456
5.0819596
5.1342041
4.791164
5.1736516
5.1188593
5.4808781
5.199007
5.5867637
5.6373906
5.2564794
4.9484836
5.3996248
5.3400805
4.8794144
4.3775273
4.7753804
4.8388032
4.3972775
4.330041
4.7303311
4.3211553
4.7080963
4.6435318
4.2259553
3.8136848
4.2527509
4.1760582
4.0173757
3.890403
2.7170406
2.9220537
3.0412529
2.2130332
3.1093063
2.9852362
2.089644
1.190739
1.8123074
1.8114587
0.76720739
0.86924514
0.45825506
0.40846983
1.2054247
0.63684974
1.2482058
1.9380952
1.9271096
1.0947409
1.2292459
0.50442782
0.96308597
0.85778927
0.45252704
0.2533335
0.28003067
0.6677162
0.26798177
0.24279312
0.22848497
0.23683745
0.24602282
0.28448673
0.47417195
0.89829651
2.0245324
3.6622712
4.9567261
5.9401396
6.0502524
6.1909094
6.0842914
5.259108
5.3930673
5.1009505
3.7140907
4.2997152
4.1972905
2.9510302
3.0164692
2.0089249
2.3505775
3.2864929
4.1845037
4.8830142
5.4849639
5.9340408
6.3126025
6.3640578
6.3977317
6.3455116
5.9837828
6.0528691
6.0057009
5.5520478
5.6225062
5.5552409
4.9963584
5.0862383
4.9770254
5.0538087
5.1317586
5.6880291
6.1184221
6.4525696
6.4826312
6.4514024
6.110033
6.1602664
6.2310536
6.526834
6.4991812
6.4468741
6.3990671
6.4766596
6.5225618
6.2300569
6.129855
6.0615308
6.1690726
5.8195358
5.6725722
5.7379355
5.8781371
5.4604671
5.2584961
5.165191
5.3800735
5.5907632
5.9744977
6.2824132
6.557502
6.4016759
6.3082966
6.0164052
6.5486932
6.6268987
6.1482643
5.7763923
5.6442881
6.0451546
5.4368035
4.847783
4.4926187
3.8833334
4.0403794
4.9712469
5.5476507
4.8438357
4.7070105
5.351868
5.9296433
6.3849947
6.7752199
7.0558002
7.2947371
7.527632
7.7165486
7.7647804
7.5768329
7.5969511
7.6870015
7.7059819
7.6647896
7.6245647
7.6469772
7.5852906
7.4829697
7.1591344
7.375377
7.4175403
7.4097123
7.3290511
7.1106165
7.2363954
7.198396
6.9872779
7.1340793
7.0377339
6.8423593
6.4820486
6.7411012
6.6899556
6.6124817
7.0793759
7.3800525
6.6155992
5.7207653
6.3657041
6.4403201
6.0365725
5.4967355
6.0360084
5.9284372
6.3860827
6.6911605
6.7415007
7.0376169
6.9864305
6.7765538
6.8432528
6.4818346
6.5280857
6.8119095
7.207088
7.0856333
7.0101526
7.1505367
7.3684465
7.3818104
7.4559196
7.4771851
7.441718
7.2802688
7.3003623
7.1828368
7.2095891
7.4094437
7.4182981
7.4892362
7.498034
7.4765584
7.3294861
7.3410672
7.2292139
7.0421902
6.9694739
6.8903453
6.8187329
6.7444583
6.6833196
6.6264647
6.5885396
6.5649298
6.5635494
6.5841273
6.6209245
6.6392124
6.6933888
6.4474455
6.4156047
6.3416031
6.3768195
6.3249893
6.6038769
6.5846915
6.2982765
6.2566725
6.2847595
5.9172215
5.9997968
6.1072099
6.150991
6.0512102
5.6461763
5.7924211
5.7314749
5.5711736
5.4404776
5.52476
5.9743509
5.9351922
5.8727729
5.3701298
5.4597676
4.8064243
4.9224314
5.1294863
5.356855
5.274847
5.026736
4.3324267
4.7236236
4.8294379
4.4633285
4.0829309
3.937363
4.8033094
4.6944535
4.565666
3.5898517
3.817813
3.7211174
3.6418301
3.4233822
3.3644555
4.2943705
4.3241658
4.2477827
4.4195936
4.3492132
3.5475558
3.6238652
3.3576203
3.4111962
3.4758073
4.4049402
4.5833297
5.2377332
5.7533712
5.6890061
5.1610032
5.3315209
5.80092
6.1831115
6.279436
6.5692744
6.5955078
6.3208938
5.98992
5.8596371
5.4021645
5.5903944
5.5260911
5.9355303
6.0835885
6.3851241
6.6422785
6.5977664
6.6917009
6.6521519
6.4084779
6.4572096
6.3394751
6.0306609
6.1851162
6.135382
5.8083102
5.8721062
5.6691657
5.7288134
5.783615
6.1282827
6.421865
6.6644898
6.7514714
6.7293237
6.4964267
6.5287777
6.6355752
6.8286596
6.8110878
6.7752521
6.741726
6.8387472
6.8702641
6.6864773
6.5725306
6.5248991
6.6471296
6.4397862
6.288737
6.3350898
6.4768735
6.2426423
6.0633755
5.9996761
6.1923088
5.9311434
5.6984581
5.4538545
5.178042
4.8935093
4.601791
4.6788524
4.9656888
4.4051294
4.0026698
3.9037534
4.3182748
3.7289467
3.2004842
2.7071399
2.7291034
2.339112
1.3400637
1.3693756
1.8503423
1.8495852
1.8488267
2.7694988
3.6913457
4.4983104
4.7584196
4.8392338
5.1154289
5.0409059
4.4830479
4.0800246
4.1643231
3.7691089
2.8200104
2.3646949
2.2913801
2.6313566
3.1977087
3.7871251
3.1318892
3.0751436
2.3565373
3.1426195
2.6084668
2.2859899
1.2428036
1.6699613
1.6354298
2.3758719
2.4033672
3.2664872
3.3548022
3.9666463
3.2801887
3.9443703
4.0374889
4.5690406
4.9616138
5.2877955
4.924073
5.2597253
4.9262091
5.2710101
5.2275466
5.1820498
4.8473634
5.2246369
5.2730496
4.9015083
4.9537548
5.3177342
5.0210201
5.4157962
5.7732957
5.730413
5.3641686
5.3110418
5.015714
5.0832043
5.5152102
5.5698682
5.6209484
5.8118754
5.4634923
5.2138471
5.1484807
4.6779593
4.5994526
4.9602248
4.9001701
4.4632786
4.5293646
4.0837266
4.0024918
4.5226226
4.4486687
3.9268134
3.8552178
3.2860766
3.9152839
4.5267278
5.0787063
5.1477186
4.6027535
4.2312286
4.8905796
4.8148936
4.1511891
3.4019927
3.4730631
3.9917547
3.3543797
2.6780872
2.6285308
1.9620989
2.8958754
3.8026341
4.5842778
4.6618859
3.8766422
3.6310534
4.5133275
5.2010015
5.275133
5.362213
5.5040903
5.6715451
6.0517566
6.0939003
5.7263624
5.5683393
5.9845933
5.9356407
5.8443005
5.8989588
6.2654223
6.5596773
6.5357989
6.5120974
6.5126044
6.8261036
7.1799446
7.1798761
7.1921991
6.8640278
6.5949842
6.6122458
6.3387349
6.3038421
6.2744635
6.5723779
6.5910016
6.3104227
5.9576408
6.0009565
6.075709
6.1711956
5.8293569
5.9736613
6.0111923
6.1502944
6.2920854
6.4327584
6.5727728
6.7097734
6.9427606
7.2944332
7.5442587
7.7199254
7.7608282
7.8703078
7.9138017
7.9366849
7.9137753
7.8174921
7.8655391
7.8173597
7.7200541
7.7403496
7.5610752
7.5439259
7.5116653
7.6351126
7.650876
7.5360881
7.5184813
7.3752304
7.3679554
7.2502451
7.4434981
7.4477695
7.2657731
7.2834675
7.3981664
7.4070912
7.5461729
7.4753243
7.4692781
7.4015887
7.5651804
7.7480784
7.7974492
7.6045892
7.6887387
7.7742622
7.7982309
7.625585
7.6064662
7.5678153
7.5732774
7.4383237
7.4322614
7.3157462
7.4980481
7.4997803
7.3290969
7.3457363
7.461024
7.5892677
7.7083478
7.5920298
7.46904
7.5185859
7.5191052
7.4473518
7.6232903
7.4422602
7.2304704
7.2156558
7.4296785
7.4289864
7.4068415
7.1862258
7.2978403
7.1914755
7.2402568
7.3241107
7.5607671
7.7401995
7.6507535
7.6348703
7.5115354
7.5187763
7.4478791
7.4430639
7.2499326
7.3679993
7.3748524
7.2656984
7.2837477
7.469634
7.5360144
7.5462338
7.475352
7.2987035
7.4068262
7.3977579
7.2268278
7.2027515
7.1898223
7.1364039
7.1421064
7.0699849
7.064323
6.9196282
7.0126234
7.0179638
6.9303421
6.9431661
7.0851615
7.1541767
7.1602092
7.0899008
6.952975
7.0383044
7.0323158
6.8943246
6.948899
6.9411932
6.8724408
6.8810423
6.7680913
6.7538786
6.5705534
6.7080545
6.7149161
6.5853222
6.6006489
6.7807566
6.793654
6.9032367
6.7396107
6.7315945
6.5680927
6.6919576
6.9489305
7.2031648
7.1898488
7.1370693
7.142583
7.0188905
7.0130712
6.921046
7.0655448
7.0702832
6.9311958
6.9435274
7.033314
7.1544741
7.1605007
7.0390167
6.9531083
7.0898277
7.084967
7.0163651
7.1519187
7.379259
7.5500369
7.3744708
7.1334359
7.028485
7.3065022
7.3096076
7.0483018
7.0680359
7.1695165
7.0368369
7.105235
7.1739174
7.2262016
6.9866988
6.9923836
6.93861
7.0735176
7.0590457
7.1782967
7.109074
6.9741752
6.9644897
7.0546981
6.9192658
6.9035829
6.8942376
6.882112
6.8729178
6.7561305
6.7691822
6.5868625
6.7159484
6.7337412
6.7408015
6.6151824
6.7934093
6.7813232
6.6009158
6.4011212
6.5683373
6.5506305
6.6710678
6.5395158
6.5494816
6.3825768
6.3640412
6.1395578
6.3381916
6.3469466
6.1592013
6.1793329
6.3992513
6.4150781
6.6135548
6.6285407
6.8059082
6.96457
7.1048427
7.1736437
7.1788678
7.1084704
6.973787
7.058788
7.0540728
6.918862
6.9863514
6.9922933
7.2398328
7.1910321
7.1961363
7.1266444
7.1226512
6.9848631
7.0731803
7.078266
6.9934539
6.8391965
6.9464272
6.9374655
6.9260332
6.8164854
6.6399759
6.7646719
6.7593919
6.5965196
6.7238937
6.7410013
6.6205443
6.7811473
6.7872954
6.6641804
6.651881
6.8271163
6.7209409
6.89679
7.0546388
7.1859872
7.4066864
7.564909
7.7480271
7.7973256
7.8655169
7.7741349
7.688465
7.5675912
7.6061974
7.5727563
7.4992718
7.4979511
7.3155063
7.4322618
7.4377586
7.3284852
7.369005
7.2641472
7.2748759
7.2248546
7.2131952
7.2094855
7.1409939
7.1432491
7.0124606
7.0967387
7.0935842
7.003803
6.8503094
6.9613852
7.0294108
7.0334751
6.9790351
7.1100937
7.1132061
7.2275029
7.1572974
7.1562431
7.0219271
7.0287761
6.8789583
6.9854907
6.830783
6.8266094
6.8106352
6.9674006
6.8597938
6.6878199
6.6762979
6.8066659
6.6471395
6.7715961
7.0295661
7.2641803
7.275576
7.0340536
6.9793923
7.1105281
7.2248621
7.2132104
7.2096444
7.195975
7.0786714
6.9944312
7.1267302
7.1230051
6.984649
6.8289226
6.8168322
6.9259638
6.7658238
6.7603345
6.6288438
6.8056088
6.6979128
6.8762427
6.8639418
7.0210398
6.9475476
6.9419885
6.9247704
7.0006265
6.9947484
6.8283157
6.8404599
6.7504257
6.7357428
6.9185761
6.8509581
6.8583748
6.6626422
6.6458734
6.5621539
6.7816898
6.7898733
6.5801108
6.5986091
6.6784251
6.7641003
6.8524392
6.6714406
6.6566863
6.6414097
6.5279609
6.5454053
6.3129684
6.4499078
6.4666061
6.4813757
6.6836252
6.5770857
6.7761017
6.6919509
6.882174
6.8752864
6.8103164
6.8162515
6.6131097
6.3731585
6.4712119
6.4538438
6.560486
6.3317955
6.3490382
6.2196696
6.1982907
6.1752849
6.4349926
6.4145592
6.3062571
6.3310691
6.0427457
6.0713389
6.3520253
6.2619497
6.5265114
6.756658
6.9660647
7.2600249
7.4890621
7.5007886
7.2848788
7.3341915
7.3372388
7.0841881
7.0044817
7.2878557
7.2570806
7.2544443
7.2282634
7.2249801
7.2556082
6.9428586
6.896132
6.9204506
6.9427201
6.9864727
6.7835683
6.8349061
6.8988613
6.963908
6.9678406
7.0412593
6.8867426
6.8000978
6.7886775
6.5906165
6.6038415
6.7094266
6.509797
6.640267
6.6534923
6.7817452
6.7882287
6.9466359
6.839089
6.6646698
6.4707627
6.6289143
6.6204772
6.6045206
6.5968085
6.5780429
6.3785458
6.3710607
6.3470832
6.3390561
6.5401442
6.3675465
6.3834078
6.160918
6.1413858
5.8981804
6.1422713
6.1580908
5.9184426
5.8941262
5.6308072
5.6588883
5.9203787
5.9428423
6.1797799
6.3707962
6.3784041
6.5759511
6.1958306
5.960676
6.1924855
5.9615549
6.196062
6.4153796
6.4310449
6.4439315
6.2278648
6.4069341
6.4020145
6.212541
5.9796256
6.2127241
6.4023269
6.4068886
6.6031133
6.4437363
6.4293136
6.2132915
6.2275424
6.2429038
6.4571233
6.4701649
6.6276972
6.4336664
6.4281582
6.2426137
6.4293049
6.4339195
6.2564505
6.2422829
6.4569204
6.3006365
6.5225237
6.7214167
6.8976492
7.0550713
7.0596188
6.9072105
6.8216955
6.9857711
6.9828924
6.8108779
6.6160128
6.6279237
6.7325689
6.5353512
6.4074974
6.393435
6.3796009
6.3646212
6.4947186
6.2702937
6.2536433
6.2364523
6.2179946
6.197263
5.9384508
5.9620509
5.7577727
6.0495353
6.0238639
5.7265796
5.401407
5.654504
5.6830051
5.3818865
5.3476342
5.3106898
5.0031771
4.6607077
5.0766757
4.7545948
4.2535412
4.1668611
4.5943996
4.1540521
4.5638217
4.5043694
4.8736117
4.8213636
4.7659484
4.3572152
4.2922686
3.881333
3.9476157
4.3830393
3.9462368
3.8782667
3.8089013
3.7426972
3.2827957
3.7191122
3.2487228
3.3223561
3.7423066
3.1705822
2.7544658
2.6726206
2.2992689
2.8268122
2.8873248
3.3580963
2.8284576
3.2846745
3.2103404
2.7441455
2.3323907
2.3981729
1.9477263
2.3651541
2.4231002
2.8134105
3.232192
3.8115667
3.879158
3.2965055
2.8754136
3.4565144
3.3887465
2.9530924
3.4259095
3.4930395
2.9522293
3.4178063
3.3498439
2.8882347
2.4561403
2.5162128
3.018552
2.4828527
2.0518389
1.99759
1.4778814
1.8094868
2.1282785
2.5305601
2.4894476
1.740727
1.3659999
2.0882392
2.0522312
1.3436018
0.76218155
0.72635965
1.0419818
0.63283901
0.35636055
0.40139204
0.28083407
0.61447487
1.1105921
1.7352714
1.7675452
1.1318403
0.91439973
1.4408101
1.4021432
1.8781213
1.4249881
1.7915445
2.1538319
2.6142797
2.6538286
2.1952239
1.4825385
1.9344326
1.9146096
1.4550932
1.1739731
1.1960215
1.8247317
1.4642291
0.9498034
0.92379352
0.53415626
0.66156932
0.84591636
1.2603405
1.2177071
1.9603037
2.8532912
2.5147583
3.5102069
4.3637987
4.4361908
3.5653005
2.5311571
2.5564959
2.9461464
1.9701358
1.42681
1.4589506
1.4959252
1.5171309
2.5170921
3.4358973
3.4256306
3.4973839
4.3554147
5.052666
5.6032776
6.0398171
5.9712243
6.0116024
6.3647249
6.4130296
6.076728
6.1306476
6.0948282
6.1429965
6.4678166
6.4938904
6.4639406
6.5088682
6.8359133
7.1755757
7.138429
7.1546046
7.2140726
7.4864892
7.509134
7.4425763
7.1918286
6.8632827
6.913416
7.2243885
7.2125619
6.8788936
6.973715
7.2666745
7.2308187
6.9352046
7.0564829
7.3089185
7.2919668
7.3686934
7.5768933
7.7647308
7.5969881
7.4098662
7.3384606
7.3487771
7.2759934
7.001884
7.1113206
7.0867874
7.2094386
7.1820253
7.3810458
7.4562127
7.4771752
7.4418696
7.4096988
7.3287716
7.5272576
7.4836073
7.1591379
7.2946369
7.055676
7.1101944
7.2359254
7.4161027
7.3747948
7.1976302
6.9850515
6.7731169
6.6071802
6.3777982
6.4758852
6.8405513
7.0358079
7.1302297
6.6832677
6.7352017
6.4262744
6.0204145
5.910299
5.6882457
5.3109547
5.4605519
6.0050696
5.8917209
6.3471288
6.6772806
6.5926926
7.073716
7.3790523
7.6468098
7.5852986
7.6245652
7.6648774
7.7058992
7.6868713
7.4980822
7.4769762
7.4892468
7.4182411
7.2292696
7.34125
7.3288449
7.2994524
7.27998
7.1496315
6.9245854
6.8385063
6.7428014
6.6551794
6.562769
6.484936
6.4124934
6.4575013
6.1455144
6.0798745
6.1807703
6.2384612
6.5289127
6.5750889
6.6001682
6.5346402
6.240717
6.1767323
5.7796306
5.7281809
5.6669567
5.1239799
5.195421
5.2759677
5.2054773
5.7194157
5.6571744
5.5949963
5.5388899
4.9622277
5.0501308
5.1351762
5.2863821
5.7584907
5.696719
5.1971379
5.396126
5.8324013
5.8886573
5.4723276
5.5358337
5.3533017
5.8178473
6.195179
6.2854591
6.3251277
5.9945767
5.8726594
5.419376
5.5951293
5.6534278
5.4847458
5.3462213
5.268487
5.7872843
5.7898492
5.8479636
6.2316688
6.2319486
6.5346044
6.557182
6.5346054
6.2220679
6.1878348
6.2619381
6.3014598
6.272553
6.5717294
6.5903025
6.3090839
6.3357885
6.6098119
6.5915188
6.6285703
6.5940599
6.5746323