/*--------------------------------*- C++ -*----------------------------------*\
  =========                 |
  \\      /  F ield         | OpenFOAM: The Open Source CFD Toolbox
   \\    /   O peration     | Website:  https://openfoam.org
    \\  /    A nd           | Version:  7
     \\/     M anipulation  |
\*---------------------------------------------------------------------------*/
FoamFile
{
    version     2.0;
    format      ascii;
    class       volScalarField;
    location    "270";
    object      nut;
}
// * * * * * * * * * * * * * * * * * * * * * * * * * * * * * * * * * * * * * //

dimensions      [0 2 -1 0 0 0 0];

internalField   nonuniform List<scalar> 
25278
(
6.7476598
6.6560781
6.6822502
6.6822377
6.5794949
6.6561073
6.7304724
6.7476483
6.7304836
6.6596347
6.704683
6.7263555
6.6935831
6.660247
6.0711277
6.6821714
6.6560303
6.2026194
5.8132581
6.2729513
6.5018678
6.5736006
6.6294088
6.6662939
6.564867
6.666273
6.6294099
6.514333
6.4614299
6.4953233
6.4126728
6.3738273
6.0971959
6.2870544
6.3188194
6.2819232
6.3120597
6.2429881
6.2123093
6.0083792
6.1312819
6.1638984
6.055525
6.0908064
6.2770024
6.455026
6.6148599
6.5467771
6.377433
6.3265206
6.2612135
6.2030759
5.6839473
5.8728533
6.1359854
6.1730866
6.0983663
6.0585932
5.7483809
5.8805503
5.9322487
5.8122202
5.7099405
6.042967
5.9963982
5.9601921
6.0076921
5.6502105
5.5724207
5.6381435
5.1684338
5.3591509
5.5673472
5.7657618
5.9487446
6.0768426
6.3194109
6.4956547
6.5738194
6.5199968
6.47155
6.0755245
6.2055664
5.8294871
6.4233827
6.3649243
5.6142276
4.8291838
5.3234721
5.8041823
5.8446637
5.3451682
5.311192
4.4022595
4.4912266
5.3568578
5.4744054
5.9275325
5.9523459
5.4960588
5.4629384
4.5997021
4.7156721
5.5057623
4.9964308
4.9802122
4.8575368
3.5148156
3.4433429
2.6704769
4.3883228
4.3748533
2.6494426
2.6420516
3.604077
3.7045868
2.6370242
4.4789898
4.50233
4.4988355
5.8272307
6.4231721
6.5793895
5.2977527
4.3827237
3.4310519
2.6633187
4.383704
5.611477
6.3646158
6.4713457
6.5199951
6.203679
6.0717195
5.3140343
4.8209692
4.8491878
4.3692442
2.6407838
3.499613
3.587341
2.6314221
2.6241508
4.4728996
4.9871113
4.9715511
5.4662719
5.3467122
4.4705527
5.330861
6.0651312
5.7975688
5.8386546
5.922839
6.1986237
5.9480679
5.498182
4.6966456
3.6854805
2.2064074
1.0123736
1.018645
2.2237798
3.6554782
4.9613967
4.9480193
4.4464406
4.4163716
2.5263713
2.5444501
3.5585591
2.1741762
1.0507028
0.96092036
0.35010418
0.390201
1.1064991
1.1010427
0.40218762
0.36199727
0.96221573
1.0488322
2.1594671
3.5224841
4.5781778
5.4507431
5.483469
4.9326704
3.6149103
2.4541756
2.4807456
4.3911965
5.7959328
4.9192104
4.3565258
4.525727
2.4417752
0.87930458
0.32761422
0.31589539
0.87492545
2.5240973
4.58446
5.1052826
5.6265686
6.029375
6.2874865
6.461735
6.3762352
6.4134933
6.2838787
6.1017716
6.1345529
6.1665526
6.3129927
6.2452278
6.215717
6.0142916
6.0602049
6.0942205
6.2039057
6.3706904
6.5301243
6.614974
6.5488482
6.3882235
6.3708176
6.4725168
6.4552102
6.3406688
6.3522287
6.2203429
6.1213612
6.2898128
6.2783497
6.2142885
6.3785789
6.5469969
6.5024618
6.2770285
6.3287208
6.1413718
5.8854594
5.8913
5.9410404
6.1764243
6.1039832
6.0662915
5.7641154
5.8253273
5.726894
6.0503402
6.2641827
6.2086663
5.7035886
6.0058738
5.6587875
5.5948302
5.9694352
6.0144774
5.6673683
5.7257686
5.7805342
5.8716977
5.9804253
6.0141408
6.2278717
6.1619862
6.1468649
6.0974611
6.3221278
6.3413285
6.3974623
6.2532174
6.3136682
6.3208132
6.3806691
6.2549473
6.2451252
6.1438039
6.160651
6.0604008
6.2613019
6.2000897
6.1919948
5.9439382
6.0395045
5.9152053
5.9792458
6.0426439
6.090026
6.1751802
6.3880803
6.548602
6.5296858
6.3699559
6.3399791
6.352153
6.2885345
6.1192433
6.2194003
6.2018023
6.0356342
6.1395528
6.0618714
6.0124248
5.9914043
5.9690191
5.82461
5.9923599
5.7406594
5.6953997
5.4299084
5.5141963
5.132157
5.483419
5.7434885
5.9960591
5.952109
5.6355706
5.699205
5.4431276
5.7747937
5.8323397
5.5249442
5.1425959
5.0495426
5.4170218
4.8642169
5.0368723
4.5482605
4.6734505
5.0093944
5.1997565
5.3945226
5.5562354
5.7158173
5.8500673
5.8735448
5.7847783
5.918908
5.8954728
5.7515678
5.596453
5.628071
5.7437264
5.8015127
5.826259
5.7675704
5.8975972
5.9106409
6.0237354
5.9565145
5.9440924
5.8090325
5.8274161
5.6775732
5.7849223
5.6326531
5.6151844
5.5847282
5.4520992
5.4093798
5.2163686
5.2565639
5.4285295
5.5458476
5.8040601
6.037021
6.0624291
5.8280637
5.7725068
5.9016753
6.0150661
5.9950064
5.9732476
5.8557542
5.8774711
5.7923606
5.9248033
5.9022117
5.7604291
5.6075916
5.7215135
5.7487785
5.5918282
5.5628114
5.4234624
5.4639986
5.6376508
5.6638031
5.8151029
5.9490352
5.9598427
6.0256052
5.9136806
5.8328475
5.6842801
5.7886701
5.6375029
5.6204894
5.4929511
5.5163935
5.5380104
5.662669
5.870983
5.8807697
6.1039215
6.0626702
6.048967
5.9398564
5.9324036
5.8494252
5.8619561
5.9854808
6.0018144
6.0065923
6.0682461
5.9612008
5.9546415
5.8751625
5.8856861
5.7450637
5.8421785
5.8322137
5.8189813
5.8079811
5.7021905
5.7174071
5.554886
5.6714997
5.6905147
5.6985089
5.586497
5.5710349
5.7311056
5.6317378
5.79412
5.9394993
5.9230237
5.7791058
5.7644013
5.7463711
5.894874
5.881866
5.8560402
5.8297017
5.6517228
5.5846714
5.1396546
5.1598152
5.2452624
4.940583
5.4657709
5.3875788
4.8301069
4.1555373
4.6375694
3.8407149
4.008107
4.1249759
4.7325784
4.2587581
3.4591801
3.3260766
2.5684321
3.6327959
4.5207521
5.2079181
4.6469136
5.0944629
5.1852041
5.2947256
4.6316446
4.4068399
4.2862999
3.2168679
2.6523103
1.8321675
1.8278676
2.6259739
3.7184729
3.2663554
3.7851234
3.9779444
4.2077299
4.4369556
4.6616233
4.8636307
5.0573784
5.2303739
5.4006937
5.434736
5.2377668
5.2033146
5.0038345
5.054393
5.2691232
5.3027074
5.4664625
5.5889377
5.4613401
5.4823111
5.3196339
5.507197
5.4820358
5.654136
5.5400063
5.7170939
5.87525
6.0098287
6.2256223
6.2106191
6.1434592
6.1593147
5.9051575
5.8613671
5.9733475
5.8204575
5.6358754
5.4399189
4.8909987
5.2186832
5.1296776
4.7768765
4.4453198
4.558106
5.2587071
5.1477289
5.0520148
4.2067497
4.3278593
3.1250991
3.5909712
4.1801281
4.6964672
4.5995028
3.7857698
4.0768791
3.242161
3.9772916
4.0922928
3.3680129
2.4662297
2.427632
3.5127844
3.0862051
1.6824434
1.657938
2.2083731
2.9452885
3.6544072
4.2231806
4.7133047
5.086023
5.3994441
5.7126972
6.0598999
6.3205332
6.3406749
6.3970502
6.4721193
6.3703569
6.3806126
6.3201644
6.3123998
6.142514
6.2448416
6.2547284
6.1598478
6.0590813
6.2605264
6.2513633
6.1905121
6.1988357
5.9649034
5.9384553
6.036819
5.9108636
5.9760288
6.0407934
6.0889689
6.1038552
6.0615385
6.0475954
5.9833497
5.8590181
5.9376456
5.9299995
5.8446107
5.6972344
5.8052942
5.869675
5.8796193
5.8308636
5.9536328
5.9604139
6.0674293
6.0051566
5.9993492
5.8727804
5.8840245
5.7426652
5.8409185
5.6968063
5.6876177
5.6682433
5.8159691
5.7132594
5.5497009
5.5299441
5.6581405
5.5084695
5.6314099
5.6540451
5.542381
5.5215195
5.3677528
5.3448957
5.1421363
5.3273296
5.293417
5.2743904
5.2329762
5.0420378
4.989295
4.7606348
4.8106987
5.0510642
4.8190255
4.7689539
4.4947218
4.5581978
4.6042464
4.8528885
5.0798399
5.2901063
5.1152123
5.3389954
5.3036577
5.5076911
5.6886335
5.8475119
5.7666753
5.7361563
5.5488765
5.6548613
5.4742692
5.3416398
5.3827139
5.5899101
5.6217013
5.7980106
5.8141945
5.8891711
5.738894
5.6468173
5.5526266
5.7456884
5.7263956
5.6923529
5.658065
5.5766313
5.6125618
5.3868924
5.4876463
5.4445511
5.335054
5.0640489
5.2057081
5.2491174
5.1134214
4.7924912
4.9728673
5.144849
5.0888867
5.2602256
5.032725
5.0742722
4.8776059
4.823806
4.5166153
4.7726507
4.8244108
4.5838063
4.6337376
4.9230787
5.1852353
5.4175612
5.4486378
5.5651694
5.3690215
5.2209272
5.0626121
5.3256834
5.2893948
5.5224162
5.4262944
5.65127
5.6722383
5.4590861
5.2007305
5.1586819
4.8448215
5.0188024
4.7113038
4.6571791
4.6034167
4.9159502
4.7224748
4.5396005
4.9282245
5.2380853
5.5061111
5.7672385
6.0919536
6.1112579
6.079883
5.7678701
5.8180276
5.8583331
6.144069
6.1547914
6.1266861
6.1152194
5.8118323
5.8459454
5.8886147
5.6908313
5.7432612
5.8068558
5.8691849
5.9371198
5.9198011
5.8481827
5.8382224
5.6699362
5.7584279
5.7750356
5.6887766
5.7071916
5.7904815
5.804033
5.9441516
5.8761197
5.7225566
5.6423337
5.8161302
5.753956
5.5649655
5.5424844
5.6226897
5.6017061
5.7843588
5.7719827
5.7029744
5.7166442
5.516866
5.4899714
5.5786043
5.3585491
5.4751591
5.5881581
5.6085215
5.4993151
5.2827222
5.4190133
5.394993
5.2523134
5.1014704
5.1377176
5.3872363
5.2751462
5.2385163
4.9416948
4.8934811
4.7224839
5.078436
5.3713293
5.6120817
5.5880449
5.5463513
5.4842994
5.4412425
5.1483185
5.2073985
5.2899265
5.3335
5.2546859
5.5295762
5.5554621
5.2953137
5.2392205
5.518608
5.4909224
5.4434822
5.4214188
5.3755643
5.0527064
5.114564
5.1448617
5.1945177
5.1657393
5.4697465
5.4978945
5.2102927
4.8408708
4.8837841
4.9683467
4.9161074
5.0307254
4.9798534
4.8610406
4.8045125
4.357607
4.4360731
4.6071993
4.6652622
4.4979114
4.5593299
4.4283232
4.3627148
4.8274059
4.7698203
4.7240169
4.665229
4.1490834
4.228021
4.298209
3.7099805
3.916495
4.164042
4.4186093
4.3554952
3.9214575
4.2454725
4.3100642
4.0011143
4.0631087
4.477824
4.5354876
4.7598659
4.9640294
5.1487415
4.9064898
5.110824
4.88876
5.1198416
5.2974626
5.4862171
5.3289844
5.1215663
5.0907694
5.2776308
5.0915905
4.8603479
4.8953406
4.6436704
4.6803781
4.9206815
5.1506973
5.3303933
5.5115555
5.5252601
5.3425866
5.1734758
5.3732748
5.3526015
5.1487992
4.9269268
4.955425
5.1710519
5.3395043
5.1666682
5.1911758
5.3883163
5.5674918
5.7277896
5.6266667
5.6428739
5.5411263
5.5205788
5.308993
5.4407308
5.4607043
5.5831318
5.4066948
5.553714
5.3769223
5.3664022
5.197025
5.369206
5.5443653
5.5555348
5.3781578
5.2157396
5.4097937
5.3925341
5.1953059
4.9816448
5.0050386
5.2125275
5.0017039
5.2113786
5.0305586
5.2558066
5.232229
5.2070771
5.1795494
5.0018328
5.0364233
4.763202
4.9728579
4.9406567
4.7213794
4.6785352
4.4213304
4.3659831
3.9985738
4.3223571
4.6017534
4.8664278
4.553343
4.503997
4.2067286
4.2678888
3.9414135
4.2666355
4.2067876
3.8650008
3.4972201
3.8799353
3.9375011
3.5539989
3.4885602
3.0355994
3.1111147
3.5612832
3.6209678
3.996285
4.3173893
4.3636357
4.6438353
4.3720861
4.048798
3.6792712
4.0555804
3.6786367
4.1247431
4.1893361
4.5915465
4.806084
4.8508003
4.6480904
4.9867578
5.0305695
5.3079256
5.4142917
5.4389559
5.3382778
5.0703523
5.2031535
5.3328786
5.0985257
5.0680538
4.8011703
5.0019194
4.75358
4.9761139
4.9493381
4.7134738
4.7447099
4.7732396
4.5217047
4.7843538
4.5513074
4.8365801
4.6273475
4.9323046
4.8925479
5.1704191
4.703005
4.7557857
4.3910516
4.3229698
4.5770198
4.5263155
4.4737256
4.1140345
4.4193614
4.6828449
4.7187825
4.4651478
4.1503694
4.446546
4.4055736
4.0990452
3.7388456
3.8001992
4.172076
3.8196654
4.2548074
3.9427497
4.427768
4.8327316
5.1655575
5.438086
5.6619242
5.6449666
5.5924159
5.6115214
5.3703852
5.3344043
5.4062112
5.1226328
5.0189199
5.0673198
4.6859159
4.6214724
4.7768011
4.3584803
4.2923719
4.2282556
3.9819128
4.0500192
3.4309436
3.7885368
3.7214575
3.6581372
3.5900724
4.1026727
3.8537129
3.232792
3.3077507
3.3651883
3.0499849
3.7740208
3.842887
3.7300092
4.3590697
4.2923927
4.7824401
4.7918312
5.1696912
5.4717864
5.76921
6.0802584
6.320675
6.5467932
6.5018427
6.2041374
5.8183288
5.476091
5.9296753
5.4722101
4.9668628
4.4606827
4.4339207
4.9816157
3.6923842
2.564988
2.575858
3.5909369
4.6107182
4.7263836
5.503652
5.9541955
6.2053208
5.5070515
4.9926523
3.7073544
2.2538929
0.98827694
1.0755585
2.2008197
1.1231508
0.41191954
0.37188791
1.0349771
2.6328727
2.6407658
3.60833
4.9784116
5.8271514
4.4996401
4.9159833
3.5105899
2.1543698
1.1108105
0.40735606
0.36684597
1.0211572
2.1990002
0.94039578
1.0292263
2.4610783
2.4290053
3.6012636
4.9269971
5.7942524
4.3827807
4.3472762
4.5169173
2.4113677
0.85554369
0.33207872
0.33797835
0.90404408
2.5720238
4.6034358
5.6882252
6.2043055
6.2611417
6.3280079
6.2741073
5.8792733
6.062725
6.0001097
5.9610278
6.0081551
6.0458113
5.7165927
5.6522342
5.5755694
5.645645
5.7561524
5.8190839
6.1004955
6.1755513
6.1382646
5.8870887
5.9377196
5.9784816
6.2127655
6.3778767
6.3973542
6.3406179
6.116107
6.1268627
6.1554014
6.144694
6.1121165
6.0938282
6.0598166
5.7137201
5.7728233
5.8220529
5.8608907
5.8125687
5.8463694
5.8902412
5.9665103
6.1991907
6.1908372
6.1601643
6.1449703
5.86714
5.9088646
6.0125433
6.2269505
6.2525533
6.261071
6.059882
6.0387671
5.9407032
5.709738
5.6523029
5.5985493
5.562174
5.5391839
5.5377565
5.5571871
5.5785562
5.5595289
5.2942681
5.3193138
5.2807544
5.2536273
4.8969098
4.9379876
4.9916404
4.9519462
4.5028307
4.5658503
4.495166
4.428493
3.8066926
3.9187423
4.1230119
4.2022858
3.5938766
3.5054368
3.861216
3.3020235
3.7453465
3.292813
3.2267014
3.1671678
3.6144318
3.168893
3.1116491
3.0654022
2.6077422
2.6415116
1.9978249
2.5800428
2.5382343
1.9649344
1.4711217
1.4509992
2.2099818
3.0010286
2.8280617
3.5981317
3.5450576
2.7719523
1.9671002
1.9507105
1.1049651
1.1367142
0.60001325
0.93227351
1.4791231
2.0976658
2.6431061
3.1350867
3.5357159
3.9034616
4.2227167
4.5286467
4.7988076
4.849772
5.0973549
5.3226519
5.5232185
5.7001913
5.6678723
5.5669203
5.7493932
5.7776977
5.6059587
5.6353206
5.7255728
5.5523753
5.5763126
5.3832005
5.3548194
5.2113685
5.4363343
5.4032187
5.3648936
5.4903086
5.2805226
5.1209765
5.1728737
5.0152496
5.2790413
5.5091636
5.7068288
5.6741916
5.4683051
5.3667526
5.5966497
5.6302951
5.4136727
5.4501405
5.5414976
5.7391553
5.8072829
5.8220432
5.657967
5.4644653
5.2432892
5.0961466
5.3488877
5.5678686
5.7559772
5.9113206
5.8276193
6.1146915
6.083466
6.0644112
6.0646687
6.3218241
6.5469651
6.6560254
6.6821621
6.747528
6.7304133
6.6603392
6.629445
6.5737129
6.502376
6.2085722
6.2633128
5.9689792
5.7015793
5.593109
5.6660709
6.0133235
6.0491896
6.0045427
5.6566116
5.7239965
5.8226806
6.1026148
6.3287693
6.2760133
5.8826403
6.0647577
5.7599198
5.8887706
6.1398526
6.1760117
5.9387886
5.9790517
5.8695407
5.7780798
5.7243024
5.776173
5.7767112
5.818107
5.8641996
6.1465388
6.1560758
5.8923457
5.9673838
5.8124374
5.8726951
5.8531752
5.8445672
5.6790035
5.6960674
5.712548
5.7268414
5.8061455
5.945947
5.878696
5.8205313
5.648068
5.631142
5.6121452
5.7909395
5.7803646
5.5919209
5.5081096
5.7137711
5.6847592
5.6663541
5.606731
5.5671345
5.5295953
5.2746306
5.3229436
5.2440189
5.5068181
5.4677197
5.1882253
4.8658405
4.981366
5.1070268
5.238044
4.9609032
4.7845388
4.8497415
5.153407
5.1958359
5.3155747
5.0569022
4.897772
4.9419287
5.2321585
5.4787628
5.397253
5.6275683
5.5723626
5.5491954
5.2871581
5.3622212
5.0771893
5.0293801
4.6807961
4.614874
4.4468139
4.5218443
4.9181636
4.9692107
5.0160146
5.1187469
4.7858636
4.7340817
4.5797309
4.6360871
4.5106566
4.9331099
5.268509
5.3234128
5.3597347
5.4282289
5.6580416
5.6734005
5.7258625
5.5312976
5.5542666
5.7498415
5.7589871
5.5733594
5.3515721
5.4479265
5.5469601
5.6459222
5.4659249
5.4475462
5.4283896
5.6141752
5.5965996
5.4068434
5.2724305
5.4884742
5.5099357
5.2978513
5.321323
5.5282761
5.4262408
5.4030866
5.3773697
5.1303622
5.1620915
5.0226841
5.2965232
5.2656268
4.982591
4.6539254
4.8467436
5.0265641
5.1943127
5.1658116
5.1344192
4.8907076
4.92631
4.7151487
4.9918212
4.9554959
4.9130587
4.6260646
4.5604218
4.2531856
4.3129034
4.576581
4.2822802
3.9792916
3.9044117
3.568027
3.9556177
4.3147105
4.3781479
4.712434
4.4967139
4.1005605
4.021582
3.6036722
3.6702563
4.0128317
3.6336468
3.2280498
3.1480431
2.6949535
3.2203458
3.7238454
3.7951431
4.2669681
4.040502
3.4764821
3.395251
2.7986471
2.8471962
3.2749878
2.7486468
2.2085839
2.1567222
1.6696706
2.4117813
3.1198678
3.1852337
3.8427525
4.3891222
4.828986
5.1824681
5.4672182
5.4253745
5.1266929
5.0913514
5.4007715
5.4425577
5.1489358
5.1963927
5.227734
5.5115393
5.5359428
5.5132607
5.4875213
5.4874748
5.4412251
5.3997331
5.1820665
5.0906323
4.6405236
4.2816516
4.4003046
4.618154
5.2884704
5.2005839
4.5065951
3.6113158
3.2056966
2.6362438
1.8165056
1.8080786
3.2529704
3.6932809
2.5906504
2.5385852
3.2997725
4.1340061
4.8180433
5.381847
5.1301414
5.5800761
5.6469318
5.4594027
4.9274053
5.2355333
5.1481557
4.6208987
3.8196078
3.9840386
4.1006279
3.4280496
4.2357007
4.7158774
4.8491345
4.6432299
4.414959
4.1837942
3.9545136
3.7669854
3.6586817
3.6649184
4.2346862
4.3151172
4.7745179
4.7233126
4.778374
4.3109549
4.3724968
4.4491664
4.8819965
4.8330623
4.8852005
5.2366274
5.2766605
5.3062186
5.5716344
5.6058923
5.6226603
5.389946
5.4554696
5.4823564
5.6982689
5.7097674
5.5047358
5.4462406
5.6635531
5.6509609
5.4193042
5.141978
5.2285025
5.3243675
5.0587883
5.1909684
5.2178982
5.3423682
5.1116234
5.2627597
5.2418929
5.2190439
4.9878901
4.957809
4.7536415
4.7898912
5.0569033
5.0849267
4.8233432
5.0143209
5.0389278
4.8536767
4.5714357
4.7933539
4.764405
4.7332859
4.6998016
4.6631522
4.6228028
4.3322279
4.377048
4.0850277
4.4105039
4.3635103
4.671722
4.4316505
4.7616193
4.805057
4.4809133
4.2185991
4.6025773
4.5515431
4.1594631
3.7320798
4.0709675
4.125464
3.7497395
3.6919798
4.0328983
3.6844987
4.0139046
3.9586097
3.6029623
3.2517856
3.6257605
3.5597591
3.4241007
3.3140999
2.3165072
2.4902975
2.5927138
1.8875151
2.6506852
2.5440805
1.7828976
1.0155286
1.543269
1.5444015
0.65412751
0.74051635
0.39121781
0.34864672
1.0286319
0.54396223
1.0650053
1.6523128
1.6410923
0.9336095
1.0483924
0.43059632
0.82045218
0.73131302
0.38618375
0.21674364
0.23933057
0.56882996
0.22907372
0.20776479
0.19605316
0.20346074
0.21128421
0.24313501
0.4047342
0.76516001
1.7255366
3.1195697
4.2234369
5.0603737
5.1549982
5.2748643
5.1831201
4.480921
4.5952744
4.3463093
3.1648222
3.6639215
3.5751629
2.5146991
2.570969
1.7122581
2.0032673
2.801476
3.5656387
4.1615994
4.6736256
5.0567359
5.3784732
5.4227462
5.4513411
5.4064163
5.0990431
5.1578469
5.1176478
4.73138
4.7914274
4.7334719
4.2580829
4.3346605
4.2415591
4.3074616
4.3741816
4.8478179
5.21422
5.4984876
5.523995
5.4972787
5.2069049
5.2498608
5.3101067
5.5617569
5.5381219
5.4933383
5.4522618
5.5181322
5.5576149
5.3087931
5.2234062
5.1654221
5.2568286
4.9586922
4.8336067
4.8897428
5.0092004
4.6535137
4.4813747
4.4021733
4.5849477
4.7648547
5.0910125
5.353655
5.5874148
5.4544947
5.3744126
5.1257542
5.5790045
5.6463136
5.238734
4.9219583
4.8096388
5.1506508
4.6316736
4.1303445
3.8280772
3.3101101
3.443572
4.236239
4.7272371
4.1279379
4.0107858
4.5608719
5.0520993
5.4405772
5.7722644
6.0116262
6.2146929
6.4130385
6.5736176
6.6148661
6.4551648
6.4722294
6.5487472
6.5649004
6.5298674
6.4954063
6.5144868
6.4616131
6.3747191
6.0993568
6.2830545
6.3194227
6.3125169
6.2440952
6.0582193
6.1654404
6.1328729
5.9524612
6.0779867
5.9959457
5.8298355
5.5230227
5.7437855
5.6999148
5.6333077
6.0308842
6.2872436
5.6360084
4.873796
5.4230807
5.4873493
5.1436622
4.6839425
5.1431918
5.0511118
5.4415449
5.7009263
5.7441268
5.9958622
5.9517512
5.7734557
5.8306353
5.5228601
5.5630174
5.8044227
6.1405166
6.0370332
5.9724041
6.0925352
6.2778146
6.2892114
6.3520977
6.3704441
6.3400018
6.2030371
6.2201491
6.1201601
6.1429967
6.3129678
6.3202962
6.3805721
6.3881097
6.3699746
6.2451081
6.2546252
6.159609
6.0008499
5.9388864
5.8717028
5.8106612
5.7475971
5.6954815
5.6472073
5.6148831
5.5948409
5.593671
5.6111733
5.6425431
5.6574904
5.7035654
5.4946155
5.4676271
5.4046522
5.434526
5.3904428
5.6274051
5.6110748
5.3676905
5.3323806
5.3563064
5.0436584
5.1138555
5.2052662
5.242394
5.1575091
4.81291
4.9373586
4.8856146
4.7491304
4.6380402
4.7096344
5.0921484
5.0587785
5.005785
4.5780296
4.6541398
4.0982206
4.1973474
4.3733284
4.5668214
4.4972132
4.2859212
3.6946966
4.0282074
4.1180701
3.8061627
3.4824482
3.3589499
4.0961652
4.0031575
3.8934472
3.06241
3.2567315
3.1736384
3.105514
2.919247
2.8685644
3.6606323
3.6859515
3.6204997
3.7669708
3.7059281
3.0238302
3.0891079
2.8621127
2.9083056
2.9638084
3.7552926
3.9073648
4.4645022
4.903486
4.8483279
4.3988107
4.5440574
4.943657
5.2691467
5.3511698
5.5976437
5.6200454
5.3866145
5.1048994
4.9939357
4.6044733
4.7648428
4.7098094
5.0583029
5.1844335
5.4412003
5.6600737
5.6219184
5.7016223
5.6677074
5.460773
5.5022756
5.4019737
5.1391119
5.2706667
5.2279341
4.9497874
5.0041672
4.8312443
4.8824909
4.9293191
5.2226812
5.4725644
5.6789929
5.7527814
5.7339229
5.5359391
5.5635763
5.6544808
5.8187499
5.8038505
5.7730807
5.7444017
5.8266161
5.8536158
5.6975139
5.6004496
5.5601588
5.6639849
5.4872404
5.3587096
5.3983672
5.5190762
5.319726
5.1669934
5.1131078
5.2768044
5.0540575
4.8560467
4.6474471
4.4126974
4.1697731
3.9214406
3.9878261
4.2322895
3.754883
3.4118389
3.3277665
3.6805229
3.1778046
2.7278715
2.3069732
2.3269108
1.9943708
1.1429133
1.1678908
1.5777996
1.5774667
1.5773072
2.3617503
3.1471397
3.8343818
4.0559622
4.125236
4.3605943
4.2966518
3.8217514
3.4782988
3.5504927
3.2139096
2.4054556
2.0171094
1.9547629
2.2446951
2.7273281
3.2298523
2.6718952
2.6228729
2.0102199
2.6798318
2.2245289
1.9496142
1.0604825
1.4248013
1.3958615
2.0271419
2.0510219
2.7864256
2.8621225
3.3840022
2.799692
3.3647401
3.4442384
3.8966422
4.2307645
4.5081831
4.1988229
4.4843359
4.2006817
4.4939369
4.4569397
4.4180628
4.133227
4.4541895
4.4955677
4.1795298
4.2240764
4.5336369
4.2812741
4.6171031
4.9211768
4.8846298
4.5730837
4.5276647
4.2761979
4.3339143
4.7014633
4.7480911
4.7914825
4.9538805
4.6575505
4.4452261
4.3896425
3.9892772
3.9222245
4.2294266
4.1780544
3.8063745
3.8629425
3.4833906
3.41387
3.8565024
3.793137
3.3489436
3.2875005
2.8025343
3.3382129
3.85897
4.3288436
4.3880725
3.924192
3.607587
4.1689745
4.1040743
3.5389716
2.900755
2.9618572
3.4039959
2.8613867
2.2847832
2.2420246
1.6738249
2.4693632
3.24193
3.9075563
3.9741724
3.3055072
3.0961542
3.8475543
4.4332281
4.4967514
4.5709118
4.691685
4.8342934
5.1578417
5.1938606
4.8811691
4.7466334
5.1008287
5.0589828
4.981228
5.0279753
5.3398665
5.5898957
5.569703
5.5496957
5.5500996
5.8169859
6.11781
6.1177518
6.1280632
5.8492228
5.6204949
5.6346688
5.4023551
5.3726942
5.3477208
5.6013734
5.6166985
5.3783005
5.0781345
5.1149592
5.1784924
5.2596934
4.9689198
5.0916041
5.123358
5.2416492
5.3622494
5.4819413
5.6010759
5.7180102
5.9159996
6.2148931
6.4274754
6.5769388
6.6115143
6.7046924
6.7416282
6.7610845
6.7416009
6.6596178
6.7005467
6.6596738
6.5770693
6.5940496
6.4413698
6.4272082
6.4000521
6.5048223
6.5178617
6.4205917
6.4054495
6.2833694
6.2777307
6.1774816
6.3420611
6.3452718
6.190421
6.2052075
6.3029106
6.3100642
6.4288035
6.3683865
6.3636427
6.3060874
6.4449207
6.6007444
6.6425514
6.4783695
6.5500187
6.6229349
6.6431947
6.4960108
6.4798833
6.4472585
6.451698
6.3364254
6.3314535
6.2322114
6.3877045
6.3889647
6.2434245
6.2574879
6.3556846
6.465234
6.5665435
6.4675322
6.3625109
6.4048515
6.4053372
6.3442598
6.494096
6.3398786
6.1592492
6.1467467
6.3293171
6.3289527
6.3101425
6.1220959
6.2171678
6.1271974
6.1681716
6.2397141
6.441095
6.5939108
6.5177136
6.5045524
6.3999123
6.4056774
6.3452932
6.3416152
6.1771435
6.2777213
6.283009
6.1902835
6.2053748
6.3638691
6.42049
6.428833
6.3683542
6.2178429
6.3098095
6.3025124
6.1571428
6.1366735
6.1261488
6.0811005
6.0852924
6.0237956
6.0196676
5.8962272
5.9756382
5.9795223
5.9051085
5.9158757
6.0370455
6.0960299
6.1005716
6.040422
5.9239694
5.9964512
5.9919797
5.874628
5.9203709
5.9146533
5.8563215
5.8631405
5.7670301
5.7551893
5.5991409
5.7165251
5.7214702
5.611412
5.6242321
5.7776348
5.788329
5.881747
5.7419681
5.735973
5.5969273
5.7018832
5.9204071
6.1370464
6.1262002
6.0816854
6.0857171
5.9803573
5.9760619
5.8974965
6.0207979
6.0241475
5.9059054
5.916261
5.9928881
6.0963178
6.100848
5.9971084
5.924164
6.0404587
6.0369832
5.978707
6.0935439
6.2870127
6.4324648
6.2833485
6.0781285
5.988862
6.2255688
6.2276974
6.005383
6.0217841
6.1081901
5.9957964
6.0538427
6.1126521
6.1566492
5.9525143
5.9567328
5.9115624
6.0262143
6.0137936
6.1158075
6.0565222
5.9416911
5.933708
6.0106609
5.8955591
5.882065
5.8745865
5.8640663
5.856739
5.7571625
5.7680244
5.6127799
5.7223758
5.7378417
5.7430155
5.6363467
5.7882
5.7781922
5.6245264
5.4544074
5.5971595
5.5818141
5.6846406
5.573002
5.5808288
5.4388381
5.4233812
5.232356
5.4018149
5.4081981
5.2486624
5.2654769
5.4527517
5.4658665
5.6348863
5.6474171
5.7985801
5.9336933
6.053401
6.1123643
6.1162627
6.0559211
5.9412827
6.0135295
6.010057
5.8951627
5.952198
5.9566446
6.1677933
6.1267628
6.1307546
6.0711364
6.0681132
5.9505608
6.0258601
6.0298333
5.9576803
5.8262479
5.9178677
5.9105299
5.9008246
5.8073017
5.6568402
5.7628485
5.7590178
5.6205884
5.7286924
5.7427769
5.6404714
5.7769482
5.7817746
5.6770148
5.6667719
5.8161749
5.7257057
5.8755257
6.0104165
6.1218055
6.3099463
6.4446309
6.6006445
6.6424213
6.7005161
6.6228089
6.5497478
6.4470288
6.4796402
6.4512361
6.3884982
6.3875639
6.2319576
6.331414
6.3359285
6.2428693
6.2776321
6.1883864
6.1973336
6.1549161
6.1450925
6.1421381
6.083383
6.0851044
5.9736262
6.045383
6.0428825
5.966384
5.835583
5.9305184
5.988117
5.9913958
5.9452604
6.0566933
6.0593085
6.1571251
6.0969678
6.0961082
5.9816087
5.9873777
5.8596947
5.9507174
5.8185337
5.8149619
5.8014612
5.9354829
5.8435216
5.6968697
5.6871939
5.7982373
5.6626463
5.7685526
5.9882678
6.1884486
6.1979381
5.991895
5.9456083
6.0571065
6.1549669
6.1451338
6.1423308
6.1306484
6.0302144
5.9585766
6.0712769
6.0685082
5.9504525
5.8177865
5.8076732
5.9007888
5.7638583
5.7598756
5.6477507
5.7984068
5.7067061
5.858579
5.8482829
5.9820837
5.9193058
5.9153628
5.9003032
5.9649367
5.9605378
5.8186128
5.8287171
5.7521033
5.7398399
5.8958153
5.8382447
5.8438647
5.6774436
5.6634069
5.5922032
5.7794237
5.7855343
5.6072354
5.6227551
5.6906702
5.7635602
5.838761
5.6846857
5.6722883
5.6595544
5.5630143
5.5775872
5.3797196
5.4962322
5.510205
5.5224234
5.69474
5.6040121
5.7734936
5.7018886
5.863833
5.8586855
5.8033869
5.8075491
5.6347806
5.4304426
5.5139033
5.4994707
5.5902124
5.3954483
5.4097636
5.2996569
5.2818425
5.2625985
5.4836607
5.466554
5.3744429
5.3952577
5.1498741
5.1738369
5.4128288
5.3362284
5.5614453
5.7577935
5.9354226
6.1855463
6.3806101
6.3900648
6.2067624
6.2486875
6.2507771
6.035175
5.967262
6.2087874
6.1825303
6.1808463
6.1585064
6.1562584
6.1822794
5.9160497
5.876342
5.8966405
5.9150962
5.9523333
5.7802044
5.8237595
5.8783327
5.9335382
5.9361979
5.9990153
5.8672407
5.7934174
5.7839852
5.6152793
5.6262032
5.7161897
5.5460073
5.6571594
5.6682116
5.7775117
5.7825916
5.9180673
5.8262175
5.6774882
5.5122294
5.6472457
5.6404593
5.6268667
5.6208744
5.6047487
5.4344048
5.4290204
5.4082991
5.4025327
5.5735393
5.4264061
5.4395973
5.2501583
5.233934
5.0269033
5.2347406
5.2476847
5.0436741
5.0234273
4.7993657
4.8227675
5.0453565
5.0640625
5.2659885
5.4287994
5.4342888
5.6029539
5.27908
5.0787434
5.2762689
5.0795346
5.2793302
5.4661931
5.4792468
5.4898827
5.3056889
5.4580085
5.4545717
5.2930352
5.0945179
5.2933017
5.4548275
5.4579687
5.6256582
5.4896513
5.4777021
5.2936225
5.3053632
5.3181735
5.5008077
5.5116713
5.6462019
5.4803575
5.4760839
5.3180845
5.4770796
5.4805778
5.3294804
5.3176911
5.5006954
5.3674913
5.5566084
5.7262067
5.8763521
6.0108738
6.0143655
5.8842739
5.8113757
5.9511448
5.9491575
5.8023945
5.6363389
5.6462224
5.7354549
5.567272
5.4582867
5.4465827
5.435085
5.4226949
5.533513
5.3423006
5.3284487
5.3142071
5.2987968
5.2814993
5.0612328
5.080896
4.9070895
5.1554382
5.1339495
4.8809744
4.6041469
4.8195069
4.8432579
4.5869053
4.5583466
4.5274397
4.2659017
3.9746736
4.3284387
4.0544547
3.6282619
3.554461
3.9184541
3.5439665
3.8924327
3.8416981
4.1558908
4.1112053
4.0636897
3.7157617
3.6599296
3.3100855
3.3670413
3.7377159
3.3658817
3.307283
3.2478012
3.1900543
2.7989995
3.1714826
2.7699347
2.8334137
3.1911199
2.7038997
2.3494394
2.2799567
1.9611056
2.4099139
2.4629073
2.8638525
2.4124725
2.8010544
2.7370392
2.3408917
1.9892639
2.045956
1.6619835
2.0178418
2.0677221
2.4002831
2.7569011
3.2505325
3.3088318
2.8123101
2.4536708
2.9489747
2.8905335
2.5194235
2.9221911
2.980079
2.5191786
2.9156022
2.8570757
2.4640504
2.0958582
2.1477842
2.5760924
2.1193521
1.7517685
1.7049515
1.2618751
1.5446636
1.8163479
2.1589571
2.1234446
1.4850318
1.1657698
1.7816621
1.7501342
1.1468051
0.65024306
0.62003045
0.88907743
0.54005256
0.30418985
0.34258284
0.23958955
0.52395903
0.94780918
1.4794197
1.5084487
0.96631135
0.78088667
1.2298359
1.1961457
1.602897
1.2156733
1.5273593
1.8367499
2.2281331
2.2634833
1.8728533
1.2651303
1.6501282
1.6325054
1.2418628
1.0017648
1.0209955
1.5571898
1.2498272
0.8110571
0.78909906
0.45602562
0.56411248
0.7216837
1.0741962
1.0389424
1.6718344
2.4327143
2.1440934
2.9921649
3.7193596
3.7813571
3.0396359
2.1584266
2.1805421
2.5128204
1.6812439
1.217679
1.2446892
1.2758353
1.2939244
2.1452122
2.9288447
2.92011
2.981308
3.7122774
4.3061109
4.7751262
5.1468368
5.0885244
5.122942
5.4229383
5.4645354
5.1783218
5.2246307
5.1940856
5.2352885
5.5115662
5.5337658
5.508097
5.5465086
5.8251515
6.113749
6.0821269
6.095728
6.1464936
6.378385
6.3976636
6.3410344
6.127751
5.8486341
5.8913177
6.1554848
6.1455767
5.8619448
5.9426459
6.1916947
6.1608663
5.9096959
6.0129291
6.2272448
6.2127054
6.2781926
6.4553643
6.6148873
6.4724142
6.3135303
6.2526963
6.261319
6.1994205
5.9665852
6.0596722
6.0388524
6.143163
6.1197348
6.2887451
6.3524629
6.3706095
6.3402317
6.3126082
6.2440289
6.4128454
6.3753694
6.0995576
6.2147576
6.0117633
6.0580799
6.1652876
6.3183594
6.2826351
6.1324212
5.9506894
5.7706861
5.6289939
5.4347982
5.5180848
5.8285566
5.9945147
6.0748838
5.6944702
5.7390916
5.4757015
5.1302653
5.0359219
4.8463375
4.5264398
4.6535226
5.1172073
5.0201064
5.4074507
5.6893802
5.6166573
6.0261832
6.2865209
6.5144208
6.4616672
6.4954863
6.5300367
6.564914
6.5487288
6.3883165
6.370462
6.3807086
6.3204509
6.1599604
6.2550611
6.2448525
6.2196623
6.2030417
6.0920093
5.9004528
5.8265609
5.7455364
5.6704517
5.592065
5.5253543
5.4638069
5.5025536
5.2369572
5.1812486
5.2670785
5.3161924
5.563232
5.6027718
5.6242468
5.568597
5.3185898
5.2640576
4.9259816
4.8821
4.8296208
4.3673383
4.4285294
4.4972235
4.436843
4.8743622
4.8210996
4.76752
4.7196788
4.2291722
4.3041005
4.3764909
4.5053738
4.9074733
4.8543415
4.4296007
4.598962
4.9699067
5.0184234
4.6639009
4.7184247
4.5628754
4.9582923
5.2796555
5.3565674
5.390505
5.109155
5.0052722
4.6194425
4.7692193
4.8191814
4.6754577
4.5574329
4.4911513
4.9327341
4.9348734
4.9845782
5.3111572
5.3114388
5.5686568
5.5878886
5.5688337
5.302929
5.2737411
5.3370043
5.3707801
5.3461413
5.6007965
5.6160811
5.3772149
5.3999668
5.6327181
5.6176578
5.6492729