/*--------------------------------*- C++ -*----------------------------------*\
  =========                 |
  \\      /  F ield         | OpenFOAM: The Open Source CFD Toolbox
   \\    /   O peration     | Website:  https://openfoam.org
    \\  /    A nd           | Version:  7
     \\/     M anipulation  |
\*---------------------------------------------------------------------------*/
FoamFile
{
    version     2.0;
    format      ascii;
    class       volScalarField;
    location    "270";
    object      omega;
}
// * * * * * * * * * * * * * * * * * * * * * * * * * * * * * * * * * * * * * //

dimensions      [0 0 -1 0 0 0 0];

internalField   nonuniform List<scalar> 
25278
(
155.27215
148.99485
148.3604
148.36034
143.03399
148.99463
155.67125
155.27224
155.671
155.85196
154.59688
154.04691
150.91509
147.31813
155.06209
148.31888
148.98135
156.19485
167.24871
158.33479
151.70246
149.79237
148.13512
151.55095
154.36723
151.55088
148.13521
151.67864
152.57469
153.89187
156.8028
155.43918
164.70523
158.37968
159.96741
160.99698
161.39337
163.99639
163.52901
170.93574
166.41899
166.87578
170.99171
171.20103
163.9315
157.49326
153.05584
154.8643
159.92668
159.46876
161.40448
160.33792
177.72059
171.82744
166.00987
166.37277
168.7853
168.44814
179.75064
175.32072
175.37682
179.45636
182.83958
170.50376
170.34393
171.46859
171.59003
184.81093
185.56309
183.37681
201.54562
194.49359
186.92439
179.76575
172.86783
168.50378
159.96234
153.88916
149.78777
147.43217
144.45705
154.96642
156.13875
166.86632
149.88672
146.99212
167.55155
192.23757
175.74295
161.6378
163.58594
178.77583
176.11418
209.53056
210.44117
178.42151
177.89295
163.776
166.4512
181.34124
178.21564
210.66735
210.93544
181.0778
199.40155
194.91398
195.61162
260.77014
258.85906
319.28368
209.23373
214.94486
330.97283
341.97057
261.80711
262.55405
353.594
220.84837
213.78321
213.93251
166.91865
149.88379
143.02253
176.50203
210.39318
259.73386
320.07433
209.43945
167.6213
146.99146
144.44161
147.41155
156.16316
155.03869
176.02572
192.545
195.92924
215.20722
331.9762
261.86051
262.99657
343.26181
355.21351
221.13015
199.75315
195.2384
178.13552
178.73732
211.35694
179.21422
155.17464
161.78904
163.72578
163.88103
156.26305
166.54972
181.30932
211.77302
263.89511
403.82157
720.53907
716.63507
400.60044
265.62364
200.60626
196.01937
216.09508
223.54386
366.74978
352.97571
264.72229
395.08686
665.58749
744.93701
1260.2302
1094.228
643.28621
646.14216
1075.208
1234.6272
745.31519
667.12252
397.74378
267.28701
211.62075
178.58331
181.74159
201.73434
268.50611
376.51989
361.0363
218.60257
167.70146
197.10482
226.43196
223.76416
391.24286
839.71795
1440.4651
1475.7483
840.95806
379.46373
221.01833
199.54865
180.60917
166.82009
158.37662
152.57293
155.39988
156.79831
160.96987
164.62105
166.35899
166.83004
161.38894
163.973
163.48115
170.82058
170.90724
171.1474
166.6729
160.41189
154.79785
153.05369
156.41256
161.84966
162.44366
159.03389
157.49945
161.45834
162.15323
167.23525
171.32139
164.62867
163.92652
166.16744
159.92053
154.86671
151.69618
158.2679
159.44473
165.92038
171.54818
175.08465
175.19409
166.33348
168.69765
168.31074
179.37862
179.16202
182.43046
170.37423
161.36811
160.24048
177.23845
170.15911
182.85079
184.97585
171.29031
171.47722
184.39061
184.02041
182.22284
179.17754
175.38993
175.37728
166.81682
168.99672
168.37907
169.9262
161.60972
163.01421
161.36512
166.83376
164.72279
165.42471
163.11612
167.87428
167.27006
171.44972
171.70687
175.46409
167.48477
169.48316
168.84636
178.73607
175.38675
181.03511
178.47527
175.6684
173.2881
169.55652
161.84616
156.41478
154.80362
160.42172
161.45841
162.13904
164.63531
171.34366
167.23849
166.70605
173.08668
168.78173
173.3923
175.73129
175.93188
175.88736
179.85835
173.24152
182.63395
182.0628
192.39402
191.79888
207.13995
192.71459
182.5663
173.1609
172.80013
180.37234
181.96447
192.00471
179.55014
179.68062
191.49395
206.78008
207.62776
192.65502
209.92439
208.07801
229.86994
227.35358
214.93271
206.65951
198.64486
192.15392
185.88907
180.66694
180.73408
184.51816
179.02407
178.96427
184.81341
190.95716
190.77972
185.85603
182.06404
182.50215
185.58985
180.44526
180.54636
175.89258
178.81514
178.69313
184.28496
184.1513
190.16469
185.53389
191.53723
191.59813
192.11574
197.81507
198.4246
206.30254
205.78278
198.42778
192.33532
182.0038
173.06987
173.39795
182.4628
185.47079
180.36091
175.69286
175.86761
175.80735
180.54001
180.65712
184.34193
178.90388
178.82008
184.60103
190.65479
185.75287
185.73604
191.91485
191.97567
197.99256
197.4568
190.52504
190.23078
184.1511
178.59719
178.76432
175.87483
180.49169
184.03501
189.99652
185.44841
191.40639
191.45201
197.04127
196.67986
196.27891
190.84064
181.76863
182.25842
173.69727
175.78235
175.89533
180.38627
180.20595
183.85862
183.80651
178.69422
178.46468
178.69427
176.00718
180.3763
180.20475
183.68675
183.66276
189.24958
185.04966
185.0192
185.16409
185.12553
189.75631
189.58346
196.01822
190.94604
190.56339
190.64925
195.48288
195.73859
189.42319
193.51205
186.98171
180.93742
181.19112
187.17696
187.32367
187.55578
181.3657
181.27364
181.62923
181.6236
186.53779
186.46053
198.4105
203.13223
202.70603
215.22089
193.36091
193.65166
216.78476
250.14494
225.69361
261.29997
258.24045
255.34
224.75514
248.25765
299.06092
304.95786
383.81169
283.02498
230.82053
200.26054
218.44141
204.59014
203.732
199.63215
228.90847
239.86812
242.62938
316.46666
363.49195
518.43587
530.73875
382.97707
281.37223
317.15652
280.49098
267.81774
254.20882
241.94646
230.9462
221.71617
213.21672
205.83136
198.45843
198.23836
206.28155
206.54458
215.37359
214.35602
205.35953
204.73625
197.65398
192.14596
197.80946
197.59286
204.53166
196.95181
197.37159
190.49224
195.16175
187.98713
181.40626
175.44272
166.83815
166.2214
168.41238
169.02059
179.08123
179.39535
175.52839
181.83199
186.95234
194.10429
217.11406
203.58172
204.15847
218.88799
234.26949
232.16161
200.76774
204.96531
206.04224
246.65653
243.7282
330.01993
290.37037
252.43897
226.28053
227.34358
264.64128
254.45034
311.9463
260.02259
257.16464
306.30763
404.97585
403.32011
291.67383
328.38779
557.63093
577.69087
456.77707
352.848
289.57536
252.7899
227.21258
210.26167
196.90488
184.31823
170.99633
161.6204
163.00918
161.36006
159.0353
162.44043
163.10492
165.42111
164.73158
171.45322
167.25742
167.8626
171.69973
175.45786
167.47668
166.84942
168.84487
169.48317
178.71551
178.83082
175.41071
181.1081
178.52615
175.68811
173.29788
173.68188
175.78477
175.90342
178.7154
183.85092
180.42057
180.24434
183.95699
189.87033
185.18067
181.7951
182.28184
185.03541
180.20707
180.37134
176.00159
178.69755
178.49646
183.71666
183.67292
189.28671
185.06455
190.68327
190.63797
191.02824
185.2315
189.67213
196.15279
196.5106
190.9636
196.97242
191.40427
191.34865
196.42538
196.89918
203.43608
203.95661
212.32208
204.31144
205.27405
205.45366
206.44671
214.81606
215.92575
226.16118
225.05842
214.34941
224.7127
225.81388
238.84129
236.92546
235.44354
223.90768
213.9588
205.16707
212.60183
203.31122
203.96532
195.66387
188.34897
181.81912
184.83562
184.94828
192.67193
188.61535
195.84333
201.10435
200.61304
192.14079
191.65313
184.29482
184.29883
181.4771
187.7253
191.26857
194.78295
186.77892
186.87995
187.52203
187.74983
190.63509
190.3417
199.725
195.97217
196.58104
200.68285
212.1649
206.46004
205.86474
211.27179
225.59415
217.72257
210.5102
211.67723
204.57945
214.1269
213.559
222.12414
223.3294
237.85035
225.66484
224.51506
235.78799
234.14818
220.88868
209.609
199.99618
199.3469
194.74923
202.672
208.70744
215.21716
204.12891
205.005
195.36399
198.92388
189.52288
189.36348
198.23006
209.01198
210.16709
224.0077
216.52191
230.41938
232.20105
233.54412
219.02258
227.6115
236.26213
217.79885
204.3571
193.12233
182.52377
170.01148
170.52133
171.48632
183.61324
181.97309
181.48575
170.28381
170.84343
171.69898
171.16656
182.99534
182.60319
181.22452
189.78211
187.97426
185.75155
183.5068
180.95691
181.23437
183.92349
183.83136
190.85306
187.44805
187.24386
190.55791
190.23394
187.0375
186.89139
181.10301
183.65072
190.01179
192.98061
185.81212
187.98458
195.78621
196.28568
193.36576
193.7949
186.23342
186.2246
188.64369
188.60872
196.89746
197.50392
194.25369
203.28502
198.77061
194.32367
193.94901
198.23316
207.0336
201.53112
202.08783
207.87338
214.02478
212.89264
202.5527
206.8627
207.93633
220.71369
222.39641
230.01724
213.89211
201.46366
191.46271
191.73305
192.67293
194.84788
195.41418
207.81369
206.4939
203.35751
202.36947
205.32606
193.76142
193.4204
204.28689
206.39834
194.70306
195.11378
196.29383
197.07681
197.76208
211.58911
210.09796
208.9089
207.61991
208.73098
195.85817
195.42758
207.5029
223.85435
221.99486
218.41161
220.11573
215.3354
216.74252
221.78228
223.13018
245.48939
242.62662
234.16583
232.16307
240.26167
237.75025
244.34806
247.23626
223.94539
225.79498
227.8588
229.42337
257.00209
253.78641
249.90779
287.05015
272.92881
257.81849
243.95928
246.00475
271.08579
251.98139
249.73599
267.47668
264.54237
241.71061
239.35099
228.70868
219.64351
211.75434
222.15579
213.20693
222.85003
212.7327
205.13686
197.47877
204.22764
212.807
213.55348
205.34711
213.34171
223.60284
222.58398
234.08079
232.74624
221.85513
211.84673
204.2097
196.88595
196.7867
204.13848
211.43773
203.27159
203.71217
212.08844
221.60352
220.71417
211.39452
204.23991
211.68005
210.99761
202.96432
195.82101
189.4883
193.61857
193.34215
197.31309
197.7678
206.32196
201.03118
200.57436
195.56107
202.56075
196.3612
203.43012
203.49368
210.63841
203.39839
196.37308
196.31373
203.39571
210.33303
202.48185
202.84292
210.85963
219.88832
219.17369
210.32905
219.30072
210.481
218.15952
208.81339
209.45969
210.15608
210.91223
218.43921
217.32514
229.3591
220.03048
221.07876
230.95184
232.5538
245.18156
247.54608
268.08623
249.7001
235.60911
223.39977
237.20906
238.41807
253.97424
251.86261
270.36794
251.77629
253.81757
273.85712
299.35361
273.39233
271.06304
297.50897
301.07377
339.56308
333.95442
295.96035
292.4426
267.79526
249.81159
247.88569
234.12323
247.59292
265.17212
288.8574
265.18776
289.8704
261.45653
258.13048
237.00745
227.01327
225.35276
234.61356
219.13436
217.58846
205.90998
201.84667
201.21849
205.03477
216.20977
210.85001
205.68424
215.3239
216.31106
227.92999
219.09724
230.02453
220.11498
220.95781
231.5361
230.3873
229.35275
241.08516
228.89125
239.75068
226.60982
236.17955
222.34342
223.80638
211.87869
232.3093
230.12015
247.90264
251.29962
238.36935
240.5849
242.90457
262.13522
245.53318
232.67893
231.34259
243.5205
259.96362
244.3255
246.10609
262.60878
285.13293
281.30261
259.11025
280.86794
254.77335
273.41572
245.51631
225.7602
211.13225
199.7592
190.50843
190.65715
192.45867
192.23333
202.2291
203.20817
200.56968
212.50323
216.69875
215.04742
232.4214
235.14514
227.9395
248.83152
251.98865
254.98249
269.64043
266.02924
310.13898
282.84251
286.88952
290.49359
294.01234
260.08475
275.62759
323.77163
318.78324
314.91145
345.10232
283.48698
279.43302
287.35501
247.99128
251.03199
225.93394
225.51809
208.58548
195.79397
183.57717
171.47795
161.61445
154.85686
151.697
156.15383
167.11758
177.86022
163.73091
177.9606
195.35147
215.47351
222.74027
199.87343
263.2737
361.95184
349.3006
262.65444
210.25811
210.51651
181.11932
166.39356
156.12432
181.03136
199.52811
262.41333
396.29029
731.7373
655.92677
391.37419
637.14228
1072.4878
1232.0964
709.01274
354.10056
342.25224
261.6292
195.00476
166.91144
213.91522
197.21119
268.09936
398.40768
641.65217
1068.4887
1225.4121
715.35143
404.87984
757.2703
675.86824
363.55076
379.96614
269.43712
201.95682
167.74432
218.98697
226.87681
224.1754
395.67208
855.99123
1427.2138
1437.3505
823.23763
373.20649
220.18477
177.60222
160.30801
161.40543
159.42934
158.30475
171.65796
168.34422
170.24859
171.44709
171.57812
170.43271
182.65038
184.75403
185.47307
183.15676
179.53493
179.26727
168.73233
166.31008
165.95357
175.14574
175.23167
175.38989
166.16479
159.91039
161.34525
163.00834
171.14397
171.69406
170.82667
170.26846
170.50192
169.96556
170.9999
184.29271
182.36818
181.86373
181.41705
182.97633
182.59134
181.18155
178.67038
169.47002
168.83363
168.99826
168.37388
179.23806
178.98291
175.37335
166.8007
166.81481
167.45591
175.4339
175.35915
178.77109
188.44665
190.43959
192.275
193.52145
194.30158
194.34645
193.67288
193.36488
194.01856
205.03882
204.10853
205.20669
206.22705
221.81468
220.06835
218.14392
219.79938
241.30907
238.1716
241.35164
244.76726
282.50822
274.90009
262.09324
257.82923
298.15328
304.65026
278.39728
320.74594
285.62571
319.73712
325.06336
329.75609
293.92838
331.5121
335.85725
338.63193
392.38615
390.19878
497.98524
395.246
398.60879
501.50992
649.74308
664.42742
459.70211
348.88895
368.65657
295.36277
297.86988
373.20493
507.73059
515.60463
847.36288
816.47434
1350.9011
942.85457
633.78689
466.7388
381.04244
328.35401
295.78007
271.29514
252.95503
237.25143
224.57382
223.46618
212.70935
203.35014
195.21633
188.05951
188.27935
192.17904
184.62849
184.58359
191.7139
191.302
187.79015
194.82086
194.44758
202.23106
202.80966
208.7141
199.43907
199.99492
200.38766
195.38136
203.91542
210.53874
209.53831
216.1201
204.89167
195.36619
187.1705
187.3483
195.89419
199.70747
190.11256
189.89273
198.93061
198.22998
194.83652
186.58022
184.09305
184.13465
190.99316
198.8912
207.95935
213.99787
203.40306
194.38046
186.54778
178.97984
181.7742
170.4838
171.44459
170.94113
170.9302
161.612
154.85923
148.98115
148.31808
155.22582
155.65562
147.26138
148.09634
149.76837
151.68974
160.23787
161.3855
171.30135
177.29397
185.02637
184.42583
171.51036
170.39683
170.18877
182.90673
182.50672
179.21436
168.71742
159.42905
158.27901
171.60862
168.33334
179.48205
175.1345
165.94033
166.32353
175.23346
175.3998
179.21496
182.28189
184.0628
183.44683
183.43658
182.88022
181.38443
170.262
170.84626
181.17543
178.69794
185.64633
183.46167
183.83801
183.70829
190.64083
190.3988
190.1322
189.93867
186.87983
181.09845
183.62943
185.73773
192.86552
193.16704
193.53704
186.10252
186.04736
193.90649
196.9953
188.39736
189.07002
189.15769
191.25076
192.12331
192.47935
203.18029
202.32208
205.29893
194.23315
194.66058
206.4786
220.68085
215.79008
210.64379
205.394
217.29236
225.00747
223.25164
209.87922
208.89171
204.17481
215.10635
221.87666
220.47957
207.9638
197.67674
200.68225
191.0776
192.98566
193.24672
204.29394
201.49429
213.64077
214.90592
230.88864
232.84139
241.08732
238.50987
219.54529
218.07987
216.61861
212.45693
227.3116
229.15702
236.41449
234.22167
240.3312
220.07282
205.46605
203.41762
202.43119
199.92043
190.33866
190.22773
188.40122
196.50574
195.9769
187.84129
187.89323
195.58391
204.64324
200.98509
197.1877
193.29905
200.44694
200.84977
201.26373
193.82802
194.10929
201.73293
207.21209
198.39721
197.95169
206.55828
205.94626
197.58349
201.51605
202.0872
202.71657
212.99718
212.0465
217.77406
206.18661
207.05096
219.13637
234.14449
225.3325
217.51215
210.40532
211.15427
211.9139
222.39832
221.36502
230.93455
218.5818
219.61954
220.71636
233.85701
235.8127
251.47975
249.49161
236.11956
250.94519
268.05678
271.38093
294.0147
268.66203
248.33854
246.22822
229.77239
240.14501
261.5709
264.96541
292.33106
288.91008
266.44476
290.64055
322.99367
328.64918
377.75707
323.79856
284.38741
280.89227
252.18258
265.29934
304.58097
309.62891
368.0545
364.3827
320.50499
373.26596
455.12672
461.72982
581.64834
421.90616
334.83819
330.3498
278.00146
245.26159
223.38584
207.65353
195.63021
196.16188
208.86885
210.25136
197.03215
196.49488
208.9479
207.73029
206.5403
194.55847
194.25246
195.03543
195.39415
195.39076
196.54037
197.06395
203.84377
204.73172
218.72001
242.87124
240.20022
229.52762
199.8396
200.51686
231.50195
284.62245
317.50415
365.56013
522.48069
536.0118
318.38132
283.19204
387.88531
388.08026
307.36355
251.40518
217.28734
193.82584
198.75267
186.58813
186.66426
193.55001
215.75121
203.05451
203.56668
226.4994
262.73065
259.83645
256.8951
301.73809
249.55791
225.54129
222.35015
231.81442
243.0856
255.58167
269.31402
281.76588
289.51387
289.05316
252.37491
247.97628
224.68138
226.9765
225.61839
249.42895
246.91344
242.91947
221.76936
223.89248
222.11388
206.67022
205.51081
204.41439
193.30933
192.12878
191.96656
201.6517
199.26603
198.57886
189.6263
189.59445
198.05243
200.15089
191.16382
191.23585
200.85597
212.47585
209.10103
205.41225
216.5558
211.18189
210.37317
205.40972
214.87008
208.60137
209.14768
209.75652
219.44916
220.39991
229.55474
228.22833
216.57318
215.70577
227.00698
218.62226
217.85969
225.91608
238.81235
228.51105
229.56064
230.69969
231.92082
233.24562
234.64233
249.03542
247.19818
263.03926
245.64546
247.57391
232.44748
244.21993
228.2559
226.80443
242.23594
256.12816
236.21529
238.18173
258.95057
285.4213
263.75471
261.09303
283.91194
287.34249
265.60329
287.22512
266.55298
269.14125
292.20267
318.66099
290.56901
294.00694
300.6066
304.87876
399.80296
388.52746
381.12857
488.8498
373.88421
381.49482
503.75023
773.83482
581.29869
593.00662
1186.9176
1043.233
1461.0317
1645.8467
785.1956
1220.1256
765.81285
560.74575
552.93367
804.99971
756.96054
1387.0781
972.41395
1099.4425
1556.1577
2192.0876
1933.4215
1137.3286
1977.6856
2248.9469
2474.4984
2131.7041
2119.7819
1942.6817
1438.3913
1019.9266
545.45213
325.14812
245.75508
205.72946
204.70385
200.21031
201.03128
232.55575
230.42792
242.76657
326.18193
285.01413
286.99071
390.79964
390.02748
561.48234
499.36569
369.53041
296.25108
256.27844
229.03652
211.4355
197.66495
197.03935
196.0394
196.67911
209.7723
208.42995
209.98306
227.53093
224.84791
226.31828
250.85266
247.93776
253.02462
250.20246
247.18239
223.55563
207.3588
195.41525
194.54006
194.9177
207.16811
206.01859
203.7696
193.23422
193.49838
194.56636
195.05811
192.74821
192.32683
202.70441
205.9218
207.19101
203.70069
216.56876
221.89303
220.58209
215.57578
232.00289
240.34096
243.17268
234.10049
225.74199
211.14265
200.05824
190.31325
193.64278
193.99817
198.82732
186.57432
186.64247
202.87531
215.86881
217.52456
203.40454
225.89798
251.42575
262.01028
306.16392
300.18057
249.35627
224.92988
255.1393
258.059
229.29375
207.50638
192.05376
179.58446
170.85144
163.4673
156.78285
149.77253
153.03302
157.47671
159.01807
156.39092
154.33168
154.77935
153.87064
151.6443
152.55249
155.4091
164.64908
160.96184
159.93765
161.37363
163.96573
170.9208
166.83151
166.37462
172.76398
168.45822
173.1395
179.71573
191.52574
182.53984
181.9246
180.41202
166.76348
158.36027
180.34231
209.55312
192.45379
192.58249
206.71942
226.89116
206.74851
207.56043
192.03709
181.89905
182.53192
173.14395
172.7889
179.56544
179.70481
191.54034
191.9496
181.97792
168.74105
173.04619
175.79827
171.15649
163.90615
164.61171
162.12954
160.39439
161.44902
166.66873
167.21327
171.31885
171.43753
164.7094
165.40879
163.09322
161.82914
162.43785
167.24248
167.85511
171.69962
178.45532
180.911
183.43559
185.64113
187.84408
189.64316
191.27876
192.37579
193.04882
193.08685
192.49148
191.42316
191.28339
189.71944
198.31425
198.99002
201.26765
200.47216
202.0615
192.30645
192.85743
202.88696
203.9066
203.03032
216.28082
213.45796
209.8646
208.69386
211.98633
227.14307
221.7435
223.72068
229.7772
234.95839
231.83001
214.57335
215.9118
217.83027
237.85966
234.43636
264.64672
258.71944
248.89233
239.00655
242.23853
253.40336
290.92779
268.31545
263.09519
283.24251
308.14632
318.3693
264.45173
269.8814
277.05188
346.81511
327.1878
334.48728
340.44673
360.7802
365.44221
291.68658
289.78928
293.64456
282.96654
285.80825
344.29336
339.54894
364.54681
360.73358
355.64846
285.52068
275.06487
242.48349
221.16461
223.04693
245.3297
237.97977
218.98283
204.81954
201.76353
191.44558
191.22798
200.94715
212.86729
217.37626
235.56584
228.11259
230.1184
214.25533
209.209
198.43754
189.26796
190.06879
187.25489
187.47219
196.0602
195.51127
199.23042
210.31082
205.10367
205.66654
217.64233
216.47315
223.92785
222.41156
220.89846
208.20996
197.79264
189.17214
186.57685
186.67016
194.93971
194.44623
191.04593
184.1781
184.13559
184.66163
184.71394
181.66246
181.64994
188.09423
191.8258
192.33074
188.34856
195.43094
200.53063
200.09622
195.30905
203.40824
209.68743
210.76177
203.99653
213.29749
221.96231
231.50018
243.04717
256.18555
271.18303
268.35595
253.94211
283.50386
309.67725
315.15436
287.28873
327.5546
376.43052
438.81895
438.2974
505.22971
823.05969
797.89265
610.63694
616.53381
621.3503
434.59346
335.06075
279.27337
265.01395
261.45751
248.29299
251.1894
279.83274
305.28626
300.28723
329.57236
429.14665
505.83502
520.83816
457.87766
381.9789
326.67062
385.89966
391.11673
498.198
386.82412
459.50376
519.14902
888.31662
681.15857
699.58375
497.01798
494.04474
375.60212
367.24961
314.08483
371.66432
313.99054
307.71675
276.04602
256.06144
241.6446
257.49295
242.70292
257.232
242.2291
243.81048
245.46986
260.63724
243.79767
242.03155
258.32006
256.09634
240.41831
253.3043
236.50945
222.67207
223.9851
238.36919
240.2865
253.32967
250.50932
232.22821
230.34026
228.60128
221.51734
234.82316
245.15015
247.80863
270.10912
274.083
255.9042
258.47076
280.50957
277.11414
304.09013
309.29832
278.01852
281.82096
314.18227
318.75661
368.1937
316.02032
277.48256
249.59643
246.98217
273.8213
296.05612
259.07038
262.30769
300.63838
359.64052
353.88679
311.17362
362.38534
445.50713
451.29831
589.71628
417.53432
326.21937
274.60525
270.93701
321.28605
341.68262
279.30906
244.27973
241.4342
237.7477
231.9876
225.53093
211.27462
210.17789
223.78794
229.76608
213.85484
215.23065
218.42019
216.79314
203.4871
193.09234
193.77786
194.06391
194.04277
182.9097
171.14062
171.14573
171.69927
182.56367
192.27251
192.14262
201.72762
202.54506
203.45305
192.91691
192.74306
202.59297
215.23081
213.76982
211.28138
208.14801
220.5219
215.45969
214.3968
209.67985
204.90308
200.11686
195.22996
190.19823
181.67019
169.87916
162.46406
157.48018
157.23648
154.59736
158.37837
158.01194
158.37811
160.34246
159.48208
155.8535
157.4799
159.22675
164.00977
162.47661
163.32493
159.88504
161.58363
164.52251
164.11479
168.61138
167.90304
171.90989
165.53289
166.33304
172.25346
172.52657
168.78561
169.46267
165.27326
167.36083
166.58596
168.45325
163.66203
157.33139
160.82961
164.58926
162.64977
160.47912
162.3106
166.47418
164.82296
165.60006
166.48783
170.37389
169.606
173.18917
167.60846
168.51195
173.61355
173.96005
170.65741
167.04636
164.43186
168.06925
171.441
169.94506
168.92985
170.68707
166.31335
171.76491
177.05245
176.7756
170.29511
169.40963
169.20576
176.21524
172.90723
176.47854
174.63328
170.8525
164.01214
159.22747
161.5791
159.88654
163.31756
164.09922
166.31606
165.52674
171.89282
167.88746
168.60813
172.23342
172.50162
166.56453
164.51723
165.26468
167.34914
172.87099
169.46032
168.78477
174.15456
174.11219
173.63084
175.85228
176.10431
178.74543
178.5046
183.56124
180.13741
180.38154
183.58055
183.51563
178.59739
176.0709
176.31852
178.85441
183.55288
180.48129
180.25997
184.81168
182.26292
181.69975
184.79953
184.91925
189.02596
189.13936
195.25998
190.228
190.40435
195.10526
194.91538
188.94279
188.86022
184.91685
190.28589
190.15744
195.6151
190.89006
182.27036
174.11434
173.64578
175.86296
176.11909
180.38312
180.15202
183.56204
178.50829
178.77159
183.59382
183.54
180.25869
176.0892
176.33606
180.48763
183.58144
178.88663
178.63493
180.90716
175.77885
168.27542
162.03839
167.52227
175.58391
178.65458
169.37878
170.14868
178.76608
178.85486
175.98023
180.94548
178.7299
176.25085
174.17885
181.81116
182.40587
184.79619
180.44718
180.56453
176.52713
178.99612
183.5756
183.54372
180.31175
184.72667
184.92924
184.83382
184.91192
184.81013
189.11294
189.03084
195.0896
190.39234
190.10732
190.26411
194.78258
188.89665
188.9595
194.93243
201.60114
195.6167
195.92337
190.83271
195.89861
195.94783
201.89632
202.20025
209.90607
202.71852
202.79502
209.5313
209.12493
201.64111
201.41354
194.81005
194.61732
188.77733
183.51317
178.71016
176.23513
176.49352
178.98796
183.56449
180.55493
180.30661
184.72075
181.81467
182.40322
174.63534
176.47407
176.73449
179.13514
178.87572
183.54237
180.44308
180.67452
183.60422
188.65544
184.91055
184.81645
184.86767
188.75636
194.54932
190.12368
189.92606
195.31102
190.50234
190.66291
195.15663
189.89275
190.05179
194.35217
194.45151
188.72134
192.26751
186.42806
181.02898
176.1997
169.19206
163.6568
157.32829
160.82648
159.48161
160.4782
162.64643
165.59714
164.82242
166.49262
168.50843
167.60001
173.17908
169.59981
170.38128
173.60531
171.34951
174.68275
175.22554
176.96987
176.96184
176.67522
179.02207
179.3149
183.64998
180.79928
180.52743
183.59419
188.59955
184.74841
181.98238
182.61185
184.86583
180.72648
180.98262
177.28161
179.5479
179.24446
183.66187
183.74162
188.55737
185.00567
189.92218
189.73482
189.9377
184.91755
188.60088
194.15999
194.24025
189.7227
194.90965
190.33405
181.98357
174.68956
175.22566
182.60575
184.87289
180.72849
176.98418
176.96899
176.68003
176.75091
180.67406
183.59198
179.14742
178.88514
183.56251
188.68717
188.76615
184.88292
190.09848
189.90753
194.62838
188.81292
192.46835
186.49809
186.58253
181.13907
183.45179
183.25098
183.50927
181.09706
180.88363
186.7422
186.69198
189.61962
189.76017
183.30696
185.37926
185.53037
192.37092
192.59034
195.17047
187.42762
187.55784
194.89937
194.58679
192.15388
189.48235
186.62719
192.73806
192.91353
193.08887
196.87025
196.60199
204.48386
199.84819
199.58389
199.37953
192.64151
196.13639
189.40418
192.01249
185.411
185.25949
187.17111
187.34359
194.40154
202.60265
199.51435
199.81697
196.39184
204.12179
203.80921
208.08358
208.56318
209.09016
200.16697
200.54793
204.0263
203.48189
213.54834
212.79584
203.04867
205.89422
196.75448
188.71984
181.02441
171.41747
163.51196
165.15201
171.45857
170.22428
170.99403
179.04408
181.1618
172.20927
172.95998
172.215
172.21644
171.47901
170.69555
181.03393
182.30054
182.24758
182.21825
181.06185
188.46006
187.00296
185.14512
183.21249
183.4424
181.17364
186.47491
189.21369
189.2841
195.96197
195.79759
192.38143
198.98989
194.5575
194.41676
189.87812
190.03167
184.91336
188.66922
194.34868
200.7175
195.22773
195.15786
195.40134
195.30495
195.65779
202.36068
202.25881
202.80226
202.70042
195.89585
202.123
201.90061
209.49591
209.8741
218.51067
209.69237
209.47315
218.05351
218.64472
228.42313
227.62526
217.99697
217.46541
208.995
202.26172
202.36173
195.71672
208.85369
217.09836
208.87471
217.0757
208.85606
201.42326
201.18278
201.04144
208.32572
202.00007
201.82743
208.5654
216.70194
208.43922
201.81734
201.99957
195.44445
201.03822
201.22207
208.52719
208.32858
208.07712
200.87815
200.72751
195.26119
201.70238
201.56643
207.99412
201.52875
201.69666
207.90076
208.10413
200.88915
206.23463
198.83691
192.27225
186.42325
181.04032
181.25544
186.42308
189.07953
183.48688
183.24447
189.13925
195.65601
195.52473
192.19169
198.67853
202.84986
203.07482
203.29265
203.53882
199.21051
206.73839
207.04217
207.35038
207.70362
208.12572
217.18398
216.6182
224.04454
213.57513
214.20781
224.9563
237.4685
227.58943
226.77244
238.3976
239.54669
240.81808
254.04033
270.5101
250.9933
266.32669
293.53848
298.85842
273.81772
298.28494
274.92063
277.91897
259.49389
261.73223
264.11646
285.62418
288.96092
314.60177
310.49083
284.11242
311.22752
315.49425
319.68125
323.33464
360.03156
324.20058
363.32335
357.9213
324.73903
375.39583
419.59171
428.18785
480.33051
406.46739
400.75384
354.58438
410.113
363.80403
369.48262
418.64106
474.72431
465.99709
547.16254
471.39051
463.47286
413.39792
370.32306
320.42384
316.0656
364.81187
406.69016
347.41667
352.80757
394.25082
349.42462
344.18943
397.40967
353.14325
358.67992
404.09775
458.26613
450.06478
387.64278
455.14952
527.7366
538.06033
682.51453
590.2871
525.85103
460.18037
464.68237
637.23227
763.79394
531.84408
536.19208
766.00937
1211.289
1282.3242
994.88516
1498.7104
2147.4061
1916.4549
2216.7338
1355.0138
865.7815
604.57096
598.84409
861.75685
984.97425
692.73812
702.97657
560.22044
694.54912
589.50589
514.95574
442.77536
439.2317
509.88563
714.99842
581.81253
582.64625
718.92345
831.26423
826.93879
583.79327
684.36863
959.42419
968.37801
1431.2939
1295.4585
1126.241
840.10523
875.02802
586.17195
421.2751
473.50218
350.18021
286.61076
283.19087
346.51278
473.27991
471.1264
412.49998
591.17749
795.22896
772.65384
748.68423
731.34085
469.9091
355.05998
356.04991
351.37961
287.1241
249.68618
225.75733
209.02288
210.35831
208.99979
196.23381
195.70993
207.79898
206.64115
207.81824
206.71319
195.0968
194.31495
194.66852
193.31519
181.83312
170.50055
171.48093
169.96745
168.36995
159.91182
161.34674
163.01662
171.70487
182.57527
181.19013
170.85368
170.28151
181.43733
178.74932
168.83761
169.01078
178.99853
175.38357
166.81099
166.18831
163.90906
157.476
153.03213
159.01591
164.70308
166.82701
167.46359
169.4865
178.69777
175.45768
175.37677
171.44088
171.33954
164.63432
162.1234
160.38833
161.44839
161.37776
163.98554
156.79418
155.40117
164.65907
163.48394
170.86852
170.94144
166.84214
159.96302
160.97998
166.39468
172.82325
179.65589
180.56467
192.2849
191.72035
179.77418
173.18726
168.54235
182.10704
182.698
192.99652
207.28858
208.19511
210.70042
231.01608
228.37915
207.78589
208.80285
193.00358
182.25802
180.9231
166.88888
158.37758
151.64139
152.54969
153.86762
154.77322
154.32918
156.38827
161.82099
162.42781
163.09099
165.41287
171.69856
167.84529
167.2484
167.22709
166.67185
171.18409
178.84552
181.69027
184.7171
187.4361
190.2309
192.59809
194.77655
194.3615
205.54154
206.7267
203.43249
202.53899
192.22292
191.35333
191.15707
193.09462
203.56728
205.62356
220.36253
222.24654
224.03813
247.18741
244.51737
241.00363
243.54969
222.09172
223.72044
224.97974
227.13672
252.68074
248.56679
245.92614
239.32017
219.98154
221.16135
241.96322
233.58622
216.2386
215.32379
231.66608
229.85729
237.22952
218.51436
204.55111
201.66149
200.89271
212.80284
217.04262
235.00382
228.04209
226.17836
232.73216
238.40392
241.71894
220.44837
220.36544
218.58034
204.54613
204.52573
193.81257
193.14807
193.39585
204.51787
205.61883
203.57783
202.60024
203.50721
192.93048
192.76101
202.62529
201.8001
192.19661
192.35711
191.27611
192.06217
192.20471
202.62056
201.80133
199.39187
190.32143
190.43483