/*--------------------------------*- C++ -*----------------------------------*\
  =========                 |
  \\      /  F ield         | OpenFOAM: The Open Source CFD Toolbox
   \\    /   O peration     | Website:  https://openfoam.org
    \\  /    A nd           | Version:  7
     \\/     M anipulation  |
\*---------------------------------------------------------------------------*/
FoamFile
{
    version     2.0;
    format      ascii;
    class       volScalarField;
    location    "270";
    object      p;
}
// * * * * * * * * * * * * * * * * * * * * * * * * * * * * * * * * * * * * * //

dimensions      [1 -1 -2 0 0 0 0];

internalField   nonuniform List<scalar> 
25278
(
101315.68
101314.62
101315.95
101315.84
101318.87
101314.18
101314.77
101315.6
101315.11
101310.52
101312.2
101313.66
101314.42
101316.07
101323.6
101315.94
101314.7
101321.24
101324.78
101318.6
101314.06
101314.31
101314.66
101312.2
101308.32
101311.98
101314.45
101312.63
101318.01
101311.59
101309.43
101315.3
101310.05
101313.36
101307.29
101313.77
101309.38
101305.84
101309.64
101303.89
101306.94
101302.25
101302.92
101295.83
101300.98
101303.92
101310.32
101308.18
101302.58
101309.49
101309.38
101318.66
101313.89
101312.03
101313.67
101307.18
101305.54
101311.54
101303.48
101307.37
101301.96
101301.69
101302.05
101306.89
101315.89
101315.01
101306.44
101302.14
101306.54
101308.28
101323.29
101312.53
101315.71
101309.48
101315.54
101306.58
101307.21
101311.45
101313.99
101318.75
101322.32
101323.39
101321.04
101324.67
101318.54
101322.94
101326.08
101331.44
101330.05
101329.4
101323.76
101323.66
101330.31
101332.94
101333.99
101323.48
101329.72
101328.62
101321.37
101321.92
101329.89
101338.31
101335.13
101321.69
101321.55
101330.53
101323.68
101331.91
101330.9
101337.77
101334.99
101326.41
101343.76
101357.57
101337.33
101334.3
101361.63
101328.97
101337.88
101337.25
101323.81
101318.17
101318.63
101329.86
101332.63
101329.68
101337.24
101334.79
101325.58
101322.73
101322.17
101318.37
101320.42
101323.05
101329.85
101331.02
101322.55
101325.91
101343
101330.51
101335.71
101356.57
101360.46
101327.84
101320.39
101329.83
101328.93
101322.32
101333.49
101322.33
101323
101329.61
101323.21
101328.61
101320.26
101320.6
101320.09
101334.15
101333.03
101312.27
101335.42
101342.17
101314.67
101334.56
101321.86
101330.88
101338.43
101329.01
101359.18
101356.63
101337.75
101328.96
101342.98
101342.07
101423.47
101381.06
101343.01
101338.31
101382.66
101433.84
101340.67
101340.9
101325.71
101335.47
101337.73
101329.3
101320.49
101320.14
101331.65
101364.64
101359.22
101338.35
101324.21
101329.97
101329.18
101326.5
101347.95
101314.46
101447.79
101415.04
101312.3
101344.21
101325.89
101317.34
101318.82
101317.91
101313.3
101317.87
101314.72
101308.64
101313.62
101309.79
101306.74
101302
101309.31
101305.11
101308.95
101303.61
101302.59
101295.26
101296.11
101300.86
101306.74
101309.9
101306.61
101300.8
101296.93
101302.98
101302.99
101303.81
101302.79
101295.1
101291.67
101298.72
101300.14
101301.44
101301.78
101307.23
101313.42
101318.18
101308.92
101313.27
101311.71
101307.11
101301.62
101306.87
101304.45
101310.42
101303.02
101301.27
101301.31
101306.3
101308.19
101317.7
101313.23
101315.12
101307.73
101305.48
101313.51
101305.02
101301.21
101291.16
101291.87
101292.3
101293.85
101288.53
101298.62
101295.81
101299
101300.7
101300.12
101298.39
101300.59
101292.44
101293.55
101296.3
101299.62
101295.61
101290.77
101289.18
101289.74
101285.38
101294.26
101291.65
101289.26
101281.97
101285.3
101280.6
101279.15
101284.67
101287.09
101292.29
101301
101306.87
101307
101301.06
101303.98
101302.97
101299.65
101292.28
101295.52
101296.49
101298.07
101296.9
101293.59
101293.36
101300.97
101302.53
101300.75
101305.58
101298.38
101306
101298.84
101299.33
101297.83
101301.41
101298.41
101305.54
101315.33
101318.68
101306.04
101299.1
101309.31
101300.64
101299.46
101298.06
101311.61
101318.19
101324.29
101311.29
101295.35
101296.5
101288.92
101280.26
101296.73
101283.61
101297.24
101289.7
101288.8
101290.45
101292.45
101292.79
101288.02
101290.06
101287.35
101294.49
101289.3
101284.44
101287.78
101283.32
101284.13
101294.76
101287.57
101286.01
101284.1
101282.68
101278.43
101286.01
101275.5
101275.25
101282.22
101284.67
101280.9
101286.42
101280.78
101289.5
101290.35
101289.31
101297.96
101293.45
101284.45
101288.11
101283.31
101293.47
101301.03
101302.48
101289.69
101288.75
101290.37
101291.84
101292.15
101288.02
101290.21
101297.3
101294.74
101282.43
101283.81
101281.41
101284.97
101287.53
101281.52
101283.96
101285.34
101286.75
101294.8
101283.97
101282.5
101278.51
101286.24
101275.66
101275.51
101276.23
101273.51
101268.27
101267.5
101276.86
101283.19
101289.88
101280.66
101290.29
101282.52
101277.74
101278.63
101278.3
101284.49
101277.17
101285.34
101287.97
101284.2
101276.55
101276.92
101278.3
101272.13
101278.33
101274
101280.45
101278.29
101273.94
101272.75
101266.77
101273.29
101265.7
101275.81
101266.41
101264.94
101270.95
101266.56
101273.19
101275.96
101284.54
101274.95
101276.01
101280.18
101289.38
101289.24
101296.41
101299.6
101300.52
101315.16
101317.21
101307.82
101299.12
101299.16
101299.85
101312.2
101298.29
101319.8
101327.15
101321.27
101316.64
101295.14
101298.12
101298.27
101293.81
101290.15
101330.09
101352.18
101311.86
101322.2
101326.52
101320.56
101301.27
101301.22
101301.79
101302.36
101306.07
101345.9
101347.55
101296.64
101293.08
101302.04
101304.27
101304.84
101300.41
101293.68
101298.16
101286.38
101291.54
101286.85
101291.29
101286.98
101296.84
101289.84
101275.47
101280.43
101274.62
101278.12
101281.27
101273.18
101281.79
101279.05
101281.4
101278.03
101267.58
101273.23
101275.94
101281.42
101280.08
101282.79
101289.2
101289.18
101299.12
101301.83
101300.25
101297.15
101287.01
101293.06
101294.4
101299.79
101300.55
101299.81
101298.32
101298.7
101307.64
101297.28
101311.49
101300.86
101301.31
101301.46
101321.39
101305.21
101300.99
101300.39
101301.81
101296.51
101297.27
101327.59
101320.83
101318.64
101287.07
101316.71
101293.88
101290.79
101297.27
101328.82
101353.8
101344.09
101290.54
101284.59
101302.09
101271.98
101299.13
101278.5
101295.96
101286.67
101301.14
101292.68
101301.13
101301.79
101300.41
101301.69
101304.01
101297.22
101299.97
101297.5
101294.59
101290.02
101291.34
101296.24
101290.77
101286.73
101295.23
101293.1
101290.85
101293.57
101283.29
101283.25
101286.24
101280.61
101280.01
101284.63
101287.39
101290.21
101280.74
101290.34
101285.62
101278.75
101282.89
101277.93
101278.96
101274.01
101278.02
101276.93
101283.29
101273.89
101276.99
101284.88
101288.24
101286.86
101278.35
101277.59
101279.18
101272.85
101278.44
101276.12
101265.74
101273.32
101280.33
101272.96
101266.74
101268.14
101267.34
101268.42
101271.49
101271.25
101261.2
101269.95
101258.97
101261.64
101253.31
101254.8
101264.48
101266.27
101275.18
101277.66
101273.97
101279.49
101271.81
101278.36
101272.15
101280.16
101264.62
101269.74
101253.64
101260.98
101265.57
101272.72
101270.18
101273.85
101281.51
101285.67
101288.45
101296.35
101290.23
101292.88
101285.94
101291.49
101292.66
101289.45
101283.84
101288
101280.43
101283.37
101283.92
101289.37
101280.17
101277.96
101275.55
101286.06
101286.94
101294.13
101299.48
101293.71
101289.07
101286.1
101286.22
101289.31
101283.49
101288.67
101292.26
101281.95
101281.07
101277.97
101277.8
101281.02
101277.52
101286.22
101291.03
101277.48
101275.24
101285.58
101268.79
101282.51
101272.66
101271.77
101256.6
101265.59
101270.24
101276.97
101272.35
101275.61
101269.22
101265.54
101261.21
101269.28
101275.56
101279.27
101277.31
101282.24
101281.03
101273.7
101266.68
101273.16
101265.02
101268.06
101262.48
101271.31
101290.81
101282.83
101272.83
101281.41
101295.32
101288.52
101301.25
101292.93
101301.47
101297.13
101296.5
101284.8
101285.44
101280.82
101290.14
101292.03
101291.49
101289.48
101279.63
101278.99
101280.42
101266.87
101267.68
101271.28
101272.65
101276.28
101284.78
101281.05
101275.67
101273.51
101276.14
101275.29
101272.24
101270.73
101273.82
101275.3
101283.48
101282.25
101272.09
101268.15
101279.35
101277.52
101264.95
101263.88
101266.99
101268.7
101280.65
101276.84
101272.38
101276.77
101265.87
101268.22
101270.64
101263.37
101267.05
101270.72
101269.01
101264.75
101255.7
101261.29
101263.63
101259.04
101253.88
101249.42
101260.22
101256.12
101259.97
101249.6
101258.17
101253.65
101263.79
101271.66
101283.14
101285.67
101292.5
101289.41
101297.53
101284.16
101285.39
101285.03
101276.66
101275.67
101282.86
101279.7
101270.74
101269.49
101280.92
101284.82
101291.24
101290.32
101300.21
101285.49
101285.01
101284.81
101275.28
101275.09
101284.05
101279.86
101269.31
101260.25
101260.48
101262.52
101271.22
101272.37
101279.74
101279.85
101292.61
101273.57
101276.61
101275.55
101263.29
101261.98
101252.59
101249.13
101260.66
101270.61
101279
101279.23
101295.29
101276.09
101275.65
101275.08
101265.81
101268.26
101267.27
101270.6
101284.11
101260.89
101277.99
101266.11
101266.44
101247.65
101258.95
101247.38
101251.34
101257.45
101262.55
101254.08
101260.76
101252.96
101262.55
101264.85
101278.34
101268.06
101261.28
101266.06
101266.68
101270.14
101261.39
101253.39
101245.06
101234.6
101244.67
101254.67
101255.29
101268.84
101270.18
101260.21
101250.74
101259.21
101261.99
101253.75
101245.06
101240.19
101251.62
101259.77
101250.35
101247.79
101257.05
101265.2
101271.42
101266.88
101268.43
101264.15
101262.7
101253.57
101259.35
101261.04
101266.91
101258.63
101267.82
101263.06
101250.8
101247.25
101251.27
101261.45
101267.85
101263.44
101250.03
101258.28
101256.96
101247.89
101237.35
101239.4
101250.53
101239.52
101250.12
101240.68
101251.64
101249.82
101252.19
101255.91
101249.71
101244.77
101231.68
101241.22
101245.88
101238.12
101248.08
101239.88
101252.23
101243.83
101249.92
101256.83
101262.16
101266.86
101286.55
101277.73
101263.86
101260.27
101262.4
101276.33
101256.23
101269
101286.11
101257.1
101256.2
101273.75
101241.89
101250.69
101251.09
101230.86
101239.24
101247.9
101234.55
101244.81
101236.84
101224.86
101209.75
101225.43
101219.57
101235.25
101221.34
101236.69
101242.38
101235.98
101228.5
101243.99
101240.72
101253.38
101257.89
101259.2
101254.53
101241.34
101248.12
101254.88
101243.79
101242.22
101228.21
101238.47
101225.24
101237.24
101239.85
101228.08
101224.36
101226.51
101211.63
101227.97
101214.28
101229.88
101217.56
101234.89
101233.15
101246.97
101224.33
101225.34
101204.19
101204.43
101215.76
101219.65
101228.07
101210.38
101224.74
101235.09
101228.41
101215.91
101197.61
101213.4
101222.18
101209.25
101189.79
101174.46
101198.74
101186.54
101210.54
101190.72
101215.85
101236.57
101251.31
101262.54
101276.82
101273.7
101270.71
101273.79
101260.7
101264.14
101265.56
101256.17
101254.19
101248.56
101233.65
101241.77
101243.66
101226.8
101240.14
101256.16
101254.82
101239.02
101223.97
101224.26
101242.7
101261.31
101276.95
101297.18
101291.41
101261.13
101263.11
101241.04
101236.03
101252.26
101232.55
101232.51
101249.19
101260.52
101270.43
101271.03
101275.51
101284
101285.17
101296.56
101301.98
101308.31
101314.2
101321.35
101325.13
101328.93
101328.38
101330.72
101329.93
101340.09
101331.44
101320.93
101331.34
101363.85
101359.45
101334.85
101339.13
101336.17
101322.93
101321.27
101321.3
101321.16
101321.4
101336.67
101311.87
101350.34
101347.87
101326.27
101336.03
101383.58
101429.83
101331.97
101363.01
101358.37
101339.26
101330.01
101324.96
101336.16
101329.96
101334.34
101325.24
101333.48
101385.44
101437.84
101328.86
101313.48
101333.48
101336.89
101357.77
101362.08
101330.93
101320.31
101323.52
101337.62
101328.01
101323.82
101340.4
101304.26
101466.57
101439.29
101328.76
101351.22
101328.89
101315.05
101318.98
101309.54
101309.73
101318.73
101312.01
101311.66
101316.25
101315.21
101306.55
101307.19
101302.5
101302.67
101306.98
101308.62
101303.9
101302.28
101305.84
101307.52
101313.93
101307.85
101302.58
101295.36
101302.36
101303.02
101302.03
101300.56
101289.58
101291.59
101292.4
101290.65
101297.49
101301.85
101301.18
101293
101293.54
101286.2
101281.68
101280.02
101279.36
101281.23
101284.3
101294.02
101291.43
101297.56
101300.67
101293.92
101288.04
101290.27
101299.58
101293.77
101295.7
101287.72
101287.38
101284.36
101273.78
101274.8
101271.57
101272.25
101270.8
101270.71
101271.57
101273.86
101272.93
101257.84
101258.31
101262.34
101261.99
101250.58
101251.13
101244.29
101243.46
101225.35
101226.01
101236.5
101236.17
101213.09
101214.15
101224.61
101212
101190.07
101205.54
101205.96
101175.83
101201.74
101180.23
101203.04
101224.04
101238.52
101230.74
101249.27
101296.46
101282.47
101250.84
101241
101240.31
101266.89
101233.09
101256.35
101230.45
101244.59
101259.03
101259.53
101266.39
101297.12
101265.23
101291.74
101243.48
101226.69
101230.87
101286.75
101336.21
101274.48
101313.03
101268.84
101289.75
101274.5
101288.45
101276.23
101286.98
101283.04
101273.64
101278.45
101282.11
101286.11
101288.53
101291.6
101286.19
101292.13
101289.6
101288.09
101280.48
101282.87
101280.45
101275.98
101269.82
101274.48
101271.15
101277.45
101284.36
101289.82
101292.66
101286.74
101278.78
101281.83
101279.14
101282.92
101286.5
101294.27
101299.15
101289.67
101283.99
101292.66
101288.33
101286.37
101277.53
101279.56
101287.02
101282.66
101283.04
101277.94
101272.83
101266.41
101262.69
101270.24
101275.78
101286.13
101286.16
101284.23
101296.3
101294.77
101299.44
101299.66
101299.84
101306.81
101313.82
101315.45
101315.35
101314.56
101315.48
101313.75
101313.37
101313.11
101317.59
101308.03
101313.84
101312.07
101305.39
101300.45
101305.15
101305.21
101314.16
101305.87
101299.84
101299.23
101303.66
101308.03
101317.4
101310.01
101310.15
101301.29
101304.75
101312.3
101305.51
101299.26
101291.23
101290.15
101290.36
101290.6
101282.38
101283.09
101277.2
101279.07
101289
101290.38
101277.82
101281.43
101270.81
101271.18
101279.68
101274.75
101273.32
101271.8
101269.9
101270.83
101274.34
101282.77
101280.21
101278.27
101266.72
101266.14
101268.41
101280.33
101276.87
101270.67
101268.16
101271.29
101280.02
101281.37
101285.88
101292.84
101300.85
101289.09
101285.43
101285.67
101288.47
101295.92
101284.38
101292.87
101295.37
101289.29
101292.35
101284.13
101275.11
101279.51
101282.12
101274.18
101276.44
101269.49
101266.74
101259.87
101267.78
101273.88
101272.12
101283.41
101278.49
101281.73
101275.87
101277.13
101273.95
101281.3
101277.7
101283.56
101276.07
101278.79
101281.32
101272.69
101264.27
101265.66
101256.37
101265.77
101264.35
101254.94
101252.2
101262.75
101269.64
101270.93
101264.04
101265.78
101273.87
101276.54
101275.12
101265.47
101262.82
101265.81
101274.83
101263.19
101253.29
101258.15
101263.15
101267.7
101260.47
101259.22
101261.54
101269.02
101270.96
101264.12
101259.78
101267.37
101264.78
101256.15
101253.47
101262.27
101257.65
101260.67
101264.19
101255.24
101250.37
101245.21
101256.73
101260.96
101251.19
101240.38
101245.16
101251.22
101256.81
101263.53
101271.08
101263.15
101255.13
101249.72
101258.99
101267.04
101276.6
101273.21
101270.72
101279.84
101265.68
101267.95
101263.13
101261.78
101258.05
101270.76
101287.53
101279.84
101268.65
101273.62
101273.36
101269.47
101264.89
101278.03
101260.53
101260.56
101254.32
101254.87
101246.88
101271.31
101298.73
101280.58
101265.96
101271.33
101272.61
101268.12
101266.5
101288.05
101258.42
101256.13
101247.38
101249.09
101241.29
101263.64
101304.89
101277.23
101265
101270.87
101277.33
101280.57
101284.88
101291.41
101300.58
101287.07
101284.96
101298.05
101288.88
101284.92
101274.77
101275.43
101284.85
101281.01
101278.1
101282.42
101283.28
101289.66
101299.14
101300.13
101320.44
101323.7
101305.75
101300.3
101298.42
101298.97
101320.59
101308.07
101348.93
101345.3
101341.77
101294.19
101285.14
101300.85
101299.08
101294.25
101322.41
101283.55
101317.91
101294.84
101311.17
101315.69
101313.58
101297.57
101297.15
101295.45
101295.32
101304.06
101325.17
101319.8
101311.73
101289.62
101287.64
101293.41
101293.43
101282.24
101286.85
101282.58
101293.7
101291.1
101297.96
101298.61
101299.24
101277.93
101281.04
101295.85
101295.07
101280.6
101277.98
101263
101263.48
101272.43
101271.85
101262.12
101269
101261.31
101262.22
101271.51
101269.4
101271.84
101260.18
101262.35
101259.2
101266.25
101273.96
101259.18
101256.12
101270.17
101261.72
101256.53
101245.04
101248.54
101253.17
101240.9
101247.05
101247.24
101254.13
101243.5
101251.33
101250.04
101252.87
101242.03
101246.89
101239.76
101233.08
101246.02
101242.77
101228.86
101238.83
101240.57
101229.73
101214.63
101228.01
101225.85
101229.51
101236.34
101246.03
101257.91
101248.49
101235.24
101226.51
101239.11
101252.01
101258.24
101254.95
101264.8
101254.03
101242.85
101238.56
101250.75
101261.96
101251.01
101243.51
101247.61
101229.99
101213.69
101234.27
101240.88
101233.28
101241.78
101255.63
101251.81
101249.95
101252.85
101276.67
101293.15
101355.6
101284.1
101329.64
101288.98
101281.16
101290.08
101333.06
101262.8
101367.26
101440.92
101304.67
101302.12
101378.54
101246.77
101278
101286.38
101382.66
101300.49
101307.21
101435.88
101312.51
101361.75
101254.12
101388.61
101313.89
101288.94
101439.71
101499.25
101655.65
101466.26
101425.61
101445.26
101197.58
101222.61
101504.41
101264.21
101392.31
101298.99
101347.92
101307.04
101322.37
101302.43
101301.92
101323.6
101311.33
101301.5
101303.07
101305.1
101302.39
101353.12
101325.84
101296.92
101295.13
101295.88
101267.21
101298.41
101276.71
101295.76
101285.76
101300.1
101290.31
101291.78
101301.71
101287.25
101285.2
101285.53
101279.94
101279.59
101296.45
101279.3
101275.77
101276.82
101261.6
101250.6
101261.06
101269.85
101279.86
101281.53
101285.38
101275.84
101270.1
101271.94
101280.35
101283.37
101289.89
101297.62
101301.96
101293.26
101285.89
101286.25
101284.81
101289.55
101296.08
101292.88
101280.97
101280.89
101276.85
101278.03
101274.54
101282.7
101274.64
101289.6
101284.75
101294.44
101300.57
101312.69
101316.95
101315.98
101301.29
101299.44
101299.19
101297.97
101307.95
101327.39
101318.94
101318.85
101288.23
101292.3
101297.56
101298.01
101294.48
101315.85
101296.12
101312.24
101299.89
101310.22
101304.64
101310.19
101309.78
101314.46
101310.45
101304.43
101304.38
101307.01
101308.43
101307.29
101311.77
101312.8
101318.13
101315.63
101310.6
101313.98
101307.65
101309.59
101306.33
101303.59
101303.01
101307.55
101315.89
101306.97
101306.07
101301.63
101300.21
101299.2
101306.6
101319.5
101317.95
101313.51
101318.63
101325.1
101318.64
101302
101298.85
101297.44
101298.79
101311.65
101299.34
101306.86
101299.22
101305.85
101315.62
101309.38
101301.03
101299.99
101285.36
101290.56
101297.54
101298.85
101303.03
101296.83
101301.64
101300.2
101303.28
101301.58
101304.4
101297.46
101296.39
101293.34
101291.07
101295.31
101297.99
101300.26
101301.27
101297.74
101292.28
101296.81
101291.66
101279.88
101277.62
101274.3
101272.73
101269.24
101268.18
101265.21
101264.57
101263.35
101263.1
101263.79
101264.1
101273.57
101275.46
101261.28
101260.33
101258.12
101258.77
101256.46
101272.62
101272.08
101255.95
101255.26
101255.65
101240.52
101244.98
101248.32
101249.51
101245.56
101228.63
101234.03
101233.1
101229.2
101221.18
101222.83
101241.83
101241.3
101240.04
101222.07
101224.44
101195.2
101190.29
101205.06
101213.93
101211.4
101205.62
101183.71
101184.79
101187.96
101180.27
101159.29
101145.93
101185.48
101195.14
101192.39
101156.02
101159.42
101187.67
101212.96
101213.7
101235.33
101251.91
101253.9
101268.41
101266.9
101299.93
101273.24
101260.56
101262.93
101238.91
101218.13
101235.05
101234.57
101250.45
101261.33
101271.29
101261.65
101263.76
101272.4
101276.68
101277.8
101286.51
101284.02
101272.9
101265.32
101264.09
101254.95
101255.81
101265.03
101273.63
101274.64
101278.66
101283.32
101290.03
101294.91
101300.22
101290.45
101287.31
101287.17
101282.41
101283.26
101293.25
101284.16
101279.24
101279.44
101267
101260.54
101268.43
101275.16
101282.16
101286.98
101287.91
101280.61
101276.97
101279.39
101285.24
101284.77
101291.43
101294.04
101300.53
101297.06
101289.59
101289.11
101287.4
101292.59
101293.69
101290.61
101285.14
101286.89
101282.86
101282.34
101279.34
101287.39
101292.07
101286.99
101291.9
101285.49
101298.07
101291.91
101270.31
101269.08
101263.51
101265.9
101263.01
101278.57
101297.67
101284.23
101304.01
101247.16
101249.95
101236.66
101237.73
101258.08
101233.64
101195.84
101224.09
101238.35
101253.67
101257.21
101242.22
101242.89
101258.28
101245.82
101244.71
101228.97
101216.57
101189.28
101190.09
101180.59
101182.54
101202.16
101202.15
101176.81
101211.02
101207.43
101228.77
101220.02
101216.29
101184.36
101190.63
101143.4
101177.54
101144.06
101176.58
101153.23
101150.91
101103.52
101160.94
101148
101177.22
101193.8
101211.55
101191
101208.91
101189.69
101209.28
101214.05
101222.89
101211.06
101227.21
101218.3
101199.46
101192.03
101213.06
101197.13
101216.9
101234.44
101238.44
101222.34
101231.16
101224.72
101213.74
101232.17
101226.74
101225.89
101234.75
101217.14
101203.75
101205.83
101183.57
101194.18
101204.04
101215.63
101194.39
101179.08
101165.86
101184.28
101208.32
101225.14
101206.97
101228.39
101219.57
101239.28
101248.14
101260.75
101245.89
101230.54
101229.07
101244.97
101259.81
101246.53
101238.08
101213.12
101213.48
101187.28
101184.79
101216.33
101205.5
101233.18
101243.67
101258.75
101241.16
101221.55
101221.67
101241.57
101251.68
101238.73
101239.92
101244
101246.47
101258.04
101252.78
101238.99
101235.46
101250.01
101255.96
101253.73
101246.83
101257.75
101273.26
101270.37
101268.86
101269.61
101276.37
101287.37
101287.31
101288.83
101275.47
101262.59
101270.2
101252.94
101253.68
101252.37
101259.85
101267.62
101251.32
101237.42
101239.59
101243.83
101248.15
101232.51
101240.31
101242.87
101249.85
101256.48
101262.22
101267.75
101268.87
101280.47
101294.69
101301.07
101304.95
101309.88
101311.98
101314.02
101314.73
101314.13
101313.23
101313.23
101310.03
101304.52
101309.55
101308.17
101300.73
101294.48
101302.56
101308.9
101299.7
101300.87
101301.72
101293.1
101291.73
101292.81
101299.61
101296.45
101301.67
101302.33
101309.86
101306
101306.65
101299.71
101297.1
101307.32
101307.77
101312.68
101310.48
101311.33
101310.54
101313.31
101314.87
101311.83
101306.93
101310.53
101315.22
101311.77
101311.52
101308.44
101312.23
101314.86
101317.23
101317.22
101312.65
101314.51
101313.51
101317.33
101315.14
101314.45
101313.63
101314.21
101314.43
101318
101315.37
101310.94
101306.77
101304.52
101306.27
101307.13
101295.91
101305.32
101303.61
101308.46
101309.82
101309.78
101303.75
101295.13
101301.43
101301.01
101294.24
101293.06
101294.03
101302.48
101297.86
101303.1
101301.23
101300.54
101306.56
101307.83
101308.38
101310.5
101303.35
101297.85
101295.81
101287.72
101278.77
101289.17
101290.95
101279.9
101279.82
101279.41
101290.09
101283.82
101286.64
101286.36
101283.08
101292.56
101297.05
101291.55
101297.04
101286.63
101279.27
101294.5
101280.8
101272.97
101281.23
101278.22
101273.81
101268.63
101269.42
101283.56
101273.82
101278.41
101281.76
101287.44
101287.62
101293.52
101279.75
101269.96
101284.24
101294.21
101295.32
101287.04
101278.26
101288.67
101289.18
101278.48
101278.65
101278.25
101289.12
101282.48
101285.08
101285.38
101282.24
101291.83
101295.96
101289.9
101295.11
101284.39
101279.67
101293.33
101296.86
101299.86
101290.14
101287.86
101284.18
101287.4
101295.67
101290.26
101297.99
101299.75
101287.11
101292.24
101287.65
101296.95
101297.21
101308.69
101296.62
101303.05
101303.33
101296.75
101301.82
101298.54
101293.25
101293.75
101286.39
101287.01
101278.43
101280.86
101272.57
101272.75
101276.94
101272.7
101282.99
101278.82
101292.75
101283.6
101285.78
101280.22
101277
101271.62
101269.33
101272.09
101273.92
101261.53
101272.25
101267.04
101261.24
101253.38
101256.39
101273.5
101260.98
101268.18
101272.96
101280.68
101285.18
101290.72
101291.86
101295.01
101294.36
101288.89
101297.57
101303.62
101300.22
101304.36
101295.28
101287.64
101297.73
101309.01
101305.78
101297.18
101302.98
101309.64
101303.33
101303.96
101304.52
101310.8
101308.27
101307.43
101303.76
101297.97
101295.61
101297.86
101297.62
101303.46
101292.27
101282.61
101293.36
101304.36
101296.36
101304.7
101312.06
101308.68
101303.05
101302.45
101301.74
101303.22
101298.53
101308.12
101305.97
101308.59
101308.97
101313.29
101313.52
101310.91
101312.11
101307.75
101312.13
101310.98
101313
101309.65
101312.58
101312.6
101315.61
101315.63
101310.84
101309.3
101313.2
101310.77
101307.71
101304.57
101310.8
101314.06
101314.33
101315.42
101312.15
101311.31
101311.14
101307.03
101313.7
101317.73
101313.73
101317.6
101318.39
101311.45
101316.9
101316.32
101316.6
101318.31
101319.07
101314.9
101321.29
101321.25
101317.79
101310.2
101314.56
101316.62
101312.92
101314.84
101308.25
101311.99
101313.25
101308.54
101312.95
101317.54
101312.72
101316.61
101309.78
101306.99
101303.31
101302.16
101309.92
101306.79
101308.16
101301.41
101302.31
101300.78
101296.16
101294.94
101302.72
101291
101289.03
101290.09
101287.53
101291.03
101286.96
101289.58
101291.91
101279.01
101284.63
101284.64
101275
101274.95
101278.8
101275.68
101271.76
101272.15
101269.54
101280.59
101271.78
101267.79
101264.24
101265.93
101279.55
101268.5
101272.91
101275.81
101279.18
101281.75
101276.31
101272.89
101268.33
101264.34
101269.07
101261.95
101267.55
101272.51
101279.89
101282.63
101280.16
101284.76
101281.76
101286.71
101274.81
101273.32
101288.06
101279.38
101273.53
101276.67
101269.27
101273.35
101268.04
101275.95
101271.56
101262.86
101255.81
101264.42
101259.44
101254.61
101260
101249.37
101257.32
101265.46
101260.96
101269.43
101270.01
101287.44
101293.52
101297.84
101306.87
101294.11
101296.05
101305.01
101305.52
101305.05
101303.35
101303.54
101293.35
101292.65
101283.82
101285.52
101280.71
101278.19
101285.31
101295.18
101296.47
101280.74
101284.76
101283.95
101288.73
101300.16
101296.22
101296.75
101295.77
101289.59
101286.14
101293.6
101294.37
101294.2
101295.97
101301.45
101303.43
101311.43
101303.11
101305.96
101307.27
101307.24
101303.28
101295.26
101292.36
101281.63
101281.39
101287.66
101270.9
101273.74
101256.66
101261.36
101260.48
101266
101260.26
101252.93
101244.42
101251.34
101260.38
101253.68
101244.84
101233.35
101243.83
101253.02
101262.34
101265.33
101270.95
101287.68
101281.73
101277.81
101274.04
101276.15
101273.09
101276.6
101279.16
101286.12
101293.97
101294.36
101301.25
101288
101284.97
101283.56
101283.02
101288.36
101301.41
101292.71
101295.51
101287.71
101286.23
101295.63
101303.41
101302.17
101308.5
101303.6
101312.99
101305.13
101300.43
101304.59
101312.76
101309.6
101302.21
101300.69
101300.29
101300.52
101299.51
101301.09
101296.58
101303.16
101306.01
101306.07
101307.8
101299.84
101300.75
101299.59
101305.9
101305.33
101307.04
101307.23
101300.05
101292.56
101283.92
101286.38
101283.62
101275.51
101266.85
101260.39
101254
101244.77
101252.96
101243.89
101254
101247.1
101234.96
101223.42
101234.88
101245.39
101235.16
101221.79
101211.82
101193.58
101170.43
101198.43
101181.06
101144.94
101150.57
101169.15
101135.85
101167.33
101177.52
101195.7
101207.31
101222.41
101210.32
101231.86
101222.13
101198.06
101211.76
101195.32
101225.29
101245.14
101290.95
101271.64
101251.03
101272.71
101239.69
101242.21
101241.57
101240.84
101238.95
101272.53
101294.29
101232.75
101240.81
101242.46
101245.66
101274.13
101241.32
101276.38
101239.1
101249.44
101237.69
101201.16
101205.95
101215.15
101221.84
101190.98
101183.94
101171
101175.82
101211.29
101201.96
101212.22
101177.36
101170.07
101188.48
101219.85
101206.66
101202.36
101151.07
101152.82
101151.01
101151.58
101207
101193.57
101184.5
101186.5
101199.11
101230.1
101230.53
101228.57
101228.94
101285.56
101218.15
101275.11
101219.61
101221.49
101214.17
101215.98
101195.71
101255.78
101384.71
101269.99
101336.7
101231.32
101236.16
101267.05
101250.6
101328.77
101251.12
101322.79
101336.6
101284.3
101314.95
101236.81
101230.87
101231.15
101237.62
101282.19
101223.46
101278.63
101240.61
101232.74
101248.29
101265.05
101256.44
101367.21
101380.87
101272.57
101336.15
101227.26
101240.48
101253.67
101255.49
101266.81
101272.04
101258.91
101243.78
101232.79
101202.02
101201.17
101160.78
101161.29
101204.4
101241.57
101242.49
101298.05
101271.1
101270.64
101264.44
101270.39
101276.79
101279.82
101284.25
101285.13
101284.96
101298.96
101289.57
101283.67
101273.9
101274.26
101268.36
101278.94
101278.92
101283.09
101281.28
101282.46
101295.14
101294.92
101299.65
101298.21
101300.47
101299.15
101297.99
101288.78
101274.51
101275.41
101288.97
101287.61
101276.93
101278.88
101287.9
101294.78
101283.56
101285.44
101297.01
101300.02
101298.57
101301.5
101309.04
101301.3
101291.3
101290.39
101292.17
101290.12
101277.99
101281.43
101281.69
101285.48
101288.44
101296.91
101301.12
101298.29
101302.45
101308.11
101303.62
101307.62
101313.96
101307.77
101307.8
101300.98
101300.18
101298.98
101305.06
101312.9
101304.35
101314.48
101307.39
101317.12
101294.7
101295.87
101297.69
101303.21
101304.42
101302.97
101294.31
101297.94
101293.87
101308.7
101322.45
101289.27
101291.92
101293.63
101308.31
101316.93
101302.92
101317.3
101316.92
101311.74
101311.35
101317.35
101310.34
101305.26
101306.61
101304.99
101297.98
101294.85
101297.46
101293.97
101285.75
101291.5
101286.72
101291.27
101292.89
101292.48
101289.57
101297.94
101290.2
101297.34
101291.78
101298.84
101296.04
101287.84
101283.43
101282.54
101285.44
101282.72
101290.34
101283.57
101280.55
101277.64
101268.32
101268.07
101260.74
101261.36
101271.27
101262.03
101250.48
101249.67
101261.08
101270.56
101278.89
101294.32
101294.87
101278
101277.83
101275.35
101275.18
101278.49
101291.22
101273.08
101278.08
101292.36
101277.76
101273.51
101260.92
101260.53
101269.92
101273.48
101273.95
101268.78
101261.55
101261.07
101250.65
101251.15
101240.64
101239.17
101237.09
101237.38
101251.88
101252.75
101245.57
101256.67
101255.86
101271.11
101271.01
101269.47
101260.45
101260.59
101255.87
101251.55
101251.42
101260.44
101268.13
101250.22
101250.62
101267.83
101260.21
101260.17
101270.63
101268.45
101261.1
101256.99
101258.32
101273.34
101270.98