/*--------------------------------*- C++ -*----------------------------------*\
  =========                 |
  \\      /  F ield         | OpenFOAM: The Open Source CFD Toolbox
   \\    /   O peration     | Website:  https://openfoam.org
    \\  /    A nd           | Version:  7
     \\/     M anipulation  |
\*---------------------------------------------------------------------------*/
FoamFile
{
    version     2.0;
    format      ascii;
    class       surfaceScalarField;
    location    "270";
    object      phi;
}
// * * * * * * * * * * * * * * * * * * * * * * * * * * * * * * * * * * * * * //

dimensions      [1 0 -1 0 0 0 0];

internalField   nonuniform List<scalar> 
76358
(
36.221806
-0.011231669
2.0233134
1.4729622
-1.4802167
-2.0333805
0.060853835
-34.802552
0.00010583753
2.1427511
2.1296763
-2.0927319
-2.1002178
-1.4919162
1.4730033
2.0312144
-2.0575936
-0.059798881
-36.221987
-1.4921201
1.4727566
-2.0576442
2.0311881
-34.677478
-2.0404324
2.0193021
-2.0332237
1.993552
0.00091929123
-34.803212
2.1297064
-2.0927839
-2.0996933
2.1435448
0.00071159496
0.010791617
0.00032859418
-2.0833672
2.0761978
2.0773527
-2.0878223
1.4728217
2.0232905
-2.0334302
-1.4803126
2.076179
2.0769755
-2.0877588
-2.0832767
0.00015553626
-0.053372659
10.409412
0.36938343
-0.37469616
-0.53899702
0.53231791
-0.0098501093
-8.2580182
-0.0053983081
9.6657816
-0.0081203257
-7.6823222
10.340467
0.0055782097
-7.4056595
7.4259474
-0.034893239
-0.034623733
0.00069859603
0.0010337695
-9.2592448
0.37616574
-0.38774427
-0.52705162
0.51620871
-0.061117236
-36.221609
1.4731606
2.0312699
-1.491758
-2.0574779
-2.1002299
2.1426841
2.1296579
-2.0926526
-34.802404
0.01015331
-2.4925902
-2.5121245
-2.1925672
-2.3390406
0.38513825
-0.38279335
-0.39042524
0.53401453
-2.5296159
-2.4597387
-2.1991528
-2.2190398
-0.38845511
0.54385975
0.54267735
-0.38385619
-3.4518526e-05
-0.42596441
-0.0156663
-2.0487305
-0.00039365389
-0.038861113
0.010754187
-7.8102739
-0.52228776
-0.50336761
0.41247527
-6.1387691e-05
0.130075
0.32545639
-0.37555639
-0.52825873
0.41897879
-8.2480952
-7.6934646
-0.13142462
-0.024312117
-0.095857754
0.024592473
9.3839843
0.37608529
0.36841459
-0.38061702
-0.38668275
-0.38685092
-0.38080485
0.36819081
0.37589803
-9.386522
7.6935231
-0.095334094
-9.6658645
-0.13177508
-0.12939991
0.33163607
-0.37600016
0.41569569
-0.36770976
-0.3675205
-0.37576237
0.4158893
0.33186876
-1.8169252
-0.0035988944
-0.014973689
-0.047220822
-0.045380617
-2.4758803
2.0868727
0.086736464
-0.097834513
-0.1307723
0.10679433
-2.6287841
0.0015079386
-0.025538285
0.019296234
-0.63979752
-0.6183833
-0.55983146
-0.61103748
0.022533281
0.16911475
-2.0834651
0.16444282
0.083741111
-0.096775877
0.1015326
-0.12930247
-0.11192059
-2.3438303
-0.47680567
0.0019363938
0.0055493388
-0.0041775925
-0.0022123197
-0.66502615
0.52149358
0.00020998804
-0.65521218
-0.0014412767
0.0068702302
0.0049707713
0.00024331985
-0.57159211
0.0047770776
0.01361049
-0.51619738
0.012485159
-0.013250777
-0.62339576
-0.011065635
-0.57674452
-0.00010504424
-0.0077833332
-0.00086585638
-0.57616412
0.010901405
-0.023994909
0.020599727
-0.032540825
0.025643053
-0.00032299502
-0.12865531
0.0014971312
-0.52800973
-0.00091012714
-0.52622011
-0.0067763395
-0.0064081763
0.095170854
-0.097555845
-0.13159793
-2.0840519
-0.0097351121
-0.37322639
0.36639512
-0.53692679
0.53337761
0.51214327
-0.51929806
-0.53965435
-1.7232869e-06
-9.9067936
2.5269091
-0.13229555
0.13076993
0.13348382
-0.13524642
-0.0024683476
-1.9945513
0.0028783548
0.10752325
-0.13141687
-0.13456555
0.11297966
2.0134128
-0.13422065
0.11248811
0.10736941
-0.12973979
-2.4697493
-4.9814332e-05
-0.034198828
-4.5491223e-05
-0.005845582
-0.64140223
-0.61836843
-0.56460281
-0.57431451
0.17123778
-5.5857888e-05
-0.62653535
-0.64175654
-0.57405375
-0.56885092
0.16998332
-0.52590438
0.0050777796
0.0067852781
7.5928036e-05
0.00087194779
-0.6597104
0.53218158
0.00085710213
0.00018411416
-0.66771242
0.0069618548
0.0015206272
-0.0045817199
-0.5770689
0.0016087907
0.012949933
-0.57517825
0.013307963
0.0012755733
-0.56327031
-0.012416608
0.00043642918
-0.5629405
-0.012432146
-0.00093003724
-0.00035556264
0.5760832
-0.012252163
-0.562109
0.53101662
0.000284993
-0.66626818
-0.0033868679
0.0070099916
-0.52158634
0.0072178539
-1.7393276e-05
0.00096377739
-0.65198723
-1.7688616e-05
0.57275381
-0.012098715
-0.56003004
-1.6833723e-05
0.0025121343
0.012875255
-1.8539519e-05
0.012899605
-0.0015932815
0.58434285
0.010492239
-0.57761134
-0.0027308638
-0.0049070275
0.58414123
-0.57844427
0.01056672
-0.004222706
0.58020813
-0.5786078
0.011023319
0.001927202
0.57217411
-0.57550445
0.010790918
-0.10013321
0.62558429
-0.5205557
0.009516983
0.1121173
2.2126721
-2.3694934
-0.12834665
-0.092999568
0.087465043
-0.09294555
-0.12826661
0.10021595
0.087527637
0.045454885
2.0834774
0.083827234
0.10160963
-0.1292323
-0.096692529
-2.3438475
0.37563403
1.8169425
-0.046972176
-2.4759118
10.417943
0.32539733
0.41907081
-0.528166
-8.2482565
-0.010048297
8.3795391
-0.20099884
-0.0095612333
-0.062971761
-0.013034171
-9.2592994
-0.0033817609
0.51626106
0.37603214
-0.38789317
-0.52702458
0.011298994
0.5340388
0.3849702
-0.38297176
-0.39044814
-2.3391119
-2.4926389
-2.5121001
-2.1925428
0.30094016
8.8016909
-0.38837146
0.54402564
-0.38337199
0.54334174
0.0007120685
-2.5297429
-2.219104
-2.4597733
-2.1990479
8.3873149
0.00056479846
-10.129724
-0.074846053
0.00054693371
0.51917636
-0.52746144
0.51691015
-0.52371767
0.0006228766
-0.0033808458
-2.0946946
0.0029276877
0.0011024384
-0.0047855169
0.0011815313
-2.0930825
-1.8942779
0.0046276083
-0.0029025055
-0.0027294701
-2.6642834
2.0930543
0.0035866024
-2.6275702
0.0012308746
-2.3247991
0.0030266285
-0.003512603
-2.3263409
0.0044060873
-2.6276155
0.0012663511
-0.0065506159
0.012977215
-2.1037794
0.0037760536
-1.9070902
0.0063646977
-0.015601242
-0.015397727
-2.6418564
2.1037373
-0.013511445
-0.0010244925
-2.4952278
0.013073927
0.003472337
-2.3076429
0.0037543033
0.0035988187
0.013626766
-0.00054122281
-0.00069435239
-2.3335455
-0.00073587525
-2.4952626
2.1045608
-0.001734877
0.0023980477
-2.4943313
2.6289759
0.022113257
0.0012733396
0.00704955
0.0010366898
2.3133167
0.002339877
-2.312925
0.0021008891
-0.0031817215
-2.303317
0.00031115042
-2.0876594
0.0002528979
0.0077287898
-2.618379
0.00030981014
-2.3031068
0.00037012405
-0.0022747894
-2.2880617
-0.023772241
0.00043466421
0.01056728
-2.2987437
0.0094114822
0.0031534881
0.0076051754
-2.3117784
-0.0018427397
0.00051610641
0.010564438
-2.294146
2.0978768
0.00035972687
-2.4810532
0.00034057174
-0.54353642
2.6180114
0.024418752
-2.0975622
-0.00099100399
0.29997831
8.8010896
-0.010754242
-0.38297969
-0.38752191
0.54462853
-2.4598315
-2.1989692
-2.5296875
-2.2187767
2.0329513
8.3872273
0.01010726
-10.129743
1.9938104
2.020073
-2.0396362
-34.677694
0.0016875699
-2.0923557
-0.51661546
-0.0051698452
0.00334147
-0.0019640079
-2.3236863
0.0018621838
-0.0038313844
-2.3120089
-0.0036457265
-2.3025625
-0.51706706
-0.00086913719
-2.0873846
0.073920647
0.0038621854
0.51967985
-0.5266572
-0.52342056
0.01357107
-8.3794707
-0.061608045
-0.19961082
-10.418042
9.2585729
0.53466307
0.38547485
-0.38236717
-0.38960621
-2.5121073
-2.1922502
-2.3389324
-2.4926647
0.51678894
-0.52619669
0.37649026
-0.38726801
0.0034465072
-2.0924903
-0.0049934018
-2.094102
0.00076402731
0.0080574031
-2.6282282
-0.0013524353
0.0082800419
-0.0020651341
-2.3022503
-2.311524
-0.0047550821
0.0019922437
-0.023220433
-2.2972665
0.011152889
-0.0041821608
-2.2871304
0.011725704
-0.0026470969
-0.0028567134
0.011964719
-2.2930752
-0.0020845296
-2.4807447
2.1039336
0.00060688458
-0.0004888494
-2.493658
-0.0038775333
2.6268935
-0.0067994999
-2.1032022
0.01389376
0.0043638596
0.0024902457
-0.0040699684
-2.3251862
0.52631768
0.0023122099
-2.6267337
0.37630784
-0.38743838
-9.2583424
-1.8938987
-2.6638026
-0.38531553
-1.9067652
0.0069534348
-0.38249913
0.5344809
-0.38974924
0.011386759
-2.3389412
-2.1922196
-2.5120644
-2.4926508
-0.015103067
-0.014965185
-2.6415632
-0.012620109
-2.4946845
-2.4900162e-05
2.306471
0.01291338
0.00039369216
-2.3323732
0.0095554532
-2.3101925
0.011332578
0.01370008
2.2654668
-0.0088231671
-2.2721208
-0.0012834526
2.2205197
0.022344772
-2.2182837
-0.011734154
0.019359959
2.2233193
-2.2216641
-0.0077225013
2.2687256
0.010637455
-2.2757695
0.0018014814
0.0027268618
2.298383
-2.3113282
2.1044093
0.0020107377
-2.4940981
0.00092526372
0.021982202
-2.0976365
0.023100215
-3.3273136e-05
0.0012789203
-2.4807132
-4.7597199e-05
2.2868546
0.0098340478
-2.2926228
-5.9995195e-05
-0.0018631296
0.0096587558
-4.1970508e-05
0.0094590387
0.0084750982
0.009484261
-2.2193723
0.01357342
-0.00048374455
0.017851583
-2.21627
-0.00048234384
1.9982862
-0.0015593727
-1.9562891
-0.0032260973
-0.0150784
-0.0013292417
-0.0026830425
0.0010546403
0.017497591
-0.0090563835
-1.9981625
-0.015096222
-0.0017177943
-0.018734518
-1.9566432
-0.0019993523
2.213283
-0.010742194
-2.2089846
0.0014093291
-0.011291775
-0.010790606
0.0010632728
-0.010435758
-0.0045944129
-2.2964092
0.0026979746
-0.022871687
-0.013598109
-2.1030737
0.0041762128
-0.00035264215
-2.4945221
-0.0008478198
0.38766961
2.1034476
0.0024887562
-2.4931108
0.0036074333
-2.3092939
2.2842289
-0.0022509355
-2.2896803
0.00056758369
-0.024116918
0.0004730374
-0.54329738
-0.0013746352
-2.0964628
0.00026018127
0.54427194
-0.38288333
0.00042947284
-2.2186356
-2.1985489
-2.5295775
-2.4596021
-2.4793758
0.00026741306
0.0088994139
0.00030107698
-0.57235977
-0.5789177
-0.005529388
-0.5841774
-0.57555553
-0.17203645
0.018008226
0.00066070433
-0.56498902
-0.56849716
-0.006703221
-0.58167787
-0.57758257
0.025056349
0.0016854141
-0.016982836
-0.56311329
-0.55359392
-0.52943135
-0.55459674
0.0017266154
-0.0024659425
-0.03043932
-0.52995282
-0.49637436
-0.38790212
-0.4861789
-0.025019142
-0.0038319202
-0.026224954
-0.49707581
-0.53214405
-0.48878144
-0.38148521
-0.016885682
-0.00041562971
-0.014172471
-0.55610892
-0.56455693
-0.55627346
-0.53287604
-0.0078748802
-0.0057478352
-0.56938828
-0.58217791
-0.57820927
-0.56606682
-4.352447e-05
-0.0050471036
-0.57929818
-0.57577765
-0.57283469
-4.9855463e-05
-0.014101352
-0.57854223
-0.57941256
0.0072435963
0.050357554
-0.59920868
-0.57455276
-0.019052133
-0.16425811
-0.050125809
0.015039438
-0.019042758
-0.0033908676
-2.0868863
-0.025522061
0.015988214
0.086720568
-0.097855643
-0.13074604
0.10681899
-2.6288287
0.0018663366
0.6398159
0.005537628
-0.47681235
0.0020066277
-0.61106043
-0.61837499
-0.5598186
0.022888439
0.1690739
-0.51620203
-0.00016698979
0.012455847
0.0022255688
-0.013165769
-0.62339971
-0.011094411
-0.0040986809
-0.66503628
0.52149807
0.00021212334
-0.65521941
-0.0013354986
0.0068733485
0.0050753445
-0.57159766
0.0048831031
0.013602309
-0.5767476
-1.1645892e-05
-0.007792059
0.010809638
-0.57616925
-0.000868035
-0.00021798713
-0.024003674
0.020592607
-0.032536668
0.025645772
-0.12425835
0.00083381512
-0.48140127
-0.0077642719
-0.0048923351
-2.0756524
0.091121402
-0.095491671
-0.12902737
0.12192182
-0.36633124
-1.7526951
0.0066367444
-0.3732969
-0.53686452
0.52632141
-0.0092043729
-10.409661
-0.012073016
-0.017812939
-2.4767231
0.09346518
-0.093832738
-0.12661141
0.12664434
-0.13095108
-2.3431225
-0.097954484
0.66479315
0.0011626075
-0.47529403
0.00075793598
2.0841104
-0.0010089057
0.13192668
-0.13054871
-0.096848874
-2.6402625
0.095152221
-0.097578823
-0.13157138
0.12868502
-0.0064472086
-0.47651192
-0.0014169219
-0.0021123798
-0.0026768843
-0.0016898547
-0.60496485
-0.0058863134
0.0014054663
-0.00059671557
-0.5776638
0.023299439
0.031882145
-0.032351546
-0.023834094
0.52801785
-0.0016804006
-0.65918025
-0.00080149296
-0.13078525
0.65972409
0.0022833494
-0.53265369
0.00063001519
-0.53349992
2.526984
-0.13228709
-0.13516719
0.13356695
-0.0021901969
-1.9946391
7.8105716
0.51252694
-0.51902418
-0.53959198
0.00040981992
-9.9072899
0.42611162
-0.5221866
-0.50298774
0.41287172
0.00053465146
-2.0487721
-0.038719375
-0.00015155139
0.10754608
-0.13140732
-0.13448893
0.1130607
0.0031811525
0.62656836
0.006808631
-0.52591432
0.0051587469
-0.56887768
-0.64176006
-0.57403226
0.0062082011
0.1700952
-0.57518856
0.0046756385
0.01332698
-0.00089898495
0.0013782928
-0.56327737
-0.012402142
0.00016797047
0.53218998
0.00091367671
0.00030044984
-0.66772507
0.0070136173
0.0016357512
-0.57708347
0.0017345375
0.013005924
0.00054663025
-0.56295034
-0.012387792
-0.0010289396
0.57609989
-0.00024494973
-0.5621199
-0.012159477
0.13415181
0.53103054
0.00037740195
-0.66628824
2.013447
0.11257825
0.10752347
-0.12959612
-2.4698439
0.00023650021
-0.033819353
0.00021328462
-0.6414524
-0.57432984
-0.56455108
-0.61838416
0.17176882
0.00028955798
0.0070970566
-0.0033049214
-0.002409841
0.013011488
-0.0073532102
-0.57276385
0.013063397
9.2746422e-05
-0.52159416
7.5340429e-05
0.0011140583
-0.65200313
7.6192305e-05
-0.56003578
-0.011939054
8.0095046e-05
-0.00014528974
-0.0025997418
8.714203e-05
-0.54471506
-0.032470393
0.026112016
0.026112247
-0.032416698
-0.00036996773
-0.0025206669
-0.54658441
-0.032561727
0.026111769
-0.032474436
0.026134251
-0.00051477261
-0.0024166765
-0.032632603
0.026028455
0.026130112
-0.032543499
-0.54737132
-0.54837689
-0.032720099
0.025925352
0.026049783
-0.032604927
0.0011865768
-0.5494844
-0.032554529
0.032103121
0.031962071
-0.032360988
0.00017454382
-0.00069364055
-0.66474097
0.53617148
-0.67091258
-0.001139279
1.9552902e-05
0.00022668868
-0.13323662
-0.53481179
-0.00053381092
-1.9570308
-0.13467833
-0.13014058
0.12889057
0.0002153639
-0.0014901105
0.13585926
-0.13413126
0.13142337
-0.12965478
-2.4782431
0.00018163769
0.13341508
-0.13185544
-0.13458902
0.13623809
-2.5399388
-0.00063772112
-0.53204161
0.00065981855
0.00069362215
-0.52728559
0.00055690102
0.001125544
0.00063458068
-0.00082292206
-0.6587715
-0.0001839045
-0.66466619
0.48128265
0.00044073639
-0.0038175216
-0.60470118
4.7820457e-05
0.0036722489
-0.57738367
7.1824702e-05
0.032470646
0.023836347
-0.023746629
-0.032307596
0.00016500416
0.023892185
0.032562323
-0.032352618
-0.023794892
-0.57678036
-0.00069914036
0.54942103
0.03272866
0.00013508592
0.032621052
-0.032604323
-0.03243995
-0.54899741
-0.00060326899
-0.66481584
0.53493525
-6.9344389e-06
0.00075254257
-0.67087315
0.00077496065
0.0001456173
-0.00018273334
0.54789575
0.00022344604
-0.54783551
-0.032321929
0.03260209
0.032647396
-0.032253551
0.032715546
-0.032502284
-0.032307363
0.032613438
-0.00016850661
-0.13136435
0.00016880337
0.1639818
9.7801294e-05
-0.00022579628
0.16353343
0.0001250374
-0.13113053
-0.023545253
0.16524145
-0.11864494
0.00055929621
-0.13113463
0.64896119
-0.00068499228
-0.51348177
-0.023568555
-0.0328012
0.032836956
0.13076061
2.1292245
0.098638952
-0.098319372
-0.1309424
0.13104071
-0.13103299
0.098567643
-0.098392834
-2.3916305
0.012007307
2.0756291
0.093380249
-0.093906875
0.1265683
-0.1266807
-2.3430877
1.7526644
-0.018013789
-2.4766745
0.0049618044
0.091035724
-0.095576502
-0.12910192
0.1241844
0.12211691
-0.47650285
-0.0008195947
-0.0027586423
-0.0020981717
-0.66477838
-0.0014079727
-0.0017922215
-0.6591661
0.0017830304
0.023307951
-0.02382526
-0.032356543
0.031877235
-0.00070179628
-0.57765671
0.4813969
-0.005855811
-0.60495815
-0.0077326509
-0.13197988
-0.51148543
-0.024019494
0.019819038
0.6465749
0.025734162
-0.033130249
0.00075430914
-0.13221498
0.10138168
-0.099414628
0.10144266
0.13206728
-0.13212415
-0.099347986
0.023110938
0.00031461132
0.032345792
-0.03277407
-0.023596662
-0.64895683
0.16452821
0.00031953261
-0.11848809
5.9237661e-05
0.11806755
-0.00077612245
-0.00077762659
0.15601833
0.0016965994
0.00077139
0.015298551
0.0074398277
-0.15544372
-0.15416377
-0.14248219
0.0020818417
0.0019054639
0.52729548
-0.015458407
-0.030745538
-0.57218564
-0.0018501183
0.026918937
-0.57956347
0.01054033
0.0034111875
0.0069344776
-0.15368068
-0.15635453
-0.14458911
-0.14270837
0.0028161584
0.012753885
0.58128921
-0.00045130809
-0.14793828
-0.15573859
-0.14321967
0.0032930631
-0.14305383
0.030802307
-0.01269412
0.58319085
-0.61929069
-0.0018708496
0.52730147
-0.015385017
-0.57218885
0.52056164
-0.015214145
-0.64657937
0.62560174
0.0094848529
-0.0018531506
-0.59923946
-0.57455987
-0.57216364
-0.019187419
0.014437633
-0.0017869791
0.026861485
-0.010771487
-0.57958052
0.010503297
0.0035018659
-0.57551471
0.0043287482
0.0074149838
-0.15602307
-0.15545096
-0.1541606
-0.14247975
0.0021784788
0.0068956946
-0.14458555
-0.15635981
-0.15368912
-0.14270931
0.0028975388
0.58130831
-0.00050034305
0.0033592164
-0.1432176
-0.15574311
-0.14794739
-0.14305751
0.00024613454
0.58568908
0.0024967888
0.0033796122
0.63751533
-0.00029792583
-0.585695
-0.57836056
0.0078247885
0.007650116
0.0025331412
0.0033034784
-0.58126056
0.0039900674
0.0039398601
-0.15634262
0.0034579324
0.0034045858
-0.14444209
-0.14443814
-0.14385188
-0.0061903849
-0.0061724103
0.0010309556
-0.146057
0.0010462227
-0.001109425
-0.022209511
-0.13200837
0.0011986393
-0.001940296
0.001271539
-0.13024874
-0.025930522
-0.0010183468
-0.025555779
-0.13018145
0.001134603
-0.0018512292
0.0010042359
-0.13123977
-0.025286116
-0.13074883
0.00088464954
-0.00070508164
5.7632658e-05
-0.16400776
0.00041972759
0.14368898
0.00048603997
-0.14551359
0.00021375245
0.13015398
-0.16296843
-8.4276543e-05
0.0014748011
0.00092985607
0.0021749617
0.001391282
-0.14415602
0.0011154846
0.001630631
0.00075399686
0.00057885887
-0.14529597
0.00029312876
0.033038156
-0.1638267
0.00036040457
-0.49427166
-0.032317286
0.038735561
0.032191437
-0.032608236
-0.031947774
0.031876384
-0.032397161
-0.56048633
-0.00029651185
-0.13159945
0.00031881597
-5.8123512e-05
-0.13156713
-7.180933e-05
0.0004656941
0.0001137021
-0.00014938767
-0.16477121
-0.00020483833
-0.16523948
0.13095323
0.00010062684
-0.16353305
-8.2187069e-05
-5.7629146e-05
-2.1099724e-05
-0.14583237
0.00016040669
2.8938052e-05
0.00018513385
-0.14589007
8.6900269e-05
-0.00014730837
0.00025029876
0.14557954
-0.14562875
0.00013135553
8.0689092e-05
-0.16458507
0.13006658
8.5506264e-05
0.00018735742
-0.16220652
0.16185038
0.00041359694
-2.2033592e-06
-0.0006510156
0.00036306509
0.1437858
0.0005623792
-0.14478442
0.00036408204
0.0015836867
0.0017438295
-0.14310411
0.00098872296
0.0017509406
0.00035477351
0.00042852688
-0.14378003
0.00045499872
0.032355574
-0.16200944
0.00012296465
-0.038667754
0.025952662
-0.032332851
-0.023932212
0.022226459
-0.52563855
-0.023947343
-0.00071394218
-0.49427458
0.025311173
-0.033013415
-0.032298902
0.025575726
-0.51148946
-0.023993428
0.019844199
0.025757167
-0.033108789
0.00027349274
0.032369177
0.023138741
-0.023569436
-0.032750709
0.032218976
-0.032580422
-0.031926108
0.03189734
-0.56048791
-0.032470952
-0.00028671132
0.16382878
-3.1910935e-05
-0.13160032
0.00030913461
-0.00031377837
0.1640093
-4.5408978e-05
-0.13156765
0.16453024
8.3313702e-05
-0.11848915
0.11806937
-0.00078172307
-0.00075451207
0.0016916168
0.0007914922
-0.1307506
0.00090609499
0.0018423328
-0.00068009505
4.8285645e-05
0.00042276318
0.14369064
0.00048068963
-0.14551474
0.00024055958
0.1301547
-0.16296909
-5.4025259e-05
0.0014721049
0.00095925443
0.002169312
0.0014197712
-0.0010250432
0.0011089441
-0.1441584
0.0016582627
-0.13124186
0.0010105185
0.00035129892
-0.00072950821
0.13018379
-0.00062767031
-0.16185245
0.00034872446
0.0011539294
0.0019269819
-0.14378911
0.0015730886
0.0017695839
-0.00057119893
-0.14478677
0.00055206447
0.00038912698
-0.14529765
0.00031923103
-0.00015495543
-0.14558039
0.00030491809
0.00010086528
6.058458e-05
-0.14583299
5.7296277e-05
-0.13095349
1.0441141e-05
0.0001798678
9.784512e-05
-4.9315302e-05
-0.00047136102
0.00014147832
-0.00015923692
-0.16477196
0.00017974273
-0.14589041
0.00011700552
-0.0001753945
0.00024206261
-0.14562897
0.00016165996
7.0690888e-05
-0.16458607
0.13006729
0.0002152645
-0.16220705
6.9086886e-05
2.3251888e-05
0.0003980602
-0.14494147
0.00033044716
0.00015242087
-0.14497197
0.00028267635
0.00020514844
-0.00010424475
-0.00019650607
-0.14507965
0.00023415471
0.00017428162
-0.032245139
-0.00020082999
-0.13020364
0.00033830854
-0.49571504
-0.032646657
0.032714005
-0.032035506
0.032904104
-0.00076020157
-0.03258774
0.032918169
0.032382615
-0.032051665
-0.032489731
-0.56144585
0.02384865
-0.023482179
-0.032712726
0.033126471
-0.64978211
0.16525541
0.00041984482
-0.11851357
0.00057915555
-0.00044446725
-0.00026025336
0.13174434
7.9259454e-06
-0.16482152
-0.0001764091
4.6452703e-06
0.00036398331
-0.14601681
0.00016040541
9.5673974e-05
-0.00010490282
-0.14610605
0.00012158759
8.04833e-05
-0.16376033
-4.295556e-05
-0.13106983
8.4211548e-05
0.0002074615
0.00013394227
3.3857903e-05
-5.6015503e-05
-0.16353424
-0.00048118415
-0.16517552
0.13166632
0.00015031201
-0.00024945971
-0.16476108
0.00019098312
0.00035943867
-0.14601677
8.8200865e-05
9.7710224e-05
3.0533678e-05
6.501397e-05
-0.14592815
-0.00013358088
2.7107887e-05
0.14576442
6.8132075e-05
-0.14569555
0.13171084
-6.631045e-05
-0.16461531
0.16464727
0.00016092733
0.00018025004
0.13176469
4.5409452e-05
1.4106103e-05
5.5784684e-05
-0.14574273
0.00013343686
0.00014531373
-0.14582867
0.00010762513
-8.0959432e-05
-0.14516423
0.00017220991
0.00013864115
-0.16231342
7.4247172e-06
-0.13019772
0.00017373299
0.00025410947
0.00012158107
-0.00013712219
-0.16230016
0.14512082
2.3194069e-05
7.2848106e-05
-0.14506817
-9.5540516e-05
0.00010326564
0.0001225955
0.00010866703
-9.6822316e-05
-0.14442201
0.00011051869
0.1444164
0.0001005813
-8.7133894e-05
0.14569625
8.2107737e-05
-0.14569034
0.16410213
7.8499366e-05
-0.13133164
0.00013828187
5.4253598e-05
0.14565158
0.00010580084
0.00015763773
0.14558081
0.00012668204
0.00020856308
-0.00013316119
0.14546922
0.0002239281
0.0001378274
0.13118002
6.4773795e-05
0.16323896
-5.1012207e-05
0.00010563694
0.1308011
-0.00049158978
0.00015532708
0.155832
0.0015353561
0.00031834662
0.57862942
0.0073462427
0.0021076222
-0.14417888
-0.14325993
-0.15503614
0.58026093
0.011022643
0.0050015777
-0.57860788
-0.58416589
-0.57946439
0.0072459639
0.0054546373
-0.58017188
0.0041721578
0.011916353
0.0022697795
0.0066144538
-0.14502483
-0.14619443
-0.14439492
-0.14319815
-0.0071893353
0.57853052
0.0063490283
0.0010672681
-0.14490274
-0.14520034
-0.14336447
-0.14302016
0.57847987
0.00082662587
-0.15520705
-0.14340798
-0.14313918
-0.1550218
0.010593692
0.0017277966
0.012015049
0.0018169303
-0.0030605905
0.58316673
-0.57497502
0.0048891873
0.0019947442
0.58580171
0.0043017785
-0.57786811
-0.57656248
-0.5711689
0.0061741383
0.013818012
-0.57556486
0.0026446654
0.0046495673
-0.0049926454
0.0029593226
-0.14371085
-0.14454677
-0.14321029
-0.14256778
0.0039620873
0.0024863496
-0.14359849
-0.14488792
-0.14404789
-0.14283913
0.0050148896
0.0015272032
-0.14338573
-0.14377688
-0.14298666
-0.14253246
0.57202333
0.0024491397
-0.14269266
-0.14337002
-0.14285372
-0.14207327
0.0044914168
0.0028198113
0.0055684785
-0.0050274873
0.56988633
0.0018170217
-0.56959947
0.0057434184
-0.012034742
-0.00011530549
0.5825132
-0.57339589
-0.010569713
0.57941862
-0.57745718
-0.0016095352
0.5844468
-0.002618333
-0.57765889
-0.5758292
-0.57287801
0.0083220458
0.00042088517
-0.57610539
0.010609185
0.00011207672
9.8435179e-05
0.0074407565
-0.15485533
-0.14306847
-0.14301092
-0.15475266
0.00010373646
0.0073202938
-0.15506338
-0.14318784
-0.1548991
-0.14306329
0.00023894169
0.0064895396
-0.14483821
-0.14497326
-0.1430814
-0.14290523
0.57627155
0.0067218355
0.00012712321
-0.14284681
-0.14292744
-0.14486318
-0.14480339
0.012245742
0.00014744368
0.57854262
0.0056519275
-0.57225236
0.0001882533
-0.56672182
0.00062825805
0.017385851
-0.567484
0.00032295924
0.0079081726
-0.001896367
-0.0060589172
-0.14137619
-0.14258323
0.00027815277
0.0073816147
-0.14087289
-0.14235617
-0.0054315395
-0.14210866
-0.14294527
-0.14255464
-0.14146877
0.005462188
0.00079546078
-0.14325718
-0.14346717
-0.14259428
-0.14228753
-0.14329992
-0.14231011
0.00017162392
-0.14320314
-0.14215244
-0.00024553885
0.001107372
-0.1428195
0.00012303726
-0.0014652816
-0.00025753214
-0.0014223153
-0.14287835
0.0010554782
-0.00039568287
-0.0013624075
0.00097849041
-0.1429451
-0.00036688741
-0.0013109532
-0.14302477
0.00092119358
-0.00064237173
-0.001276948
0.00087933309
-0.14310379
-0.00062287757
-0.0012565456
-0.14322421
0.00086276489
-0.0017752547
0.0010148352
-0.14331523
-0.0014351552
-0.0012895653
0.00097810926
-0.14310831
-0.13025115
0.0010981121
0.00010920077
-0.00033272767
-0.16201175
0.13201037
-7.4336644e-06
-0.0090975673
-0.14672838
0.0012151413
-0.14374699
0.0012519624
0.0016307653
-0.00041539078
0.00039792413
-0.14428819
0.00055124054
-0.14378317
0.00047880142
-0.00013662834
-0.1438976
0.00034519803
0.00023630821
-0.032329607
-0.12960029
0.0001795816
0.032303357
-0.03225359
-0.5915367
-0.024082139
0.024502176
-0.024063088
-0.032226169
0.024519879
-0.12959938
0.00019481275
0.00011208074
0.00024522239
-0.16226812
0.00025543416
-0.00029443501
-0.1439302
0.14389569
0.00023390875
0.00034025824
0.14494018
-0.14497162
0.00017466554
-0.00031296856
0.00034154877
0.0001249744
7.2885351e-05
-0.0001951456
0.00036947461
0.1439158
0.00018277041
-0.14420001
5.1737448e-05
0.14512057
0.00012946327
-0.14546798
-0.032105988
0.1632366
7.8464261e-05
-0.13117844
0.0012169025
5.7759925e-05
0.5483697
-0.54947557
0.031948826
-0.032374446
-0.032550963
0.53264016
-0.00079123096
-0.6647198
0.00053486355
0.0022547007
-0.53615802
0.0023574571
0.00010682046
-0.001202001
-0.67089013
-0.00010354818
0.54736109
-0.54788433
-0.032380843
0.03194456
0.03198774
-0.032321291
0.00014883121
-0.00039845121
-0.032635453
0.026021503
0.026109001
-0.032564254
0.00024569516
0.025926398
-0.032716245
-0.032616491
0.026038988
0.15582396
-0.13079874
0.00029579177
0.0015352451
0.0019992996
0.0073495393
-0.15503663
-0.1432616
-0.14416922
0.0071655379
0.00070606127
-0.15519465
-0.15501871
-0.14339576
-0.1431396
-0.0021775121
0.57845033
0.00095828928
0.0063533604
-0.14489224
-0.14518093
-0.14334143
-0.14300434
0.58013018
0.0066373991
-0.1461838
-0.14502294
-0.14319179
-0.14438087
0.0040893269
0.011933126
0.0016871997
0.012006614
-0.57733496
-0.0017333238
0.011949542
-0.0072459192
0.0001068687
0.0064485245
-0.1430458
-0.14494148
-0.14481764
-0.14288122
-0.00022765514
-0.14317343
-0.15504546
-0.15489205
-0.14306477
0.57606597
0.0072805169
-0.14305784
-0.15483432
-0.15474407
-0.14302076
-1.5870357e-05
0.010450258
-1.7550709e-05
-0.57614588
0.012043095
-1.4963198e-05
0.0065738596
-0.14288838
-0.14482233
-0.1447789
-0.14283229
-1.045357e-05
-0.00065224657
0.57191124
0.0059412029
-0.14219955
-0.14321246
-0.14313299
-0.1420693
-1.2029573e-05
-0.001432203
0.00544102
0.57311644
-0.14251631
-0.14340671
-0.14319954
-0.1422064
-0.0024109242
0.5748213
0.0050493315
-0.1437461
-0.14335641
-0.14248925
-0.14294679
0.57780113
0.0050341189
-0.14487462
-0.14358947
-0.14282255
-0.14402908
0.58571417
0.0029912873
0.0043322818
-0.58303875
-0.57096526
-0.57646535
0.014001188
0.0049136755
0.0018667756
-0.0025970889
-0.5717917
0.0027098125
0.0056273909
-0.57549523
0.0047049392
0.0028911718
-0.14453383
-0.14319666
-0.14369359
-0.14254839
0.0040247678
0.0023534507
-0.1426379
-0.14332548
-0.14279942
-0.14200383
0.0045619894
0.56905047
0.0016926116
-0.14283331
-0.14242376
-0.14196668
-0.14128734
0.0055624839
-0.0050003931
0.0016415649
0.0057308305
-0.00024554449
0.0055223322
-2.281262e-05
-0.5665775
0.0077514246
-7.6845258e-05
-0.14237767
-0.14108415
-0.14216449
-0.14058904
0.0073176751
-4.6009296e-05
-0.0015266376
-0.00045199576
0.0014350766
-0.14204611
0.00021199811
-0.0010882888
-0.00031439027
-0.1424622
0.00013869031
-0.0014311609
-0.14275035
-0.00020292373
8.3684417e-05
-0.0011666218
-0.0001423447
5.5363127e-05
-0.14306594
-0.0025107583
-9.049028e-05
-0.14341827
3.0562431e-05
-0.0017318232
-6.0028027e-05
1.6534632e-05
-0.14379328
-0.026074751
-2.6140277e-05
-0.1304615
-3.7509097e-06
-0.0024456147
-2.1288604e-05
-0.54470206
-0.032500741
-0.032471182
0.026055038
-1.8944938e-05
-0.12874115
0.00062859474
-0.52630258
-1.7702661e-05
-1.9569061
0.13316079
-0.13474559
-0.13028399
-4.0698681e-05
-0.0012502432
0.13577895
-0.13418946
-0.12977697
0.13127066
-2.2902455e-05
-2.4780142
0.001299254
-0.13186095
0.13339744
0.13615095
-0.13465893
-2.5397837
0.097971999
-0.096827331
-0.13057095
0.13189466
-2.6401616
-0.47528123
0.0010832472
0.00077185432
-0.0011998158
-0.00017078547
-0.66464484
0.52726973
0.00063032172
-0.00092582595
-0.65874499
0.00055328317
0.00052825058
4.5939727e-05
-0.57737165
-3.6157008e-05
0.032464833
0.023844626
-0.023737567
-0.032313454
-0.48127487
0.0037028194
0.00034895405
-0.0037882146
-0.6046871
5.7732506e-05
0.023900168
-0.023786187
-0.03235871
0.032555298
-0.57676068
-0.00066588599
1.3914809e-05
0.54940604
0.032603364
0.032729801
-0.032601526
-0.032456746
-0.54897123
0.53201935
-0.00069376972
-0.66477824
0.00056401989
0.00066122026
-0.53490937
0.00070893301
2.5275887e-05
0.00068425091
-0.00011972843
-0.67082659
0.54781605
2.1867313e-05
0.032610408
0.032603143
-0.032456643
-0.032436184
-0.54746047
-6.1679666e-05
9.4777911e-05
-0.032327865
0.03259586
0.032620869
-0.03228131
0.032717899
-0.032499268
-0.032323089
0.032598315
-0.00013444234
0.16397984
-0.13136255
6.813769e-05
0.0001669076
-0.00020015363
-0.13112999
0.00012747911
-0.023516961
-0.11864301
0.00056496732
-0.51347628
-0.023597541
-0.032826827
0.032812392
-0.00064199821
0.023818751
0.00080334366
0.03309971
-0.03273832
-0.023510184
-0.64977079
0.16525238
0.00058457395
-0.11851105
0.0003930127
-0.00028682261
-0.00043891516
0.00010695106
-0.16375891
-7.8303185e-05
2.2674978e-05
0.14601636
-0.14610518
0.00012635455
4.6743896e-05
0.13174346
-0.16482021
-0.00016630765
-2.4463879e-05
0.00037406413
0.00016555358
6.3742087e-05
-2.5759319e-05
-0.14574271
0.00020473552
0.00010053872
-0.032684189
-0.13176379
0.0002112127
-0.49571281
-0.032060999
-0.032677903
0.03222151
0.032985333
0.032885183
-0.032619962
-0.032079105
0.03235542
-0.032403281
-0.56144056
-0.00036952356
-0.13170942
0.00017163468
0.16464595
0.00014654551
-0.13166492
0.0001594697
0.00047606735
0.00011846932
-0.00023977288
-0.16475801
-0.00016073852
-0.16517061
0.13106788
3.5116579e-05
-9.2227436e-05
-0.16353022
8.5788211e-05
0.00017149109
-0.14601498
6.2576377e-05
9.2487656e-05
3.4416074e-05
2.913614e-05
-0.14592495