/*--------------------------------*- C++ -*----------------------------------*\
  =========                 |
  \\      /  F ield         | OpenFOAM: The Open Source CFD Toolbox
   \\    /   O peration     | Website:  https://openfoam.org
    \\  /    A nd           | Version:  7
     \\/     M anipulation  |
\*---------------------------------------------------------------------------*/
FoamFile
{
    version     2.0;
    format      ascii;
    class       volScalarField;
    location    "200";
    object      nut;
}
// * * * * * * * * * * * * * * * * * * * * * * * * * * * * * * * * * * * * * //

dimensions      [0 2 -1 0 0 0 0];

internalField   nonuniform List<scalar> 
25278
(
6.7698994
6.7323235
6.7167377
6.716701
6.674001
6.7324185
6.7847773
6.7699141
6.7847133
6.8014607
6.7959258
6.7708244
6.7494901
6.7245978
6.3310744
6.7167268
6.7324115
6.4905214
6.1002819
6.5834555
6.714444
6.7521084
6.7517792
6.7770295
6.7766505
6.7769672
6.7518183
6.7429515
6.7272181
6.7632388
6.7231784
6.6735292
6.450268
6.6121265
6.657477
6.6405239
6.6773541
6.626087
6.5864495
6.4026212
6.5162512
6.5596873
6.4638112
6.5081553
6.6607396
6.7554322
6.780876
6.7508714
6.6998764
6.6557119
6.5961347
6.5178456
6.0260688
6.2251365
6.5140511
6.5639944
6.4905523
6.4377229
6.136133
6.2746891
6.3435566
6.2189322
6.1088262
6.4345218
6.3732632
6.3345147
6.3968992
6.0436842
5.9484319
6.0195927
5.5400471
5.7431539
5.9628884
6.1678809
6.3457479
6.45856
6.6585901
6.7638933
6.7523457
6.7094992
6.6559367
6.3357673
6.4943364
6.1190682
6.640613
6.5684228
5.865294
5.0671677
5.5727594
6.0738641
6.1338637
5.6158863
5.5623759
4.6346366
4.7428317
5.626567
5.7674071
6.2356203
6.286853
5.8213468
5.7565906
4.873623
5.021067
5.8324
5.3056956
5.2595484
5.115439
3.7686779
3.6858798
2.9420682
4.6263548
4.6312477
2.9328766
2.9371332
3.8735625
3.9951851
2.946358
4.7799305
4.7763623
4.7711068
6.1163663
6.6403119
6.6739661
5.548147
4.6176774
3.6733962
2.9354236
4.6222358
5.862274
6.5680421
6.6555053
6.7093188
6.4919681
6.3325025
5.5640097
5.0591845
5.1065632
4.6265564
2.9246269
3.7547051
3.8576996
2.9270233
2.9338321
4.7734953
5.295531
5.2504921
5.7587594
5.6174938
4.7251381
5.6013332
6.3250868
6.0668683
6.1272085
6.2297857
6.486398
6.281519
5.8236116
5.0023457
3.9769662
2.4749201
1.245486
1.2527675
2.4895093
3.9471378
5.2688932
5.2266116
4.7181157
4.7145286
2.8378012
2.8435725
3.8315435
2.4377734
1.2978287
1.1910621
0.46001339
0.52170993
1.3558789
1.3497996
0.53538444
0.47364116
1.2000649
1.3030812
2.425805
3.8007344
4.8553333
5.7430654
5.8081832
5.2420063
3.9135107
2.7818811
2.795109
4.6709002
6.0840383
5.2007942
4.6623884
4.8566278
2.7835904
1.0988386
0.42047997
0.40691499
1.085931
2.8489424
4.9100245
5.4470616
5.9878562
6.3849257
6.6135355
6.7281678
6.6765943
6.7253113
6.6438091
6.4569733
6.5207895
6.5634325
6.6798967
6.6308061
6.5921981
6.4113971
6.4710697
6.513937
6.6033445
6.7036537
6.7858603
6.7809729
6.7946998
6.710454
6.7240614
6.7639407
6.7567754
6.7047051
6.7121459
6.6177114
6.5417592
6.6727792
6.6644815
6.610195
6.7025135
6.751638
6.7157541
6.5896251
6.6598896
6.5226299
6.241518
6.2891724
6.355965
6.5710015
6.5003094
6.4493962
6.157301
6.2371427
6.1315165
6.4459846
6.6015761
6.5258625
6.0504783
6.3870757
6.0458052
5.9752256
6.3484471
6.4083944
6.0667661
6.1404451
6.2005927
6.2983651
6.4085661
6.4450109
6.6225325
6.5617585
6.5477866
6.4977674
6.6547782
6.6653873
6.7119719
6.6419118
6.6903434
6.6888646
6.7263198
6.6376616
6.6370035
6.5583528
6.5664198
6.4779018
6.641825
6.5865873
6.5872056
6.3709829
6.4663401
6.3753835
6.4348316
6.486985
6.5102975
6.5517892
6.7099961
6.7943861
6.7853683
6.7028711
6.7026635
6.7105703
6.6699183
6.5374516
6.6155031
6.6004116
6.4589831
6.5277519
6.486402
6.4579211
6.4355371
6.4064292
6.2508888
6.4079805
6.1633153
6.0977326
5.8295674
5.9425526
5.5502976
5.9092738
6.1675249
6.4124045
6.3509987
5.9980334
6.1024576
5.8448782
6.1800833
6.2614964
5.9559869
5.5625664
5.4398325
5.8172516
5.2066755
5.4261423
4.9153675
5.071458
5.446254
5.6431575
5.843395
6.0075644
6.1662095
6.2974847
6.3283611
6.2464517
6.3717683
6.3405728
6.2052628
6.0512365
6.0933049
6.2040628
6.2402922
6.2685097
6.2314422
6.3559513
6.3682639
6.4685542
6.4114103
6.400185
6.2747849
6.2937481
6.1480929
6.2496007
6.0990709
6.0816649
6.0464677
5.9155709
5.8625442
5.6628191
5.7144196
5.8887719
5.9926456
6.2437279
6.4623849
6.4889207
6.2710466
6.2381639
6.3620214
6.4629915
6.4413852
6.413226
6.3055252
6.3353581
6.2571523
6.3805385
6.3505041
6.2174624
6.0654699
6.1750656
6.2118118
6.0548081
6.0168358
5.8787244
5.9299614
6.105961
6.1360819
6.2840398
6.4077398
6.4178133
6.4728497
6.3734238
6.3016929
6.157571
6.2552806
6.1052392
6.0887876
5.9641671
5.9888177
6.008753
6.1293055
6.3104276
6.3097948
6.5154307
6.4980223
6.4889586
6.3928982
6.3907915
6.3161193
6.3248403
6.436634
6.448676
6.4471044
6.4977253
6.4038481
6.4042022
6.3333578
6.3381399
6.2027162
6.2920676
6.2881112
6.2792793
6.272771
6.1741322
6.1858135
6.0228759
6.1338879
6.1487728
6.1504332
6.0443124
6.0352496
6.1954913
6.0971837
6.2565818
6.3920291
6.3798023
6.2465722
6.2350432
6.218601
6.3576721
6.3444245
6.3151423
6.2794006
6.0801367
5.9853722
5.4844616
5.5506832
5.6674612
5.3432625
5.8841919
5.7782699
5.2039215
4.504942
5.0091756
4.1565162
4.351519
4.4923635
5.1329981
4.6311247
3.7914314
3.6426315
2.8725001
3.970596
4.8788335
5.5861377
4.9766346
5.4647342
5.5798407
5.6993461
5.013832
4.7774653
4.6371109
3.5528922
2.9755889
2.1408882
2.1338956
2.9332699
4.0672719
3.6085274
4.1442361
4.3448813
4.5887068
4.8332684
5.0755091
5.2923932
5.4983342
5.6794628
5.8517748
5.8963648
5.6930268
5.6487907
5.4418928
5.5042793
5.729416
5.7680941
5.933097
6.0428618
5.9265891
5.9484207
5.7847888
5.9778911
5.9514939
6.1249562
6.0084223
6.1842972
6.3341523
6.4375088
6.6182656
6.6045373
6.5400263
6.5558863
6.3317731
6.2833996
6.3984383
6.2659776
6.0597788
5.8516626
5.2880406
5.6366698
5.5182481
5.1464767
4.7989539
4.9343595
5.6561984
5.5350827
5.416948
4.5513035
4.6919306
3.4657498
3.939821
4.5505278
5.0942924
4.9701748
4.1019049
4.4268709
3.5592364
4.3209795
4.4595271
3.7018004
2.7784467
2.7364554
3.8526523
3.4224324
1.9879471
1.9613634
2.5206541
3.27943
4.0103213
4.5975575
5.1069501
5.4931991
5.8138983
6.1216397
6.4549444
6.6513795
6.6635709
6.7105066
6.7631106
6.7227812
6.7253644
6.6872707
6.6880922
6.5552423
6.6353549
6.6364206
6.5641717
6.474285
6.6395792
6.6387332
6.5829092
6.5836777
6.3820994
6.3630206
6.4609678
6.3680322
6.4294344
6.4832946
6.5083848
6.5141548
6.4954487
6.4859092
6.4321808
6.3193395
6.3892863
6.3864765
6.309407
6.1662148
6.2680215
6.3086138
6.3086095
6.2849532
6.4013456
6.401463
6.4955979
6.4440487
6.4448755
6.3288761
6.3345418
6.198497
6.2895311
6.1477467
6.1454024
6.129673
6.2753644
6.1792206
6.0152419
5.9994514
6.1241015
5.9733696
6.0822393
6.0954794
6.0000279
5.9837049
5.8289471
5.8097161
5.5972974
5.7880875
5.7550096
5.734851
5.6877086
5.4904207
5.4267023
5.1853948
5.2465062
5.5003395
5.2558217
5.1955784
4.9030137
4.9779992
5.0291447
5.294618
5.5348454
5.7547027
5.5701815
5.8036878
5.7628468
5.9718357
6.1520579
6.3033037
6.2196504
6.1800881
5.9965919
6.1081568
5.9265615
5.7864918
5.8391863
6.0489782
6.0855011
6.2560118
6.272244
6.3489633
6.2071083
6.1122139
6.0120074
6.2013156
6.1811234
6.1421021
6.0973185
6.0084099
6.0547361
5.8290414
5.9398153
5.8861431
5.7670281
5.4871369
5.6412682
5.6958606
5.5479477
5.2117317
5.4085019
5.5937629
5.5262052
5.7079371
5.470628
5.5244069
5.3131328
5.249158
4.9238835
5.1978977
5.2609902
5.0026448
5.0576547
5.3646015
5.6400268
5.8804241
5.9128876
6.0358993
5.8354573
5.6778085
5.5055137
5.7808855
5.7427239
5.9808476
5.8745494
6.0991559
6.1212574
5.9101469
5.6436834
5.5997002
5.269645
5.4609265
5.1348635
5.0766672
5.0134473
5.3413459
5.1321822
4.9350294
5.3403794
5.6605392
5.9318829
6.1819232
6.4886208
6.5084403
6.4762646
6.1835134
6.2387652
6.2776797
6.5380415
6.5416014
6.5135191
6.5091041
6.2272203
6.2570829
6.3032376
6.1316809
6.1886981
6.2565641
6.3201553
6.3870271
6.3737675
6.302637
6.296076
6.13432
6.2253906
6.2385996
6.1509544
6.1657517
6.2500789
6.2581271
6.3883811
6.3216979
6.1765817
6.0928192
6.2611897
6.1948486
6.0098679
5.9909425
6.0782177
6.0594414
6.2374035
6.2272391
6.1525703
6.1646187
5.9673168
5.9415698
6.0384824
5.8132831
5.9394121
6.0575335
6.074768
5.9614436
5.7373879
5.8824496
5.8612056
5.7096682
5.5449281
5.5805317
5.8412636
5.7175302
5.6825926
5.3689646
5.3211877
5.1321385
5.5082902
5.8129593
6.0557091
6.0299845
5.9828581
5.9129593
5.8609974
5.5616628
5.6308463
5.7231543
5.7728498
5.6839044
5.9642393
5.9916567
5.7276439
5.6644039
5.9510437
5.921472
5.8685049
5.8428252
5.7879578
5.4561514
5.5277286
5.562393
5.617881
5.584362
5.8972734
5.9274137
5.6320945
5.2431686
5.2916855
5.3856928
5.3315127
5.4585928
5.4018446
5.2715201
5.2063792
4.7401806
4.8258205
5.0115726
5.0741457
4.8909767
4.9535325
4.8106855
4.7455203
5.2342818
5.171772
5.1208678
5.0551524
4.5178402
4.6024659
4.6792126
4.0660546
4.2832089
4.5461897
4.8188751
4.7483537
4.2913483
4.6360799
4.7088894
4.3782225
4.4422497
4.8818586
4.9400598
5.1855737
5.4075389
5.606399
5.3505994
5.5683061
5.3324015
5.5758513
5.7591524
5.9540666
5.7964562
5.5793723
5.5472911
5.7394948
5.5470509
5.3032099
5.3401079
5.071314
5.1079619
5.3648257
5.6064375
5.7915641
5.9781068
5.9876246
5.7998902
5.6278507
5.8371482
5.8196123
5.6067372
5.3716051
5.3977573
5.6239658
5.7969747
5.6198834
5.6407651
5.8459392
6.0291329
6.1901821
6.088936
6.1003169
5.9956408
5.9801084
5.761425
5.9004518
5.9152715
6.0395055
5.8590194
6.0056886
5.8246316
5.8211353
5.6464137
5.8234051
6.003118
6.0081213
5.8264123
5.6617279
5.86414
5.8524858
5.6470746
5.4211378
5.4403358
5.6574325
5.4366871
5.6567753
5.4661327
5.7034596
5.6845243
5.6622968
5.6365793
5.4451782
5.4788415
5.1880333
5.415649
5.3853024
5.1482191
5.1052268
4.8251255
4.7697056
4.3763621
4.7254646
5.0269613
5.310222
4.973759
4.9142507
4.5966411
4.6673996
4.3164571
4.6665057
4.5975295
4.2320996
3.8413996
4.2504289
4.3136775
3.9062639
3.8380066
3.3560705
3.4350507
3.9108804
3.972004
4.3757193
4.7221686
4.7700819
5.0713398
4.7767006
4.4295342
4.0304786
4.4344794
4.0299999
4.5043835
4.567655
4.9966183
5.2321739
5.2760638
5.0523964
5.4139761
5.4562034
5.7490815
5.8657758
5.886879
5.7769283
5.4950127
5.6413778
5.7820931
5.5358401
5.5090673
5.2248167
5.4427053
5.1774999
5.4164727
5.3919436
5.1403097
5.1692806
5.1946287
4.9242165
5.2058754
4.9527257
5.2582433
5.0278931
5.3548902
5.3170913
5.6126752
5.107045
5.1592599
4.767068
4.7001341
4.9801846
4.9298995
4.8781782
4.4919628
4.824379
5.1103601
5.1455749
4.8696758
4.5305749
4.8534503
4.8133751
4.4807137
4.0896768
4.1507746
4.5498814
4.166833
4.6330948
4.2927979
4.8105574
5.2430217
5.5958926
5.8799206
6.1052873
6.089514
6.0299031
6.047705
5.8034474
5.7682029
5.8491699
5.5536881
5.4368609
5.4856214
5.0800215
5.0162499
5.1880531
4.7424562
4.6768912
4.6126993
4.3486792
4.41527
3.7655259
4.1441462
4.0792465
4.0161872
3.9452855
4.4812219
4.2185427
3.573649
3.6497737
3.7049005
3.3765401
4.129012
4.1946144
4.0736096
4.735161
4.6689688
5.1842778
5.1920987
5.5888516
5.8996532
6.185745
6.477003
6.6518396
6.7510756
6.7148359
6.4933742
6.1054737
5.77037
6.2394239
5.7657
5.2423893
4.7300351
4.7292661
5.2871405
3.9789544
2.8685509
2.8682863
3.8589771
4.8849779
5.0316248
5.8300643
6.2896101
6.4956655
5.8338194
5.3020839
3.9977496
2.5159368
1.2147083
1.3187447
2.4608295
1.371036
0.54218969
0.48079868
1.2681603
2.9427048
2.9374697
3.8793281
5.2588581
6.1182206
4.773471
5.1944981
3.7878557
2.4195924
1.3593952
0.54050292
0.47879724
1.2548538
2.4674333
1.1790772
1.285
2.7756011
2.7575471
3.8986012
5.2351982
6.0821659
4.6630915
4.6532653
4.8475639
2.7534654
1.0750071
0.42545473
0.42831412
1.1119667
2.8877031
4.9264668
6.0307685
6.5190648
6.5969199
6.6572925
6.5855993
6.2320946
6.4420492
6.376895
6.3358396
6.3979932
6.4377287
6.1161649
6.0467203
5.9516559
6.0276076
6.1450481
6.2268825
6.4941877
6.5672528
6.5179169
6.2820066
6.3499705
6.4038059
6.6071588
6.7008629
6.7110774
6.6637959
6.5097058
6.5138541
6.542508
6.539495
6.5104602
6.4912195
6.4558466
6.1242968
6.1883202
6.243925
6.2813969
6.228867
6.2581245
6.3056259
6.3844289
6.5846591
6.5844636
6.5580911
6.542927
6.2902229
6.337056
6.4415379
6.6201744
6.6401573
6.6404819
6.4760292
6.4638088
6.3667159
6.1611027
6.0984822
6.0380162
5.9970036
5.9708656
5.9689354
5.9909489
6.011108
5.9897289
5.7174511
5.7465846
5.7079894
5.6772034
5.3002422
5.3468202
5.4004852
5.3562038
4.8767618
4.9474277
4.8776285
4.8040555
4.146827
4.2676234
4.4867496
4.5645495
3.9200055
3.8362488
4.214808
3.6225398
4.0957964
3.6115219
3.5486097
3.49094
3.968054
3.4977879
3.4435321
3.3987596
2.926639
2.9566353
2.2797605
2.8818337
2.8420154
2.2508229
1.7441735
1.7155711
2.5143869
3.333525
3.1530505
3.9486274
3.8961376
3.1005914
2.2727108
2.2471912
1.3528577
1.3953499
0.78084079
1.1522804
1.725522
2.3686788
2.9349928
3.4533915
3.8786343
4.2724595
4.6133329
4.939495
5.2261696
5.2879112
5.5501814
5.7856094
5.9909076
6.1674382
6.1252749
6.0201227
6.1980471
6.2356551
6.0700445
6.1040764
6.1976602
6.0252326
6.0505242
5.853272
5.8239428
5.6708802
5.9047122
5.8662482
5.8161165
5.9475314
5.7326692
5.5631836
5.6276421
5.4564074
5.7326777
5.9674393
6.1621191
6.1197235
5.9164811
5.8049772
6.0357082
6.0794477
5.8635317
5.9055728
6.0054728
6.1987624
6.2699942
6.2842102
6.1282449
5.9341185
5.7051625
5.5452942
5.810345
6.0334137
6.2164323
6.3430691
6.2529585
6.5153399
6.4830954
6.4641332
6.4635853
6.6544341
6.7515936
6.7324361
6.716735
6.7698811
6.7848111
6.7248395
6.7519944
6.752326
6.7156263
6.5252356
6.6011015
6.3477123
6.0481702
5.9736669
6.0652478
6.4077566
6.444127
6.3850749
6.0417906
6.12779
6.2325175
6.4979955
6.6589282
6.588382
6.2374171
6.4468263
6.152306
6.2844814
6.520055
6.5687388
6.3517032
6.404666
6.2941575
6.1970895
6.139087
6.1964552
6.1977069
6.2370225
6.2875844
6.5429499
6.5448679
6.3095693
6.3873035
6.2649828
6.3268816
6.3109287
6.3061294
6.1478561
6.1621453
6.1747512
6.1836686
6.2632514
6.392411
6.3270066
6.2677751
6.1021558
6.0902372
6.074411
6.2477951
6.2400227
6.0566457
5.9648816
6.168566
6.1401693
6.1210201
6.0550187
6.0110086
5.9629174
5.704739
5.7639357
5.6758472
5.9436584
5.8947222
5.6104036
5.2744993
5.401068
5.5377466
5.6808789
5.392135
5.1997941
5.2757134
5.5954664
5.6433395
5.7760468
5.5050602
5.3295689
5.3760606
5.6826504
5.9373634
5.8457049
6.0775131
6.0155593
5.9916229
5.7249472
5.8098438
5.5122443
5.4596186
5.0917586
5.0178081
4.8357632
4.9187642
5.3367537
5.3925869
5.4414501
5.5567651
5.2031442
5.1504452
4.9805285
5.0380657
4.9005959
5.3496806
5.7018245
5.7642268
5.7997681
5.8773113
6.1079023
6.1202897
6.1776786
5.9865511
6.006394
6.1991058
6.2028722
6.0217819
5.7948743
5.9001266
6.0051049
6.1067457
5.9232337
5.9106634
5.8951751
6.0849285
6.0698358
5.8764758
5.7334239
5.957488
5.9764932
5.7572345
5.7775079
5.992212
5.882867
5.8624827
5.8386122
5.5797986
5.6101405
5.4559789
5.7459984
5.7164637
5.4177395
5.0652244
5.2787483
5.4750025
5.6546049
5.6271471
5.5934815
5.3350425
5.3730176
5.1447816
5.4413862
5.4020612
5.3536557
5.0481833
4.9717188
4.6444524
4.7137275
4.9979739
4.6824232
4.3563592
4.2724894
3.9124382
4.3266978
4.7078139
4.7797035
5.1365594
4.9019645
4.4804358
4.3941785
3.9513362
4.0219502
4.3904289
3.9840847
3.5504946
3.4673119
2.9931139
3.5499599
4.0787775
4.153355
4.6539349
4.4115732
3.8177538
3.7353636
3.1122905
3.1566327
3.6034664
3.0449725
2.4841328
2.4370474
1.9405967
2.7207564
3.4529083
3.515933
4.2032865
4.7769069
5.2392914
5.6084679
5.8996157
5.8480641
5.5429587
5.5028085
5.820072
5.8717737
5.5706609
5.6232897
5.6599389
5.9491311
5.9752346
5.9495716
5.9228475
5.9217529
5.870569
5.8187943
5.5766502
5.4616248
4.9695453
4.6312673
4.770819
4.9991991
5.6917525
5.5786649
4.8649543
3.9490447
3.5425964
2.9599804
2.1262794
2.1154976
3.5958521
4.0422073
2.8996591
2.8447513
3.6147833
4.4828902
5.1890459
5.769663
5.4737781
5.9775573
6.07252
5.8755317
5.3279752
5.6548883
5.5377541
4.990486
4.1354973
4.3265536
4.4664879
3.7600314
4.6069408
5.1139319
5.2740944
5.0543021
4.8093689
4.5637421
4.3216685
4.1269344
4.0143585
4.0207284
4.6109624
4.6973804
5.1772019
5.1210132
5.1837324
4.6931799
4.7563604
4.8401941
5.2975726
5.2429005
5.2964198
5.6665931
5.7067435
5.740377
6.0113743
6.0501052
6.0641699
5.8296842
5.9032379
5.9273414
6.1436054
6.1503494
5.9467945
5.8815233
6.0998007
6.0914222
5.8579437
5.5668176
5.6646393
5.7721541
5.4908774
5.6369218
5.6602433
5.7946421
5.552063
5.7129149
5.6967465
5.6773918
5.432411
5.4049491
5.1837203
5.2187456
5.5041794
5.5298333
5.2503062
5.456291
5.4767627
5.2783753
4.9759165
5.2164069
5.1908241
5.1616931
5.1290887
5.0922633
5.0497558
4.7373974
4.7843649
4.4670477
4.8185363
4.769909
5.100515
4.8379179
5.1912511
5.2374421
4.889415
4.6019523
5.0150688
4.9616596
4.5431013
4.0852001
4.4519227
4.5074638
4.1029091
4.0453613
4.4147861
4.0373354
4.3948205
4.3358089
3.9524547
3.5719174
3.9767563
3.9035166
3.7516305
3.6274444
2.5868577
2.7677855
2.8763053
2.1097892
2.9331261
2.8214638
2.0031666
1.1865557
1.7969634
1.789951
0.84114878
0.95197326
0.50721477
0.44648281
1.1918621
0.65738213
1.2319783
1.8991411
1.8971687
1.15051
1.2232821
0.55618156
1.0423918
0.93071857
0.49400138
0.27618886
0.3100962
0.69282314
0.29575376
0.26338676
0.22867985
0.2425603
0.25067337
0.30880211
0.51998412
0.97272336
2.022597
3.4489201
4.5660656
5.423982
5.5423965
5.6725236
5.5559739
4.831509
4.9692684
4.7087172
3.4990869
4.0039861
3.9063188
2.8090362
2.8677197
2.0059441
2.3021817
3.1247609
3.9133943
4.5292083
5.062478
5.4606599
5.7906353
5.8453129
5.8763692
5.8219072
5.5062997
5.5751969
5.5322401
5.1285188
5.1924897
5.1269937
4.629525
4.7124909
4.61495
4.6822027
4.7488334
5.2507915
5.6363625
5.9295549
5.9578437
5.9287898
5.6302586
5.676111
5.7435735
6.0008393
5.9743165
5.9238155
5.8723668
5.9450149
5.9952852
5.7427743
5.6485939
5.5798772
5.6809151
5.370403
5.2341026
5.2997729
5.4318494
5.0564668
4.8696173
4.7825687
4.9793575
5.1726206
5.515341
5.7868075
6.0214531
5.8680151
5.7597218
5.4663542
5.9755437
6.0716261
5.657122
5.3195849
5.1774175
5.5390139
4.9991796
4.4740086
4.1393529
3.6189888
3.7693424
4.6026712
5.1240493
4.4929295
4.3525449
4.9275843
5.440389
5.8412405
6.1757744
6.407628
6.5894601
6.7243688
6.7525506
6.7811214
6.7562876
6.7637282
6.7951598
6.7774431
6.7862306
6.7641382
6.7439136
6.7283604
6.6751791
6.454211
6.6426155
6.6587692
6.6789877
6.6285542
6.4679754
6.5622719
6.5193313
6.3499588
6.4599869
6.4115343
6.2578672
5.9529792
6.1678655
6.1029394
5.9957223
6.3869865
6.6138052
5.9983266
5.2164031
5.8222634
5.913305
5.5630836
5.0821935
5.5631314
5.4413695
5.8430756
6.103686
6.1681703
6.4122173
6.3510468
6.1781282
6.259386
5.9536799
6.0156004
6.2440749
6.528731
6.4617782
6.4110182
6.5115494
6.6627074
6.6714094
6.711625
6.7039162
6.7040004
6.6024796
6.617115
6.5399792
6.5570267
6.6892285
6.6880405
6.7260463
6.710758
6.7236079
6.636538
6.6372209
6.5652666
6.4472115
6.390071
6.3240745
6.2613791
6.1943242
6.1377145
6.0839514
6.047727
6.025029
6.0236501
6.0434542
6.0783377
6.0899013
6.1411933
5.932428
5.9086054
5.8369821
5.865433
5.8158821
6.057323
6.038246
5.7902314
5.7562977
5.7837298
5.4526629
5.5321823
5.6350785
5.670729
5.5754858
5.2070357
5.3471906
5.2963936
5.1441027
5.0195133
5.0920058
5.5020315
5.4635161
5.4110687
4.9525694
5.0297545
4.4333366
4.5426917
4.7354379
4.9499083
4.8802689
4.6481634
4.0182589
4.3777162
4.4674424
4.1295427
3.7844349
3.6640681
4.4422946
4.3500881
4.2310442
3.3601718
3.5662262
3.4883308
3.4263718
3.230993
3.1880353
4.0090642
4.030928
3.9684323
4.1177178
4.0567717
3.3466797
3.4095383
3.1821126
3.2217649
3.2698655
4.0973613
4.2548024
4.8459645
5.3119655
5.2550346
4.7800768
4.9356868
5.3593652
5.700903
5.7913523
6.0413412
6.065965
5.8299628
5.5356928
5.41251
4.9981107
5.175552
5.1187985
5.4876541
5.6259683
5.8918288
6.1102516
6.0669082
6.1529339
6.1090929
5.903461
5.9560022
5.847555
5.5755194
5.7189293
5.6652424
5.3742787
5.4404358
5.2513928
5.3082575
5.3578168
5.6678923
5.9257901
6.1311109
6.2098937
6.1908424
5.9956633
6.025245
6.1226021
6.2793647
6.2641352
6.2287984
6.1901221
6.2739427
6.3104579
6.1621197
6.0619973
6.0107613
6.1190843
5.9408679
5.8055744
5.8571483
5.9851027
5.779843
5.6176245
5.5516179
5.7260388
5.4924153
5.280819
5.056007
4.8022473
4.5425627
4.2790684
4.3490516
4.6109651
4.1046317
3.7432127
3.657971
4.0274714
3.4980737
3.0306053
2.6041293
2.6142345
2.2834043
1.3831446
1.4200984
1.8335704
1.8231857
1.8117575
2.6405074
3.463106
4.1851866
4.4183609
4.487493
4.7436721
4.679201
4.1728752
3.8076478
3.8766446
3.5242221
2.675215
2.2842963
2.2310172
2.5325295
3.0304236
3.5557071
2.965078
2.9211085
2.2856563
2.9901902
2.5213564
2.2365687
1.2944407
1.6795745
1.6404893
2.2954773
2.3120066
3.0828671
3.1520077
3.7012968
3.0834327
3.6815746
3.7591203
4.2430185
4.6079553
4.9126891
4.578796
4.8905289
4.5825938
4.9001886
4.8648919
4.8264155
4.5158805
4.8626445
4.903532
4.5623711
4.6064514
4.9413477
4.6627339
5.0245427
5.3505314
5.3162809
4.9821553
4.9370771
4.6596529
4.7169913
5.1129689
5.1583089
5.2003464
5.381241
5.063593
4.8274489
4.7732644
4.3405558
4.2743482
4.6124886
4.5606413
4.1596614
4.2164881
3.8019976
3.7339737
4.2093722
4.1465875
3.6703495
3.6102316
3.0950937
3.6645776
4.2179827
4.7183585
4.7783617
4.2821917
3.9434054
4.5407844
4.4767755
3.8788397
3.2048624
3.2598936
3.7276409
3.1499899
2.5446966
2.5104868
1.9229509
2.7601328
3.5681766
4.2673242
4.3318407
3.6262595
3.4112531
4.1988553
4.8175503
4.8795624
4.960756
5.0937907
5.2523119
5.5962744
5.6320461
5.2991083
5.1486744
5.5278585
5.486156
5.3983555
5.4446522
5.7734657
6.0276957
6.0046835
5.9875716
5.9865613
6.2360242
6.5136199
6.5140134
6.5166315
6.2631004
6.0565956
6.0671643
5.8320968
5.8050999
5.775413
6.0353439
6.0467624
5.8043429
5.4876512
5.5300125
5.6024379
5.6936635
5.3843605
5.5222435
5.5499117
5.680241
5.8089089
5.9334929
6.0526052
6.16461
6.3347167
6.5736205
6.7322474
6.8064771
6.8008713
6.7960425
6.8217314
6.7978869
6.8215401
6.8289609
6.8273934
6.8017086
6.8066997
6.813815
6.7330181
6.7325385
6.7357244
6.777385
6.7790685
6.7394432
6.7321758
6.6455893
6.6509085
6.5722333
6.7001714
6.6936647
6.5748279
6.5789619
6.6567112
6.6542193
6.7397578
6.6987458
6.7035967
6.6568096
6.7270349
6.7776034
6.8036048
6.7437905
6.7948765
6.8289384
6.8413627
6.7640666
6.7568047
6.7493845
6.7463416
6.6641596
6.667322
6.5859242
6.7087843
6.7018761
6.5892344
6.5959692
6.6776603
6.7539862
6.8029535
6.7504987
6.6789561
6.7039312
6.7112055
6.6588199
6.7496587
6.6465146
6.5051041
6.5009781
6.6519723
6.6603572
6.651271
6.4955416
6.5814473
6.5154228
6.5362537
6.5811178
6.7327544
6.8136332
6.7785889
6.7768909
6.7349394
6.7315516
6.6927095
6.6989601
6.5706025
6.6499013
6.6448193
6.5735694
6.5780005
6.7027645
6.7389393
6.7393511
6.6981039
6.580735
6.6537386
6.6560414
6.5355314
6.5255597
6.5265467
6.5040076
6.5012636
6.4506688
6.4540268
6.3405936
6.4118325
6.4084052
6.3432352
6.3472978
6.4589712
6.5072555
6.5050057
6.4550603
6.3488987
6.4130585
6.4159534
6.3036013
6.3249012
6.3338694
6.2990004
6.2990946
6.2102001
6.2056274
6.048928
6.1624957
6.1597684
6.0549497
6.0609633
6.2145548
6.2177181
6.3042466
6.1668755
6.1692856
6.0295671
6.1172862
6.3253946
6.5262714
6.5275039
6.5058105
6.502784
6.4100573
6.4138147
6.3435256
6.4565498
6.452742
6.3455866
6.3492219
6.4173794
6.508596
6.5061957
6.4142825
6.3505286
6.4566051
6.4607669
6.407182
6.4894177
6.6474952
6.7278918
6.6536775
6.4853189
6.3983823
6.6025254
6.5941801
6.4045476
6.4096101
6.4932566
6.4108994
6.4643539
6.5131432
6.5360414
6.3463865
6.3373442
6.3139758
6.4249565
6.4179707
6.5096587
6.4594397
6.3539641
6.3534842
6.4225684
6.312162
6.3053166
6.3048743
6.3007022
6.3010393
6.2088997
6.2127515
6.0576785
6.1613838
6.1704928
6.1677733
6.0664453
6.2192807
6.2165178
6.0629323
5.8887021
6.0305627
6.0217272
6.1152717
6.0192187
6.020351
5.8789964
5.8706742
5.6716635
5.8446439
5.8434554
5.6822574
5.6924704
5.8867782
5.8921391
6.0649939
6.0694033
6.2210549
6.3521172
6.4628931
6.5120482
6.5087694
6.4582715
6.3528576
6.4171208
6.4215023
6.3112301
6.3460413
6.3371415
6.5358596
6.5146122
6.5123779
6.4613818
6.4656767
6.3556664
6.4242412
6.4212525
6.3565772
6.2275027
6.3137075
6.3133894
6.3097074
6.2228585
6.0716378
6.1731675
6.178255
6.0387963
6.1311128
6.1308905
6.0438508
6.1813522
6.1781794
6.0773596
6.0749431
6.2253507
6.1361134
6.2846014
6.4121934
6.494536
6.6503625
6.7262806
6.7770836
6.8029338
6.8272535
6.8286653
6.7942463
6.7489235
6.7564838
6.7459601
6.7011746
6.7081671
6.5852597
6.6669717
6.6637273
6.588342
6.6042684
6.5476182
6.5481437
6.5225814
6.5166439
6.5195986
6.4689405
6.4644452
6.3604266
6.4259327
6.4298703
6.3595472
6.2304532
6.3209107
6.3597757
6.3525145
6.3243445
6.4333953
6.4308764
6.5204273
6.4672681
6.4717436
6.363567
6.3647502
6.2381325
6.3254157
6.1920874
6.1940218
6.1850723
6.3199061
6.2324287
6.0834195
6.0810413
6.1895029
6.0515084
6.1452624
6.3599739
6.5478752
6.5486443
6.3529251
6.3246776
6.4336775
6.5229702
6.5170114
6.5201208
6.5130079
6.4217801
6.3572694
6.4621404
6.4666214
6.3564663
6.22613
6.2238408
6.3104012
6.1737183
6.1789376
6.0705139
6.2223597
6.1322852
6.2822541
6.2794998
6.404147
6.3427241
6.3469377
6.3367682
6.3995536
6.4016157
6.2694601
6.2732253
6.1972529
6.1918448
6.3393738
6.2809318
6.2803109
6.1206137
6.1129408
6.0360196
6.2197366
6.2195548
6.0463536
6.0560107
6.1277562
6.2026254
6.2772835
6.1253299
6.1203691
6.1143951
6.015673
6.0241199
5.8206669
5.9416349
5.9483531
5.9536342
6.129119
6.0362682
6.2057108
6.1322572
6.2880277
6.2906421
6.2329479
6.230022
6.062275
5.8548951
5.9436507
5.9361012
6.0309394
5.830187
5.8377753
5.7218477
5.7108429
5.6969908
5.9264182
5.9145155
5.814429
5.8307644
5.5736218
5.5934382
5.844241
5.7594276
5.9909429
6.1852675
6.3342375
6.5548772
6.685737
6.6818676
6.5669897
6.6063454
6.5977524
6.4121077
6.344293
6.5587555
6.5332629
6.5422978
6.52867
6.5361739
6.5621239
6.3250155
6.2820735
6.2936288
6.3020351
6.3410485
6.1956346
6.2412107
6.296838
6.3516029
6.3462559
6.4070084
6.2834049
6.2107445
6.2090796
6.04047
6.0437217
6.1346431
5.9614208
6.0724944
6.0755807
6.1816676
6.1784508
6.3141015
6.2279921
6.0777781
5.9079726
6.0426114
6.0440051
6.0369933
6.0392633
6.0301307
5.8558997
5.8595041
5.8444511
5.8459805
6.021095
5.8745907
5.8818451
5.6849157
5.6753727
5.4573698
5.6743169
5.6804351
5.4688055
5.4545726
5.2166893
5.2353876
5.4707499
5.4825776
5.6929179
5.8588687
5.8555001
6.0294576
5.6992448
5.4905312
5.6955874
5.4913614
5.7003095
5.8934758
5.8984065
5.9013421
5.7107118
5.8644194
5.8700283
5.7068295
5.4991957
5.7053439
5.8698271
5.8642857
6.0366919
5.9007454
5.8974365
5.7061223
5.7102603
5.7154452
5.9048095
5.9076945
6.0424815
5.8712084
5.8765992
5.7141634
5.8766816
5.8712495
5.7188291
5.7156623
5.9051011
5.7684896
5.9646051
6.1369545
6.2855478
6.4132674
6.4094973
6.2866516
6.2144447
6.3487677
6.3543368
6.2132516
6.0466024
6.0491589
6.139112
5.9674775
5.8562767
5.8525753
5.8485533
5.8437048
5.9579541
5.7595522
5.7536556
5.7464478
5.7374118
5.7264143
5.4942794
5.5087803
5.3239503
5.5869174
5.5709781
5.3028836
5.0067705
5.2387044
5.2575953
4.9848225
4.9601983
4.9319352
4.6476515
4.3279591
4.7102831
4.4062264
3.9470551
3.8735064
4.2729368
3.8669719
4.2479919
4.1975457
4.5397242
4.4943856
4.4464704
4.0689869
4.013093
3.6324918
3.6899456
4.0925448
3.6885526
3.6304916
3.569161
3.5086477
3.0854687
3.4864888
3.05665
3.1228151
3.5121501
2.996343
2.6070134
2.5365893
2.1836841
2.666309
2.718784
3.1533441
2.6699737
3.0924375
3.027901
2.5972837
2.2124336
2.2687136
1.8509457
2.2401071
2.2882265
2.6563374
3.047987
3.5726948
3.6307742
3.1012284
2.707898
3.2390576
3.1813681
2.7754047
3.212405
3.2701447
2.7737839
3.2039329
3.1477252
2.7209579
2.3172609
2.3677908
2.8317773
2.3385599
1.9375699
1.8926474
1.4142632
1.7290881
2.0383036
2.4211102
2.3901643
1.7246016
1.3565256
2.0081873
1.980027
1.3426418
0.80307985
0.76139175
1.0952831
0.701338
0.40398018
0.45837641
0.31787859
0.63564212
1.101192
1.6715236
1.6963658
1.1153381
0.89842021
1.3851588
1.3540224
1.7919853
1.3749248
1.7213704
2.0666602
2.4962207
2.526243
2.0989999
1.4592301
1.8875207
1.8778503
1.4417837
1.1609022
1.1752895
1.746843
1.4065855
0.93307534
0.91401841
0.54672582
0.68482478
0.88524457
1.3004902
1.2502406
1.9331048
2.7327381
2.4422624
3.3203484
4.0756256
4.1362063
3.362289
2.4463145
2.4576843
2.7949175
1.9189491
1.4432649
1.4860175
1.5322245
1.5619938
2.453989
3.2604474
3.2514951
3.3097866
4.0684346
4.6883695
5.1805995
5.568604
5.5008112
5.5373426
5.8443193
5.8958959
5.6029137
5.6544651
5.6213608
5.6646431
5.9485483
5.9718404
5.9456246
5.9865502
6.2498778
6.5139814
6.4826832
6.4961979
6.545803
6.7018652
6.7115767
6.6651481
6.5163469
6.2623075
6.3076582
6.5439862
6.5418927
6.2850048
6.3679835
6.5857706
6.5600691
6.339321
6.44167
6.620816
6.6082026
6.6629058
6.7563934
6.7811158
6.7637488
6.6892072
6.6405552
6.6406968
6.5854477
6.3849453
6.4757006
6.4635562
6.5562601
6.5391511
6.6714507
6.7112763
6.7029932
6.7036955
6.6785957
6.628895
6.7245926
6.6755864
6.4537452
6.589983
6.4074755
6.4675997
6.5609549
6.6573168
6.6421116
6.5178431
6.3464276
6.173692
5.9900651
5.8345708
5.9466351
6.2556305
6.4083847
6.4552208
6.0949064
6.1607708
5.8991407
5.548381
5.4246347
5.188377
4.8932524
5.0504821
5.5340516
5.4081516
5.8058841
6.0891597
5.9765535
6.3806504
6.6118872
6.7430598
6.7277599
6.7637375
6.7859255
6.7771783
6.7949275
6.7101411
6.7233179
6.725782
6.6879828
6.5646389
6.6365318
6.6355635
6.6159843
6.6012781
6.510912
6.3454863
6.2736298
6.1915483
6.1128155
6.0286316
5.9563661
5.8892916
5.9383422
5.6677318
5.6022033
5.6951109
5.7545715
6.0045245
6.0488877
6.0716663
6.010695
5.7566635
5.6966063
5.3411942
5.293306
5.2397089
4.751347
4.8122996
4.8868765
4.8268661
5.289094
5.2307942
5.1690052
5.117972
4.6065449
4.6850891
4.7640976
4.9012089
5.3248024
5.2627741
4.8187809
4.999077
5.3876982
5.4461694
5.0727289
5.131335
4.9625842
5.3805905
5.7170648
5.8007438
5.8370734
5.5439321
5.429746
5.0198807
5.1841698
5.2338887
5.0757442
4.9468135
4.8741689
5.3440367
5.3471791
5.3959687
5.7417076
5.7400321
6.0038266
6.0248853
6.0082961
5.7353446
5.7049514
5.7689221
5.8010193
5.7738875
6.0344716
6.0460607
5.8029458
5.8284728
6.0649669
6.0540627