/*--------------------------------*- C++ -*----------------------------------*\
  =========                 |
  \\      /  F ield         | OpenFOAM: The Open Source CFD Toolbox
   \\    /   O peration     | Website:  https://openfoam.org
    \\  /    A nd           | Version:  7
     \\/     M anipulation  |
\*---------------------------------------------------------------------------*/
FoamFile
{
    version     2.0;
    format      ascii;
    class       surfaceScalarField;
    location    "200";
    object      phi;
}
// * * * * * * * * * * * * * * * * * * * * * * * * * * * * * * * * * * * * * //

dimensions      [1 0 -1 0 0 0 0];

internalField   nonuniform List<scalar> 
76358
(
36.223228
-0.011074739
2.0236932
1.4732068
-1.4801615
-2.0333158
0.060371232
-34.804292
-5.2636337e-05
2.1436422
2.1305356
-2.0923454
-2.099889
-1.4917098
1.4734366
2.0320389
-2.0571966
-0.059372041
-36.223406
-1.4919003
1.473204
-2.0572367
2.0320277
-34.678901
-2.0395081
2.0202151
-2.0321897
1.9945322
0.00055132913
-34.804969
2.1306098
-2.0923695
-2.099321
2.1444781
0.00042236225
0.010690913
0.00013700906
-2.0833656
2.0765779
2.0775935
-2.0879813
1.4730792
2.0236774
-2.0333601
-1.4802438
2.0765445
2.0772047
-2.0879017
-2.0832812
4.9729539e-05
-0.053484478
10.410246
0.36950369
-0.3747016
-0.53903767
0.53247117
-0.0099041017
-8.258548
-0.0055630579
9.6664198
-0.0079062088
-7.6827418
10.340989
0.0057324295
-7.4059983
7.4263204
-0.034601346
-0.034340366
0.0011307265
0.0014556758
-9.2582301
0.3764741
-0.3873066
-0.52636237
0.51673768
-0.060463515
-36.222929
1.473491
2.031963
-1.4916257
-2.0571739
-2.0999239
2.1435443
2.1303774
-2.092381
-34.804081
0.01090004
-2.4926
-2.5119873
-2.1920651
-2.3387795
0.38548575
-0.38231351
-0.38971088
0.53459014
-2.5295378
-2.4596548
-2.1988446
-2.2186549
-0.38795119
0.54428056
0.54337459
-0.38331485
-0.00013698042
-0.4263761
-0.015821851
-2.0486284
-0.0003549848
-0.0383565
0.010628532
-7.8107741
-0.52187924
-0.50302525
0.41283217
-0.00014734729
0.12959216
0.32579382
-0.37523989
-0.52780276
0.41944278
-8.2486269
-7.6939348
-0.13050138
-0.023734996
-0.09557802
0.024004207
9.3846392
0.37643024
0.36858034
-0.38056896
-0.38652902
-0.38669563
-0.38075581
0.36836199
0.37624945
-9.387451
7.6939931
-0.095060374
-9.6665056
-0.13082727
-0.1289295
0.33185154
-0.37581434
0.41612697
-0.36726953
-0.36708769
-0.37558497
0.41630967
0.33207172
-1.8169363
-0.0034136112
-0.014604675
-0.047016649
-0.044954037
-2.4760199
2.0867821
0.086882533
-0.097685173
-0.13058459
0.10696826
-2.6288458
0.0016632601
-0.024997934
0.018913162
-0.63976718
-0.61831499
-0.55964647
-0.61091889
0.022804624
0.16986671
-2.0832901
0.16494612
0.083816237
-0.096697268
0.10167838
-0.12912478
-0.11133442
-2.3438518
-0.47677133
0.0020083333
0.0056945916
-0.0040977762
-0.0020477208
-0.66500828
0.52143239
0.00041799514
-0.65516644
-0.0013663146
0.0070480831
0.0050459064
0.00013841462
-0.57147938
0.0048777596
0.013864825
-0.51611683
0.012709327
-0.013129491
-0.62332428
-0.010835566
-0.57664915
-1.4599595e-05
-0.0075271318
-0.0010726081
-0.57611704
0.010776624
-0.023929018
0.020660516
-0.03245974
0.025717425
-0.0002253049
-0.12881792
0.0014234181
-0.52800431
-0.00084024345
-0.52660755
-0.0066701583
-0.0065645438
0.09530307
-0.097441746
-0.13145023
-2.0842325
-0.0097246952
-0.37310359
0.36667719
-0.53676125
0.53371884
0.51240975
-0.51925611
-0.53953398
-8.218343e-05
-9.9076441
2.5269448
-0.13216496
0.13091189
0.13363509
-0.13510969
-0.0024508001
-1.9947177
0.0029177862
0.10767934
-0.13125051
-0.13438804
0.11314184
2.0133258
-0.13407408
0.112627
0.10749077
-0.12961047
-2.4697891
-7.7437388e-05
-0.033782175
-6.9631852e-05
-0.0059341547
-0.64136509
-0.61833742
-0.56451341
-0.57420406
0.17181775
-9.0440304e-05
-0.62648909
-0.64169836
-0.57389862
-0.56870445
0.17064962
-0.52584147
0.0051116632
0.0069659739
0.00011442824
0.0010878584
-0.65966058
0.53212145
0.0010589287
0.00020936451
-0.66766336
0.0071284206
0.0015481717
-0.0046330947
-0.57696934
0.0016410871
0.013191144
-0.57506393
0.01357012
0.0013348953
-0.56317043
-0.012155135
0.00046545508
-0.56285235
-0.012188621
-0.0011066067
-0.00034974622
0.57600767
-0.012045479
-0.56204038
0.53096731
0.00029102133
-0.66622966
-0.0033809476
0.0071583415
-0.52154562
0.0073434893
-2.5471116e-05
0.0011166611
-0.6519561
-2.5631956e-05
0.57269571
-0.011927199
-0.55997548
-2.6119391e-05
0.0025089961
0.013046694
-2.9898181e-05
0.013112038
-0.001639207
0.58435495
0.010686724
-0.57756235
-0.0027280796
-0.004977882
0.58408605
-0.57835084
0.010794606
-0.0043606436
0.5801632
-0.57847894
0.011268621
0.0017908025
0.57205466
-0.5753659
0.011024614
-0.10025801
0.62551738
-0.52045959
0.0097003468
0.1114958
2.2123195
-2.3693775
-0.12820298
-0.092752436
0.087688454
-0.092704573
-0.12813245
0.10033031
0.087743455
0.04500626
2.0832898
0.083895109
0.10175115
-0.12905583
-0.096619512
-2.3438589
0.37529572
1.8169445
-0.046775495
-2.4760434
10.418072
0.3257556
0.41956782
-0.52767561
-8.2487776
-0.0099659984
8.3793722
-0.19935563
-0.0094367306
-0.061413465
-0.012877833
-9.2581539
-0.0026525406
0.51681424
0.3763714
-0.38742222
-0.52628147
0.011991992
0.53464993
0.38535036
-0.382455
-0.38968016
-2.338825
-2.4926339
-2.5119391
-2.1919941
0.29932263
8.8005203
-0.38776092
0.54448839
-0.38269289
0.54403023
0.00049791448
-2.5296016
-2.2186085
-2.4596118
-2.1985917
8.3870176
0.00035793291
-10.129679
-0.073269476
0.00034312579
0.51960496
-0.52689108
0.5175748
-0.52294245
0.00045568761
-0.0037284092
-2.0944747
0.0035369116
0.001306753
-0.0051419725
0.0017863447
-2.0927578
-1.8939871
0.0049998233
-0.0025154181
-0.0023551462
-2.6638453
2.0927863
0.0041982911
-2.6271845
0.0018082017
-2.3245795
0.0036129683
-0.004156658
-2.3261117
0.0050279035
-2.6271636
0.0016125633
-0.0069498729
0.01365958
-2.1033614
0.0041379625
-1.9067361
0.0067770474
-0.015126304
-0.014937658
-2.6414407
2.1033653
-0.01280539
-0.00065815407
-2.4947389
0.013719496
0.0038284604
-2.3074333
0.004441303
0.0042593956
0.012886456
0.00019464468
9.7068412e-06
-2.3333295
-0.00036338787
-2.4947293
2.1042612
-0.0010088711
0.0025888813
-2.4939655
2.6286655
0.02276369
0.0014583484
0.0076795217
0.0012327551
2.3133218
0.0029485318
-2.3129485
0.0026702445
-0.0041084629
-2.3035671
0.0003391525
-2.0875369
0.00023721275
0.0086904726
-2.6182247
0.00028761538
-2.303457
0.00040703896
-0.0029269311
-2.2886489
-0.024701888
0.00047191072
0.012348902
-2.2988372
0.010166681
0.0037806816
0.0085016074
-2.3119337
-0.0027260738
0.00057316764
0.012185126
-2.2949005
2.0977472
0.00032747151
-2.4809047
0.00030920424
-0.54410488
2.6178968
0.025114365
-2.0974454
-0.0011516726
0.29873291
8.7999608
-0.011550745
-0.38244898
-0.38718892
0.54483934
-2.4596216
-2.1985045
-2.5295116
-2.2183136
2.032021
8.3869167
0.0097966937
-10.129644
1.9946692
2.0206715
-2.0389957
-34.678989
0.0020208529
-2.0922193
-0.51694162
-0.005351452
0.0036601579
-0.0022737935
-2.3236805
0.0022929308
-0.0040749794
-2.3122339
-0.004390509
-2.3029057
-0.51762517
-0.0010455127
-2.0873044
0.072721239
0.003084069
0.51989269
-0.52635708
-0.52278126
0.013230295
-8.3792585
-0.060583436
-0.19847611
-10.418074
9.2574301
0.53499331
0.3856715
-0.38202545
-0.38912838
-2.5118863
-2.1917234
-2.3386249
-2.4925994
0.51709334
-0.52576131
0.37665173
-0.38700024
0.0036601123
-2.0922717
-0.0052113345
-2.0939759
0.00093164217
0.008293024
-2.6280045
-0.0015531343
0.0090304605
-0.0025073858
-2.3026718
-2.311728
-0.0050912427
0.0024302103
-0.023454323
-2.2974783
0.011318915
-0.0045445696
-2.2877289
0.013073644
-0.0032590819
-0.0032276488
0.013128044
-2.2937971
-0.0022470464
-2.480579
2.1036775
0.00037590541
-0.00021119932
-2.4932782
-0.0040935827
2.6265431
-0.0070507608
-2.1028357
0.0142431
0.0046913288
0.0022656516
-0.0044278548
-2.3251483
0.5258943
0.0021250765
-2.6264824
0.37650572
-0.38713993
-9.2573465
-1.8936665
-2.6634159
-0.38554269
-1.9064274
0.0071749231
-0.38213599
0.53483751
-0.38926958
0.011920348
-2.3386419
-2.1917317
-2.511874
-2.4925942
-0.014798074
-0.014684649
-2.6411061
-0.012228794
-2.4941575
0.00035267849
2.3064152
0.012493602
0.00077242239
-2.3322627
0.0098328
-2.3103972
0.011565042
0.013765682
2.2665529
-0.0090824411
-2.2729684
-0.0012838719
2.223669
0.023832453
-2.2215245
-0.012372492
0.021818435
2.2263974
-2.2249421
-0.0085418517
2.269356
0.011544297
-2.2762293
0.00116748
0.0032875497
2.2986418
-2.311629
2.1042504
0.0021903029
-2.4938825
0.0011049464
0.02255213
-2.0977904
0.023954785
-6.0484494e-05
0.0020424595
-2.4808735
-8.3906592e-05
2.2879843
0.011284128
-2.2938575
-8.0956798e-05
-0.0024703197
0.011325304
-4.3359036e-05
0.010133061
0.0092601946
0.009974196
-2.2234437
0.015804377
-0.00027889855
0.020163681
-2.2204852
-0.00029381394
2.0192604
-0.0010105573
-1.9740524
-0.0022152689
-0.017362413
-0.0008697121
-0.0017670887
0.0009901171
0.018866754
-0.0092728363
-2.0174541
-0.016939832
-0.0013933073
-0.020811791
-1.9722326
-0.0015878202
2.2189209
-0.012002775
-2.2150351
0.0010708561
-0.01121909
-0.012183243
0.00075924171
-0.010603742
-0.0049469389
-2.2970401
0.0031443286
-0.023092506
-0.01398154
-2.102789
0.0043374639
-0.00016077322
-2.4940888
-0.00058270028
0.38740337
2.1034567
0.0026032239
-2.4930414
0.0040195591
-2.3099524
2.285972
-0.0027989188
-2.2916592
0.00050294954
-0.024715741
0.000399817
-0.54384627
-0.0014765163
-2.0968274
0.00021859491
0.54451559
-0.38251925
0.0003000387
-2.2182758
-2.1982764
-2.529448
-2.4594735
-2.4797765
0.00023415369
0.0094367297
0.00026136771
-0.57249439
-0.578999
-0.0056623799
-0.5842162
-0.57561487
-0.17248778
0.019024365
0.00058819394
-0.56571165
-0.56895645
-0.0070326841
-0.58208428
-0.57804998
0.027014256
0.0013307224
-0.017291687
-0.56393149
-0.55376541
-0.53292696
-0.55644019
0.0011781372
-0.0019979257
-0.031387565
-0.52985197
-0.49723038
-0.39713943
-0.48878919
-0.026999667
-0.0026913099
-0.028338738
-0.49822768
-0.53224167
-0.49154344
-0.39283171
-0.018133233
-0.00025511409
-0.015157328
-0.55585633
-0.56505937
-0.55762556
-0.53539788
-0.0086173571
-0.0062348563
-0.56960373
-0.58244676
-0.57851628
-0.56649279
-7.8971272e-05
-0.0052260293
-0.57929511
-0.57580925
-0.57288525
-0.00010252487
-0.014561497
-0.57842335
-0.57930211
0.0080772622
0.049794149
-0.59907229
-0.57432866
-0.018254866
-0.16479635
-0.049584535
0.014648564
-0.0186704
-0.0032135488
-2.0867714
-0.024933559
0.01612015
0.08687834
-0.097693247
-0.13054448
0.10700541
-2.6288688
0.0020002937
0.6397781
0.0056931182
-0.47677231
0.002074544
-0.61092952
-0.61829834
-0.55961787
0.023141435
0.16988434
-0.51611469
-6.6464107e-05
0.012695904
0.0020500742
-0.013050004
-0.62332123
-0.010849353
-0.0040234544
-0.66501154
0.52142738
0.00043629026
-0.65516333
-0.0012682752
0.007066545
0.0051424465
-0.57147268
0.004977021
0.01387787
-0.57664127
7.2089336e-05
-0.0075172107
0.01069065
-0.57611274
-0.0010896608
-0.00012821758
-0.023932526
0.0206579
-0.032450998
0.025724319
-0.12440125
0.00066800889
-0.48137888
-0.0075184653
-0.0052377566
-2.0758461
0.091180786
-0.095443963
-0.12889374
0.12241086
-0.36662596
-1.7528642
0.0067893305
-0.37316493
-0.53668225
0.52672804
-0.0092130593
-10.410501
-0.011872696
-0.017723685
-2.4770017
0.093512715
-0.09381743
-0.12655098
0.12675486
-0.13069809
-2.3434489
-0.098061951
0.66483689
0.0012087226
-0.47534527
0.00087431936
2.0842793
-0.00096648963
0.13205984
-0.13047159
-0.096789984
-2.640579
0.095293711
-0.097454689
-0.1314127
0.12885637
-0.0063547843
-0.47652171
-0.0013473251
-0.0019661599
-0.0026173134
-0.00158669
-0.60497884
-0.005673251
0.0012062453
-0.00052038582
-0.57765203
0.023361554
0.031954302
-0.032276128
-0.02377299
0.52800507
-0.0016271338
-0.6592017
-0.00073886881
-0.13094105
0.65965894
0.0025197598
-0.53263455
0.00065803774
-0.53387574
2.5269786
-0.13213916
-0.13501272
0.13373045
-0.0021943927
-1.9947828
7.8110249
0.5128172
-0.51894819
-0.53944038
0.00027435974
-9.9081377
0.42657021
-0.52171588
-0.50259418
0.41325892
0.00033874824
-2.0486246
-0.038147169
-0.00013948688
0.10771919
-0.13121957
-0.13429011
0.11323961
0.003189227
0.62650547
0.0070081145
-0.52583741
0.0051854749
-0.56870362
-0.64168267
-0.57384415
0.0062708153
0.17085086
-0.57505527
0.0047212288
0.013615561
-0.0011352297
0.0014297144
-0.56316071
-0.012116956
0.00019844845
0.5321106
0.0011394695
0.00031328223
-0.66765501
0.0072027337
0.0016502805
-0.57695701
0.0017571505
0.013279671
0.00056642332
-0.56283865
-0.012115594
-0.0012303678
0.57598837
-0.0002505251
-0.56201955
-0.011921506
0.13397719
0.53095608
0.00037133066
-0.66622168
2.0132903
0.11273579
0.10765466
-0.1294467
-2.4698155
0.00015363291
-0.033335527
0.00013350629
-0.64138394
-0.57417256
-0.56441381
-0.61832137
0.17243176
0.0002035662
0.0072680334
-0.0033098289
-0.002415989
0.01325698
-0.0074975885
-0.57266093
0.013263001
6.5720085e-05
-0.5215231
4.897629e-05
0.0012882195
-0.65193766
5.0967083e-05
-0.55994105
-0.011739361
5.7172385e-05
-0.00014046504
-0.0027767956
6.3221446e-05
-0.54465859
-0.032407663
0.026171206
0.026166658
-0.032358619
-0.00039293016
-0.0027232059
-0.54652639
-0.032490713
0.026179728
-0.032405695
0.026199193
-0.00057147737
-0.0026432203
-0.032555312
0.026102208
0.026205872
-0.032462325
-0.54730733
-0.54831076
-0.032643313
0.025998393
0.026131289
-0.032516252
0.00097347625
-0.54946137
-0.032486987
0.032166504
0.032036652
-0.032282563
0.00022313471
-0.00067100469
-0.66475636
0.53614789
-0.67092239
-0.00093650868
2.7280941e-05
0.00023815698
-0.13337758
-0.53478925
-0.00053989629
-1.9571546
-0.1345449
-0.13002843
0.12900861
0.00014907561
-0.0014716343
0.13596053
-0.13408208
0.13150474
-0.12962083
-2.4785296
0.00013608232
0.13353632
-0.13178695
-0.13452441
0.1363591
-2.5402454
-0.00067773889
-0.53208312
0.0006750206
0.00086580096
-0.52732975
0.00071887108
0.0010949245
0.0007546846
-0.00079843772
-0.65885251
-0.00010165505
-0.6647561
0.48132324
0.00050011917
-0.0036977339
-0.60477826
0.00013031687
0.0038432589
-0.57741349
0.00013235025
0.03253402
0.023889787
-0.023697646
-0.032247856
0.00020735657
0.023936014
0.03261408
-0.032310931
-0.023761285
-0.57684393
-0.0008251721
0.54943979
0.032775127
0.00015886693
0.032673976
-0.032567063
-0.032396718
-0.54905145
-0.00059695457
-0.66489673
0.53497291
-1.0194751e-05
0.00086655914
-0.67095064
0.00093612612
0.00014852534
-0.00022006506
0.54787228
0.00023671846
-0.54785181
-0.032268637
0.032658464
0.032706858
-0.032197675
0.032771759
-0.032448851
-0.032245168
0.032678768
-0.00019788673
-0.13135954
0.00024221489
0.16396782
0.00011915077
-0.00025186278
0.1635189
0.00019421604
-0.13112512
-0.0235663
0.16523554
-0.11864653
0.00061520998
-0.13120854
0.64896894
-0.00052786832
-0.513526
-0.023550333
-0.032760181
0.032880941
0.13052644
2.1293984
0.098787402
-0.098234081
-0.13091164
0.13112451
-0.13099547
0.098724207
-0.098301192
-2.3920252
0.011816843
2.0758293
0.093431612
-0.093889863
0.1266814
-0.12662012
-2.3434183
1.7528369
-0.017924934
-2.4769545
0.0052916589
0.091101283
-0.095524719
-0.12896687
0.12433089
0.12257795
-0.47651696
-0.00066354387
-0.0026956336
-0.0019604763
-0.66482732
-0.0012217881
-0.0017327455
-0.65919564
0.0016744019
0.023365861
-0.023768761
-0.032285079
0.031946328
-0.00061812334
-0.57765346
0.48137928
-0.0056549012
-0.60497733
-0.0075010244
-0.13208648
-0.51145459
-0.023984315
0.019850408
0.64647817
0.025789083
-0.033064204
0.000970903
-0.13210987
0.10160075
-0.099205976
0.10165338
0.13216179
-0.13202924
-0.099147681
0.023139367
0.00049803092
0.032399967
-0.03271859
-0.023568484
-0.64896965
0.16451092
0.00038148427
-0.11848013
9.2953558e-05
0.11805166
-0.00071173595
-0.00074234246
0.15600567
0.0017538254
0.00080308824
0.015127747
0.0077290915
-0.15540541
-0.15413689
-0.14242049
0.0022185952
0.0021077828
0.52718468
-0.01524791
-0.030498692
-0.57208273
-0.0016752844
0.027176475
-0.57943355
0.010861072
0.0035931511
0.0072605534
-0.15364689
-0.15634571
-0.14456466
-0.14264631
0.0029906491
0.012490235
0.58121651
-0.00010888021
-0.14792183
-0.15574581
-0.143208
0.0035399022
-0.14300158
0.030540674
-0.012440794
0.58308793
-0.61919627
-0.0020855344
0.52718631
-0.015182343
-0.57208233
0.52045923
-0.015050307
-0.64647626
0.62552736
0.0096797479
-0.0017216685
-0.5990926
-0.57431955
-0.5720356
-0.018347701
0.014893274
-0.0016165157
0.027133431
-0.011022765
-0.5794386
0.010843332
0.0036819613
-0.57536315
0.004460992
0.0077236791
-0.1560081
-0.15540885
-0.15413159
-0.14241423
0.0023084298
0.0072401586
-0.14455978
-0.15634898
-0.15365206
-0.14264386
0.0030672677
0.58122783
-0.00014304218
0.0036008732
-0.14320545
-0.1557491
-0.14792854
-0.14300321
3.1064009e-05
0.58562408
0.002784624
0.0036313933
0.63750536
-7.6452991e-05
-0.58563313
-0.57821146
0.0086089338
0.0084329783
0.0028107803
0.003557215
-0.58126641
0.0043473687
0.0043029797
-0.15637833
0.0038053823
0.0037623319
-0.14444847
-0.14444557
-0.14381366
-0.0062944564
-0.006281645
0.0011220561
-0.14605794
0.0011336493
-0.0011839505
-0.022307668
-0.13199993
0.0012752594
-0.002037359
0.0013350559
-0.13023609
-0.025991363
-0.001084414
-0.025628579
-0.13015986
0.0011886091
-0.0019357963
0.0010510226
-0.13121841
-0.025326936
-0.13072368
0.00092538651
-0.00066032029
0.00014308621
-0.16398239
0.00034290361
0.14365741
0.00057145641
-0.14548777
0.00025567877
0.13012937
-0.16294347
-4.5087027e-05
0.0015439234
0.00096907324
0.0022686775
0.0014375495
-0.14412756
0.0011975038
0.0016850972
0.00070136705
0.00067239051
-0.14527282
0.00034296014
0.032996575
-0.16380572
0.0004351896
-0.49423251
-0.032234314
0.038996807
0.032222868
-0.032575019
-0.031876867
0.031948312
-0.032168097
-0.56049165
-0.00037935438
-0.13158823
0.00039207266
-7.3441078e-06
-0.13155183
-2.8458208e-05
0.00040805959
0.00015401125
-7.2295621e-05
-0.1647602
-0.00017348346
-0.16523583
0.13093821
0.000171354
-0.16352142
-4.6700347e-05
1.7256323e-05
1.6764302e-05
-0.1458128
0.00024401454
6.9812946e-05
0.00026471435
-0.14587767
0.00012552231
-0.0001946883
0.00033866479
0.14556296
-0.14561957
0.00017734441
0.00014948019
-0.16457971
0.13005593
0.00017595529
0.00024188814
-0.16220116
0.16182999
0.00051025215
5.6069165e-05
-0.00059081029
0.00046181291
0.14376174
0.00066390223
-0.14476658
0.00042251268
0.0016939398
0.0018076002
-0.14309011
0.0010829087
0.001828202
0.0002822971
0.00053684629
-0.14377189
0.00052653811
0.032298742
-0.16199962
0.00020890075
-0.038946514
0.026009086
-0.032280652
-0.023839829
0.022321058
-0.52561109
-0.023851814
-0.00094377537
-0.49423253
0.025348073
-0.032975523
-0.032217742
0.025646038
-0.51145395
-0.023961144
0.01987245
0.025809904
-0.033043971
0.000468599
0.032421072
0.023163614
-0.023544067
-0.03269671
0.032245738
-0.03255115
-0.031857524
0.03196652
-0.5604905
-0.032224697
-0.00037461337
0.16380568
1.5593954e-05
-0.13158752
0.00038659677
-0.00037952379
0.16398153
-4.9964193e-06
-0.13155056
0.16451047
0.00011468332
-0.1184795
0.11805162
-0.00071332393
-0.00072149905
0.001752515
0.00082135525
-0.13072336
0.00094467849
0.0019322477
-0.00063811144
0.00013899224
0.00034107711
0.14365599
0.00057124438
-0.14548608
0.00027965295
0.13012741
-0.16294096
-1.7869612e-05
0.0015457932
0.00099569577
0.0022689559
0.0014632785
-0.0010695556
0.0011957548
-0.14412709
0.0017100633
-0.13121866
0.0010804451
0.00043037515
-0.00067988881
0.13016065
-0.00057072158
-0.16183035
0.00045305681
0.0012055434
0.0020295281
-0.14376253
0.0016892746
0.0018306939
-0.0006699779
-0.14476672
0.0006588953
0.00044454452
-0.14527189
0.00036618228
-0.00024346193
-0.1455614
0.00040243736
0.00014613005
-1.8902422e-05
-0.14581074
9.5101297e-05
-0.13093604
4.5160684e-05
0.00015084991
0.00017288407
-1.7002732e-05
-0.00041017063
0.00017876915
-7.7377335e-05
-0.16475883
0.00026395176
-0.14587547
0.00015243215
-0.00021932308
0.00033527005
-0.14561755
0.00020414915
0.00014350213
-0.16457887
0.13005544
0.00026591629
-0.16220032
0.00016494201
7.790909e-05
0.00050028985
-0.14492841
0.00043615262
0.00020588982
-0.14496663
0.00038401018
0.00025539201
-0.00014965998
-0.00028342377
-0.14508225
0.00032882392
0.00021988366
-0.032303285
-0.00026823704
-0.13020551
0.00042705768
-0.49576163
-0.032627782
0.032736621
-0.031984187
0.033102719
-0.00086877143
-0.032579399
0.032936725
0.032428271
-0.032020881
-0.032358814
-0.56153284
0.023866303
-0.023471945
-0.032687372
0.033162316
-0.64987345
0.16526341
0.00043959021
-0.11852389
0.0006232001
-0.00039383709
-0.00023725699
0.13174048
3.7481314e-05
-0.16482391
-0.00010806906
3.8295285e-05
0.00043950455
-0.14600944
0.00023857594
0.00012790964
-0.00016749956
-0.14610603
0.00019256957
0.00010900131
-0.16376065
-1.7078325e-05
-0.13107584
0.00013907218
0.00022978188
0.00011783753
8.0484196e-05
-3.7758713e-05
-0.16354733
-0.00044458818
-0.16519469
0.13167378
0.00017076212
-0.00019990915
-0.1647766
0.0002161783
0.00041921255
-0.14602351
0.00015063319
0.00012209032
8.3702462e-05
8.5006698e-05
-0.14594097
-0.00015686283
8.6240415e-05
0.14577537
9.1507915e-05
-0.14571255
0.13172404
-2.2379736e-05
-0.16463784
0.16465664
0.00021401982
0.00020931648
0.13176619
7.9945394e-05
7.4652931e-05
9.5213041e-05
-0.1457392
0.00017201343
0.00022430858
-0.14583267
0.00014167871
-0.00012068529
-0.14517431
0.00025824417
0.00017881038
-0.16232313
8.7397781e-05
-0.13021176
0.00020684312
0.00032407327
0.00014782714
-7.962875e-05
-0.16232322
0.14513771
8.7279883e-05
9.9925949e-05
-0.14509085
-0.0001651466
0.00017902252
0.00015635923
0.00013750399
-0.00016412742
-0.14443301
0.00018670445
0.14442053
0.00012741127
-0.00014545229
0.14569546
0.00010438843
-0.14569643
0.16410326
9.466812e-05
-0.13133848
0.00020473223
7.3062169e-05
0.14564346
0.00013182277
0.00023390658
0.14556523
0.0001559942
0.00029236335
-0.00021263234
0.14544659
0.00031388463
0.00016981952
0.13116305
8.8148264e-05
0.16321132
3.284906e-05
0.0001305473
0.13077439
-0.0004051606
0.00018090576
0.1558147
0.0016127834
0.0003409982
0.57847853
0.0076703442
0.0021934067
-0.14412916
-0.14319712
-0.15500983
0.58019461
0.011290841
0.0050696396
-0.57845589
-0.58408057
-0.57930253
0.0081709446
0.0056413031
-0.58005422
0.0042751944
0.012295948
0.0023934444
0.0069914357
-0.14500941
-0.14619372
-0.14435617
-0.14314219
-0.0075034789
0.57846123
0.0067273284
0.0011334925
-0.14490138
-0.14520651
-0.14333486
-0.14298238
0.57835283
0.00086590997
-0.15519142
-0.14336177
-0.14308843
-0.15500279
0.010851673
0.0017698955
0.012395485
0.0018900798
-0.0032218107
0.58324067
-0.57501708
0.005263907
0.0021298045
0.58590816
0.0046425847
-0.57784521
-0.5766033
-0.57112093
0.0066967909
0.015022492
-0.57565173
0.0029047875
0.0051335906
-0.0054273614
0.0032713436
-0.14373492
-0.14461588
-0.14324757
-0.14254464
0.0044526782
0.0026818513
-0.14360747
-0.1449168
-0.14403688
-0.14280096
0.0054805118
0.0016458356
-0.14341391
-0.14381934
-0.14298739
-0.14251361
0.57216044
0.002651384
-0.14272076
-0.14345504
-0.14290732
-0.1420554
0.0050785652
0.0030314656
0.0061767396
-0.0053632779
0.57000038
0.0018100641
-0.56974576
0.0063300587
-0.01237654
-8.246132e-05
0.58270731
-0.57348178
-0.010797121
0.57934221
-0.57743362
-0.001597934
0.58440982
-0.0026179843
-0.57756208
-0.57580016
-0.57282842
0.0091774422
0.0003714991
-0.57602508
0.010781322
8.8616055e-05
9.6644276e-05
0.0076559306
-0.1548431
-0.14303524
-0.14298013
-0.15474153
8.2989093e-05
0.0075909214
-0.15505072
-0.14314917
-0.1548865
-0.14302555
0.00025628033
0.0068105645
-0.14484608
-0.144984
-0.14306193
-0.14288405
0.57626604
0.0069556702
0.00011953281
-0.14283246
-0.14291287
-0.14487219
-0.14481152
0.012483101
0.00013791199
0.57872331
0.0058251863
-0.57234459
0.00019674044
-0.56694032
0.00069281451
0.018652281
-0.56764555
0.00034276824
0.0079977128
-0.0019392676
-0.0062844958
-0.14135337
-0.14261162
0.00030545569
0.007466509
-0.14085675
-0.142372
-0.0058203625
-0.14211528
-0.1430146
-0.14259709
-0.14144466
0.0059583535
0.00083773195
-0.14329158
-0.14351139
-0.14259909
-0.14228142
-0.14333269
-0.14230949
0.00018381175
-0.14323003
-0.14214728
-0.00025716858
0.0011846344
-0.14283075
0.00012771672
-0.0015571245
-0.00027573785
-0.0015278653
-0.14289214
0.0011469922
-0.0004307779
-0.0014809252
0.0010835072
-0.14295893
-0.00040505558
-0.0014387325
-0.14303591
0.0010350087
-0.0007019524
-0.0014093824
0.00099624915
-0.14310931
-0.00067715894
-0.0013880747
-0.1432223
0.00097811327
-0.0018496759
0.0011232095
-0.1433061
-0.0015613964
-0.001350411
0.0010768494
-0.14309229
-0.13023734
0.0011764487
0.00019967832
-0.00026391807
-0.1620007
0.13200133
7.5554655e-05
-0.0089935223
-0.14672351
0.0012886521
-0.14374139
0.001382333
0.0017213467
-0.00052901078
0.00051853849
-0.14428949
0.00063412825
-0.14377333
0.00054700441
-0.00020285311
-0.14389468
0.00045793776
0.00030242532
-0.032374325
-0.1295975
0.00026856097
0.032353471
-0.032206611
-0.59156191
-0.023997211
0.024593032
-0.023981778
-0.032184318
0.024607121
-0.12959743
0.00027913662
0.00018239541
0.00031153978
-0.16227419
0.00033455962
-0.00039072723
-0.14393603
0.14389424
0.00030080302
0.00044325204
0.1449291
-0.14496807
0.00022879847
-0.00040541017
0.00044204132
0.00018196001
0.00012140167
-0.00028397652
0.00046891414
0.14389488
0.00022683917
-0.14418525
-2.70383e-05
0.14509534
0.00016629103
-0.14544876
-0.03216468
0.16321299
0.00010593688
-0.13116452
0.0010204425
0.00011510945
0.54831718
-0.54946467
0.032019648
-0.032301176
-0.032489341
0.53263178
-0.00076208095
-0.66474696
0.00057061471
0.0024722297
-0.53614942
0.0025615455
0.00013022223
-0.0010191831
-0.67091627
-8.57292e-05
0.54731632
-0.54787778
-0.032320251
0.032003678
0.032052103
-0.032256364
0.00017821884
-0.00046453852
-0.032566328
0.026088761
0.02617868
-0.032490677
0.00027961604
0.025993883
-0.032646128
-0.032533885
0.026115264
0.15581053
-0.13077544
0.00032035073
0.0016075162
0.0020907227
0.0076495996
-0.1550143
-0.14320523
-0.14412574
0.0074498178
0.00074945856
-0.15518493
-0.15500602
-0.14335848
-0.14309859
-0.0023010073
0.57841984
0.0010171587
0.0067022304
-0.14489772
-0.14519265
-0.14332051
-0.14297752
0.5800357
0.0069913218
-0.14618647
-0.14501112
-0.14314226
-0.14434793
0.0041877105
0.01228641
0.0017492846
0.012350757
-0.57737199
-0.0017358684
0.012248749
-0.0074816679
0.00011207249
0.0067304153
-0.14303964
-0.14496117
-0.1448371
-0.14287773
-0.00022156764
-0.14314719
-0.1550416
-0.15488886
-0.14304082
0.57604819
0.0074621041
-0.1430409
-0.15483441
-0.15474587
-0.14300738
-3.0494787e-05
0.010590584
-3.3023472e-05
-0.57622677
0.012232687
-3.6455712e-05
0.006763003
-0.14289348
-0.14484524
-0.14480435
-0.14284262
-2.9914398e-05
-0.00066545941
0.57212054
0.006107449
-0.14222294
-0.14326131
-0.1431838
-0.14209881
-3.2657217e-05
-0.0015344411
0.0057893416
0.57327285
-0.14253403
-0.14345976
-0.14324825
-0.14222075
-0.0026039927
0.57490189
0.0054899484
-0.14379332
-0.14339168
-0.14248028
-0.14295478
0.57779794
0.0054486763
-0.14490606
-0.14360143
-0.14278926
-0.14402263
0.58584004
0.0031453258
0.0046562038
-0.58315227
-0.57096414
-0.5765289
0.015131719
0.0052628116
0.0019828939
-0.0028537175
-0.57195975
0.0029047739
0.0062073684
-0.57559444
0.0051710155
0.0032098829
-0.14460432
-0.14323484
-0.14372078
-0.14252713
0.0044937579
0.0025492954
-0.14267125
-0.14341383
-0.14285762
-0.14199051
0.005124003
0.56927204
0.0017160903
-0.14291037
-0.14248043
-0.14198398
-0.14128057
0.0060058737
-0.0052985863
0.0016083877
0.0062632794
-0.00024084937
0.0056397666
-4.3670852e-05
-0.56691787
0.0077558005
-8.2559196e-05
-0.14242708
-0.1410971
-0.14221373
-0.14062705
0.0073243367
-5.3708057e-05
-0.0016080781
-0.00045875118
0.0015002268
-0.1420687
0.00020821954
-0.0011530412
-0.00031974787
-0.14249385
0.00013562155
-0.0015096567
-0.14277919
-0.00020668514
8.1174628e-05
-0.0012255711
-0.00014556626
5.3013271e-05
-0.14308501
-0.0025799256
-9.3585546e-05
-0.14342624
2.894437e-05
-0.0017825239
-6.3229382e-05
1.5420832e-05
-0.1437905
-0.026127896
-2.9597562e-05
-0.1304552
-4.2487751e-06
-0.0026013588
-2.9408074e-05
-0.54468039
-0.032447994
-0.032421404
0.026105333
-2.8152492e-05
-0.12885113
0.00062319779
-0.52630407
-2.5462477e-05
-1.9570707
0.13328541
-0.13463655
-0.13019163
-6.7840332e-05
-0.0012403088
0.13586706
-0.13415792
-0.12976006
0.13134283
-5.0862162e-05
-2.4783275
0.0012528083
-0.13180404
0.13350864
0.13626231
-0.13460729
-2.5401044
0.098073118
-0.096774585
-0.13050139
0.13202144
-2.6404845
-0.47533567
0.0011317915
0.00088128749
-0.0011678625
-9.4209868e-05
-0.66473804
0.52731954
0.00074128792
-0.0008985631
-0.65883152
0.00070429426
0.0005728356
-4.0891964e-05
-0.57740923
3.0553957e-05
0.032525658
0.023894531
-0.023692635
-0.032257157
-0.48131927
0.0038637397
0.00041135525
-0.0036768094
-0.60476815
0.00010459008
0.02394097
-0.023755947
-0.032320052
0.03260489
-0.57683103
-0.00077985493
4.3333429e-05
0.54943572
0.032653644
0.032772829
-0.03256877
-0.032417486
-0.54903483
0.53206898
-0.00068430243
-0.66486713
0.00058427293
0.00081921805
-0.53495835
0.00085274343
3.5915329e-05
0.00078328672
-0.00011803541
-0.67091519
0.54784735
3.372636e-05
0.032654398
0.032644852
-0.032425731
-0.032403581
-0.54752439
-0.00010657447
0.00011660267
-0.03228089
0.032647581
0.032676633
-0.03223104
0.032770071
-0.032451023
-0.032265341
0.032660548
-0.0001668664
0.16396952
-0.13136054
9.2048167e-05
0.00023591383
-0.00022842589
-0.13112684
0.00019263277
-0.023541111
-0.1186462
0.00061758772
-0.51352448
-0.023576856
-0.032784435
0.032858514
-0.00049524787
0.023839093
0.00090323373
0.03313748
-0.03271198
-0.023498108
-0.64986649
0.16526253
0.0006257476
-0.11852285
0.00041463064
-0.00026174549
-0.00039141653
0.00016577437
-0.16376198
-4.9530825e-05
-9.7202468e-06
0.14601146
-0.14610758
0.00019323401
7.8372742e-05
0.1317413
-0.16482462
-0.00010224438
1.2105406e-05
0.0004450958
0.00023937042
9.9160642e-05
-6.8610948e-05
-0.14574136
0.00028705434
0.00014271368
-0.032711222
-0.13176678
0.00027477216
-0.49576182
-0.032007328
-0.03265529
0.032282456
0.033168072
0.032907763
-0.032608547
-0.032046372
0.032403706
-0.032286217
-0.56153011
-0.00042533135
-0.13172406
0.00022129932
0.16465709
0.00017876901
-0.13167399
0.0001872627
0.00044212117
0.00014124049
-0.00019388237
-0.16477545
-0.00014302494
-0.16519176
0.13107602
7.8471247e-05
-7.1680113e-05
-0.16354589
0.00013713553
0.0001964255
-0.14602411
8.9852044e-05
0.00015107736
8.3980563e-05
5.1740923e-05
-0.14594012