/*--------------------------------*- C++ -*----------------------------------*\
  =========                 |
  \\      /  F ield         | OpenFOAM: The Open Source CFD Toolbox
   \\    /   O peration     | Website:  https://openfoam.org
    \\  /    A nd           | Version:  7
     \\/     M anipulation  |
\*---------------------------------------------------------------------------*/
FoamFile
{
    version     2.0;
    format      ascii;
    class       volScalarField;
    location    "200";
    object      T;
}
// * * * * * * * * * * * * * * * * * * * * * * * * * * * * * * * * * * * * * //

dimensions      [0 0 0 1 0 0 0];

internalField   nonuniform List<scalar> 
25278
(
299.99593
299.99549
299.99672
299.99664
299.99888
299.99526
299.99432
299.99585
299.99458
299.99007
299.99197
299.99422
299.9945
299.99624
300.01207
299.9968
299.99554
300.00504
300.0107
300.00011
299.99546
299.99507
299.99522
299.99221
299.98851
299.99209
299.99515
299.99455
299.99758
299.99299
299.99338
299.9988
300.001
299.99954
299.99306
299.99516
299.99123
299.99131
299.99571
299.99645
299.99604
299.99109
299.9912
299.98654
299.98826
299.98867
299.99052
299.9894
299.9886
299.99408
299.9947
300.00089
300.00577
300.00414
299.99654
299.99171
299.99233
299.99746
299.99934
299.99777
299.99199
299.99304
299.9941
299.99281
299.99795
299.99827
299.99311
299.99466
300.00097
300.00032
300.00718
300.00521
300.00211
299.9994
299.9981
299.99423
299.99295
299.99288
299.99495
299.99927
300.00313
300.01252
300.0052
300.01193
300.00103
300.00595
300.02205
300.05969
300.04374
300.0267
300.02164
300.03673
300.04246
300.07176
300.06485
300.03775
300.03064
300.01674
300.01065
300.0221
300.02996
300.05636
300.04593
300.02238
300.03666
300.04511
300.05298
300.10555
300.1116
300.14607
300.07369
300.06646
300.1396
300.12958
300.09747
300.08676
300.11661
300.04775
300.05689
300.05863
300.01365
300.00149
299.99899
300.04765
300.07693
300.11518
300.1469
300.0745
300.02333
300.0064
300.00403
299.99998
300.00765
300.01497
300.04753
300.06252
300.05685
300.06769
300.1415
300.11076
300.10475
300.13304
300.12224
300.05026
300.04257
300.04971
300.03588
300.04246
300.07122
300.04276
300.01547
300.03053
300.02604
300.02122
300.00821
300.01555
300.02861
300.05501
300.0966
300.21588
300.35797
300.34505
300.20205
300.08453
300.03519
300.04264
300.05064
300.04295
300.10636
300.11672
300.09381
300.20016
300.31076
300.32596
301.18546
300.89005
300.33446
300.34029
300.8869
301.18453
300.33441
300.3173
300.20957
300.10362
300.06396
300.03636
300.02924
300.0439
300.09633
300.11779
300.12722
300.05942
300.01539
300.05044
300.05235
300.0366
300.10361
300.34654
301.51056
301.51238
300.33627
300.09103
300.02738
300.02124
300.01031
300.00343
299.99951
299.99754
299.99879
299.99324
299.99501
300.0009
299.99583
299.99078
299.991
299.991
299.99552
299.99613
299.99073
299.98603
299.98713
299.98696
299.98933
299.99021
299.98608
299.98188
299.98222
299.984
299.98844
299.98843
299.98445
299.98207
299.98086
299.9835
299.98792
299.98787
299.98828
299.98883
299.99539
300.00027
299.99398
299.9964
300.00431
299.99746
299.99141
299.99137
299.99208
299.99752
299.99922
299.99251
299.99395
299.99281
299.99498
300.00165
300.00712
299.99836
300.00073
300.00236
299.99933
299.99367
299.99531
299.98836
299.98726
299.9863
299.98584
299.97992
299.98298
299.98276
299.98816
299.98862
299.98851
299.98208
299.9828
299.98006
299.98092
299.97884
299.98039
299.97677
299.97901
299.97693
299.97465
299.97261
299.9777
299.97667
299.9794
299.97438
299.97529
299.97139
299.97263
299.97444
299.97519
299.97718
299.98206
299.98633
299.98948
299.98708
299.98867
299.98475
299.98392
299.98141
299.98242
299.98744
299.98598
299.98463
299.9795
299.9802
299.98282
299.98692
299.99161
299.99125
299.99211
300.00138
300.00461
299.99389
299.99988
299.99425
299.99183
299.99091
299.99789
300.01024
300.00121
300.00412
299.999
299.99098
299.99317
299.99926
300.01333
300.00582
300.03024
300.01373
300.02982
300.01085
299.98915
299.98749
299.98648
299.98582
299.98589
299.98607
299.9811
299.98044
299.98202
299.98672
299.98534
299.98531
299.97916
299.97988
299.98445
299.97508
299.97578
299.97793
299.97383
299.97677
299.97544
299.97924
299.97656
299.97256
299.9694
299.97108
299.96774
299.97372
299.97846
299.97805
299.98527
299.98682
299.97777
299.97771
299.9831
299.98414
299.98563
299.97912
299.97475
299.97505
299.97726
299.97961
299.98224
299.98635
299.98545
299.98042
299.97953
299.98125
299.98599
299.98447
299.98434
299.9852
299.97916
299.97771
299.98516
299.98419
299.97689
299.97811
299.9731
299.97562
299.97845
299.97463
299.97616
299.97313
299.97162
299.9683
299.97035
299.96697
299.97298
299.97084
299.96491
299.9603
299.96363
299.96899
299.96572
299.97262
299.97119
299.97205
299.96814
299.97098
299.96867
299.96602
299.97002
299.96905
299.96837
299.97053
299.96651
299.96713
299.96462
299.96412
299.95933
299.96264
299.96324
299.9645
299.96759
299.9646
299.9615
299.95649
299.95972
299.95822
299.95767
299.95386
299.95439
299.9598
299.95705
299.96249
299.96754
299.96867
299.9641
299.96695
299.97033
299.97371
299.97771
299.98094
299.98609
299.99252
300.00169
300.02163
300.0095
299.99716
300.00244
299.99481
300.00498
300.01678
300.03822
300.02424
300.06876
300.05137
300.03046
300.0087
300.02085
300.05722
300.08342
300.10763
300.04864
300.0223
300.00774
300.03015
300.01046
300.00014
299.99763
300.00857
300.01355
300.02765
300.05744
300.09689
300.12203
300.11223
300.09052
300.03485
300.04529
300.0139
300.00963
300.00377
299.99875
299.99388
299.99022
299.98773
299.98572
299.98591
299.97705
299.97666
299.98712
299.98762
299.97686
299.97658
299.96893
299.97095
299.9709
299.97163
299.96483
299.96291
299.96612
299.97204
299.97418
299.97357
299.9759
299.9787
299.98072
299.98353
299.98828
299.98854
299.98337
299.98065
299.98706
299.98654
299.98699
299.99338
299.99573
300.00399
299.99842
300.01015
300.01735
300.0217
300.00944
299.99801
299.99925
300.00846
300.02467
300.01237
300.04381
300.0367
300.02326
300.01027
300.02493
300.06834
300.039
300.08513
300.05193
300.03189
300.06078
300.09512
300.10793
300.04775
300.05272
300.11452
300.11135
300.06841
300.03691
300.01525
300.00286
299.99538
299.99138
299.99055
299.98821
299.98901
299.98864
299.98289
299.98346
299.98443
299.98255
299.98081
299.97943
299.9814
299.97749
299.97935
299.97718
299.97528
299.97354
299.97848
299.98068
299.98015
299.97768
299.97241
299.97547
299.97613
299.9724
299.97342
299.97502
299.97553
299.97301
299.97179
299.97264
299.9708
299.96692
299.96879
299.97164
299.96959
299.96566
299.9683
299.96928
299.96601
299.96388
299.96776
299.96718
299.97116
299.9692
299.96985
299.9655
299.96501
299.96027
299.9633
299.9583
299.95885
299.9604
299.96518
299.96251
299.95759
299.96146
299.96435
299.96046
299.96274
299.95862
299.9541
299.95609
299.95228
299.95703
299.95245
299.95598
299.9615
299.96996
299.97711
299.97793
299.98861
299.99237
299.97944
299.97723
299.97874
299.99168
299.99739
299.98219
299.96844
299.96803
299.96879
299.97016
299.97022
299.97161
299.97857
299.9792
299.98029
299.98187
299.98185
299.98746
299.98626
299.98569
299.98611
299.98715
299.9798
299.98047
299.97576
299.97857
299.97413
299.97471
299.97158
299.97106
299.97103
299.97402
299.97861
299.98222
299.98801
299.98887
299.98275
299.98205
299.98113
299.98719
299.98844
299.99069
299.98871
299.981
299.98265
299.98477
299.98196
299.97979
299.98857
299.98665
299.98932
299.97906
299.98144
299.99253
299.99793
299.99254
299.98043
299.98436
299.97217
299.9716
299.97218
299.97365
299.96786
299.96828
299.96503
299.96488
299.96576
299.96815
299.97439
299.97605
299.97675
299.97907
299.97413
299.97144
299.96909
299.97571
299.97608
299.97368
299.97438
299.98509
299.99669
299.99116
299.99462
299.99768
299.99248
299.98956
299.98949
299.98778
299.98883
299.98344
299.98354
299.98133
299.98103
299.97548
299.98002
299.97735
299.97726
299.97998
299.97563
299.9718
299.97186
299.966
299.96614
299.96663
299.96736
299.96855
299.96966
299.96861
299.97165
299.96732
299.96819
299.96531
299.96413
299.96225
299.96367
299.96312
299.96785
299.96656
299.96156
299.96045
299.96575
299.96515
299.95978
299.96083
299.9613
299.96347
299.96807
299.97127
299.97124
299.96779
299.96329
299.96707
299.96694
299.96285
299.96304
299.96398
299.96048
299.95911
299.95366
299.95519
299.95959
299.95869
299.95886
299.95312
299.95845
299.95853
299.96336
299.96009
299.9676
299.9702
299.97048
299.97216
299.9745
299.9795
299.98337
299.98401
299.9902
299.99074
299.98414
299.98313
299.97764
299.97857
299.98008
299.975
299.97298
299.97362
299.97531
299.98044
299.98438
299.98457
299.9907
299.99171
299.98514
299.98484
299.97925
299.97955
299.9806
299.97549
299.97392
299.97388
299.97325
299.97202
299.97902
299.97735
299.9845
299.98625
299.99435
300.00106
299.99099
299.98796
299.97899
299.982
299.97304
299.97536
299.98429
299.98027
299.98749
299.98807
299.99594
300.00403
299.99431
299.99319
300.00446
300.00055
299.99527
299.98985
300.00207
300.0136
300.0045
299.9903
299.99798
299.98368
299.97851
299.96752
299.96417
299.96233
299.96196
299.95921
299.95978
299.95707
299.95864
299.96103
299.96415
299.96166
299.95866
299.96768
299.9695
299.96815
299.96728
299.95632
299.9551
299.9435
299.9478
299.95156
299.95554
299.95981
299.95549
299.95016
299.94548
299.95117
299.95583
299.95137
299.94709
299.93969
299.94535
299.95057
299.94646
299.94284
299.94949
299.9554
299.96076
299.95841
299.9578
299.95583
299.95665
299.9504
299.95252
299.95174
299.95483
299.94877
299.95349
299.94719
299.94782
299.94191
299.94747
299.95355
299.95296
299.94684
299.94106
299.94783
299.94849
299.94197
299.93507
299.93367
299.94102
299.93418
299.94185
299.93693
299.94485
299.94593
299.94943
299.95502
299.9543
299.94773
299.94124
299.94315
299.95034
299.9499
299.96034
299.96361
299.97681
299.98177
299.97438
299.97001
299.96956
299.98365
299.9985
300.00659
299.98997
299.99812
299.98875
300.00641
300.01886
300.03405
300.01655
299.99923
300.0116
300.03028
300.05646
300.03127
300.01209
299.98985
299.97872
299.97201
299.95583
299.95704
299.95927
299.95939
299.96727
299.96454
299.97365
299.96925
299.95572
299.95747
299.95509
299.94744
299.94873
299.95365
299.94897
299.95517
299.95557
299.95445
299.95371
299.94673
299.94756
299.94926
299.94168
299.94333
299.93525
299.93849
299.93022
299.93562
299.94034
299.9341
299.92793
299.92573
299.91754
299.92786
299.92223
299.93276
299.92978
299.93949
299.94198
299.94918
299.94203
299.93851
299.92838
299.93393
299.93357
299.94124
299.95157
299.94846
299.94561
299.94569
299.93641
299.93412
299.9263
299.92934
299.94133
299.94155
299.9457
299.92647
299.9344
299.93812
299.94359
299.94887
299.9517
299.9552
299.95923
299.96353
299.9678
299.97143
299.97178
299.96803
299.96401
299.96822
299.96756
299.96444
299.96577
299.96027
299.95727
299.96478
299.96222
299.96138
299.9721
299.98358
299.98892
299.97727
299.98657
299.97714
299.99229
300.00707
300.02192
300.00698
300.01236
300.03172
300.01627
300.00187
300.00961
299.99308
299.98157
299.98414
299.97663
299.9855
299.98088
299.98062
299.97936
299.98047
299.98121
299.98351
299.98863
299.98949
299.99546
300.00476
300.01039
300.03035
300.01634
300.02925
300.04217
300.05038
300.04242
300.03452
300.08397
300.10548
300.11639
300.09337
300.05558
300.04512
300.02128
300.01026
300.00529
300.02214
300.03684
300.08628
300.20131
300.3248
300.31066
300.19948
300.33493
300.88037
301.17045
300.34806
300.11762
300.12936
300.09665
300.04513
300.01264
300.05765
300.05146
300.1048
300.21067
300.34249
300.90153
301.18884
300.35918
300.2176
300.33635
300.31846
300.1274
300.11864
300.09812
300.04523
300.01594
300.05967
300.05281
300.03746
300.10552
300.35102
301.50196
301.4898
300.33296
300.08983
300.0267
300.00545
300.00078
299.99463
299.99395
299.99988
300.0036
299.99701
299.99759
299.99815
299.99301
299.99251
299.99358
299.99445
300.00078
299.99978
299.99859
299.99234
299.99194
299.99134
299.99605
299.99699
299.9913
299.986
299.98804
299.98864
299.98381
299.983
299.98001
299.97736
299.9777
299.98013
299.98338
299.98859
299.98893
299.98802
299.98729
299.98074
299.97552
299.97562
299.97195
299.97228
299.97306
299.9782
299.98038
299.98334
299.98825
299.98644
299.98036
299.98056
299.9836
299.98103
299.97915
299.97438
299.97647
299.97565
299.97104
299.97118
299.97151
299.97183
299.97212
299.97218
299.97204
299.96824
299.96839
299.96478
299.9645
299.96881
299.96911
299.96759
299.96695
299.96132
299.96188
299.96064
299.95941
299.96707
299.96841
299.97328
299.97051
299.96612
299.95561
299.95605
299.97125
299.96251
299.96649
299.95507
299.95567
299.98136
300.00706
299.9928
300.00736
300.02686
300.04379
300.0597
300.04339
300.0869
300.05672
300.07963
300.11003
300.12708
300.11319
300.05667
300.0233
300.02741
300.00657
300.01722
300.04082
300.07502
300.06489
300.13115
300.14035
300.22696
300.2107
300.17945
300.12846
300.09086
300.05796
300.03589
300.01834
300.00552
299.99704
299.99091
299.97853
299.97721
299.9769
299.97778
299.97912
299.98463
299.98494
299.98639
299.98074
299.97903
299.97421
299.97467
299.97206
299.96675
299.96322
299.96985
299.96974
299.97168
299.97797
299.98555
299.98486
299.98518
299.98655
299.97754
299.97916
299.97881
299.97946
299.98098
299.98695
299.98577
299.98696
299.98781
299.98141
299.98023
299.97467
299.97419
299.97721
299.97734
299.97288
299.96944
299.96581
299.96234
299.96242
299.96556
299.96907
299.97255
299.97966
299.98009
299.98288
299.98327
299.98926
299.98972
299.98885
299.98887
299.99524
299.99655
299.99576
299.99425
299.99616
299.99527
299.99531
299.99566
300.00221
299.99545
299.99985
300.00859
300.00321
299.99625
299.99419
299.99446
300.00009
300.0035
299.99657
299.99625
299.9944
299.99529
300.00185
300.00781
299.99994
300.00304
300.00188
299.99929
299.99409
299.99563
299.9897
299.98974
299.98968
299.98922
299.98158
299.98084
299.97462
299.97428
299.97922
299.97618
299.97037
299.97115
299.96512
299.96609
299.96734
299.97039
299.96571
299.96257
299.96072
299.96004
299.96194
299.96682
299.96525
299.96419
299.95855
299.9594
299.96152
299.96656
299.96977
299.96496
299.96473
299.96952
299.97246
299.97752
299.97796
299.9821
299.98869
299.98827
299.98137
299.98266
299.983
299.98983
299.98988
299.99311
299.99077
299.98877
299.98692
299.98881
299.99194
299.98152
299.9802
299.9729
299.97195
299.97056
299.97234
299.96349
299.966
299.96917
299.96971
299.97275
299.97328
299.97874
299.97659
299.97549
299.97436
299.98206
299.9846
299.99514
299.99901
299.98789
299.98411
299.97616
299.96854
299.96705
299.96549
299.97489
299.97792
299.9681
299.97079
299.97014
299.97153
299.97055
299.96554
299.96495
299.96957
299.96587
299.96602
299.96095
299.95854
299.96436
299.96328
299.95747
299.95077
299.95214
299.95405
299.95648
299.9503
299.95099
299.95354
299.95904
299.96248
299.95782
299.95619
299.96101
299.95716
299.95128
299.94821
299.95481
299.95317
299.95592
299.96023
299.95549
299.9499
299.94948
299.95538
299.96016
299.95581
299.95192
299.95088
299.95132
299.95305
299.95994
299.96824
299.96753
299.95712
299.95696
299.95931
299.96871
299.97878
299.98139
299.99527
300.00385
299.98689
299.98194
299.98762
299.9953
300.01635
300.02995
300.01273
300.00108
299.98619
299.98164
299.98569
299.99277
300.00923
300.02505
300.00528
299.99457
300.00715
300.0238
300.04995
300.07154
300.03802
300.01742
300.00121
299.9908
299.99628
300.01035
300.02749
300.0538
300.03519
300.01931
300.04686
300.07471
300.10018
300.11928
300.06459
300.03432
300.01861
300.00127
299.99098
299.98608
299.98394
299.98381
299.99067
299.99116
299.99249
299.9916
299.98469
299.9851
299.9788
299.97772
299.97943
299.97385
299.97457
299.98023
299.98081
299.9853
299.99222
300.00175
300.01183
300.03361
300.02996
300.01637
300.01585
300.00196
300.01188
300.02929
300.05967
300.06146
300.10622
300.13077
300.12383
300.05059
300.04741
300.11347
300.12797
300.10463
300.05142
300.02576
300.01056
300.02832
300.00792
299.99902
300.00079
300.01204
300.00713
300.019
300.0373
300.08202
300.06975
300.05136
300.08123
300.03609
300.02347
300.00452
300.00828
300.01246
300.01609
300.01926
300.02034
300.01995
300.01786
300.00462
300.00184
299.99496
299.99677
299.98774
299.99346
299.98327
299.98084
299.97796
299.97954
299.97159
299.97248
299.96713
299.96631
299.97036
299.96993
299.96602
299.96118
299.96087
299.95815
299.96402
299.96278
299.95683
299.95657
299.96251
299.96392
299.95815
299.95202
299.95181
299.95215
299.94503
299.94619
299.94474
299.94721
299.93937
299.94333
299.94428
299.94761
299.9413
299.94831
299.94655
299.93814
299.94494
299.94081
299.9325
299.93686
299.93544
299.93028
299.91975
299.92658
299.92877
299.93475
299.94386
299.95515
299.96816
299.97078
299.95455
299.95617
299.95575
299.97102
299.96892
299.9722
299.97049
299.96002
299.95866
299.96264
299.9622
299.9737
299.97766
299.98561
299.97655
299.95897
299.96139
299.98434
299.97563
299.98407
299.97641
299.99723
300.01094
300.02798
300.00903
300.03407
300.0707
300.09126
300.19548
300.15627
300.13343
300.25241
300.12927
300.15368
300.30773
300.49846
300.21224
300.22578
300.2405
300.18936
300.51263
300.54666
300.48403
301.07418
300.45955
300.21379
300.20812
300.3445
300.48563
300.48925
300.20158
300.2394
300.49297
301.82233
301.65856
300.98996
301.64839
301.86416
302.93207
302.64304
302.60359
301.68685
300.50107
300.18024
300.11222
300.05197
300.02422
300.00816
299.99889
299.99714
300.00639
300.02073
300.00817
300.01181
300.0429
300.03509
300.04664
300.10677
300.09297
300.10871
300.07409
300.04037
300.01685
300.00372
299.99569
299.9915
299.99055
299.98442
299.98392
299.99003
299.99073
299.98423
299.98492
299.98779
299.98671
299.99459
300.00195
299.99228
299.99397
299.98516
299.97629
299.97363
299.97376
299.97539
299.975
299.98001
299.97868
299.97315
299.9723
299.97456
299.97947
299.98331
299.98946
299.98848
299.9825
299.98196
299.98319
299.98977
299.9883
299.99094
299.99316
299.98504
299.983
299.98618
299.98953
299.99965
299.99585
299.99258
299.98896
299.98702
299.98776
299.99455
300.00414
300.02029
300.00099
299.99224
299.99674
300.00225
300.01589
300.00865
300.02318
300.03731
300.06724
300.08353
300.05875
300.02109
300.00817
300.0299
300.05039
300.02846
300.01223
300.0033
299.99843
299.99576
299.99528
299.99334
299.99517
299.99077
299.98885
299.98491
299.98686
299.98899
299.98979
299.99314
299.99479
299.99755
299.9986
300.0005
299.99489
299.99305
299.99113
299.99103
299.99068
299.99078
299.99555
299.99742
299.99409
299.99077
299.99075
299.99265
299.9914
300.00047
300.00944
300.00311
299.99934
300.01002
300.02923
300.00481
299.99343
299.99834
300.00932
299.99845
300.01248
300.00378
300.00068
299.99157
299.99109
299.99782
299.99912
299.99131
299.99301
299.98495
299.98416
299.98506
299.98573
299.9863
299.98619
299.98813
299.98412
299.98509
299.98744
299.98871
299.98732
299.98271
299.98147
299.978
299.98185
299.98017
299.9816
299.98288
299.98311
299.97999
299.9782
299.97622
299.97083
299.96948
299.96819
299.96736
299.96671
299.96643
299.96629
299.9663
299.96629
299.96624
299.96614
299.96601
299.96486
299.9649
299.95954
299.96079
299.96103
299.9596
299.95983
299.96493
299.96507
299.96002
299.96155
299.96136
299.95677
299.95603
299.95542
299.95357
299.95387
299.94751
299.94678
299.94971
299.95103
299.95254
299.94851
299.95436
299.95468
299.95711
299.95305
299.94899
299.94338
299.94251
299.94042
299.93889
299.94366
299.94623
299.94142
299.93684
299.92906
299.93181
299.93624
299.94797
299.94937
299.95989
299.96237
299.97074
299.96489
299.97987
299.99471
300.00014
300.01445
299.99548
299.99507
300.00616
300.00341
300.01422
300.03583
300.02224
300.02688
300.01391
299.99954
299.98369
299.98038
299.97443
299.97257
299.97952
299.98335
299.98059
299.97789
299.97771
299.97662
299.97875
299.974
299.97139
299.96941
299.97105
299.97175
299.96878
299.97733
299.976
299.97432
299.97568
299.97829
299.98178
299.98127
299.98686
299.98574
299.97985
299.98076
299.98101
299.97939
299.98694
299.98909
299.98006
299.98283
299.97437
299.96629
299.96806
299.9707
299.97366
299.97362
299.97786
299.97503
299.97039
299.97057
299.97382
299.97793
299.98095
299.98637
299.98602
299.98113
299.97928
299.97929
299.98485
299.98446
299.98461
299.98545
299.97832
299.97794
299.9771
299.97807
299.98658
299.9849
299.98736
299.9903
299.99434
299.99976
300.00492
300.01074
299.99887
299.99321
300.00498
300.01454
300.02998
300.01979
300.04156
300.05761
300.06688
300.05528
300.06375
300.12656
300.13683
300.12366
300.10996
300.09316
300.03865
300.00845
299.99198
299.98726
299.97563
299.97031
299.98162
299.99025
300.00013
299.98477
299.99336
300.01919
300.03167
300.03282
300.02056
300.00439
299.98692
300.00357
300.03142
300.06447
300.02486
300.03986
300.05038
300.12198
300.09574
300.07247
300.0371
300.00507
299.98249
299.95949
299.94686
299.94571
299.93155
299.91134
299.92422
299.92368
299.92594
299.91514
299.92104
299.91134
299.92012
299.92824
299.9401
299.93838
299.94214
299.93096
299.92346
299.91277
299.9232
299.91904
299.92932
299.93832
299.94344
299.93651
299.94655
299.94876
299.93685
299.9433
299.93698
299.93372
299.9361
299.92585
299.92241
299.9277
299.91693
299.93018
299.92914
299.9428
299.93975
299.9211
299.92277
299.94617
299.94683
299.96577
299.9722
299.99863
300.02012
299.99849
299.98523
299.97813
299.96584
299.96904
299.97754
299.97053
299.98335
299.9943
300.01481
299.99279
299.97695
299.991
300.0205
300.04976
300.08008
300.0305
300.0028
299.98826
299.97524
299.98604
299.99262
299.97903
299.97307
299.96362
299.96154
299.9592
299.95713
299.96077
299.95552
299.95008
299.95148
299.95621
299.96188
299.96321
299.95725
299.96174
299.9663
299.96676
299.97094
299.97142
299.97519
299.97959
299.97932
299.97601
299.97033
299.96406
299.9625
299.95664
299.95846
299.95891
299.96436
299.96266
299.9569
299.95041
299.94999
299.94976
299.95
299.94202
299.94297
299.94389
299.94596
299.94858
299.95166
299.95514
299.9587
299.96683
299.97766
299.98196
299.98617
299.98798
299.99183
299.99297
299.9946
299.99307
299.99086
299.99159
299.98969
299.98588
299.98752
299.98533
299.98173
299.98051
299.9834
299.98582
299.98342
299.98161
299.97892
299.97694
299.97481
299.97887
299.98022
299.97707
299.98084
299.98174
299.98576
299.98615
299.98575
299.98247
299.98184
299.98495
299.98801
299.99078
299.98849
299.98866
299.98941
299.99128
299.99208
299.98913
299.98815
299.99052
299.99198
299.98881
299.98954
299.98832
299.99108
299.99298
299.99516
299.99367
299.99179
299.99121
299.99298
299.99501
299.99382
299.99258
299.9933
299.99152
299.99457
299.99673
299.9943
299.99165
299.98856
299.98559
299.98537
299.98539
299.9842
299.98607
299.98425
299.98561
299.98786
299.98651
299.984
299.98098
299.98219
299.98107
299.97957
299.97554
299.97739
299.97948
299.97796
299.98183
299.9834
299.98403
299.98677
299.98669
299.98639
299.98639
299.98234
299.98107
299.97683
299.97358
299.97168
299.97278
299.97106
299.96977
299.96575
299.96785
299.96945
299.96747
299.97016
299.973
299.97445
299.97702
299.9759
299.97363
299.97488
299.97164
299.96907
299.97259
299.96712
299.96423
299.96618
299.96353
299.96126
299.95609
299.9593
299.96208
299.95906
299.96343
299.96699
299.97136
299.97299
299.97068
299.96554
299.9625
299.96819
299.97223
299.97631
299.97318
299.97102
299.97206
299.96872
299.96718
299.96484
299.9689
299.97011
299.96649
299.96909
299.97086
299.97368
299.97615
299.97401
299.97246
299.97477
299.97196
299.97078
299.97545
299.97925
299.98194
299.97769
299.97273
299.97116
299.97652
299.97828
299.97414
299.97925
299.97995
299.97684
299.97748
299.97844
299.98054
299.97881
299.9871
299.98467
299.98427
299.98089
299.98156
299.98101
299.98029
299.97619
299.97703
299.97593
299.97215
299.96832
299.96547
299.96358
299.96031
299.96252
299.95806
299.96143
299.96487
299.96992
299.96777
299.97017
299.96591
299.96237
299.95866
299.96195
299.95768
299.96061
299.95482
299.95822
299.95414
299.95035
299.94377
299.94872
299.95312
299.94857
299.95541
299.95964
299.96645
299.96892
299.97482
299.97613
299.97743
299.97866
299.97933
299.98249
299.98224
299.98157
299.98183
299.97792
299.97679
299.97919
299.98749
299.98663
299.98511
299.98837
299.98883
299.98527
299.98562
299.98519
299.98901
299.98959
299.99088
299.98999
299.98556
299.98141
299.9812
299.98104
299.98114
299.97525
299.97421
299.97792
299.98871
299.98681
299.986
299.99142
299.99261
299.98699
299.98616
299.98696
299.98614
299.98559
299.98689
299.98686
299.98608
299.98882
299.99135
299.99186
299.98968
299.98924
299.9887
299.98936
299.99099
299.99178
299.98916
299.99043
299.98936
299.99244
299.9937
299.99096
299.99082
299.99473
299.99487
299.99318
299.99052
299.99139
299.99427
299.99612
299.99483
299.99178
299.99301
299.99497
299.99329
299.99353
299.99885
299.99923
299.99693
299.99901
299.99673
299.99813
299.99615
299.99859
300.00064
300.00372
300.00152
300.00477
300.00216
299.99937
299.99674
299.99857
300.00156
299.9974
299.99526
299.99749
299.99703
299.9932
299.99034
299.99434
299.99859
299.99862
299.99627
299.99418
299.9924
299.98967
299.98747
299.9881
299.98837
299.98764
299.98404
299.98435
299.98487
299.9799
299.9805
299.98031
299.97447
299.97358
299.97487
299.97396
299.97538
299.9712
299.97383
299.97285
299.96944
299.96726
299.96872
299.96739
299.96268
299.96453
299.96279
299.96078
299.96575
299.96466
299.96623
299.96133
299.95923
299.95803
299.9636
299.96525
299.96015
299.96369
299.96472
299.96596
299.96744
299.96383
299.96002
299.95751
299.95508
299.95781
299.95217
299.95496
299.9599
299.96601
299.96864
299.96734
299.97008
299.96916
299.97215
299.96855
299.96761
299.97147
299.96839
299.96535
299.96625
299.96047
299.96201
299.95769
299.96452
299.96326
299.95575
299.94972
299.95593
299.95308
299.95153
299.95439
299.94763
299.95406
299.95917
299.95816
299.96291
299.96705
299.97326
299.97768
299.9808
299.98424
299.98076
299.98117
299.98548
299.98547
299.98554
299.98539
299.98524
299.98039
299.97725
299.97553
299.9759
299.97021
299.96984
299.97276
299.97831
299.97873
299.97479
299.97512
299.97564
299.9761
299.98041
299.9807
299.97995
299.97971
299.97468
299.97323
299.97949
299.97961
299.97962
299.97975
299.98572
299.98519
299.99063
299.98911
299.98964
299.99139
299.99371
299.99234
299.98616
299.98042
299.97358
299.96799
299.96562
299.95798
299.95278
299.9484
299.95432
299.94946
299.95321
299.9478
299.94301
299.93601
299.94295
299.94806
299.94241
299.93647
299.92838
299.93568
299.94193
299.95051
299.95471
299.95833
299.96601
299.96861
299.96387
299.96132
299.96354
299.96077
299.96299
299.96537
299.97253
299.98
299.98068
299.98074
299.97241
299.97168
299.97136
299.97199
299.97281
299.98118
299.9811
299.9812
299.97368
299.97264
299.98166
299.98995
299.98826
299.99483
299.99299
299.99514
299.98789
299.98941
299.98747
299.99474
299.99669
299.98898
299.98709
299.9882
299.98636
299.98517
299.98446
299.98404
299.98794
299.98889
299.98951
299.98836
299.98405
299.98466
299.98563
299.99145
299.99047
299.99265
299.99415
299.98722
299.97971
299.97198
299.97267
299.97166
299.96339
299.95566
299.94933
299.94506
299.93755
299.94302
299.9384
299.94574
299.94106
299.93232
299.9221
299.92906
299.93602
299.9284
299.91956
299.91672
299.90744
299.89844
299.91356
299.90842
299.89012
299.90369
299.9069
299.89282
299.9014
299.91606
299.92234
299.93782
299.95625
299.96144
299.98614
299.99754
299.96627
299.95925
299.96699
299.99705
300.02673
300.05408
300.08822
300.05921
300.0907
300.05639
300.03134
300.06065
300.098
300.14008
300.19787
300.13098
300.09186
300.05325
300.09013
300.0524
300.08351
300.13272
300.19226
300.14305
300.21534
300.14832
300.09101
300.05543
300.02799
300.00213
299.97242
299.99316
300.00842
299.98042
300.01927
300.04446
300.01588
299.97679
299.99919
299.98328
300.01888
300.0469
300.08552
300.02139
299.99411
300.02738
300.0557
300.14127
300.24085
300.17321
300.1158
300.0679
300.10276
300.15871
300.25546
300.1621
300.20002
300.28999
300.33529
300.33865
300.21317
300.24902
300.32908
300.28291
300.34178
300.5022
300.42365
300.28476
300.23969
300.38752
300.53929
300.33417
300.40923
300.28523
300.39914
300.27129
300.18706
300.1179
300.09027
300.14779
300.23144
300.14078
300.16461
300.26796
300.39472
300.35829
300.22638
300.32437
300.5037
300.59527
300.76534
300.46954
300.31695
300.19761
300.1943
300.10137
300.0497
300.06001
300.02468
300.0051
299.99212
300.00919
300.04202
300.02213
300.00941
300.05398
300.07942
300.10271
300.11996
300.13653
300.07443
300.0408
300.04375
300.02772
300.00728
299.99506
299.98894
299.98599
299.99333
299.99395
299.99274
299.98583
299.98657
299.98022
299.97964
299.97327
299.97509
299.97561
299.98133
299.98167
299.98215
299.98406
299.98363
299.99008
299.9902
299.98918
299.98305
299.98219
299.97614
299.97069
299.97131
299.97658
299.98008
299.97583
299.97652
299.98054
299.98438
299.98257
299.98309
299.98481
299.99022
299.99023
299.98929
299.9901
299.98408
299.98202
299.98129
299.97814
299.97716
299.97235
299.97374
299.97755
299.97891
299.98382
299.98522
299.98582
299.98843
299.99042
299.99344
299.99372
299.99463
300.00053
300.00463
299.99848
300.00058
299.99488
299.99452
299.99543
299.99772
299.99983
300.00318
300.0051
300.01672
300.01308
300.00219
299.99713
299.99615
299.99869
300.00871
299.99944
300.00419
300.01186
300.02508
300.04103
300.04538
300.02748
300.01254
300.02564
300.01529
300.00914
300.01751
300.00809
300.00238
299.9953
299.99888
299.99387
299.98977
299.98826
299.98585
299.98194
299.98302
299.98042
299.97913
299.97547
299.97713
299.98056
299.98452
299.99035
299.98972
299.99157
299.99186
299.99221
299.99251
299.99281
299.99297
299.99296
299.9861
299.98681
299.99411
299.99394
299.98678
299.98624
299.9819
299.97628
299.97596
299.97421
299.97383
299.97321
299.97263
299.98067
299.98477
299.97447
299.97488
299.98525
299.98126
299.98954
299.99855
299.99791
300.00614
300.00675
299.99559
299.99514
299.98958
299.99858
300.00636
300.00476
299.99797
299.98915
299.9939
299.98384
299.98486
299.98139
299.98053
299.98064
299.97445
299.97337
299.9734
299.97459
299.97386
299.96475
299.9651
299.96524
299.96487
299.96543
299.96448
299.95828
299.96239
299.963
299.96715
299.96761
299.97193
299.96839
299.96782
299.96352
299.95991
299.95939
299.96468
299.96288
299.95726
299.9577
299.96323
299.96514
299.96553
299.968
299.97231
299.96881