/*--------------------------------*- C++ -*----------------------------------*\
  =========                 |
  \\      /  F ield         | OpenFOAM: The Open Source CFD Toolbox
   \\    /   O peration     | Website:  https://openfoam.org
    \\  /    A nd           | Version:  7
     \\/     M anipulation  |
\*---------------------------------------------------------------------------*/
FoamFile
{
    version     2.0;
    format      ascii;
    class       volScalarField;
    location    "50";
    object      rho;
}
// * * * * * * * * * * * * * * * * * * * * * * * * * * * * * * * * * * * * * //

dimensions      [1 -3 0 0 0 0 0];

internalField   nonuniform List<scalar> 
25201
(
1.1739267
1.1739185
1.1739268
1.1739187
1.1738972
1.1739041
1.1739131
1.1739176
1.1739085
1.1739009
1.1739085
1.1739039
1.1738988
1.1738917
1.1738989
1.1738889
1.1738821
1.1738833
1.173861
1.1738756
1.1738688
1.1738885
1.1738815
1.1738941
1.1738747
1.1738745
1.1738815
1.1738802
1.1738812
1.1738776
1.1738768
1.1738694
1.1738991
1.1738915
1.173883
1.1739005
1.1738881
1.173896
1.1739086
1.1739153
1.1738958
1.1739003
1.1738826
1.1739044
1.1739197
1.1739348
1.1739091
1.1738944
1.1738958
1.1738991
1.1739035
1.1739006
1.1739019
1.1739014
1.173899
1.1738976
1.1738907
1.1738916
1.1739
1.1739071
1.173893
1.1738967
1.1739028
1.1739047
1.1738992
1.1738972
1.1738974
1.1739012
1.1739063
1.17391
1.1739131
1.1739006
1.1738917
1.1739008
1.1739039
1.1739176
1.1739062
1.1739069
1.1739043
1.1738965
1.1738962
1.1738862
1.1739032
1.1739075
1.1739166
1.1739023
1.1739075
1.173893
1.1738834
1.1738945
1.1738938
1.1739202
1.173913
1.1739057
1.1738981
1.1738754
1.1738591
1.1738845
1.1739137
1.1738944
1.1739054
1.1739236
1.1739308
1.1739152
1.173917
1.173937
1.173952
1.1739221
1.1739211
1.1739016
1.1739031
1.1739129
1.173949
1.1739394
1.1739744
1.1739391
1.1739496
1.1739829
1.1739854
1.1739535
1.1739244
1.1739584
1.1739543
1.1739828
1.1740149
1.1739707
1.1739396
1.1739208
1.173894
1.1739069
1.1739137
1.1739185
1.1739363
1.1739313
1.1739244
1.1739152
1.1739071
1.1739027
1.1738964
1.1738902
1.1738975
1.1739028
1.1739073
1.1738927
1.173891
1.1739
1.1739016
1.1738989
1.1739034
1.1738972
1.1738993
1.1739047
1.1739066
1.1739015
1.1738975
1.173897
1.1739006
1.1738953
1.1738909
1.1739008
1.1739138
1.1739003
1.1739022
1.1738955
1.1738853
1.1738956
1.1739037
1.1739072
1.1739313
1.1739202
1.1739168
1.1739075
1.1739094
1.1739007
1.1739064
1.1739114
1.1739093
1.1739069
1.1739301
1.1739284
1.1739426
1.1739189
1.1739237
1.17395
1.1739426
1.1739727
1.1739467
1.1739582
1.1739777
1.1740061
1.173972
1.1739439
1.1739299
1.1739066
1.1739203
1.1738933
1.1738817
1.173985
1.1739577
1.1739232
1.173914
1.1739169
1.1739367
1.1739125
1.1739043
1.1739298
1.1739527
1.1739519
1.1739218
1.1739543
1.173983
1.1740154
1.1739708
1.1739749
1.1739675
1.1739223
1.1739187
1.1739268
1.1738948
1.1738808
1.1738814
1.1738828
1.1738928
1.1738779
1.1738784
1.1738961
1.1739004
1.1739198
1.1739047
1.1739
1.1739157
1.1739093
1.1738965
1.1738888
1.1738708
1.1738846
1.1739014
1.173894
1.1738892
1.1738827
1.1727585
1.173283
1.1739008
1.1742717
1.1746099
1.1749769
1.1749173
1.1747873
1.1745652
1.1743801
1.1746469
1.1746761
1.1747128
1.174734
1.1747302
1.1746554
1.1746519
1.1746493
1.1746455
1.1746437
1.1745107
1.1745108
1.1745108
1.174511
1.1745181
1.1744247
1.1744185
1.1744185
1.1744189
1.1744196
1.1743344
1.1743342
1.1743339
1.174334
1.1743396
1.1742714
1.1742662
1.1742661
1.1742663
1.1742666
1.1742091
1.1742089
1.1742088
1.1742089
1.1742133
1.1741648
1.1741611
1.174161
1.1741611
1.1741614
1.1741208
1.1741206
1.1741205
1.1741206
1.1741237
1.1740889
1.1740861
1.1740861
1.1740862
1.1740864
1.174057
1.1740569
1.1740568
1.1740569
1.1740592
1.1740338
1.1740315
1.1740314
1.1740314
1.1740316
1.1740099
1.1740099
1.1740099
1.17401
1.1740119
1.1739929
1.173991
1.1739909
1.1739908
1.1739908
1.1739742
1.1739743
1.1739745
1.1739747
1.1739762
1.1739615
1.1739598
1.1739594
1.173959
1.1739588
1.1739457
1.1739462
1.1739467
1.173947
1.1739484
1.1739366
1.1739352
1.1739347
1.1739341
1.1739336
1.1739228
1.1739234
1.1739241
1.1739246
1.1739258
1.1739163
1.1739148
1.1739144
1.1739137
1.1739132
1.1739043
1.1739049
1.1739055
1.1739059
1.1739073
1.1738982
1.1738966
1.1738958
1.1738947
1.1738937
1.1738854
1.1738865
1.1738877
1.1738886
1.1738899
1.1738821
1.1738807
1.17388
1.1738789
1.1738779
1.1738703
1.1738714
1.1738724
1.1738731
1.1738744
1.173866
1.1738646
1.1738638
1.1738625
1.1738612
1.1738521
1.1738541
1.1738559
1.173857
1.1738583
1.1738559
1.173854
1.1738539
1.1738537
1.1738532
1.1738678
1.1738629
1.1738567
1.1738531
1.1738534
1.1738369
1.1738356
1.1738366
1.1738381
1.173839
1.17384
1.1738401
1.1738448
1.1738529
1.1738595
1.1738874
1.1738769
1.1738642
1.1738569
1.1738554
1.1738572
1.1738565
1.1738586
1.1738624
1.1738655
1.1738429
1.1738473
1.173852
1.1738549
1.1738574
1.1738653
1.1738629
1.1738604
1.173856
1.1738518
1.1738611
1.1738648
1.1738688
1.1738711
1.1738739
1.1738817
1.1738793
1.173877
1.1738732
1.1738698
1.1738774
1.1738809
1.1738848
1.1738871
1.1738894
1.173898
1.173896
1.1738943
1.1738915
1.173889
1.1739018
1.173903
1.1739044
1.1739053
1.173907
1.1739159
1.1739147
1.1739142
1.1739136
1.1739131
1.173922
1.1739227
1.1739235
1.1739241
1.1739253
1.1739363
1.1739348
1.1739343
1.1739337
1.1739333
1.1739448
1.1739453
1.1739458
1.1739462
1.1739479
1.173961
1.1739591
1.1739589
1.1739586
1.1739584
1.1739728
1.173973
1.1739733
1.1739735
1.1739754
1.173992
1.1739898
1.1739897
1.1739897
1.1739898
1.1740081
1.1740081
1.1740082
1.1740083
1.1740106
1.1740323
1.1740296
1.1740295
1.1740296
1.1740298
1.174054
1.174054
1.174054
1.174054
1.174057
1.1740864
1.1740827
1.1740827
1.1740828
1.1740831
1.174116
1.174116
1.1741159
1.174116
1.1741201
1.1741606
1.1741554
1.1741554
1.1741555
1.1741559
1.1742015
1.1742013
1.1742012
1.1742013
1.1742073
1.1742639
1.1742566
1.1742565
1.1742568
1.1742572
1.174321
1.1743208
1.1743205
1.1743205
1.1743291
1.1744108
1.1744007
1.1744008
1.1744014
1.1744023
1.1744869
1.1744866
1.1744864
1.1744865
1.1744983
1.174625
1.1746135
1.1746121
1.1746103
1.1746097
1.1746513
1.1746666
1.1746863
1.174698
1.1747049
1.1749148
1.1748358
1.1747785
1.174683
1.1745979
1.1745654
1.1746776
1.1747791
1.1748373
1.1748546
1.1753535
1.1674597
1.1674722
1.1673428
1.1671859
1.1749772
1.175084
1.1751835
1.1752404
1.1752511
1.1751581
1.1750911
1.175037
1.1749459
1.1748631
1.1748206
1.1748345
1.1748531
1.1748636
1.174864
1.1747314
1.1747266
1.1747259
1.1747246
1.174724
1.1745644
1.1745641
1.1745638
1.1745637
1.1745714
1.1744639
1.1744569
1.174457
1.1744575
1.1744582
1.1743616
1.1743613
1.1743609
1.1743608
1.174367
1.1742931
1.1742875
1.1742875
1.1742878
1.1742881
1.1742244
1.1742242
1.174224
1.174224
1.1742285
1.1741773
1.1741731
1.174173
1.1741732
1.1741734
1.1741296
1.1741294
1.1741293
1.1741293
1.1741326
1.1740965
1.1740933
1.1740932
1.1740933
1.1740935
1.1740622
1.1740621
1.174062
1.174062
1.1740646
1.1740386
1.1740361
1.174036
1.1740361
1.1740362
1.1740133
1.1740133
1.1740133
1.1740133
1.1740153
1.173996
1.173994
1.173994
1.173994
1.1739941
1.1739769
1.1739769
1.1739769
1.173977
1.1739786
1.173964
1.1739623
1.1739622
1.1739621
1.1739622
1.1739488
1.1739489
1.173949
1.1739492
1.1739505
1.173939
1.1739376
1.1739374
1.1739372
1.1739371
1.1739263
1.1739266
1.1739268
1.173927
1.1739283
1.1739188
1.1739173
1.1739171
1.1739168
1.1739167
1.1739044
1.1739054
1.1739065
1.1739072
1.1739088
1.173899
1.1738973
1.1738955
1.1738926
1.17389
1.1738775
1.1738812
1.1738854
1.1738879
1.1738898
1.1738818
1.1738798
1.1738772
1.1738728
1.1738689
1.17386
1.1738641
1.1738687
1.1738714
1.1738736
1.173865
1.173863
1.1738601
1.173855
1.1738503
1.1738415
1.1738464
1.1738515
1.1738546
1.173857
1.1738571
1.1738551
1.173857
1.1738603
1.1738629
1.1738855
1.1738754
1.1738629
1.1738558
1.1738558
1.1738426
1.1738428
1.1738472
1.1738547
1.173861
1.1738257
1.1738257
1.1738253
1.1738249
1.1738252
1.1738266
1.1738265
1.1738259
1.1738254
1.1738255
1.1738435
1.1738428
1.1738465
1.1738527
1.1738579
1.1738669
1.1738621
1.1738557
1.1738521
1.1738545
1.1738587
1.1738567
1.1738588
1.1738624
1.1738649
1.1738475
1.173851
1.1738544
1.1738564
1.1738581
1.1738649
1.1738638
1.1738617
1.1738582
1.1738549
1.1738634
1.1738663
1.1738697
1.1738717
1.1738731
1.1738812
1.1738801
1.1738781
1.1738748
1.173872
1.1738799
1.1738827
1.1738859
1.1738878
1.1738891
1.1738985
1.1738973
1.173896
1.1738938
1.1738921
1.1739039
1.173905
1.1739061
1.1739068
1.1739082
1.1739183
1.1739171
1.1739169
1.1739167
1.1739166
1.173926
1.1739263
1.1739266
1.1739268
1.1739279
1.1739388
1.1739376
1.1739375
1.1739373
1.1739372
1.1739485
1.1739487
1.1739489
1.1739491
1.1739502
1.1739638
1.1739624
1.1739623
1.1739623
1.1739623
1.1739767
1.1739768
1.1739769
1.173977
1.1739784
1.1739961
1.1739943
1.1739942
1.1739944
1.1739946
1.1740133
1.1740133
1.1740133
1.1740134
1.1740152
1.1740386
1.1740364
1.1740363
1.1740364
1.1740366
1.1740623
1.1740622
1.1740621
1.1740622
1.1740645
1.1740967
1.1740938
1.1740938
1.1740939
1.1740942
1.1741299
1.1741298
1.1741297
1.1741297
1.1741328
1.1741779
1.174174
1.174174
1.1741742
1.1741745
1.1742255
1.1742253
1.1742252
1.1742252
1.1742294
1.1742946
1.1742895
1.1742895
1.1742897
1.17429
1.1743636
1.1743636
1.1743636
1.1743636
1.1743693
1.1744687
1.1744621
1.174462
1.1744619
1.1744621
1.1745719
1.1745723
1.1745727
1.174573
1.1745802
1.1747522
1.1747475
1.1747484
1.1747497
1.1747514
1.1749754
1.1749571
1.1749384
1.1749269
1.1749248
1.1753336
1.175398
1.1754712
1.175593
1.1757034
1.1765375
1.1762685
1.1759716
1.1757936
1.1755721
1.1743799
1.1740074
1.1735674
1.1728221
1.1721782
1.1745463
1.1747183
1.1749335
1.1750579
1.1750545
1.1747627
1.1747618
1.174742
1.1747068
1.1746758
1.174679
1.174681
1.1746849
1.1746873
1.1746899
1.1745423
1.1745345
1.174534
1.1745335
1.174533
1.1744375
1.1744373
1.1744372
1.1744373
1.1744433
1.1743535
1.1743475
1.1743473
1.1743474
1.1743475
1.1742777
1.1742775
1.1742774
1.1742775
1.1742822
1.1742216
1.1742173
1.1742172
1.1742173
1.1742175
1.174168
1.1741679
1.1741677
1.1741678
1.1741713
1.1741289
1.1741258
1.1741257
1.1741259
1.1741262
1.1740905
1.1740904
1.1740903
1.1740904
1.174093
1.1740624
1.1740599
1.1740598
1.1740598
1.1740599
1.1740346
1.1740345
1.1740344
1.1740344
1.1740365
1.174014
1.1740119
1.1740118
1.1740118
1.174012
1.1739928
1.1739928
1.1739928
1.1739929
1.1739947
1.1739778
1.1739761
1.1739759
1.1739759
1.173976
1.1739613
1.1739614
1.1739615
1.1739616
1.1739631
1.17395
1.1739485
1.1739484
1.1739483
1.1739483
1.1739367
1.1739368
1.1739369
1.1739371
1.1739384
1.1739279
1.1739264
1.1739262
1.1739261
1.173926
1.1739165
1.1739166
1.1739168
1.1739169
1.1739182
1.173909
1.1739078
1.1739076
1.1739075
1.1739073
1.1738986
1.1738989
1.1738992
1.1738994
1.1739003
1.173892
1.1738909
1.1738907
1.1738903
1.17389
1.1738817
1.1738822
1.1738827
1.173883
1.173884
1.173876
1.1738748
1.1738744
1.1738738
1.1738731
1.1738648
1.1738658
1.1738665
1.1738669
1.1738682
1.1738606
1.1738584
1.1738579
1.1738571
1.1738559
1.173849
1.17385
1.1738504
1.1738508
1.1738536
1.1738461
1.1738435
1.1738433
1.1738431
1.1738426
1.173835
1.1738355
1.1738357
1.1738358
1.173836
1.1738231
1.1738231
1.1738232
1.173823
1.1738226
1.1738289
1.1738282
1.1738267
1.1738257
1.1738258
1.1738441
1.1738435
1.1738477
1.1738548
1.1738608
1.1738695
1.1738641
1.1738568
1.1738526
1.1738551
1.1738589
1.173857
1.1738593
1.1738634
1.1738663
1.1738474
1.1738509
1.1738542
1.1738562
1.173858
1.1738645
1.1738632
1.1738609
1.173857
1.1738534
1.1738609
1.1738645
1.1738685
1.173871
1.1738725
1.1738806
1.1738793
1.1738769
1.1738729
1.1738695
1.173877
1.1738805
1.1738846
1.173887
1.1738885
1.1738978
1.1738965
1.1738947
1.1738918
1.1738894
1.1739018
1.1739033
1.173905
1.1739061
1.1739076
1.1739178
1.1739166
1.1739161
1.1739155
1.1739151
1.1739249
1.1739255
1.173926
1.1739264
1.1739275
1.1739384
1.1739373
1.1739371
1.1739368
1.1739366
1.1739482
1.1739484
1.1739487
1.1739489
1.17395
1.1739635
1.1739622
1.1739621
1.173962
1.1739621
1.1739764
1.1739765
1.1739766
1.1739767
1.1739782
1.1739956
1.1739938
1.1739937
1.1739937
1.1739938
1.174013
1.1740129
1.1740129
1.174013
1.1740148
1.1740381
1.1740359
1.1740359
1.174036
1.1740362
1.1740617
1.1740616
1.1740615
1.1740616
1.1740639
1.1740958
1.174093
1.1740929
1.1740931
1.1740934
1.174129
1.1741289
1.1741288
1.1741288
1.1741318
1.1741766
1.1741728
1.1741728
1.174173
1.1741733
1.174224
1.1742238
1.1742236
1.1742236
1.1742278
1.1742927
1.1742876
1.1742877
1.1742881
1.1742887
1.1743633
1.1743627
1.174362
1.1743616
1.1743673
1.1744661
1.1744598
1.1744605
1.174462
1.1744634
1.1745762
1.1745741
1.1745716
1.1745701
1.1745771
1.1747477
1.1747433
1.1747468
1.1747527
1.1747584
1.1749711
1.1749493
1.1749257
1.1749114
1.174912
1.1753199
1.175378
1.1754541
1.1755817
1.1756994
1.176535
1.1762233
1.1758761
1.1756718
1.1755038
1.1750944
1.1751355
1.1750945
1.1750167
1.174942
1.1750314
1.175085
1.1751524
1.1751909
1.1751865
1.1748437
1.1748516
1.1748461
1.1748352
1.1748258
1.174721
1.1747194
1.1747186
1.174718
1.1747186
1.174561
1.1745537
1.1745541
1.1745549
1.1745555
1.1744497
1.1744491
1.1744485
1.1744482
1.1744542
1.1743608
1.1743543
1.1743544
1.1743546
1.174355
1.1742822
1.1742819
1.1742816
1.1742816
1.1742867
1.1742248
1.17422
1.17422
1.1742201
1.1742205
1.1741699
1.1741697
1.1741696
1.1741696
1.1741734
1.1741303
1.1741268
1.1741267
1.1741269
1.1741272
1.1740914
1.1740912
1.1740911
1.1740911
1.1740939
1.1740632
1.1740604
1.1740604
1.1740605
1.1740607
1.1740348
1.1740347
1.1740346
1.1740347
1.1740369
1.1740144
1.1740122
1.1740121
1.1740121
1.1740123
1.1739929
1.173993
1.173993
1.1739931
1.1739948
1.1739779
1.1739761
1.173976
1.1739759
1.1739759
1.1739609
1.1739611
1.1739613
1.1739615
1.1739629
1.1739498
1.1739483
1.173948
1.1739477
1.1739475
1.1739355
1.1739359
1.1739364
1.1739367
1.1739379
1.1739274
1.1739259
1.1739255
1.1739251
1.1739247
1.1739149
1.1739154
1.1739159
1.1739163
1.1739177
1.173908
1.1739062
1.1739053
1.173904
1.1739029
1.1738886
1.1738913
1.1738943
1.1738962
1.173898
1.173889
1.1738871
1.1738846
1.1738803
1.1738767
1.1738682
1.1738721
1.1738765
1.1738791
1.1738811
1.1738732
1.1738711
1.1738685
1.173864
1.1738601
1.1738505
1.1738551
1.1738599
1.1738627
1.1738645
1.1738573
1.173855
1.173852
1.1738472
1.1738427
1.1738648
1.173862
1.1738584
1.1738563
1.1738576
1.1738566
1.1738557
1.1738628
1.1738754
1.1738859
1.1738617
1.1738553
1.1738474
1.1738429
1.1738426
1.1738249
1.1738241
1.1738246
1.1738251
1.1738251
1.1738232
1.1738223
1.1738222
1.1738218
1.1738211
1.1738388
1.1738384
1.1738374
1.1738368
1.1738387
1.1738539
1.1738519
1.1738554
1.1738614
1.1738662
1.173852
1.173853
1.1738533
1.1738535
1.173856
1.1738582
1.1738569
1.1738558
1.173854
1.1738521
1.173861
1.1738624
1.1738638
1.1738647
1.1738655
1.1738738
1.1738728
1.173872
1.1738708
1.1738697
1.1738773
1.1738785
1.1738798
1.1738806
1.1738816
1.1738895
1.1738883
1.1738874
1.1738862
1.1738851
1.1738934
1.1738946
1.1738959
1.1738967
1.1738981
1.1739076
1.1739062
1.1739057
1.1739052
1.1739047
1.1739138
1.1739145
1.1739151
1.1739155
1.173917
1.1739267
1.1739253
1.1739248
1.1739243
1.1739238
1.1739345
1.173935
1.1739356
1.173936
1.1739374
1.1739492
1.1739478
1.1739475
1.1739471
1.1739469
1.1739602
1.1739604
1.1739607
1.1739609
1.1739624
1.1739772
1.1739756
1.1739754
1.1739753
1.1739753
1.1739919
1.173992
1.1739921
1.1739923
1.1739941
1.1740134
1.1740114
1.1740113
1.1740113
1.1740115
1.1740334
1.1740334
1.1740334
1.1740335
1.1740358
1.1740617
1.174059
1.174059
1.1740591
1.1740594
1.1740893
1.1740892
1.1740891
1.1740891
1.1740921
1.1741278
1.1741243
1.1741243
1.1741245
1.1741248
1.1741663
1.1741661
1.174166
1.1741661
1.1741702
1.1742203
1.1742154
1.1742154
1.1742156
1.174216
1.1742756
1.1742753
1.1742751
1.1742751
1.1742808
1.1743524
1.1743453
1.1743453
1.1743457
1.1743462
1.1744361
1.1744355
1.174435
1.1744348
1.1744426
1.1745427
1.1745329
1.174533
1.1745334
1.1745337
1.1746811
1.1746817
1.1746841
1.1746856
1.1746915
1.174771
1.1747681
1.1747502
1.1747177
1.1746899
1.1745516
1.1747227
1.1749346
1.1750564
1.1750527
1.1744481
1.1740958
1.1736858
1.1729892
1.1723879
1.1729376
1.1734735
1.1741072
1.1744864
1.1748331
1.1751286
1.1750722
1.1749414
1.1747169
1.1745299
1.1747311
1.1747622
1.1748009
1.1748229
1.1748241
1.174719
1.1747132
1.1747105
1.1747059
1.1747031
1.1745517
1.1745522
1.1745526
1.1745529
1.1745621
1.174457
1.1744496
1.1744496
1.1744498
1.1744504
1.1743566
1.1743565
1.1743563
1.1743563
1.174363
1.1742895
1.1742838
1.1742838
1.174284
1.1742844
1.1742224
1.1742222
1.174222
1.174222
1.1742267
1.1741754
1.1741713
1.1741713
1.1741714
1.1741717
1.1741285
1.1741284
1.1741283
1.1741284
1.1741318
1.1740954
1.1740924
1.1740923
1.1740924
1.1740927
1.174062
1.1740619
1.1740617
1.1740617
1.1740642
1.1740378
1.1740354
1.1740353
1.1740353
1.1740354
1.1740131
1.174013
1.174013
1.1740131
1.174015
1.1739956
1.1739937
1.1739936
1.1739936
1.1739937
1.1739767
1.1739767
1.1739768
1.1739768
1.1739784
1.1739636
1.1739621
1.173962
1.1739619
1.173962
1.1739488
1.1739488
1.1739489
1.173949
1.1739503
1.1739387
1.1739373
1.1739372
1.173937
1.173937
1.1739262
1.1739264
1.1739266
1.1739267
1.1739281
1.1739184
1.1739168
1.1739166
1.1739165
1.1739164
1.1739065
1.1739068
1.1739071
1.1739074
1.1739088
1.1738993
1.1738976
1.1738969
1.1738958
1.173895
1.1738854
1.1738867
1.173888
1.1738889
1.1738905
1.1738824
1.1738808
1.1738798
1.1738784
1.1738771
1.1738686
1.1738701
1.1738717
1.1738727
1.1738743
1.1738659
1.1738644
1.1738632
1.1738613
1.1738595
1.1738503
1.1738529
1.1738553
1.1738567
1.1738582
1.1738554
1.1738536
1.1738533
1.1738528
1.1738518
1.1738663
1.1738617
1.1738558
1.1738524
1.173853
1.1738386
1.1738374
1.1738378
1.1738386
1.173839
1.1738216
1.1738225
1.1738231
1.1738233
1.1738237
1.1739276
1.1739172
1.1739276
1.1739172
1.1738991
1.1739058
1.173914
1.1739177
1.1739076
1.1739058
1.1738961
1.1738904
1.1739076
1.1738965
1.1738839
1.1738884
1.1738947
1.1738958
1.173886
1.1738855
1.1738855
1.1738945
1.1738945
1.1738943
1.173893
1.1738946
1.173889
1.1738751
1.1738802
1.1738715
1.1738782
1.1738683
1.1738801
1.1738754
1.1738636
1.1738572
1.1738647
1.1738628
1.1738737
1.173882
1.1738827
1.1738836
1.1738832
1.1738949
1.1738934
1.1738983
1.173905
1.1739021
1.1739107
1.1739035
1.1739053
1.1739142
1.1739192
1.1739063
1.1738938
1.1739045
1.1739047
1.1738955
1.1739187
1.173927
1.1739046
1.1738994
1.1751629
1.1753458
1.1755889
1.1760054
1.1763771
1.1755044
1.1753686
1.1752168
1.1751278
1.1750736
1.1747484
1.1747366
1.1747523
1.1747798
1.1748058
1.174629
1.1746253
1.1746216
1.1746196
1.1746281
1.1744945
1.1744833
1.1744828
1.1744827
1.1744826
1.1743959
1.1743959
1.1743961
1.1743965
1.1744044
1.1743244
1.1743167
1.1743164
1.1743163
1.1743164
1.1742538
1.1742537
1.1742536
1.1742538
1.1742595
1.1742046
1.1741993
1.1741992
1.1741993
1.1741995
1.1741539
1.1741537
1.1741536
1.1741537
1.1741578
1.1741189
1.1741151
1.174115
1.1741151
1.1741153
1.1740821
1.174082
1.1740819
1.1740819
1.1740849
1.1740564
1.1740534
1.1740533
1.1740535
1.1740537
1.1740291
1.174029
1.1740289
1.174029
1.1740314
1.1740102
1.1740077
1.1740076
1.1740076
1.1740077
1.1739896
1.1739895
1.1739895
1.1739896
1.1739915
1.1739755
1.1739734
1.1739733
1.1739733
1.1739734
1.1739595
1.1739595
1.1739595
1.1739596
1.1739611
1.1739487
1.1739469
1.1739468
1.1739469
1.173947
1.1739361
1.173936
1.1739359
1.1739359
1.1739374
1.1739273
1.1739258
1.1739258
1.173926
1.1739263
1.1739174
1.1739172
1.1739168
1.1739167
1.1739179
1.1739093
1.1739081
1.1739082
1.1739087
1.1739091
1.1739011
1.1739008
1.1739002
1.1739
1.173901
1.1738931
1.1738919
1.1738921
1.1738927
1.1738931
1.173885
1.1738848
1.1738843
1.1738841
1.1738852
1.1738772
1.1738756
1.1738756
1.1738757
1.1738756
1.1738664
1.173867
1.1738673
1.1738675
1.1738692
1.1738611
1.1738589
1.1738584
1.1738577
1.1738566
1.1738472
1.1738487
1.1738499
1.1738507
1.1738528
1.1738446
1.173843
1.1738422
1.1738408
1.1738394
1.1738321
1.1738335
1.1738349
1.1738355
1.1738353
1.173823
1.1738233
1.173823
1.1738221
1.1738211
1.1738559
1.1738505
1.1738439
1.1738399
1.1738394
1.1738527
1.1738526
1.1738566
1.1738635
1.1738691
1.1738675
1.1738643
1.1738601
1.1738577
1.173858
1.1738593
1.1738573
1.1738558
1.1738534
1.1738509
1.1738571
1.1738597
1.1738622
1.1738638
1.1738662
1.1738746
1.1738721
1.1738708
1.1738687
1.1738669
1.1738739
1.173876
1.1738784
1.1738798
1.1738823
1.1738898
1.1738876
1.1738861
1.1738836
1.1738815
1.1738904
1.1738924
1.1738945
1.1738958
1.1738979
1.1739058
1.1739048
1.1739038
1.1739022
1.1739009
1.1739106
1.1739117
1.173913
1.1739139
1.1739141
1.173924
1.1739235
1.1739227
1.1739213
1.1739203
1.1739311
1.1739321
1.1739333
1.1739341
1.1739353
1.1739471
1.1739454
1.1739448
1.1739439
1.1739433
1.1739563
1.1739569
1.1739575
1.173958
1.1739597
1.1739743
1.1739725
1.1739722
1.1739719
1.1739717
1.173988
1.1739881
1.1739884
1.1739885
1.1739903
1.174009
1.1740069
1.1740068
1.1740068
1.1740069
1.1740274
1.1740274
1.1740274
1.1740275
1.1740298
1.1740545
1.1740517
1.1740516
1.1740517
1.174052
1.174079
1.174079
1.174079
1.1740791
1.1740822
1.1741163
1.1741124
1.1741124
1.1741125
1.1741128
1.1741504
1.1741502
1.1741502
1.1741502
1.1741544
1.1742007
1.1741955
1.1741954
1.1741957
1.1741961
1.1742482
1.1742479
1.1742478
1.1742478
1.1742536
1.1743174
1.17431
1.1743098
1.1743101
1.1743105
1.1743856
1.1743853
1.1743851
1.1743852
1.1743929
1.1744779
1.1744674
1.1744667
1.1744662
1.1744661
1.1745876
1.1745876
1.1745885
1.1745893
1.174597
1.1746937
1.1746853
1.1746898
1.1746979
1.1747062
1.1752154
1.1751302
1.1750367
1.1749811
1.1749329
1.1749526
1.1751251
1.1752754
1.1755317
1.1757652
1.1701472
1.1701089
1.1713976
1.1732506
1.1742491
1.1781712
1.1875586
1.1874904
1.1876638
1.1878652
1.1719031
1.1725281
1.1732575
1.1736887
1.174112
1.1748794
1.174893
1.174779
1.1745847
1.1744299
1.1745317
1.1745575
1.174586
1.1746022
1.174608
1.1745763
1.174571
1.1745689
1.1745661
1.1745652
1.1744392
1.1744401
1.1744409
1.1744417
1.1744508
1.1743763
1.1743686
1.174368
1.1743676
1.1743677
1.1742926
1.1742926
1.1742927
1.1742931
1.1742998
1.1742419
1.1742362
1.1742359
1.1742359
1.1742362
1.1741853
1.1741851
1.1741851
1.1741852
1.1741896
1.1741483
1.1741438
1.1741437
1.1741437
1.174144
1.1741065
1.1741063
1.1741063
1.1741064
1.1741098
1.1740785
1.1740751
1.1740749
1.174075
1.1740752
1.174048
1.174048
1.1740479
1.174048
1.1740505
1.1740277
1.1740249
1.1740248
1.1740248
1.1740249
1.1740045
1.1740044
1.1740044
1.1740045
1.1740065
1.1739891
1.1739869
1.1739868
1.1739868
1.1739869
1.1739715
1.1739714
1.1739713
1.1739714
1.1739731
1.1739597
1.1739578
1.1739578
1.1739579
1.1739581
1.1739465
1.1739463
1.173946
1.1739459
1.1739473
1.1739366
1.1739349
1.173935
1.1739352
1.1739355
1.1739257
1.1739255
1.1739252
1.1739251
1.1739263
1.1739173
1.1739158
1.1739158
1.1739161
1.1739163
1.1739074
1.1739074
1.1739072
1.1739072
1.1739084
1.1739002
1.1738987
1.1738986
1.1738986
1.1738986
1.1738899
1.1738902
1.1738904
1.1738906
1.1738919
1.173884
1.1738823
1.1738819
1.1738815
1.173881
1.1738726
1.1738734
1.173874
1.1738744
1.173876
1.1738681
1.1738661
1.1738655
1.1738648
1.1738638
1.1738552
1.1738565
1.1738574
1.173858
1.17386
1.173852
1.1738498
1.1738491
1.1738481
1.1738468
1.1738397
1.1738409
1.1738419
1.1738424
1.1738436
1.1738339
1.1738342
1.1738339
1.1738331
1.1738322
1.1738211
1.1738217
1.173822
1.1738221
1.1738218
1.1738347
1.1738347
1.1738342
1.1738338
1.1738346
1.1738468
1.1738456
1.1738457
1.1738458
1.1738458
1.1738527
1.1738529
1.1738526
1.1738525
1.1738548
1.1738619
1.17386
1.1738605
1.1738614
1.173862
1.1738724
1.1738713
1.1738696
1.1738687
1.17387
1.173878
1.1738769
1.1738779
1.1738799
1.1738814
1.1738893
1.1738879
1.1738859
1.1738848
1.1738856
1.1738933
1.1738927
1.173894
1.1738964
1.1738984
1.1739042
1.1739028
1.1739011
1.1739002
1.1739006
1.1739035
1.1739023
1.1738995
1.1738947
1.1738906
1.1738911
1.1738967
1.1739034
1.1739075
1.1739091
1.1739203
1.173918
1.1739146
1.173909
1.1739043
1.1739327
1.1739327
1.1739329
1.1739332
1.1739353
1.1739475
1.1739458
1.1739459
1.1739462
1.1739464
1.1739579
1.173958
1.173958
1.1739581
1.1739594
1.1739737
1.1739721
1.1739721
1.1739722
1.1739724
1.1739876
1.1739876
1.1739875
1.1739876
1.1739893
1.1740076
1.1740056
1.1740056
1.1740057
1.1740059
1.1740256
1.1740256
1.1740255
1.1740256
1.1740279
1.1740523
1.1740495
1.1740494
1.1740495
1.1740498
1.1740765
1.1740763
1.1740762
1.1740762
1.1740793
1.1741131
1.1741091
1.174109
1.1741091
1.1741094
1.1741456
1.1741455
1.1741454
1.1741455
1.1741496
1.1741949
1.1741896
1.1741894
1.1741896
1.1741899
1.1742406
1.1742402
1.1742399
1.1742399
1.1742454
1.1743076
1.1743003
1.1743003
1.1743008
1.1743015
1.1743742
1.1743732
1.1743724
1.1743722
1.1743792
1.1744614
1.1744516
1.1744518
1.1744529
1.1744541
1.1745736
1.1745711
1.1745691
1.1745683
1.1745747
1.1746635
1.1746569
1.1746644
1.1746776
1.1746903
1.1751865
1.1750954
1.1749953
1.174936
1.1748836
1.1749061
1.1750662
1.1752266
1.1755017
1.1757524
1.1700077
1.1699363
1.1715948
1.1732625
1.1741465
1.1749066
1.1694794
1.1684672
1.1685411
1.1683835
1.1818851
1.1822244
1.1803557
1.1783748
1.177586
1.1772074
1.1834031
1.1847291
1.1845098
1.1845205
1.1762701
1.1759168
1.1755196
1.1752894
1.1751523
1.1751087
1.175149
1.1752311
1.1753714
1.175498
1.1748302
1.1748042
1.1747757
1.1747594
1.1747699
1.1746523
1.1746434
1.1746476
1.1746551
1.1746622
1.1745094
1.1745069
1.1745039
1.1745024
1.1745123
1.1744192
1.174411
1.1744116
1.1744131
1.1744146
1.1743294
1.1743287
1.174328
1.1743278
1.1743348
1.1742681
1.1742619
1.1742619
1.1742623
1.1742627
1.174206
1.1742057
1.1742055
1.1742056
1.1742105
1.1741629
1.1741584
1.1741583
1.1741585
1.1741588
1.1741189
1.1741187
1.1741186
1.1741187
1.1741222
1.174088
1.1740847
1.1740847
1.1740848
1.174085
1.1740556
1.1740556
1.1740556
1.1740557
1.1740583
1.1740334
1.1740308
1.1740307
1.1740307
1.1740309
1.1740093
1.1740093
1.1740093
1.1740093
1.1740114
1.1739927
1.1739906
1.1739905
1.1739905
1.1739906
1.1739744
1.1739744
1.1739744
1.1739745
1.1739762
1.1739619
1.1739602
1.17396
1.17396
1.1739601
1.1739474
1.1739475
1.1739475
1.1739476
1.1739491
1.1739377
1.1739361
1.173936
1.173936
1.173936
1.1739257
1.1739258
1.1739259
1.173926
1.1739273
1.1739179
1.1739165
1.1739163
1.1739163
1.1739162
1.1739073
1.1739075
1.1739077
1.1739078
1.173909
1.1739006
1.1738993
1.1738991
1.1738989
1.1738987
1.1738904
1.1738908
1.1738911
1.1738913
1.1738925
1.1738847
1.1738833
1.173883
1.1738826
1.1738822
1.1738741
1.1738747
1.1738751
1.1738754
1.1738768
1.173869
1.1738671
1.1738667
1.1738662
1.1738654
1.1738569
1.1738579
1.1738586
1.173859
1.1738611
1.1738534
1.173851
1.1738505
1.1738498
1.1738488
1.1738416
1.1738426
1.1738433
1.1738437
1.1738453
1.1738361
1.1738363
1.1738361
1.1738357
1.1738351
1.1738238
1.1738242
1.1738242
1.173824
1.1738236
1.173824
1.1738241
1.1738242
1.173824
1.1738237
1.1738354
1.1738361
1.1738366
1.1738368
1.1738366
1.1738466
1.1738446
1.1738442
1.1738437
1.1738431
1.1738495
1.1738506
1.1738513
1.1738518
1.1738544
1.1738615
1.1738591
1.1738587
1.1738581
1.1738572
1.1738651
1.173866
1.1738666
1.173867
1.1738689
1.1738766
1.1738749
1.1738746
1.1738742
1.1738737
1.1738818
1.1738823
1.1738826
1.1738829
1.1738844
1.1738923
1.1738908
1.1738907
1.1738906
1.1738905
1.1738985
1.1738988
1.1738989
1.173899
1.1739005
1.173909
1.1739076
1.1739075
1.1739075
1.1739076
1.1739162
1.1739164
1.1739164
1.1739165
1.173918
1.1739277
1.1739261
1.173926
1.173926
1.1739261
1.1739362
1.1739363
1.1739364
1.1739365
1.1739381
1.1739497
1.173948
1.1739479
1.1739479
1.1739481
1.1739604
1.1739605
1.1739606
1.1739607
1.1739625
1.1739772
1.1739752
1.1739752
1.1739752
1.1739754
1.1739915
1.1739915
1.1739915
1.1739917
1.1739938
1.174013
1.1740106
1.1740105
1.1740106
1.1740108
1.1740324
1.1740324
1.1740323
1.1740324
1.1740351
1.1740609
1.1740578
1.1740578
1.1740579
1.1740582
1.1740873
1.1740873
1.1740872
1.1740873
1.1740907
1.1741264
1.1741221
1.1741221
1.1741222
1.1741225
1.1741629
1.1741628
1.1741627
1.1741628
1.1741676
1.1742173
1.1742113
1.1742113
1.1742114
1.1742117
1.1742694
1.1742692
1.1742691
1.1742692
1.174276
1.1743459
1.1743373
1.1743372
1.1743374
1.1743377
1.1744235
1.1744232
1.1744229
1.174423
1.1744323
1.1745291
1.174517
1.1745169
1.1745172
1.1745175
1.1746649
1.1746638
1.1746634
1.1746633
1.1746713
1.1747676
1.1747622
1.1747566
1.1747468
1.1747376
1.1749168
1.1749664
1.1750296
1.1750673
1.1750924
1.1748748
1.1748251
1.1747741
1.1746849
1.1745945
1.1751971
1.1671727
1.167158
1.1670051
1.1668288
1.1749159
1.1749292
1.1749279
1.1749272
1.1748941
1.1749095
1.174839
1.1748059
1.1747512
1.1747007
1.1746654
1.1746694
1.1746759
1.17468
1.174687
1.1746009
1.1745919
1.1745927
1.1745948
1.174597
1.174468
1.1744671
1.1744662
1.174466
1.1744755
1.1743924
1.1743842
1.1743842
1.1743847
1.1743854
1.1743072
1.1743069
1.1743067
1.1743068
1.1743137
1.1742525
1.1742463
1.1742462
1.1742464
1.1742467
1.1741935
1.1741933
1.1741932
1.1741933
1.1741983
1.1741539
1.1741493
1.1741492
1.1741493
1.1741496
1.1741115
1.1741114
1.1741113
1.1741113
1.1741149
1.1740825
1.174079
1.174079
1.1740791
1.1740793
1.1740512
1.1740511
1.174051
1.1740511
1.1740538
1.1740299
1.1740272
1.1740271
1.1740272
1.1740273
1.1740064
1.1740064
1.1740063
1.1740064
1.1740086
1.1739906
1.1739884
1.1739883
1.1739883
1.1739885
1.1739727
1.1739726
1.1739726
1.1739727
1.1739745
1.1739607
1.1739588
1.1739587
1.1739588
1.173959
1.1739466
1.1739465
1.1739465
1.1739465
1.173948
1.1739371
1.1739354
1.1739354
1.1739355
1.1739357
1.1739257
1.1739256
1.1739254
1.1739254
1.1739268
1.1739177
1.1739161
1.1739162
1.1739163
1.1739165
1.1739079
1.1739078
1.1739076
1.1739076
1.1739089
1.1739007
1.1738992
1.1738992
1.1738993
1.1738995
1.1738912
1.1738913
1.1738912
1.1738912
1.1738926
1.1738848
1.1738831
1.173883
1.173883
1.1738828
1.1738741
1.1738747
1.1738749
1.1738751
1.1738769
1.1738691
1.1738668
1.1738664
1.1738659
1.1738652
1.1738562
1.1738573
1.1738581
1.1738586
1.173861
1.1738529
1.1738504
1.1738498
1.1738488
1.1738476
1.1738403
1.1738415
1.1738425
1.1738431
1.1738446
1.1738353
1.1738357
1.1738353
1.1738344
1.1738335
1.1738223
1.173823
1.1738235
1.1738235
1.1738232
1.1738207
1.1738215
1.173822
1.1738221