/*--------------------------------*- C++ -*----------------------------------*\
  =========                 |
  \\      /  F ield         | OpenFOAM: The Open Source CFD Toolbox
   \\    /   O peration     | Website:  https://openfoam.org
    \\  /    A nd           | Version:  7
     \\/     M anipulation  |
\*---------------------------------------------------------------------------*/
FoamFile
{
    version     2.0;
    format      ascii;
    class       volScalarField;
    location    "360";
    object      alphat;
}
// * * * * * * * * * * * * * * * * * * * * * * * * * * * * * * * * * * * * * //

dimensions      [1 -1 -1 0 0 0 0];

internalField   nonuniform List<scalar> 
24866
(
9.3761712
9.384181
9.380452
9.6000822
9.7932647
9.790708
9.7859411
9.7909459
9.7900878
9.7843789
9.7846846
9.7847276
9.7844064
9.7901276
9.7910433
9.7859237
9.7905028
9.7920221
9.7910105
9.7856971
9.7739032
9.7908218
9.8265977
9.8117965
9.7815951
9.7769588
9.7861727
9.8143647
9.8087934
9.7776587
9.7884335
9.7920349
9.7920361
9.7884433
9.7777147
9.8088493
9.8144911
9.7862813
9.7768322
9.7813919
9.8117179
9.8265451
9.7908108
9.7739066
9.7857266
9.7910696
9.7920459
9.7905914
9.785935
9.7909537
9.7902255
9.78452
9.7846819
9.7846989
9.7844765
9.7900861
9.7908066
9.7858047
9.7906658
9.7933204
9.797853
9.7940591
9.7978429
9.7939879
9.7866776
9.7898964
9.7967397
9.7927691
9.7838627
9.783849
9.7838777
9.7838671
9.7928298
9.7967973
9.7899051
9.7865242
9.7933911
9.7966262
9.7925
9.7938215
9.7876653
9.7786525
9.7767167
9.7893395
9.7936648
9.799839
9.781762
9.7771429
9.7861903
9.8003937
9.7935695
9.7880599
9.786875
9.7878102
9.785878
9.7827952
9.7857719
9.784549
9.7887625
9.7859248
9.7833528
9.782966
9.7830195
9.7837665
9.7846038
9.7846066
9.7843938
9.787744
9.7866484
9.7862903
9.7823194
9.7905762
9.7952688
9.7926707
9.7878445
9.7851091
9.7841094
9.7835216
9.7839376
9.7843117
9.7842295
9.7836204
9.7840908
9.7831937
9.7826367
9.7833749
9.7857195
9.7828405
9.7820169
9.782296
9.7833522
9.7843835
9.7849971
9.7846966
9.7848008
9.7844355
9.7839417
9.7843997
9.7841121
9.786653
9.787848
9.782329
9.79058
9.795271
9.6715942
9.66769
9.5850352
9.5912747
9.5992017
9.599198
9.5912649
9.5885376
9.5517252
9.698176
9.7013329
9.5592473
9.588447
9.5907089
9.5837794
9.5532739
9.5047192
9.5225423
9.5763899
9.5894677
9.5978547
9.5973522
9.5963802
9.5940148
9.5930145
9.5898691
9.587401
9.5780994
9.578053
9.5873867
9.5897573
9.5927047
9.5944883
9.5960612
9.5879907
9.5969683
9.6735294
9.6715092
9.5881908
9.5125324
9.5983136
9.6002977
9.5907569
9.7893683
9.785471
9.7893765
9.7859819
9.7833105
9.7856655
9.7828135
9.781983
9.7822473
9.7832773
9.7842777
9.784872
9.7850028
9.7851238
9.7848063
9.7843211
9.7846172
9.7868844
9.7877501
9.7935824
9.7863027
9.5910957
9.6023445
9.6283948
9.6982435
9.551671
9.5885141
9.3922732
9.3779398
9.3799476
9.3799432
9.3779304
9.3922842
9.3519835
9.3511917
9.3738381
9.3984996
9.3730428
9.346169
9.3300249
9.3493961
9.3794781
9.377355
9.3787847
9.3774159
9.3844545
9.39788
9.3778063
9.3748592
9.3923851
9.3819983
9.3820674
9.3924929
9.374831
9.3775103
9.3984128
9.2051035
9.1936276
9.1863488
9.1866236
9.1933177
9.3838389
9.5957621
9.5946187
9.5925118
9.5898526
9.5873791
9.5780729
9.5780776
9.5875418
9.5895875
9.5931759
9.5940311
9.5966397
9.5972772
9.5980257
9.5894405
9.576437
9.5225987
9.66164
9.7153631
9.7003711
9.5533898
9.583938
9.590826
9.5882881
9.558993
9.7013719
9.6361961
9.5593299
9.5557644
9.5107158
9.5886791
9.5835308
9.6210354
9.6665449
9.8004478
9.7862313
9.7771191
9.7880662
9.793653
9.787821
9.7846195
9.7842446
9.7847078
9.7841069
9.7843935
9.7842822
9.7837662
9.7830005
9.7825376
9.7834242
9.7828001
9.7830037
9.7832853
9.7833652
9.7832128
9.7829908
9.783641
9.7837883
9.7858954
9.7893343
9.7767284
9.7828249
9.7830484
9.784583
9.7833817
9.7826573
9.7823112
9.7822589
9.7825434
9.7834239
9.7859752
9.7833199
9.7819978
9.782035
9.7833952
9.7859579
9.7888075
9.7925331
9.7858092
9.7786909
9.7877149
9.7938665
9.6697894
9.5936537
9.581578
9.6652563
9.5838322
9.5944446
9.508002
9.3738857
9.3773132
9.3795337
9.3494451
9.3300598
9.504896
9.5355197
9.5474396
9.6070304
9.6165253
9.6285332
9.5864786
9.5081461
9.5508963
9.3544363
9.3461999
9.3730621
9.3985243
9.3738186
9.3511877
9.3520052
9.1709923
9.1990482
9.1871283
9.1860079
9.1860042
9.1871224
9.1990604
9.1709795
9.1650954
9.1815902
9.2080682
9.181065
9.1585194
9.1561886
9.1783164
9.1901862
9.1862338
9.1845889
9.183665
9.1938117
9.2045954
9.1877114
9.1845041
9.2037319
9.1974624
9.1974228
9.203754
9.1845395
9.1875034
9.0161858
9.0289837
9.0216776
9.0143279
9.0145381
9.021421
9.0291174
9.2052622
9.3985643
9.3773321
9.3750035
9.3922802
9.3820099
9.3821359
9.3925743
9.3747359
9.3780451
9.397785
9.3847524
9.377324
9.3789808
9.1847496
9.1861849
9.1902354
9.1783693
9.1562113
9.1585499
9.1811047
9.2081072
9.1815497
9.165066
8.9988061
9.0054721
9.0235189
9.0155588
9.0138919
9.0138883
9.0155547
9.0235291
9.0054616
8.9988314
9.0101467
9.0338717
9.0090484
8.9907825
8.9946499
9.0152108
9.0175133
9.0144867
9.0123311
9.0119177
9.0216421
9.0284819
9.0163023
9.0135897
9.0296753
9.0257967
9.0258222
9.029787
9.0136696
8.8582935
8.8601743
8.8687005
8.8647884
8.8583992
8.8585509
8.8645868
8.8688007
8.8600413
8.8583067
9.0137393
9.1846612
9.2036009
9.1974863
9.1975012
9.2037751
9.1844512
9.1879823
9.2044818
9.1940782
9.18358
9.011849
9.0124499
9.0144377
9.0175503
9.0152589
8.9946602
8.9908056
9.009089
9.0339119
9.0101092
8.8548002
8.8471191
8.8533464
8.8641344
8.8593652
8.8578128
8.8578088
8.8593618
8.8641418
8.8533387
8.8471412
8.8548332
8.8745246
8.8529327
8.8383339
8.8449461
8.8628645
8.8603688
8.8582053
8.8562299
8.8561711
8.8645152
8.8681933
8.8601978
8.8581663
8.8704421
8.8681574
8.8682148
8.8706053
8.7258435
8.7168601
8.7181351
8.7234252
8.7218149
8.7167148
8.7168198
8.7216599
8.7234926
8.7180121
8.7168198
8.7255502
8.8703285
9.0295526
9.0258264
9.0258966
9.0297661
9.0135905
9.0165719
9.0283795
9.0218576
8.8646817
8.8561189
8.8563114
8.8581593
8.8603936
8.8629049
8.8449498
8.8383515
8.8529724
8.8745638
8.7294454
8.7138223
8.7086239
8.7139338
8.7197996
8.7172048
8.7160114
8.7160073
8.7172016
8.719804
8.7139285
8.7086433
8.7138502
8.7294088
8.7112035
8.6997388
8.7072125
8.7223006
8.7177129
8.7160679
8.7144634
8.7146145
8.7213325
8.7229013
8.7180721
8.7166954
8.7256485
8.7244041
8.7244816
8.5935757
8.5943238
8.587938
8.5887066
8.5917275
8.5915449
8.5877236
8.5877942
8.5914256
8.5917664
8.5885895
8.5878535
8.5940281
8.5934968
8.7244212
8.8681836
8.8682756
8.8705648
8.8582152
8.8604537
8.8681205
8.7228604
8.7214593
8.7145759
8.7145158
8.7160261
8.7177274
8.7223325
8.7072127
8.6997526
8.7112412
8.5823905
8.5974744
8.58555
8.5820516
8.5863069
8.5889626
8.5877349
8.5869539
8.5869499
8.5877316
8.5889645
8.5863035
8.5820685
8.585573
8.5974408
8.5823555
8.5734859
8.5808807
8.5933223
8.5880644
8.5866896
8.5854632
8.5857195
8.590891
8.5911783
8.588565
8.5877429
8.5941096
8.5934864
8.4738127
8.4739077
8.4743242
8.4698614
8.4702313
8.4717343
8.4723769
8.4696755
8.4697215
8.4722839
8.4717499
8.4701166
8.4697433
8.4740341
8.4738184
8.4739301
8.5936076
8.7245261
8.7257924
8.7167842
8.7183116
8.5887889
8.5911664
8.5909886
8.5856917
8.5854944
8.5866519
8.5880707
8.5933462
8.5808789
8.5734969
8.4578612
8.464653
8.477042
8.468193
8.4658605
8.4690945
8.4697159
8.4692949
8.4688863
8.4688824
8.4692912
8.4697157
8.4690925
8.4658751
8.4682116
8.4770114
8.4646208
8.4578521
8.4647447
8.4748634
8.4696271
8.4683762
8.467462
8.4677515
8.4715887
8.4711549
8.4700191
8.4696406
8.4740989
8.3638463
8.3637228
8.3638213
8.36408
8.3609974
8.3610631
8.3615882
8.362661
8.3608741
8.360903
8.3625865
8.3615849
8.3609485
8.3608543
8.3637982
8.363725
8.3638343
8.3640152
8.474263
8.5942663
8.5878633
8.4697843
8.4702295
8.4711673
8.4716659
8.467732
8.4674785
8.4683422
8.4696271
8.4748802
8.4647418
8.3574093
8.3511939
8.3563066
8.3664405
8.3600466
8.3585112
8.3608333
8.3602031
8.3602179
8.360105
8.3601014
8.3602138
8.3602013
8.360832
8.3585238
8.3600614
8.3664129
8.3562772
8.3511862
8.3574127
8.365558
8.3606523
8.3594419
8.3587531
8.3590267
8.3617727
8.3609774
8.3607886
8.360753
8.2596931
8.2618341
8.261774
8.2618743
8.2620739
8.2599595
8.2598001
8.2597214
8.2609711
8.2598962
8.2599133
8.2609095
8.259703
8.259684
8.2597984
8.2618019
8.2617738
8.2618786
8.2620053
8.2598649
8.3609134
8.3609881
8.3610093
8.3618363
8.3590134
8.3587596
8.3594109
8.3606474
8.3655688
8.2641293
8.2576195
8.2521084
8.255893
8.2641691
8.2596834
8.2586876
8.2602342
8.2588676
8.2590784
8.2591783
8.2591748
8.259074
8.2588646
8.2602335
8.2586982
8.2596948
8.2641442
8.2558662
8.2521017
8.2576234
8.2641236
8.259666
8.2584484
8.2579029
8.2581286
8.2600126
8.259081
8.2594715
8.1649626
8.1653706
8.1668625
8.1668151
8.166916
8.1671069
8.1656571
8.1653375
8.1649088
8.1661768
8.1656346
8.1656435
8.1661238
8.1648783
8.165219
8.1654837
8.1668454
8.1668135
8.1669125
8.1670343
8.1655495
8.1651459
8.2596621
8.2591282
8.2600674
8.25812
8.2579026
8.2584197
8.2596573
8.1655012
8.1694993
8.1643473
8.1595197
8.162263
8.169021
8.1659885
8.1653512
8.1662624
8.1644962
8.1647523
8.1649894
8.1649861
8.1647478
8.1644923
8.1662619
8.1653601
8.1659972
8.1689985
8.1622386
8.1595139
8.1643516
8.1694978
8.1655127
8.1642623
8.1637929
8.1639522
8.1651728
8.1642423
8.0755245
8.076409
8.0769465
8.0780071
8.0779504
8.0780513
8.0782549
8.0772513
8.0768232
8.0762131
8.0774046
8.0772458
8.0772489
8.0773571
8.0761728
8.076702
8.07707
8.078004
8.0779482
8.0780406
8.0781778
8.0771293
8.0765863
8.0755926
8.1643013
8.1652222
8.1639471
8.1637881
8.1642354
8.075987
8.0772932
8.080837
8.0767911
8.0725985
8.0745323
8.0800546
8.0781096
8.0777041
8.0781108
8.0761629
8.0763746
8.0766867
8.0766836
8.0763699
8.0761584
8.0781103
8.0777115
8.078116
8.0800343
8.0745102
8.0725934
8.0767959
8.0808391
8.0773071
8.0760126
8.075569
8.0756534
8.0763749
7.9929305
7.9922026
7.9931437
7.9937658
7.9945498
7.9944791
7.9945795
7.9948003
7.9940872
7.9935908
7.992909
7.9939705
7.9940761
7.9940752
7.9939265
7.9928607
7.9934671
7.9939014
7.9945599
7.9944771
7.9945625
7.9947182
7.9939501
7.9933157
7.9922775
7.9929748
8.076421
8.0756509
8.0755612
7.9925592
7.9929964
7.9943473
7.9974743
7.9943227
7.9907061
7.9920171
7.9965352
7.995389
7.9951261
7.9951437
7.9931534
7.9932703
7.9936098
7.9936068
7.9932655
7.9931486
7.9951432
7.9951322
7.9953936
7.996517
7.9919974
7.990702
7.9943281
7.9974795
7.9943632
7.9930213
7.9925691
7.9925766
7.9141903
7.9142789
7.9136923
7.9146221
7.9152944
7.9159089
7.9158284
7.9159281
7.9161613
7.9156307
7.9150967
7.9144124
7.9153172
7.9155957
7.9155919
7.9152751
7.9143576
7.9149707
7.9154428
7.9159313
7.9158271
7.9159054
7.9160739
7.9154783
7.9147893
7.9137722
7.9143222
7.9141912
7.9925761
7.9967291
8.0003656
7.9968314
7.9978089
7.999797
7.9985987
7.9992235
7.9997504
8.000588
8.0006746
7.9990836
7.9203917
7.9171131
7.9168396
7.9148936
7.9148911
7.9152241
7.9152213
7.9148865
7.9148889
7.9168395
7.9171187
7.9172988
7.9178509
7.9141477
7.9133245
7.9164362
7.9188713
7.9161272
7.9147391
7.914257
7.8401765
7.8400409
7.8399417
7.8395
7.8403775
7.8410732
7.8415905
7.8415069
7.8416054
7.8418441
7.8414222
7.8408742
7.8402293
7.8409687
7.8413522
7.8413465
7.8409279
7.8401694
7.8407466
7.8412343
7.8416242
7.8415065
7.8415779
7.8417514
7.8412551
7.8405401
7.8395832
7.8399843
7.8400427
7.8401638
7.9142457
7.9147145
7.9161093
7.9188631
7.9164296
7.9133272
7.9141646
7.9178665
7.9172949
7.8433742
7.8432319
7.842749
7.840899
7.8407695
7.8410741
7.8410718
7.8407659
7.8408956
7.8427504
7.8432389
7.8433794
7.8435303
7.8404915
7.8400237
7.8426813
7.8445446
7.8421294
7.8406996
7.7704982
7.7699297
7.7697319
7.7695026
7.7692004
7.7700028
7.7707027
7.7711699
7.7710901
7.7711873
7.7714241
7.771062
7.7705168
7.7699348
7.7705109
7.7709501
7.770943
7.7704708
7.7698709
7.7703884
7.7708759
7.7712139
7.7710909
7.7711554
7.7713257
7.770881
7.7701605
7.7692853
7.7695441
7.7697333
7.7699147
7.7704704
7.8406744
7.8421088
7.8445325
7.8426717
7.8400231
7.8405038
7.8435416
7.7731253
7.7732339
7.7731046
7.7724773
7.7707523
7.7704987
7.770762
7.7707606
7.7704976
7.7707528
7.772484
7.7731177
7.773246
7.7731237
7.7706268
7.770423
7.7726833
7.7740913
7.7719641
7.705272
7.7037745
7.7031602
7.7029068
7.7025895
7.7024171
7.7031331
7.703823
7.7042712
7.704202
7.7042977
7.7045251
7.7041903
7.70366
7.7031526
7.7035725
7.704033
7.7040248
7.7035329
7.7030857
7.7035314
7.7040073
7.7043247
7.704204
7.7042619
7.7044211
7.7039963
7.7032853
7.7025019
7.7026286
7.7029057
7.70314
7.7037397
7.7052357
7.7719386
7.7740721
7.7726663
7.7704142
7.7706294
7.7041817
7.7062342
7.706523
7.7063889
7.705669
7.7040834
7.7037141
7.7039307
7.7039313
7.7037193
7.7040942
7.7056899
7.7064197
7.7065547
7.7062553
7.7042017
7.7041901
7.7061027
7.7071487
7.6433829
7.6417219
7.6401927
7.6395337
7.6392305
7.6388543
7.6388024
7.639427
7.6400962
7.6405474
7.6404957
7.6405899
7.6408004
7.6404694
7.6399622
7.6395345
7.639806
7.6402641
7.6402552
7.6397667
7.6394655
7.6398343
7.6402903
7.6406091
7.6404989
7.6405502
7.6406904
7.6402631
7.6395726
7.6388848
7.6388887
7.6392228
7.6395025
7.6401415
7.6416617
7.643315
7.7071143
7.7060677
7.704161
7.6409451
7.640827
7.6425148
7.6429119
7.6427599
7.6419887
7.6405494
7.6400739
7.6402443
7.6402497
7.640094
7.6405845
7.6420441
7.6428342
7.6429919
7.6425884
7.6408985
7.6410213
7.6426265
7.5819523
7.5824719
7.5809921
7.5794226
7.5787183
7.5783682
7.5779521
7.5780137
7.5785447
7.5791847
7.5796556
7.5796283
7.5797208
7.5799069
7.5795616
7.579084
7.5787375
7.5788653
7.5793059
7.5792965
7.5788264
7.5786673
7.5789576
7.5793872
7.5797245
7.5796324
7.5796773
7.5797912
7.5793444
7.5786829
7.5780914
7.577978
7.578347
7.5786647
7.5793366
7.5808812
7.5823326
7.5817842
7.6425497
7.6454226
7.6461762
7.6465606
7.6471579
7.6469082
7.6451584
7.5843533
7.5818896
7.5811007
7.579811
7.5792378
7.5793682
7.5793841
7.5792909
7.5799
7.5812329
7.5820613
7.5822583
7.581807
7.5804165
7.5806255
7.5227315
7.5237934
7.5241074
7.5227696
7.521137
7.52038
7.5199809
7.5195353
7.5197085
7.5201447
7.5207486
7.5212557
7.5212604
7.5213511
7.5215049
7.5211274
7.5206844
7.5204187
7.5204017
7.5208143
7.5208047
7.5203633
7.520348
7.52056
7.5209583
7.5213312
7.5212657
7.5213047
7.5213842
7.5209011
7.5202753
7.5197792
7.5195476
7.5199347
7.5202836
7.520982
7.5225575
7.5238247
7.5234399
7.5223427
7.5804462
7.5802331
7.5816193
7.5820706
7.5236677
7.5234446
7.5226656
7.5215285
7.5208625
7.5209639
7.5210013
7.5209828
7.5217275
7.5229552
7.5238165
7.5240762
7.5236236
7.5224799
7.4668656
7.4671156
7.4679056
7.4680187
7.4667714
7.4650309
7.4642012
7.4637433
7.4632714
7.4635618
7.4639016
7.4644652
7.4650295
7.4650759
7.4651645
7.465276
7.4648447
7.4644391
7.4642538
7.4640812
7.4644573
7.4644475
7.464043
7.4641828
7.4643171
7.4646815
7.4651113
7.4650834
7.4651167
7.4651515
7.464611
7.4640248
7.463623
7.4632622
7.4636538
7.4640279
7.4647486
7.4663711
7.4674672
7.4672025
7.4663316
7.4660291
7.5220697
7.5232043
7.4669515
7.4673914
7.4671074
7.4663596
7.4653791
7.4646184
7.4647061
7.464784
7.4648645
7.4657842
7.4669458
7.4678569
7.4682159
7.4678058
7.4142216
7.4134493
7.4136505
7.4141394
7.4140234
7.4127924
7.4108718
7.4099307
7.4093938
7.4088937
7.4093141
7.4095568
7.4100796
7.4107272
7.4108285
7.4109157
7.4109724
7.410461
7.4100922
7.4099858
7.4096383
7.4099694
7.4099594
7.4096
7.4099142
7.4099722
7.4103033
7.410816
7.4108388
7.4108668
7.410844
7.4102201
7.4096736
7.4093641
7.4088541
7.4092371
7.4096318
7.4103748
7.4120697
7.413007
7.4128287
7.4121804
7.4118753
7.4126164
7.4130015
7.4126313
7.4119284
7.4111073
7.4102431
7.4103346
7.4104813
7.4107028
7.4118647
7.4130257
7.4140332
7.4145449
7.3631256
7.3629329
7.3622991
7.3624038
7.3625459
7.3621328
7.3608044
7.3586071
7.3574963
7.3568498
7.3563185
7.356881
7.3570332
7.3575231
7.3582794
7.3584493
7.3585365
7.3585272
7.3579114
7.3575724
7.3575379
7.3569979
7.3572741
7.3572636
7.3569586
7.3574644
7.3574531
7.3577575
7.3583769
7.3584615
7.3584843
7.3583928
7.357661
7.3571471
7.3569215
7.3562433
7.3566032
7.357016
7.3577868
7.3595816
7.3603806
7.3602691
7.3598416
7.3595533
7.3601371
7.3604424
7.359962
7.3593057
7.3586372
7.3576599
7.3577687
7.3580206
7.3584423
7.3599387
7.3612073
7.3623954
7.3133566
7.3143677
7.314334
7.3138138
7.3137908
7.3135427
7.3127037
7.3110932
7.308513
7.3071607
7.306375
7.3058153
7.3065116
7.3066083
7.3070899
7.3079605
7.308203
7.3082927
7.3082177
7.3074948
7.3071657
7.3071728
7.3064517
7.3066652
7.3066538
7.30641
7.3070955
7.3070446
7.3073418
7.3080701
7.3082177
7.3082352
7.3080732
7.30723
7.306727
7.3065525
7.3057136
7.3060367
7.3064644
7.3072742
7.3091785
7.3098938
7.3098582
7.3096259
7.3093467
7.3097884
7.3100056
7.3094139
7.308785
7.3082296
7.3071448
7.3072729
7.3076609
7.3083522
7.3102859
7.3118438
7.2657229
7.2678275
7.2691601
7.269265
7.2688346
7.2687025
7.2680472
7.2665317
7.2642959
7.2612276
7.259576
7.2586461
7.258065
7.258827
7.2589839
7.2595107
7.2604483
7.2607607
7.2608576
7.2607258
7.2599473
7.2595821
7.2595273
7.2587119
7.2588741
7.2588614
7.2586662
7.259444
7.2594562
7.25979
7.260575
7.2607805
7.2607942
7.2605669
7.2596623
7.2591217
7.2588912
7.2579733
7.2582643
7.2587045
7.2595549
7.2615255
7.2623301
7.2624321
7.2622873
7.2619328
7.2622401
7.2623912
7.261751
7.261091
7.2605152
7.2593804
7.2595189
7.2600443
7.2610582
7.2635339
7.2203269
7.2239261
7.2271134
7.2287294
7.2288599
7.2285024
7.2283753
7.2273655
7.2247025
7.2210715
7.2174059
7.2154666
7.2144355
7.2138172
7.2143791
7.2149929
7.2156325
7.2164444
7.2169473
7.2170709
7.2167691
7.2161137
7.2156507
7.2151575
7.2145452
7.2147222
7.2147074
7.2144939
7.215066
7.2155185
7.215947
7.2165925
7.216974
7.2170013
7.2165934
7.2158057
7.2151653
7.214502
7.2138031
7.2141278
7.2145796
7.2154355
7.2172695
7.2187258
7.2190598
7.2186965
7.2180342
7.2183133
7.2183819
7.2178969
7.217081
7.216047
7.2151143
7.2152721
7.2158854
7.2172016
7.1769973
7.1806378
7.1876918
7.1930867
7.1944054
7.1942493
7.193969
7.1941678
7.1933907
7.1884482
7.1813876
7.1772319
7.1752723
7.1742364
7.1734804
7.1731324
7.1753094
7.1760852
7.1763245
7.1774854
7.177589
7.1766549
7.1766113
7.1760249
7.1740067
7.1743107
7.1746755
7.1746597
7.1742543
7.1739059
7.1758837
7.1764356
7.1764953
7.1775181
7.1775148
7.1764593
7.1762829
7.175527
7.1733494
7.1736104
7.1741472
7.1746393
7.1753487
7.1766001
7.1804039
7.1806913
7.1791742
7.1780401
7.1788629
7.1783302
7.1783086
7.1773166
7.1748053
7.1747498
7.1750387
7.1756287
7.1447834
7.1450281
7.1477988
7.1584086
7.1676039
7.1674656
7.1670699
7.1668141
7.1673372
7.1679811
7.1591642
7.1486131
7.1453347
7.1445775
7.1435061
7.1421649
7.1418597
7.1430045
7.1438099
7.1436947
7.1433054
7.1434346
7.1440673
7.1443734
7.1437581
7.1428057
7.1430727
7.1440547
7.1440396
7.1430036
7.1426829
7.1435948
7.1442062
7.143871
7.143347
7.143364
7.1438575
7.1440584
7.1432724
7.1421331
7.1424352
7.1435983
7.1443569
7.14442
7.1464124
7.1529282
7.1543608
7.148975
7.1461297
7.1452446
7.1458202
7.1460601
7.144989
7.1435521
7.1433494
7.1442767
7.1192524
7.1195653
7.120349
7.1224254
7.1205488
7.1208163
7.121223
7.1209878
7.1211155
7.1210896
7.1233176
7.1207134
7.1194692
7.118503
7.1178103
7.1190138
7.1178382
7.1184893
7.1201111
7.1195463
7.1196862
7.1204949
7.1190508
7.1186288
7.119993
7.1188223
7.1192004
7.1191801
7.118744
7.1198789
7.1184555
7.1188614
7.1202951
7.1195855
7.1196116
7.1202777
7.1187168
7.1181618
7.1193503
7.1182309
7.1188702
7.1197426
7.1206689
7.1231185
7.1188842
7.1184626
7.1234894
7.1233074
7.1219666
7.1224023
7.120843
7.119823
7.1207055
7.1189542
7.1160322
7.1150754
7.1230804
7.1320698
7.1377958
7.1406212
7.1372248
7.1372577
7.1397913
7.1378168
7.1328699
7.1232507
7.1149373
7.1158636
7.1231221
7.1325411
7.1416495
7.1459461
7.1341491
7.1064761
7.10571
7.1338019
7.1457962
7.1410204
7.1323007
7.1249511
7.1179152
7.1154016
7.1291982
7.130665
7.1435575
7.1442045
7.1582465
7.1429468
7.1419751
7.148726
7.142556
7.157235
7.1423059
7.1287539
7.1288718
7.1415798
7.1415012
7.1471623
7.1233981
7.1262123
7.1315632
7.1315933
7.1318468
7.1290522
7.1269704
7.1252076
7.1176886
7.1158995
7.1292767
7.1297199
7.1424204
7.1573145
7.1419147
7.1427088
7.1429782
7.1484858
7.1521689
7.1499935
7.1635314
7.1535629
7.1540103
7.1497052
7.1436031
7.1371853
7.1365463
7.1436336
7.149924
7.1479056
7.1639991
7.1506352
7.1474608
7.1373843
7.1206829
7.1252491
7.1251895
7.1240707
7.1171653
7.1168007
7.1302202
7.1432956
7.1446054
7.1606317
7.1442344
7.1305682
7.1437743
7.1487744
7.182342
7.1824231
7.1859216
7.1795041
7.1784317
7.1820767
7.1796863
7.2202974
7.2649217
7.2708034
7.2640176
7.2191037
7.225014
7.2354174
7.2223218
7.26786
7.2739137
7.2661598
7.2218038
7.2236695
7.2684611
7.2691955
7.2243502
7.1837038
7.1493061
7.1568452
7.1554021
7.1515909
7.1639671
7.1550923
7.1904795
7.2021508
7.2078075
7.1906901
7.1933073
7.2057557
7.1651946
7.1679831
7.1582524
7.1728372
7.1667141
7.1559026
7.1498942
7.1836055
7.1917153
7.2037362
7.1919134
7.1917316
7.1618017
7.1435802
7.1423547
7.1422544
7.1420081
7.142462
7.1441084
7.1622995
7.1627543
7.1625717
7.1627129
7.1627086
7.1941812
7.1946331
7.1984467
7.1972276
7.157406
7.1295179
7.1387134
7.1338405
7.0686121
6.9990825
6.987555
6.9879317
6.9998234
7.0694815
7.0859819
7.129371
7.1366753
7.1373998
7.130506
7.0882773
7.0723682
7.0020992
6.9907707
6.9908183
7.0021654
7.0724974
7.0885973
7.1312296
7.1383229
7.1383331
7.1475192
7.1394564
7.1269775
7.1161169
7.1162821
7.1235853
7.1249964
7.1250011
7.1235245
7.1161264
7.1159176
7.1267216
7.13921
7.1472146
7.1373421
7.1367827
7.1292883
7.0849314
7.0676346
6.9943267
6.9817949
6.9807155
6.9929776
7.0666741
7.0840146
7.1285201
7.1359649
7.1355903
7.1281203
7.0851133
7.0422715
7.0062249
6.9086773
6.7180283
6.4956329
6.3573941
6.3589401
6.4994637
6.7224867
6.9115908
7.0080572
7.0443627
7.0886662
7.1371124
7.1437206
7.1333574
7.1345452
7.1418205
7.1109619
7.0040375
7.072933
7.0168738
6.9510915
6.7268241
6.55093
6.4117595
6.2232499
6.0965271
5.9687926
5.9179502
5.9171678
5.9668635
6.0934174
6.2184918
6.4060646
6.5459184
6.7206865
6.4073246
6.2456182
6.0307471
5.8868525
5.734267
5.6744388
5.6752151
5.7363649
5.8903591
6.0357638
6.252099
6.4130747
6.2279832
6.5100612
6.8036152
6.8980437
6.8793582
6.993107
6.9933294
7.1110502
7.1418347
7.1345544
7.1334367
7.1437927
7.1372392
7.0733929
7.0045167
6.8987513
6.8794997
6.7648463
6.764556
6.3758061
5.979515
6.1042601
5.8974518
6.0396349
5.8399012
5.650916
5.4852659
5.399661
5.3990359
5.4828511
5.6467891
5.8345722
6.032332
6.2213803
6.5021701
6.0968527
5.8891265
5.648004
5.4006968
5.199632
5.0904504
5.0910603
5.2019331
5.4051934
5.6544067
5.4913165
5.7462846
5.6866155
5.9295669
5.9291443
6.3759466
5.9785033
5.7453644
5.6860472
5.406512
5.4073179
5.095163
5.2046718
4.9694227
4.8384068
4.8377583
4.9672138
5.2002016
5.4845864
5.73722
5.9711761
6.3656605
5.9212516
5.6770973
5.4001304
5.0901956
4.8372246
4.6962124
4.6968229
4.8396795
4.8386491
5.0943617
5.2026671
5.4895044
5.6524894
5.8963009
6.1034684
6.5110181
6.8045425
6.9521597
7.017426
7.0451333
7.0891856
7.1313333
7.119993
7.0975677
7.0091429
6.913703
6.7293091
6.4152083
6.2279555
6.0394975
5.8388987
5.6495492
5.402449
5.1991251
4.9665149
4.8355232
4.6955909
4.6948355
4.8360192
5.08954
5.3995061
5.6770087
5.9212129
6.3663777
5.971005
5.7367802
5.4830964
5.1979906
4.9642893
4.834667
5.0876648
5.088118
5.3981329
5.4833107
5.7375556
5.8916415
6.0369611
6.2542648
6.4140325
6.552562
6.7277541
6.5063788
6.2244616
6.0981255
5.9704609
5.919945
5.6766809
5.6764101
5.3974877
5.481995
5.1970485
5.3989272
5.6467937
5.8889389
6.0971352
6.5040181
6.2228184
6.0334036
5.8345069
5.6464455
5.8892766
5.7362008
5.9695611
5.9195137
6.3681245
6.3685242
6.7597389
6.8000703
6.9506011
7.0082437
7.0441471
7.1198486
7.1312802
7.1373285
7.1288319
7.0353428
7.0139441
6.8663328
6.8519653
6.8519129
6.8659856
7.0137748
7.0352301
7.1272352
7.1303056
7.1183538
7.1298564
7.1180362
7.0414601
7.0122991
6.8889388
6.8682856
6.8666387
6.8866024
7.0105838
7.0396417
7.1166144
7.1284746
7.1166358
7.0934253
7.0031706
6.9429983
6.7899732
6.7482424
6.7501441
6.792832
6.9456191
7.0054714
7.0953323
7.1098867
7.1271926
7.032619
7.0104286
6.8587363
6.8436338
6.8417204
6.8563519
7.0087354
7.0309635
7.1256678
7.1347246
7.1533178
7.125805
7.1081367
7.0125853
7.0357425
6.9649936
6.8007642
6.8466276
6.7691941
6.385749
6.5198643
6.7353634
6.925668
7.0157782
7.0341122
7.0392162
7.0124117
7.0141419
6.9477749
6.8008252
6.8959488
6.8767527
6.760569
6.7614392
6.8772588
6.896975
6.8022754
6.9498241
6.7245607
6.5492041
6.4099409
6.2215101
6.0963994
6.5046279
6.7252861
6.9122145
7.0080257
7.0434666
7.015336
7.0132669
6.8672934
6.8528427
6.8523638
6.866553
6.8577794
6.8115914
6.9694476
6.7384231
6.5351873
6.4483823
6.391971
6.3598964
6.4134886
6.2505407
6.4147393
6.3603218
6.2663868
5.9938878
6.0831095
6.1946418
6.0915844
5.9988409
5.9881412
5.8955489
5.8866446
6.0149597
5.8266437
6.0166935
6.1978994
6.527031
6.0851458
5.9905452
5.9953096
5.8977165
6.000837
6.0950451
5.8889358
5.7221111
5.9486382
6.3948117
6.7811318
6.7819533
6.8582337
6.8125678
6.970863
7.0396655
7.0346596
7.0166055
6.9276263
6.7407181
6.5278025
6.3952594
5.9074766
5.9075184
5.7799018
5.8131712
5.720907
5.7027302
5.6620915
5.6686014
5.3905369
5.4749289
5.641019
5.6374301
5.8234413
5.6364309
5.6396728
5.3849701
5.3685393
5.1569891
5.4674175
5.7001451
5.8101994
5.9438779
5.9031398
5.7769752
5.7175129
5.659271
5.6658086
5.7189996
5.4730563
5.3893992
5.382909
5.0437073
5.0681956
5.1792742
4.941239
5.1799427
5.1572427
5.4689529
5.3839526
5.0432614
5.0678824
4.8083904
4.7740356
4.9102881
4.7750066
4.808852
4.6640489
4.6257553
4.5841816
4.7379512
5.0161607
5.3793611
5.4646902
5.6369981
5.8277016
5.8154585
5.6145069
5.3298723
5.616057
5.6380298
5.3501337
5.1321833
5.1060274
5.4441019
5.3524168
4.9865759
4.9611081
5.3639827
5.6975512
6.4548819
6.5898903
6.7900868
6.969401
6.9511073
6.7796941
6.5791644
6.454774
6.4565383
6.8488968
6.7711836
6.8032744
6.967237
7.0373402
7.0142656
6.9275208
6.7389869
6.5232366
6.3871725
5.9039975
5.7776854
5.7184746
5.8111113
5.9456087
5.7209061
5.6666052
5.6600227
5.7011948
5.89854
6.0013529
6.094373
6.1986961
6.0860527
5.9908193
5.9965114
6.0190556
5.8896992
5.643429
5.4753782
5.3899212
5.3833572
5.4691813
5.1586316
5.0439397
5.0687231
5.1813397
5.3889768
5.3719982
5.639232
5.8270063
5.8309052
5.6464594
5.6418345
5.4734951
5.1606885
4.9122674
4.7753534
4.8094613
4.9431363
4.8106115
4.6645545
4.626093
4.775809
5.0467487
5.0721648
5.1837435
5.4803454
5.3964853
5.38865
5.6696551
5.7101535
5.9043236
6.0013973
6.2715801
6.3647669
6.4185261
6.5398242
6.7413234
6.4524661
6.3961551
6.3646239
6.4200879
6.2561141
6.023075
6.2041394
6.5300056
6.0904323
5.9960412
6.0063983
6.101975
5.896106
5.729945
5.9564694
6.3984458
5.8196735
5.7275443
5.7858986
5.9152208
5.6767464
5.6761609
5.3954161
5.0714316
4.8094321
4.663282
4.6625294
4.8070655
5.0672551
5.3897843
5.6685157
5.6618778
5.7793626
5.7201629
5.8121018
5.948162
5.7214444
5.7018093
5.896498
5.9998241
6.0949137
5.8881074
6.0165893
6.1982581
6.083775
5.9886727
5.993693
5.8210553
5.6350073
5.4669931
5.3830554
5.0420295
5.1543053
5.1773001
5.4730671
5.639099
5.3824777
5.365083
5.6331817
5.6380694
5.8253039
6.0164618
6.0331517
6.2490913
6.4108098
6.4175691
6.3620531
6.3929463
6.2677547
6.2528597
6.4169452
6.7391118
6.5378606
6.4491077
6.3608428
6.0825014
5.9936337
5.9873526
5.8952479
5.8877094
6.0940715
6.5239814
6.1970838
5.9975794
5.8083584
5.6989965
5.4635228
5.152301
4.9068384
4.7725127
4.623993
4.7708409
4.8053762
4.9378605
5.1758443
5.0645151
5.0382863
5.3782268
5.3862102
5.4707384
5.7194199
5.6663021
5.6582857
5.7154932
5.7744199
6.3903616
5.9459996
5.9049028
5.9053004
5.6665563
5.3868145
5.0649563
4.8061713
4.7711303
4.6246336
4.7745424
4.9082631
4.9398385
5.1814436
5.1574685
5.0453901
5.387324
5.4710024
5.4782825
5.6437308
5.3853742
5.1777206
5.1535381
5.0386158
5.3783734
5.4642194
5.4718449
5.6406824
5.6349676
5.3672161
5.6381424
5.823436
5.8286799
6.0216573
5.8943434
5.7287423
5.708302
5.6683083
5.7257081
5.7847164
6.3982988
5.9145995
5.9551017
5.8175744
6.0041485
5.901447
5.9926846
5.998003
6.0872839
6.5299079
6.1006065
6.2028834
6.4213509
6.2571932
6.0188841
5.8896918
5.7205445
5.6995156
5.6584681
5.7157116
5.7746383
6.3906135
5.9467272
5.8083686
5.9990959
5.8968445
5.9884275
5.994865
6.08347
6.5251146
6.0954169
6.1992276
6.4203498
6.7406432
6.3640768
6.2714117
6.3954226
6.3646406
6.7422997
6.5408383
6.4516841
6.9281215
6.9529564
6.7850838
6.5872537
6.4654724
6.465768
6.5880024
6.7850512
6.9526692
6.7826836
6.5821359
6.5923964
6.4561954
5.6985387
5.9882343
5.9934304
6.6303801
6.8780356
7.1691739
7.2051658
7.191306
7.1826042
7.1493256
7.1557128
7.1535708
7.188855
7.1844805
7.1837299
7.1853018
7.1800442
7.1903859
7.2014933
7.2066908
7.1669395
7.1647907
7.1247423
7.1240226
7.1686427
7.2044154
7.217638
7.2071743
7.217806
7.1725892
7.1451568
7.1372877
7.1280941
7.1555671
7.1644746
7.1676009
7.2091857
7.2071719
7.1649146
7.1356431
7.1087066
7.1088144
7.1356334
7.1293755
7.1294663
7.1576338
7.1575564
7.1983604
7.1944877
7.1941575
7.1972475
7.1574921
7.1297108
7.1387663
7.1339946
7.1453531
7.1375117
7.1285196
7.1254549
7.132535
7.1412577
7.1468482
7.1366118
7.1099346
7.1100184
7.1369106
7.1474762
7.142243
7.1329585
7.1236138
7.1163888
7.1152713
7.1233818
7.1329862
7.139487
7.1437477
7.1415895
7.1414925
7.1434289
7.1389002
7.1321484
7.1228879
7.1155074
7.1181894
7.1306943
7.1292117
7.1419656
7.1429279
7.1441952
7.1581769
7.1436141
7.1796173
7.1839884
7.1922714
7.1921993
7.2288929
7.2312042
7.2319345
7.2321054
7.2312781
7.2284475
7.270561
7.3165682
7.3655631
7.3726296
7.3663557
7.3622219
7.3123721
7.3186915
7.3117367
7.3618104
7.3685421
7.3814072
7.3655516
7.315654
7.3217938
7.3137484
7.3638237
7.3660658
7.3160934
7.3168194
7.3667113
7.3819055
7.3791251
7.3715963
7.3964379
7.3456215
7.3313801
7.2827633
7.2959329
7.2473994
7.2282642
7.2344552
7.2809074
7.2832573
7.2364751
7.2536182
7.2546785
7.304812
7.3050832
7.3578505
7.331817
7.3291938
7.3561118
7.408397
7.4115707
7.4114266
7.433584
7.4296225
7.4057661
7.3817081
7.331873
7.3169366
7.2698026
7.2252096
7.2365483
7.2835341
7.2971799
7.2766087
7.2324031
7.2491513
7.2565947
7.2391076