/*--------------------------------*- C++ -*----------------------------------*\
  =========                 |
  \\      /  F ield         | OpenFOAM: The Open Source CFD Toolbox
   \\    /   O peration     | Website:  https://openfoam.org
    \\  /    A nd           | Version:  7
     \\/     M anipulation  |
\*---------------------------------------------------------------------------*/
FoamFile
{
    version     2.0;
    format      ascii;
    class       volScalarField;
    location    "360";
    object      rho;
}
// * * * * * * * * * * * * * * * * * * * * * * * * * * * * * * * * * * * * * //

dimensions      [1 -3 0 0 0 0 0];

internalField   nonuniform List<scalar> 
24866
(
1.1739091
1.1739085
1.1739086
1.1739088
1.1739089
1.1739089
1.173909
1.1739089
1.1739089
1.1739089
1.173909
1.173909
1.173909
1.1739089
1.1739089
1.173909
1.1739089
1.1739089
1.1739089
1.1739088
1.1739089
1.1739089
1.173909
1.1739089
1.1739088
1.1739089
1.1739089
1.173909
1.173909
1.173909
1.1739089
1.173909
1.173909
1.1739089
1.173909
1.173909
1.173909
1.1739089
1.1739089
1.1739089
1.173909
1.173909
1.173909
1.1739089
1.1739089
1.1739089
1.173909
1.1739089
1.173909
1.173909
1.1739089
1.173909
1.173909
1.173909
1.173909
1.1739089
1.173909
1.173909
1.1739089
1.1739089
1.1739093
1.1739095
1.1739093
1.1739093
1.1739095
1.1739097
1.1739093
1.1739093
1.1739095
1.1739095
1.1739096
1.1739095
1.1739093
1.1739094
1.1739097
1.1739095
1.1739092
1.1739093
1.1739095
1.1739092
1.1739092
1.1739094
1.1739096
1.1739098
1.1739099
1.1739094
1.1739093
1.1739094
1.1739093
1.1739094
1.1739098
1.17391
1.173911
1.173911
1.1739107
1.1739104
1.1739099
1.1739106
1.17391
1.1739105
1.1739113
1.1739121
1.1739112
1.1739118
1.1739121
1.1739121
1.1739118
1.1739108
1.1739104
1.1739097
1.1739095
1.1739093
1.1739093
1.1739095
1.17391
1.1739107
1.1739113
1.1739121
1.1739128
1.1739132
1.1739132
1.1739128
1.1739136
1.1739128
1.1739118
1.1739109
1.17391
1.1739102
1.1739111
1.1739121
1.1739132
1.173914
1.1739146
1.1739141
1.1739141
1.1739136
1.1739128
1.1739118
1.1739113
1.1739105
1.17391
1.1739095
1.1739093
1.1739093
1.1739091
1.1739091
1.1739092
1.1739088
1.1739089
1.1739089
1.1739088
1.1739089
1.1739087
1.1739088
1.1739087
1.1739087
1.1739088
1.1739089
1.1739088
1.1739087
1.1739086
1.1739086
1.1739088
1.1739087
1.1739088
1.1739088
1.1739088
1.1739089
1.1739089
1.1739088
1.1739089
1.1739089
1.1739089
1.1739089
1.1739088
1.1739089
1.1739089
1.1739088
1.1739092
1.1739093
1.1739091
1.1739091
1.1739094
1.1739092
1.1739094
1.1739095
1.1739101
1.17391
1.1739107
1.17391
1.1739105
1.1739109
1.17391
1.1739102
1.1739111
1.1739121
1.1739132
1.173914
1.1739146
1.1739146
1.1739146
1.1739141
1.1739132
1.1739121
1.173911
1.1739108
1.1739099
1.1739097
1.1739097
1.1739095
1.1739094
1.1739088
1.1739088
1.1739089
1.1739088
1.1739085
1.1739087
1.1739086
1.1739085
1.1739087
1.1739086
1.1739086
1.1739087
1.1739087
1.1739087
1.1739086
1.1739084
1.1739085
1.1739086
1.1739084
1.1739086
1.1739086
1.1739085
1.1739087
1.1739086
1.1739085
1.1739086
1.1739086
1.1739086
1.1739086
1.1739085
1.1739086
1.1739087
1.1739083
1.1739079
1.1739081
1.1739081
1.173908
1.1739085
1.1739088
1.1739089
1.1739089
1.1739088
1.1739089
1.1739089
1.1739089
1.1739089
1.1739088
1.1739089
1.173909
1.1739088
1.1739089
1.1739089
1.1739088
1.1739089
1.1739087
1.1739088
1.1739089
1.1739087
1.1739087
1.1739088
1.1739089
1.1739088
1.1739087
1.1739088
1.1739092
1.1739092
1.1739092
1.1739092
1.1739094
1.1739094
1.1739097
1.1739095
1.1739094
1.1739093
1.1739094
1.17391
1.1739099
1.173911
1.1739121
1.1739132
1.1739141
1.1739136
1.1739141
1.1739141
1.1739136
1.1739128
1.1739118
1.1739113
1.1739121
1.1739128
1.1739132
1.1739132
1.1739128
1.1739121
1.1739128
1.1739118
1.1739108
1.1739098
1.1739096
1.1739104
1.1739113
1.1739107
1.1739113
1.1739118
1.1739121
1.1739121
1.1739118
1.1739113
1.1739105
1.1739109
1.1739111
1.1739111
1.1739109
1.1739105
1.17391
1.1739095
1.17391
1.1739095
1.1739093
1.1739093
1.1739091
1.1739093
1.1739092
1.1739091
1.1739095
1.1739094
1.1739092
1.1739092
1.1739085
1.1739087
1.1739085
1.1739085
1.1739086
1.1739094
1.1739093
1.1739096
1.1739097
1.1739092
1.1739095
1.1739094
1.1739093
1.1739094
1.1739086
1.1739087
1.1739087
1.1739087
1.1739086
1.1739086
1.1739082
1.1739083
1.173908
1.1739082
1.1739082
1.173908
1.1739083
1.1739082
1.1739081
1.1739082
1.1739082
1.1739082
1.1739082
1.173908
1.1739081
1.1739082
1.1739079
1.1739081
1.1739081
1.173908
1.1739083
1.1739081
1.173908
1.1739082
1.1739082
1.1739082
1.1739082
1.173908
1.1739081
1.1739075
1.1739077
1.1739073
1.1739075
1.1739075
1.1739073
1.1739077
1.1739083
1.1739087
1.1739086
1.1739085
1.1739087
1.1739087
1.1739087
1.1739087
1.1739086
1.1739086
1.1739088
1.1739085
1.1739086
1.1739086
1.1739081
1.173908
1.1739083
1.1739082
1.173908
1.1739082
1.1739083
1.1739083
1.1739083
1.1739081
1.1739075
1.1739076
1.1739078
1.1739074
1.1739076
1.1739076
1.1739074
1.1739078
1.1739076
1.1739075
1.1739077
1.1739077
1.1739077
1.1739077
1.1739074
1.1739076
1.1739077
1.1739073
1.1739075
1.1739075
1.1739073
1.1739077
1.1739075
1.1739074
1.1739076
1.1739077
1.1739077
1.1739076
1.1739074
1.1739065
1.1739067
1.173907
1.1739064
1.1739066
1.1739066
1.1739064
1.173907
1.1739067
1.1739065
1.1739074
1.173908
1.1739082
1.1739083
1.1739083
1.1739082
1.1739081
1.1739082
1.1739083
1.173908
1.1739081
1.1739075
1.1739075
1.1739073
1.1739078
1.1739076
1.1739075
1.1739077
1.1739078
1.1739078
1.1739077
1.173907
1.1739067
1.1739069
1.1739071
1.1739065
1.1739068
1.1739068
1.1739065
1.1739071
1.1739068
1.1739066
1.173907
1.173907
1.173907
1.1739069
1.1739066
1.1739068
1.173907
1.1739064
1.1739067
1.1739067
1.1739064
1.173907
1.1739067
1.1739065
1.1739069
1.1739069
1.1739069
1.1739069
1.1739057
1.1739053
1.1739056
1.1739059
1.1739051
1.1739054
1.1739055
1.1739051
1.1739059
1.1739056
1.1739053
1.1739058
1.1739069
1.1739077
1.1739077
1.1739077
1.1739077
1.1739074
1.1739076
1.1739078
1.1739073
1.1739065
1.1739067
1.1739067
1.1739065
1.1739071
1.1739068
1.1739066
1.173907
1.1739071
1.1739071
1.173906
1.1739059
1.1739055
1.1739057
1.1739061
1.1739053
1.1739056
1.1739056
1.1739052
1.173906
1.1739057
1.1739054
1.1739059
1.173906
1.1739059
1.1739058
1.1739054
1.1739056
1.1739059
1.1739051
1.1739055
1.1739055
1.1739051
1.1739059
1.1739056
1.1739053
1.1739058
1.1739058
1.1739058
1.1739043
1.1739042
1.1739036
1.173904
1.1739044
1.1739033
1.1739038
1.1739038
1.1739033
1.1739044
1.173904
1.1739036
1.1739042
1.1739044
1.1739059
1.173907
1.173907
1.1739069
1.1739066
1.1739068
1.173907
1.173906
1.1739052
1.1739056
1.1739056
1.1739052
1.173906
1.1739057
1.1739055
1.1739059
1.173906
1.1739045
1.1739045
1.1739044
1.1739038
1.1739042
1.1739046
1.1739035
1.173904
1.173904
1.1739035
1.1739046
1.1739041
1.1739038
1.1739044
1.1739045
1.1739045
1.1739043
1.1739037
1.1739041
1.1739045
1.1739034
1.1739039
1.1739039
1.1739034
1.1739044
1.173904
1.1739036
1.1739042
1.1739043
1.1739024
1.1739024
1.1739022
1.1739014
1.1739019
1.1739024
1.1739011
1.1739017
1.1739017
1.1739011
1.1739024
1.1739019
1.1739014
1.1739022
1.1739024
1.1739024
1.1739044
1.1739059
1.1739058
1.1739054
1.1739057
1.1739041
1.1739045
1.1739034
1.173904
1.173904
1.1739035
1.1739046
1.1739041
1.1739038
1.1739044
1.1739024
1.1739026
1.1739026
1.1739024
1.1739017
1.1739021
1.1739027
1.1739013
1.1739019
1.1739019
1.1739013
1.1739027
1.1739021
1.1739016
1.1739024
1.1739025
1.1739025
1.1739023
1.1739015
1.173902
1.1739025
1.1739011
1.1739018
1.1739018
1.1739011
1.1739025
1.1739019
1.1739014
1.1739022
1.1738997
1.1738999
1.1738999
1.1738997
1.1738987
1.1738993
1.1739
1.1738984
1.1738992
1.1738992
1.1738984
1.1739
1.1738993
1.1738987
1.1738997
1.1738999
1.1739
1.1738998
1.1739023
1.1739043
1.1739037
1.1739015
1.173902
1.1739026
1.1739012
1.1739019
1.1739019
1.1739013
1.1739026
1.1739021
1.1739016
1.173899
1.1739
1.1739002
1.1739002
1.1739
1.173899
1.1738996
1.1739003
1.1738987
1.1738994
1.1738994
1.1738986
1.1739003
1.1738996
1.1738989
1.1738999
1.1739001
1.1739001
1.1738998
1.1738989
1.1738995
1.1739001
1.1738985
1.1738992
1.1738992
1.1738984
1.1739001
1.1738994
1.1738987
1.1738958
1.1738969
1.1738971
1.1738971
1.1738968
1.1738958
1.1738965
1.1738973
1.1738955
1.1738964
1.1738964
1.1738955
1.1738973
1.1738965
1.1738958
1.1738969
1.1738971
1.1738971
1.1738969
1.1738959
1.1738988
1.1738995
1.1739002
1.1738985
1.1738994
1.1738994
1.1738986
1.1739003
1.1738996
1.1738968
1.1738961
1.1738972
1.1738974
1.1738974
1.1738972
1.1738961
1.1738968
1.1738976
1.1738958
1.1738967
1.1738967
1.1738958
1.1738976
1.1738968
1.173896
1.1738971
1.1738973
1.1738973
1.173897
1.1738959
1.1738966
1.1738974
1.1738956
1.1738965
1.1738965
1.1738956
1.1738973
1.1738965
1.1738939
1.1738932
1.1738942
1.1738943
1.1738943
1.1738941
1.1738931
1.1738939
1.1738947
1.173893
1.1738939
1.1738939
1.173893
1.1738947
1.1738939
1.1738932
1.1738942
1.1738944
1.1738944
1.1738943
1.1738933
1.1738941
1.1738967
1.1738975
1.1738957
1.1738966
1.1738966
1.1738957
1.1738976
1.173895
1.1738942
1.1738935
1.1738945
1.1738947
1.1738947
1.1738945
1.1738935
1.1738943
1.1738951
1.1738933
1.1738943
1.1738943
1.1738933
1.173895
1.1738942
1.1738934
1.1738944
1.1738946
1.1738945
1.1738943
1.1738933
1.1738941
1.1738948
1.1738931
1.173894
1.173894
1.1738931
1.1738947
1.173893
1.1738924
1.1738917
1.1738924
1.1738924
1.1738924
1.1738923
1.1738916
1.1738923
1.1738929
1.1738916
1.1738925
1.1738925
1.1738917
1.173893
1.1738923
1.1738917
1.1738924
1.1738925
1.1738925
1.1738925
1.1738918
1.1738925
1.1738932
1.1738949
1.1738932
1.1738942
1.1738942
1.1738933
1.173892
1.1738933
1.1738927
1.173892
1.1738927
1.1738928
1.1738928
1.1738928
1.173892
1.1738927
1.1738934
1.1738921
1.1738929
1.1738929
1.173892
1.1738933
1.1738926
1.1738919
1.1738926
1.1738926
1.1738926
1.1738925
1.1738918
1.1738925
1.1738931
1.1738918
1.1738926
1.1738926
1.1738917
1.1738925
1.1738933
1.1738928
1.1738923
1.1738927
1.1738926
1.1738926
1.1738927
1.1738923
1.1738928
1.1738932
1.1738924
1.173893
1.173893
1.1738925
1.1738932
1.1738928
1.1738923
1.1738927
1.1738927
1.1738927
1.1738928
1.1738925
1.173893
1.1738934
1.1738927
1.1738919
1.1738928
1.1738928
1.1738934
1.1738928
1.1738936
1.1738932
1.1738927
1.1738931
1.173893
1.173893
1.1738931
1.1738927
1.1738932
1.1738936
1.1738929
1.1738935
1.1738934
1.1738928
1.1738936
1.1738931
1.1738926
1.173893
1.1738929
1.1738928
1.1738929
1.1738925
1.173893
1.1738933
1.1738926
1.1738932
1.1738931
1.1738962
1.1738959
1.173896
1.1738959
1.1738957
1.1738958
1.1738957
1.1738956
1.1738957
1.1738957
1.1738958
1.173896
1.1738958
1.1738961
1.1738961
1.1738958
1.173896
1.1738959
1.1738957
1.1738958
1.1738957
1.1738958
1.1738959
1.1738959
1.1738961
1.1738963
1.1738961
1.1738964
1.1738934
1.1738945
1.1738932
1.1738945
1.1738943
1.1738927
1.1738946
1.1738937
1.1738934
1.1738935
1.1738937
1.1738946
1.1738962
1.1738961
1.1738963
1.1738964
1.1738962
1.1738965
1.1738965
1.1738961
1.1738964
1.1738962
1.173896
1.173896
1.1738959
1.1738959
1.173896
1.1738959
1.173896
1.1738961
1.1738959
1.1738962
1.1739011
1.173901
1.173901
1.1739007
1.1739008
1.1739009
1.1739007
1.1739006
1.1739006
1.1739007
1.1739009
1.1739008
1.1739007
1.173901
1.173901
1.173901
1.173901
1.1739007
1.1739008
1.1739009
1.1739008
1.1739007
1.1739008
1.1739009
1.1739011
1.173901
1.173901
1.1739013
1.1739013
1.1739013
1.1738964
1.1738962
1.1738964
1.1738963
1.1738961
1.1738962
1.1738961
1.1738961
1.1738962
1.1739011
1.1739013
1.1739012
1.1739011
1.1739013
1.1739013
1.1739013
1.1739013
1.173901
1.1739011
1.1739011
1.173901
1.1739008
1.1739008
1.1739009
1.173901
1.1739009
1.1739008
1.1739011
1.1739072
1.173907
1.173907
1.1739072
1.1739066
1.1739068
1.1739071
1.1739067
1.1739066
1.1739066
1.1739067
1.1739071
1.1739068
1.1739065
1.1739072
1.173907
1.173907
1.1739073
1.1739066
1.1739069
1.1739072
1.1739068
1.1739067
1.1739067
1.1739069
1.1739073
1.173907
1.1739068
1.1739074
1.1739072
1.1739073
1.1739074
1.1739013
1.1739011
1.1739012
1.1739012
1.1739011
1.173901
1.173901
1.1739069
1.173907
1.1739074
1.1739071
1.1739068
1.1739074
1.1739072
1.1739072
1.1739074
1.1739068
1.173907
1.1739073
1.1739069
1.1739068
1.1739067
1.1739068
1.1739072
1.1739069
1.1739066
1.173913
1.173914
1.1739136
1.1739135
1.173914
1.173913
1.1739134
1.1739139
1.1739133
1.1739131
1.1739131
1.1739133
1.1739139
1.1739134
1.173913
1.1739141
1.1739136
1.1739136
1.1739141
1.1739131
1.1739135
1.173914
1.1739134
1.1739132
1.1739133
1.1739134
1.1739141
1.1739135
1.1739132
1.1739141
1.1739137
1.1739137
1.1739141
1.1739132
1.1739068
1.1739071
1.1739074
1.173907
1.1739069
1.1739133
1.1739133
1.1739134
1.173914
1.1739135
1.1739131
1.173914
1.1739136
1.1739136
1.173914
1.1739131
1.1739134
1.173914
1.1739134
1.1739132
1.1739132
1.1739133
1.1739139
1.1739134
1.1739204
1.1739199
1.173921
1.1739205
1.1739205
1.1739211
1.17392
1.1739204
1.1739211
1.1739204
1.1739203
1.1739203
1.1739205
1.1739212
1.1739205
1.1739201
1.1739212
1.1739207
1.1739207
1.1739213
1.1739201
1.1739206
1.1739213
1.1739206
1.1739204
1.1739204
1.1739205
1.1739212
1.1739204
1.1739201
1.1739211
1.1739205
1.1739205
1.173921
1.1739199
1.1739204
1.1739136
1.173914
1.1739135
1.1739203
1.1739202
1.1739202
1.1739203
1.1739209
1.1739203
1.1739199
1.1739208
1.1739204
1.1739203
1.1739209
1.1739199
1.1739203
1.173921
1.1739203
1.1739202
1.1739202
1.1739204
1.173921
1.1739278
1.1739271
1.1739267
1.1739277
1.1739272
1.1739272
1.1739278
1.1739268
1.1739272
1.173928
1.1739273
1.1739273
1.1739273
1.1739274
1.1739281
1.1739274
1.1739269
1.1739281
1.1739274
1.1739274
1.1739281
1.1739269
1.1739274
1.1739281
1.1739274
1.1739273
1.1739273
1.1739273
1.1739279
1.173927
1.1739267
1.1739276
1.173927
1.173927
1.1739275
1.1739265
1.1739269
1.1739275
1.1739209
1.1739175
1.1739171
1.1739167
1.1739167
1.1739171
1.1739175
1.1739242
1.1739274
1.1739267
1.1739264
1.1739273
1.1739268
1.1739268
1.1739274
1.1739265
1.1739268
1.1739276
1.173927
1.173927
1.173927
1.1739271
1.1739329
1.1739335
1.1739329
1.1739325
1.1739335
1.173933
1.173933
1.1739336
1.1739326
1.173933
1.1739338
1.1739332
1.1739332
1.1739332
1.1739333
1.173934
1.1739332
1.1739328
1.1739339
1.1739333
1.1739333
1.1739339
1.1739328
1.1739332
1.1739339
1.1739333
1.1739332
1.1739331
1.173933
1.1739337
1.1739327
1.1739324
1.1739333
1.1739326
1.1739327
1.1739331
1.1739321
1.1739325
1.1739331
1.1739325
1.1739269
1.1739268
1.1739268
1.1739268
1.1739324
1.173933
1.1739323
1.173932
1.1739329
1.1739325
1.1739324
1.173933
1.1739322
1.1739325
1.1739333
1.1739327
1.1739328
1.1739328
1.1739376
1.1739378
1.1739384
1.1739377
1.1739374
1.1739384
1.1739379
1.1739379
1.1739385
1.1739376
1.1739379
1.1739388
1.1739381
1.1739382
1.1739382
1.1739383
1.1739389
1.1739382
1.1739379
1.1739388
1.1739383
1.1739383
1.1739388
1.1739378
1.1739382
1.1739388
1.1739382
1.1739381
1.173938
1.1739379
1.1739385
1.1739376
1.1739373
1.1739381
1.1739375
1.1739375
1.1739378
1.173937
1.1739372
1.1739378
1.1739372
1.1739372
1.1739324
1.1739324
1.1739372
1.1739372
1.1739377
1.1739371
1.1739368
1.1739377
1.1739373
1.1739373
1.1739378
1.173937
1.1739373
1.1739381
1.1739375
1.1739376
1.1739419
1.1739419
1.173942
1.1739426
1.173942
1.1739418
1.1739427
1.1739423
1.1739423
1.1739428
1.173942
1.1739423
1.1739431
1.1739425
1.1739425
1.1739425
1.1739426
1.1739432
1.1739425
1.1739422
1.1739431
1.1739427
1.1739427
1.1739431
1.1739422
1.1739425
1.1739431
1.1739425
1.1739424
1.1739423
1.1739422
1.1739427
1.1739418
1.1739416
1.1739423
1.1739417
1.1739418
1.173942
1.1739412
1.1739414
1.173942
1.1739415
1.1739414
1.1739414
1.1739414
1.1739419
1.1739413
1.1739411
1.1739419
1.1739415
1.1739415
1.173942
1.1739413
1.1739415
1.1739423
1.1739418
1.1739456
1.1739456
1.1739457
1.1739458
1.1739464
1.1739458
1.1739456
1.1739464
1.1739461
1.1739461
1.1739466
1.1739458
1.1739461
1.1739468
1.1739463
1.1739463
1.1739463
1.1739464
1.173947
1.1739463
1.1739461
1.1739469
1.1739465
1.1739465
1.1739469
1.173946
1.1739463
1.1739469
1.1739463
1.1739462
1.1739461
1.173946
1.1739465
1.1739456
1.1739454
1.173946
1.1739455
1.1739456
1.1739458
1.173945
1.1739452
1.1739457
1.1739452
1.1739451
1.1739451
1.1739452
1.1739456
1.1739451
1.1739449
1.1739456
1.1739453
1.1739453
1.1739458
1.1739451
1.1739453
1.1739461
1.1739493
1.1739488
1.1739489
1.1739489
1.173949
1.1739496
1.1739491
1.1739489
1.1739497
1.1739494
1.1739494
1.1739499
1.1739492
1.1739494
1.1739501
1.1739496
1.1739496
1.1739496
1.1739497
1.1739502
1.1739496
1.1739494
1.1739502
1.1739498
1.1739498
1.1739502
1.1739494
1.1739496
1.1739501
1.1739496
1.1739494
1.1739494
1.1739492
1.1739497
1.1739489
1.1739487
1.1739493
1.1739488
1.1739489
1.173949
1.1739483
1.1739485
1.173949
1.1739485
1.1739484
1.1739484
1.1739485
1.1739489
1.1739484
1.1739482
1.1739489
1.1739487
1.1739486
1.173949
1.1739484
1.1739486
1.1739514
1.1739521
1.1739516
1.1739517
1.1739517
1.1739518
1.1739523
1.1739519
1.1739518
1.1739526
1.1739523
1.1739523
1.1739527
1.173952
1.1739522
1.1739529
1.1739524
1.1739524
1.1739524
1.1739525
1.173953
1.1739525
1.1739522
1.173953
1.1739527
1.1739526
1.173953
1.1739522
1.1739524
1.1739529
1.1739524
1.1739522
1.1739522
1.1739521
1.1739525
1.1739518
1.1739516
1.1739522
1.1739517
1.1739518
1.1739519
1.1739513
1.1739514
1.1739518
1.1739514
1.1739513
1.1739513
1.1739513
1.1739518
1.1739513
1.1739512
1.1739518
1.1739516
1.1739516
1.1739519
1.1739513
1.1739538
1.1739538
1.1739544
1.1739539
1.173954
1.173954
1.1739541
1.1739546
1.1739543
1.1739542
1.1739551
1.1739549
1.1739548
1.1739552
1.1739545
1.1739547
1.1739553
1.1739547
1.1739547
1.1739547
1.1739548
1.1739554
1.1739549
1.1739547
1.1739555
1.1739551
1.1739551
1.1739555
1.1739547
1.1739549
1.1739553
1.1739547
1.1739546
1.1739545
1.1739545
1.173955
1.1739543
1.1739542
1.1739548
1.1739543
1.1739544
1.1739545
1.1739539
1.1739541
1.1739544
1.173954
1.1739539
1.1739538
1.1739539
1.1739543
1.1739539
1.1739538
1.1739544
1.1739542
1.1739542
1.1739545
1.1739567
1.1739559
1.1739559
1.1739563
1.1739558
1.1739559
1.173956
1.173956
1.1739565
1.1739563
1.1739563
1.1739572
1.173957
1.173957
1.1739574
1.1739566
1.1739568
1.1739573
1.1739566
1.1739566
1.1739566
1.1739567
1.1739574
1.1739569
1.1739567
1.1739576
1.1739572
1.1739572
1.1739576
1.1739567
1.1739569
1.1739573
1.1739567
1.1739565
1.1739564
1.1739564
1.173957
1.1739565
1.1739563
1.173957
1.1739565
1.1739566
1.1739568
1.1739561
1.1739563
1.1739567
1.1739562
1.1739559
1.1739559
1.1739559
1.1739565
1.1739561
1.173956
1.1739567
1.1739565
1.1739564
1.173958
1.1739583
1.1739577
1.1739571
1.1739575
1.173957
1.1739572
1.1739572
1.1739572
1.1739576
1.1739574
1.1739578
1.1739587
1.1739583
1.1739583
1.1739587
1.173958
1.1739583
1.1739586
1.173958
1.1739579
1.1739579
1.173958
1.1739587
1.1739584
1.1739581
1.1739589
1.1739585
1.1739585
1.1739589
1.1739581
1.1739584
1.1739586
1.173958
1.1739578
1.1739578
1.1739579
1.1739584
1.1739582
1.1739579
1.1739584
1.1739581
1.173958
1.1739584
1.1739577
1.1739578
1.173958
1.1739577
1.1739576
1.1739574
1.1739576
1.1739581
1.1739579
1.1739576
1.1739583
1.173958
1.1739585
1.1739585
1.1739585
1.173958
1.1739581
1.1739579
1.1739579
1.173958
1.173958
1.1739583
1.1739582
1.1739588
1.1739588
1.1739588
1.1739589
1.1739584
1.1739586
1.1739588
1.1739584
1.1739585
1.1739585
1.1739585
1.1739589
1.1739587
1.1739585
1.1739591
1.173959
1.173959
1.1739591
1.1739585
1.1739587
1.1739588
1.1739585
1.1739585
1.1739584
1.1739583
1.1739587
1.1739585
1.1739582
1.1739587
1.1739586
1.1739585
1.1739586
1.173958
1.1739583
1.1739583
1.1739582
1.173958
1.1739581
1.173958
1.1739584
1.1739582
1.173958
1.1739586
1.173958
1.1739578
1.1739571
1.1739558
1.173954
1.1739523
1.173951
1.1739512
1.1739527
1.1739543
1.1739559
1.1739572
1.173958
1.1739581
1.1739571
1.1739559
1.1739537
1.1739498
1.1739468
1.173944
1.1739437
1.1739463
1.1739495
1.1739536
1.1739559
1.1739569
1.1739579
1.1739579
1.1739577
1.1739578
1.1739566
1.1739568
1.1739569
1.1739567
1.1739565
1.1739566
1.1739565
1.1739569
1.173957
1.1739578
1.1739576
1.1739564
1.1739566
1.1739562
1.1739569
1.1739567
1.1739557
1.1739553
1.1739555
1.1739564
1.1739567
1.1739571
1.173958
1.1739579
1.1739576
1.1739579
1.1739567
1.173957
1.1739566
1.1739565
1.1739572
1.1739562
1.173956
1.1739559
1.1739565
1.1739555
1.1739562
1.1739562
1.1739578
1.1739587
1.1739586
1.1739575
1.1739562
1.1739554
1.173956
1.1739556
1.1739561
1.1739568
1.1739573
1.1739567
1.1739567
1.1739569
1.1739576
1.1739574
1.1739572
1.1739557
1.1739558
1.1739564
1.1739564
1.1739575
1.1739564
1.173956
1.173954
1.1739543
1.1739538
1.1739542
1.1739549
1.1739545
1.1739549
1.1739526
1.1739499
1.1739494
1.1739499
1.1739526
1.1739521
1.1739504
1.173952
1.1739493
1.1739489
1.1739494
1.1739521
1.1739517
1.1739491
1.1739487
1.1739514
1.1739536
1.1739555
1.1739538
1.1739546
1.1739558
1.1739524
1.1739547
1.1739527
1.1739503
1.1739478
1.1739526
1.1739519
1.1739458
1.1739475
1.1739498
1.173937
1.1739455
1.1739517
1.1739547
1.1739561
1.1739542
1.1739527
1.1739504
1.1739538
1.1739542
1.1739554
1.1739585
1.1739584
1.1739585
1.1739586
1.1739586
1.1739587
1.1739556
1.1739556
1.1739552
1.1739552
1.1739554
1.1739539
1.1739536
1.1739521
1.1739526
1.1739549
1.1739564
1.1739531
1.1739471
1.173927
1.1739226
1.1739207
1.1739209
1.1739225
1.1739268
1.1739321
1.1739368
1.1739433
1.1739433
1.1739369
1.1739321
1.1739269
1.1739226
1.1739209
1.173921
1.1739226
1.1739268
1.173932
1.1739367
1.1739433
1.1739433
1.1739494
1.1739542
1.173957
1.1739578
1.173958
1.1739572
1.173957
1.1739569
1.1739571
1.1739579
1.1739577
1.1739568
1.1739542
1.1739496
1.1739436
1.1739431
1.1739372
1.1739324
1.1739271
1.1739226
1.1739209
1.1739209
1.1739224
1.1739268
1.173932
1.1739369
1.1739429
1.1739433
1.1739369
1.1739325
1.173926
1.173912
1.1739026
1.1739007
1.1739083
1.1739156
1.1739154
1.173908
1.1739005
1.1739028
1.1739124
1.1739262
1.1739327
1.1739465
1.1739525
1.1739559
1.1739554
1.1739512
1.173944
1.173923
1.1739273
1.1739208
1.1739075
1.1739002
1.1739102
1.1739179
1.1739311
1.1739423
1.1739532
1.1739591
1.1739593
1.1739534
1.1739428
1.1739316
1.1739185
1.1739106
1.1739003
1.1739182
1.1739387
1.1739588
1.1739783
1.1739942
1.1740031
1.1740029
1.1739938
1.1739776
1.173958
1.173938
1.1739176
1.1739305
1.1739071
1.1739046
1.1739167
1.1739152
1.1739211
1.1739212
1.1739439
1.1739512
1.1739554
1.173956
1.1739525
1.1739465
1.1739269
1.1739228
1.1739166
1.1739152
1.1739046
1.1739047
1.1739139
1.1739519
1.1739412
1.173977
1.1739577
1.1739855
1.1740128
1.1740354
1.1740483
1.1740485
1.1740359
1.1740136
1.1739865
1.1739587
1.1739314
1.1739076
1.1739424
1.1739784
1.1740138
1.1740494
1.1740783
1.174095
1.1740948
1.1740776
1.1740484
1.1740125
1.1740349
1.1739929
1.174002
1.1739577
1.1739578
1.173914
1.1739522
1.1739934
1.1740022
1.1740481
1.1740479
1.1740947
1.1740775
1.1741132
1.1741342
1.1741344
1.1741139
1.1740786
1.1740364
1.1739945
1.1739532
1.1739147
1.1739592
1.1740037
1.1740494
1.1740959
1.174135
1.1741583
1.174158
1.1741343
1.1741347
1.1740951
1.1740785
1.1740356
1.1740135
1.1739776
1.1739416
1.173907
1.1739044
1.1739071
1.1739205
1.1739257
1.1739321
1.1739367
1.1739324
1.1739221
1.1739117
1.1739021
1.1738998
1.1739176
1.1739308
1.1739582
1.1739863
1.1740139
1.1740497
1.1740791
1.1741143
1.1741354
1.1741585
1.1741588
1.1741355
1.1740963
1.1740497
1.1740038
1.1739592
1.1739147
1.1739535
1.1739949
1.174037
1.1740795
1.174115
1.1741357
1.1740965
1.1740964
1.1740496
1.1740366
1.1739944
1.1739782
1.1739584
1.1739382
1.1739177
1.1739101
1.1738999
1.1739072
1.1739311
1.1739422
1.1739531
1.173959
1.1740036
1.1740037
1.1740497
1.174037
1.1740796
1.1740505
1.1740145
1.1739788
1.1739425
1.1739074
1.1739315
1.1739591
1.1739871
1.1740145
1.1739787
1.1739947
1.1739532
1.173959
1.1739145
1.1739145
1.1739046
1.1739042
1.173907
1.1739117
1.1739256
1.1739324
1.1739393
1.1739298
1.1739247
1.1739036
1.1739
1.1738826
1.1738823
1.1738828
1.173883
1.173901
1.1739052
1.1739258
1.1739372
1.1739328
1.1739394
1.1739329
1.1739262
1.1739206
1.1739165
1.1739151
1.173915
1.1739164
1.1739203
1.1739258
1.1739325
1.1739391
1.1739325
1.1739223
1.1739119
1.1739072
1.1739047
1.1739051
1.1739051
1.1739047
1.1739073
1.1739122
1.1739227
1.1739254
1.1739262
1.1739059
1.1739016
1.1738842
1.1738839
1.1738838
1.1738843
1.1739015
1.1739056
1.1739261
1.1739313
1.1739345
1.1739257
1.1739253
1.1739103
1.1739122
1.1739104
1.1739036
1.1738997
1.1739064
1.1739083
1.1739016
1.1738945
1.1738982
1.1739104
1.1739054
1.1739124
1.1739012
1.1739206
1.1739071
1.1739043
1.1739164
1.1739149
1.1739045
1.1739044
1.1739149
1.1739163
1.1739041
1.1739067
1.1738998
1.1739102
1.173918
1.1739313
1.1739424
1.1739073
1.1738999
1.173902
1.1739116
1.1739257
1.1739203
1.1739003
1.173883
1.1738827
1.173883
1.1738834
1.1738995
1.1739034
1.1739106
1.1738943
1.1739066
1.1738684
1.1738963
1.1738933
1.1739169
1.1739305
1.1739167
1.1738931
1.1739354
1.1739409
1.1738883
1.173924
1.1739372
1.1739104
1.1739185
1.1739703
1.1739646
1.1739449
1.1739686
1.1739449
1.1739238
1.173901
1.1738877
1.1739182
1.1739407
1.1739707
1.1739098
1.1739369
1.1739647
1.1739785
1.1739443
1.1739076
1.1739064
1.1739061
1.1738993
1.1739033
1.17391
1.1739117
1.1739043
1.1739098
1.1738972
1.1738936
1.1739008
1.1739076
1.1739515
1.1739516
1.1739208
1.1739103
1.1739408
1.1739797
1.1739927
1.1739878
1.1740299
1.1740172
1.1739954
1.1739934
1.1739626
1.1739931
1.1739952
1.1740316
1.1740326
1.1740621
1.1740147
1.1739794
1.1739111
1.1739445
1.1739515
1.1739211
1.1739408
1.1739917
1.1739872
1.1739782
1.1740167
1.174029
1.1740282
1.17408
1.1740764
1.1740596
1.1740952
1.1740599
1.1740625
1.1740153
1.1740292
1.174081
1.1740773
1.1741166
1.1741231
1.1741003
1.1741225
1.174116
1.1741398
1.174148
1.1741462
1.1741194
1.1740753
1.1740276
1.174014
1.1739916
1.1739636
1.1739492
1.1739751
1.1740185
1.1739751
1.1739916
1.1740266
1.174057
1.1740519
1.1740001
1.1740132
1.1740713
1.1740707
1.1740192
1.1739317
1.173882
1.1738803
1.1738763
1.1738901
1.1739032
1.173896
1.1739033
1.1739093
1.1739092
1.1738999
1.1739065
1.1739035
1.1739105
1.1739125
1.1739105
1.1738981
1.1738944
1.1739013
1.1739082
1.1739514
1.1739211
1.1739406
1.1739107
1.1739442
1.1739778
1.1739871
1.1739916
1.173979
1.1739697
1.17391
1.1739368
1.1739235
1.1738878
1.1739179
1.1739401
1.1739442
1.173964
1.1739945
1.1740163
1.1740289
1.174028
1.1740143
1.1740615
1.1740798
1.1740763
1.174059
1.1740306
1.1740318
1.1739924
1.1739618
1.1739677
1.1739943
1.1739924
1.1740141
1.1740615
1.1740997
1.1741222
1.1741158
1.1740945
1.1741159
1.1741396
1.1741478
1.1741224
1.1740799
1.1740762
1.1740589
1.1740159
1.1740285
1.174028
1.1739915
1.1739786
1.1739696
1.1739399
1.1739347
1.1738929
1.1739164
1.1739061
1.1738941
1.1738682
1.1738959
1.1738926
1.1739161
1.1739297
1.1739438
1.1739229
1.1739004
1.1738871
1.1739176
1.1739089
1.1739358
1.1739634
1.173977
1.173943
1.1739068
1.1739092
1.1739399
1.1739197
1.1739501
1.1739862
1.1739864
1.1740287
1.1740766
1.1741163
1.1741401
1.1741403
1.174117
1.1740777
1.1740301
1.1739879
1.1739926
1.1739205
1.173941
1.1739105
1.1739445
1.1739788
1.1739804
1.173971
1.1739096
1.173937
1.173965
1.1739451
1.1739239
1.1738875
1.1739184
1.1739413
1.1739634
1.1739942
1.174016
1.1740295
1.1740813
1.1740635
1.1740608
1.1740177
1.1739961
1.1740326
1.1740339
1.1739944
1.1739961
1.1739691
1.1739449
1.173959
1.1739387
1.1739179
1.1739164
1.1738924
1.1738957
1.1739356
1.1739303
1.1739164
1.1738935
1.1739061
1.1738674
1.1738927
1.1738876
1.1739412
1.1739186
1.1739712
1.1739649
1.1739368
1.1739005
1.1739236
1.1739099
1.1739105
1.1739805
1.1740163
1.1740637
1.1741016
1.1741236
1.1741486
1.1741239
1.1741172
1.1740962
1.1740609
1.174078
1.1740818
1.1740299
1.1740303
1.1740178
1.1739786
1.1739877
1.1739931
1.1739414
1.1739209
1.1739072
1.1739442
1.1739513
1.1739512
1.1739877
1.1740301
1.1740778
1.174117
1.1741237
1.1741483
1.1741229
1.174101
1.1740956
1.1740598
1.1740626
1.1740803
1.1740283
1.1740149
1.1740165
1.1739951
1.1740318
1.1740604
1.1740633
1.1740817
1.1740299
1.1740159
1.1740174
1.1739955
1.1739939
1.1740332
1.1739934
1.1739629
1.1739684
1.1739443
1.1739639
1.1739775
1.1739793
1.1739914
1.1739402
1.1739194
1.1739069
1.1739501
1.1739433
1.1739095
1.1739088
1.1739702
1.1739179
1.1739408
1.1738871
1.1739004
1.173936
1.1739231
1.1739159
1.1739297
1.1739444
1.1739645
1.1739783
1.1739802
1.173993
1.1739413
1.1739209
1.1739072
1.173944
1.1739104
1.1739097
1.1739709
1.1739183
1.1739407
1.1738873
1.1739004
1.1739366
1.1739233
1.173916
1.1738934
1.1738925
1.1739351
1.1738955
1.173892
1.1738934
1.1739058
1.1738673
1.173897
1.1739028
1.173895
1.1739026
1.1739081
1.173908
1.1739025
1.1738955
1.1739033
1.173896
1.1739032
1.1738802
1.1738818
1.1739314
1.1739079
1.1738988
1.1738897
1.1738896
1.1739312
1.1739459
1.1739521
1.1739537
1.1739557
1.1739541
1.1739553
1.1739529
1.1739543
1.1739545
1.173954
1.1739543
1.1739528
1.1739505
1.173948
1.1739501
1.1739478
1.1739306
1.1739304
1.173931
1.1739373
1.1739445
1.1739502
1.1739447
1.1739457
1.1739497
1.1739543
1.1739567
1.1739559
1.1739526
1.1739503
1.173948
1.1739461
1.1739483
1.1739521
1.173945
1.173945
1.1739521
1.1739562
1.1739562
1.1739545
1.1739545
1.1739522
1.1739537
1.1739541
1.1739527
1.173955
1.1739564
1.1739531
1.1739472
1.1739497
1.1739544
1.1739568
1.1739571
1.173956
1.1739538
1.1739494
1.1739464
1.1739437
1.1739437
1.1739464
1.1739494
1.1739538
1.1739561
1.1739573
1.1739584
1.1739582
1.1739574
1.1739561
1.1739542
1.1739524
1.1739511
1.1739511
1.1739524
1.1739542
1.173956
1.1739573
1.173958
1.1739582
1.173958
1.1739577
1.1739568
1.1739567
1.1739573
1.1739571
1.1739569
1.1739553
1.1739545
1.173954
1.1739544
1.1739522
1.1739519
1.1739514
1.1739514
1.1739517
1.1739519
1.1739495
1.1739465
1.1739432
1.1739429
1.173943
1.1739435
1.1739469
1.1739464
1.1739469
1.1739434
1.173943
1.1739416
1.1739429
1.1739463
1.173946
1.1739464
1.173943
1.1739428
1.1739461
1.1739457
1.1739424
1.1739416
1.1739418
1.1739427
1.1739402
1.1739433
1.1739449
1.1739477
1.1739459
1.1739483
1.1739516
1.1739503
1.1739478
1.1739473
1.1739498
1.1739437
1.1739458
1.1739436
1.1739417
1.1739397
1.1739446
1.173945
1.1739415
1.173939
1.1739375
1.173929
1.1739342
1.1739379
1.1739408
1.1739416
1.1739449
1.1739463
1.1739493
1.1739519
1.1739504
1.1739477
1.1739459
1.1739491
1.1739516
1.1739483
1.1739458
1.1739504
1.173948
1.1739492