/*--------------------------------*- C++ -*----------------------------------*\
  =========                 |
  \\      /  F ield         | OpenFOAM: The Open Source CFD Toolbox
   \\    /   O peration     | Website:  https://openfoam.org
    \\  /    A nd           | Version:  7
     \\/     M anipulation  |
\*---------------------------------------------------------------------------*/
FoamFile
{
    version     2.0;
    format      ascii;
    class       volScalarField;
    location    "360";
    object      T;
}
// * * * * * * * * * * * * * * * * * * * * * * * * * * * * * * * * * * * * * //

dimensions      [0 0 0 1 0 0 0];

internalField   nonuniform List<scalar> 
24866
(
299.99997
299.99996
299.99996
299.99998
300
300
300
300
300
300
300
300
300
300
300
300
300
300
300
300
300
300
300
300
300
300
300
300
300
300
300
300
300
300
300
300
300
300
300
300
300
300
300
300
300
300
300
300
300
300
300
300
300
300
300
300
300
300
300
300
300
300
300
300
300
300
300
300
300
300
300
300
300
300
300
300
300
300
300
300
300
300
300
300
300
300
300
300
300
300
300
300
300
300
300
300
300
300
300
300
300
300
300
300
300
300
300
300
300
300
300
300
300
300
300
300
300
300
300
300
300
300
300
300
300
300
300
300
300
300
300
300.00001
300.00001
300.00001
300.00001
300
300
300
300
300
300
300
300
300
300
300
299.99999
299.99998
299.99998
299.99998
299.99998
299.99999
299.99998
299.99999
299.99999
299.99998
299.99998
299.99999
299.99998
299.99999
299.99998
299.99998
299.99998
299.99998
299.99998
299.99998
299.99998
299.99998
299.99998
299.99998
299.99998
299.99998
299.99998
299.99998
299.99998
299.99998
299.99998
299.99998
299.99999
299.99999
299.99999
300
299.99999
299.99998
299.99999
299.99999
300
300
300
300
300
300
300
300
300
300
300
300.00001
300.00001
300.00001
300.00001
300.00001
300
300
300
300
300
300
299.99999
299.99999
299.99999
299.99999
299.99998
299.99999
299.99997
299.99996
299.99996
299.99996
299.99996
299.99997
299.99996
299.99996
299.99996
299.99996
299.99997
299.99997
299.99996
299.99996
299.99996
299.99996
299.99996
299.99996
299.99996
299.99996
299.99996
299.99996
299.99996
299.99996
299.99996
299.99996
299.99996
299.99996
299.99996
299.99993
299.99992
299.99992
299.99992
299.99992
299.99996
299.99998
299.99998
299.99998
299.99998
299.99998
299.99998
299.99998
299.99998
299.99998
299.99998
299.99998
299.99998
299.99998
299.99998
299.99998
299.99998
299.99998
299.99999
300
300
299.99999
299.99998
299.99999
299.99998
299.99998
299.99999
299.99999
299.99999
299.99999
299.99998
299.99999
299.99999
299.99999
299.99999
300
300
300
300
300
300
300
300
300.00001
300
300.00001
300.00001
300
300
300
300
300
300
300
300
300
300
300
300
300
300
300
300
300
300
300
300
300
300
300
300
300
300
300
300
300
300
300
300
300
300
300
300
300
299.99999
299.99999
300
299.99999
299.99999
299.99998
299.99997
299.99996
299.99996
299.99996
299.99996
299.99998
299.99999
299.99999
299.99999
299.99999
299.99999
299.99999
299.99998
299.99999
299.99998
299.99997
299.99997
299.99997
299.99996
299.99996
299.99996
299.99993
299.99993
299.99993
299.99993
299.99993
299.99993
299.99993
299.99993
299.99993
299.99993
299.99993
299.99993
299.99993
299.99993
299.99993
299.99993
299.99993
299.99993
299.99993
299.99992
299.99993
299.99993
299.99993
299.99993
299.99993
299.99993
299.99993
299.99993
299.99993
299.99988
299.99989
299.99988
299.99988
299.99988
299.99988
299.99989
299.99993
299.99996
299.99996
299.99996
299.99996
299.99996
299.99996
299.99996
299.99996
299.99996
299.99996
299.99996
299.99996
299.99996
299.99993
299.99993
299.99993
299.99993
299.99993
299.99993
299.99994
299.99993
299.99993
299.99993
299.99989
299.99989
299.99989
299.99989
299.99989
299.99989
299.99989
299.99989
299.99989
299.99989
299.9999
299.9999
299.9999
299.9999
299.99989
299.99989
299.99989
299.99988
299.99988
299.99988
299.99988
299.99989
299.99989
299.99988
299.99989
299.99989
299.99989
299.99989
299.99988
299.99983
299.99983
299.99983
299.99982
299.99982
299.99982
299.99982
299.99983
299.99983
299.99983
299.99988
299.99993
299.99993
299.99993
299.99993
299.99993
299.99993
299.99993
299.99993
299.99992
299.99993
299.99988
299.99988
299.99989
299.99989
299.99989
299.99989
299.9999
299.9999
299.9999
299.9999
299.99985
299.99984
299.99984
299.99984
299.99983
299.99983
299.99983
299.99983
299.99984
299.99984
299.99984
299.99985
299.99985
299.99985
299.99985
299.99984
299.99984
299.99984
299.99983
299.99983
299.99982
299.99982
299.99983
299.99983
299.99983
299.99984
299.99984
299.99984
299.99983
299.99976
299.99975
299.99975
299.99975
299.99974
299.99974
299.99974
299.99974
299.99975
299.99975
299.99975
299.99976
299.99984
299.99989
299.99989
299.99989
299.99989
299.99989
299.99989
299.99989
299.99988
299.99982
299.99983
299.99983
299.99983
299.99984
299.99984
299.99984
299.99985
299.99985
299.99985
299.99978
299.99978
299.99976
299.99976
299.99977
299.99975
299.99975
299.99975
299.99975
299.99976
299.99976
299.99976
299.99977
299.99978
299.99978
299.99977
299.99976
299.99976
299.99976
299.99975
299.99975
299.99974
299.99974
299.99975
299.99975
299.99975
299.99976
299.99977
299.99976
299.99966
299.99966
299.99964
299.99964
299.99964
299.99963
299.99963
299.99963
299.99963
299.99964
299.99964
299.99964
299.99966
299.99967
299.99977
299.99984
299.99984
299.99984
299.99983
299.99983
299.99983
299.99976
299.99974
299.99975
299.99975
299.99975
299.99976
299.99976
299.99976
299.99978
299.99978
299.99968
299.99968
299.99968
299.99966
299.99966
299.99966
299.99964
299.99964
299.99964
299.99964
299.99966
299.99966
299.99966
299.99967
299.99968
299.99968
299.99967
299.99966
299.99965
299.99966
299.99964
299.99964
299.99963
299.99963
299.99965
299.99964
299.99965
299.99966
299.99967
299.99953
299.99953
299.99952
299.9995
299.9995
299.9995
299.99948
299.99948
299.99948
299.99948
299.9995
299.9995
299.99951
299.99952
299.99953
299.99953
299.99967
299.99977
299.99976
299.99975
299.99975
299.99965
299.99965
299.99964
299.99964
299.99964
299.99964
299.99966
299.99966
299.99966
299.99968
299.99954
299.99955
299.99955
299.99954
299.99953
299.99952
299.99952
299.9995
299.9995
299.9995
299.9995
299.99952
299.99952
299.99952
299.99954
299.99955
299.99955
299.99954
299.99952
299.99951
299.99952
299.99949
299.99949
299.99949
299.99949
299.99951
299.9995
299.99951
299.99952
299.99935
299.99936
299.99936
299.99935
299.99933
299.99932
299.99933
299.99931
299.99931
299.99931
299.99931
299.99933
299.99933
299.99933
299.99935
299.99936
299.99936
299.99936
299.99953
299.99966
299.99965
299.99951
299.99951
299.99951
299.99949
299.9995
299.9995
299.9995
299.99952
299.99952
299.99952
299.99936
299.99937
299.99939
299.99939
299.99938
299.99936
299.99935
299.99935
299.99933
299.99933
299.99933
299.99933
299.99935
299.99935
299.99935
299.99937
299.99938
299.99938
299.99937
299.99935
299.99934
299.99934
299.99932
299.99932
299.99932
299.99932
299.99933
299.99933
299.99933
299.99914
299.99915
299.99916
299.99916
299.99915
299.99914
299.99913
299.99913
299.99912
299.99912
299.99912
299.99912
299.99913
299.99913
299.99914
299.99915
299.99916
299.99917
299.99916
299.99915
299.99934
299.99934
299.99934
299.99932
299.99932
299.99933
299.99933
299.99935
299.99935
299.99916
299.99917
299.99918
299.99919
299.99919
299.99918
299.99917
299.99916
299.99916
299.99915
299.99915
299.99915
299.99915
299.99916
299.99916
299.99916
299.99918
299.99918
299.99918
299.99917
299.99916
299.99915
299.99915
299.99914
299.99913
299.99913
299.99913
299.99914
299.99914
299.99896
299.99897
299.99896
299.99896
299.99896
299.99896
299.99896
299.99895
299.99895
299.99895
299.99895
299.99895
299.99896
299.99895
299.99895
299.99896
299.99896
299.99896
299.99897
299.99897
299.99897
299.99897
299.99914
299.99915
299.99914
299.99914
299.99914
299.99914
299.99916
299.99898
299.99898
299.99899
299.99899
299.99899
299.999
299.99899
299.99899
299.99899
299.99898
299.99899
299.99898
299.99898
299.99899
299.99898
299.99898
299.99899
299.99899
299.99899
299.99898
299.99898
299.99898
299.99897
299.99897
299.99897
299.99896
299.99896
299.99897
299.99896
299.99886
299.99886
299.99887
299.99885
299.99884
299.99883
299.99884
299.99886
299.99885
299.99885
299.99887
299.99887
299.99887
299.99887
299.99885
299.99885
299.99886
299.99885
299.99884
299.99884
299.99885
299.99888
299.99887
299.99887
299.99897
299.99898
299.99897
299.99897
299.99898
299.9989
299.99888
299.99889
299.9989
299.99888
299.99887
299.99887
299.99888
299.9989
299.99889
299.99889
299.99891
299.9989
299.9989
299.99891
299.99888
299.99888
299.99889
299.99887
299.99886
299.99886
299.99887
299.99888
299.99887
299.99887
299.99889
299.99888
299.99888
299.99888
299.99896
299.99892
299.99893
299.99893
299.9989
299.99888
299.99888
299.9989
299.99893
299.99892
299.99891
299.99895
299.99894
299.99894
299.99895
299.99891
299.99892
299.99893
299.9989
299.99889
299.99889
299.99891
299.99894
299.99894
299.99893
299.99897
299.9989
299.99889
299.99889
299.99897
299.99898
299.99895
299.99896
299.99897
299.99894
299.99892
299.99892
299.99894
299.99897
299.99896
299.99895
299.99899
299.99898
299.99898
299.99898
299.99894
299.99895
299.99896
299.99893
299.99891
299.99891
299.99892
299.99895
299.99894
299.99893
299.99896
299.99895
299.99895
299.9992
299.99921
299.99917
299.99917
299.99918
299.99915
299.99913
299.99913
299.99914
299.99917
299.99917
299.99916
299.9992
299.99919
299.99919
299.9992
299.99916
299.99917
299.99918
299.99915
299.99913
299.99914
299.99916
299.99919
299.99919
299.99918
299.99923
299.99922
299.99897
299.99883
299.99868
299.99883
299.99871
299.99857
299.99878
299.99869
299.99862
299.99862
299.99869
299.99879
299.99901
299.99922
299.99921
299.9992
299.99924
299.99923
299.99923
299.99924
299.99919
299.9992
299.99921
299.99918
299.99916
299.99915
299.99917
299.9992
299.99919
299.99918
299.99921
299.99921
299.9996
299.9996
299.9996
299.99956
299.99957
299.99957
299.99954
299.99953
299.99952
299.99954
299.99956
299.99956
299.99955
299.99959
299.99959
299.99959
299.99959
299.99955
299.99956
299.99957
299.99954
299.99953
299.99953
299.99955
299.99958
299.99959
299.99958
299.99962
299.99962
299.99962
299.99922
299.99923
299.9992
299.99921
299.99922
299.99919
299.99917
299.99917
299.99919
299.99958
299.99961
299.99961
299.9996
299.99963
299.99963
299.99962
299.99963
299.99959
299.9996
299.9996
299.99957
299.99955
299.99955
299.99956
299.99959
299.99958
299.99957
299.99961
300.00009
300.00009
300.00009
300.00009
300.00006
300.00006
300.00006
300.00003
300.00002
300.00002
300.00003
300.00005
300.00006
300.00005
300.00008
300.00008
300.00008
300.00008
300.00005
300.00006
300.00006
300.00003
300.00002
300.00003
300.00005
300.00007
300.00008
300.00008
300.00011
300.00011
300.00011
300.00011
299.99963
299.99959
299.9996
299.99961
299.99958
299.99957
299.99957
300.00006
300.00007
300.00009
300.0001
300.00009
300.00012
300.00011
300.00011
300.00011
300.00008
300.00009
300.00008
300.00006
300.00004
300.00004
300.00005
300.00007
300.00007
300.00006
300.00063
300.00065
300.00065
300.00065
300.00064
300.00062
300.00062
300.00062
300.0006
300.00058
300.00058
300.00059
300.00061
300.00062
300.00062
300.00064
300.00064
300.00064
300.00064
300.00062
300.00062
300.00062
300.0006
300.00059
300.00059
300.00061
300.00063
300.00064
300.00064
300.00066
300.00066
300.00066
300.00066
300.00064
300.00009
300.00009
300.00009
300.00007
300.00006
300.00062
300.00062
300.00062
300.00064
300.00065
300.00064
300.00066
300.00066
300.00066
300.00066
300.00064
300.00064
300.00064
300.00061
300.0006
300.0006
300.00061
300.00063
300.00063
300.00123
300.00122
300.00124
300.00124
300.00124
300.00124
300.00122
300.00123
300.00122
300.00121
300.0012
300.0012
300.00121
300.00122
300.00123
300.00122
300.00124
300.00124
300.00124
300.00124
300.00122
300.00123
300.00122
300.00121
300.00121
300.00121
300.00121
300.00122
300.00123
300.00123
300.00124
300.00125
300.00125
300.00124
300.00123
300.00123
300.00065
300.00064
300.00063
300.00122
300.00121
300.00121
300.00122
300.00122
300.00123
300.00123
300.00124
300.00124
300.00124
300.00124
300.00123
300.00123
300.00122
300.00121
300.00121
300.00121
300.00121
300.00122
300.0018
300.00181
300.00181
300.00181
300.00182
300.00182
300.00181
300.00181
300.00181
300.0018
300.0018
300.0018
300.0018
300.0018
300.0018
300.00181
300.00181
300.00182
300.00182
300.00182
300.00182
300.00181
300.00181
300.0018
300.0018
300.0018
300.0018
300.0018
300.0018
300.00181
300.0018
300.00181
300.00181
300.00181
300.0018
300.0018
300.0018
300.00179
300.00123
300.00113
300.00107
300.00104
300.00104
300.00107
300.00113
300.00173
300.00179
300.0018
300.00179
300.0018
300.0018
300.0018
300.0018
300.0018
300.0018
300.00179
300.00179
300.00179
300.00179
300.00179
300.00232
300.00232
300.00233
300.00233
300.00233
300.00233
300.00234
300.00233
300.00233
300.00233
300.00233
300.00233
300.00233
300.00233
300.00233
300.00233
300.00234
300.00234
300.00234
300.00234
300.00234
300.00234
300.00234
300.00234
300.00233
300.00232
300.00233
300.00232
300.00232
300.00232
300.00232
300.00232
300.00232
300.00232
300.00232
300.00231
300.00231
300.00231
300.0023
300.0023
300.00179
300.00179
300.00179
300.00179
300.0023
300.0023
300.0023
300.0023
300.0023
300.00231
300.00231
300.00231
300.00231
300.00231
300.00231
300.00231
300.00231
300.00232
300.00278
300.00277
300.00278
300.00279
300.00279
300.00279
300.00279
300.0028
300.00279
300.00279
300.0028
300.00279
300.00279
300.0028
300.0028
300.0028
300.00279
300.0028
300.0028
300.0028
300.00281
300.0028
300.0028
300.0028
300.0028
300.00279
300.00279
300.00279
300.00278
300.00278
300.00277
300.00278
300.00277
300.00277
300.00277
300.00277
300.00276
300.00276
300.00276
300.00275
300.00275
300.00275
300.0023
300.0023
300.00275
300.00275
300.00275
300.00275
300.00275
300.00275
300.00276
300.00276
300.00276
300.00276
300.00277
300.00276
300.00277
300.00277
300.00318
300.00318
300.00318
300.00318
300.00319
300.0032
300.0032
300.0032
300.0032
300.0032
300.00321
300.00321
300.0032
300.00321
300.00321
300.00321
300.00321
300.00321
300.00321
300.00321
300.00321
300.00321
300.00321
300.00321
300.00321
300.00321
300.0032
300.0032
300.0032
300.00319
300.00319
300.00318
300.00318
300.00318
300.00318
300.00318
300.00317
300.00317
300.00317
300.00316
300.00316
300.00316
300.00316
300.00316
300.00315
300.00315
300.00316
300.00316
300.00316
300.00317
300.00317
300.00317
300.00317
300.00317
300.00317
300.00317
300.00354
300.00354
300.00355
300.00355
300.00355
300.00356
300.00356
300.00356
300.00357
300.00357
300.00357
300.00357
300.00357
300.00357
300.00357
300.00358
300.00358
300.00357
300.00357
300.00358
300.00358
300.00358
300.00358
300.00358
300.00357
300.00357
300.00357
300.00356
300.00356
300.00356
300.00356
300.00355
300.00355
300.00355
300.00354
300.00354
300.00354
300.00354
300.00353
300.00353
300.00353
300.00352
300.00352
300.00352
300.00352
300.00352
300.00352
300.00352
300.00352
300.00353
300.00353
300.00353
300.00353
300.00353
300.00354
300.00353
300.00385
300.00386
300.00386
300.00387
300.00387
300.00387
300.00388
300.00388
300.00389
300.00389
300.00389
300.00389
300.00389
300.0039
300.00389
300.00389
300.0039
300.0039
300.0039
300.00389
300.0039
300.0039
300.0039
300.0039
300.0039
300.00389
300.00389
300.00389
300.00389
300.00388
300.00388
300.00388
300.00387
300.00387
300.00387
300.00387
300.00386
300.00386
300.00386
300.00386
300.00385
300.00385
300.00385
300.00385
300.00385
300.00385
300.00385
300.00385
300.00385
300.00385
300.00385
300.00386
300.00386
300.00386
300.00386
300.00386
300.00414
300.00413
300.00413
300.00414
300.00414
300.00414
300.00414
300.00416
300.00416
300.00417
300.00418
300.00418
300.00418
300.00418
300.00418
300.00418
300.00418
300.00418
300.00418
300.00418
300.00418
300.00418
300.00418
300.00418
300.00418
300.00418
300.00418
300.00418
300.00418
300.00417
300.00417
300.00417
300.00416
300.00416
300.00416
300.00416
300.00416
300.00416
300.00416
300.00415
300.00415
300.00415
300.00415
300.00414
300.00414
300.00414
300.00414
300.00414
300.00414
300.00414
300.00414
300.00415
300.00415
300.00415
300.00415
300.00414
300.00439
300.00438
300.00437
300.00437
300.00437
300.00438
300.00438
300.00438
300.00439
300.0044
300.00442
300.00442
300.00442
300.00442
300.00442
300.00442
300.00442
300.00442
300.00442
300.00442
300.00442
300.00442
300.00442
300.00442
300.00442
300.00442
300.00442
300.00442
300.00442
300.00441
300.00441
300.00441
300.0044
300.0044
300.0044
300.0044
300.00441
300.0044
300.0044
300.00441
300.0044
300.0044
300.0044
300.0044
300.0044
300.0044
300.00439
300.00439
300.00439
300.00439
300.0044
300.0044
300.0044
300.0044
300.0044
300.0044
300.00462
300.0046
300.00457
300.00455
300.00455
300.00455
300.00455
300.00455
300.00455
300.00457
300.00461
300.00462
300.00463
300.00463
300.00463
300.00463
300.00463
300.00462
300.00462
300.00461
300.00461
300.00461
300.00462
300.00463
300.00463
300.00463
300.00463
300.00463
300.00463
300.00462
300.00462
300.00461
300.00461
300.0046
300.0046
300.00461
300.00461
300.00462
300.00462
300.00462
300.00463
300.00463
300.00463
300.00462
300.00463
300.00463
300.00462
300.00462
300.00461
300.00461
300.00462
300.00463
300.00463
300.00463
300.00463
300.00462
300.00475
300.00474
300.00472
300.00472
300.00469
300.00469
300.0047
300.0047
300.0047
300.00469
300.00472
300.00472
300.00473
300.00475
300.00475
300.00474
300.00474
300.00474
300.00473
300.00473
300.00473
300.00473
300.00473
300.00473
300.00474
300.00473
300.00473
300.00474
300.00474
300.00473
300.00473
300.00474
300.00473
300.00472
300.00472
300.00473
300.00473
300.00473
300.00474
300.00474
300.00474
300.00475
300.00475
300.00474
300.00474
300.00475
300.00475
300.00475
300.00474
300.00474
300.00474
300.00475
300.00475
300.00475
300.00475
300.00475
300.00485
300.00484
300.00483
300.00485
300.00486
300.00488
300.00489
300.00488
300.00487
300.00485
300.00483
300.00481
300.00482
300.00482
300.00481
300.00483
300.00482
300.00482
300.00483
300.00484
300.00483
300.00483
300.00481
300.00481
300.00482
300.00479
300.0048
300.0048
300.00479
300.00482
300.00481
300.0048
300.00482
300.00483
300.00484
300.00483
300.00482
300.00483
300.00484
300.00482
300.00483
300.00484
300.00483
300.00485
300.00487
300.00487
300.00486
300.00487
300.00487
300.00486
300.00485
300.00486
300.00486
300.00483
300.0049
300.00491
300.005
300.00522
300.00559
300.00607
300.00645
300.00639
300.00598
300.00555
300.0052
300.00499
300.0049
300.00489
300.00497
300.00521
300.00573
300.00672
300.0081
300.00923
300.00929
300.0082
300.00677
300.00574
300.0052
300.00497
300.0049
300.0049
300.00483
300.00483
300.00479
300.00481
300.00474
300.00481
300.00479
300.00485
300.00481
300.00474
300.00481
300.00483
300.00484
300.00479
300.00479
300.00483
300.00499
300.00509
300.00527
300.0054
300.00535
300.00519
300.00506
300.00497
300.00489
300.0049
300.00483
300.00483
300.00478
300.00474
300.00479
300.00481
300.00481
300.00483
300.00491
300.00483
300.00474
300.0048
300.0048
300.00484
300.00484
300.00482
300.00483
300.00484
300.00485
300.00488
300.00477
300.00482
300.00487
300.00488
300.00497
300.00503
300.00504
300.005
300.00493
300.00495
300.00486
300.00481
300.00484
300.00474
300.00483
300.00485
300.0048
300.00484
300.00469
300.00467
300.00474
300.00468
300.00465
300.0047
300.00464
300.00441
300.00415
300.00416
300.00415
300.00441
300.00444
300.00454
300.00443
300.00416
300.00418
300.00415
300.00442
300.00444
300.00417
300.00419
300.00446
300.00471
300.00487
300.00522
300.00509
300.00492
300.00539
300.00502
300.00483
300.00514
300.00568
300.00488
300.00501
300.00618
300.00646
300.00595
300.00892
300.00688
300.00556
300.00501
300.00481
300.00466
300.00482
300.00512
300.00472
300.0046
300.00477
300.0048
300.00482
300.00482
300.00482
300.00482
300.0048
300.00478
300.0048
300.00482
300.00482
300.0048
300.00463
300.00466
300.00498
300.00485
300.00502
300.00514
300.0059
300.00798
300.01259
300.01406
300.0148
300.01482
300.01413
300.01271
300.01114
300.00965
300.00837
300.00838
300.00972
300.01129
300.01295
300.01442
300.01517
300.01516
300.01443
300.01298
300.01133
300.00977
300.00842
300.00842
300.00684
300.0056
300.00507
300.00492
300.0049
300.00497
300.00502
300.00503
300.00498
300.00491
300.00492
300.00508
300.00558
300.00675
300.00827
300.00828
300.00956
300.01106
300.01271
300.01422
300.015
300.01503
300.0143
300.01282
300.01117
300.00962
300.0083
300.00828
300.00955
300.011
300.01431
300.01898
300.0233
300.02628
300.02649
300.02568
300.02571
300.02655
300.0263
300.02325
300.01892
300.01432
300.01107
300.00817
300.00607
300.00525
300.00541
300.00648
300.00932
300.01419
300.0127
300.01687
300.02229
300.02641
300.02703
300.0262
300.02461
300.02216
300.02029
300.0189
300.01887
300.0202
300.02203
300.02446
300.02605
300.02694
300.02637
300.02613
300.02386
300.02006
300.01589
300.01212
300.00999
300.01004
300.01225
300.01608
300.02029
300.02409
300.02631
300.02487
300.02691
300.02424
300.01885
300.01993
300.01496
300.01498
300.00936
300.00649
300.00541
300.00526
300.0061
300.00826
300.01287
300.01428
300.019
300.01997
300.02543
300.02537
300.02633
300.02088
300.02262
300.01644
300.02046
300.01438
300.00773
300.00187
299.99842
299.99835
300.00169
300.00746
300.01405
300.02012
300.0246
300.02674
300.02223
300.01599
300.00748
299.99824
299.9902
299.98547
299.98555
299.99042
299.99859
300.00791
300.00219
300.01275
300.01063
300.01961
300.01963
300.02641
300.02095
300.01276
300.01062
299.99878
299.99881
299.98575
299.99055
299.98021
299.97397
299.97388
299.97994
299.99014
300.00167
300.0122
300.02042
300.02604
300.01908
300.01002
299.99824
299.98529
299.97374
299.96675
299.96685
299.97403
299.97395
299.98568
299.99041
300.00213
300.00789
300.01651
300.02275
300.02715
300.02444
300.0226
300.01709
300.01457
300.01127
300.00974
300.0122
300.01557
300.01926
300.02367
300.0268
300.02665
300.02511
300.02064
300.0145
300.00778
299.99849
299.99024
299.98001
299.97374
299.96675
299.96665
299.97366
299.98523
299.9982
300.01001
300.0191
300.0261
300.02046
300.01219
300.0016
299.98999
299.97974
299.97365
299.98525
299.98533
299.99838
300.00187
300.01249
300.01635
300.02058
300.02441
300.02664
300.02746
300.02681
300.02714
300.02506
300.02263
300.02076
300.01938
300.01026
300.01021
299.99832
300.00169
299.99001
299.99813
300.00744
300.01603
300.02234
300.02693
300.0248
300.02027
300.01415
300.0075
300.01614
300.01235
300.02066
300.01935
300.02632
300.02636
300.02556
300.02453
300.02267
300.01929
300.01464
300.01222
300.01006
300.00953
300.01192
300.01448
300.01719
300.01929
300.02033
300.02027
300.01913
300.01694
300.01417
300.01164
300.00957
300.01197
300.00986
300.01196
300.01431
300.01687
300.01885
300.01989
300.01992
300.01891
300.01698
300.01443
300.01203
300.0099
300.01199
300.01533
300.01902
300.02234
300.02413
300.02511
300.02511
300.02411
300.02227
300.01893
300.01526
300.01456
300.01161
300.01411
300.01683
300.01897
300.02008
300.0201
300.01904
300.01693
300.01421
300.01166
300.00929
300.01005
300.01162
300.01459
300.01865
300.01646
300.02196
300.0241
300.02086
300.02515
300.02691
300.02762
300.02698
300.02333
300.01861
300.01409
300.01638
300.01681
300.01685
300.02234
300.02423
300.01881
300.01987
300.02532
300.02537
300.0199
300.01892
300.0244
300.02257
300.02669
300.02732
300.02646
300.02488
300.02248
300.02705
300.02673
300.02363
300.01923
300.01448
300.01701
300.01701
300.01909
300.02012
300.02008
300.01896
300.02091
300.0242
300.02196
300.02707
300.02788
300.02895
300.0286
300.02784
300.0269
300.02463
300.02697
300.02792
300.02556
300.0217
300.02654
300.02536
300.02303
300.02405
300.02445
300.01799
300.01675
300.02079
300.01494
300.02087
300.02552
300.02788
300.0267
300.02461
300.02179
300.01811
300.02427
300.02325
300.01686
300.01288
300.02143
300.02732
300.02534
300.02541
300.02104
300.02438
300.02224
300.01668
300.01432
300.01892
300.02374
300.02744
300.0281
300.02738
300.02015
300.02014
300.02118
300.02253
300.01958
300.01382
300.01187
300.01074
299.99877
300.00231
300.00819
300.00918
300.01626
300.00916
300.00817
299.99866
299.99928
299.99073
300.00343
300.01373
300.02227
300.02119
300.0199
300.02094
300.01937
300.01182
300.0107
300.0128
300.00234
299.99888
299.99981
299.98561
299.98543
299.99036
299.97965
299.9903
299.99066
300.00341
299.9997
299.98541
299.98525
299.97312
299.9727
299.97953
299.97285
299.97327
299.96582
299.96501
299.96446
299.97276
299.98611
300.00047
300.00419
300.01002
300.01711
300.01875
300.01147
300.00145
300.01151
300.01005
300.00024
299.99142
299.99228
300.00576
300.00181
299.98673
299.98736
300.00334
300.02235
300.03013
300.03003
300.02853
300.02378
300.02338
300.02736
300.02849
300.02821
300.02824
300.02082
300.02515
300.02407
300.0219
300.01638
300.01858
300.02332
300.02701
300.02768
300.02695
300.01994
300.02097
300.01946
300.02238
300.02128
300.01293
300.01075
300.01188
300.01386
300.01817
300.02419
300.02316
300.02551
300.0267
300.02463
300.02191
300.02101
300.01694
300.00843
300.00252
299.99895
299.99988
300.00361
299.99096
299.9857
299.98551
299.99059
299.99899
299.99961
300.00941
300.01656
300.01525
300.0086
300.00956
300.00387
299.99107
299.97982
299.97296
299.97337
299.97992
299.97342
299.96593
299.96513
299.97301
299.98586
299.98569
299.9907
300.00279
299.99929
300.00021
300.01238
300.01429
300.01851
300.02209
300.02576
300.02798
300.02703
300.02797
300.02714
300.02905
300.02875
300.02809
300.02714
300.02485
300.02118
300.02576
300.02804
300.02694
300.0249
300.02461
300.0236
300.01729
300.01338
300.02185
300.02758
300.02295
300.02003
300.02164
300.02061
300.01129
300.01128
299.99926
299.98563
299.97333
299.96582
299.96571
299.97303
299.98518
299.99873
300.01072
300.01186
300.02119
300.0196
300.02257
300.02147
300.01287
300.01381
300.01814
300.02439
300.02336
300.01689
300.021
300.02571
300.02691
300.02477
300.02191
300.01632
300.00912
300.00333
299.99966
299.98535
299.9905
299.99014
300.00223
300.00814
299.99851
299.99912
300.00912
300.00817
300.01501
300.02103
300.02032
300.02415
300.02643
300.02729
300.02825
300.02903
300.02585
300.02491
300.02731
300.02749
300.02828
300.02939
300.02827
300.02697
300.02194
300.02482
300.01818
300.01696
300.02346
300.02821
300.02578
300.02447
300.02269
300.01386
300.00333
299.99049
299.9793
299.97261
299.9649
299.97258
299.97301
299.97942
299.99014
299.98517
299.98532
299.99966
299.99877
300.00227
300.01296
300.01085
300.01193
300.01969
300.02134
300.02757
300.02162
300.02034
300.02037
300.0109
299.99884
299.98525
299.97311
299.97268
299.96502
299.97292
299.97959
299.9797
299.99056
299.99091
299.9858
300.00018
300.0038
300.00273
300.00857
299.99886
299.99038
299.99072
299.9854
299.99973
300.00352
300.00245
300.00844
300.0094
299.99947
300.00953
300.01665
300.01534
300.02135
300.01733
300.01339
300.0143
300.01237
300.02007
300.02167
300.02766
300.02063
300.02191
300.02301
300.02476
300.01857
300.0251
300.02225
300.02719
300.0283
300.02374
300.026
300.0275
300.02517
300.02128
300.01717
300.01311
300.01401
300.01198
300.01979
300.02138
300.02761
300.02172
300.0228
300.02462
300.0184
300.02502
300.02218
300.02714
300.02831
300.02361
300.02595
300.02749
300.02759
300.02845
300.02609
300.02923
300.02848
300.02757
300.02843
300.02955
300.02383
300.02393
300.02801
300.02921
300.02896
300.02887
300.02891
300.02754
300.02338
300.02739
300.02854
300.03008
300.03016
300.02245
300.02735
300.03003
300.03068
300.02183
300.01016
300.00616
300.005
300.00471
300.00486
300.0052
300.00507
300.00488
300.00469
300.00467
300.00475
300.00468
300.00483
300.00514
300.00566
300.0059
300.00642
300.01059
300.01064
300.01019
300.00839
300.00642
300.00526
300.0064
300.00683
300.00669
300.00552
300.00505
300.00488
300.00535
300.00585
300.00565
300.00614
300.0063
300.00619
300.00895
300.00898
300.0062
300.00521
300.00521
300.00512
300.00512
300.00499
300.00466
300.00464
300.00487
300.00503
300.00514
300.00592
300.00804
300.00675
300.00554
300.00505
300.00496
300.00521
300.00577
300.00684
300.00831
300.00946
300.00947
300.00831
300.00685
300.00578
300.00521
300.00496
300.00487
300.00487
300.00498
300.00522
300.00561
300.00613
300.00655
300.00655
300.00613
300.00562
300.00522
300.00499
300.00489
300.00488
300.00482
300.00483
300.00479
300.00481
300.0048
300.00474
300.00478
300.00465
300.00467
300.00473
300.00461
300.00442
300.00444
300.00446
300.00446
300.00443
300.0044
300.00415
300.00386
300.00353
300.00351
300.00352
300.00352
300.00385
300.00384
300.00385
300.00352
300.0035
300.00349
300.00351
300.00385
300.00385
300.00385
300.00352
300.00352
300.00386
300.00387
300.00353
300.00357
300.00353
300.0035
300.00357
300.00399
300.00386
300.00422
300.00441
300.00479
300.00448
300.00459
300.00427
300.00435
300.00469
300.00576
300.00528
300.00482
300.00523
300.00465
300.00397
300.00391
300.00429
300.00378
300.00406
300.00627
300.00508
300.00405
300.00359
300.00349
300.00387
300.00385
300.00416
300.00442
300.00454
300.00422
300.00441
300.00418
300.00447
300.00479
300.00529
300.00459
300.00427
300.00417
300.00419
300.00389
300.00387
300.00354
300.00355
300.00359
300.00354
300.00392
300.00386
300.004
300.00357
300.00379
300.0043
300.00483
300.00528
300.00437
300.0047
300.00579
300.0097
300.00779
300.00591
300.00489
300.00448
300.00531
300.00591
300.00908
300.00996
300.01649
300.02185
300.03063
300.02853
300.02337
300.01652
300.00835
300.00877
300.01044
300.01017
300.02209
300.03097
300.02866
300.02863
300.02747
300.02877
300.03033
300.02731
300.03055
300.03215
300.03403
300.02987
300.02396
300.03004
300.0328
300.03303
300.03002
300.02549
300.03154
300.03063
300.02865
300.02872
300.03071
300.02265
300.02261
300.00722
300.01319
300.02031
300.02716
300.02982
300.03279
300.03236
300.03322
300.03101
300.02516
300.02838
300.01363
300.01977
300.02685
300.02523
300.02338
300.0219
300.0146
300.01313
300.00262
300.00416
300.01464
300.00876
299.99425
299.99307
299.99221
300.00576
300.00418
299.99136
299.98591
300.00036
300.00171
299.98653
299.98716
300.00327
300.00453
299.98805
299.97222
299.98075
299.9943
300.00874
300.00721
299.99313
299.98027
299.98002
299.97976
299.9726
299.97244
299.96378
299.97261
299.97244
299.97241