/*--------------------------------*- C++ -*----------------------------------*\
  =========                 |
  \\      /  F ield         | OpenFOAM: The Open Source CFD Toolbox
   \\    /   O peration     | Website:  https://openfoam.org
    \\  /    A nd           | Version:  7
     \\/     M anipulation  |
\*---------------------------------------------------------------------------*/
FoamFile
{
    version     2.0;
    format      ascii;
    class       volScalarField;
    location    "330";
    object      alphat;
}
// * * * * * * * * * * * * * * * * * * * * * * * * * * * * * * * * * * * * * //

dimensions      [1 -1 -1 0 0 0 0];

internalField   nonuniform List<scalar> 
24866
(
9.3761843
9.3841942
9.3804652
9.6000957
9.7932784
9.7907218
9.7859548
9.7909597
9.7901015
9.7843926
9.7846983
9.7847413
9.7844201
9.7901413
9.791057
9.7859374
9.7905165
9.7920357
9.7910242
9.7857107
9.7739169
9.7908354
9.8266115
9.8118101
9.7816088
9.7769724
9.7861864
9.8143784
9.8088071
9.7776723
9.7884471
9.7920485
9.7920497
9.788457
9.7777283
9.808863
9.8145047
9.7862949
9.7768458
9.7814055
9.8117316
9.8265588
9.7908245
9.7739202
9.7857402
9.7910832
9.7920596
9.790605
9.7859486
9.7909674
9.7902392
9.7845336
9.7846955
9.7847126
9.7844902
9.7900998
9.7908203
9.7858184
9.7906795
9.7933342
9.7978667
9.7940727
9.7978566
9.7940016
9.7866913
9.78991
9.7967534
9.7927828
9.7838763
9.7838627
9.7838913
9.7838808
9.7928434
9.796811
9.7899187
9.7865378
9.7934048
9.7966399
9.7925137
9.7938351
9.7876789
9.7786661
9.7767303
9.789353
9.7936783
9.7998526
9.7817756
9.7771565
9.7862039
9.8004073
9.7935831
9.7880734
9.7868884
9.7878237
9.7858914
9.7828087
9.7857855
9.7845625
9.7887761
9.7859383
9.7833663
9.7829793
9.7830329
9.7837798
9.7846171
9.7846199
9.7844071
9.7877575
9.7866618
9.7863039
9.782333
9.7905898
9.7952824
9.7926843
9.787858
9.7851225
9.7841227
9.7835349
9.7839508
9.7843249
9.7842426
9.7836336
9.7841039
9.7832069
9.7826501
9.7833884
9.7857331
9.7828541
9.7820304
9.7823093
9.7833654
9.7843966
9.7850102
9.7847097
9.7848139
9.7844486
9.7839549
9.784413
9.7841254
9.7866664
9.7878615
9.7823425
9.7905936
9.7952846
9.6716077
9.6677034
9.5850485
9.5912881
9.599215
9.5992113
9.5912783
9.588551
9.5517385
9.6981895
9.7013465
9.5592606
9.5884603
9.5907222
9.5837928
9.5532873
9.5047325
9.5225557
9.5764033
9.5894812
9.5978681
9.5973657
9.5963937
9.5940282
9.593028
9.5898826
9.5874144
9.5781128
9.5780664
9.5874002
9.5897708
9.5927181
9.5945018
9.5960746
9.5880041
9.5969817
9.6735429
9.6715228
9.5882041
9.5125457
9.598327
9.6003111
9.5907702
9.7893819
9.7854845
9.7893901
9.7859954
9.783324
9.785679
9.7828271
9.7819964
9.7822607
9.7832905
9.7842908
9.784885
9.7850158
9.7851368
9.7848194
9.7843343
9.7846305
9.7868978
9.7877635
9.7935959
9.7863162
9.5911089
9.6023578
9.6284082
9.698257
9.5516843
9.5885274
9.3922863
9.3779529
9.3799607
9.3799562
9.3779435
9.3922973
9.3519965
9.3512047
9.3738512
9.3985127
9.3730559
9.3461821
9.3300379
9.3494092
9.3794912
9.3773681
9.3787978
9.377429
9.3844676
9.3978932
9.3778195
9.3748724
9.3923983
9.3820115
9.3820806
9.3925061
9.3748442
9.3775235
9.398426
9.2051165
9.1936406
9.1863618
9.1866366
9.1933307
9.3838521
9.5957755
9.5946321
9.5925252
9.5898661
9.5873925
9.5780863
9.578091
9.5875552
9.5896009
9.5931893
9.5940445
9.5966531
9.5972906
9.5980391
9.5894539
9.5764504
9.522612
9.6616535
9.7153767
9.7003846
9.5534032
9.5839513
9.5908393
9.5883014
9.5590063
9.7013854
9.6362095
9.5593432
9.5557777
9.510729
9.5886924
9.5835441
9.6210487
9.6665583
9.8004614
9.7862449
9.7771326
9.7880797
9.7936665
9.7878344
9.7846328
9.7842578
9.7847209
9.78412
9.7844066
9.7842952
9.7837794
9.7830137
9.782551
9.7834376
9.7828134
9.7830169
9.7832985
9.7833784
9.783226
9.7830041
9.7836542
9.7838016
9.7859088
9.7893478
9.776742
9.7828383
9.7830618
9.7845964
9.7833951
9.7826706
9.7823245
9.7822722
9.7825568
9.7834373
9.7859888
9.7833334
9.7820112
9.7820484
9.7834087
9.7859714
9.788821
9.7925467
9.7858227
9.7787045
9.7877285
9.7938801
9.6698029
9.5936671
9.5815914
9.6652697
9.5838455
9.5944579
9.5080152
9.3738988
9.3773263
9.3795468
9.3494582
9.3300728
9.5049093
9.535533
9.5474529
9.6070437
9.6165387
9.6285466
9.5864919
9.5081593
9.5509096
9.3544493
9.346213
9.3730752
9.3985374
9.3738316
9.3512007
9.3520182
9.1710051
9.199061
9.1871411
9.1860207
9.186017
9.1871353
9.1990733
9.1709923
9.1651082
9.1816031
9.2080811
9.1810778
9.1585322
9.1562015
9.1783293
9.1901991
9.1862468
9.1846018
9.1836779
9.1938246
9.2046084
9.1877243
9.1845171
9.2037449
9.1974753
9.1974358
9.2037669
9.1845524
9.1875164
9.0161986
9.0289965
9.0216904
9.0143407
9.0145509
9.0214338
9.0291302
9.2052752
9.3985774
9.3773453
9.3750167
9.3922934
9.3820231
9.382149
9.3925875
9.374749
9.3780582
9.3977982
9.3847655
9.3773372
9.3789939
9.1847625
9.1861978
9.1902483
9.1783821
9.1562241
9.1585627
9.1811176
9.2081201
9.1815625
9.1650788
8.9988187
9.0054847
9.0235316
9.0155715
9.0139045
9.013901
9.0155674
9.0235418
9.0054743
8.998844
9.0101594
9.0338844
9.0090611
8.9907951
8.9946626
9.0152235
9.017526
9.0144995
9.0123438
9.0119304
9.0216549
9.0284947
9.0163151
9.0136025
9.029688
9.0258095
9.025835
9.0297998
9.0136824
8.8583061
8.860187
8.8687132
8.8648011
8.8584119
8.8585636
8.8645995
8.8688134
8.8600539
8.8583194
9.0137521
9.1846742
9.2036139
9.1974993
9.1975141
9.203788
9.1844641
9.1879952
9.2044948
9.1940911
9.1835929
9.0118618
9.0124626
9.0144504
9.0175629
9.0152716
8.9946729
8.9908182
9.0091017
9.0339245
9.0101218
8.8548127
8.8471316
8.8533589
8.8641469
8.8593777
8.8578253
8.8578213
8.8593744
8.8641543
8.8533512
8.8471537
8.8548457
8.8745371
8.8529452
8.8383464
8.8449587
8.862877
8.8603813
8.8582179
8.8562425
8.8561837
8.8645279
8.8682059
8.8602104
8.8581789
8.8704548
8.86817
8.8682274
8.8706179
8.7258561
8.7168727
8.7181476
8.7234377
8.7218275
8.7167273
8.7168323
8.7216725
8.7235051
8.7180246
8.7168324
8.7255627
8.8703411
9.0295654
9.0258392
9.0259093
9.0297789
9.0136032
9.0165846
9.0283922
9.0218704
8.8646943
8.8561314
8.8563239
8.8581719
8.8604061
8.8629174
8.8449624
8.838364
8.8529849
8.8745763
8.7294578
8.7138346
8.7086363
8.7139462
8.7198119
8.7172172
8.7160239
8.7160197
8.717214
8.7198164
8.7139409
8.7086557
8.7138626
8.7294212
8.7112159
8.6997512
8.707225
8.722313
8.7177253
8.7160805
8.7144759
8.714627
8.721345
8.7229138
8.7180846
8.716708
8.725661
8.7244166
8.7244942
8.5935882
8.5943364
8.5879505
8.5887191
8.59174
8.5915575
8.5877362
8.5878068
8.5914382
8.5917789
8.588602
8.5878661
8.5940406
8.5935093
8.7244337
8.8681962
8.8682882
8.8705774
8.8582278
8.8604663
8.8681331
8.7228729
8.7214718
8.7145884
8.7145283
8.7160386
8.7177399
8.722345
8.7072251
8.6997649
8.7112536
8.5824028
8.5974868
8.5855623
8.582064
8.5863192
8.5889749
8.5877474
8.5869663
8.5869623
8.587744
8.5889769
8.5863159
8.5820809
8.5855854
8.5974532
8.5823679
8.5734982
8.5808932
8.5933348
8.5880768
8.5867021
8.5854757
8.5857319
8.5909036
8.5911907
8.5885775
8.5877555
8.5941221
8.5934989
8.4738252
8.4739202
8.4743368
8.469874
8.4702438
8.4717468
8.4723895
8.469688
8.4697341
8.4722965
8.4717624
8.4701292
8.4697559
8.4740466
8.4738309
8.4739426
8.5936201
8.7245386
8.7258049
8.7167967
8.7183241
8.5888013
8.5911788
8.5910011
8.5857041
8.5855069
8.5866643
8.5880831
8.5933586
8.5808913
8.5735092
8.4578735
8.4646653
8.4770543
8.4682054
8.4658729
8.4691069
8.4697282
8.4693074
8.4688986
8.4688948
8.4693037
8.469728
8.4691049
8.4658875
8.468224
8.4770238
8.4646331
8.4578645
8.4647572
8.4748759
8.4696395
8.4683888
8.4674745
8.467764
8.4716013
8.4711674
8.4700316
8.4696532
8.4741114
8.3638589
8.3637354
8.3638339
8.3640927
8.3610102
8.3610757
8.3616007
8.3626738
8.3608867
8.3609157
8.3625993
8.3615974
8.3609611
8.360867
8.3638108
8.3637376
8.3638469
8.3640277
8.4742755
8.5942787
8.5878758
8.4697969
8.470242
8.4711797
8.4716784
8.4677445
8.467491
8.4683547
8.4696394
8.4748926
8.4647543
8.3574218
8.3512063
8.356319
8.3664529
8.3600591
8.3585238
8.3608457
8.3602154
8.3602304
8.3601175
8.3601138
8.3602264
8.3602137
8.3608445
8.3585363
8.3600738
8.3664253
8.3562896
8.3511987
8.3574253
8.3655706
8.3606648
8.3594546
8.3587657
8.3590393
8.3617854
8.3609899
8.3608012
8.3607657
8.2597059
8.2618468
8.2617867
8.261887
8.2620867
8.2599723
8.2598129
8.2597341
8.260984
8.259909
8.2599261
8.2609224
8.2597157
8.2596968
8.2598112
8.2618146
8.2617865
8.2618913
8.262018
8.2598776
8.360926
8.3610006
8.3610217
8.361849
8.3590259
8.3587721
8.3594235
8.3606599
8.3655813
8.2641419
8.2576322
8.2521209
8.2559055
8.2641816
8.2596959
8.2587003
8.2602468
8.2588801
8.259091
8.2591908
8.2591874
8.2590867
8.2588771
8.260246
8.2587109
8.2597074
8.2641568
8.2558787
8.2521143
8.2576362
8.2641362
8.2596785
8.2584612
8.2579156
8.2581413
8.2600254
8.2590937
8.2594843
8.1649754
8.1653836
8.1668753
8.1668279
8.1669289
8.1671198
8.1656701
8.1653504
8.1649216
8.1661898
8.1656475
8.1656563
8.1661368
8.1648911
8.1652318
8.1654967
8.1668582
8.1668263
8.1669252
8.1670471
8.1655624
8.1651587
8.2596748
8.2591408
8.2600802
8.2581326
8.2579152
8.2584325
8.2596698
8.1655138
8.169512
8.1643601
8.1595323
8.1622756
8.1690336
8.1660011
8.165364
8.1662751
8.1645088
8.1647651
8.1650021
8.1649988
8.1647605
8.1645049
8.1662745
8.1653729
8.1660098
8.1690112
8.1622513
8.1595265
8.1643644
8.1695106
8.1655254
8.1642752
8.1638056
8.163965
8.1651857
8.164255
8.0755372
8.0764218
8.0769594
8.07802
8.0779632
8.0780641
8.0782678
8.0772643
8.076836
8.0762258
8.0774176
8.0772586
8.0772618
8.0773701
8.0761855
8.0767148
8.0770829
8.0780168
8.077961
8.0780534
8.0781906
8.0771422
8.076599
8.0756052
8.164314
8.165235
8.1639598
8.1638008
8.1642483
8.0759998
8.0773058
8.0808496
8.0768039
8.0726111
8.0745449
8.0800672
8.0781222
8.0777168
8.0781234
8.0761755
8.0763873
8.0766993
8.0766962
8.0763827
8.076171
8.0781229
8.0777242
8.0781286
8.080047
8.0745229
8.0726061
8.0768087
8.0808518
8.0773198
8.0760255
8.0755817
8.0756662
8.0763878
7.9929432
7.9922152
7.9931563
7.9937785
7.9945625
7.9944918
7.9945922
7.9948129
7.9941
7.9936035
7.9929216
7.9939833
7.9940887
7.9940878
7.9939392
7.9928733
7.9934797
7.9939141
7.9945725
7.9944897
7.9945751
7.9947308
7.9939628
7.9933282
7.99229
7.9929874
8.0764338
8.0756636
8.0755738
7.9925717
7.993009
7.9943597
7.9974868
7.9943352
7.9907186
7.9920296
7.9965476
7.9954015
7.9951386
7.9951561
7.9931658
7.9932829
7.9936222
7.9936192
7.9932781
7.993161
7.9951556
7.9951448
7.9954061
7.9965295
7.9920099
7.9907145
7.9943407
7.9974921
7.9943757
7.993034
7.9925816
7.9925891
7.9142026
7.9142912
7.9137045
7.9146344
7.9153067
7.9159211
7.9158407
7.9159403
7.9161736
7.9156431
7.915109
7.9144246
7.9153296
7.915608
7.9156042
7.9152875
7.9143698
7.914983
7.9154551
7.9159435
7.9158393
7.9159176
7.9160861
7.9154906
7.9148015
7.9137843
7.9143345
7.9142033
7.9925885
7.9967412
8.0003778
7.9968435
7.9978209
7.9998091
7.9986107
7.9992355
7.9997624
8.0006
8.0006866
7.9990955
7.9204033
7.9171253
7.9168518
7.9149057
7.9149034
7.9152362
7.9152334
7.9148988
7.914901
7.9168516
7.9171309
7.9173109
7.917863
7.9141598
7.9133367
7.9164485
7.9188835
7.9161393
7.9147514
7.9142692
7.8401882
7.8400527
7.8399536
7.8395117
7.8403893
7.8410851
7.8416023
7.8415187
7.8416172
7.8418559
7.841434
7.840886
7.840241
7.8409806
7.841364
7.8413583
7.8409398
7.8401811
7.8407584
7.8412462
7.841636
7.8415183
7.8415896
7.8417631
7.8412669
7.8405519
7.8395949
7.8399962
7.8400544
7.8401755
7.9142578
7.9147268
7.9161213
7.9188752
7.9164418
7.9133393
7.9141767
7.9178786
7.917307
7.8433859
7.8432437
7.8427607
7.8409107
7.8407814
7.8410858
7.8410835
7.8407777
7.8409073
7.8427622
7.8432507
7.8433912
7.8435421
7.8405033
7.8400354
7.8426932
7.8445564
7.8421411
7.8407115
7.7705097
7.769941
7.7697432
7.769514
7.7692116
7.7700142
7.7707141
7.7711812
7.7711014
7.7711986
7.7714354
7.7710734
7.7705281
7.7699461
7.7705223
7.7709615
7.7709543
7.7704822
7.7698822
7.7703997
7.7708873
7.7712252
7.7711022
7.7711667
7.771337
7.7708924
7.7701719
7.7692965
7.7695555
7.7697446
7.769926
7.7704819
7.8406862
7.8421205
7.8445442
7.8426835
7.8400348
7.8405155
7.8435533
7.7731366
7.7732453
7.7731161
7.7724887
7.7707636
7.7705102
7.7707734
7.770772
7.7705091
7.7707641
7.7724954
7.7731292
7.7732574
7.773135
7.7706381
7.7704344
7.7726948
7.7741027
7.7719754
7.705283
7.7037857
7.7031712
7.7029179
7.7026006
7.702428
7.7031441
7.703834
7.7042822
7.7042129
7.7043087
7.7045361
7.7042013
7.7036709
7.7031634
7.7035836
7.7040439
7.7040357
7.7035439
7.7030965
7.7035423
7.7040183
7.7043356
7.704215
7.7042729
7.7044321
7.7040074
7.7032963
7.7025128
7.7026397
7.7029168
7.7031511
7.7037509
7.7052467
7.7719499
7.7740835
7.7726777
7.7704255
7.7706407
7.7041928
7.7062453
7.7065341
7.7064002
7.7056802
7.7040945
7.7037255
7.7039419
7.7039425
7.7037307
7.7041053
7.7057011
7.706431
7.7065659
7.7062664
7.7042128
7.7042012
7.706114
7.7071598
7.6433939
7.6417328
7.6402039
7.6395446
7.6392414
7.6388653
7.6388132
7.6394378
7.6401071
7.6405582
7.6405066
7.6406008
7.6408112
7.6404803
7.639973
7.6395451
7.6398168
7.6402749
7.6402659
7.6397776
7.6394762
7.6398451
7.6403013
7.64062
7.6405099
7.6405612
7.6407014
7.6402742
7.6395835
7.6388957
7.6388998
7.6392338
7.6395135
7.6401527
7.6416726
7.6433261
7.7071254
7.706079
7.7041721
7.6409563
7.6408383
7.6425261
7.6429232
7.6427713
7.642
7.6405604
7.6400853
7.6402556
7.6402609
7.6401054
7.6405956
7.6420554
7.6428456
7.6430031
7.6425996
7.6409097
7.6410324
7.6426378
7.5819639
7.5824831
7.5810032
7.5794339
7.5787293
7.5783792
7.5779632
7.5780246
7.5785557
7.5791958
7.5796667
7.5796395
7.5797319
7.579918
7.5795726
7.5790949
7.5787482
7.5788762
7.5793166
7.5793073
7.5788373
7.578678
7.5789685
7.5793983
7.5797357
7.5796437
7.5796887
7.5798025
7.5793557
7.5786941
7.5781024
7.5779893
7.5783581
7.5786759
7.579348
7.5808923
7.5823439
7.5817958
7.642561
7.6454331
7.6461872
7.6465722
7.6471695
7.6469192
7.6451689
7.5843645
7.5819014
7.5811123
7.5798224
7.5792495
7.5793797
7.5793956
7.5793026
7.5799114
7.5812445
7.5820731
7.58227
7.5818188
7.5804282
7.580637
7.5227437
7.5238054
7.524119
7.5227811
7.5211486
7.5203913
7.5199922
7.5195466
7.5197197
7.5201561
7.5207601
7.5212673
7.5212723
7.521363
7.5215165
7.5211387
7.5206955
7.5204297
7.5204128
7.5208252
7.5208156
7.5203744
7.5203591
7.5205712
7.5209698
7.5213429
7.5212778
7.5213168
7.5213961
7.5209128
7.5202869
7.5197906
7.5195592
7.5199461
7.520295
7.5209937
7.5225691
7.5238365
7.523452
7.522355
7.5804578
7.5802449
7.5816311
7.5820823
7.5236801
7.523457
7.5226777
7.5215404
7.5208746
7.5209757
7.5210132
7.5209948
7.5217393
7.5229673
7.5238288
7.5240885
7.5236362
7.5224924
7.4668794
7.4671288
7.4679184
7.468031
7.4667835
7.4650429
7.4642128
7.4637549
7.4632831
7.4635736
7.4639136
7.4644773
7.4650421
7.4650889
7.4651774
7.4652884
7.4648567
7.4644508
7.4642653
7.4640926
7.4644686
7.4644588
7.4640545
7.4641944
7.4643289
7.4646936
7.4651239
7.4650966
7.46513
7.4651643
7.4646234
7.464037
7.463635
7.4632743
7.4636657
7.4640398
7.4647608
7.4663834
7.4674796
7.4672154
7.4663449
7.4660429
7.5220823
7.523217
7.4669653
7.4674049
7.4671205
7.4663724
7.4653917
7.464631
7.4647184
7.4647963
7.464877
7.4657967
7.4669585
7.4678699
7.4682293
7.4678195
7.4142371
7.4134648
7.413665
7.414153
7.4140365
7.4128054
7.4108843
7.4099429
7.4094061
7.408906
7.4093267
7.4095695
7.4100927
7.4107412
7.4108432
7.4109303
7.4109862
7.4104739
7.4101047
7.4099982
7.4096502
7.4099812
7.4099712
7.409612
7.4099267
7.4099848
7.4103163
7.41083
7.4108536
7.4108817
7.4108582
7.4102334
7.4096867
7.409377
7.4088668
7.4092496
7.4096442
7.4103876
7.4120829
7.4130204
7.4128426
7.4121952
7.4118909
7.412632
7.4130164
7.4126454
7.4119421
7.4111209
7.4102564
7.4103475
7.4104942
7.410716
7.4118782
7.4130393
7.4140472
7.4145597
7.3631422
7.3629505
7.3623167
7.3624202
7.3625609
7.3621471
7.3608187
7.3586204
7.3575092
7.3568627
7.3563316
7.3568949
7.3570472
7.3575375
7.3582953
7.3584663
7.3585534
7.3585429
7.3579256
7.3575861
7.3575515
7.3570106
7.3572866
7.3572761
7.3569714
7.3574781
7.3574669
7.3577719
7.3583928
7.3584787
7.3585015
7.3584089
7.3576757
7.3571614
7.3569357
7.3562567
7.3566165
7.3570292
7.3578004
7.3595962
7.3603952
7.3602844
7.3598584
7.3595712
7.360155
7.3604593
7.3599775
7.3593206
7.358652
7.3576739
7.3577824
7.3580343
7.3584563
7.3599534
7.3612221
7.3624107
7.3133736
7.3143867
7.3143546
7.3138343
7.3138096
7.3135594
7.3127195
7.3111091
7.3085273
7.3071746
7.3063889
7.3058294
7.3065272
7.3066239
7.3071061
7.3079789
7.308223
7.3083127
7.308236
7.3075108
7.307181
7.3071881
7.3064655
7.3066787
7.3066674
7.3064239
7.307111
7.30706
7.3073581
7.3080886
7.308238
7.3082556
7.308092
7.3072466
7.306743
7.3065684
7.3057281
7.306051
7.3064787
7.3072889
7.3091947
7.3099101
7.3098754
7.3096452
7.3093678
7.3098095
7.310025
7.3094312
7.3088016
7.3082461
7.3071598
7.3072876
7.3076756
7.3083673
7.3103023
7.3118602
7.2657414
7.2678468
7.2691822
7.2692892
7.2688587
7.2687244
7.2680662
7.2665497
7.264314
7.2612435
7.2595914
7.2586615
7.2580806
7.2588449
7.2590018
7.2595295
7.2604702
7.2607848
7.2608817
7.2607476
7.2599659
7.2595998
7.259545
7.2587273
7.2588892
7.2588765
7.2586816
7.2594618
7.259474
7.2598088
7.2605971
7.2608048
7.2608186
7.2605892
7.2596815
7.2591399
7.2589095
7.2579894
7.2582802
7.2587203
7.2595711
7.2615441
7.2623487
7.2624518
7.26231
7.2619578
7.2622651
7.2624141
7.2617708
7.2611098
7.260534
7.259397
7.259535
7.2600605
7.2610747
7.2635525
7.2203483
7.2239473
7.2271355
7.2287553
7.2288884
7.2285309
7.228401
7.2273874
7.2247232
7.2210925
7.2174238
7.215484
7.2144528
7.2138348
7.2143999
7.2150136
7.2156544
7.2164705
7.2169762
7.2170998
7.2167951
7.2161355
7.2156712
7.2151782
7.2145626
7.2147392
7.2147245
7.2145114
7.2150868
7.2155392
7.215969
7.2166187
7.2170033
7.2170306
7.2166198
7.215828
7.2151865
7.2145233
7.2138211
7.2141455
7.2145973
7.2154537
7.2172909
7.2187472
7.2190826
7.2187233
7.2180641
7.2183432
7.2184089
7.2179198
7.2171025
7.2160686
7.2151327
7.2152901
7.2159034
7.2172202
7.1770188
7.1806629
7.1877162
7.193112
7.1944355
7.1942827
7.1940024
7.1941977
7.1934157
7.1884722
7.1814124
7.1772527
7.1752925
7.1742566
7.1735011
7.1731574
7.1753342
7.1761115
7.176356
7.1775203
7.1776239
7.1766864
7.1766375
7.1760495
7.1740316
7.1743312
7.1746956
7.1746797
7.1742748
7.173931
7.1759085
7.1764621
7.1765271
7.1775533
7.1775501
7.1764911
7.1763095
7.1755522
7.1733748
7.1736315
7.1741678
7.1746598
7.1753698
7.1766256
7.1804288
7.1807182
7.1792066
7.1780761
7.1788987
7.1783625
7.1783358
7.177342
7.1748309
7.1747712
7.1750595
7.1756495
7.1448073
7.1450526
7.1478276
7.1584374
7.1676329
7.1675009
7.1671098
7.1668539
7.1673724
7.16801
7.1591926
7.1486416
7.1453588
7.144601
7.1435293
7.1421884
7.1418882
7.1430335
7.1438407
7.1437316
7.1433467
7.1434759
7.1441042
7.1444041
7.143787
7.1428342
7.1430961
7.1440778
7.1440627
7.143027
7.1427115
7.143624
7.1442372
7.1439081
7.1433886
7.1434057
7.1438947
7.1440896
7.1433017
7.142162
7.1424591
7.1436218
7.1443804
7.1444439
7.1464413
7.1529567
7.1543916
7.1490123
7.1461716
7.1452865
7.1458576
7.1460915
7.1450186
7.1435811
7.1433735
7.1443003
7.1192808
7.119594
7.1203787
7.1224601
7.1205972
7.1208803
7.121302
7.1210663
7.1211795
7.1211378
7.1233521
7.1207428
7.1194976
7.118531
7.1178389
7.1190478
7.117874
7.1185269
7.1201548
7.1195949
7.1197348
7.1205384
7.1190884
7.1186645
7.1200271
7.1188509
7.1192284
7.1192082
7.1187727
7.1199131
7.1184914
7.1188993
7.120339
7.1196345
7.1196606
7.1203216
7.1187548
7.118198
7.1193847
7.1182599
7.1188985
7.1197711
7.1206979
7.1231537
7.1189349
7.118515
7.1235353
7.1233568
7.1220158
7.1224463
7.1208811
7.1198591
7.1207398
7.1189832
7.1160858
7.1151294
7.1231772
7.1323093
7.1383181
7.1415862
7.1385898
7.1385739
7.1406902
7.1383128
7.1331097
7.1233472
7.114991
7.115917
7.1232074
7.1327818
7.1422694
7.1473787
7.1368348
7.1101892
7.109479
7.1365523
7.1472607
7.1416411
7.1325378
7.1250336
7.1179692
7.1154554
7.1292433
7.1307096
7.1435962
7.1442522
7.1582843
7.1429952
7.1420139
7.1488094
7.1426047
7.1572727
7.1423533
7.1287983
7.1289171
7.1416185
7.1415396
7.1472376
7.1234829
7.1263827
7.1318779
7.1320541
7.1322726
7.1293319
7.1271172
7.1252898
7.1177409
7.1159525
7.1293218
7.129764
7.1424587
7.1573521
7.1419533
7.1427572
7.143025
7.1485584
7.1522991
7.1500577
7.1635831
7.1536122
7.1540593
7.1497684
7.1436565
7.1372229
7.1365837
7.1436881
7.1499985
7.1480077
7.1640775
7.1507041
7.1475501
7.1374662
7.1207782
7.1253767
7.1253197
7.1241734
7.117239
7.1168844
7.1302871
7.1433514
7.1446773
7.1606855
7.1442998
7.1306301
7.1438274
7.1488657
7.1824224
7.1824762
7.1860493
7.1795702
7.1784696
7.1821517
7.1797242
7.220329
7.264948
7.2708558
7.264044
7.2191354
7.2250786
7.2355942
7.2223772
7.2679047
7.274003
7.2661957
7.2218478
7.2237373
7.2685162
7.2692669
7.224438
7.1838078
7.1494241
7.157248
7.1556749
7.151734
7.1644706
7.1553011
7.1906748
7.2026285
7.2087559
7.1909457
7.193683
7.2071411
7.1665816
7.1689512
7.1613536
7.1744263
7.1673385
7.1561086
7.1499672
7.1836704
7.191909
7.2042024
7.1920386
7.1917815
7.1618577
7.1436191
7.1424091
7.1423203
7.1420738
7.1425161
7.144147
7.1623553
7.1628338
7.1626714
7.1628127
7.1627883
7.1942563
7.1947283
7.1987936
7.1974763
7.157632
7.1297759
7.1395653
7.1364286
7.073917
7.0054975
6.9942155
6.994577
7.0062083
7.0747395
7.0904928
7.1322984
7.1392898
7.1400117
7.1334373
7.0928206
7.0776446
7.0085295
6.9974574
6.9975014
7.0085948
7.0777857
7.0931537
7.1341878
7.1409587
7.1409712
7.1489628
7.1399749
7.1271487
7.1161998
7.1163557
7.1236886
7.1251292
7.1251338
7.1236277
7.1162002
7.1160008
7.1268932
7.1397302
7.148669
7.1400206
7.1394751
7.1323143
7.0895712
7.0730482
7.0009422
6.9886724
6.9876213
6.9996235
7.0721368
7.0887154
7.1315673
7.1386665
7.1382768
7.131124
7.0896835
7.0488341
7.0143992
6.9194211
6.7314819
6.5115301
6.37469
6.3761905
6.515296
6.7358717
6.9222943
7.0162355
7.050941
7.0932686
7.1398308
7.1446818
7.1336737
7.1350183
7.1431971
7.1146966
7.0105101
7.0782632
7.0244275
6.9606565
6.74016
6.5661509
6.4286945
6.2417718
6.1164673
5.9898592
5.9396365
5.9388865
5.9879939
6.1134706
6.2370949
6.4230956
6.5612213
6.7340926
6.4243379
6.2645717
6.0516769
5.9094518
5.7583196
5.6992016
5.6999446
5.7603624
5.9128575
6.05658
6.2709374
6.4299957
6.2464665
6.525773
6.815115
6.9072385
6.8889584
6.9998321
7.0000518
7.1147808
7.1432098
7.1350271
7.1337527
7.1447524
7.1399451
7.078695
7.0109754
6.9079323
6.8890982
6.7770039
6.7767179
6.3928766
6.0004893
6.1241241
5.9198854
6.0604178
5.8630813
5.6763518
5.512568
5.4280073
5.4274349
5.5101997
5.6722977
5.8579026
6.0532459
6.2399564
6.5179712
6.116834
5.9116984
5.6735304
5.429185
5.2306159
5.1228913
5.1234271
5.2327876
5.433557
5.6797858
5.5184987
5.7701464
5.7111878
5.9510682
5.9506423
6.3929979
5.9994282
5.7692365
5.7106265
5.434736
5.4355479
5.1274954
5.2354971
5.0035212
4.8745069
4.8739493
5.0015253
5.2312451
5.5119719
5.7612657
5.9922735
6.382847
5.9429258
5.7018521
5.4285615
5.1227082
4.8735299
4.7347653
4.7352569
4.8757841
4.8747846
5.1267286
5.2335682
5.5166706
5.6778556
5.9187131
6.1232909
6.5266876
6.8160216
6.9616752
7.0249466
7.051668
7.0937516
7.1342917
7.1242052
7.103079
7.0172614
6.9243219
6.7425657
6.4320605
6.2463619
6.0602367
5.8620336
5.6749427
5.4307847
5.2300392
5.0006183
4.8716914
4.7340314
4.733343
4.8722821
5.1220766
5.4279137
5.7017849
5.9428867
6.3835495
5.9920715
5.7608104
5.5104357
5.2289867
4.998531
4.8708431
5.1201599
5.1205508
5.4264645
5.5105411
5.7615116
5.9140914
6.0577158
6.2730316
6.4308845
6.567686
6.7410012
6.5220449
6.2428806
6.1179802
5.9914514
5.9415327
5.7013631
5.7011292
5.425816
5.5093227
5.2280247
5.4274102
5.6722785
5.9114837
6.117087
6.5197676
6.2413493
6.0542731
5.8577675
5.671912
5.9118056
5.7601852
5.990596
5.9411057
6.3852086
6.3855835
6.7718658
6.8115126
6.9601011
7.0163546
7.0506719
7.1240612
7.1347806
7.1411016
7.1331653
7.042584
7.0219321
6.8763841
6.8623549
6.8622971
6.8760396
7.0217832
7.0424915
7.131622
7.1333112
7.1226335
7.1334198
7.122324
7.0480816
7.0199304
6.8982638
6.8780364
6.8764199
6.8959668
7.0182633
7.0463227
7.1209173
7.1320511
7.1209237
7.0990436
7.0114421
6.9526956
6.8016571
6.7606371
6.7625
6.8044569
6.9552656
7.0136838
7.1009299
7.1151713
7.1315787
7.0399131
7.0184817
6.8688621
6.8541046
6.8522247
6.8665211
7.0168326
7.0383029
7.1300657
7.1385474
7.157368
7.1301955
7.1134355
7.0208162
7.0438428
6.9743664
6.8123275
6.8576064
6.7813309
6.4029229
6.5356685
6.7487664
6.9363007
7.0239043
7.0413365
7.0471903
7.0203771
7.0216809
6.95734
6.8123097
6.9051078
6.8863146
6.7727487
6.7736086
6.8868037
6.9060982
6.8137162
6.9593247
6.7378748
6.5643942
6.4268691
6.2400107
6.1163357
6.5203298
6.7385647
6.9228361
7.0161128
7.0499614
7.0228202
7.0211902
6.8772409
6.8631286
6.8626674
6.8765295
6.8685596
6.8229552
6.9786917
6.7517779
6.5506173
6.4646204
6.4092397
6.3773912
6.4304621
6.2694707
6.4316953
6.3778061
6.2851917
6.0151693
6.1029728
6.213433
6.1116681
6.0198279
6.0094828
5.9180636
5.9092408
6.0359989
5.8500911
6.0377229
6.216672
6.5427425
6.1049789
6.0118581
6.0165336
5.9202073
6.021751
6.1150458
5.9115076
5.7462862
5.9699463
6.4118763
6.7930543
6.7938658
6.8689895
6.8238952
6.9800536
7.0476023
7.0418368
7.0246737
6.9381741
6.7540018
6.5434711
6.4123115
5.9292897
5.9293252
5.8030015
5.8358247
5.7449722
5.7270814
5.68699
5.6934254
5.4191244
5.5024597
5.6666586
5.6632059
5.8470067
5.6622223
5.6652829
5.4136746
5.3975246
5.188711
5.4950958
5.7245418
5.8328878
5.9652037
5.9249994
5.8000963
5.7416082
5.6841593
5.690638
5.7431685
5.500537
5.4179541
5.41163
5.0769893
5.1009516
5.2105288
4.9759573
5.2112814
5.1889817
5.4966357
5.4127056
5.0766107
5.1007058
4.8451754
4.8114454
4.9455324
4.8123828
4.8454949
4.7031739
4.6656182
4.6248921
4.7760586
5.0499653
5.408238
5.4925117
5.6629151
5.8513444
5.8394413
5.6408746
5.359683
5.6424361
5.6639162
5.3794496
5.1643534
5.1387048
5.4723446
5.3818164
5.0209536
4.9959858
5.3933308
5.7221526
6.4720892
6.6057085
6.803604
6.9801504
6.9616025
6.7928502
6.5946474
6.4715661
6.4732982
6.859834
6.7832735
6.8147802
6.9765655
7.045397
7.0224503
6.9381375
6.7523322
6.5389826
6.4043001
5.92581
5.8007549
5.7425077
5.833684
5.9668703
5.7450303
5.6914011
5.684866
5.7254917
5.9209889
6.0222365
6.1143301
6.2174159
6.1058181
6.0120608
6.0176523
6.0399892
5.9121956
5.668983
5.5028298
5.418413
5.412017
5.4967946
5.1902067
5.0770978
5.1013972
5.2124638
5.4175731
5.400896
5.6649133
5.850447
5.8541953
5.6719721
5.6674985
5.501021
5.1922814
4.9473752
4.8125948
4.8460103
4.977618
4.8471967
4.7035401
4.6657946
4.8129968
5.0799217
5.1048112
5.2148575
5.5076657
5.4248878
5.4172333
5.6944168
5.7343814
5.9267129
6.0225383
6.2902992
6.3821842
6.4354056
6.5551759
6.7546499
6.4686196
6.4133329
6.382025
6.4369566
6.2749333
6.0439796
6.2228192
6.5456848
6.110166
6.0172432
6.0272048
6.1218713
5.9185431
5.7539426
5.9776548
6.415463
5.8421998
5.7514678
5.8088037
5.9368582
5.7013926
5.7008379
5.4237924
5.1041518
4.8460385
4.7022918
4.7015981
4.8438058
5.1001311
5.418343
5.6933751
5.6868137
5.8024624
5.744241
5.8347151
5.969429
5.7456044
5.7261546
5.9190057
6.0207543
6.1148911
5.9106586
6.0375886
6.2169923
6.1035836
6.0099626
6.0148983
5.8446091
5.6608009
5.4946768
5.4117804
5.0753451
5.1860358
5.2085776
5.5005447
5.6647046
5.4111994
5.3941092
5.6589611
5.6636641
5.8486913
6.0374696
6.0539869
6.2679491
6.4277373
6.4344546
6.3794851
6.4101362
6.2864941
6.271706
6.4338245
6.752391
6.5531831
6.4652522
6.3782706
6.1023163
6.0148609
6.0086461
5.9177097
5.9102516
6.1140418
6.5396568
6.2157816
6.0184779
5.8310166
5.7233698
5.4912359
5.1840399
4.9421381
4.8098797
4.6637877
4.8082199
4.8420224
4.9724988
5.2071138
5.0973548
5.0715696
5.4069531
5.4147027
5.4982144
5.7435464
5.6911191
5.6831797
5.7395596
5.7974485
6.4073969
5.9672385
5.9266371
5.9270215
5.6913399
5.4153125
5.0977421
4.8428045
4.8083959
4.664367
4.8117802
4.9433733
4.9743357
5.2126548
5.1890948
5.0785477
5.4158699
5.4985428
5.5056031
5.6692289
5.413947
5.2089336
5.1851612
5.0718407
5.4070522
5.4918285
5.4992317
5.6662084
5.6606542
5.3960844
5.6637886
5.8468707
5.851945
6.0425345
5.9167848
5.7527548
5.7325171
5.6930507
5.7496191
5.8076188
6.4153069
5.936228
5.9762347
5.8400423
6.0249723
5.9238177
6.0138676
6.0190869
6.1069588
6.545559
6.1204638
6.221497
6.4381637
6.2759667
6.0397782
5.9121689
5.7446461
5.7238277
5.683322
5.7397325
5.7976397
6.4076296
5.9679308
5.8309285
6.0199517
5.919246
6.0096378
6.0159708
6.1031661
6.5407585
6.1153013
6.2178552
6.437162
6.7539045
6.3814332
6.2900839
6.4125323
6.3819967
6.7555693
6.5561071
6.4677759
6.9386876
6.9634016
6.7981329
6.6026244
6.4821325
6.4824277
6.6033865
6.7981443
6.9631547
6.7957895
6.5975716
6.6081547
6.4733731
5.7230763
6.0098285
6.0153251
6.6460287
6.8896899
7.1736921
7.206524
7.1916595
7.1827062
7.1494394
7.1560788
7.1538067
7.1890926
7.1845587
7.1837817
7.1854245
7.180109
7.1905795
7.2019595
7.2076074
7.167854
7.1661394
7.1290449
7.1283722
7.1731929
7.2075879
7.2192091
7.2077721
7.219356
7.1741411
7.1465768
7.1377808
7.1282433
7.1556983
7.1649546
7.1684823
7.2100933
7.2084813
7.1661498
7.1368098
7.1122068
7.1123024
7.1367959
7.1297326
7.1298243
7.1579377
7.1578598
7.198707
7.1945828
7.1942324
7.1974957
7.1577175
7.1299677
7.1396136
7.1365627
7.1467511
7.1380002
7.1286679
7.1255371
7.1327707
7.1418686
7.1482808
7.1393027
7.1136439
7.1137277
7.139608
7.148917
7.1428638
7.1331987
7.1236987
7.1164422
7.1153247
7.1234775
7.1332261
7.1400043
7.1447026
7.1429558
7.1428593
7.1443835
7.1394154
7.1323857
7.1229837
7.1155609
7.118243
7.1307385
7.1292567
7.1420041
7.1429762
7.1442422
7.1582143
7.1436522
7.1796548
7.1840528
7.1923962
7.192249
7.2289356
7.2312698
7.232019
7.2321899
7.2313439
7.2284904
7.2705963
7.3165964
7.3655856
7.3726805
7.3663825
7.3622398
7.3123937
7.318732
7.3117583
7.3618283
7.368573
7.3814897
7.3655785
7.315689
7.3218625
7.313777
7.3638464
7.3660988
7.3161364
7.316875
7.3667536
7.3820826
7.3792401
7.3716474
7.3966584
7.3459142
7.3314926
7.2829094
7.2963009
7.2478312
7.2283743
7.2346887
7.2811028
7.2835456
7.2368137
7.2549476
7.2555653
7.3055961
7.3062923
7.3588886
7.3320483
7.3293473
7.356763
7.4089102
7.4124208
7.4151363
7.435839
7.4305419
7.4060537
7.3817906
7.3319855
7.3169714
7.2698471
7.2252645
7.2367248
7.28368
7.2975475
7.2766972
7.2325119
7.2495805
7.2574725