/*--------------------------------*- C++ -*----------------------------------*\
  =========                 |
  \\      /  F ield         | OpenFOAM: The Open Source CFD Toolbox
   \\    /   O peration     | Website:  https://openfoam.org
    \\  /    A nd           | Version:  7
     \\/     M anipulation  |
\*---------------------------------------------------------------------------*/
FoamFile
{
    version     2.0;
    format      ascii;
    class       surfaceScalarField;
    location    "330";
    object      phi;
}
// * * * * * * * * * * * * * * * * * * * * * * * * * * * * * * * * * * * * * //

dimensions      [1 0 -1 0 0 0 0];

internalField   nonuniform List<scalar> 
74922
(
-0.16876632
0.3244148
-16.373986
21.540985
-2.5336015
-2.7890456
0.10482242
-16.28216
-1.2115812
17.022951
-17.608265
17.974592
-0.0031960386
-18.152118
0.22769955
0.29987208
-0.00033953694
0.62098984
0.024481919
-0.42242181
0.68731551
-0.63339583
16.347088
-1.9076466
-2.0910419
29.52315
-0.3273203
-0.83788641
21.547521
1.7765833
-0.62124881
17.64092
-0.49264627
-2.1457378
24.773367
-0.083306078
-1.672016
27.796406
0.35614645
-1.6743442
27.854569
-1.8441751
-2.1531522
24.915332
0.33653314
-0.61020406
17.773039
1.8325565
-0.82974468
21.696111
-0.46547762
-2.0874155
29.812182
-0.74561661
-0.6522681
16.493584
0.46973109
-0.48618127
18.422869
0.40252571
-0.51026199
18.294246
0.26306346
-0.7701269
16.692823
-6.5417754
-0.6984348
29.908453
-7.2597429
1.6402936
27.550406
3.6773218
-0.13930536
28.553011
7.1013643
1.5483763
19.842942
4.5901903
-1.9581374
25.434747
-2.6569868
-3.9657824
26.015425
-3.39782
-1.3276858
22.479775
0.85304155
1.3414459
17.491104
7.6448996
2.1682855
24.759374
-0.74003937
-0.22296906
28.386469
0.04264915
-0.68466326
16.417879
0.0004263305
-0.62352306
17.932522
-0.042349854
-0.62371753
17.932549
0.73956601
-0.68541803
16.418531
-7.6300824
-0.22540993
28.378193
-0.85281731
2.1626435
24.751637
3.4072294
17.464089
1.3369476
2.6602117
22.44017
-1.3322131
-4.6054104
26.056053
-3.9593703
-7.0968529
25.49617
-1.9439019
-3.6747923
19.859381
1.5667075
7.2699215
28.578348
-0.11172441
6.55685
27.576155
1.6594245
-0.27134134
29.926041
-0.68726503
-0.37629057
16.706106
-0.76449716
-0.4937652
18.292842
-0.50801962
0.78758972
18.424467
-0.48366274
0.41953156
16.462306
-0.65220548
-1.7985424
29.796121
-2.0810175
-0.41583288
21.628191
-0.83393675
1.7883308
17.687482
-0.60185485
-0.50469828
24.847321
-2.1444423
-0.094062584
27.81986
-1.6635616
0.35358818
27.846201
-1.6709036
-1.8040462
24.90077
-2.1662732
0.25814233
17.679691
-0.6163764
1.9774367
21.628967
-0.80906651
-0.73625852
29.615853
-2.0748704
-0.55142845
16.380529
-0.62592647
-0.42364771
18.147557
-0.39764313
0.80850075
7.5350593
0.39970892
31.277799
-0.18857411
-0.16751253
0.83376924
7.5329488
1.4032998
5.8000814
-3.8802427
-1.1922134
33.054626
-0.51145135
-3.4945936
1.5315105
35.998845
1.3807183
7.974946
2.5994348
5.9189759
-0.18843557
-1.6743327
25.935288
-0.051173096
-3.1562142
29.02525
0.10603369
-3.1558597
29.068043
-2.6458041
-1.6888672
26.041697
-1.3989397
5.9494838
0.52601761
8.0249071
3.9653813
-3.5101382
1.5484801
36.143931
-1.2444722
-1.2742054
33.178647
-0.80323813
5.826205
-0.37210639
7.5758674
0.66138004
-0.73790806
-0.38744703
30.997477
0.68928094
7.4408198
0.80098693
5.7527685
-5.9261412
-1.0619668
31.555454
-7.1496035
-3.5011938
38.34302
-1.3464384
-5.1812511
40.891092
1.377111
4.4509726
-6.0318661
44.685927
7.0936941
8.4627836
4.9150632
8.98907
-3.4711464
-0.56723893
25.330239
-4.6543374
8.2506111
0.55358976
7.8795801
2.8205566
-4.9123946
3.2237276
42.345777
-5.7927485
47.731272
0.020373236
-6.9506073
1.3099435
42.819661
2.045274
-7.0334281
42.4182
3.9927001
-6.4068293
40.545517
3.9005704
-5.1106745
38.070162
-3.5994611
38.400314
3.6415948
-3.8635281
-4.2657637
38.118443
-2.6700925
38.874077
-4.8271552
-1.9686213
37.597567
-5.0851608
-3.0635179
39.687776
5.0980034
-4.2077516
-3.8839651
41.552643
-3.8276154
40.037353
-2.3001269
-5.9552429
41.79377
-0.28920179
-6.3813392
43.064517
1.70361
-6.3663496
43.263533
6.2877613
3.3789977
-5.9376422
42.280101
2.8771061
41.253938
3.3713751
3.6985125
-5.0756095
38.644551
6.887395
38.195343
-0.80496117
-0.7858414
32.883074
-0.42560814
5.7041452
-0.49241998
7.3715421
-0.75179951
-0.75190109
0.49388803
30.685599
-3.6577517
38.720306
-4.1356304
-4.1385418
3.6571336
38.422288
-5.1476224
40.56858
-3.9446025
-3.956843
5.1391709
42.298442
-1.9784007
-4.4090955
43.724697
0.29375014
-4.6472784
44.432136
2.4825927
-4.6538726
44.244251
-4.409582
43.204953
4.5446277
-2.2429864
-2.6236838
44.209432
5.6768447
-2.0033721
42.600776
5.6797741
-1.5764409
40.477725
4.4141104
-0.90254793
38.126294
-0.34025493
37.382156
-4.9343699
0.044270871
33.539909
-6.0774283
0.053894462
37.833944
-5.9598313
0.075644392
40.788502
-4.7009356
0.10517407
43.049362
-2.6794159
0.13864755
44.644015
2.3396992
0.17389695
-0.2520243
45.552667
-0.27318034
45.164183
2.1795098
-2.323073
45.381263
4.386773
-2.2057917
44.863346
5.9209627
-1.9929712
43.730541
3.3840437
-1.7101717
6.2770244
42.288813
5.0710203
40.571996
3.6981762
-2.8778466
3.3716513
38.648527
0.7887137
38.721955
-0.80436158
-6.8833896
32.883661
-0.42616743
5.7043405
7.3716913
0.40007535
4.391605
2.5800109
2.201241
3.9031748
0.13705078
2.4271116
-0.30315322
-0.059768064
-0.13563994
0.52837226
16.270681
-8.9721881e-05
17.656339
0.14032961
0.13513983
17.656652
0.14017818
0.52684366
16.269989
-0.13701272
0.83544985
30.987502
-2.6864634
-16.823592
0.12822075
19.125395
-1.5552672
1.5310578
6.3718222
14.351767
4.6191123
-0.55790478
16.014421
-1.1441582
0.11022373
23.825794
-1.986993
-1.3181589
30.994451
-3.4518267
-0.36995369
27.869583
-2.5638035
2.5540439
23.613273
-22.904294
-2.5093159
-0.24170511
16.020044
-11.401532
-1.74542
-3.9935206
19.39307
-14.045694
-1.7534666
-1.0245307
30.121255
-2.7583363
-0.43707352
16.481917
-0.20608296
-0.23828409
17.877554
0.23383872
0.14184792
17.795532
0.21510331
0.3405723
16.429843
-0.048603587
-0.26647091
32.04321
-1.4830606
0.18652343
20.945549
0.24073224
0.63103167
17.271215
-0.030603788
0.015502704
26.823131
-1.3789268
0.057880351
29.011255
-1.2232952
0.076019801
28.985963
-1.2224888
-0.58629313
26.738913
-1.377511
-0.17978944
17.186366
-0.03357479
0.25013383
20.820073
0.24051078
-0.4391498
31.807834
-1.4665582
-0.045772232
-0.081067782
-2.2015974
-0.21242424
2.4493172
-2.567303
3.0832945
-0.29718718
0.43552572
4.53012
4.0340097
4.8221499
-0.17014993
-0.83041447
-6.0192247
-1.9564418
-2.4892249
32.33616
-2.4756194
1.9500423
-38.981765
37.992722
-1.9150964
-2.678654
3.0935686
-3.3902218
-2.5675723
1.1748029
3.4175787
-3.6876868
-3.7281302
38.16373
-2.5402648
38.963628
-1.9516692
-4.7304398
37.513334
4.4071899
-0.97730363
-5.6436073
38.025403
-0.40812913
37.273399
-4.9326075
33.501958
-6.0678754
37.792999
-5.9354015
1.678326
40.728757
-4.6638577
2.1459596
42.946991
-2.6427498
2.4347964
44.482748
-0.23027457
2.5893424
45.34115
-0.21004388
2.2858268
2.6398329
45.561338
2.2828774
45.7895
4.6126552
0.24591386
45.389233
6.3394765
0.2786144
44.445485
6.9317198
0.28246548
43.279009
1.3120131
5.7802425
0.018201392
42.834783
4.9070718
41.262491
3.2223557
-0.55118475
2.8207335
42.35022
38.195348
4.8950014
3.0687453
-3.550238
38.837717
-5.0558775
-2.7170634
1.0377295
6.2129985
0.3613369
-6.3701582
0.49355514
3.1595396
16.805745
1.5331462
-0.8368022
0.12804417
-1.5512818
19.13547
30.992126
-2.6846195
1.0298944
2.2136104
29.788659
-2.1755196
0.049160546
17.035723
0.029049033
-0.00051486454
18.060097
-0.41811068
-0.049940384
18.060565
-0.41846756
-1.0311439
17.035853
0.029133273
2.2113262
29.789085
-2.1768598
0.03924592
21.753974
-0.57137075
-0.98948263
17.362861
-0.38762144
-1.7505841
25.613083
-0.96808933
1.2537507
29.468428
-1.4935163
1.2094535
29.11902
-1.3232217
0.39608131
25.267667
-1.1332702
-0.16160998
17.342407
-1.0613819
-1.3170154
21.757984
-1.3286485
0.47174634
29.845009
-1.6453168
-0.25019609
17.020803
-0.041958202
-0.28956423
18.103827
-0.27797473
-0.23166043
18.096697
-0.41508652
-1.3229916
17.133262
0.20120509
1.6659242
30.20019
-1.2819285
0.037293455
22.414789
0.15825488
-0.99916402
18.148143
0.19286821
-0.075799217
26.499038
-0.54904951
0.037617562
29.996588
-1.081208
0.14051658
29.938215
-1.0824614
1.0232024
26.416168
-0.55393872
-0.037498476
18.092936
0.18755824
-1.7082935
22.328824
0.16099713
30.052774
-1.3006358
0.13417354
0.11790415
30.799512
-0.97800133
0.067821701
17.513405
-0.39479871
-0.0022776568
18.693755
-0.62885011
-0.068810604
18.695489
-17.978734
-0.62989309
-17.033432
17.518321
-0.13049946
-0.39382058
-16.298688
-1.2093219
0.10738347
0.17133642
0.44512539
-0.21761607
-0.042847272
-0.23798877
31.851616
-1.4618066
0.20859074
20.864389
0.25383467
0.63977392
17.234456
-0.033093117
0.02134488
26.79022
-1.3820761
0.075498873
29.008042
-1.2216371
0.10127332
29.010015
-1.2158111
-0.57382803
26.78946
-1.3701569
-0.14618043
17.243592
-0.023600563
0.28025519
20.908761
0.23240129
-0.33158277
31.993035
-1.476662
-0.14539377
16.415779
-0.047630153
0.23856629
17.791346
0.21734442
0.43196078
0.23556393
17.879661
1.023333
-0.2027405
16.4881
3.9919222
30.131611
-2.7533967
-14.049354
19.394758
0.24151838
-1.7541863
-12.005989
11.417163
14.233601
9.769564
6.8439286
22.946968
6.3552574
0.3695058
2.5507451
-2.5132376
23.604563
1.3139058
27.843594
-2.5656664
-0.11444811
30.97073
-3.4525964
0.54912192
23.850261
-1.9844608
-14.317381
-1.1403062
16.037565
4.61858
2.7621906
2.3499446
-0.090565115
1.9736223
-0.26117283
2.5554221
-4.5992924
15.341335
-2.1491837
-3.1646148
-3.5386149
3.9642077
0.58983827
-4.2172019
6.8407249
0.69342563
-6.4815634
-7.8789998
0.12318299
4.658937
3.4720372
8.2518048
-0.55843002
25.337581
-4.919318
-4.4528042
47.746571
-6.011943
1.345563
44.710775
1.3517008
-7.0061878
2.0438963
42.439449
-6.3441024
2.2941701
43.086442
-4.6068723
2.4685679
44.264915
2.5980704
45.180282
-2.1790977
4.5224304
4.353417
44.231199
0.20519664
4.6668091
44.659661
2.4984878
4.6176415
44.490749
4.4133399
4.3578671
43.711093
5.5881483
3.8423317
42.307767
3.0353403
40.325716
-4.8664853
39.540804
-3.9005268
4.8212405
41.120823
-2.2121903
5.5454286
42.315703
-0.17353013
5.8996844
42.961127
1.9375179
5.9326784
43.06823
3.8254956
5.6580517
42.623153
-4.1954272
5.0508038
5.0735656
41.57714
5.910264
43.230199
6.3734112
3.8221528
41.81956
5.1571009
3.9917671
40.570276
7.152916
40.919594
-3.4791478
5.9283128
38.37012
-5.0757504
3.8982042
38.094857
4.2600994
40.062482
-3.8220168
3.6340326
3.5694578
38.136229
-3.0130256
4.8142528
39.704049
-1.5207982
5.6623744
40.493702
0.13259585
6.0566114
40.805818
1.7350896
6.0442041
40.747306
3.0864731
5.6163454
40.342429
4.7009608
39.551491
-1.9836367
3.4800136
37.539574
-1.0095697
4.3959394
38.054485
-0.083342633
4.9208863
37.815997
0.87287382
4.9179018
37.845055
1.9391599
4.3951099
38.127711
2.6437911
3.4933896
37.59673
0.37083575
1.2607481
38.876475
-0.73680048
0.65400928
31.005699
0.36296986
1.0421995
38.421279
-0.80314544
31.576792
-0.67666467
5.7560619
7.442919
2.5915541
0.44727343
4.4040915
0.10378679
-0.34027537
3.0636066
-2.2355586
-0.27718605
2.4137909
3.9677767
-0.1629171
4.8014308
-0.94792302
6.0490781
-2.148179
16.327906
0.038895925
0.27723783
-2.7247906
21.509517
-2.7729538
-0.47443095
-0.24797353
17.02385
1.3147588
29.851008
-1.6408023
0.16063941
21.761716
-1.328707
-16.007327
-0.40226574
17.34493
-1.0623803
-1.7492198
-3.1752465
20.10925
-6.2038089
-3.4264417
-4.0462262
3.8919905
0.40543081
-2.3609644
0.9244734
6.9936184
-8.983569
0.43673802
2.5240231
4.2679723
5.2919743
0.37942985
-2.2229076
-2.5395954
18.717179
1.1365595
27.340497
-1.4562958
-8.2228707
-0.080711444
-1.2103361
25.270314
-1.2538889
29.122051
-1.3268763
1.7477685
29.469506
-1.4951562
0.99254297
25.609655
-0.96651232
-0.040680616
17.35934
-0.38562394
21.752496
-0.56875179
-0.35672854
0.032117262
22.831968
-0.75176301
0.0044591281
30.72393
-1.2884499
0.011048026
17.535064
-0.47525395
-0.0006068541
18.752401
-0.65877524
-0.011826697
18.752784
-0.65912151
-0.005630963
17.535226
-0.47493057
0.35515397
30.724193
-1.2880824
0.031054632
22.832194
-0.75177555
-0.34783552
18.467635
-0.69324345
-0.34610266
26.81826
-1.1639147
0.18338932
30.324478
-1.3479258
0.47202706
30.293776
-1.4116562
0.2555152
26.788378
-1.2337504
-0.13286802
18.469301
-0.69435402
-0.59776759
22.84129
-0.61866862
-0.24866929
30.712851
-1.2020705
-0.19167052
17.512267
-0.50976988
-0.24298131
18.746788
-0.56496045
-0.17708853
18.748708
-0.69491134
-0.22761195
17.573024
-0.3588633
0.064547719
30.883666
-0.95428496
0.0020238452
23.043217
-0.6003816
-0.17446349
18.668169
-0.41483971
-0.12936793
27.038807
-0.62722119
0.019984727
30.489796
-0.64776643
0.15607462
30.482693
-0.6471161
0.18595288
27.010457
-0.62746649
-0.0099653623
18.632239
-0.41823747
22.989365
-0.59187341
-0.04239209
0.014010302
23.235631
-0.21789216
0.020929847
31.090027
-0.35068017
0.0033561905
17.685102
-0.15321421
-0.0012815905
18.910199
-0.21231172
-0.0043201748
18.910884
-0.21283952
-0.018563837
17.686402
-0.15279771
-30.813086
31.094119
-0.35036338
0.054321665
-30.081336
-0.97684498
0.13536446
1.7288777
-1.2975036
0.06358381
0.17507475
22.355121
-0.97503987
18.114319
0.18528175
-0.054711434
26.471652
-0.55438224
0.061056272
29.990099
-1.0810047
0.16697731
29.95383
-1.0775298
1.0553512
26.449371
-0.54379735
-0.0048977252
18.129785
0.20057276
-1.6339677
22.392854
0.14454848
1.3302864
30.176792
-1.2793246
0.23312838
17.124657
0.20172464
0.28738787
18.093212
-0.41325726
18.104638
0.19027015
-0.2420924
18.747916
-0.56473136
0.24670606
17.514265
-0.50811347
0.59565668
30.716369
-1.1994764
0.13189524
22.843509
-0.61856553
-0.25665832
18.470458
-0.69353269
-0.47321638
26.789208
-1.2330193
-0.1844437
30.294053
-1.41078
0.34511043
30.324433
-1.3474334
0.34656043
26.818032
-1.1646962
18.467379
-0.69449662
-0.0092697769
-0.095865784
18.802066
-0.22708868
-0.11691316
23.204316
-0.26278288
-0.04044251
31.086428
-0.4354041
-0.02655785
17.703229
-0.18076297
-0.00062815684
18.943672
-0.21619147
0.025933791
18.943726
-0.21647823
0.039624451
17.703335
-0.18050983
0.11592246
31.086599
-0.43513765
0.0086907503
23.204432
-0.26307089
-0.096504854
18.802213
-0.22690286
-0.099245396
27.218502
-0.39476562
0.019555131
30.67264
-0.46063649
0.10863055
30.682143
-0.46832576
0.059699462
27.240108
-0.39836341
-0.065953256
18.817839
-0.22281829
-0.25186296
23.212802
-0.18677508
-0.17585536
31.064295
-0.42418578
-0.13355871
17.678861
-0.20769194
-0.14780565
18.928855
-0.16651299
-0.076903244
18.928788
-0.25005725
-0.087622727
17.712599
-0.12677435
-0.002214403
31.133933
-0.33171737
0.0020779667
23.266581
-0.22650138
-0.033741792
18.857684
-0.15167985
-0.028441493
27.274162
-0.23472289
0.0066765212
30.701669
-0.23978155
0.038003241
30.693984
-0.23910705
0.032198838
27.253995
-0.23518119
18.835833
-0.15553256
-0.025922367
0.018213838
18.878762
-0.036599977
-0.044358652
23.286727
-0.033558054
-0.01807356
31.142329
-0.078491594
-0.0094642447
17.710895
-0.034451814
-0.0014587477
18.941488
-0.039457823
0.0079729417
18.941329
-0.040016892
0.018181995
17.710232
-0.034006645
0.049575142
31.141214
-0.078220389
0.032833548
23.286953
-23.241335
-0.029583988
-18.838839
18.877919
0.031478747
-0.038197448
-18.643786
-0.0061446259
-0.02822883
-0.15929991
-0.14625343
-0.42341609
-0.031056859
-0.10211514
27.018001
-0.63292089
0.048055695
30.483135
-0.64907743
0.18603761
30.492991
-0.64400482
0.21810597
27.034875
-0.61986663
0.022818017
18.658782
-0.40797115
-0.040390288
23.030033
-0.61239012
0.23608322
30.872751
-0.95160487
0.17904144
17.569443
-0.35761508
18.747426
-0.69430689
0.14703926
-0.078126459
18.929428
-0.25006428
0.13241267
18.930399
-0.16657821
0.17426614
17.680443
-0.20683279
0.25018727
31.066651
-0.4229343
0.065295724
23.214185
-0.18693863
-0.060305133
18.818621
-0.22247465
-0.10920663
27.240712
-0.39813286
-0.020140382
30.68238
-0.4682491
0.098627735
30.672629
-0.4606407
27.218364
-0.39486735
0.01413574
-0.032685083
27.316118
-0.080807658
-0.017339038
18.878823
-0.047262681
-0.060125504
23.290675
-0.045337027
-0.038194446
31.158586
-0.094195709
-0.020180143
17.726326
-0.040954876
-0.00035641003
18.962501
-0.038290909
0.019776548
18.962437
-0.038477178
0.037704115
17.72636
-0.040797794
0.059571526
31.158668
-0.094048057
0.017027534
23.290716
-0.045505962
-0.014473598
18.878885
-0.047156833
-0.033013985
27.31618
-0.080741458
-0.025115301
30.757929
-0.093812351
-0.013449495
30.763703
-0.093140614
-0.024124752
27.328716
-0.078771359
-0.047303623
18.887095
-0.047775407
-0.11493984
23.292646
-0.014668267
-0.093631654
31.137929
-0.09514361
-0.066666098
17.706929
-0.055111028
-0.069893852
18.947397
-0.015032813
-0.030157802
18.94772
-0.05836932
-0.022174219
17.724525
-0.019501745
0.011258711
31.168285
-0.067462707
0.012398657
23.307434
-0.04227239
0.007596872
18.895072
-0.032519639
0.0026834035
27.330927
-0.051354982
-0.0028065859
30.761113
-0.054289544
-0.0096733227
30.753954
-0.055107962
27.314031
-0.0539602
-0.029740213
0.022344541
27.345288
-0.026847459
-0.029483133
18.896958
-0.020344231
-0.04642588
23.304435
-0.002207036
-0.024494593
31.152763
-0.03289568
-0.011052463
17.713162
-0.01636612
-0.0015702265
18.942531
-0.011107691
0.0090685777
18.942011
-0.011898559
0.022651471
17.711766
-0.015743488
0.046196383
31.14963
-0.03243313
0.030861
23.302262
-0.0012829
0.033408085
18.894685
-0.020557524
-27.312611
27.342798
0.028321961
-0.026752909
-27.256013
0.029100934
-0.05504013
7.4708824e-05
-0.23970278
0.036186133
30.693269
-0.24132501
0.06789842
30.701065
-0.23730012
0.062046834
27.274002
-0.22948525
0.014428923
18.855882
-0.14699241
0.018374758
23.26216
-0.23523694
0.09331141
31.131822
-0.33045539
17.712602
-0.12603337
0.030270286
-0.024496272
17.726445
-0.019284499
0.068815529
18.949501
-0.058351173
0.065634223
18.949156
-0.015299726
0.092346934
17.708307
-0.054641173
0.11372473
31.13968
-0.09459249
0.046819468
23.29354
-0.014882707
0.023732348
18.887594
-0.047573751
0.013134176
27.329103
-0.078626689
0.024813982
30.763865
-0.09307742
30.757951
-0.093813356
0.012510286
-0.027547858
30.799572
-0.028700419
-0.0059935711
27.35883
-0.026359568
-0.018966913
18.908426
-0.018598273
-0.041707457
23.320352
-0.0087609846
-0.026685363
31.177054
-0.034249841
-0.012739666
17.728983
-0.017253506
-0.00015978908
18.960487
-0.011027918
0.012518027
18.960429
-0.011132273
0.026414877
17.72898
-0.017168349
0.041425115
31.177073
-0.034178241
0.018810603
23.320372
-0.0088610628
0.005827054
18.908455
-0.01855578
-0.012662432
27.358849
-0.026336753
-0.027703408
30.799554
-0.028707272
-0.035264411
30.797501
-0.027790628
-0.037553041
27.354445
-0.024995569
-0.03608031
18.90353
-0.019337136
-0.062679073
23.310876
0.0066193352
-0.045077245
31.153176
-0.033529596
-0.028911089
17.71213
-0.022145329
-0.026427118
18.94596
-0.0016352331
-0.0075232192
18.94784
-0.019581317
0.0019494286
17.723559
-0.0090995783
0.022321536
31.174649
-0.027318631
0.016043567
23.323034
-0.010449218
0.014315235
18.912638
-0.016659379
0.0058671881
27.362972
-0.024285748
-0.0084584692
30.799568
-0.02709554
30.791609
-0.027949416
-0.022160248
0.010489296
30.834253
-0.034752105
-0.02694772
27.379785
-0.032664956
-0.026306184
18.918451
-0.024241143
-0.040900395
23.325202
-0.0080337021
-0.020068827
31.169202
-0.038367217
-0.0093269978
17.721454
-0.020257728
-0.0015581317
18.949279
-0.015655218
0.0072007145
18.948685
-0.016572465
0.017219788
17.720067
-0.019543267
0.037600934
31.165937
-0.037798882
0.024543741
23.322499
-0.0089811835
0.025085705
18.91611
-0.023772438
0.020411326
27.377499
-0.032158285
-30.790055
30.833523
0.0089005496
-0.034289048
-30.75159
0.015564711
-0.027586667
0.025065105
-0.055371527
0.017509444
30.760893
-0.053818928
0.0069026622
27.333303
-0.049954007
-0.0041701939
18.896614
-0.030494967
-0.0035091892
23.308029
-0.046965473
31.170988
-0.067023404
-0.0023065415
0.021033984
31.179002
-0.02737124
0.006756248
17.726035
-0.0092607305
0.025051945
18.94992
-0.01926668
0.027987401
18.947612
-0.0019675657
0.044048657
17.713271
-0.021793056
0.061792679
31.154477
-0.033216447
0.035731418
23.311451
0.0064227252
0.037285152
18.903839
-0.019212842
0.035076378
27.354679
-0.024910282
30.797597
-0.027751755
0.018518624
-0.027506233
30.836566
-0.032160076
0.0042221453
30.843936
-0.032613135
-0.0084748706
27.399325
-0.030196531
-0.01618493
18.935666
-0.021663145
-0.031071526
23.347112
-0.013863179
-0.016400624
31.199114
-0.03801463
-0.0079477403
17.73916
-0.01991321
-8.2109722e-05
18.967876
-0.01641056
0.0078376363
18.967813
-0.016460071
0.016257151
17.739147
-0.019871389
0.030924811
31.199102
-0.037985729
0.016107276
23.347109
-0.013915041
0.0083945961
18.935672
-0.021643482
-0.0042995007
27.39933
-0.030190094
-0.018601228
30.843923
-0.03262008
-0.027620749
30.836515
-0.032182691
-0.028604941
27.383019
-0.029606099
-0.025637901
18.920883
-0.022068601
-0.039227928
23.327946
-0.0053121222
-0.02144832
31.170268
-0.036071981
-0.012356894
17.72246
-0.020753712
-0.0082017771
18.95356
-0.01298167
0.0009209134
18.956774
-0.0192779
0.0071910993
17.732857
-0.016865662
0.023067167
31.193068
-0.035551944
0.014201154
23.345432
-0.015280747
0.010588381
18.935771
-0.02116694
0.0025261374
27.399958
-0.030531426
30.843627
-0.034050714
-0.0099066185
0.00046562425
30.882814
-0.032758283
-0.017870047
30.872639
-0.033247685
-0.020378563
27.41077
-0.031159466
-0.020018765
18.93845
-0.022793965
-0.030941854
23.344523
-0.010772985
-0.014000522
31.186953
-0.036501405
-0.0067851514
17.731798
-0.019476634
-0.0013477447
18.958383
-0.016368813
0.0048608058
18.957868
-0.01722454
0.011069593
17.730725
-0.018795633
0.026725918
31.184381
-0.035946232
0.01710555
23.342202
-0.012436516
0.01631603
18.936559
-0.022110869
0.012937881
27.408836
-0.030649704
0.0047067939
30.871886
-0.032977271
-30.844807
30.883686
-0.0043274282
-0.032758671
-30.800525
-0.0039828334
-0.033861391
0.00060145998
-0.026779236
-0.009950049
27.366014
-0.023980452
-0.013913847
18.915315
-0.016184173
23.325731
-0.011817559
-0.025435799
0.015524971
23.348455
-0.014604299
-0.0090336732
31.19719
-0.035824627
-0.0021197438
17.735059
-0.017219624
0.0067440569
18.958605
-0.018752755
0.011572847
18.954867
-0.013296208
0.020663182
17.723317
-0.020445754
0.03860649
31.171183
-0.035830089
0.025399418
23.328303
-0.0054583136
0.028427547
18.921063
-0.021990334
27.38315
-0.029555818
0.016617292
-0.017572609
27.410936
-0.029432803
0.0098687447
30.872616
-0.032065736
0.00025741695
30.882838
-0.032241778
-0.0071208506
27.433578
-0.029680307
-0.012049515
18.958929
-0.020928703
-0.022032884
23.370142
-0.015475028
-0.0096999056
31.220938
-0.036102853
-0.0049421818
17.751367
-0.018938779
-4.3379502e-05
18.978356
-0.017241827
0.0048824676
18.978294
-0.017270173
0.0096378589
17.751332
-0.018917536
0.021972821
31.220904
-0.036085168
0.012019035
23.370129
-0.015497605
0.0070869679
18.958925
-0.020923672
-0.00029050474
27.433581
-0.029683021
-0.0099097102
30.882841
-0.032253347
-0.016681835
30.872596
-0.032081771
-0.017680214
27.410871
-0.029466334
-0.016704483
18.938632
-0.02112133
-0.025127027
23.345123
-0.011082161
-0.010713952
31.188477
-0.034512538
-0.0057388346
17.73418
-0.018689759
-0.0021275147
18.964106
-0.01606963
0.0026521164
18.968115
-0.018033247
0.0061244164
17.745155
-0.017779862
0.017816543
31.21435
-0.034948535
0.010071237
23.367461
-0.016656575
0.0058268306
18.95787
-0.020407892
27.433013
-0.029576563
-0.0019711849
-0.0022543405
27.456928
-0.023144242
-0.0079038462
30.910695
-0.025541712
-0.012546407
30.899707
-0.025884454
-0.013531007
27.4327
-0.024281801
-0.013452995
18.952882
-0.017681724
-0.020722538
23.358263
-0.009501744
-0.008651889
31.20041
-0.02814969
-0.0043819832
17.739982
-0.015161448
-0.0010375756
18.96565
-0.01321389
0.0028725702
18.965256
-0.013907417
0.0062115108
17.73927
-0.014607814
0.016919763
31.198677
-0.027670765
0.010622599
23.356605
-0.011136272
0.0093915251
18.951613
-0.017033139
0.0073378188
27.431372
-0.023853877
0.0022986484
30.899158
-0.02573443
-0.0031779684
30.91126
-0.02562996
-27.435061
27.458289
-0.0062883095
-0.023511047
-27.402542
-0.0096753414
-0.029909563
-0.012052511
-0.030687405
18.938326
-0.021461997
-0.012742871
18.95986
-0.020981758
-0.021477567
23.369961
-0.015140939
-0.0083781101
31.217464
-0.035294424
-0.003888638
17.746772
-0.018180822
0.00083305779
18.969471
-0.017472899
0.0051244235
18.965021
-0.016333534
0.010145813
17.734761
-0.018442406
0.024712603
31.189066
-0.034328746
0.01655575
23.345329
-0.011176898
18.938733
-0.021067803
0.0095762982
-0.0099569001
18.952525
-0.016583527
0.0087182616
27.431974
-0.023501475
0.0044711954
30.899022
-0.02561347
-0.001095935
30.910557
-0.025688697
-0.0049210154
27.457605
-0.023614124
-0.0080667585
18.975361
-0.016555602
-0.014453457
23.386293
-0.012820886
-0.005427604
31.237087
-0.027886413
-0.0029425928
17.760872
-0.014737503
-2.0804966e-05
18.98673
-0.013924742
0.0029220353
18.986656
-0.013934213
0.0054033369
17.760836
-0.014734803
0.014433799
31.237048
-0.027890435
0.0080567666
23.386278
-0.012830675
0.0049125992
18.975357
-0.016561341
0.0010871706
27.457609
-0.023624275
-0.0044854982
30.910563
-0.025698986
-0.0087477421
30.899017
-0.025629642
-0.0096333357
27.431945
-0.02352729
-0.010045328
18.952477
-0.016619051
-0.015472825
23.358358
-0.010819983
-0.0054245308
31.202696
-0.026965399
-0.002917099
17.743329
-0.014419832
-0.00051848126
18.972577
-0.013525607
0.0020638868
18.977001
-0.014131026
0.0036155534
17.755033
-0.014210098
0.01145183
31.230962
-0.0272043
0.0060063038
23.38372
-0.013873536
18.97425
-0.015933527
0.00010127572
-0.003083418
18.984546
-0.011435449
-0.0023521637
27.471781
-0.016613676
-0.0055207747
30.927828
-0.018300239
-0.0077534697
30.916226
-0.018535898
-0.0078730469
27.446077
-0.017399999
-0.0081365138
18.961756
-0.012639057
-0.012564769
23.36647
-0.0075742127
-0.0046142916
31.208743
-0.019767632
-0.0025195464
17.745156
-0.010813905
-0.00071434091
18.970202
-0.0097762985
0.0014664049
18.969919
-0.010268476
0.0028652173
17.744725
-0.010409663
0.0097249827
31.207722
-0.019415356
0.0059538247
23.365424
-0.0088425538
0.0046212071
18.961012
-0.01212294
0.0036048769
27.445294
-0.017065821
0.001025064
30.915893
-0.018429433
-0.001772577
30.928146
-0.01837883
-0.0033054546
27.472564
-0.01691421
-18.97556
18.985296
-0.0051998831
-0.011914992
-0.0087031084
-0.016526959
-0.014926441
23.385464
-0.012320107
-0.0056254372
31.232989
-0.027525403
-0.0030982941
17.756063
-0.014565611
-0.00049029318
18.977884
-0.013652482
0.0024780791
18.973139
-0.013717907
0.0050448756
17.743687
-0.014231367
0.015213577
31.203043
-0.026825544
23.358465
-0.010877122
0.0055352654
-0.0087985192
23.366855
-0.0088994566
0.0045167992
18.961513
-0.012008564
0.0039899276
27.445459
-0.017098444
0.0017596675
30.915622
-0.01862421
-0.0010096815
30.927701
-0.018661334
-0.002742909
27.472328
-0.01716426
-0.0048804266
18.98545
-0.012027548
-0.0087285285
23.396006
-0.0096681912
-0.0025940373
31.247065
-0.019640901
-0.0015932623
17.766855
-0.010545496
-4.0733295e-06
18.991978
-0.010265282
0.0015883896
18.991903
-0.010264465
0.0025955793
17.766812
-0.010545141
0.0087395819
31.247023
-0.019647476
0.0048886032
23.395991
-0.009670253
0.0027493312
18.985447
-0.012039724
0.0010159638
27.472331
-0.01717618
-0.0017565535
30.927709
-0.018674071
-0.0039960624
30.915633
-0.018643858
-0.004540289
27.445457
-0.017122402
-0.0055792582
18.961495
-0.012033131
-0.0089496186
23.366813
-0.0088777311
-0.002431663
31.211846
-0.019199027
-0.0014806966
17.749158
-0.01035698
-0.00018662115
18.97795
-0.01011994
0.0011205083
18.982593
-0.010355651
0.00142771
17.761373
-0.010243207
0.0064446661
31.241545
-0.01917397
23.393787
-0.010524877
0.0013808345
-0.003340988
23.399215
-0.0080438288
-0.00094638348
18.990203
-0.0082553291
-0.0021170794
27.479909
-0.01193708
-0.0034163741
30.937148
-0.013110959
-0.0041265806
30.92516
-0.013264391
-0.0038349638
27.453285
-0.012440025
-0.0044720936
18.966532
-0.0090102168
-0.0070206181
23.370702
-0.0062442968
-0.0018895846
31.21319
-0.01385469
-0.0012531587
17.747927
-0.0077368103
-0.00043844716
18.97262
-0.0074172504
0.00060048869
18.97242
-0.0077280147
0.00077748647
17.747691
-0.007477114
0.0051896938
31.21263
-0.013614467
0.0030349948
23.370101
-0.0070774646
0.0016782447
18.966145
-0.008659746
0.0013562314
27.452875
-0.012207309
0.00040404388
30.924977
-0.013183266
-0.00064575907
30.937302
-0.013163606
-0.0011929709
27.480306
-0.012144747
-0.0027835304
18.990581
-0.0085811613
-23.394854
23.399805
-0.0050677605
-0.0072217515
-0.0090976449
-0.0092920992
-0.0029174978
31.242705
-0.019415924
-0.0018607501
17.761952
-0.010504455
-0.00050499605
18.983105
-0.010005116
0.0011939974
18.978257
-0.010246508
0.0021974584
17.749353
-0.010226245
31.212032
-0.019102344
0.0047833616
-0.00048331305
31.216976
-0.0135297
0.0028270845
23.371443
-0.0071734443
0.0015686969
18.966563
-0.0086623854
0.0014196473
27.453002
-0.012327499
0.00059738559
30.924811
-0.013406908
-0.00042193926
30.937094
-0.013422211
-0.0010072821
27.480335
-0.012368155
-0.0026699434
18.990926
-0.0086997641
-0.0048912416
23.401113
-0.0074370071
-0.00074836291
31.252419
-0.013788983
-0.00071677531
17.770075
-0.007581299
2.895601e-06
18.994784
-0.0077088885
0.00072884028
18.994697
-0.0077021459
0.00076577363
17.770031
-0.0075891538
0.0049175034
31.252374
-0.013802722
0.0026820281
23.401099
-0.0074322809
0.0010238877
18.990923
-0.0087112144
0.00043986577
27.480347
-0.012388223
-0.00058202186
30.937111
-0.013443809
-0.0014109385
30.924832
-0.013426108
-0.0015712839
27.453016
-0.012348506
-0.002848097
18.966571
-0.0086845685
-0.0048610535
23.371438
-0.0071700066
-0.00061472539
31.216895
-0.013600202
-0.00065260594
17.752346
-0.0074960302
-0.0001170111
18.980858
-0.0076489294
0.00042831659
18.985614
-0.0077766781
-7.0141958e-06
17.764847
-0.0073993964
31.247345
-0.013481573
0.0017330144
0.00077889856
31.250026
-0.010103844
0.0005617384
23.401696
-0.0064862731
-0.0013072887
18.992863
-0.0063383585
-0.0016562596
27.483731
-0.00903516
-0.0018458739
30.941505
-0.0098179887
-0.0017155639
30.929316
-0.0099048189
-0.0012714461
27.456619
-0.0093155042
-0.0022252868
18.968724
-0.0067545645
-0.0036966619
23.372524