/*--------------------------------*- C++ -*----------------------------------*\
  =========                 |
  \\      /  F ield         | OpenFOAM: The Open Source CFD Toolbox
   \\    /   O peration     | Website:  https://openfoam.org
    \\  /    A nd           | Version:  7
     \\/     M anipulation  |
\*---------------------------------------------------------------------------*/
FoamFile
{
    version     2.0;
    format      ascii;
    class       volScalarField;
    location    "330";
    object      rho;
}
// * * * * * * * * * * * * * * * * * * * * * * * * * * * * * * * * * * * * * //

dimensions      [1 -3 0 0 0 0 0];

internalField   nonuniform List<scalar> 
24866
(
1.1739108
1.1739101
1.1739102
1.1739105
1.1739106
1.1739105
1.1739106
1.1739106
1.1739105
1.1739106
1.1739106
1.1739106
1.1739106
1.1739105
1.1739106
1.1739106
1.1739105
1.1739105
1.1739105
1.1739105
1.1739105
1.1739105
1.1739106
1.1739106
1.1739105
1.1739105
1.1739105
1.1739106
1.1739106
1.1739106
1.1739105
1.1739106
1.1739106
1.1739105
1.1739106
1.1739107
1.1739106
1.1739105
1.1739106
1.1739105
1.1739106
1.1739107
1.1739106
1.1739106
1.1739105
1.1739106
1.1739106
1.1739106
1.1739107
1.1739106
1.1739106
1.1739106
1.1739106
1.1739106
1.1739106
1.1739106
1.1739106
1.1739106
1.1739105
1.1739106
1.1739109
1.1739112
1.1739109
1.1739109
1.1739111
1.1739113
1.173911
1.1739109
1.1739111
1.1739112
1.1739112
1.1739111
1.1739109
1.173911
1.1739113
1.1739111
1.1739109
1.1739109
1.1739111
1.1739109
1.1739109
1.1739111
1.1739112
1.1739114
1.1739115
1.1739111
1.173911
1.173911
1.1739109
1.173911
1.1739115
1.1739116
1.1739126
1.1739126
1.1739123
1.173912
1.1739116
1.1739122
1.1739116
1.1739121
1.1739129
1.1739137
1.1739128
1.1739134
1.1739137
1.1739137
1.1739134
1.1739124
1.1739121
1.1739113
1.1739111
1.1739109
1.1739109
1.1739112
1.1739116
1.1739123
1.1739129
1.1739137
1.1739144
1.1739148
1.1739147
1.1739143
1.1739152
1.1739144
1.1739134
1.1739125
1.1739116
1.1739118
1.1739127
1.1739137
1.1739147
1.1739156
1.1739161
1.1739156
1.1739156
1.1739152
1.1739144
1.1739134
1.1739129
1.1739121
1.1739116
1.1739111
1.1739109
1.1739109
1.1739108
1.1739107
1.1739109
1.1739104
1.1739105
1.1739105
1.1739104
1.1739105
1.1739104
1.1739104
1.1739104
1.1739103
1.1739105
1.1739105
1.1739104
1.1739103
1.1739102
1.1739103
1.1739104
1.1739104
1.1739105
1.1739105
1.1739104
1.1739106
1.1739105
1.1739105
1.1739105
1.1739105
1.1739105
1.1739105
1.1739104
1.1739105
1.1739106
1.1739104
1.1739108
1.1739109
1.1739108
1.1739107
1.1739111
1.1739108
1.1739111
1.1739111
1.1739117
1.1739116
1.1739123
1.1739116
1.1739121
1.1739125
1.1739116
1.1739118
1.1739127
1.1739137
1.1739147
1.1739156
1.1739161
1.1739161
1.1739161
1.1739156
1.1739148
1.1739137
1.1739126
1.1739124
1.1739115
1.1739113
1.1739113
1.1739111
1.173911
1.1739104
1.1739104
1.1739105
1.1739104
1.1739102
1.1739103
1.1739103
1.1739102
1.1739104
1.1739102
1.1739102
1.1739103
1.1739103
1.1739103
1.1739102
1.1739101
1.1739101
1.1739103
1.1739101
1.1739102
1.1739102
1.1739101
1.1739104
1.1739102
1.1739102
1.1739103
1.1739103
1.1739103
1.1739103
1.1739102
1.1739102
1.1739104
1.1739099
1.1739096
1.1739097
1.1739097
1.1739096
1.1739101
1.1739104
1.1739106
1.1739105
1.1739105
1.1739105
1.1739106
1.1739106
1.1739106
1.1739105
1.1739105
1.1739106
1.1739105
1.1739105
1.1739105
1.1739104
1.1739105
1.1739103
1.1739104
1.1739105
1.1739104
1.1739103
1.1739105
1.1739105
1.1739105
1.1739104
1.1739104
1.1739108
1.1739109
1.1739109
1.1739109
1.1739111
1.173911
1.1739113
1.1739111
1.1739111
1.173911
1.1739111
1.1739116
1.1739116
1.1739126
1.1739137
1.1739148
1.1739156
1.1739152
1.1739156
1.1739156
1.1739152
1.1739144
1.1739134
1.1739129
1.1739137
1.1739144
1.1739148
1.1739148
1.1739144
1.1739137
1.1739144
1.1739134
1.1739124
1.1739115
1.1739113
1.173912
1.1739129
1.1739123
1.1739129
1.1739134
1.1739137
1.1739137
1.1739134
1.1739129
1.1739121
1.1739125
1.1739127
1.1739127
1.1739125
1.1739121
1.1739116
1.1739112
1.1739116
1.1739111
1.1739109
1.1739109
1.1739108
1.1739109
1.1739108
1.1739107
1.1739111
1.1739111
1.1739108
1.1739108
1.1739101
1.1739103
1.1739102
1.1739101
1.1739102
1.173911
1.173911
1.1739113
1.1739113
1.1739109
1.1739111
1.173911
1.1739109
1.173911
1.1739103
1.1739103
1.1739104
1.1739103
1.1739102
1.1739102
1.1739098
1.17391
1.1739097
1.1739098
1.1739098
1.1739097
1.17391
1.1739098
1.1739097
1.1739099
1.1739099
1.1739099
1.1739098
1.1739096
1.1739098
1.1739099
1.1739096
1.1739097
1.1739097
1.1739096
1.1739099
1.1739098
1.1739097
1.1739098
1.1739099
1.1739099
1.1739098
1.1739097
1.1739098
1.1739092
1.1739094
1.1739089
1.1739091
1.1739091
1.1739089
1.1739094
1.1739099
1.1739104
1.1739102
1.1739102
1.1739103
1.1739103
1.1739103
1.1739103
1.1739102
1.1739103
1.1739104
1.1739102
1.1739103
1.1739103
1.1739098
1.1739096
1.1739099
1.1739098
1.1739097
1.1739099
1.1739099
1.1739099
1.1739099
1.1739097
1.1739091
1.1739093
1.1739095
1.173909
1.1739092
1.1739092
1.173909
1.1739094
1.1739093
1.1739091
1.1739093
1.1739094
1.1739094
1.1739093
1.1739091
1.1739092
1.1739094
1.1739089
1.1739091
1.1739091
1.1739089
1.1739094
1.1739092
1.1739091
1.1739093
1.1739093
1.1739093
1.1739093
1.173909
1.1739082
1.1739084
1.1739086
1.173908
1.1739083
1.1739083
1.173908
1.1739086
1.1739084
1.1739082
1.1739091
1.1739097
1.1739099
1.1739099
1.1739099
1.1739099
1.1739097
1.1739098
1.17391
1.1739097
1.1739098
1.1739092
1.1739092
1.173909
1.1739094
1.1739093
1.1739091
1.1739094
1.1739094
1.1739094
1.1739094
1.1739086
1.1739083
1.1739085
1.1739088
1.1739082
1.1739084
1.1739084
1.1739081
1.1739087
1.1739085
1.1739083
1.1739086
1.1739087
1.1739086
1.1739086
1.1739082
1.1739084
1.1739087
1.1739081
1.1739083
1.1739083
1.1739081
1.1739086
1.1739084
1.1739082
1.1739085
1.1739086
1.1739086
1.1739085
1.1739074
1.173907
1.1739072
1.1739076
1.1739068
1.1739071
1.1739071
1.1739068
1.1739076
1.1739073
1.173907
1.1739075
1.1739085
1.1739093
1.1739094
1.1739094
1.1739093
1.1739091
1.1739093
1.1739094
1.173909
1.1739081
1.1739084
1.1739084
1.1739081
1.1739087
1.1739085
1.1739083
1.1739086
1.1739087
1.1739087
1.1739077
1.1739076
1.1739071
1.1739074
1.1739077
1.1739069
1.1739073
1.1739073
1.1739069
1.1739077
1.1739074
1.1739071
1.1739075
1.1739076
1.1739076
1.1739075
1.173907
1.1739073
1.1739076
1.1739068
1.1739072
1.1739072
1.1739068
1.1739076
1.1739073
1.173907
1.1739074
1.1739075
1.1739075
1.173906
1.1739059
1.1739053
1.1739057
1.1739061
1.173905
1.1739055
1.1739055
1.173905
1.1739061
1.1739057
1.1739053
1.1739059
1.1739061
1.1739076
1.1739086
1.1739086
1.1739086
1.1739083
1.1739085
1.1739087
1.1739077
1.1739069
1.1739072
1.1739072
1.1739069
1.1739077
1.1739074
1.1739071
1.1739076
1.1739077
1.1739062
1.1739062
1.1739061
1.1739055
1.1739059
1.1739063
1.1739052
1.1739057
1.1739057
1.1739052
1.1739063
1.1739058
1.1739055
1.173906
1.1739062
1.1739061
1.173906
1.1739054
1.1739057
1.1739062
1.1739051
1.1739056
1.1739056
1.1739051
1.1739061
1.1739057
1.1739053
1.1739059
1.173906
1.1739041
1.1739041
1.1739039
1.1739031
1.1739036
1.1739041
1.1739028
1.1739034
1.1739034
1.1739028
1.1739042
1.1739036
1.1739031
1.1739039
1.1739041
1.1739041
1.1739061
1.1739076
1.1739075
1.173907
1.1739073
1.1739058
1.1739062
1.1739051
1.1739056
1.1739057
1.1739052
1.1739062
1.1739058
1.1739055
1.1739061
1.1739041
1.1739043
1.1739043
1.1739041
1.1739034
1.1739038
1.1739044
1.173903
1.1739037
1.1739036
1.173903
1.1739043
1.1739038
1.1739033
1.1739041
1.1739042
1.1739042
1.173904
1.1739032
1.1739037
1.1739042
1.1739029
1.1739035
1.1739035
1.1739028
1.1739042
1.1739036
1.1739031
1.1739039
1.1739014
1.1739016
1.1739016
1.1739014
1.1739005
1.1739011
1.1739017
1.1739001
1.1739009
1.1739009
1.1739001
1.1739018
1.1739011
1.1739005
1.1739015
1.1739017
1.1739017
1.1739015
1.173904
1.173906
1.1739054
1.1739032
1.1739037
1.1739043
1.1739029
1.1739036
1.1739036
1.173903
1.1739043
1.1739038
1.1739033
1.1739007
1.1739017
1.1739019
1.1739019
1.1739017
1.1739008
1.1739014
1.173902
1.1739004
1.1739012
1.1739012
1.1739004
1.173902
1.1739013
1.1739007
1.1739016
1.1739018
1.1739018
1.1739016
1.1739006
1.1739012
1.1739019
1.1739002
1.173901
1.173901
1.1739002
1.1739018
1.1739011
1.1739005
1.1738976
1.1738986
1.1738988
1.1738988
1.1738986
1.1738976
1.1738983
1.173899
1.1738973
1.1738982
1.1738982
1.1738973
1.1738991
1.1738983
1.1738976
1.1738987
1.1738989
1.1738989
1.1738987
1.1738977
1.1739006
1.1739012
1.1739019
1.1739003
1.1739011
1.1739011
1.1739003
1.173902
1.1739013
1.1738986
1.1738979
1.1738989
1.1738991
1.1738991
1.1738989
1.1738979
1.1738986
1.1738994
1.1738976
1.1738985
1.1738985
1.1738976
1.1738993
1.1738985
1.1738978
1.1738988
1.173899
1.173899
1.1738988
1.1738977
1.1738984
1.1738992
1.1738974
1.1738983
1.1738983
1.1738974
1.1738991
1.1738983
1.1738958
1.173895
1.173896
1.1738962
1.1738961
1.1738959
1.173895
1.1738957
1.1738965
1.1738948
1.1738957
1.1738957
1.1738948
1.1738965
1.1738957
1.173895
1.173896
1.1738962
1.1738962
1.1738961
1.1738951
1.1738959
1.1738984
1.1738992
1.1738975
1.1738984
1.1738984
1.1738975
1.1738993
1.1738968
1.173896
1.1738953
1.1738963
1.1738965
1.1738965
1.1738963
1.1738953
1.1738961
1.1738968
1.1738952
1.1738961
1.173896
1.1738951
1.1738968
1.173896
1.1738952
1.1738962
1.1738964
1.1738963
1.1738961
1.1738951
1.1738959
1.1738966
1.1738949
1.1738958
1.1738958
1.1738949
1.1738965
1.1738949
1.1738942
1.1738935
1.1738942
1.1738942
1.1738942
1.1738942
1.1738935
1.1738941
1.1738948
1.1738935
1.1738943
1.1738943
1.1738935
1.1738948
1.1738942
1.1738935
1.1738942
1.1738943
1.1738943
1.1738943
1.1738936
1.1738944
1.173895
1.1738967
1.173895
1.173896
1.173896
1.1738951
1.1738938
1.1738951
1.1738945
1.1738938
1.1738945
1.1738946
1.1738946
1.1738946
1.1738939
1.1738945
1.1738952
1.1738939
1.1738947
1.1738947
1.1738939
1.1738951
1.1738945
1.1738938
1.1738944
1.1738945
1.1738944
1.1738944
1.1738936
1.1738943
1.1738949
1.1738936
1.1738944
1.1738944
1.1738936
1.1738944
1.1738951
1.1738947
1.1738942
1.1738945
1.1738944
1.1738944
1.1738945
1.1738941
1.1738946
1.173895
1.1738943
1.1738949
1.1738949
1.1738943
1.173895
1.1738947
1.1738942
1.1738946
1.1738945
1.1738945
1.1738947
1.1738943
1.1738948
1.1738953
1.1738946
1.1738938
1.1738946
1.1738946
1.1738952
1.1738946
1.1738954
1.173895
1.1738945
1.1738949
1.1738948
1.1738948
1.1738949
1.1738946
1.173895
1.1738954
1.1738947
1.1738953
1.1738953
1.1738947
1.1738954
1.1738949
1.1738944
1.1738948
1.1738947
1.1738946
1.1738947
1.1738943
1.1738948
1.1738952
1.1738944
1.173895
1.173895
1.173898
1.1738977
1.1738979
1.1738977
1.1738975
1.1738976
1.1738975
1.1738975
1.1738976
1.1738975
1.1738977
1.1738978
1.1738976
1.1738979
1.1738979
1.1738976
1.1738978
1.1738977
1.1738976
1.1738976
1.1738976
1.1738976
1.1738977
1.1738977
1.1738979
1.1738981
1.1738979
1.1738982
1.1738952
1.1738963
1.173895
1.1738963
1.1738961
1.1738945
1.1738963
1.1738955
1.1738952
1.1738952
1.1738955
1.1738964
1.1738979
1.1738979
1.1738981
1.1738982
1.173898
1.1738983
1.1738983
1.173898
1.1738981
1.173898
1.1738978
1.1738978
1.1738977
1.1738977
1.1738978
1.1738977
1.1738978
1.1738979
1.1738977
1.173898
1.1739029
1.1739028
1.1739028
1.1739025
1.1739026
1.1739027
1.1739025
1.1739024
1.1739024
1.1739025
1.1739027
1.1739026
1.1739024
1.1739028
1.1739028
1.1739028
1.1739028
1.1739025
1.1739026
1.1739027
1.1739026
1.1739025
1.1739025
1.1739027
1.1739029
1.1739028
1.1739027
1.1739031
1.1739031
1.1739031
1.1738983
1.173898
1.1738982
1.1738981
1.1738979
1.173898
1.1738979
1.1738979
1.173898
1.1739029
1.173903
1.173903
1.1739029
1.1739031
1.1739031
1.1739031
1.1739031
1.1739028
1.1739028
1.1739029
1.1739027
1.1739026
1.1739026
1.1739027
1.1739028
1.1739027
1.1739026
1.1739029
1.173909
1.1739088
1.1739087
1.173909
1.1739083
1.1739085
1.1739089
1.1739084
1.1739083
1.1739083
1.1739084
1.1739089
1.1739086
1.1739083
1.173909
1.1739087
1.1739088
1.173909
1.1739083
1.1739086
1.173909
1.1739085
1.1739084
1.1739085
1.1739086
1.1739091
1.1739087
1.1739085
1.1739092
1.1739089
1.173909
1.1739092
1.1739031
1.1739028
1.173903
1.173903
1.1739029
1.1739028
1.1739028
1.1739087
1.1739088
1.1739091
1.1739088
1.1739086
1.1739092
1.173909
1.1739089
1.1739092
1.1739085
1.1739087
1.1739091
1.1739086
1.1739085
1.1739085
1.1739086
1.173909
1.1739086
1.1739083
1.1739147
1.1739157
1.1739153
1.1739153
1.1739157
1.1739147
1.1739151
1.1739157
1.173915
1.1739148
1.1739148
1.173915
1.1739157
1.1739152
1.1739147
1.1739158
1.1739153
1.1739153
1.1739158
1.1739148
1.1739152
1.1739158
1.1739151
1.1739149
1.173915
1.1739152
1.1739158
1.1739152
1.1739149
1.1739159
1.1739154
1.1739155
1.1739158
1.1739149
1.1739086
1.1739089
1.1739092
1.1739088
1.1739087
1.173915
1.173915
1.1739152
1.1739157
1.1739152
1.1739149
1.1739158
1.1739154
1.1739153
1.1739158
1.1739148
1.1739152
1.1739157
1.1739151
1.1739149
1.1739149
1.1739151
1.1739157
1.1739152
1.1739221
1.1739216
1.1739228
1.1739222
1.1739222
1.1739228
1.1739216
1.1739221
1.1739228
1.1739221
1.173922
1.173922
1.1739222
1.1739229
1.1739222
1.1739217
1.1739229
1.1739224
1.1739224
1.173923
1.1739218
1.1739223
1.173923
1.1739223
1.1739221
1.1739221
1.1739222
1.1739229
1.1739221
1.1739218
1.1739228
1.1739222
1.1739222
1.1739227
1.1739216
1.1739221
1.1739153
1.1739158
1.1739152
1.173922
1.1739219
1.1739219
1.173922
1.1739226
1.173922
1.1739216
1.1739226
1.1739221
1.1739221
1.1739226
1.1739216
1.173922
1.1739227
1.173922
1.1739219
1.1739219
1.1739221
1.1739228
1.1739295
1.1739288
1.1739284
1.1739295
1.1739289
1.1739289
1.1739295
1.1739284
1.1739289
1.1739297
1.173929
1.173929
1.173929
1.1739291
1.1739298
1.1739291
1.1739286
1.1739298
1.1739291
1.1739291
1.1739298
1.1739286
1.1739291
1.1739298
1.1739291
1.173929
1.173929
1.173929
1.1739297
1.1739288
1.1739284
1.1739294
1.1739287
1.1739288
1.1739292
1.1739282
1.1739286
1.1739293
1.1739227
1.1739191
1.1739187
1.1739182
1.1739182
1.1739187
1.1739191
1.1739258
1.1739292
1.1739285
1.1739281
1.1739291
1.1739286
1.1739286
1.1739292
1.1739282
1.1739286
1.1739294
1.1739288
1.1739287
1.1739288
1.1739289
1.1739347
1.1739353
1.1739346
1.1739342
1.1739353
1.1739347
1.1739347
1.1739354
1.1739343
1.1739347
1.1739356
1.1739349
1.1739349
1.1739349
1.173935
1.1739357
1.1739349
1.1739345
1.1739356
1.173935
1.173935
1.1739356
1.1739345
1.173935
1.1739357
1.173935
1.1739349
1.1739348
1.1739348
1.1739354
1.1739345
1.1739342
1.1739351
1.1739344
1.1739344
1.1739349
1.1739339
1.1739342
1.1739349
1.1739343
1.1739286
1.1739286
1.1739285
1.1739286
1.1739342
1.1739348
1.1739341
1.1739338
1.1739347
1.1739343
1.1739342
1.1739349
1.1739339
1.1739343
1.1739351
1.1739345
1.1739345
1.1739346
1.1739394
1.1739396
1.1739402
1.1739395
1.1739392
1.1739402
1.1739397
1.1739397
1.1739403
1.1739393
1.1739397
1.1739405
1.1739399
1.1739399
1.1739399
1.17394
1.1739406
1.1739399
1.1739395
1.1739406
1.17394
1.17394
1.1739406
1.1739395
1.1739399
1.1739406
1.1739399
1.1739398
1.1739397
1.1739397
1.1739403
1.1739393
1.1739391
1.1739399
1.1739392
1.1739393
1.1739397
1.1739387
1.173939
1.1739396
1.173939
1.173939
1.1739342
1.1739342
1.173939
1.173939
1.1739396
1.1739389
1.1739386
1.1739395
1.1739391
1.1739391
1.1739397
1.1739388
1.1739391
1.17394
1.1739394
1.1739394
1.1739437
1.1739437
1.1739438
1.1739444
1.1739438
1.1739435
1.1739445
1.173944
1.173944
1.1739446
1.1739437
1.173944
1.1739448
1.1739442
1.1739442
1.1739442
1.1739443
1.1739449
1.1739442
1.1739439
1.1739449
1.1739444
1.1739444
1.1739449
1.1739439
1.1739442
1.1739449
1.1739442
1.1739441
1.173944
1.1739439
1.1739445
1.1739436
1.1739434
1.1739441
1.1739435
1.1739436
1.1739439
1.173943
1.1739432
1.1739438
1.1739433
1.1739432
1.1739432
1.1739432
1.1739438
1.1739431
1.1739429
1.1739437
1.1739434
1.1739433
1.1739439
1.1739431
1.1739434
1.1739442
1.1739436
1.1739474
1.1739474
1.1739475
1.1739476
1.1739481
1.1739476
1.1739473
1.1739482
1.1739478
1.1739478
1.1739483
1.1739475
1.1739478
1.1739485
1.173948
1.173948
1.173948
1.1739481
1.1739486
1.173948
1.1739477
1.1739486
1.1739482
1.1739481
1.1739486
1.1739477
1.173948
1.1739486
1.173948
1.1739479
1.1739478
1.1739477
1.1739482
1.1739473
1.1739471
1.1739478
1.1739473
1.1739473
1.1739476
1.1739468
1.173947
1.1739475
1.173947
1.1739469
1.1739469
1.173947
1.1739474
1.1739469
1.1739467
1.1739474
1.1739471
1.1739471
1.1739476
1.1739469
1.1739471
1.1739479
1.173951
1.1739505
1.1739506
1.1739507
1.1739508
1.1739513
1.1739508
1.1739506
1.1739514
1.1739511
1.1739511
1.1739515
1.1739508
1.173951
1.1739517
1.1739512
1.1739512
1.1739512
1.1739513
1.1739518
1.1739512
1.173951
1.1739518
1.1739514
1.1739514
1.1739518
1.173951
1.1739512
1.1739517
1.1739512
1.1739511
1.173951
1.1739509
1.1739514
1.1739506
1.1739504
1.173951
1.1739505
1.1739506
1.1739508
1.17395
1.1739502
1.1739507
1.1739502
1.1739502
1.1739502
1.1739502
1.1739507
1.1739502
1.17395
1.1739507
1.1739504
1.1739504
1.1739508
1.1739502
1.1739503
1.1739531
1.1739537
1.1739532
1.1739533
1.1739534
1.1739534
1.173954
1.1739535
1.1739534
1.1739542
1.1739539
1.1739539
1.1739543
1.1739536
1.1739538
1.1739544
1.1739539
1.1739539
1.1739539
1.173954
1.1739545
1.173954
1.1739538
1.1739545
1.1739542
1.1739542
1.1739545
1.1739537
1.173954
1.1739544
1.1739539
1.1739538
1.1739537
1.1739536
1.1739541
1.1739534
1.1739532
1.1739538
1.1739534
1.1739534
1.1739536
1.1739529
1.1739531
1.1739535
1.173953
1.173953
1.173953
1.173953
1.1739535
1.173953
1.1739528
1.1739535
1.1739533
1.1739532
1.1739536
1.173953
1.1739554
1.1739554
1.173956
1.1739555
1.1739555
1.1739556
1.1739556
1.1739562
1.1739558
1.1739557
1.1739565
1.1739563
1.1739563
1.1739567
1.1739559
1.1739562
1.1739567
1.1739561
1.1739561
1.1739561
1.1739562
1.1739568
1.1739563
1.1739561
1.1739569
1.1739565
1.1739565
1.1739569
1.1739561
1.1739563
1.1739567
1.1739561
1.173956
1.173956
1.1739559
1.1739565
1.1739558
1.1739556
1.1739563
1.1739558
1.1739559
1.173956
1.1739553
1.1739555
1.1739559
1.1739555
1.1739554
1.1739553
1.1739554
1.1739559
1.1739555
1.1739553
1.173956
1.1739558
1.1739557
1.1739561
1.1739581
1.1739573
1.1739573
1.1739577
1.1739572
1.1739573
1.1739574
1.1739574
1.1739578
1.1739576
1.1739576
1.1739585
1.1739583
1.1739583
1.1739587
1.1739579
1.1739581
1.1739586
1.1739579
1.1739579
1.1739579
1.173958
1.1739586
1.1739582
1.173958
1.1739589
1.1739585
1.1739585
1.1739589
1.173958
1.1739582
1.1739586
1.173958
1.1739578
1.1739578
1.1739578
1.1739584
1.1739578
1.1739577
1.1739583
1.1739579
1.1739579
1.1739582
1.1739575
1.1739576
1.173958
1.1739576
1.1739573
1.1739573
1.1739573
1.1739579
1.1739575
1.1739574
1.1739581
1.1739578
1.1739578
1.1739591
1.1739595
1.1739588
1.1739584
1.1739588
1.1739584
1.1739585
1.1739585
1.1739585
1.1739589
1.1739587
1.173959
1.1739598
1.1739594
1.1739595
1.1739599
1.1739592
1.1739594
1.1739597
1.1739591
1.173959
1.173959
1.1739591
1.1739598
1.1739595
1.1739592
1.17396
1.1739596
1.1739596
1.17396
1.1739592
1.1739595
1.1739597
1.1739591
1.173959
1.1739589
1.173959
1.1739596
1.1739593
1.173959
1.1739596
1.1739592
1.1739592
1.1739595
1.1739588
1.173959
1.1739592
1.1739589
1.1739587
1.1739586
1.1739587
1.1739593
1.173959
1.1739588
1.1739595
1.1739591
1.1739597
1.1739597
1.1739598
1.1739592
1.1739594
1.1739592
1.1739592
1.1739592
1.1739592
1.1739595
1.1739594
1.17396
1.17396
1.17396
1.1739601
1.1739595
1.1739598
1.17396
1.1739596
1.1739596
1.1739597
1.1739596
1.17396
1.1739599
1.1739596
1.1739602
1.1739602
1.1739602
1.1739602
1.1739596
1.1739599
1.17396
1.1739596
1.1739596
1.1739596
1.1739595
1.1739599
1.1739597
1.1739594
1.1739599
1.1739598
1.1739598
1.1739598
1.1739592
1.1739596
1.1739597
1.1739594
1.1739593
1.1739593
1.1739592
1.1739596
1.1739595
1.1739592
1.1739598
1.1739593
1.1739591
1.1739584
1.173957
1.1739553
1.1739536
1.1739524
1.1739526
1.173954
1.1739555
1.1739572
1.1739584
1.1739593
1.1739593
1.1739583
1.1739572
1.173955
1.173951
1.1739482
1.1739455
1.1739453
1.1739478
1.1739507
1.1739549
1.1739571
1.1739582
1.1739592
1.1739592
1.1739588
1.1739589
1.1739578
1.1739581
1.173958
1.1739579
1.1739577
1.1739577
1.1739577
1.173958
1.1739583
1.1739589
1.1739587
1.1739577
1.1739579
1.1739573
1.1739582
1.1739579
1.173957
1.1739565
1.1739567
1.1739577
1.173958
1.1739583
1.1739593
1.1739592
1.1739587
1.173959
1.173958
1.173958
1.1739578
1.1739577
1.1739585
1.1739574
1.1739572
1.1739572
1.1739574
1.1739568
1.1739574
1.1739575
1.173959
1.1739598
1.1739597
1.1739587
1.1739575
1.1739566
1.173957
1.1739568
1.1739575
1.1739579
1.1739587
1.173958
1.173958
1.1739581
1.1739589
1.1739587
1.1739583
1.173957
1.173957
1.1739575
1.1739577
1.1739586
1.1739576
1.1739572
1.1739554
1.1739557
1.1739552
1.1739556
1.1739562
1.1739559
1.1739563
1.1739541
1.1739515
1.173951
1.1739515
1.1739541
1.1739536
1.1739518
1.1739534
1.1739508
1.1739505
1.1739509
1.1739536
1.1739532
1.1739507
1.1739503
1.1739528
1.173955
1.1739567
1.1739549
1.1739557
1.173957
1.1739535
1.1739559
1.173954
1.1739517
1.1739492
1.1739539
1.1739532
1.1739472
1.1739489
1.173951
1.1739385
1.1739467
1.1739528
1.1739559
1.1739573
1.1739555
1.173954
1.1739518
1.1739552
1.1739555
1.1739567
1.1739596
1.1739596
1.1739596
1.1739597
1.1739597
1.1739597
1.1739569
1.1739569
1.1739566
1.1739565
1.1739568
1.1739553
1.173955
1.1739535
1.1739539
1.1739561
1.1739576
1.1739544
1.1739485
1.1739295
1.1739256
1.173924
1.1739241
1.1739255
1.1739294
1.1739343
1.1739387
1.1739449
1.173945
1.1739388
1.1739343
1.1739295
1.1739257
1.1739242
1.1739242
1.1739256
1.1739294
1.1739342
1.1739387
1.1739449
1.1739449
1.1739507
1.1739555
1.1739582
1.173959
1.1739593
1.1739584
1.1739582
1.1739582
1.1739583
1.1739592
1.1739589
1.173958
1.1739555
1.1739508
1.1739452
1.1739448
1.1739391
1.1739345
1.1739297
1.1739257
1.1739242
1.1739242
1.1739255
1.1739294
1.1739341
1.1739387
1.1739446
1.173945
1.1739388
1.1739346
1.1739288
1.1739176
1.1739112
1.1739133
1.1739234
1.173932
1.1739318
1.1739231
1.173913
1.1739113
1.1739178
1.1739291
1.1739348
1.1739479
1.1739538
1.1739572
1.1739566
1.1739525
1.1739456
1.173926
1.1739298
1.1739246
1.1739148
1.1739127
1.1739249
1.1739346
1.1739486
1.1739607
1.1739717
1.1739778
1.173978
1.173972
1.1739613
1.1739491
1.1739352
1.1739253
1.173913
1.173935
1.1739562
1.1739768
1.1739964
1.174012
1.1740207
1.1740206
1.1740116
1.1739957
1.173976
1.1739554
1.1739343
1.173948
1.1739222
1.1739138
1.1739211
1.17392
1.1739243
1.1739244
1.1739455
1.1739525
1.1739567
1.1739572
1.1739537
1.1739479
1.1739295
1.1739258
1.173921
1.17392
1.1739149
1.1739149
1.1739304
1.1739706
1.1739598
1.1739952
1.1739757
1.1740035
1.17403
1.1740516
1.1740639
1.1740641
1.1740521
1.1740307
1.1740045
1.1739769
1.173949
1.1739228
1.1739611
1.1739965
1.1740309
1.1740646
1.1740918
1.1741073
1.1741071
1.1740912
1.1740637
1.1740297
1.1740513
1.1740109
1.1740198
1.1739766
1.1739768
1.1739305
1.173971
1.1740115
1.1740201
1.1740639
1.1740636
1.1741071
1.1740911
1.1741242
1.1741435
1.1741437
1.1741249
1.1740921
1.1740526
1.1740125
1.173972
1.1739313
1.1739782
1.1740215
1.174065
1.1741082
1.1741443
1.1741655
1.1741653
1.1741437
1.1741441
1.1741075
1.1740921
1.174052
1.1740308
1.1739959
1.1739603
1.1739223
1.1739137
1.1739145
1.1739243
1.1739286
1.1739342
1.1739386
1.1739348
1.1739257
1.1739173
1.1739108
1.1739125
1.1739345
1.1739485
1.1739764
1.1740044
1.1740311
1.1740649
1.1740926
1.1741254
1.1741447
1.1741657
1.174166
1.1741447
1.1741085
1.1740653
1.1740217
1.1739782
1.1739313
1.1739723
1.1740129
1.1740533
1.174093
1.1741259
1.1741449
1.1741088
1.1741086
1.1740652
1.1740529
1.1740125
1.1739965
1.1739767
1.1739558
1.1739346
1.1739249
1.1739126
1.1739225
1.1739487
1.1739609
1.1739718
1.1739779
1.1740214
1.1740215
1.1740653
1.1740532
1.1740931
1.1740657
1.1740317
1.1739971
1.1739613
1.1739227
1.1739492
1.1739773
1.1740052
1.1740317
1.1739969
1.1740127
1.1739719
1.1739779
1.173931
1.173931
1.1739148
1.1739136
1.1739144
1.1739173
1.1739285
1.1739347
1.1739411
1.1739312
1.1739269
1.1739071
1.1739046
1.173889
1.1738892
1.1738897
1.1738894
1.1739056
1.1739086
1.1739279
1.173939
1.173935
1.1739412
1.1739351
1.173929
1.1739244
1.173921
1.1739201
1.17392
1.1739209
1.1739242
1.1739287
1.1739348
1.173941
1.1739348
1.1739259
1.1739175
1.1739147
1.1739142
1.1739154
1.1739154
1.1739141
1.1739147
1.1739177
1.1739262
1.1739281
1.1739282
1.1739093
1.1739061
1.1738906
1.1738909
1.1738908
1.1738907
1.1739061
1.1739089
1.1739282
1.1739327
1.1739361
1.1739278
1.1739281
1.173915
1.1739159
1.1739165
1.1739118
1.1739058
1.1739151
1.1739224
1.1739146
1.1739056
1.1739057
1.1739151
1.1739087
1.173916
1.1739057
1.1739243
1.1739146
1.1739137
1.1739208
1.1739198
1.1739148
1.1739148
1.1739198
1.1739207
1.1739135
1.1739143
1.1739126
1.1739251
1.1739349
1.173949
1.1739611
1.1739225
1.1739126
1.1739107
1.1739172
1.1739286
1.1739241
1.1739049
1.1738894
1.1738896
1.1738899
1.1738898
1.1739056
1.1739117
1.1739166
1.1739054
1.1739199
1.1738883
1.1739107
1.1739116
1.1739308
1.173946
1.1739306
1.1739115
1.173949
1.1739584
1.1739121
1.1739396
1.1739527
1.1739326
1.1739367
1.1739848
1.1739817
1.1739624
1.1739874
1.1739624
1.1739395
1.1739142
1.1739117
1.1739366
1.1739583
1.1739852
1.1739323
1.1739526
1.1739819
1.1739961
1.1739607
1.1739219
1.1739152
1.1739149
1.1739054
1.1739116
1.1739162
1.1739154
1.1739078
1.1739146
1.1739049
1.1739049
1.1739141
1.1739218
1.1739676
1.1739677
1.1739456
1.1739358
1.1739602
1.1739958
1.1740075
1.1740051
1.1740473
1.1740351
1.1740139
1.1740127
1.1739826
1.1740123
1.1740136
1.1740484
1.1740496
1.1740778
1.1740334
1.1739954
1.1739362
1.1739607
1.1739674
1.1739456
1.17396
1.1740064
1.1740043
1.1739957
1.1740345
1.1740464
1.1740464
1.1740945
1.1740911
1.1740753
1.1741089
1.1740757
1.1740782
1.1740341
1.1740476
1.1740956
1.174092
1.1741287
1.1741348
1.1741137
1.1741342
1.1741281
1.17415
1.1741578
1.174157
1.1741322
1.1740909
1.1740441
1.174031
1.1740094
1.1739812
1.1739707
1.1739975
1.1740383
1.1739976
1.1740095
1.1740445
1.1740736
1.1740699
1.1740216
1.1740346
1.1740883
1.1740877
1.174036
1.1739523
1.173898
1.1738944
1.173888
1.1738977
1.1739101
1.173906
1.1739153
1.1739223
1.1739222
1.1739059
1.1739152
1.1739117
1.1739165
1.1739161
1.1739152
1.1739056
1.1739054
1.1739143
1.1739222
1.1739673
1.1739455
1.1739597
1.1739359
1.1739604
1.1739953
1.1740042
1.1740063
1.1739949
1.1739843
1.1739322
1.1739523
1.1739391
1.1739115
1.1739361
1.1739577
1.1739617
1.1739812
1.1740129
1.1740341
1.1740462
1.1740463
1.174033
1.1740772
1.1740944
1.1740909
1.1740747
1.1740475
1.1740488
1.1740117
1.1739818
1.1739866
1.1740128
1.1740117
1.174033
1.1740773
1.1741131
1.174134
1.1741279
1.1741083
1.1741281
1.1741499
1.1741576
1.1741342
1.1740947
1.174091
1.1740747
1.1740339
1.1740461
1.1740465
1.1740063
1.1739947
1.1739842
1.1739575
1.1739483
1.1739111
1.1739302
1.1739194
1.1739052
1.173888
1.1739103
1.1739109
1.1739299
1.1739453
1.1739615
1.1739386
1.1739136
1.173911
1.173936
1.1739314
1.1739515
1.1739807
1.1739948
1.1739595
1.1739211
1.1739348
1.1739594
1.1739446
1.1739663
1.1740037
1.1740039
1.1740464
1.1740914
1.1741285
1.1741503
1.1741505
1.1741291
1.1740923
1.1740476
1.1740052
1.1740075
1.1739455
1.1739604
1.1739361
1.1739609
1.1739965
1.1739964
1.1739857
1.1739323
1.1739527
1.1739824
1.1739628
1.1739397
1.1739117
1.1739369
1.173959
1.1739835
1.1740136
1.1740348
1.1740478
1.1740959
1.1740792
1.1740765
1.1740357
1.1740146
1.1740495
1.1740509
1.1740137
1.1740146
1.1739881
1.1739627
1.1739771
1.1739563
1.1739349
1.1739304
1.173911
1.1739104
1.1739493
1.1739461
1.1739305
1.1739048
1.1739195
1.1738875
1.1739113
1.1739117
1.1739589
1.1739371
1.1739858
1.1739822
1.1739526
1.1739138
1.1739394
1.1739325
1.1739362
1.1739965
1.174035
1.1740794
1.1741149
1.1741353
1.1741583
1.1741356
1.1741293
1.1741099
1.1740766
1.1740926
1.1740964
1.1740483
1.1740478
1.1740357
1.1739963
1.1740051
1.1740078
1.1739609
1.1739458
1.1739216
1.1739606
1.1739674
1.1739675
1.1740051
1.1740477
1.1740925
1.1741292
1.1741354
1.1741581
1.1741347
1.1741144
1.1741094
1.1740757
1.1740785
1.1740951
1.1740468
1.1740339
1.1740346
1.1740138
1.1740488
1.1740762
1.1740791
1.1740963
1.1740483
1.1740348
1.1740354
1.1740141
1.1740134
1.1740504
1.1740129
1.1739831
1.1739875
1.1739621
1.1739814
1.1739953
1.1739955
1.1740064
1.1739598
1.1739445
1.1739212
1.1739664
1.1739598
1.1739352
1.1739316
1.173985
1.1739366
1.1739586
1.1739113
1.1739137
1.1739519
1.173939
1.17393
1.1739456
1.1739622
1.1739819
1.1739961
1.1739963
1.1740078
1.1739608
1.1739458
1.1739216
1.1739605
1.173936
1.1739324
1.1739856
1.1739369
1.1739585
1.1739115
1.1739138
1.1739524
1.1739392
1.1739302
1.1739047
1.1739112
1.173949
1.1739102
1.1739108
1.1739048
1.1739193
1.1738875
1.1739047
1.1739097
1.1739053
1.1739148
1.1739215
1.1739213
1.1739146
1.1739055
1.1739101
1.1739059
1.1739151
1.1738942
1.1738978
1.173952
1.1739272
1.173918
1.1739012
1.1738956
1.173933
1.1739474
1.1739534
1.1739551
1.1739569
1.1739553
1.1739564
1.1739543
1.1739556
1.1739558
1.1739554
1.1739557
1.1739541
1.1739519
1.1739495
1.1739513
1.1739491
1.1739325
1.1739323
1.1739328
1.1739389
1.1739459
1.1739516
1.1739461
1.1739469
1.1739509
1.1739556
1.1739579
1.1739571
1.1739538
1.1739515
1.1739495
1.1739476
1.1739496
1.1739534
1.1739466
1.1739465
1.1739535
1.1739575
1.1739574
1.1739557
1.1739557
1.1739535
1.173955
1.1739554
1.173954
1.1739561
1.1739577
1.1739544
1.1739486
1.173951
1.1739557
1.1739581
1.1739583
1.1739573
1.173955
1.1739507
1.1739478
1.1739453
1.1739453
1.1739478
1.1739507
1.173955
1.1739573
1.1739584
1.1739596
1.1739595
1.1739586
1.1739573
1.1739555
1.1739537
1.1739524
1.1739524
1.1739537
1.1739554
1.1739572
1.1739585
1.1739593
1.1739594
1.1739591
1.1739589
1.173958
1.173958
1.1739585
1.1739582
1.1739581
1.1739566
1.1739558
1.1739553
1.1739557
1.1739536
1.1739533
1.1739529
1.1739528
1.1739532
1.1739534
1.173951
1.1739482
1.1739449
1.1739445
1.1739446
1.1739452
1.1739486
1.1739481
1.1739485
1.1739451
1.1739447
1.1739432
1.1739445
1.1739479
1.1739476
1.173948
1.1739447
1.1739444
1.1739477
1.1739474
1.173944
1.1739432
1.1739434
1.1739443
1.1739418
1.1739448
1.1739465
1.1739493
1.1739474
1.1739498
1.173953
1.1739518
1.1739494
1.1739489
1.1739512
1.1739453
1.1739473
1.1739452
1.1739433
1.1739413
1.1739462
1.1739466
1.1739431
1.1739405
1.173939
1.1739304
1.1739357
1.1739395
1.1739423
1.1739432
1.1739465
1.173948
1.1739509
1.1739534
1.1739518
1.1739493
1.1739475
1.1739506
1.1739531