/*--------------------------------*- C++ -*----------------------------------*\
  =========                 |
  \\      /  F ield         | OpenFOAM: The Open Source CFD Toolbox
   \\    /   O peration     | Website:  https://openfoam.org
    \\  /    A nd           | Version:  7
     \\/     M anipulation  |
\*---------------------------------------------------------------------------*/
FoamFile
{
    version     2.0;
    format      ascii;
    class       volScalarField;
    location    "410";
    object      p;
}
// * * * * * * * * * * * * * * * * * * * * * * * * * * * * * * * * * * * * * //

dimensions      [1 -1 -2 0 0 0 0];

internalField   nonuniform List<scalar> 
24789
(
101301.25
101301.27
101301.29
101301.29
101301.07
101299.9
101300.11
101300.1
101300.09
101300.06
101298.81
101298.84
101298.85
101298.86
101298.66
101297.34
101297.52
101297.51
101297.49
101297.47
101296.02
101296.04
101296.05
101296.07
101295.9
101294.35
101294.5
101294.48
101294.47
101294.44
101292.73
101292.75
101292.77
101292.79
101292.66
101290.82
101290.92
101290.91
101290.89
101290.86
101288.82
101288.85
101288.87
101288.89
101288.81
101286.6
101286.65
101286.62
101286.6
101286.57
101284.09
101284.12
101284.15
101284.18
101284.16
101281.46
101281.44
101281.41
101281.38
101281.34
101278.29
101278.33
101278.36
101278.4
101278.46
101275.12
101275
101274.96
101274.92
101274.88
101271.07
101271.11
101271.15
101271.2
101271.38
101267.17
101266.93
101266.87
101266.83
101266.78
101261.93
101261.99
101262.04
101262.11
101262.43
101257.04
101256.63
101256.55
101256.49
101256.43
101250.16
101250.23
101250.31
101250.4
101250.91
101243.88
101243.25
101243.13
101243.04
101242.97
101234.65
101234.74
101234.85
101234.99
101235.76
101226.33
101225.39
101225.22
101225.09
101224.98
101213.66
101213.79
101213.95
101214.15
101215.29
101202.26
101200.88
101200.64
101200.44
101200.28
101184.27
101184.47
101184.72
101185.02
101186.69
101167.9
101165.89
101165.51
101165.19
101164.95
101142.01
101142.3
101142.71
101143.2
101145.56
101117.55
101115.11
101114.5
101113.97
101113.58
101074.44
101074.93
101075.61
101076.36
101078.45
101037.12
101033.89
101032.83
101031.88
101031.31
101013.04
101013.69
101015.26
101017.26
101025.1
100920.06
100914.13
100912.32
100911.57
100910.45
100312.57
100335.81
100351.91
100370.94
100545.84
100862.19
100810.09
100799.97
100790.38
100776.66
100955.92
100970.14
100976.11
100983.69
101013.47
101177.87
101135.91
101126.09
101115.82
101098.82
101463.65
101490.69
101512.57
101531.3
101538.96
101117.69
100925.69
100904.78
100888.42
100861.38
101004.65
101009.96
101010.37
101010.58
101022.66
100781.46
100557.65
100530.28
100504.12
100470
100487.49
100495.93
100499.85
100507.77
100609.57
100926.52
100919.55
100918.36
100917.73
100917.26
101011.73
101012.47
101013.84
101015.51
101023.11
101036.86
101034.88
101033.99
101033.2
101032.67
101075.59
101076.01
101076.58
101077.22
101078.82
101118.41
101116.11
101115.58
101115.13
101114.81
101143.13
101143.37
101143.71
101144.13
101146.49
101168.61
101166.52
101166.19
101165.93
101165.73
101184.81
101184.97
101185.17
101185.44
101187.22
101202.66
101201.17
101200.96
101200.79
101200.66
101213.95
101214.06
101214.19
101214.37
101215.59
101226.57
101225.57
101225.43
101225.32
101225.22
101234.84
101234.92
101235.01
101235.13
101235.95
101244.02
101243.37
101243.27
101243.19
101243.12
101250.3
101250.37
101250.43
101250.51
101251.03
101257.15
101256.75
101256.68
101256.62
101256.57
101262.06
101262.11
101262.16
101262.22
101262.52
101267.25
101267.04
101266.99
101266.94
101266.9
101271.18
101271.23
101271.26
101271.31
101271.45
101275.18
101275.1
101275.06
101275.03
101275
101278.4
101278.43
101278.46
101278.5
101278.52
101281.51
101281.53
101281.51
101281.48
101281.45
101284.19
101284.22
101284.24
101284.27
101284.21
101286.65
101286.74
101286.72
101286.7
101286.67
101288.92
101288.94
101288.96
101288.98
101288.86
101290.87
101291.02
101291
101290.98
101290.96
101292.82
101292.85
101292.86
101292.88
101292.7
101294.39
101294.59
101294.57
101294.56
101294.54
101296.11
101296.13
101296.14
101296.15
101295.94
101297.37
101297.6
101297.6
101297.58
101297.56
101298.91
101298.93
101298.94
101298.94
101298.7
101299.94
101300.2
101300.19
101300.18
101300.16
101301.4
101301.42
101301.42
101301.43
101301.12
101300.01
101300.27
101300.27
101300.26
101300.24
101298.98
101298.99
101299
101299.01
101298.76
101297.43
101297.67
101297.66
101297.65
101297.63
101296.17
101296.19
101296.2
101296.21
101295.99
101294.43
101294.64
101294.62
101294.61
101294.59
101292.87
101292.89
101292.91
101292.92
101292.74
101290.9
101291.06
101291.04
101291.02
101291
101288.95
101288.98
101289
101289.02
101288.88
101286.67
101286.77
101286.75
101286.73
101286.71
101284.22
101284.25
101284.28
101284.3
101284.23
101281.53
101281.56
101281.53
101281.51
101281.48
101278.43
101278.46
101278.49
101278.52
101278.53
101275.19
101275.13
101275.09
101275.06
101275.02
101271.21
101271.25
101271.28
101271.33
101271.45
101267.25
101267.06
101267.01
101266.97
101266.92
101262.08
101262.13
101262.18
101262.24
101262.51
101257.13
101256.77
101256.7
101256.64
101256.59
101250.33
101250.39
101250.45
101250.53
101251.01
101243.99
101243.38
101243.29
101243.22
101243.15
101234.87
101234.95
101235.03
101235.15
101235.91
101226.53
101225.58
101225.45
101225.35
101225.26
101214
101214.1
101214.23
101214.39
101215.56
101202.62
101201.2
101201
101200.85
101200.72
101184.88
101185.03
101185.22
101185.47
101187.18
101168.57
101166.55
101166.24
101166
101165.82
101143.17
101143.39
101143.71
101144.1
101146.39
101118.61
101116.3
101115.81
101115.39
101115.09
101076.53
101076.91
101077.45
101078.06
101079.64
101034.43
101033.19
101032.41
101031.69
101031.23
101006.07
101006.69
101007.97
101009.55
101016.87
100949.14
100943.06
100941.53
100940.58
100939.93
100559.31
100565.9
100567.15
100571.73
100629.1
100594.76
100189.35
100145.74
100106.21
100055.98
101656.69
101639.19
101623.36
101602.96
101377.77
101070.26
100927.76
100909.88
100897.36
100872.44
101414.86
101447
101470.04
101490.37
101487.15
101203.85
101251.91
101256.44
101260.36
101257.61
101532.33
101520.32
101507.76
101490.88
101341.5
100582.22
100248.68
100204.73
100162.47
100111.55
100495.32
100505.24
100508.28
100514.89
100590.42
100931.37
100924.84
100923.25
100922.59
100921.6
101000.27
101000.85
101002.07
101003.62
101009.88
101030.94
101029.18
101028.35
101027.58
101027.07
101073.93
101074.38
101074.97
101075.62
101077.38
101116.67
101114.57
101114.04
101113.58
101113.23
101141.76
101142.03
101142.38
101142.8
101144.8
101167.44
101165.75
101165.41
101165.14
101164.92
101184.25
101184.42
101184.64
101184.91
101186.31
101201.93
101200.77
101200.55
101200.37
101200.23
101213.59
101213.72
101213.86
101214.04
101215
101226.09
101225.31
101225.16
101225.04
101224.94
101234.61
101234.7
101234.8
101234.93
101235.56
101243.71
101243.2
101243.09
101243
101242.93
101250.14
101250.2
101250.28
101250.37
101250.77
101256.93
101256.62
101256.54
101256.48
101256.41
101261.93
101261.98
101262.04
101262.1
101262.34
101267.11
101266.94
101266.88
101266.83
101266.78
101271.07
101271.12
101271.16
101271.21
101271.33
101275.08
101275.01
101274.97
101274.93
101274.89
101278.3
101278.34
101278.37
101278.41
101278.44
101281.44
101281.45
101281.42
101281.39
101281.35
101284.1
101284.14
101284.16
101284.19
101284.15
101286.6
101286.67
101286.65
101286.62
101286.59
101288.84
101288.87
101288.89
101288.92
101288.82
101290.84
101290.96
101290.94
101290.92
101290.89
101292.77
101292.79
101292.81
101292.83
101292.69
101294.39
101294.54
101294.53
101294.51
101294.48
101296.06
101296.09
101296.1
101296.12
101295.95
101297.39
101297.57
101297.56
101297.54
101297.52
101298.87
101298.89
101298.91
101298.92
101298.72
101299.98
101300.18
101300.18
101300.16
101300.14
101300.14
101300.16
101300.18
101300.18
101299.97
101298.72
101298.92
101298.92
101298.9
101298.88
101297.54
101297.56
101297.57
101297.58
101297.39
101295.96
101296.13
101296.12
101296.11
101296.08
101294.51
101294.53
101294.55
101294.56
101294.4
101292.71
101292.85
101292.83
101292.82
101292.79
101290.92
101290.95
101290.97
101290.98
101290.87
101288.85
101288.94
101288.92
101288.9
101288.87
101286.63
101286.66
101286.68
101286.7
101286.64
101284.19
101284.23
101284.2
101284.18
101284.14
101281.39
101281.42
101281.45
101281.48
101281.49
101278.49
101278.44
101278.41
101278.38
101278.34
101274.93
101274.97
101275.01
101275.05
101275.14
101271.39
101271.25
101271.2
101271.16
101271.12
101266.83
101266.88
101266.92
101266.98
101267.19
101262.44
101262.15
101262.08
101262.03
101261.98
101256.49
101256.55
101256.61
101256.68
101257.05
101250.92
101250.44
101250.35
101250.28
101250.22
101243.03
101243.1
101243.19
101243.29
101243.89
101235.78
101235.04
101234.91
101234.81
101234.72
101225.06
101225.16
101225.28
101225.43
101226.35
101215.31
101214.18
101214
101213.85
101213.73
101200.34
101200.48
101200.67
101200.89
101202.29
101186.7
101184.98
101184.7
101184.47
101184.29
101164.92
101165.14
101165.42
101165.77
101167.89
101145.46
101142.93
101142.49
101142.13
101141.86
101113.4
101113.75
101114.21
101114.76
101117.43
101078.41
101076.03
101075.36
101074.76
101074.31
101029.68
101030.16
101030.98
101031.93
101035.66
101020.52
101011.24
101009.5
101008.2
101007.82
100923.72
100923.83
100923.18
100923.44
100922.51
100555.49
100410.12
100394.52
100382.79
100364.52
100516.65
100545.57
100566.87
100590.03
100771.35
101209.83
101313.29
101318.41
101321.3
101319.64
100956.79
100975.86
100984.86
100995.34
101083.52
101565.18
101553.2
101533.2
101509.91
101480.41
101840.91
101987.89
102008.24
102022.64
102026.57
102116.53
102109.67
102102.21
102082.93
101789.18
101623.81
101655.25
101647.63
101638.93
101616.82
101506.94
101515.11
101518.49
101519.31
101458.99
101287.41
101368.43
101376.75
101382.14
101387.43
101163.88
101174.49
101183.55
101188.69
101190.3
100634.76
100419.86
100391.61
100366.54
100328.46
100497.02
100506.68
100511.16
100519.66
100603.58
100931.23
100926.91
100925.33
100924.24
100923.08
101004.58
101005.37
101006.72
101008.37
101012.98
101032.68
101031.67
101030.76
101029.9
101029.32
101074.84
101075.33
101075.97
101076.66
101077.94
101117.01
101115.17
101114.61
101114.11
101113.73
101142.06
101142.36
101142.74
101143.19
101145.03
101167.54
101165.92
101165.56
101165.26
101165.03
101184.27
101184.46
101184.69
101184.97
101186.36
101201.95
101200.8
101200.57
101200.38
101200.22
101213.59
101213.72
101213.87
101214.06
101215.02
101226.09
101225.3
101225.14
101225.02
101224.91
101234.58
101234.67
101234.77
101234.9
101235.55
101243.7
101243.18
101243.07
101242.98
101242.9
101250.11
101250.18
101250.25
101250.35
101250.76
101256.92
101256.6
101256.52
101256.46
101256.4
101261.9
101261.95
101262.01
101262.08
101262.33
101267.09
101266.91
101266.85
101266.8
101266.75
101271.05
101271.1
101271.14
101271.19
101271.32
101275.07
101275
101274.95
101274.91
101274.87
101278.28
101278.32
101278.35
101278.39
101278.43
101281.43
101281.44
101281.41
101281.37
101281.34
101284.09
101284.13
101284.15
101284.18
101284.15
101286.59
101286.66
101286.63
101286.6
101286.57
101288.83
101288.86
101288.88
101288.9
101288.81
101290.83
101290.95
101290.93
101290.9
101290.88
101292.75
101292.78
101292.8
101292.82
101292.68
101294.38
101294.53
101294.52
101294.5
101294.47
101296.06
101296.08
101296.1
101296.11
101295.94
101297.38
101297.57
101297.56
101297.55
101297.52
101298.88
101298.9
101298.91
101298.92
101298.72
101299.99
101300.2
101300.19
101300.18
101300.16
101300.2
101300.21
101300.22
101300.23
101299.97
101298.73
101298.97
101298.96
101298.95
101298.93
101297.59
101297.61
101297.62
101297.63
101297.39
101295.96
101296.17
101296.16
101296.15
101296.13
101294.55
101294.57
101294.59
101294.6
101294.4
101292.71
101292.89
101292.87
101292.86
101292.83
101290.96
101290.99
101291.01
101291.02
101290.87
101288.86
101288.98
101288.96
101288.95
101288.92
101286.67
101286.7
101286.72
101286.74
101286.65
101284.21
101284.27
101284.24
101284.22
101284.19
101281.44
101281.48
101281.5
101281.53
101281.52
101278.52
101278.49
101278.46
101278.43
101278.39
101274.99
101275.02
101275.06
101275.1
101275.18
101271.45
101271.3
101271.25
101271.21
101271.17
101266.89
101266.93
101266.97
101267.03
101267.25
101262.51
101262.2
101262.14
101262.09
101262.04
101256.55
101256.61
101256.66
101256.73
101257.14
101251.03
101250.5
101250.42
101250.35
101250.29
101243.11
101243.18
101243.26
101243.36
101244.02
101235.95
101235.13
101235.01
101234.92
101234.84
101225.22
101225.32
101225.43
101225.57
101226.58
101215.61
101214.38
101214.21
101214.07
101213.96
101200.69
101200.82
101200.99
101201.21
101202.68
101187.25
101185.49
101185.22
101185.01
101184.85
101165.8
101166.01
101166.28
101166.62
101168.66
101146.55
101144.29
101143.85
101143.5
101143.24
101115.13
101115.47
101115.95
101116.5
101118.59
101079.37
101078.3
101077.63
101077
101076.56
101032.77
101033.31
101034.18
101035.1
101035.9
101019.63
101013.64
101011.81
101010.35
101009.59
100930.72
100931.26
100931.61
100933.19
100935.61
100625.68
100529.42
100521.39
100516.04
100506.3
100407.23
100439.57
100462.97
100489.96
100731.54
101080.89
101103.51
101102.11
101100.84
101091.71
100839.9
100870.88
100898.99
100926.4
101149.93
101590.77
101946.84
101987.77
102023.27
102058.32
101052.3
101075.09
101092.59
101107.41
101191.61
100952.37
100878.15
100865.53
100856.12
100832.77
100897.66
100900.74
100901.39
100902.03
100896.32
100549.79
100338.9
100313.78
100292.05
100264.14
100915.18
100915.79
100915.59
100916.3
100916.69
101022.28
101014.73
101012.8
101011.27
101010.68
101030.08
101030.65
101031.62
101032.71
101036.15
101078.32
101076.23
101075.49
101074.8
101074.31
101113.42
101113.81
101114.34
101114.95
101117.43
101145.46
101143.04
101142.56
101142.14
101141.85
101164.85
101165.1
101165.42
101165.8
101167.85
101186.66
101184.97
101184.66
101184.41
101184.21
101200.24
101200.4
101200.6
101200.84
101202.24
101215.27
101214.12
101213.92
101213.75
101213.62
101224.96
101225.07
101225.2
101225.36
101226.31
101235.74
101234.97
101234.83
101234.72
101234.63
101242.95
101243.03
101243.12
101243.23
101243.86
101250.9
101250.39
101250.3
101250.22
101250.15
101256.43
101256.49
101256.55
101256.63
101257.04
101262.42
101262.1
101262.03
101261.97
101261.92
101266.76
101266.81
101266.86
101266.92
101267.16
101271.37
101271.19
101271.14
101271.1
101271.06
101274.87
101274.91
101274.95
101275
101275.11
101278.46
101278.39
101278.35
101278.32
101278.28
101281.34
101281.37
101281.4
101281.43
101281.46
101284.16
101284.17
101284.14
101284.12
101284.08
101286.57
101286.6
101286.62
101286.65
101286.6
101288.81
101288.88
101288.86
101288.84
101288.81
101290.86
101290.89
101290.91
101290.93
101290.83
101292.67
101292.79
101292.78
101292.76
101292.73
101294.45
101294.47
101294.49
101294.5
101294.36
101295.91
101296.07
101296.06
101296.05
101296.02
101297.48
101297.5
101297.52
101297.53
101297.35
101298.68
101298.87
101298.86
101298.85
101298.83
101300.09
101300.11
101300.12
101300.13
101299.92
101299.96
101300.17
101300.16
101300.15
101300.13
101298.88
101298.9
101298.91
101298.92
101298.71
101297.38
101297.58
101297.57
101297.55
101297.53
101296.08
101296.1
101296.11
101296.13
101295.95
101294.39
101294.55
101294.54
101294.52
101294.5
101292.78
101292.81
101292.82
101292.84
101292.7
101290.86
101290.97
101290.96
101290.94
101290.91
101288.87
101288.9
101288.92
101288.94
101288.85
101286.63
101286.69
101286.67
101286.64
101286.61
101284.13
101284.16
101284.19
101284.22
101284.18
101281.48
101281.48
101281.45
101281.42
101281.39
101278.33
101278.37
101278.4
101278.44
101278.48
101275.13
101275.04
101275
101274.97
101274.93
101271.11
101271.16
101271.2
101271.24
101271.39
101267.18
101266.97
101266.91
101266.87
101266.82
101261.99
101262.04
101262.09
101262.15
101262.44
101257.05
101256.68
101256.6
101256.54
101256.48
101250.23
101250.29
101250.36
101250.45
101250.92
101243.89
101243.31
101243.2
101243.12
101243.04
101234.74
101234.83
101234.93
101235.05
101235.78
101226.35
101225.46
101225.31
101225.19
101225.09
101213.77
101213.89
101214.04
101214.23
101215.32
101202.3
101200.96
101200.74
101200.55
101200.4
101184.39
101184.57
101184.81
101185.09
101186.72
101167.94
101165.93
101165.57
101165.27
101165.06
101141.96
101142.24
101142.62
101143.07
101145.52
101117.56
101114.84
101114.27
101113.78
101113.41
101074.42
101074.89
101075.51
101076.22
101078.72
101034.59
101031.12
101030.15
101029.29
101028.76
101005.01
101005.52
101006.91
101008.76
101018.06
100933.25
100935.05
100934.81
100935.54
100935.54
100425.38
100439.65
100447.43
100458.47
100569.46
100656.13
100389.53
100355.01
100324.91
100284.99
101581.46
101569.54
101556.89
101539.9
101358.19
101005.67
100884.1
100870.58
100862.06
100842.03
101219.51
101135.39
101205.67
101124.39
100945.86
100924.37
100904.81
100877.1
101379.56
101376.29
101372.75
101366.93
101311.89
101714.16
101723.81
101728.74
101726.67
101706.25
101454
101521.68
101518.3
101512.23
101490.28
101070.5
101104.39
101120.59
101139.09
101230.25
101456.62
101499.89
101503.13
101502.34
101499.88
101481.03
101768.43
101439.15
101515.15
101310.28
101312.59
101306.36
101310.24
101307.23
101305.9
101307.04
101307.1
101300.11
101300.13
101300.15
101300.15
101299.96
101298.72
101298.91
101298.9
101298.89
101298.87
101297.53
101297.56
101297.57
101297.58
101297.4
101295.97
101296.14
101296.13
101296.11
101296.09
101294.51
101294.54
101294.56
101294.57
101294.42
101292.73
101292.86
101292.85
101292.83
101292.8
101290.93
101290.96
101290.98
101291
101290.88
101288.86
101288.95
101288.93
101288.9
101288.87
101286.62
101286.65
101286.68
101286.7
101286.64
101284.19
101284.23
101284.2
101284.18
101284.14
101281.38
101281.42
101281.45
101281.49
101281.48
101278.46
101278.43
101278.39
101278.36
101278.32
101274.91
101274.95
101274.99
101275.03
101275.1
101271.35
101271.23
101271.18
101271.14
101271.09
101266.79
101266.84
101266.89
101266.95
101267.12
101262.36
101262.12
101262.05
101261.99
101261.94
101256.43
101256.49
101256.56
101256.64
101256.95
101250.78
101250.38
101250.29
101250.21
101250.14
101242.93
101243.01
101243.1
101243.21
101243.72
101235.57
101234.94
101234.81
101234.71
101234.61
101224.94
101225.05
101225.18
101225.33
101226.11
101215.04
101214.09
101213.9
101213.75
101213.62
101200.26
101200.41
101200.6
101200.83
101201.98
101186.38
101185
101184.72
101184.48
101184.29
101165.02
101165.25
101165.55
101165.91
101167.57
101145.1
101143.17
101142.72
101142.33
101142.03
101113.48
101113.87
101114.37
101114.94
101116.86
101077
101075.62
101074.94
101074.3
101073.82
101031
101031.55
101032.43
101033.38
101034.9
101021.29
101017.51
101015.78
101014.33
101013.63
100898.8
100899.96
100901
100902.55
100904.28
100556.46
100381.13
100362.41
100347.47
100326.98
100884.35
100892.61
100893.59
100895.93
100900.1
100872.98
100719.38
100699.32
100682.13
100649.75
101260.54
101267.52
101278.8
101285.73
101318.85
101551.35
101554.17
101558.99
101547.24
101377.27
101399.61
101398.77
101404.11
101354.43
101372.02
101417.94
101406.49
101398.75
101372.08
102341.52
102299.17
102262.72
102216.12
101855.1
101765.1
102013.6
102034.94
102050.53
102066.59
101260.07
101267.07
101278.37
101285.33
101318.68
100872.85
100719.16
100699.11
100681.93
100649.55
100884.27
100892.53
100893.5
100895.84
100900.05
100556.47
100381.06
100362.34
100347.37
100326.88
100898.92
100900.08
100901.1
100902.65
100904.37
101021.34
101017.52
101015.8
101014.35
101013.64
101031.05
101031.6
101032.48
101033.43
101034.96
101077.03
101075.65
101074.97
101074.33
101073.85
101113.51
101113.89
101114.39
101114.97
101116.88
101145.12
101143.2
101142.75
101142.36
101142.06
101165.04
101165.27
101165.57
101165.93
101167.59
101186.4
101185.02
101184.73
101184.5
101184.31
101200.28
101200.43
101200.62
101200.85
101202
101215.05
101214.11
101213.92
101213.76
101213.64
101224.96
101225.07
101225.19
101225.35
101226.13
101235.58
101234.95
101234.82
101234.72
101234.63
101242.94
101243.02
101243.11
101243.22
101243.73
101250.79
101250.39
101250.29
101250.22
101250.15
101256.43
101256.49
101256.56
101256.64
101256.95
101262.34
101262.1
101262.04
101261.98
101261.92
101266.78
101266.83
101266.88
101266.94
101267.11
101271.33
101271.21
101271.16
101271.12
101271.07
101274.88
101274.93
101274.97
101275.01
101275.08
101278.43
101278.4
101278.37
101278.33
101278.29
101281.35
101281.38
101281.42
101281.45
101281.44
101284.14
101284.18
101284.15
101284.12
101284.09
101286.57
101286.6
101286.63
101286.65
101286.59
101288.8
101288.89
101288.87
101288.85
101288.82
101290.87
101290.89
101290.92
101290.94
101290.82
101292.66
101292.8
101292.78
101292.76
101292.73
101294.45
101294.47
101294.49
101294.5
101294.35
101295.91
101296.07
101296.06
101296.04
101296.02
101297.47
101297.49
101297.51
101297.52
101297.34
101298.67
101298.86
101298.85
101298.83
101298.81
101300.07
101300.09
101300.11
101300.12
101299.91
101301.1
101301.33
101301.33
101301.32
101301.31
101299.93
101300.14
101300.14
101300.12
101300.1
101298.86
101298.88
101298.89
101298.9
101298.7
101297.38
101297.57
101297.56
101297.55
101297.52
101296.07
101296.1
101296.11
101296.12
101295.95
101294.4
101294.56
101294.54
101294.53
101294.5
101292.79
101292.81
101292.83
101292.85
101292.72
101290.88
101290.98
101290.96
101290.95
101290.92
101288.87
101288.9
101288.92
101288.94
101288.86
101286.65
101286.7
101286.67
101286.65
101286.62
101284.13
101284.16
101284.19
101284.22
101284.2
101281.5
101281.48
101281.44
101281.41
101281.38
101278.32
101278.36
101278.39
101278.43
101278.5
101275.15
101275.03
101274.99
101274.95
101274.91
101271.09
101271.13
101271.18
101271.23
101271.4
101267.19
101266.95
101266.89
101266.84
101266.79
101261.94
101262
101262.05
101262.12
101262.44
101257.06
101256.65
101256.57
101256.5
101256.44
101250.17
101250.24
101250.32
101250.41
101250.92
101243.89
101243.26
101243.15
101243.06
101242.98
101234.65
101234.75
101234.85
101234.99
101235.77
101226.34
101225.4
101225.24
101225.1
101225
101213.67
101213.8
101213.96
101214.16
101215.3
101202.29
101200.9
101200.66
101200.46
101200.3
101184.29
101184.48
101184.74
101185.04
101186.72
101167.93
101165.89
101165.51
101165.19
101164.95
101141.96
101142.26
101142.67
101143.15
101145.55
101117.54
101115.07
101114.46
101113.93
101113.55
101074.46
101074.96
101075.64
101076.37
101078.44
101036.32
101032.91
101031.83
101030.86
101030.29
101010.92
101011.5
101013.02
101014.94
101022.45
100916.73
100916.51
100915.84
100916.09
100915.49
100264.72
100292.62
100314.36
100339.49
100550.3
100896.77
100902.52
100901.89
100901.26
100898.17
100833.51
100856.82
100866.23
100878.82
100952.86
101191.81
101108.3
101093.56
101076.13
101053.45
102058.06
102023.15
101987.73
101946.77
101590.47
101149.88
100927.06
100899.76
100871.73
100840.9
101383.1
101378.09
101372.97
101364.92
101286.42
101204.53
101251.21
101255.53
101259.19
101256.36
100873.78
100898.7
100911.26
100929.17
101071.91
101005.95
100883.97
100870.43
100861.89
100841.76
100958.16
100977.25
100986.24
100996.71
101084.72
101125.14
100946.01
100924.48
100904.89
100877.14
101380.19
101376.92
101373.38
101367.54
101312.28
100895
100751.36
100728.98
100706.8
100673.98
100869.95
100877.56
100879.86
100883.57
100902.24
100546.09
100367.59
100348.85
100334.11
100312.1
100902.57
100903.86
100905.09
100906.49
100905.32
101021.78
101018.22
101016.41
101014.88
101014.24
101030.93
101031.49
101032.41
101033.39
101034.64
101077.16
101076.07
101075.38
101074.72
101074.24
101113.99
101114.37
101114.87
101115.44
101117.11
101145.26
101143.54
101143.09
101142.7
101142.41
101165.27
101165.51
101165.8
101166.15
101167.67
101186.46
101185.18
101184.9
101184.66
101184.48
101200.41
101200.56
101200.75
101200.97
101202.05
101215.1
101214.2
101214.01
101213.86
101213.74
101225.04
101225.15
101225.27
101225.42
101226.16
101235.61
101235.01
101234.89
101234.78
101234.69
101243
101243.08
101243.16
101243.27
101243.75
101250.81
101250.43
101250.34
101250.26
101250.19
101256.46
101256.52
101256.59
101256.66
101256.96
101262.37
101262.14
101262.08
101262.02
101261.97
101266.8
101266.85
101266.9
101266.96
101267.12
101271.34
101271.23
101271.18
101271.14
101271.09
101274.9
101274.95
101274.98
101275.03
101275.09
101278.44
101278.42
101278.38
101278.35
101278.31
101281.36
101281.39
101281.42
101281.46
101281.44
101284.15
101284.2
101284.17
101284.14
101284.11
101286.59
101286.62
101286.64
101286.67
101286.6
101288.81
101288.91
101288.89
101288.87
101288.84
101290.87
101290.9
101290.92
101290.94
101290.83
101292.67
101292.81
101292.79
101292.77
101292.75
101294.46
101294.48
101294.5
101294.51
101294.36
101295.91
101296.08
101296.07
101296.06
101296.03
101297.49
101297.51
101297.52
101297.53
101297.35
101298.67
101298.87
101298.86
101298.85
101298.83
101300.08
101300.1
101300.11
101300.12
101299.91
101301.06
101301.27
101301.27
101301.25
101301.23
101299.98
101300.19
101300.18
101300.17
101300.15
101298.89
101298.92
101298.93
101298.94
101298.74
101297.41
101297.6
101297.59
101297.57
101297.55
101296.1
101296.12
101296.14
101296.15
101295.98
101294.42
101294.58
101294.56
101294.55
101294.52
101292.8
101292.83
101292.85
101292.87
101292.73
101290.88
101291
101290.98
101290.96
101290.93
101288.88
101288.91
101288.94
101288.96
101288.86
101286.64
101286.71
101286.69
101286.66
101286.63
101284.14
101284.17
101284.2
101284.23
101284.19
101281.48
101281.49
101281.45
101281.42
101281.39
101278.34
101278.38
101278.41
101278.45
101278.47
101275.11
101275.05
101275.01
101274.97
101274.93
101271.1
101271.15
101271.19
101271.24
101271.35
101267.13
101266.97
101266.91
101266.86
101266.81
101261.96
101262.02
101262.07
101262.14
101262.37
101256.96
101256.66
101256.58
101256.52
101256.46
101250.19
101250.26
101250.33
101250.42
101250.8
101243.74
101243.26
101243.15
101243.06
101242.98
101234.67
101234.76
101234.87
101234.99
101235.59
101226.13
101225.4
101225.24
101225.12
101225.01
101213.7
101213.82
101213.98
101214.16
101215.06
101202.01
101200.93
101200.7
101200.51
101200.36
101184.43
101184.61
101184.85
101185.13
101186.42
101167.62
101166.09
101165.74
101165.44
101165.21
101142.33
101142.62
101143.01
101143.46
101145.19
101117.03
101115.35
101114.78
101114.27
101113.89
101074.13
101074.61
101075.26
101075.96
101077.06
101034.5
101033.23
101032.25
101031.34
101030.77
101014.14
101014.79
101016.32
101018.13
101021.67
100905.03
100906.32
100904.93
100903.69
100902.4
100311.54
100333.53
100348.26
100367
100545.64
100902
100883.33
100879.62
100877.33
100869.73
100673.77
100706.56
100728.71
100751.06
100894.7
101017.12
100940.42
100930.82
100921.3
100904.6
100662.45
100682.42
100694.49
100709.04
100825.93
100601.66
100457.46
100444.23
100434.68
100419.99
100917.05
100917.64
100918.44
100919.9
100925.96
101023.26
101017.57
101015.95
101014.62
101014.07
101032.6
101033.05
101033.85
101034.7
101035.95
101078.54
101077.3
101076.68
101076.11
101075.71
101114.97
101115.28
101115.72
101116.23
101118.38
101146.46
101144.19
101143.79
101143.47
101143.24
101165.84
101166.03
101166.27
101166.59
101168.6
101187.21
101185.51
101185.26
101185.07
101184.91
101200.77
101200.89
101201.05
101201.25
101202.65
101215.59
101214.44
101214.27
101214.15
101214.04
101225.3
101225.39
101225.49
101225.63
101226.56
101235.94
101235.19
101235.07
101234.99
101234.91
101243.19
101243.26
101243.33
101243.42
101244.02
101251.03
101250.57
101250.49
101250.42
101250.37
101256.62
101256.68
101256.73
101256.8
101257.15
101262.53
101262.27
101262.21
101262.16
101262.12
101266.95
101266.99
101267.03
101267.08
101267.27
101271.47
101271.35
101271.31
101271.28
101271.24
101275.05
101275.08
101275.12
101275.15
101275.21
101278.55
101278.55
101278.51
101278.49
101278.45
101281.5
101281.53
101281.56
101281.59
101281.54
101284.25
101284.33
101284.3
101284.28
101284.25
101286.73
101286.76
101286.78
101286.8
101286.69
101288.9
101289.04
101289.02
101289.01
101288.98
101291.02
101291.05
101291.06
101291.08
101290.92
101292.76
101292.94
101292.93
101292.92
101292.89
101294.61
101294.63
101294.64
101294.65
101294.45
101296
101296.22
101296.21
101296.2
101296.18
101297.63
101297.65
101297.66
101297.67
101297.43
101298.76
101299
101299
101298.99
101298.97
101300.22
101300.24
101300.25
101300.25
101299.99
101299.98
101300.24
101300.24
101300.23
101300.21
101298.97
101298.98
101299
101299
101298.75
101297.43
101297.67
101297.66
101297.65
101297.63
101296.18
101296.2
101296.21
101296.22
101296
101294.45
101294.65
101294.64
101294.63
101294.61
101292.89
101292.92
101292.93
101292.94
101292.77
101290.93
101291.08
101291.06
101291.05
101291.02
101288.98
101289
101289.02
101289.04
101288.91
101286.7
101286.79
101286.77
101286.75
101286.72
101284.24
101284.27
101284.29
101284.32
101284.26
101281.56
101281.58
101281.55
101281.52
101281.49
101278.44
101278.47
101278.5
101278.53
101278.56
101275.21
101275.14
101275.1
101275.06
101275.03
101271.21
101271.25
101271.29
101271.33
101271.48
101267.27
101267.06
101267.01
101266.96
101266.92
101262.08
101262.12
101262.17
101262.23
101262.54
101257.16
101256.76
101256.69
101256.63
101256.58
101250.31
101250.37
101250.44
101250.52
101251.04
101244.03
101243.38
101243.28
101243.2
101243.13
101234.85
101234.93
101235.02
101235.14
101235.95
101226.57
101225.58
101225.43
101225.32
101225.23
101213.96
101214.07
101214.2
101214.38
101215.59
101202.66
101201.19
101200.97
101200.81
101200.68
101184.83
101184.99
101185.19
101185.46
101187.23
101168.63
101166.54
101166.21
101165.95
101165.76
101143.15
101143.4
101143.74
101144.15
101146.51
101118.44
101116.14
101115.62
101115.17
101114.84
101075.63
101076.04
101076.62
101077.26
101078.86
101036.89
101034.9
101034.01
101033.22
101032.69
101011.77
101012.5
101013.87
101015.54
101023.14
100926.55
100919.57
100918.38
100917.74
100917.24
100487.68
100496.09
100500.02
100507.94
100609.66
100781.65
100557.99
100530.63
100504.48
100470.36
101004.79
101010.12
101010.53
101010.75
101022.84
101117.88
100925.99
100905.07
100888.67
100861.64
101464.99
101491.91
101513.7
101532.34
101539.33
101178.07
101136.47
101126.68