/*--------------------------------*- C++ -*----------------------------------*\
  =========                 |
  \\      /  F ield         | OpenFOAM: The Open Source CFD Toolbox
   \\    /   O peration     | Website:  https://openfoam.org
    \\  /    A nd           | Version:  7
     \\/     M anipulation  |
\*---------------------------------------------------------------------------*/
FoamFile
{
    version     2.0;
    format      ascii;
    class       surfaceScalarField;
    location    "410";
    object      phi;
}
// * * * * * * * * * * * * * * * * * * * * * * * * * * * * * * * * * * * * * //

dimensions      [1 0 -1 0 0 0 0];

internalField   nonuniform List<scalar> 
74673
(
1.7046344e-06
-0.0022058802
-2.1734391e-07
2.9174631e-06
-0.0026641739
-2.3295327e-07
3.8905069e-06
-0.003040532
-2.3954788e-07
4.7460401e-06
-0.0034233403
-2.4797021e-07
-0.056259162
-2.9948381e-06
7.5289527e-06
-4.8189503e-06
-0.056262077
-2.5094297e-06
2.1725919e-06
8.0708486e-06
-3.942317e-06
-0.0034242136
-2.197951e-07
2.1641124e-07
-2.952809e-06
-0.0030415029
-2.1410823e-07
1.9555098e-07
-1.7226101e-06
-0.0026653681
-2.0968633e-07
1.7360196e-07
-0.0022075516
-1.9558544e-07
1.4436907e-07
1.7533899e-06
-0.0022092628
-1.554096e-07
1.1311162e-07
3.0105882e-06
-0.0026665986
-1.6206451e-07
1.3538975e-07
4.0306035e-06
-0.0030425143
-1.6073588e-07
1.5211189e-07
4.9376113e-06
-0.0034251278
-1.6091738e-07
1.6812538e-07
-0.056265676
-1.4919527e-06
1.6735309e-06
8.3554027e-06
-5.1061897e-06
-0.056269908
-4.0704445e-07
1.0808511e-06
8.6637972e-06
-4.1533122e-06
-0.0034260858
-9.9075694e-08
1.0424662e-07
-3.093917e-06
-0.0030435624
-1.0507806e-07
9.3795466e-08
-1.7958463e-06
-0.0026678672
-1.1257756e-07
8.3157714e-08
-0.002211014
-1.1395867e-07
6.9354005e-08
1.8437975e-06
-0.0022128133
-8.0635609e-08
3.6224234e-08
3.1875462e-06
-0.0026691816
-7.2477153e-08
4.3155475e-08
4.29521e-06
-0.0030446594
-5.9656509e-08
4.8959588e-08
5.2963262e-06
-0.0034270935
-4.8611361e-08
5.5211297e-08
-0.056274814
4.8151039e-07
6.1757973e-07
9.1040362e-06
-5.5136018e-06
-0.056280438
1.0869602e-06
3.2484693e-07
9.725871e-06
-4.4582787e-06
-0.0034281579
-1.6353379e-08
2.5428611e-08
-3.2959243e-06
-0.0030458127
-3.1010939e-08
2.1974161e-08
-1.8977434e-06
-0.0026705518
-4.7382349e-08
1.9383662e-08
-0.0022146675
-6.011273e-08
1.6597879e-08
1.9559261e-06
-0.0022165803
-5.1519838e-08
8.4537552e-09
3.4138947e-06
-0.0026719825
-3.6135654e-08
8.969127e-09
4.6360309e-06
-0.0030470272
-1.7514124e-08
9.976422e-09
5.7573572e-06
-0.0034292903
-7.5750454e-10
1.1815312e-08
-0.05628681
1.4391342e-06
1.7373041e-07
1.0515936e-05
-6.0307394e-06
-0.056294012
1.6419779e-06
1.2845116e-07
1.1462801e-05
-4.8367867e-06
-0.0034304973
4.3613399e-09
8.7709156e-09
-3.5462915e-06
-0.0030483114
-1.3753024e-08
7.426032e-09
-2.0241582e-06
-0.0026734779
-3.3699126e-08
7.0513746e-09
-0.0022185613
-5.0526516e-08
7.3316157e-09
2.0984236e-06
-0.0022206292
-5.2302384e-08
2.1917663e-08
3.6931765e-06
-0.0026750606
-3.4518515e-08
2.2524795e-08
5.0643426e-06
-0.0030496923
-1.3453885e-08
2.3216093e-08
6.3365228e-06
-0.0034318
5.710175e-09
2.481965e-08
-0.05630229
1.8030251e-06
2.0314195e-07
1.2607937e-05
-6.6849109e-06
-0.056311581
1.9543286e-06
1.3189205e-07
1.389005e-05
-5.3177724e-06
-0.0034331843
4.90893e-09
1.2235187e-08
-3.8619099e-06
-0.0030511437
-1.5541217e-08
1.1173209e-08
-2.1813309e-06
-0.0026767147
-3.7569233e-08
1.1142331e-08
-0.0022227663
-5.6177592e-08
1.1970705e-08
2.2735971e-06
-0.0022249949
-6.1394332e-08
1.6489196e-08
4.0508528e-06
-0.002678466
-4.2020677e-08
1.6052795e-08
5.6066632e-06
-0.0030526969
-1.8857429e-08
1.6229945e-08
7.0752716e-06
-0.0034346729
2.7251722e-09
1.7354942e-08
-0.056322059
2.0994202e-06
1.5800505e-07
1.529556e-05
-7.5191784e-06
-0.056333816
2.2342936e-06
1.9879243e-07
1.6843029e-05
-5.9298531e-06
-0.0034362835
-2.0721032e-09
2.3357319e-08
-4.2615651e-06
-0.0030543622
-2.4884303e-08
2.1923521e-08
-2.3791001e-06
-0.0026803211
-4.8827339e-08
2.1476927e-08
-0.0022273267
-6.8678002e-08
2.1315288e-08
2.4998675e-06
-0.0022297747
-7.7895225e-08
2.6083352e-08
4.5058326e-06
-0.0026822962
-5.7602847e-08
2.6814801e-08
6.3051456e-06
-0.0030561568
-3.2503657e-08
2.7758474e-08
8.0252869e-06
-0.0034380249
-8.3089477e-09
2.9582527e-08
-0.05634702
2.3671264e-06
2.4557734e-07
1.8616499e-05
-8.6137453e-06
-0.056361946
2.5179624e-06
2.9838264e-07
2.0723676e-05
-6.7346451e-06
-0.0034399233
-1.6559766e-08
3.5854311e-08
-4.7882558e-06
-0.0030580947
-4.2149403e-08
3.3688163e-08
-2.6378233e-06
-0.0026844104
-6.8326459e-08
3.2143224e-08
-0.0022323535
-8.9356815e-08
3.040929e-08
2.8000751e-06
-0.0022350853
-1.0230696e-07
3.4015789e-08
5.1185758e-06
-0.002686685
-8.0480647e-08
3.6595972e-08
7.2419938e-06
-0.0030602041
-5.2736357e-08
3.8790381e-08
9.3018726e-06
-0.0034419994
-2.5308266e-08
4.1480931e-08
-0.056378847
2.7000464e-06
3.5534294e-07
2.3147797e-05
-1.011749e-05
-0.056397927
2.9174401e-06
4.0944211e-07
2.5871064e-05
-7.8392708e-06
-0.003444288
-3.5629115e-08
4.6014927e-08
-5.5098754e-06
-0.0030625108
-6.548096e-08
4.2761112e-08
-2.9894163e-06
-0.0026891504
-9.4929085e-08
3.9948293e-08
-0.0022379933
-1.1785058e-07
3.6448194e-08
3.2191526e-06
-0.0022411147
-1.3434741e-07
3.668657e-08
5.9769006e-06
-0.0026918394
-1.0952578e-07
4.0845412e-08
8.5584754e-06
-0.0030650589
-7.7590022e-08
4.4209182e-08
1.109121e-05
-0.0034468238
-4.4908521e-08
4.8052495e-08
-0.056419548
3.2177148e-06
4.4925498e-07
2.9044388e-05
-1.2273272e-05
-0.056444157
3.6202819e-06
4.0978531e-07
3.2852413e-05
-9.4285131e-06
-0.0034496476
-5.4670795e-08
3.3716156e-08
-6.5486959e-06
-0.0030678771
-9.1287621e-08
2.9693148e-08
-3.4974537e-06
-0.00269479
-1.2679363e-07
2.6258295e-08
-0.0022444805
-1.5434689e-07
2.2733421e-08
3.8394278e-06
-0.0022481753
-1.8095456e-07
3.6465725e-08
7.2484643e-06
-0.0026980909
-1.5070065e-07
4.2582153e-08
1.0499589e-05
-0.0030710648
-1.1129723e-07
4.7932582e-08
1.3725005e-05
-0.0034528567
-6.9958574e-08
5.3667593e-08
-0.056472463
4.0665995e-06
5.7986683e-07
3.7384975e-05
-1.5526925e-05
-0.056504946
4.6103855e-06
6.8647174e-07
4.2713221e-05
-1.1835898e-05
-0.0034565141
-9.139714e-08
5.7763635e-08
-8.1205947e-06
-0.0030746916
-1.3888329e-07
5.0437335e-08
-4.2630988e-06
-0.0027018084
-1.8357857e-07
4.3715855e-08
-0.002252257
-2.17726e-07
3.6284395e-08
4.8015443e-06
-0.0022568294
-2.6251968e-07
3.3492544e-08
9.2220181e-06
-0.002706049
-2.2241421e-07
4.2503284e-08
1.3513426e-05
-0.0030788632
-1.7049989e-07
5.0691874e-08
1.7792825e-05
-0.0034607381
-1.1515665e-07
5.9766927e-08
-0.056542436
5.3438305e-06
7.920595e-07
4.9146896e-05
-2.065047e-05
-0.056586051
6.3516808e-06
9.0143187e-07
5.7011936e-05
-1.5634616e-05
-0.0034656743
-1.3962725e-07
5.9980807e-08
-1.0616551e-05
-0.0030837248
-2.0557073e-07
4.9119759e-08
-5.4808395e-06
-0.0027109567
-2.6699247e-07
3.9065955e-08
-0.0022620234
-3.1483711e-07
2.8027104e-08
6.3550308e-06
-0.0022680236
-3.7299579e-07
1.8218558e-08
1.2402472e-05
-0.0027167199
-3.1585631e-07
3.1663353e-08
1.8351992e-05
-0.003089476
-2.4200325e-07
4.3748377e-08
2.4304017e-05
-0.0034715212
-1.621022e-07
5.7054355e-08
-0.056637254
7.7595628e-06
1.0143686e-06
6.6733387e-05
-2.9013704e-05
-0.056697937
9.6710889e-06
1.0892843e-06
7.8936402e-05
-2.1859857e-05
-0.003478542
-1.7915386e-07
4.6149257e-08
-1.4711825e-05
-0.0030963773
-2.7730381e-07
3.060461e-08
-7.4769964e-06
-0.0027236043
-3.6679197e-07
1.6452285e-08
-0.0022750667
-4.3476775e-07
8.9285279e-10
8.9394463e-06
-0.002283488
-4.8794795e-07
-3.0142888e-08
1.7701093e-05
-0.0027319447
-4.0551764e-07
-1.575708e-08
2.640143e-05
-0.0031047807
-2.9603614e-07
-9.0705701e-10
3.5114264e-05
-0.0034870961
-1.7528392e-07
1.6466878e-08
-0.056770704
1.2283375e-05
1.0568551e-06
9.4541284e-05
-4.2989491e-05
-0.056859465
1.5994751e-05
7.5941862e-07
0.00011499578
-3.227382e-05
-0.0034976415
-1.1718564e-07
-5.2996175e-08
-2.1569751e-05
-0.0031151489
-2.6586885e-07
-6.999174e-08
-1.0831706e-05
-0.0027421993
-4.0138571e-07
-8.206618e-08
-0.0022937244
-5.0837768e-07
-8.6983171e-08
1.328216e-05
-0.0023063592
-4.513436e-07
-1.9607691e-07
2.6603635e-05
-0.002755006
-3.0690654e-07
-2.0781685e-07
3.9923467e-05
-0.0031281275
-1.3758216e-07
-2.0373296e-07
5.3261405e-05
-0.0035108334
4.5052954e-08
-1.911583e-07
-0.056969635
2.1170696e-05
-7.0222188e-08
0.00014233067
-6.6783713e-05
-0.057109214
2.9017208e-05
-1.7526029e-06
0.00017909828
-4.9987166e-05
-0.0035275836
3.7632161e-07
-4.2262797e-07
-3.321555e-05
-0.0031446219
1.4567129e-07
-4.2285974e-07
-1.6481746e-05
-0.0027712667
-6.2045819e-08
-4.1108813e-07
-0.0023222362
-2.3055386e-07
-3.7415344e-07
2.0737074e-05
-0.0023424325
5.3579791e-08
-5.9440444e-07
4.1665892e-05
-0.0027917585
2.1489827e-07
-6.5190071e-07
6.2699703e-05
-0.0031654261
4.5408202e-07
-6.8365867e-07
8.3790894e-05
-0.00354871
7.3627149e-07
-7.0106843e-07
-0.057290249
3.8234321e-05
-4.1119227e-06
0.0002307033
-0.00010663336
-0.057536778
4.7874332e-05
-6.8633664e-06
0.00031215219
-7.9471325e-05
-0.0035759729
1.0335834e-06
-9.3281187e-07
-5.2624147e-05
-0.0031920864
7.1108444e-07
-8.9807802e-07
-2.6138735e-05
-0.0028178647
4.7941796e-07
-8.5877618e-07
-0.0023681268
3.8775089e-07
-8.3212771e-07
3.4703571e-05
-0.002402146
8.1784462e-07
-1.5023493e-06
7.4014009e-05
-0.0028567266
8.0095266e-07
-1.2495427e-06
0.00011438474
-0.003232215
9.8076115e-07
-1.222907e-06
0.00015528358
-0.0036170454
1.4730724e-06
-1.2993687e-06
-0.057872079
6.9881578e-05
-1.2335229e-05
0.00043303737
-0.00023416171
-0.058187369
9.3392526e-05
-1.4774577e-05
0.00047083376
-0.00017214318
-0.0036782698
8.5854389e-07
-1.6527425e-06
-0.00010890929
-0.0032938397
-3.9947697e-08
-1.5692319e-06
-4.8899499e-05
-0.00291447
-3.9397692e-07
-1.872432e-06
-0.0024472011
-1.0902516e-06
-2.7541521e-06
9.7516616e-05
-0.0025306855
-1.3842376e-05
-1.9002426e-07
0.00018001477
-0.0029870077
-8.0948525e-06
-1.865657e-06
0.00025640384
-0.0033639702
-4.4011966e-06
-1.8574339e-06
0.00033450373
-0.0037513167
-4.0008293e-06
-1.0521184e-06
-0.058302704
5.9846528e-05
1.2160285e-05
0.00037783212
0.00010194268
-0.059688789
3.2792609e-05
-2.9010917e-05
0.001280361
7.1250386e-05
-0.0037244266
1.118493e-05
-7.3826012e-06
4.6030123e-05
-0.0033416348
1.0138619e-05
-7.2536195e-06
2.3152489e-05
-0.0029685765
1.2290029e-05
-7.8433953e-06
-0.0025188089
2.203247e-05
-1.0756537e-05
-2.5278823e-05
-0.0024018023
-0.0001009144
9.18677e-06
-5.4179721e-05
-0.0028295385
-0.00011348583
3.3488066e-06
-8.9761857e-05
-0.0031864867
-0.00012142781
1.8619201e-06
-0.00013220738
-0.0035539251
-0.00013017413
2.1181443e-06
-0.059748561
-0.0018941922
3.2668157e-05
0.0017890882
0.00056471682
-0.056489331
-0.0031146472
6.9166762e-05
-0.0007784657
0.00039246576
-0.003194088
-0.00020019636
1.2610288e-05
0.00024238735
-0.0028611023
-0.00018715146
1.1845471e-05
0.00011092491
-0.0025393201
-0.00017123376
1.247778e-05
-0.0021615217
-0.00014454043
1.5184734e-05
-2.0398346e-05
0.0020320741
-0.0021313557
-0.0020418417
-4.9440898e-05
0.0024147623
-0.0025181608
-0.002406879
-8.0311411e-05
0.0027563025
-0.0028559852
-0.0027305492
-0.00011148297
0.0031217252
-0.003210402
-0.0030742396
0.071682227
-0.02776247
-0.034787737
-0.065732835
0.00028818217
0.087117964
-0.014463416
-0.0043751503
0.00018954246
0.0038360992
-0.0008159307
9.992864e-05
0.0033825821
-0.0007238172
2.8878115e-05
0.0029557637
-0.0006411846
0.0024704857
-0.00055407392
-9.8083976e-05
0.002475072
-7.4168995e-06
-0.00019633393
0.0029650885
-2.4560677e-05
-0.00029725517
0.0033983441
-3.6268656e-05
-0.00040767964
0.0038627385
-4.6388862e-05
0.085481536
-0.0016058002
0.00094035625
-0.00025238153
0.085075834
-0.00055971872
0.0012505956
-0.00020212458
0.0038678
-4.4133555e-05
-0.00015373815
0.0034006062
-4.050984e-05
-9.4489753e-05
0.0029601717
-4.2041625e-05
0.0024530826
-5.0467886e-05
6.1274269e-05
0.0023842227
-6.2567372e-06
0.00013342186
0.0028913297
-1.1400416e-05
0.00021289252
0.0033300203
-1.3285957e-05
0.00029665388
0.0037934085
-1.3370712e-05
0.084857092
-0.0001348819
0.00071012359
-0.00022253441
0.084409224
-3.6247534e-05
0.00080004282
-0.0001584491
0.0037315884
-1.4066787e-06
-9.7480477e-05
0.0032701189
-1.1072252e-06
-4.2120113e-05
0.0028361626
-5.8720644e-07
0.0023403014
7.1092774e-07
3.2351856e-05
0.0023087285
3.884746e-08
6.9680478e-05
0.0027996996
-6.4644116e-08
0.00010960773
0.0032313729
-2.0050226e-07
0.00015214832
0.0036908478
-3.2693582e-07
0.083968243
-7.0467041e-06
0.00067005784
-0.00010704113
0.083642801
5.2015974e-06
0.00047515569
-7.809888e-05
0.0036625868
3.5236535e-07
-5.0732668e-05
0.0032043694
3.4842753e-07
-2.4768675e-05
0.0027738406
3.7435162e-07
0.0022839495
3.9806308e-07
1.9304703e-05
0.0022641602
5.3824828e-07
3.9701391e-05
0.0027531255
5.3329671e-07
6.119628e-05
0.0031827975
5.3106426e-07
8.3829451e-05
0.0036401512
5.3873896e-07
0.083399657
5.0566642e-06
0.00036015149
-6.6064537e-05
0.083209129
1.4789507e-06
0.00028413062
-4.8101293e-05
0.0036221357
4.2850067e-07
-3.1094368e-05
0.0031654906
4.4565066e-07
-1.500485e-05
0.0027365144
4.595876e-07
0.0022484487
4.7601457e-07
1.1857503e-05
0.0022357773
3.6260808e-07
2.4471285e-05
0.0027232662
3.2753764e-07
3.7816084e-05
0.0031517132
2.9501165e-07
5.1951047e-05
0.0036077863
2.5951431e-07
0.083056758
-1.1501094e-06
0.00022664243
-4.180042e-05
0.082932511
-2.5031438e-06
0.00018454507
-3.0463167e-05
0.0035961894
1.4250591e-07
-1.9782234e-05
0.003140581
1.8541144e-07
-9.6579485e-06
0.0027125152
2.2531788e-07
0.0022253457
2.6520173e-07
8.0177014e-06
0.0022166351
2.0502174e-07
1.6309908e-05
0.0027036529
1.6455657e-07
2.5028718e-05
0.0031314418
1.243866e-07
3.428908e-05
0.0035866723
8.1444151e-08
0.082829697
-2.9454323e-06
0.00015233226
-2.8586748e-05
0.082743411
-2.8748227e-06
0.0001274188
-2.0917591e-05
0.003578768
5.5995297e-08
-1.3691623e-05
0.0031238428
9.5680939e-08
-6.7795405e-06
0.0026962415
1.3253879e-07
0.0022092516
1.6914632e-07
5.838555e-06
0.002202892
1.4806989e-07
1.1682533e-05
0.0026899655
1.1616361e-07
1.7754752e-05
0.003117445
8.3646103e-08
2.4188708e-05
0.0035721235
4.8460335e-08
0.082670316
-2.5953832e-06
0.00010763873
-2.0745112e-05
0.082607932
-2.2216482e-06
9.1701932e-05
-1.5282054e-05
0.0035664709
4.9912077e-08
-1.0113807e-05
0.0031119909
8.027755e-08
-5.1000128e-06
0.0026845765
1.0823725e-07
0.0021973419
1.3523252e-07
4.5255208e-06
0.0021924283
1.2558051e-07
8.8856664e-06
0.0026798904
1.0354747e-07
1.3344463e-05
0.0031072816
7.9974611e-08
1.8042455e-05
0.0035616038
5.3998415e-08
0.082554228
-1.8609632e-06
7.8952028e-05
-1.5898425e-05
0.082507646
-1.5384791e-06
6.8629337e-05
-1.180804e-05
0.0035573641
5.7856808e-08
-7.912933e-06
0.0031031676
8.001767e-08
-4.0661857e-06
0.0026757603
9.9753558e-08
0.0021880267
1.1769573e-07
3.7014193e-06
0.0021840339
1.1047323e-07
7.1321027e-06
0.0026720832
9.570793e-08
1.0575844e-05
0.0030995336
7.8951687e-08
1.4174118e-05
0.0035536356
6.0258789e-08
0.082467014
-1.2585031e-06
6.0131111e-05
-1.2764861e-05
0.082431515
-1.0606015e-06
5.29445e-05
-9.5661728e-06
0.0035503248
5.7449278e-08
-6.4943298e-06
0.0030962968
7.3681434e-08
-3.3955337e-06
0.0026687695
8.8145371e-08
0.0021803834
1.0062928e-07
3.1476036e-06
0.0021770105
9.0991085e-08
5.964046e-06
0.0026657642
7.9338145e-08
8.7359015e-06
0.0030933811
6.6252648e-08
1.1604026e-05
0.0035473598
5.1964812e-08
0.082400388
-9.2396414e-07
4.6872459e-05
-1.0634546e-05
0.082372923
-7.6751912e-07
4.178527e-05
-8.0422609e-06
0.003544681
5.0945693e-08
-5.5247948e-06
0.0030907349
6.3284952e-08
-2.9389466e-06
0.0026630088
7.4609646e-08
0.0021738691
8.4565748e-08
2.7590735e-06
0.0021709254
8.2370094e-08
5.1523659e-06
0.002660461
7.4008246e-08
7.4555432e-06
0.0030883147
6.4359956e-08
9.8152441e-06
0.0035422421
5.3882005e-08
0.082348606
-5.8070454e-07
3.7412993e-05
-9.1181381e-06
0.082327114
-4.3807687e-07
3.3565408e-05
-6.9566231e-06
0.0035400086
5.5397787e-08
-4.8347144e-06
0.0030860863
6.4312671e-08
-2.6111416e-06
0.0026580965
7.2704672e-08
0.002168145
7.9906771e-08
2.4753826e-06
0.002165514
7.7721118e-08
4.5597901e-06
0.002655883
7.1423736e-08
6.5285449e-06
0.003084021
6.4030297e-08
8.5180081e-06
0.0035379545
5.6365766e-08
0.082308103
-3.2150335e-07
3.0218188e-05
-7.9957152e-06
0.082291194
-2.3560663e-07
2.7374494e-05
-6.1515809e-06
0.0035360517
5.6647271e-08
-4.3207435e-06
0.003082102
6.3314277e-08
-2.3623112e-06
0.0026538061
6.9704361e-08
0.0021630079
7.5132951e-08
2.2606307e-06
0.0021606144
7.1452556e-08
4.1119823e-06
0.0026518468
6.5895386e-08
5.825042e-06
0.0030803104
5.9700808e-08
7.5367243e-06
0.003534289
5.3661298e-08
0.082276143
-1.9458724e-07
2.4881519e-05
-7.1274505e-06
0.082262818
-1.996185e-07
2.2606643e-05
-5.5299801e-06
0.0035326483
4.8134698e-08
-3.9218891e-06
0.0030786329
5.3882985e-08
-2.1672736e-06
0.0026499947
5.9906563e-08
0.0021583254
6.5550156e-08
2.0887465e-06
0.002156124
6.0362628e-08
3.7564302e-06
0.0026482383
5.4194392e-08
5.272324e-06
0.0030770555
4.8081975e-08
6.7651513e-06
0.0035311186
4.2612902e-08
0.082251084
-2.1487673e-07
2.0517403e-05
-6.4404802e-06
0.082240758
-2.312856e-07
1.8639354e-05
-5.0350706e-06
0.0035296803
3.7269133e-08
-3.6046903e-06
0.0030755687
4.2595608e-08
-2.0109909e-06
0.0026465623
4.8670203e-08
0.0021540075
5.5039335e-08
1.9459512e-06
0.002151962
4.8035292e-08
3.4687759e-06
0.0026449624
4.0929478e-08
4.824819e-06
0.0030741606
3.4529724e-08
6.1486035e-06
0.0035283267
2.902911e-08
0.082231644
-2.8973631e-07
1.6991479e-05
-5.8791651e-06
0.082223626
-4.90841e-07
1.5474779e-05
-4.6330691e-06
0.0035270538
1.0527463e-08
-3.3435801e-06
0.003072823
1.7113378e-08
-1.8837434e-06
0.0026434302
2.4952651e-08
0.0021499839
3.4279399e-08
1.8278472e-06
0.0021480663
9.092212e-09
3.2289125e-06
0.0026419611
-4.3974692e-09
4.4568366e-06
0.0030715507
-1.5246856e-08
5.6367738e-06
0.0035258498
-2.460231e-08
0.082216603
-9.3133196e-07
1.4072787e-05
-5.4284669e-06
0.082210479
-1.6298247e-06
1.2775276e-05
-4.3033153e-06
0.0035247029
-7.7308435e-08
-3.1290684e-06
0.0030703349
-6.3481343e-08
-1.7770111e-06
0.0026405444
-4.7950961e-08
0.0021462035
-2.8142734e-08
1.7345238e-06
0.0021443868
-7.3239281e-08
3.0493976e-06
0.0026391685
-1.0101999e-07
4.1806595e-06
0.0030691653
-1.2237391e-07
5.2587987e-06
0.0035236057
-1.418089e-07
0.082205166
-2.5005915e-06
1.158056e-05
-5.1768729e-06
0.082200624
-3.249471e-06
1.0458853e-05
-4.1207462e-06
0.0035225287
-1.9892343e-07
-3.0060913e-06
0.0030680115
-1.7501491e-07
-1.7123422e-06
0.0026378136
-1.4852238e-07
0.0021425924
-1.1352757e-07
1.6743476e-06
-1.2306422e-07
2.9365165e-06
-1.5922479e-07
4.0181042e-06
-1.8661729e-07
5.0385172e-06
-2.1147245e-07
-3.3982661e-06
9.3009115e-06
-5.136192e-06
-0.082202915
-6.8389526e-06
8.1176661e-06
-4.0902895e-06
-0.0035234782
-4.4858028e-07
5.5054035e-07
-2.9875959e-06
-0.003069058
-4.0107843e-07
5.1438017e-07
-1.7015771e-06
-0.0026390896
-3.4875645e-07
4.7744832e-07
-0.0021443434
-2.7896932e-07
4.2019439e-07
1.7240872e-06
-0.0021461998
-1.5945943e-07
2.9187177e-07
3.0222555e-06
-0.0026405049
-2.0894067e-07
3.261086e-07
4.1421686e-06
-0.0030702771
-2.4636424e-07
3.455218e-07
5.205277e-06
-0.0035246264
-2.7982544e-07
3.6490459e-07
-0.082208604
-4.5782546e-06
4.9999063e-06
1.0472621e-05
-5.3474918e-06
-0.082214879
-2.5802114e-06
2.2474438e-06
1.1955312e-05
-4.2437471e-06
-0.0035258002
-1.3215542e-07
2.0226452e-07
-3.0894265e-06
-0.003071518
-1.1109721e-07
1.9776259e-07
-1.7580516e-06
-0.002641943
-8.6914154e-08
1.9367957e-07
-0.0021480822
-5.5402006e-08
1.7974753e-07
1.8057916e-06
-0.0021500073
2.1457022e-08
9.7904369e-08
3.1862035e-06
-0.0026434234
2.93753e-09
9.7140912e-08
4.3884341e-06
-0.0030727985
-1.1669773e-08
8.9950735e-08
5.5442058e-06
-0.0035270157
-2.3669205e-08
8.3387263e-08
-0.082221888
-1.1265454e-06
2.3017096e-07
1.3448713e-05
-5.7773861e-06
-0.082229807
-2.3400804e-07
-1.046339e-06
1.497674e-05
-4.5586546e-06
-0.0035282899
4.5109819e-08
1.0323073e-08
-3.2968832e-06
-0.0030741357
5.1690345e-08
2.3751795e-08
-1.8609019e-06
-0.0026449578
6.0357996e-08
3.8118238e-08
-0.0021519871
7.0757779e-08
4.82126e-08
1.9228288e-06
-0.002154032
1.0034336e-07
2.1816802e-08
3.4196717e-06
-0.0026465555
9.4248519e-08
6.6910983e-09
4.7477675e-06
-0.0030755403
8.8468075e-08
-1.180511e-08
6.0408196e-06
-0.0035296381
8.4621649e-08
-2.9378847e-08
-0.08223877
2.4330704e-07
-1.781755e-06
1.6543152e-05
-6.3292797e-06
-0.082248931
4.7029414e-07
-2.1970293e-06
1.8216859e-05
-4.9556425e-06
-0.0035310706
1.0768889e-07
-4.8786189e-08
-3.5534336e-06
-0.0030770241
1.1041417e-07
-2.8839721e-08
-1.9897481e-06
-0.0026482259
1.1483325e-07
-8.0361554e-09
-0.0021561506
1.1905e-07
9.8273871e-09
2.0611213e-06
-0.0021583483
1.3103318e-07
5.6457171e-09
3.6998818e-06
-0.0026499789
1.2753392e-07
-1.326189e-08
5.1820496e-06
-0.0030785943
1.2334285e-07
-3.5269071e-08
6.6425764e-06
-0.0035325952
1.2066084e-07
-5.6665069e-08
-0.08226047
5.5839716e-07
-2.4476741e-06
2.007098e-05
-7.0033238e-06
-0.082273515
5.5867051e-07
-2.6182363e-06
2.2107392e-05
-5.4406772e-06
-0.003534227
1.2748115e-07
-5.821513e-08
-3.865489e-06
-0.0030802643
1.307033e-07
-3.5815585e-08
-2.1414564e-06
-0.0026518254
1.3531339e-07
-1.2811014e-08
-0.002160636
1.3927837e-07
6.9850499e-09
2.2304811e-06
-0.002163024
1.4991707e-07
7.6952856e-09
4.0486122e-06
-0.0026537759
1.4521162e-07
-1.2722921e-08
5.7243331e-06
-0.0030820432
1.3985154e-07
-3.6630949e-08
7.3992286e-06
-0.0035359779
1.36163e-07
-6.0185245e-08
-0.082288205
5.643583e-07
-2.7991178e-06
2.4324666e-05
-7.8374419e-06
-0.082304791
6.18494e-07
-3.0358921e-06
2.6840995e-05
-6.0396266e-06
-0.0035378619
1.5026489e-07
-6.4029215e-08
-4.248285e-06
-0.0030839501
1.5447987e-07
-3.8855867e-08
-2.3279356e-06
-0.0026558426
1.601452e-07
-1.3788264e-08
-0.002165524
1.6462652e-07
7.4643007e-09
2.4379521e-06
-0.0021681529
1.8128689e-07
9.6606746e-09
4.4770922e-06
-0.0026580451
1.7637366e-07
-1.293077e-08
6.3988078e-06
-0.0030860026
1.7034576e-07
-3.9523742e-08
8.3410085e-06
-0.0035399034
1.6577433e-07
-6.6531207e-08
-0.082323537
6.7260833e-07
-3.2937849e-06
2.9707905e-05
-8.9032189e-06
-0.082344651
6.934513e-07
-3.5772992e-06
3.2900671e-05
-6.8010975e-06
-0.0035421182
1.8045794e-07
-6.7703043e-08
-4.7343327e-06
-0.0030882167
1.8601317e-07
-3.8672344e-08
-2.5606079e-06
-0.0026604015
1.930484e-07
-1.0364854e-08
-0.0021709256
1.9877529e-07
1.3377803e-08
2.7021376e-06
-0.0021738662
2.2160021e-07
1.6954622e-08
5.02999e-06
-0.0026629358
2.1499608e-07
-8.4820858e-09
7.266223e-06
-0.003090621
2.0705284e-07
-3.8920937e-08
9.5563652e-06
-0.0035445386
2.006211e-07
-7.0422752e-08
-0.082368439
7.4161004e-07
-3.9294775e-06
3.6532397e-05
-1.0310004e-05
-0.082395395
8.3466586e-07
-4.3515926e-06
4.0782905e-05
-7.8032476e-06
-0.0035471994
2.2809233e-07
-7.3980598e-08
-5.3694988e-06
-0.003093251
2.3557738e-07
-3.9317219e-08
-2.8639228e-06
-0.0026656795
2.4454927e-07
-6.2969129e-09
-0.0021770031
2.5149642e-07
2.1417332e-08
3.0542305e-06
-0.0021803704
2.8551075e-07
2.7632508e-08
5.7716255e-06
-0.0026686722
2.7732954e-07
-2.0236698e-09
8.4399443e-06
-0.0030961482
2.6682595e-07
-3.7905937e-08
1.1202628e-05
-0.0035501437
2.5782258e-07
-7.6177833e-08
-0.082425976
8.909543e-07
-4.8283486e-06
4.5721364e-05
-1.2262169e-05
-0.082460724
8.9447491e-07
-5.3477733e-06
5.1463654e-05
-9.1970987e-06
-0.0035534221
2.8691997e-07
-7.359015e-08
-6.2502243e-06
-0.0030993619
2.9807398e-07
-3.1284693e-08
-3.2791644e-06
-0.0026719622
3.1079038e-07
8.1528539e-09
-0.0021840116
3.2124405e-07
4.0791556e-08
3.5511537e-06
-0.002187987
3.6463426e-07
5.9630724e-08
6.8266027e-06
-0.0026756138
3.523772e-07
2.3827718e-08
1.0107779e-05
-0.0031029603
3.3742433e-07
-2.0156443e-08
1.3543403e-05
-0.0035571137
3.2388632e-07
-6.7937592e-08
-0.082500378
9.4011749e-07
-5.9757125e-06
5.8233071e-05
-1.5100783e-05
-0.082545932
1.0629653e-06
-6.7706225e-06
6.636184e-05
-1.1218733e-05
-0.003561307
3.7128159e-07
-5.9894184e-08
-7.5289962e-06
-0.0031070322
3.8716544e-07
-4.8972991e-09
-3.8804487e-06
-0.0026797119
4.0439813e-07
4.5469235e-08
-0.0021923724
4.1867265e-07
8.6353374e-08
4.2836948e-06
-0.0021972597
4.8102535e-07
1.2276091e-07
8.3900724e-06
-0.0026843572
4.6404992e-07
7.4982867e-08
1.2590612e-05
-0.003111693
4.4396249e-07
1.6386599e-08
1.702563e-05
-0.0035661193
4.2546936e-07
-4.8175701e-08
-0.082598518
1.2136027e-06
-7.7902949e-06
7.6188371e-05
-1.9458677e-05
-0.082659543
1.3166201e-06
-9.0641892e-06
8.8231299e-05
-1.4326116e-05
-0.0035717018
4.8223081e-07
-3.2244355e-08
-9.4848584e-06
-0.0031170828
5.0443336e-07
4.4151104e-08
-4.7933692e-06
-0.0026896908
5.2886439e-07
1.1329964e-07
-0.0022027734
5.503251e-07
1.6998602e-07
5.4474163e-06
-0.0022090795
6.303206e-07
2.2842462e-07
1.0887835e-05
-0.0026958954
6.0288329e-07
1.6143722e-07
1.6548638e-05
-0.0031233958
5.7323589e-07
7.9059085e-08
2.256708e-05
-0.0035782543
5.4670763e-07
-1.2630274e-08
-0.082730962
1.4164831e-06
-1.069354e-05
0.0001032635
-2.6580453e-05
-0.082815304
1.6092137e-06
-1.2818162e-05
0.00012213154
-1.9424211e-05
-0.0035860443
6.2702795e-07
6.7154554e-09
-1.2704864e-05
-0.0031308911
6.5830621e-07
1.1768448e-07
-6.2954968e-06
-0.0027032147
6.9331618e-07
2.1663351e-07
-0.0022163959
7.2563836e-07
2.9533263e-07
7.4159874e-06
-0.0022250169
8.4276931e-07
3.6217256e-07
1.5092366e-05
-0.0027119647
8.0563954e-07
2.6790645e-07
2.3193861e-05
-0.0031399067
7.6562092e-07
1.4845278e-07
3.1826492e-05
-0.0035954207
7.3036547e-07
1.3427943e-08
-0.082915906
1.994746e-06
-1.5586504e-05
0.00014602042
-3.8792452e-05
-0.083037524
2.6453753e-06
-1.9126465e-05
0.00017689146
-2.8210117e-05
-0.0036068539
8.6727322e-07
-1.640602e-08
-1.8284301e-05
-0.0031508831
9.0463331e-07
1.4596078e-07
-8.9132975e-06
-0.002722575
9.489397e-07
2.903535e-07
-0.0022353303
9.8886428e-07
4.1122595e-07
1.09547e-05
-0.0022478521
1.1622797e-06
4.047237e-07
2.2658403e-05
-0.0027356543
1.1222463e-06
2.5334476e-07
3.5094043e-05
-0.0031644746
1.0740906e-06
8.1755774e-08
4.8321567e-05
-0.003621009
1.0366757e-06
-1.0912475e-07
-0.083186953
3.7788689e-06
-2.3472642e-05
0.00021744394
-6.1786776e-05
-0.083374351
5.3426932e-06
-2.899133e-05
0.0002728339
-4.4866063e-05
-0.003638845
1.1868624e-06
-2.7160294e-07
-2.8907199e-05
-0.0031816042
1.2223648e-06
-5.1627253e-08
-1.3891179e-05
-0.0027520864
1.2672738e-06
1.4875816e-07
-0.0022633792
1.3107858e-06
3.2517781e-07
1.8003157e-05
-0.0022829661
1.4231446e-06
1.6055096e-07
3.7269209e-05
-0.0027727138
1.3305671e-06
3.0738996e-08
5.7697276e-05
-0.0032031355
1.2755263e-06
-1.7238042e-07
7.9273586e-05
-0.0036612537
1.2536748e-06
-4.2121583e-07
-0.083613412
7.3093488e-06
-3.4993439e-05
0.00034601865
-0.00010155195
-0.083933613
7.7025394e-06
-3.9108047e-05
0.0004531587
-7.3883128e-05
-0.0036895875
1.0393428e-06
-3.7445517e-07
-4.7781581e-05
-0.0032301681
1.0636434e-06
-1.3266302e-07
-2.322657e-05
-0.0027984599
1.1870491e-06
3.860062e-09
-0.0023075943
1.4524692e-06
-5.0864187e-08
3.0416546e-05
-0.0023388152
1.1587998e-06
-3.5460666e-07
6.5408608e-05
-0.0028341203
4.4893206e-07
2.1932441e-07
0.00010334197
-0.0032684801
1.3961362e-07
2.3893928e-07
0.000143878
-0.003730146
4.3002105e-08
-2.0503131e-08
-0.084384164
-6.4172795e-07
-4.4112264e-05
0.00063918284
-0.00023326503
-0.084860921
-2.4168133e-05
-5.7847656e-05
0.00079203746
-0.00016666503
-0.0037945594
-2.3069434e-06
1.203447e-07
-0.00010316278
-0.0033303995
-2.1515065e-06
5.6872788e-07
-4.505051e-05
-0.0028913799
-1.5199164e-06
6.6733073e-07
-0.0023835963
2.9090165e-07
-5.6033539e-07
6.5009244e-05
-0.0024477475
-2.4176233e-06
1.5595197e-06
0.0001434432
-0.0029635568
-7.0090706e-06
7.5189576e-07
0.00022868064
-0.0034063137
-8.1486705e-06
-1.1746141e-06
0.00031606485
-0.0038722187
-8.5139559e-06
-1.2109612e-06
-0.085039811
-7.1720963e-05
-7.3182896e-05
0.00063985844
-0.00023458407
-0.085518883
-0.00035529759
0.00012602606
0.00094292826
-0.00018888364
-0.0038916215
-6.0718354e-06
-2.0225625e-05
-0.00014754146
-0.0034227916
-2.9330047e-06
-2.1931175e-05
-9.5195699e-05
-0.0029909523
-8.7486866e-07
-2.4074982e-05
-0.0025102457
-2.9666542e-06
-2.9730857e-05
-0.00016578111
-0.0024081991
-4.2008415e-05
0.00010574288
-0.00032401597
-0.002895618
-5.3466955e-05
0.00011636739
-0.00048829576
-0.0033214007
-6.3133708e-05
0.00012602266
-0.0006723673
-0.0037696429
-7.3290074e-05
0.000135383
-0.088140154
-0.0017351527
0.0020351895
0.0016488669
-1.111497e-05
-0.071821947
-0.014734395
0.0029246904
-0.0044973879
-3.2521778e-05
-0.0031147907
-0.00080518667
0.00017174132
-4.746666e-05
-0.0027500231
-0.00071402504
0.00015759229
-4.3870792e-05
-0.0024093795
-0.00063148121
0.00014164689
-0.0020254387
-0.00054157031
0.0001149391
1.5961206e-05
0.0021210824
2.9419548e-05
0.0025003923
4.3517374e-05
0.0028229317
5.5274331e-05
0.0031584516
0.056237571
0.00060100719
0.070442962
-0.00013811571
-0.0084591089
0.00042409184
0.0037781272
-2.0945414e-05
0.00026449143
0.0033491081
-2.0812831e-05
0.00012218525
0.0029406471
-2.207724e-05
0.0024702339
-2.6367577e-05
-0.00021848362
0.0025710268
7.5682217e-05
-0.00043498259
0.0030357672
6.7911874e-05
-0.00065691913
0.0034430861
6.4824822e-05
-0.00089381441
0.003877619
6.4113407e-05
0.067657431
0.00034322505
-0.00018666066
-4.3899962e-05
0.066897301
8.7562211e-05
0.00036116991
-4.5305747e-05
0.0038526847
2.0268273e-05
-4.7304359e-05
0.0034208193
2.1332413e-05
-3.8854525e-05
0.0030054911
2.0951457e-05
0.0025113385
1.7867158e-05
5.7952718e-05
0.0024393799
1.1588283e-05
0.00011649934
0.0029276981
1.2237272e-05
0.00017698231
0.0033404187
1.1768945e-05
0.00023958376
0.0037705301
1.1039249e-05
0.066756722
1.2201921e-05
0.00029623991
-0.00019333956
0.066370595
1.5638463e-05
0.00053965949
-0.00013950726
0.0037060423
8.3485693e-06
-8.7285275e-05
0.0032772468
8.7983367e-06
-3.8539743e-05
0.0028682805
9.1521318e-06
0.0023919755
9.1555567e-06
2.7912437e-05
0.0023588739
6.3479067e-06
5.8775526e-05
0.0028316019
6.2644347e-06
9.1388721e-05
0.0032387709
6.0023436e-06
0.00012566103
0.0036661378
5.6752148e-06
0.066010396
9.8466348e-06
0.00047537234
-9.2275638e-05
0.065760616
6.1675691e-06
0.00034359074
-6.8197874e-05
0.0036393052
3.7940868e-06
-4.5026843e-05
0.0032126407
4.022822e-06
-2.2539657e-05
0.0028060765
4.2252305e-06
0.0023334643
4.3224168e-06
1.8090121e-05
0.0023138148
2.9825347e-06
3.642419e-05
0.0027861678
2.905181e-06
5.5191279e-05