/*--------------------------------*- C++ -*----------------------------------*\
  =========                 |
  \\      /  F ield         | OpenFOAM: The Open Source CFD Toolbox
   \\    /   O peration     | Website:  https://openfoam.org
    \\  /    A nd           | Version:  7
     \\/     M anipulation  |
\*---------------------------------------------------------------------------*/
FoamFile
{
    version     2.0;
    format      ascii;
    class       volScalarField;
    location    "410";
    object      rho;
}
// * * * * * * * * * * * * * * * * * * * * * * * * * * * * * * * * * * * * * //

dimensions      [1 -3 0 0 0 0 0];

internalField   nonuniform List<scalar> 
24789
(
1.1733191
1.1733478
1.173368
1.1733837
1.1734595
1.1734338
1.1733541
1.1733377
1.1733166
1.1732867
1.1732525
1.1732836
1.1733056
1.1733229
1.1734071
1.1733789
1.1732898
1.1732716
1.1732485
1.173216
1.1731771
1.1732111
1.1732353
1.1732546
1.1733492
1.1733177
1.173217
1.1731966
1.1731711
1.1731354
1.1730906
1.1731281
1.1731551
1.1731768
1.1732843
1.1732487
1.1731335
1.1731104
1.1730819
1.1730422
1.1729901
1.1730321
1.1730624
1.1730871
1.1732107
1.17317
1.1730369
1.1730104
1.172978
1.1729334
1.1728719
1.1729194
1.172954
1.1729825
1.1731264
1.1730795
1.1729234
1.1728926
1.1728554
1.1728046
1.1727309
1.1727855
1.1728256
1.1728589
1.1730288
1.172974
1.1727884
1.1727521
1.1727087
1.1726498
1.1725603
1.1726242
1.1726713
1.172711
1.1729144
1.1728494
1.1726256
1.1725822
1.1725306
1.1724611
1.1723509
1.1724269
1.1724834
1.1725313
1.1727783
1.1727003
1.1724265
1.1723736
1.1723114
1.172228
1.1720905
1.1721825
1.1722513
1.17231
1.1726143
1.1725191
1.1721798
1.1721145
1.1720382
1.1719364
1.1717632
1.1718762
1.1719611
1.1720339
1.172413
1.1722943
1.1718701
1.1717887
1.171694
1.1715686
1.1713499
1.1714893
1.1715948
1.1716858
1.1721606
1.1720089
1.1714784
1.1713767
1.1712592
1.1711046
1.1708301
1.1710007
1.1711309
1.1712441
1.1718347
1.171633
1.1709799
1.1708547
1.1707113
1.1705246
1.1701942
1.170396
1.1705521
1.1706893
1.1714034
1.1711297
1.1703648
1.170217
1.1700497
1.1698363
1.1694205
1.1696357
1.1698084
1.1699633
1.1707589
1.1703935
1.1695694
1.169412
1.1692462
1.1690572
1.1691301
1.1692425
1.1693866
1.1695425
1.1703883
1.1694975
1.1688678
1.1687483
1.168653
1.1686207
1.1631853
1.1634583
1.1636643
1.1639012
1.1659736
1.1701291
1.1696174
1.1695005
1.1693788
1.1691945
1.1711433
1.1713527
1.1714486
1.1715549
1.1719929
1.1740027
1.1736344
1.1735362
1.1734199
1.1732168
1.1773936
1.1777465
1.1779891
1.1781813
1.1781995
1.1732976
1.1711669
1.1709374
1.17074
1.1703608
1.1717422
1.1718905
1.1719217
1.1719268
1.1720736
1.1691291
1.1666171
1.1662935
1.1659703
1.1655364
1.164746
1.1648918
1.1649986
1.1651455
1.1666246
1.1695788
1.1687749
1.168652
1.1685463
1.1684865
1.1689872
1.1691129
1.1692587
1.1694119
1.1703759
1.170405
1.1694688
1.1693138
1.169151
1.1689666
1.1693268
1.169533
1.1697023
1.1698562
1.1707767
1.1711491
1.170253
1.1701047
1.1699389
1.1697311
1.170086
1.1702795
1.1704352
1.1705741
1.1714214
1.1716472
1.1708613
1.1707327
1.1705873
1.1704022
1.1706982
1.1708716
1.1710061
1.1711243
1.1718453
1.1720169
1.1713596
1.1712518
1.1711284
1.1709688
1.1712134
1.1713596
1.1714722
1.1715701
1.1721667
1.1722991
1.1717589
1.1716701
1.1715677
1.1714341
1.1716327
1.1717546
1.1718478
1.1719282
1.1724168
1.1725223
1.1720803
1.1720074
1.1719226
1.1718114
1.1719722
1.1720737
1.1721509
1.172217
1.1726171
1.1727029
1.1723402
1.1722801
1.1722097
1.1721169
1.1722473
1.1723324
1.1723967
1.1724514
1.1727807
1.1728516
1.1725519
1.172502
1.1724431
1.1723649
1.1724714
1.1725434
1.1725975
1.1726431
1.1729164
1.1729759
1.172726
1.1726842
1.1726343
1.1725678
1.1726554
1.1727171
1.1727631
1.1728016
1.1730307
1.1730812
1.1728706
1.1728351
1.1727925
1.1727351
1.172808
1.1728615
1.1729011
1.1729339
1.1731281
1.1731716
1.1729921
1.1729617
1.1729247
1.1728746
1.1729359
1.1729828
1.1730174
1.1730458
1.1732122
1.1732501
1.1730954
1.1730689
1.1730364
1.1729922
1.1730442
1.173086
1.1731165
1.1731413
1.1732856
1.1733189
1.173184
1.1731607
1.1731319
1.1730924
1.1731371
1.1731746
1.1732019
1.1732238
1.1733503
1.17338
1.173261
1.1732403
1.1732144
1.1731786
1.1732174
1.1732515
1.1732762
1.1732958
1.173408
1.1734348
1.1733287
1.17331
1.1732865
1.1732539
1.1732883
1.1733196
1.173342
1.1733598
1.1734604
1.1734381
1.1733332
1.1733148
1.1732915
1.1732593
1.1732234
1.173257
1.1732814
1.1733007
1.1734112
1.1733833
1.1732662
1.1732458
1.1732202
1.1731849
1.1731439
1.1731809
1.1732078
1.1732294
1.1733539
1.1733227
1.1731901
1.1731672
1.1731387
1.1730998
1.1730522
1.1730934
1.1731235
1.1731479
1.1732897
1.1732545
1.1731025
1.1730764
1.1730445
1.1730009
1.1729453
1.1729916
1.1730256
1.1730535
1.1732169
1.1731767
1.1730005
1.1729706
1.1729342
1.1728849
1.1728192
1.1728719
1.1729108
1.1729431
1.1731336
1.1730872
1.1728806
1.1728457
1.1728038
1.1727474
1.1726687
1.1727294
1.1727746
1.1728124
1.1730371
1.1729828
1.1727377
1.1726967
1.1726478
1.1725823
1.1724872
1.172558
1.1726111
1.1726559
1.1729239
1.1728596
1.1725658
1.1725169
1.1724591
1.1723822
1.1722662
1.1723498
1.1724129
1.1724665
1.1727894
1.1727122
1.1723567
1.1722978
1.1722288
1.1721375
1.1719948
1.1720945
1.1721702
1.172235
1.1726272
1.1725331
1.1720999
1.1720285
1.1719454
1.1718362
1.17166
1.1717796
1.1718709
1.1719496
1.1724284
1.1723115
1.1717823
1.1716955
1.1715952
1.1714642
1.1712467
1.17139
1.1715001
1.1715958
1.1721799
1.1720311
1.1713878
1.1712825
1.1711619
1.1710057
1.1707393
1.1709087
1.17104
1.1711552
1.1718605
1.1716634
1.1708952
1.1707699
1.1706284
1.1704484
1.1701362
1.1703239
1.1704752
1.1706103
1.1714379
1.1711694
1.1702946
1.1701507
1.16999
1.1697887
1.1693998
1.1695968
1.1697599
1.1699086
1.1708052
1.1704007
1.1694988
1.1693504
1.1691958
1.1690219
1.1690047
1.1691166
1.1692503
1.1693958
1.1703345
1.1698521
1.1690645
1.1689415
1.1688409
1.1688068
1.1656221
1.1657395
1.1658152
1.1659203
1.1668549
1.1672033
1.1628466
1.1623694
1.161916
1.1612834
1.1788818
1.1787991
1.1786741
1.1784734
1.1761232
1.1724655
1.1704638
1.1702076
1.1699979
1.1696069
1.1769025
1.1773168
1.1775704
1.1777683
1.1775133
1.1739042
1.1739064
1.1738619
1.1737846
1.1735824
1.1775534
1.1775625
1.1774771
1.1773105
1.1757548
1.1670838
1.1635801
1.1631066
1.1626318
1.1620114
1.1650363
1.1651692
1.1652433
1.1653536
1.1663769
1.169583
1.1688906
1.1687682
1.1686703
1.1686358
1.1689339
1.1690629
1.169207
1.1693595
1.1702089
1.170327
1.1695046
1.1693483
1.16918
1.1689797
1.1693957
1.1696219
1.169797
1.1699511
1.1707496
1.1711208
1.1703616
1.1702167
1.1700514
1.1698392
1.1702094
1.1704076
1.1705598
1.1706927
1.1713951
1.1716269
1.1709882
1.1708677
1.1707292
1.1705474
1.1708544
1.1710192
1.1711443
1.1712527
1.1718285
1.1720026
1.1714857
1.1713885
1.1712761
1.1711276
1.1713699
1.1715035
1.1716044
1.1716914
1.1721546
1.172289
1.1718741
1.1717961
1.1717055
1.1715853
1.1717765
1.1718848
1.1719663
1.1720363
1.1724084
1.1725152
1.1721806
1.1721177
1.1720442
1.1719462
1.1720975
1.1721864
1.1722529
1.1723097
1.1726111
1.1726977
1.1724253
1.1723739
1.1723135
1.1722326
1.1723536
1.1724276
1.1724827
1.1725294
1.1727762
1.1728477
1.1726233
1.1725807
1.1725302
1.1724623
1.1725601
1.1726228
1.1726692
1.1727081
1.1729129
1.1729728
1.1727853
1.1727495
1.1727067
1.1726487
1.1727291
1.172783
1.1728227
1.1728556
1.1730278
1.1730786
1.17292
1.1728895
1.1728526
1.1728022
1.1728691
1.1729162
1.1729507
1.172979
1.1731257
1.1731694
1.1730334
1.173007
1.1729748
1.1729304
1.1729868
1.1730287
1.1730589
1.1730836
1.1732101
1.1732481
1.1731301
1.173107
1.1730785
1.1730389
1.1730871
1.1731247
1.1731516
1.1731733
1.1732837
1.1733171
1.1732136
1.1731931
1.1731676
1.1731318
1.1731735
1.1732076
1.1732319
1.1732512
1.1733486
1.1733783
1.1732865
1.1732681
1.173245
1.1732124
1.1732489
1.1732801
1.1733022
1.1733196
1.1734064
1.1734336
1.173351
1.1733344
1.1733132
1.1732832
1.1732918
1.1733214
1.1733422
1.1733585
1.1734373
1.1734105
1.1733275
1.1733104
1.1732886
1.1732578
1.1732216
1.1732538
1.1732766
1.1732947
1.1733825
1.173353
1.1732598
1.1732407
1.1732168
1.173183
1.1731418
1.1731771
1.1732024
1.1732225
1.1733217
1.1732885
1.1731827
1.1731612
1.1731346
1.1730974
1.1730496
1.1730889
1.1731171
1.1731399
1.1732532
1.1732155
1.1730938
1.1730694
1.1730394
1.1729978
1.1729419
1.172986
1.173018
1.1730441
1.1731751
1.1731318
1.1729902
1.1729621
1.1729279
1.1728809
1.1728143
1.1728646
1.1729013
1.1729317
1.1730852
1.1730349
1.1728679
1.172835
1.1727954
1.1727414
1.1726611
1.1727194
1.1727623
1.172798
1.1729804
1.1729212
1.1727214
1.1726823
1.1726357
1.1725726
1.1724746
1.1725433
1.1725942
1.172637
1.1728567
1.172786
1.1725435
1.1724964
1.1724406
1.1723655
1.1722441
1.1723266
1.1723879
1.1724399
1.1727085
1.172623
1.1723246
1.1722669
1.1721991
1.1721083
1.171956
1.1720564
1.1721316
1.1721958
1.1725283
1.1724228
1.1720514
1.1719799
1.1718963
1.1717849
1.1715925
1.1717162
1.1718093
1.1718893
1.1723046
1.1721713
1.1717067
1.1716174
1.1715137
1.1713763
1.1711339
1.1712861
1.1714014
1.1715011
1.17202
1.1718459
1.1712685
1.1711577
1.1710301
1.1708624
1.1705602
1.1707435
1.1708838
1.1710061
1.171644
1.1714133
1.1707167
1.170583
1.1704306
1.1702329
1.1698794
1.1700881
1.1702508
1.1703944
1.1711389
1.1707681
1.1699968
1.1698471
1.1696796
1.1694694
1.1690947
1.1692795
1.1694393
1.1695901
1.1703856
1.1703477
1.1695232
1.1693764
1.1692405
1.1691323
1.1688096
1.1688298
1.1689037
1.1690013
1.1695382
1.1660992
1.164372
1.1641771
1.1640227
1.1638059
1.1665399
1.1669038
1.167142
1.1673833
1.1692072
1.1742263
1.1752743
1.1753078
1.1753012
1.175218
1.1713265
1.1715701
1.1716851
1.1718026
1.1728228
1.1785105
1.1785611
1.1783776
1.1781424
1.1777572
1.1815705
1.1835726
1.1838928
1.1841392
1.1842677
1.184086
1.1840599
1.1840519
1.1838955
1.1808032
1.1788034
1.1790181
1.178915
1.1788097
1.1786078
1.1768531
1.177018
1.1771295
1.1772013
1.1768883
1.1749027
1.1754467
1.1754784
1.1754547
1.1753644
1.1735598
1.1737856
1.1739196
1.1739829
1.1740273
1.1676063
1.1653924
1.16509
1.164807
1.1643398
1.1650879
1.1651989
1.1652775
1.1654041
1.1665129
1.1695817
1.168955
1.1688416
1.1687507
1.1687286
1.1690683
1.1691779
1.1693112
1.1694547
1.1702363
1.1703391
1.1695711
1.1694238
1.1692679
1.1690888
1.1694896
1.169691
1.1698529
1.169998
1.1707498
1.1711193
1.1703982
1.1702608
1.1701053
1.169907
1.1702632
1.1704496
1.170594
1.1707209
1.1713929
1.1716237
1.1710089
1.1708932
1.1707611
1.1705893
1.1708868
1.1710434
1.1711634
1.1712679
1.1718251
1.1719993
1.171497
1.1714028
1.1712945
1.1711524
1.1713889
1.1715174
1.1716151
1.1716998
1.1721515
1.1722859
1.1718797
1.1718036
1.1717155
1.1715993
1.1717866
1.1718918
1.1719714
1.1720399
1.1724054
1.1725123
1.172183
1.1721211
1.1720491
1.1719535
1.1721025
1.1721895
1.1722549
1.1723108
1.1726084
1.1726952
1.1724257
1.1723749
1.1723153
1.1722358
1.1723554
1.1724283
1.1724828
1.172529
1.1727738
1.1728454
1.1726224
1.1725801
1.1725301
1.172463
1.1725602
1.1726223
1.1726683
1.172707
1.1729109
1.1729709
1.172784
1.1727483
1.1727057
1.1726481
1.1727281
1.1727818
1.1728213
1.1728542
1.173026
1.173077
1.1729184
1.1728879
1.1728512
1.172801
1.1728678
1.1729148
1.1729492
1.1729775
1.1731242
1.1731679
1.1730318
1.1730054
1.1729732
1.1729289
1.1729853
1.1730271
1.1730574
1.1730821
1.1732087
1.1732468
1.1731286
1.1731055
1.1730769
1.1730373
1.1730856
1.1731232
1.1731502
1.1731719
1.1732825
1.173316
1.1732123
1.1731918
1.1731661
1.1731304
1.1731721
1.1732063
1.1732306
1.17325
1.1733476
1.1733774
1.1732854
1.173267
1.1732438
1.1732111
1.1732478
1.1732791
1.1733012
1.1733187
1.1734057
1.1734329
1.1733502
1.1733335
1.1733123
1.1732823
1.1732551
1.1732876
1.173311
1.1733296
1.1734356
1.1734088
1.173297
1.1732774
1.1732528
1.1732189
1.1731801
1.1732157
1.1732415
1.1732622
1.1733807
1.1733511
1.1732251
1.1732032
1.173176
1.1731386
1.173094
1.1731334
1.1731622
1.1731854
1.1733197
1.1732865
1.1731427
1.173118
1.1730876
1.1730459
1.172994
1.1730381
1.1730704
1.1730969
1.173251
1.1732132
1.1730473
1.173019
1.1729845
1.1729377
1.1728765
1.1729264
1.1729633
1.1729937
1.1731727
1.1731293
1.1729356
1.1729028
1.1728632
1.1728098
1.172737
1.1727943
1.1728369
1.1728723
1.1730825
1.173032
1.1728032
1.1727648
1.1727188
1.1726572
1.1725695
1.1726361
1.1726858
1.1727276
1.1729773
1.1729179
1.1726447
1.1725991
1.172545
1.172473
1.1723664
1.1724446
1.1725035
1.1725534
1.1728531
1.1727823
1.1724528
1.172398
1.1723337
1.1722485
1.1721179
1.1722109
1.1722813
1.1723415
1.1727046
1.1726189
1.1722182
1.172152
1.1720747
1.171973
1.1718121
1.1719234
1.1720083
1.1720813
1.1725241
1.1724188
1.1719292
1.1718486
1.1717553
1.1716333
1.1714347
1.1715683
1.1716709
1.1717599
1.1723011
1.1721689
1.1715712
1.1714731
1.1713604
1.1712143
1.1709704
1.1711297
1.1712531
1.171361
1.1720192
1.171848
1.1711263
1.1710082
1.1708738
1.1707012
1.1704082
1.1705914
1.1707362
1.1708646
1.1716501
1.1714247
1.1705793
1.1704407
1.1702861
1.1700956
1.169747
1.1699511
1.1701152
1.1702627
1.1711537
1.1707854
1.1698767
1.1697244
1.1695582
1.1693596
1.1690015
1.1691756
1.1693336
1.1694859
1.1703977
1.1703453
1.1694147
1.1692645
1.1691256
1.1690125
1.1686909
1.168733
1.1688299
1.1689534
1.1696875
1.1668125
1.1654347
1.1652927
1.1651763
1.1650226
1.165011
1.16544
1.1657214
1.1660255
1.1686228
1.1727541
1.173022
1.1729958
1.1729402
1.1727242
1.1698851
1.1703418
1.1706849
1.1709974
1.1735597
1.1786013
1.1823855
1.1828065
1.18315
1.183447
1.1729401
1.17315
1.1733039
1.1734227
1.1741086
1.1712892
1.1704309
1.1702783
1.1701531
1.1698505
1.1706021
1.1706703
1.1706877
1.170693
1.1705434
1.1660478
1.1635772
1.1632752
1.1630116
1.162692
1.1686925
1.1687186
1.1688055
1.1689126
1.1694777
1.170363
1.1695234
1.1693684
1.1692256
1.1691151
1.1690427
1.1692312
1.1693971
1.1695548
1.1703825
1.1707572
1.1699561
1.1698002
1.1696266
1.1694107
1.1698229
1.1700381
1.170207
1.1703562
1.1711287
1.1714029
1.170681
1.1705423
1.1703843
1.1701802
1.170512
1.1707012
1.1708463
1.1709729
1.1716332
1.1718351
1.1712383
1.1711238
1.170992
1.1708192
1.1710956
1.1712521
1.1713709
1.1714737
1.1720094
1.1721611
1.1716821
1.1715901
1.1714835
1.1713425
1.1715627
1.1716895
1.1717851
1.1718672
1.1722949
1.1724135
1.1720317
1.1719583
1.1718726
1.1717587
1.1719329
1.1720355
1.1721124
1.1721782
1.1725196
1.1726149
1.1723089
1.1722499
1.1721806
1.172088
1.1722262
1.1723102
1.1723728
1.1724259
1.1727009
1.1727789
1.1725309
1.1724828
1.172426
1.1723496
1.1724603
1.1725302
1.1725819
1.1726255
1.1728499
1.1729149
1.172711
1.1726713
1.172624
1.1725599
1.1726496
1.1727088
1.1727523
1.1727886
1.1729745
1.1730293
1.1728592
1.1728259
1.1727857
1.1727309
1.1728048
1.1728558
1.172893
1.1729237
1.17308
1.1731269
1.1729829
1.1729544
1.1729198
1.1728722
1.1729339
1.1729785
1.1730108
1.1730373
1.1731704
1.173211
1.1730875
1.1730628
1.1730325
1.1729905
1.1730428
1.1730824
1.173111
1.173134
1.173249
1.1732846
1.1731772
1.1731556
1.1731286
1.1730911
1.1731359
1.1731716
1.1731971
1.1732175
1.173318
1.1733495
1.1732551
1.1732358
1.1732116
1.1731776
1.1732165
1.173249
1.173272
1.1732903
1.1733792
1.1734074
1.1733234
1.1733061
1.1732841
1.173253
1.1732872
1.173317
1.1733381
1.1733545
1.1734342
1.1734372
1.1733589
1.1733427
1.173322
1.1732925
1.1732588
1.1732895
1.1733111
1.1733281
1.1734105
1.1733825
1.1732954
1.1732775
1.1732549
1.1732229
1.1731846
1.1732181
1.1732418
1.1732607
1.1733531
1.1733219
1.1732236
1.1732037
1.1731787
1.1731437
1.1730997
1.1731366
1.1731629
1.173184
1.1732887
1.1732535
1.1731416
1.1731191
1.1730912
1.1730524
1.1730015
1.1730424
1.1730719
1.1730959
1.1732159
1.1731756
1.1730466
1.1730209
1.1729895
1.1729461
1.1728861
1.1729322
1.1729658
1.1729933
1.1731324
1.1730859
1.1729355
1.1729058
1.1728699
1.1728207
1.1727491
1.1728018
1.1728404
1.1728725
1.1730358
1.1729814
1.1728036
1.1727688
1.1727271
1.1726705
1.1725839
1.1726451
1.1726902
1.1727281
1.1729224
1.1728581
1.1726449
1.1726035
1.1725544
1.172488
1.1723819
1.1724541
1.1725078
1.1725532
1.1727878
1.1727105
1.1724513
1.1724013
1.1723424
1.1722635
1.1721314
1.1722181
1.1722829
1.1723382
1.1726254
1.172531
1.1722119
1.1721506
1.1720789
1.1719834
1.1718172
1.1719228
1.1720022
1.1720704
1.172426
1.1723083
1.1719115
1.1718355
1.1717473
1.1716303
1.1714201
1.1715497
1.1716478
1.1717326
1.1721756
1.1720249
1.1715308
1.1714363
1.1713273
1.171184
1.1709188
1.1710766
1.1711972
1.1713022
1.1718517
1.1716508
1.1710434
1.1709274
1.1707948
1.1706223
1.1702986
1.170485
1.1706293
1.1707564
1.171421
1.1711477
1.1704347
1.1702977
1.170143
1.1699453
1.169532
1.1697338
1.1698943
1.1700381
1.1707801
1.1703842
1.1696177
1.1694715
1.1693162
1.1691329
1.1691203
1.1692373
1.1693737
1.1695203
1.1703356
1.1696777
1.169117
1.169012
1.1689289
1.168905
1.1643923
1.1645797
1.1647028
1.1648586
1.1662518
1.1679633
1.1651662
1.1647973
1.164462
1.1639743
1.1780664
1.1780041
1.177913
1.1777594
1.1759176
1.1717641
1.1701449
1.1699555
1.1698186
1.1695645
1.1740784
1.1728839
1.1738858
1.1733575
1.1715615
1.1713477
1.1711346
1.1707829
1.1758151
1.1759243
1.1759373
1.175892
1.1754062
1.1803847
1.1804963
1.1805243
1.180449
1.1800087
1.1769359
1.1777318
1.1777004
1.1776402
1.1774157
1.1725256
1.1728499
1.1730259
1.1732435
1.1743469
1.1769427
1.1770878
1.1770316
1.1768882
1.1766415
1.1771283
1.1804463
1.1763947
1.1773572
1.1738312
1.1738521
1.1737998
1.173831
1.1737999
1.1737963
1.1738069
1.1737991
1.1732827
1.1733127
1.1733339
1.1733506
1.1734335
1.1734065
1.1733193
1.1733019
1.1732797
1.1732484
1.1732119
1.1732446
1.1732678
1.1732862
1.1733784
1.1733487
1.1732509
1.1732315
1.1732072
1.1731731
1.1731314
1.1731672
1.1731928
1.1732133
1.1733171
1.1732836
1.173173
1.1731512
1.1731242
1.1730867
1.1730385
1.1730781
1.1731066
1.1731297
1.1732479
1.1732097
1.1730831
1.1730584
1.1730282
1.1729864
1.1729302
1.1729744
1.1730066
1.1730329
1.1731689
1.173125
1.1729787
1.1729504
1.1729161
1.1728692
1.1728028
1.1728527
1.1728894
1.1729197
1.1730778
1.1730268
1.1728556
1.1728228
1.1727835
1.1727301
1.1726507
1.1727079
1.1727502
1.1727857
1.1729715
1.1729115
1.1727091
1.1726707
1.172625
1.1725634
1.1724671
1.1725336
1.1725831
1.1726249
1.172846
1.1727744
1.1725322
1.1724864
1.1724326
1.1723606
1.1722424
1.1723207
1.1723795
1.1724296
1.1726957
1.1726089
1.1723157
1.1722606
1.1721963
1.1721108
1.171964
1.1720577
1.1721284
1.1721891
1.1725128
1.172406
1.1720477
1.1719805
1.1719027
1.1717998
1.1716157
1.1717289
1.1718149
1.1718893
1.1722864
1.1721521
1.1717115
1.171629
1.1715339
1.1714091
1.1711773
1.1713148
1.1714199
1.1715114
1.172
1.1718258
1.1712854
1.1711841
1.1710682
1.1709171
1.1706257
1.1707908
1.1709181
1.1710297
1.1716242
1.1713936
1.1707462
1.1706241
1.1704856
1.1703072
1.1699574
1.1701465
1.1702949
1.1704264
1.1711172
1.1707389
1.1700226
1.1698847
1.1697313
1.1695408
1.1691786
1.1693426
1.1694887
1.1696283
1.1703609
1.1703272
1.1695991
1.1694629
1.169339
1.1692502
1.1685801
1.1685951
1.1686752
1.1687776
1.1693088
1.1660526
1.1639789
1.1637539
1.1635744
1.1633499
1.1703049
1.1704319
1.1704597
1.1704932
1.1705017
1.1703613
1.1685918
1.1683552
1.16813
1.1676857
1.1746414
1.1749084
1.1750746
1.1751492
1.1755301
1.1776502
1.1776325
1.1776442
1.1775907
1.1749021
1.1751099
1.1752369
1.1754336
1.1757257
1.1759695
1.1763466
1.1761743
1.1760392
1.17572
1.1859135
1.1855967
1.1853244
1.1849211
1.1813626
1.1802501
1.1823314
1.1824552
1.1825119
1.1825581
1.17463
1.1748969
1.1750638
1.1751392
1.1755253
1.1703561
1.168586
1.1683498
1.1681252
1.1676817
1.170302
1.1704285
1.1704558
1.1704888
1.1704967
1.1660474
1.163974
1.1637493
1.1635701
1.1633461
1.1685772
1.1685918
1.1686716
1.1687737
1.1693039
1.1703219
1.1695943
1.1694582
1.1693346
1.1692463
1.1691743
1.169338
1.169484
1.1696236
1.1703559
1.170734
1.1700176
1.1698797
1.1697264
1.1695361
1.1699523
1.1701414
1.1702898
1.1704213
1.1711124
1.171389
1.1707411
1.170619
1.1704805
1.1703021
1.1706204
1.1707856
1.1709129
1.1710247
1.1716197
1.1718215
1.1712804
1.171179
1.171063
1.1709118
1.1711721
1.1713097
1.171415
1.1715066
1.1719959
1.1721481
1.1717067
1.1716241
1.1715289
1.1714039
1.1716106
1.171724
1.1718102
1.1718847
1.1722826
1.1724023
1.1720432
1.1719759
1.1718979
1.1717948
1.1719592
1.172053
1.1721239
1.1721847
1.1725093
1.1726055
1.1723115
1.1722563
1.1721918
1.1721061
1.1722378
1.1723163
1.1723752
1.1724255
1.1726924
1.1727711
1.1725281
1.1724822
1.1724282
1.172356
1.1724627
1.1725294
1.172579
1.172621
1.1728429
1.1729085
1.1727053
1.1726667
1.1726208
1.1725591
1.1726465
1.1727039
1.1727464
1.172782
1.1729686
1.1730239
1.172852
1.1728191
1.1727797
1.1727261
1.1727988
1.1728489
1.1728857
1.1729162
1.173075
1.1731223
1.1729752
1.1729468
1.1729123
1.1728652
1.1729264
1.1729708
1.1730031
1.1730296
1.1731662
1.1732071
1.1730798
1.1730551
1.1730247
1.1729827
1.1730349
1.1730746
1.1731033
1.1731265
1.1732454
1.1732812
1.1731699
1.173148
1.1731209
1.1730832
1.1731281
1.173164
1.1731897
1.1732103
1.1733148
1.1733464
1.1732481
1.1732286
1.1732041
1.1731698
1.1732089
1.1732417
1.1732651
1.1732835
1.1733762
1.1734045
1.1733168
1.1732993
1.1732769
1.1732455
1.1732801
1.1733103
1.1733316
1.1733484
1.1734314
1.1734572
1.1733783
1.1733624
1.1733419
1.1733129
1.173437
1.173358
1.1733417
1.1733208
1.1732911
1.1732573
1.1732882
1.17331
1.1733271
1.1734104
1.1733825
1.1732943
1.1732762
1.1732533
1.173221
1.1731824
1.1732162
1.1732403
1.1732593
1.173353
1.1733217
1.173222
1.1732018
1.1731765
1.173141
1.1730965
1.1731338
1.1731605
1.173182
1.1732885
1.173253
1.173139
1.1731161
1.1730878
1.1730484
1.1729964
1.1730381
1.1730682
1.1730927
1.1732152
1.1731748
1.1730427
1.1730164
1.1729843
1.1729399
1.1728784
1.1729257
1.1729601
1.1729884
1.1731313
1.1730845
1.1729294
1.1728989
1.1728619
1.1728113
1.1727376
1.172792
1.1728319
1.1728651
1.173034
1.1729793
1.1727946
1.1727585
1.1727153
1.1726565
1.1725669
1.1726307
1.1726778
1.1727172
1.1729199
1.1728551
1.1726319
1.1725886
1.1725371
1.1724676
1.1723573
1.1724333
1.1724898
1.1725375
1.1727842
1.1727064
1.1724328
1.1723799
1.1723176
1.1722341
1.1720962
1.1721885
1.1722574
1.1723161
1.1726206
1.1725256
1.1721858
1.1721204
1.1720438
1.1719417
1.1717678
1.1718813
1.1719666
1.1720397
1.1724198
1.1723015
1.1718757
1.1717939
1.1716988
1.1715726
1.1713532
1.1714935
1.1715997
1.1716912
1.1721681
1.1720168
1.1714835
1.1713812
1.1712629
1.1711072
1.170832
1.1710039
1.171135
1.1712489
1.171843
1.1716416
1.1709845
1.1708586
1.1707142
1.1705262
1.1701961
1.1703988
1.1705559
1.1706937
1.1714117
1.171138
1.1703701
1.1702219
1.1700543
1.1698408
1.1694311
1.169645
1.1698172
1.1699717
1.170767
1.1703931
1.1695726
1.1694165
1.1692525
1.1690664
1.1691422
1.1692501
1.1693907
1.1695439
1.1703747
1.1694887
1.1689358
1.1688314
1.1687477
1.1687246
1.1627369
1.16305
1.1633097
1.1636085
1.1660632
1.1705654
1.1707334
1.1707321
1.1707199
1.1706587
1.169903
1.1701981
1.1703177
1.1704664
1.1713064
1.1741272
1.1734628
1.1733477
1.1731985
1.173004
1.183531
1.18322
1.182867
1.1824382
1.1786216
1.1735772
1.1710632
1.1707588
1.1704257
1.1699839
1.1754468
1.1755239
1.175536
1.175495
1.1749233
1.1739375
1.1739707
1.1739352
1.1738669
1.173679
1.1696589
1.1700423
1.1702486
1.1705029
1.1724929
1.1717686
1.1701471
1.1699584
1.1698229
1.169571
1.1712628
1.1715188
1.1716424
1.1717676
1.1728223
1.1733515
1.1715054
1.1712836
1.1710628
1.1707014
1.1757367
1.1758595
1.1758832
1.1758467
1.1753976
1.1705757
1.1688811
1.168604
1.1683016
1.1678076
1.1700608
1.1702101
1.1702676
1.1703239
1.1705188
1.165937
1.163809
1.1635782
1.163391
1.1631262
1.1685701
1.1685979
1.1686884
1.1687941
1.169316
1.170328
1.1695851
1.1694446
1.1693166
1.1692214
1.1691518
1.1693205
1.1694701
1.1696124
1.170353
1.1707353
1.1700143
1.1698747
1.1697191
1.1695256
1.1699474
1.1701383
1.1702882
1.1704208
1.1711147
1.1713904
1.1707409
1.1706181
1.1704787
1.170299
1.1706185
1.1707844
1.1709123
1.1710245
1.1716206
1.1718224
1.1712805
1.1711788
1.1710624
1.1709106
1.1711715
1.1713095
1.1714149
1.1715068
1.1719968
1.1721492
1.1717071
1.1716243
1.1715289
1.1714037
1.1716106
1.1717242
1.1718105
1.1718852
1.1722838
1.1724036
1.1720438
1.1719764
1.1718982
1.171795
1.1719595
1.1720535
1.1721245
1.1721855
1.1725106
1.1726069
1.1723124
1.1722571
1.1721924
1.1721065
1.1722383
1.172317
1.172376
1.1724264
1.1726937
1.1727726
1.1725292
1.1724833
1.1724292
1.1723568
1.1724634
1.1725302
1.17258
1.1726221
1.1728443
1.1729098
1.1727064
1.1726677
1.1726218
1.1725599
1.1726475
1.172705
1.1727475
1.1727831
1.1729699
1.1730252
1.1728531
1.1728202
1.1727807
1.1727271
1.1727997
1.1728499
1.1728868
1.1729173
1.1730762
1.1731235
1.1729763
1.1729479
1.1729135
1.1728663
1.1729275
1.1729719
1.1730042
1.1730307
1.1731674
1.1732083
1.173081
1.1730563
1.1730259
1.1729839
1.173036
1.1730757
1.1731044
1.1731276
1.1732465
1.1732822
1.173171
1.1731491
1.173122
1.1730843
1.1731292
1.1731651
1.1731908
1.1732114
1.1733158
1.1733474
1.1732492
1.1732297
1.1732052
1.173171
1.1732101
1.1732429
1.1732662
1.1732846
1.1733772
1.1734054
1.1733179
1.1733004
1.1732781
1.1732467
1.1732812
1.1733114
1.1733327
1.1733494
1.1734323
1.1734577
1.1733788
1.1733629
1.1733424
1.1733134
1.1734339
1.1733512
1.1733345
1.1733133
1.1732833
1.1732489
1.1732802
1.1733024
1.1733198
1.1734069
1.1733786
1.1732866
1.1732682
1.173245
1.1732123
1.1731734
1.1732075
1.1732319
1.1732513
1.1733489
1.1733173
1.1732136
1.1731931
1.1731674
1.1731317
1.173087
1.1731245
1.1731515
1.1731733
1.1732838
1.1732481
1.17313
1.1731069
1.1730783
1.1730388
1.1729869
1.1730286
1.1730589
1.1730835
1.17321
1.1731692
1.1730333
1.173007
1.1729748
1.1729307
1.1728696
1.1729165
1.1729508
1.172979
1.1731254
1.1730782
1.1729202
1.1728898
1.1728532
1.1728033
1.1727309
1.1727842
1.1728235
1.1728562
1.1730272
1.172972
1.1727864
1.172751
1.1727087
1.1726516
1.1725644
1.1726258
1.1726714
1.1727098
1.172912
1.1728466
1.1726259
1.1725841
1.1725347
1.1724683
1.1723621
1.172434
1.1724877
1.1725333
1.172775
1.1726964
1.172431
1.172381
1.1723224
1.1722442
1.1721132
1.1721984
1.1722625
1.1723175
1.1726096
1.1725136
1.1721911
1.1721306
1.1720602
1.1719669
1.1718034
1.1719057
1.1719832
1.17205
1.1724067
1.1722872
1.1718922
1.1718182
1.1717327
1.1716201
1.1714145
1.1715385
1.1716329
1.1717149
1.1721528
1.1720008
1.1715156
1.1714248
1.1713204
1.171184
1.170925
1.1710749
1.17119
1.1712905
1.1718265
1.1716252
1.171036
1.1709251
1.1707988
1.1706351
1.1703182
1.1704952
1.1706327
1.1707539
1.1713952
1.1711199
1.1704356
1.1703049
1.1701574
1.1699696
1.1695516
1.1697412
1.169894
1.1700313
1.1707408
1.1703588
1.1696317
1.1694922
1.1693461
1.169182
1.1692572
1.1693471
1.1694717
1.1696092
1.1703356
1.1693231
1.1688198
1.1687178
1.1686321
1.1686116
1.163173
1.1634284
1.1636097
1.1638358
1.1659427
1.1705274
1.1703589
1.1703082
1.1702571
1.1701152
1.1678764
1.1683576
1.1686513
1.1689214
1.1705843
1.1719584
1.1710915
1.1709778
1.1708519
1.1706127
1.1677592
1.1680378
1.1681995
1.1683775
1.1696738
1.1665674
1.1646901
1.1644987
1.1643442
1.1641386
1.1685598
1.1686085
1.1687088
1.168829
1.1695888
1.1703863
1.169457
1.1693075
1.1691672
1.1690579
1.1689897
1.1691656
1.1693253
1.1694783
1.1704001
1.1707787
1.1698627
1.1697095
1.1695412
1.169338
1.1697319
1.1699408
1.1701073
1.170256
1.1711538
1.1714266
1.1705742
1.1704343
1.1702774
1.1700826
1.1703966
1.1705836
1.1707306
1.1708604
1.1716529
1.1718514
1.171123
1.1710034
1.1708671
1.170691
1.1709615
1.1711239
1.1712492
1.1713584
1.1720231
1.1721729
1.1715692
1.1714699
1.1713555
1.1712067
1.1714283
1.1715643
1.1716684
1.1717585
1.1723053
1.172423
1.1719284
1.1718468
1.1717521
1.171628
1.1718079
1.171921
1.1720071
1.172081
1.1725283
1.172623
1.1722183
1.1721513
1.172073
1.1719697
1.1721155
1.1722098
1.1722812
1.172342
1.1727086
1.1727862
1.1724537
1.1723984
1.1723332
1.1722469
1.1723654
1.1724446
1.1725042
1.1725546
1.1728569
1.1729216
1.1726461
1.1726001
1.1725454
1.1724725
1.1725696
1.1726369
1.1726872
1.1727293
1.1729809
1.1730354
1.1728051
1.1727664
1.17272
1.1726577
1.1727379
1.1727957
1.1728387
1.1728743
1.1730858
1.1731325
1.1729378
1.1729048
1.1728649
1.1728111
1.1728781
1.1729284
1.1729655
1.172996
1.1731758
1.1732162
1.1730497
1.1730213
1.1729866
1.1729395
1.172996
1.1730403
1.1730728
1.1730993
1.1732539
1.1732892
1.1731453
1.1731205
1.1730899
1.1730481
1.1730962
1.1731358
1.1731646
1.1731879
1.1733224
1.1733536
1.1732276
1.1732057
1.1731784
1.1731409
1.1731824
1.1732181
1.1732439
1.1732645
1.1733831
1.173411
1.1732993
1.1732797
1.1732551
1.1732211
1.1732573
1.1732899
1.1733133
1.1733319
1.1734378
1.1734374
1.1733316
1.1733131
1.1732897
1.1732572
1.1732212
1.1732551
1.1732796
1.1732991
1.1734106
1.1733826
1.1732644
1.1732438
1.173218
1.1731825
1.1731411
1.1731785
1.1732056
1.1732274
1.1733531
1.1733219
1.1731878
1.1731646
1.1731359
1.1730966
1.1730486
1.1730902
1.1731206
1.1731452
1.1732886
1.1732532
1.1730994
1.173073
1.1730407
1.1729967
1.1729404
1.1729872
1.1730216
1.1730499
1.1732154
1.173175
1.1729963
1.172966
1.1729291
1.1728793
1.1728127
1.172866
1.1729055
1.1729382
1.1731315
1.1730848
1.172875
1.1728396
1.172797
1.1727399
1.1726601
1.1727217
1.1727676
1.1728059
1.1730343
1.1729796
1.1727304
1.1726886
1.1726389
1.1725725
1.1724761
1.172548
1.172602
1.1726475
1.1729202
1.1728554
1.1725563
1.1725065
1.1724477
1.1723696
1.1722518
1.1723369
1.1724011
1.1724557
1.1727846
1.1727069
1.1723445
1.1722845
1.1722142
1.1721213
1.1719765
1.1720781
1.1721552
1.1722213
1.1726212
1.1725265
1.1720845
1.1720116
1.1719268
1.1718156
1.1716367
1.1717587
1.1718519
1.1719324
1.1724211
1.1723035
1.1717629
1.1716741
1.1715715
1.1714378
1.1712168
1.1713632
1.171476
1.171574
1.1721711
1.1720215
1.1713633
1.1712554
1.1711318
1.1709719
1.1707008
1.1708746
1.1710094
1.1711278
1.1718501
1.1716521
1.1708645
1.1707356
1.1705899
1.1704042
1.1700873
1.1702815
1.1704376
1.1705769
1.1714263
1.1711542
1.1702553
1.1701066
1.1699402
1.1697318
1.1693264
1.1695336
1.1697036
1.169858
1.1707819
1.1704101
1.1694699
1.1693141
1.1691505
1.1689651
1.1689843
1.1691113
1.1692582
1.1694122
1.1703807
1.1695832
1.1687744
1.1686504
1.1685431
1.1684813
1.1647423
1.1648894
1.1649983
1.1651464
1.16663
1.1691346
1.1666197
1.1662962
1.1659749
1.1655429
1.171728
1.1718816
1.1719157
1.1719226
1.1720778
1.1733018
1.1711665
1.1709356
1.170736
1.1703543
1.1773897
1.177747
1.1779918
1.1781855