/*--------------------------------*- C++ -*----------------------------------*\
  =========                 |
  \\      /  F ield         | OpenFOAM: The Open Source CFD Toolbox
   \\    /   O peration     | Website:  https://openfoam.org
    \\  /    A nd           | Version:  7
     \\/     M anipulation  |
\*---------------------------------------------------------------------------*/
FoamFile
{
    version     2.0;
    format      ascii;
    class       volScalarField;
    location    "10";
    object      k;
}
// * * * * * * * * * * * * * * * * * * * * * * * * * * * * * * * * * * * * * //

dimensions      [0 2 -2 0 0 0 0];

internalField   nonuniform List<scalar> 
25201
(
1914.3944
2120.2267
1904.2264
2120.0118
3107.1425
2508.0173
2216.9676
2222.5993
2528.9468
3092.5631
2528.3387
2509.4533
2785.1784
4566.5881
4648.6953
3403.4499
3670.5554
3897.8227
4120.0244
4609.6292
4275.8874
4232.179
4086.0461
4352.8803
4398.6412
4638.1145
4317.5978
3786.4561
3833.6375
4405.7708
4387.3763
4349.9017
4758.7906
4742.7811
4705.8428
4623.9995
4302.3129
4338.3095
4660.8169
4677.1243
4356.8246
4366.389
4415.8502
4764.6264
4683.7973
4569.9436
4286.3548
3716.9377
2923.3298
2785.2795
2804.9218
2944.7355
3587.7596
3495.6361
3313.3557
3339.1344
3336.0641
3568.5668
3534.1638
4057.0122
4000.95
3804.7661
3772.0455
3729.8549
3757.5498
3339.7358
3525.9016
4032.7428
4028.0926
4161.698
4190.5722
4176.6227
3673.7004
3625.5627
3667.261
4234.2816
4229.7619
4208.382
4257.2247
4223.9869
4156.4192
4026.5101
4278.1691
4212.6951
4332.7203
4108.0608
4431.6437
4537.3874
4767.6487
4582.9728
4720.3753
4697.2598
4795.5306
4855.4988
4901.5398
4808.0351
4837.6864
4931.4176
5044.6883
4948.7288
4923.0168
5016.2218
4972.9774
4883.7744
4827.9353
4907.0982
5013.7844
4931.1631
4787.6561
4824.1019
5020.5831
4998.8229
5088.0113
5110.9061
5152.0598
5071.9471
5057.487
5136.0902
5114.7606
5057.315
4969.2975
5035.1501
5013.0783
5088.6656
5141.3744
5077.6977
4962.8486
4796.283
4604.3174
4682.7604
4698.5938
4705.791
4581.8703
4574.6394
4556.579
4522.3635
4444.5407
4297.4967
3812.7023
3344.1921
3340.3569
3772.3816
4059.3206
4006.9017
3578.8922
3535.8121
3495.4188
3313.1374
2804.0912
3340.055
3757.2784
3729.1016
4029.7498
4033.2362
3526.351
3614.2365
2941.2559
2923.1131
3683.5515
3626.8875
4193.0024
4183.8055
4114.2047
4177.1863
4047.3409
4244.9276
4276.8414
4215.3478
4447.237
4415.7518
4337.625
4218.4908
4448.6693
4223.7804
4178.7638
4408.2835
4445.9709
4500.1507
4722.12
4674.0321
4849.153
4848.1155
4887.6212
4965.3877
4915.8878
5005.225
4939.3099
4978.8944
5053.316
5119.9953
5054.6349
4919.2751
4725.9836
4510.4617
4705.2731
4738.3001
4793.4416
5124.2811
5046.0258
4983.6216
4903.1458
4841.0766
4917.9675
4811.4806
4878.1049
4989.5169
5069.4823
5021.5874
4940.1146
5018.9213
5093.9445
5144.3671
5080.6604
5098.9545
5118.854
4996.7415
2119.5442
1903.7786
2854.0739
3785.6235
3833.3796
4415.4812
4742.0966
4386.2711
4405.983
4355.4799
4366.2973
4683.2907
4764.4781
4757.6718
4676.3341
4659.4379
4336.6317
4299.3287
4349.4622
4704.8673
4622.3873
4534.2835
4229.8793
3665.9381
319.00309
778.80013
1141.4249
1467.5789
3313.8028
3317.7066
1467.3887
1134.8202
768.61931
314.58327
314.61105
768.18737
1135.9691
1470.7636
3321.9353
3323.8533
1472.5032
1137.8878
769.68674
315.52129
315.00277
767.78936
1134.6649
1468.0834
3324.2874
3324.4727
1465.7403
1132.9967
766.66254
314.70938
314.3224
765.27736
1130.6856
1462.6735
3324.4142
3324.7115
1462.693
1130.7586
765.25045
314.33688
314.1758
764.65723
1129.6844
1461.2943
3324.8148
3325.1879
1462.3377
1130.5084
765.09936
314.32062
314.20587
764.671
1129.6817
1461.2462
3325.0718
3324.796
1462.0008
1130.3009
764.98613
314.30428
314.14042
764.43859
1129.3178
1460.7404
3324.0991
3323.2875
1461.0679
1129.551
764.46891
314.13572
313.88601
763.66973
1128.2236
1459.4322
3322.1364
3321.2874
1459.744
1128.4252
763.67162
313.87058
313.67803
763.03038
1127.3118
1458.3623
3320.5713
3320.6723
1459.3019
1128.0266
763.39144
313.78534
313.71506
763.11397
1127.4289
1458.543
3321.1669
3322.4284
1460.2129
1128.7002
763.83835
313.93785
313.90855
763.68735
1128.3078
1459.7529
3324.0624
3326.3511
1461.9504
1129.9628
764.65657
314.21319
314.31432
764.88275
1130.1183
1462.1758
3329.3661
3333.3638
1465.3391
1132.5792
766.42678
314.82106
315.1449
767.30165
1133.6563
1466.6614
3338.0262
3343.2201
1470.6893
1136.9142
769.44134
315.86596
316.3499
770.76306
1138.5763
1472.5818
3348.0779
3351.9451
1476.2997
1141.7462
772.917
317.09124
317.41939
773.7746
1142.6513
1477.0775
3354.0497
3354.0992
1478.4786
1143.8971
774.56593
317.69592
317.27229
773.22886
1141.9482
1476.141
3351.9202
3347.7487
1473.4413
1139.2815
771.15819
316.56329
3404.7077
1359.8083
1051.2655
712.32405
298.37422
299.01578
714.11061
1053.4773
1361.9223
3408.9729
3410.9787
1363.8553
1055.1016
715.16372
299.2947
299.33577
715.21544
1054.9493
1363.7118
3411.1352
3409.3206
1363.4387
1054.5959
714.81124
299.1728
298.79936
713.58207
1052.6531
1361.1265
3406.0099
3401.6609
1359.3367
1051.1665
712.40775
298.36213
297.9289
711.01921
1048.9457
1356.5559
3396.8843
3392.4691
1354.9693
1047.712
710.048
297.56202
297.22107
708.9302
1045.8608
1352.5903
3388.5811
3385.5286
1351.7173
1045.1911
708.33213
296.96903
296.76757
707.62246
1043.9234
1350.0533
3382.8343
3380.8326
1349.7457
1043.7132
707.35171
296.63364
296.54031
706.94968
1042.8958
1348.6629
3379.4196
3378.4314
1348.912
1043.1142
706.96265
296.50133
296.51409
706.87459
1042.7412
1348.356
3378.1252
3379.2001
1349.7551
1043.893
707.52789
296.68587
296.81502
707.75633
1043.9347
1349.6581
3379.9218
3381.0415
1350.8679
1044.914
708.28769
296.94838
297.01164
708.34886
1044.7741
1350.6544
3381.4281
3381.8367
1351.3214
1045.2513
708.51075
297.01592
296.97364
708.30079
1044.7741
1350.7825
3382.0614
3382.1431
1351.2169
1045.0432
708.30833
296.91838
296.86872
708.0983
1044.5724
1350.6858
3382.06
3382.0156
1351.5696
1045.2086
708.35756
296.8889
296.94375
708.52182
1045.3204
1351.8151
3381.5484
3382.1195
1354.5513
1047.3224
709.65381
297.21579
297.509
710.68789
1048.8582
1356.7993
3381.757
3381.9137
1360.5437
1051.4515
712.07311
297.84563
297.42308
711.33384
1050.5082
1359.889
3380.2312
3378.2465
1358.4193
1050.8883
713.92053
297.99632
295.85494
700.85582
1034.9737
1339.3425
3368.903
3322.4433
1250.9768
954.88801
637.60877
273.89957
297.30559
704.32483
1039.9224
1345.2932
3381.8585
3388.8864
1363.693
1055.0227
716.59593
298.94653
298.01339
713.07189
1053.1792
1363.3833
3388.9132
3388.8981
1363.6092
1053.6983
713.5248
298.29237
297.90051
711.93211
1050.7661
1359.4038
3388.9326
3388.9071
1357.135
1049.1503
710.82385
297.57985
297.35918
709.82139
1047.2982
1354.5213
3389.1965
3389.6051
1354.6098
1047.3538
709.7226
297.31155
297.27188
709.37455
1046.5552
1353.4686
3390.192
3390.9104
1354.3692
1047.1949
709.635
297.32163
297.34664
709.52299
1046.771
1353.7335
3391.0673
3391.1091
1354.4712
1047.2888
709.70545
297.36623
297.37617
709.5507
1046.7851
1353.7031
3390.761
3390.3259
1354.2461
1047.1723
709.65481
297.36847
297.33703
709.38319
1046.4952
1353.2567
3389.5526
3388.7455
1353.5651
1046.6804
709.34369
297.27871
297.22897
709.01627
1045.92
1352.4781
3387.8952
3387.2987
1352.8758
1046.1698
709.0202
297.18427
297.1771
708.82466
1045.6057
1352.0464
3387.066
3387.4076
1352.7573
1046.0704
708.95957
297.17114
297.20073
708.88525
1045.7131
1352.2515
3388.1609
3389.6337
1353.593
1046.5874
709.25347
297.26581
297.34936
709.34356
1046.5043
1353.4968
3392.1068
3394.8998
1355.3529
1047.7967
710.00595
297.51465
297.6925
710.40574
1048.1804
1355.8738
3398.4133
3402.6567
1358.3462
1049.9682
711.40779
297.97121
298.28484
712.21012
1050.9281
1359.556
3407.2906
3412.1579
1362.6648
1053.2757
713.61224
298.69467
299.03946
714.5354
1054.3947
1363.9666
3416.6091
3420.2796
1366.9265
1056.8302
716.0723
299.53483
300.07129
717.37098
1058.3789
1368.4594
3422.189
3422.674
1369.8156
1059.7509
718.30092
300.41848
299.8169
716.6408
1057.6553
1367.9435
3421.917
317.08242
769.36762
1133.4487
1460.9583
3335.6808
3334.3168
1460.8267
1133.6644
769.61228
317.16753
316.65297
768.29633
1131.8837
1459.1029
3332.9916
3330.6443
1457.7779
1130.6401
767.27931
316.24965
315.73917
765.80278
1128.4769
1455.3077
3327.4369
3323.4589
1453.7935
1127.3335
764.94946
315.43545
315.01555
763.66024
1125.3255
1451.291
3319.0242
3314.665
1449.9875
1124.4633
763.05015
314.80131
314.49268
762.05888
1122.8289
1447.8516
3310.5923
3308.1774
1447.5732
1122.8012
762.0148
314.46716
314.31609
761.4745
1121.8049
1446.2126
3305.5565
3303.8673
1446.225
1121.9748
761.55561
314.33144
314.25757
761.26778
1121.3923
1445.4638
3302.6318
3301.8266
1445.8508
1121.8148
761.50207
314.32133
314.27887
761.32435
1121.4365
1445.4269
3301.8453
3302.3877
1446.265
1122.149
761.72288
314.38896
314.39363
761.69472
1121.9994
1446.1486
3303.133
3303.9512
1447.1748
1122.875
762.21438
314.54582
314.57947
762.27353
1122.8523
1447.2197
3305.0134
3305.6763
1448.1047
1123.6012
762.70494
314.70242
314.66076
762.55284
1123.291
1447.8322
3306.3692
3306.4705
1448.3932
1123.7788
762.80557
314.72025
314.63125
762.52018
1123.266
1447.8463
3306.5905
3306.4058
1448.3245
1123.6903
762.72816
314.67072
314.55444
762.37749
1123.0815
1447.6547
3305.9304
3305.5095
1448.3723
1123.6625
762.67278
314.60969
314.57727
762.64606
1123.5812
1448.4399
3304.5182
3304.6256
1451.1514
1125.6823
763.93985
314.92891
315.23126
765.06689
1127.3971
1453.6333
3304.0085
3303.9285
1457.6426
1130.4019
766.89376
315.76216
315.44977
766.18178
1129.6846
1457.3674
3303.2707
3299.9383
1445.2396
1118.4368
757.3333
312.17294
305.20716
742.33647
1095.5038
1417.5349
3288.3673
3326.9491
1464.8979
1136.0573
772.33805
316.09608
313.0046
763.28023
1129.0271
1462.988
3325.033
3328.1604
1475.198
1139.4926
770.48447
315.4922
315.84748
770.50671
1138.9294
1473.7725
3328.0912
3327.7247
1471.2712
1137.2097
769.43051
315.55036
314.93696
767.27223
1133.6869
1466.5704
3327.8362
3328.1672
1465.6617
1133.0218
766.75122
314.80004
314.57694
765.92891
1131.5891
1463.7687
3329.0325
3329.2624
1464.4668
1132.1348
766.18955
314.66835
314.57761
765.80734
1131.3541
1463.4072
3329.6426
3329.6787
1464.5548
1132.2547
766.30018
314.73479
314.61115
765.85729
1131.4198
1463.467
3329.7441
3329.2559
1464.2795
1132.0147
766.12223
314.68361
314.48653
765.47695
1130.8998
1462.8635
3328.8519
3327.7194
1463.2456
1131.146
765.50279
314.47727
314.24118
764.731
1129.8266
1461.5586
3326.7844
3325.5502
1461.9251
1130.0875
764.78388
314.24474
314.07012
764.18506
1129.0053
1460.5262
3325.0481
3325.0085
1461.5811
1129.7865
764.57931
314.18423
314.10055
764.26928
1129.1618
1460.8118
3326.0764
3327.46
1462.4276
1130.3574
764.93657
314.30654
314.38081
765.08773
1130.3973
1462.4959
3329.987
3333.2851
1465.3003
1132.5454
766.40639
314.80562
315.05513
767.0971
1133.4112
1466.4516
3338.0053
3343.2196
1470.189
1136.2847
768.90974
315.65171
316.12301
770.23172
1138.0519
1472.4317
3349.5322
3356.0837
1477.3409
1142.0412
772.90182
317.03899
317.85866
775.17596
1145.0229
1480.7522
3362.778
3368.2232
1485.9429
1149.5763
778.39501
318.99448
319.78151
780.53988
1152.2322
1488.6062
3371.9492
3372.6242
1490.8804
1154.4486
782.12858
320.35759
320.129
781.43521
1153.3928
1489.4801
3370.7988
3366.5836
1485.7777
1149.7791
778.60839
319.1063
316.79332
768.58476
1132.3879
1459.6983
3332.8804
3332.77
1460.8332
1133.7617
769.69741
317.19003
316.82936
768.74986
1132.3747
1459.3902
3331.62
3329.6525
1458.1269
1131.1459
767.73464
316.42924
315.82436
765.9776
1128.5996
1455.2431
3326.1739
3322.0888
1453.3053
1126.996
764.75044
315.38269
314.80844
763.03218
1124.412
1450.1736
3317.1517
3312.6718
1448.5487
1123.2086
762.14496
314.48848
314.09013
760.9059
1121.2411
1446.0437
3308.3754
3305.0065
1445.1841
1120.7027
760.49168
313.93573
313.70679
759.74237
1119.4303
1443.5157
3302.0698
3300.2791
1443.4662
1119.5191
759.7491
313.69071
313.58095
759.35506
1118.7739
1442.49
3298.8322
3298.282
1443.1513
1119.4049
759.72292
313.68546
313.66213
759.57997
1119.0292
1442.654
3298.2654
3299.1249
1443.8152
1120.0258
760.1821
313.84229
313.88562
760.24227
1119.9579
1443.7277
3299.8216
3301.0123
1445.217
1121.2093
761.01782
314.12361
314.18922
761.14143
1121.2282
1445.2346
3302.0927
3303.3274
1446.6048
1122.3388
761.80284
314.38584
314.33721
761.60367
1121.9184
1446.1383
3303.871
3304.1558
1447.0901
1122.6987
762.04277
314.45534
314.37009
761.73769
1122.098
1446.3457
3304.2323
3303.9807
1446.923
1122.5688
761.95934
314.41141
314.26517
761.5139
1121.8171
1446.0733
3303.4727
3302.8856
1446.85
1122.4054
761.79246
314.30931
314.26195
761.72295
1122.2674
1446.8593
3302.336
3302.0469
1449.4205
1124.1935
762.86989
314.56112
314.79217
763.78871
1125.619
1451.5631
3301.3302
3301.1367
1455.406
1128.42
765.42617
315.2568
314.9343
764.55122
1127.4813
1454.8052
3299.9324
3295.8401
1442.2437
1115.7816
755.18348
311.58143
303.44318
737.23119
1091.1572
1413.509
3285.7917
3372.6371
1342.7363
1039.9711
707.52539
295.04791
295.55762
706.94215
1044.0236
1351.8799
3377.9951
3381.7032
1360.4777
1050.7468
711.25674
297.27433
297.68351
711.66091
1050.7136
1359.8015
3383.3827
3383.9249
1357.8493
1049.4494
710.87296
297.48527
297.18808
709.51058
1046.9527
1354.2364
3384.531
3384.8459
1353.299
1046.244
708.92038
297.00128
296.95028
708.47458
1045.2333
1351.768
3385.5378
3385.7147
1352.1299
1045.4959
708.51137
296.94109
297.03964
708.5763
1045.2545
1351.6023
3385.8657
3385.8442
1352.4555
1045.8395
708.78894
297.06726
297.0892
708.65678
1045.3377
1351.6407
3385.8832
3385.2389
1352.1585
1045.6254
708.64953
297.03424
296.96103
708.24504
1044.7312
1350.8657
3384.3776
3383.0792
1351.0719
1044.732
708.02325
296.82776
296.67781
707.39872
1043.5308
1349.4327
3382.0553
3380.9908
1349.5861
1043.4647
707.12285
296.52423
296.42
706.64343
1042.4957
1348.2778
3380.5334
3380.3079
1348.8593
1042.7668
706.59629
296.34303
296.32314
706.3756
1042.1892
1348.0606
3380.9819
3381.9276
1348.9244
1042.7109
706.51746
296.31689
296.43909
706.71011
1042.7403
1348.9042
3383.633
3386.1154
1350.5561
1043.8911
707.28879
296.58633
296.87983
707.99404
1044.6636
1351.4632
3389.5701
3393.8417
1354.0118
1046.5596
709.09706
297.20265
297.67753
710.34796
1048.1187
1355.8647
3398.8064
3403.9425
1359.1698
1050.7072
711.96209
298.17887
298.7317
713.45236
1052.5579
1361.2399
3408.673
3412.2633
1363.9178
1054.7579
714.83668
299.14948
299.53644
715.80384
1055.8611
1364.9686
3414.1309
3413.9685
1365.9939
1056.718
716.25225
299.68446
299.54579
715.66486
1055.736
1364.7085
3411.9082
3408.3338
1362.2348
1052.9901
713.367
298.67791
3347.4714
1472.5221
1138.8195
771.00632
316.5593
317.13142
772.69752
1140.9359
1474.5569
3350.1505
3353.9269
1477.8492
1143.8402
774.75237
317.79395
318.02968
775.45062
1144.73
1478.985
3355.559
3354.8301
1478.8361
1144.4695
775.14836
317.91621
317.38822
773.65494
1142.4141
1476.6663
3352.5023
3348.256
1474.3853
1140.4421
772.16356
316.8587
316.16073
770.16714
1137.5742
1471.0612
3343.3122
3337.9789
1468.5198
1135.5573
768.71719
315.65732
315.12108
767.16407
1133.2518
1465.7252
3333.5014
3329.728
1464.4244
1132.3067
766.47777
314.88006
314.59008
765.61766
1130.949
1462.7166
3327.1921
3324.9886
1462.2439
1130.7213
765.45226
314.53489
314.39034
765.0092
1129.9739
1461.3113
3323.711
3322.7646
1461.4035
1130.1503
765.09575
314.41664
314.35169
764.89794
1129.7842
1460.9918
3322.6295
3322.5715
1461.4176
1130.2192
765.16027
314.43585
314.47166
765.27794
1130.3305
1461.6271
3323.4195
3324.2243
1462.5351
1131.1508
765.80522
314.64506
314.72818
766.06012
1131.4544
1462.9789
3325.5014
3326.2421
1463.8299
1132.2248
766.55661
314.89369
314.90978
766.62022
1132.2654
1463.9851
3327.1465
3327.1868
1464.3578
1132.6312
766.83216
314.97498
314.9143
766.68858
1132.3795
1464.1609
3327.3758
3326.9968
1464.6658
1132.8447
766.96141
314.99069
314.96122
766.93075
1132.7594
1464.6722
3327.0984
3326.6012
1465.8658
1133.7133
767.50453
315.11574
315.31829
768.298
1134.936
1467.6561
3326.5203
3326.0034
1471.1005
1137.5639
769.94452
315.77999
316.08383
771.13087
1139.5916
1474.1397
3325.4559
3323.6609
1474.0118
1139.0462
770.47296
315.52287
312.7417
762.60176
1127.7475
1460.8957
3317.334
3316.3092
1459.1972
1131.6004
769.41205
314.88188
321.20329
784.73932
1149.9231
1477.696
3328.8847
3330.8058
1475.0988
1141.4606
773.35675
316.27626
315.95206
772.01169
1141.3406
1477.0811
3331.6022
3331.5146
1477.3023
1142.0725
772.73185
316.58045
316.02753
770.73872
1138.7455
1472.8018
3330.9205
3330.8382
1469.9234
1136.6602
769.35055
315.65229
315.29109
768.06998
1134.5712
1467.2283
3331.1268
3331.9386
1466.9208
1134.407
767.90433
315.26305
315.18148
767.56801
1133.7708
1466.1463
3332.2803
3332.5246
1466.7023
1134.2589
767.82394
315.27303
315.21542
767.58959
1133.7773
1466.1214
3332.6581
3332.6868
1466.6879
1134.2603
767.82842
315.29216
315.18796
767.47474
1133.6263
1465.9504
3332.3063
3331.9385
1466.2305
1133.8942
767.57458
315.21747
315.08275
767.13284
1133.1218
1465.3011
3331.0585
3330.1376
1465.2925
1133.1657
767.0892
315.06559
314.93264
766.64158
1132.3599
1464.29
3329.1871
3328.4971
1464.4888
1132.5625
766.70395
314.94941
314.8543
766.37728
1131.9504
1463.7696
3328.4435
3329.2118
1464.4754
1132.5109
766.66234
314.93984
314.92737
766.6038
1132.3362
1464.3908
3330.3894
3332.533
1465.7903
1133.3912
767.20127
315.11466
315.22865
767.51081
1133.761
1466.4015
3335.2744
3339.2287
1468.7993
1135.6044
768.64296
315.59718
315.84739
769.37086
1136.6153
1470.2648
3343.6879
3349.1509
1473.4401
1139.1083
770.96707
316.38308
316.87259
772.36838
1141.0495
1475.9509
3354.7988
3360.4956
1479.7871
1144.2975
774.59209
317.64888
318.33163
776.51777
1146.8344
1482.7102
3365.2397
3368.2809
1485.7784
1149.7124
778.58792
319.0605
319.44438
779.60081
1150.844
1486.7031
3369.0674
3367.7637
1486.6539
1151.1099
779.83091
319.57323
318.93592
778.00711
1148.7308
1484.3114
3365.1884
1869.4759
2081.0588
1886.0741
2081.2264
2754.3389
2479.0854
2178.6828
2188.4603
2508.1822
2480.9797
3083.6842
3074.9641
2503.4024
2784.5049
3311.8561
3342.7137
3311.2146
3732.0293
3762.9177
4039.5451
3527.3688
3491.2236
4030.9271
4161.7068
3578.974
2880.3719
2909.8402
3583.5469
3497.363
3523.7738
3333.4339
3755.9198
3734.6196
4037.4226
4041.8965
4167.0144
3609.3834
3653.007
3625.1567
3654.4601
3618.2067
4169.3281
4210.4235
4204.2464
3618.4915
3654.8524
3627.5254
3587.5601
4162.2339
4163.052
4205.4864
4205.573
4236.3677
4237.433
3727.5215
3670.725
3668.4531
2918.6976
2117.4151
1908.698
2506.0384
2782.2402
3275.8335
1404.369
1084.0641
733.82781
302.47222
309.90213
750.01038
1108.1128
1433.0306
3285.7559
3289.2856
1446.8975
1120.7033
759.61672
313.23723
313.45548
760.11712
1120.8989
1446.6631
3290.5253
3291.4361
1444.7899
1119.7216
759.41509
313.25564
312.90738
758.03139
1117.3133
1441.4168
3292.5208
3294.2206
1440.9215
1117.0297
757.79209
312.86085
312.82247
757.48095
1116.2945
1439.8168
3295.2865
3296.3383
1440.8008
1117.0155
757.83233
312.92625
312.89724
757.61637
1116.4915
1440.0656
3297.2691
3297.4736
1440.9355
1117.128
757.91019
312.97381
312.92811
757.65287
1116.5386
1440.1203
3297.6267
3297.658
1440.8906
1117.112
757.90946
312.99161
312.9339
757.63135
1116.4904
1440.0272
3297.2454
3297.0084
1440.5586
1116.8812
757.76744
312.95572
312.8661
757.39531
1116.1155
1439.505
3296.1426
3295.3652
1439.837
1116.3214
757.39785
312.8408
312.7454
757.00495
1115.5268
1438.7656
3294.9813
3295.1749
1439.5078
1116.0522
757.22072
312.78897
312.76182
757.0476
1115.5991
1438.9045
3295.6259
3296.5981
1440.0484
1116.3661
757.39071
312.83933
312.83856
757.3034
1116.0671
1439.6944
3298.214
3300.4324
1441.4757
1117.2876
757.93323
313.00779
313.09032
758.1023
1117.4036
1441.7259
3303.7814
3307.9255
1444.5245
1119.429
759.2882
313.45593
313.84565
760.34284
1120.8045
1446.2816
3313.5258
3319.4696
1450.3443
1124.0406
762.45714
314.55435
315.31115
764.527
1126.7488
1453.4765
3325.5282
3330.8383
1458.3597
1130.9453
767.4367
316.31863
317.18548
769.76389
1133.8336
1461.2729
3334.4939
3335.6121
1464.159
1136.6655
771.83399
317.92334
318.0976
772.23059
1137.0166
1464.1975
3334.3604
3331.6241
1461.0661
1134.026
769.88893
317.23535
315.04478
763.54597
1125.286
1451.2091
3317.094
3320.9776
1454.2882
1128.192
765.66781
315.75282
315.77868
765.82279
1128.3222
1454.586
3322.4285
3321.9987
1454.4124
1128.0034
765.46113
315.62627
315.2669
764.38361
1126.3847
1452.5898
3320.4913
3317.3037
1451.5094
1125.484
763.65596
314.99815
314.58891
762.38245
1123.4297
1448.8598
3313.6229
3309.4519
1447.4821
1122.3962
761.60152
314.30975
313.92634
760.39404
1120.434
1444.9338
3305.3847
3301.8925
1443.8699
1119.6335
759.7539
313.68494
313.32633
758.64165
1117.8604
1441.615
3298.684
3295.8515
1440.8997
1117.3017
758.14309
313.12898
312.90528
757.41321
1116.0467
1439.2687
3293.7421
3292.1303
1439.3013
1116.107
757.35953
312.86325
312.78604
757.05722
1115.4666
1438.4156
3291.4948
3291.2137
1439.5096
1116.4008
757.60532
312.94466
313.05255
757.8267
1116.4764
1439.4367
3292.3831
3292.6822
1440.357
1117.2717
758.28909
313.19026
313.23539
758.35601
1117.1921
1440.2245
3293.0853
3293.7188
1441.1426
1117.8842
758.69948
313.32094
313.27874
758.53404
1117.5044
1440.7065
3294.2086
3294.759
1441.6096
1118.1892
758.87322
313.35717
313.31625
758.71414
1117.8113
1441.1547
3295.1928
3295.2144
1441.9131
1118.3776
758.97162
313.36425
313.37408
759.00963
1118.3246
1441.9177
3295.5331
3295.5573
1443.6005
1119.5645
759.69645
313.54329
313.74773
760.43014
1120.6237
1445.1463
3295.8566
3295.8909
1449.016
1123.4702
762.14635
314.20986
314.57689
763.39367
1125.4513
1451.9047
3296.0197
3294.7802
1452.6084
1125.6631
763.25323
314.41326
311.11259
754.25732
1113.8366
1439.7363
3290.0519
3274.5114
1410.0787
1088.4483
736.87019
303.85088
310.0852
749.18996
1097.2084
1408.6097
3255.185
3287.9492
1488.8504
1150.7652
779.66825
324.26239
313.3419
764.02931
1123.5937
1448.6462
3295.3398
3294.8212
1448.8354
1118.6705
756.56404
310.93383
312.90947
762.59043
1127.4347
1459.4403
3300.8184
3302.3546
1460.6545
1128.8094
763.65455
313.5814
313.00918
761.71692
1125.6184
1456.5139
3304.1743
3306.4488
1455.5945
1125.0772
761.36455
312.97257
312.93046
760.9685
1124.1859
1454.2951
3309.8717
3313.5442
1456.8947
1126.4904
762.54251
313.49228
313.77997
763.2292
1127.1848
1457.5222
3316.3315
3318.3957
1460.1466
1129.3803
764.64534
314.24277
314.09936
764.13981
1128.4825
1459.0546
3319.267
3320.2195
1460.4893
1129.5727
764.73667
314.27854
314.11787
764.19629
1128.6524
1459.4214
3320.5634
3320.4731
1460.567
1129.5864
764.72154
314.27606
314.11015
764.14172
1128.5668
1459.3138
3320.3196
3320.5105
1460.4912
1129.5165
764.67504
314.27164
314.10367
764.10501
1128.5322
1459.3165
3320.5946
3320.805
1460.6132
1129.5786
764.7137
314.29421
314.23695
764.45454
1129.015
1459.9179
3321.7842
3323.2755
1461.8942
1130.6385
765.47624
314.57065
314.65944
765.65986
1130.7308
1462.0271
3325.5732
3328.1118
1464.5552
1132.786
766.96986
315.08735
315.22857
767.32006
1133.1425
1465.0661
3331.4116
3335.3181
1468.1598
1135.5779
768.85864
315.72766
315.95013
769.45145
1136.3181
1469.2152
3339.8239
3345.2171
1473.4235
1139.6503
771.60952
316.66624
317.13601
772.90351
1141.3499
1475.5178
3351.1455
3356.3678
1480.0917
1145.2734
775.60243
318.06368
318.61046
777.10332
1147.1533
1482.1172
3359.9843
3361.4283
1484.8535
1149.74
778.9364
319.24578
319.24148
778.86641
1149.4166
1484.1896
3360.089
3356.3129
1482.3722
1147.9703
777.7734
318.8747
317.55531
773.91172
1142.6454
1476.7473
3349.9228
314.24879
761.31408
1122.2414
1447.7723
3311.8943
3316.0903
1451.1764
1125.4839
763.72157
315.07371
315.07024
763.76156
1125.4583
1451.2998
3317.5933
3317.0248
1451.1158
1125.1327
763.38085
314.89844
314.46838
762.13981
1123.3204
1449.0953
3315.8495
3312.8994
1448.216
1122.6237
761.57047
314.2478
313.86657
760.38371
1120.7241
1445.8022
3309.7158
3305.6522
1444.4853
1119.7921
759.70028
313.6238
313.27086
758.60889
1118.0391
1442.2588
3302.0297
3298.652
1441.2817
1117.3796
758.11836
313.09319
312.81548
757.20845
1115.9014
1439.4195
3295.7447
3293.1196
1438.5978
1115.3092
756.72167
312.64038
312.35163
755.8383
1113.9295
1436.9503
3291.0029
3289.2484
1437.0692
1114.0998
755.87517
312.33214
312.25582
755.58042
1113.4744
1436.2026
3288.9244
3288.8567
1437.2577
1114.4385
756.1838
312.4398
312.48874
756.23496
1114.3074
1436.9993
3289.3566
3289.6127
1437.7514
1114.9808
756.62194
312.60078
312.57211
756.49096
1114.6768
1437.4436
3289.7489
3290.1937
1438.1388
1115.246
756.78041
312.64192
312.65716
756.79927
1115.1638
1438.0918
3290.9413
3291.5385
1439.1463
1116.1523
757.44199
312.85543
312.9637
757.70786
1116.3742
1439.3897
3292.348
3293.2552
1440.7427
1117.5524
758.45322
313.19151
313.2886
758.73448
1117.8804
1441.269
3294.0144
3294.5507
1443.0377
1119.2595
759.5606
313.5158
313.69077
760.2193
1120.2731
1444.6227
3294.7262
3295.1341
1448.8102
1123.4788
762.2302
314.26209
314.73826
763.76194
1125.8603
1452.1431
3295.4616
3294.5353
1453.6961
1126.8931
764.24506
314.8195
311.62528
755.54618
1115.389
1441.1356
3290.2782
3274.3437
1411.3289
1089.6015
736.03203
304.04904
316.9975
767.23699
1119.3385
1429.06
3256.5152
3330.5442
1286.7203
990.01977
666.57177
284.47916
304.44232
728.53598
1082.6405
1406.4715
3283.768
3292.5288
1418.9256
1095.3106
741.64595
310.71599
302.41561
733.61381
1086.3303
1408.2381
3284.6226
3291.4546
1436.9875
1111.0833
751.67072
310.50737
313.74196
760.96776
1122.6054
1449.2543
3294.0263
3294.5094
1450.0315
1123.5432
761.7799
313.99684
313.64969
760.5108
1121.1558
1446.5271
3295.1592
3295.7623
1444.3684
1119.608
759.45634
313.35825
313.1561
758.59255
1118.0043
1442.073
3296.5933
3297.5174
1442.2247
1118.1196
758.568
313.15487
313.14968
758.39625
1117.6114
1441.435
3298.3385
3299.061
1442.4048
1118.3264
758.74569
313.2521
313.26785
758.66819
1117.9835
1441.8491
3299.4278
3299.2976
1442.3803
1118.3638
758.79834
313.29268
313.25566
758.58055
1117.822
1441.59
3298.8828
3298.254
1441.9273
1118.0027
758.54845
313.21663
313.09509
758.08205
1117.0988
1440.697
3297.3843
3296.8742
1440.9561
1117.2066
757.99597
313.03641
312.92322
757.55069
1116.323
1439.7404
3295.7651
3295.2679
1440.1164
1116.5261
757.53398
312.88823
312.82735
757.24878
1115.8918
1439.252
3295.2421
3296.3065
1440.1439
1116.4882
757.49431
312.88024
312.956
757.62448
1116.4829
1440.1058
3297.4828
3299.5069
1441.6575
1117.594
758.22161
313.12761
313.31345
758.68018
1118.0646
1442.2199
3302.3205
3306.0676
1444.6687
1119.8237
759.69105
313.61979
313.94717
760.57984
1120.9697
1446.1618
3311.078
3316.8566
1449.9702
1123.8257
762.34771
314.51691
315.115
764.0026
1126.0392
1452.6734
3323.8248
3330.297
1457.2418
1129.7991
766.53251
315.97934
316.8643
768.96553
1132.951
1460.7026
3335.8
3339.0985
1464.6156
1136.5276
771.51684
317.76034
318.39429
773.16924
1138.4027
1466.1423
3339.8539
3337.8467
1466.0021
1138.6766
773.40851
318.50412
317.57487
770.81678
1135.2764
1462.5256
3334.6708
3425.247
1373.0888
1063.2802
721.19732
301.47324
302.53708
724.01318
1066.7609
1376.5537
3428.1827
3430.0284
1377.7869
1067.5269
724.34907
302.59371
302.14208
723.03463
1065.6945
1376.0767
3429.6216
3425.9802
1373.3497
1062.9488
720.77652
301.28878
300.34089
718.00726
1058.9714
1368.8594
3420.3677
3413.6451
1365.2231
1055.8173
715.60322
299.45694
298.70566
713.32795
1052.3504
1360.9475
3406.6007
3400.6686
1358.3975
1050.3466
711.82748
298.1529
297.70376
710.38092
1047.9894
1355.3272
3394.8694
3390.2253
1353.6047
1046.6535
709.33976
297.31214
297.01317
708.34657
1044.9946
1351.4778
3386.6031
3384.0669
1350.7123
1044.3957
707.79443
296.78204
296.67021
707.35085
1043.5256
1349.5548
3382.2552
3381.5227
1349.8566
1043.7941
707.40027
296.64187
296.68303
707.39911
1043.5554
1349.4791
3381.5572
3381.6479
1350.6595
1044.5138
707.91763
296.8123
296.96215
708.22592
1044.7032
1350.7854
3383.487
3384.2226
1352.0875
1045.7615
708.81884
297.11987
297.25358
709.07633
1045.8713
1352.1157
3385.3879
3386.0691
1352.9086
1046.4942
709.35983
297.30531
297.3385
709.35171
1046.2752
1352.6273
3386.0736
3386.2758
1353.1388
1046.634
709.43548
297.3145
297.27971
709.24938
1046.1748
1352.5896
3386.1182
3385.7757
1353.2468
1046.6518
709.41317
297.27352
297.27321
709.34788
1046.3558
1352.8682
3385.4735
3384.5059
1353.9574
1047.1212
709.67913
297.30563
297.46521
710.22548
1047.8577
1355.079
3384.0157
3383.6406
1358.2913
1050.1139
711.46655
297.7413
297.95024
712.30712
1051.573
1360.6747
3383.7056
3383.9619
1361.1802
1051.5061
711.84626
297.55735
296.2511
708.57734
1046.2638
1354.43
3382.6219
3380.8551
1347.2884
1044.221
710.84756
296.59823
3317.8408
1243.3103
950.35784
636.50522
271.70145
292.81226
691.98578
1023.2279
1326.2368
3361.4369
3369.0852
1351.2336
1044.9956
709.64544
296.73067
296.56664
708.30246
1046.0311
1354.0899
3370.9486
3372.6771
1355.5516
1047.5402
709.44969
297.00075
296.93553
708.83113
1045.9481
1352.893
3374.4806
3376.2843
1351.8148
1045.2213
708.29339
296.78922
296.74778
707.82279
1044.1128
1350.0639
3378.5354
3380.3369
1350.6354
1044.5496
707.98296
296.78364
296.9028
708.10853
1044.4129
1350.2549
3381.6969
3382.5025
1351.2284
1045.0799
708.37515
296.94929
297.02405
708.39463
1044.7988
1350.6941
3382.9957
3383.1518
1351.618
1045.3786
708.57617
297.03128
297.03064
708.38211
1044.8056
1350.7512
3383.3393
3383.1687
1351.5923
1045.3277
708.5258
297.02306
297.01136
708.30331
1044.6986
1350.6193
3383.0556
3382.4423
1350.9789
1044.8835
708.24364
296.94071
296.92213
708.00311
1044.2279
1349.9917
3381.9236
3381.5209
1350.5276
1044.4965
707.97223
296.85294
296.8273
707.72605
1043.8656
1349.6354
3381.7829
3382.5962
1350.6608
1044.4642
707.89117
296.81704
296.84664
707.83039
1044.1438
1350.2095
3384.1706
3385.6418
1351.3071
1044.8371
708.08379
296.8727
296.98648
708.27345
1044.8746
1351.3112
3387.683
3390.3918
1352.939
1045.9257
708.74354
297.08093
297.29602
709.23271
1046.426
1353.5894
3394.1717
3399.2899
1356.468
1048.5086
710.4255
297.64261
298.14713
711.75655
1050.1992
1358.5017
3404.812
3410.3508
1362.1681
1053.0916
713.5835
298.72712
299.37743
715.29512
1055.2138
1364.4676
3414.9954
3417.857
1367.5687
1057.9322
717.12973
299.98744
300.52247
718.44622
1059.3528
1368.6911
3418.5924
3417.3482
1368.9247
1059.7935
718.70124
300.61565
299.77854
716.34974
1056.7426
1365.9316
3415.1514
318.35131
776.1516