/*--------------------------------*- C++ -*----------------------------------*\
  =========                 |
  \\      /  F ield         | OpenFOAM: The Open Source CFD Toolbox
   \\    /   O peration     | Website:  https://openfoam.org
    \\  /    A nd           | Version:  7
     \\/     M anipulation  |
\*---------------------------------------------------------------------------*/
FoamFile
{
    version     2.0;
    format      ascii;
    class       volScalarField;
    location    "10";
    object      rho;
}
// * * * * * * * * * * * * * * * * * * * * * * * * * * * * * * * * * * * * * //

dimensions      [1 -3 0 0 0 0 0];

internalField   nonuniform List<scalar> 
25201
(
1.1739609
1.1739576
1.1739609
1.1739576
1.1739474
1.1739502
1.1739549
1.1739586
1.1739558
1.1739539
1.1739557
1.1739501
1.1739482
1.1739275
1.1739259
1.1739374
1.1739354
1.1739267
1.1739224
1.1739138
1.1739195
1.173932
1.1739329
1.1739274
1.1739133
1.1739065
1.1739164
1.1739317
1.1739301
1.1739107
1.1739121
1.1739159
1.173904
1.1739059
1.1739092
1.1739258
1.1739303
1.1739292
1.1739247
1.173924
1.1739285
1.1739284
1.1739097
1.1739032
1.1739239
1.1739379
1.1739373
1.1739407
1.1739445
1.1739483
1.1739544
1.1739529
1.1739524
1.1739528
1.1739523
1.173949
1.1739426
1.173943
1.173949
1.1739502
1.1739444
1.1739392
1.1739481
1.1739528
1.1739556
1.1739549
1.1739552
1.1739562
1.1739536
1.173954
1.1739507
1.1739453
1.1739412
1.1739481
1.1739484
1.1739512
1.1739456
1.1739456
1.1739375
1.1739379
1.1739389
1.1739383
1.1739364
1.1739437
1.1739452
1.1739458
1.1739374
1.1739274
1.1739224
1.1739234
1.1739309
1.1739401
1.1739336
1.1739239
1.1739146
1.1739147
1.1739056
1.1739033
1.1738941
1.1738976
1.173909
1.1739079
1.1739209
1.1739203
1.1739296
1.1739317
1.17393
1.173927
1.1739195
1.1738936
1.1738901
1.1739033
1.1739039
1.1738868
1.1738818
1.1738844
1.1739022
1.1739022
1.173919
1.1739187
1.1739172
1.1739166
1.1739271
1.1739307
1.1739335
1.1739273
1.1739166
1.1739195
1.1739234
1.173925
1.1739246
1.1739248
1.1739397
1.173939
1.1739383
1.1739377
1.1739377
1.1739365
1.1739391
1.1739426
1.173949
1.1739481
1.1739504
1.1739444
1.1739429
1.1739491
1.1739529
1.1739523
1.1739544
1.1739549
1.1739556
1.1739528
1.1739538
1.1739563
1.1739553
1.173955
1.173953
1.1739444
1.1739411
1.1739483
1.1739512
1.1739455
1.173946
1.1739391
1.1739383
1.1739381
1.1739379
1.173946
1.1739473
1.173946
1.1739456
1.1739438
1.1739427
1.1739366
1.1739474
1.1739476
1.1739425
1.1739349
1.1739339
1.1739435
1.1739485
1.1739401
1.1739348
1.1739379
1.173944
1.1739467
1.173942
1.1739365
1.17394
1.1739433
1.1739375
1.1739343
1.1739339
1.1739351
1.1739405
1.173931
1.1739223
1.17392
1.173917
1.1739175
1.1739206
1.1739299
1.1739323
1.173934
1.173924
1.1739213
1.1739194
1.1739308
1.1739274
1.1739276
1.1739318
1.1739347
1.1739277
1.1739161
1.1738989
1.1738868
1.1739576
1.1739609
1.1739411
1.1739318
1.1739301
1.1739098
1.1739061
1.1739123
1.1739108
1.1739285
1.1739284
1.1739239
1.1739033
1.1739041
1.173924
1.1739247
1.1739292
1.1739303
1.1739162
1.1739094
1.1739258
1.1739275
1.1739322
1.1739356
1.1718676
1.172673
1.1735993
1.174143
1.1743314
1.1743648
1.1742892
1.1740918
1.1737478
1.1734428
1.1741817
1.1742241
1.1742812
1.1743148
1.1743046
1.1742835
1.1742779
1.1742734
1.1742672
1.1742642
1.1742236
1.1742228
1.1742228
1.1742237
1.1742308
1.1741878
1.1741802
1.1741797
1.1741801
1.1741812
1.1741465
1.1741455
1.1741452
1.1741457
1.1741517
1.1741223
1.1741164
1.1741159
1.174116
1.1741168
1.1740932
1.1740927
1.1740927
1.1740931
1.1740979
1.1740778
1.1740738
1.1740735
1.1740735
1.1740741
1.1740578
1.1740575
1.1740574
1.1740577
1.1740609
1.1740468
1.1740442
1.174044
1.1740441
1.1740446
1.1740331
1.1740329
1.1740328
1.1740329
1.174035
1.1740251
1.1740232
1.174023
1.174023
1.1740233
1.1740154
1.1740152
1.1740152
1.1740154
1.1740167
1.1740097
1.1740086
1.1740085
1.1740084
1.1740085
1.1740029
1.174003
1.1740031
1.1740032
1.1740037
1.1739986
1.1739981
1.1739978
1.1739974
1.1739971
1.1739932
1.1739936
1.1739942
1.1739945
1.1739944
1.1739909
1.1739912
1.1739908
1.1739901
1.1739895
1.1739869
1.1739876
1.1739883
1.1739887
1.1739879
1.1739859
1.1739869
1.1739867
1.1739862
1.1739857
1.1739849
1.1739853
1.1739857
1.1739858
1.1739843
1.1739827
1.1739843
1.1739838
1.1739827
1.1739816
1.1739815
1.1739826
1.1739838
1.1739842
1.1739818
1.173982
1.1739847
1.1739844
1.1739835
1.1739825
1.1739835
1.1739846
1.1739854
1.1739856
1.1739826
1.1739832
1.173986
1.1739856
1.1739843
1.1739828
1.1739831
1.1739858
1.1739879
1.1739888
1.1739864
1.1739967
1.1739989
1.1739994
1.1739996
1.1739995
1.1740342
1.1740256
1.1740155
1.1740094
1.1740062
1.1740027
1.1740052
1.1740071
1.1740098
1.1740118
1.1740059
1.1740084
1.1740159
1.1740287
1.17404
1.1740579
1.174041
1.1740212
1.1740096
1.1740071
1.1739966
1.1739977
1.1740015
1.1740074
1.1740121
1.1739689
1.1739759
1.1739827
1.1739863
1.1739854
1.1739833
1.1739858
1.1739827
1.1739766
1.1739704
1.1739727
1.1739776
1.1739829
1.1739856
1.1739829
1.1739823
1.1739852
1.1739825
1.1739772
1.1739727
1.1739716
1.1739764
1.1739816
1.1739844
1.1739821
1.173983
1.1739852
1.1739832
1.1739794
1.1739761
1.1739826
1.1739839
1.1739855
1.1739863
1.1739844
1.1739858
1.1739875
1.1739873
1.1739867
1.1739862
1.1739868
1.1739876
1.1739884
1.1739888
1.1739875
1.1739908
1.1739914
1.173991
1.1739903
1.1739897
1.1739931
1.1739936
1.1739942
1.1739945
1.1739943
1.1739985
1.1739982
1.173998
1.1739977
1.1739975
1.1740022
1.1740023
1.1740025
1.1740026
1.1740032
1.1740092
1.1740079
1.1740078
1.1740078
1.174008
1.1740142
1.1740141
1.1740141
1.1740142
1.1740157
1.174024
1.1740219
1.1740218
1.1740218
1.1740222
1.174031
1.1740308
1.1740308
1.1740309
1.1740331
1.1740449
1.1740418
1.1740416
1.1740417
1.1740422
1.1740546
1.1740543
1.1740542
1.1740545
1.1740578
1.1740744
1.1740698
1.1740695
1.1740697
1.1740703
1.1740878
1.1740872
1.1740871
1.1740875
1.1740925
1.1741158
1.1741092
1.1741089
1.1741091
1.17411
1.1741359
1.1741349
1.1741345
1.1741349
1.1741419
1.1741752
1.1741662
1.1741658
1.1741665
1.1741679
1.1742038
1.1742026
1.1742023
1.1742028
1.1742116
1.1742572
1.1742474
1.1742445
1.1742412
1.1742403
1.1741988
1.1742233
1.1742541
1.1742725
1.174276
1.1743495
1.1742961
1.1742087
1.1740623
1.1739353
1.17374
1.1738682
1.17404
1.1741639
1.174453
1.1748248
1.1625877
1.162577
1.1623263
1.1619691
1.174002
1.1741215
1.1742921
1.1744209
1.1747717
1.174554
1.1744935
1.1744078
1.1742662
1.1741429
1.174325
1.1743489
1.1743794
1.1743979
1.1744077
1.1743458
1.1743346
1.1743316
1.1743284
1.1743273
1.1742607
1.1742599
1.1742599
1.1742608
1.1742713
1.1742193
1.1742092
1.1742085
1.1742087
1.1742098
1.1741654
1.1741646
1.1741644
1.174165
1.1741727
1.17414
1.1741329
1.1741323
1.1741324
1.1741332
1.1741042
1.1741037
1.1741036
1.174104
1.1741095
1.1740878
1.1740827
1.1740823
1.1740824
1.1740829
1.174064
1.1740636
1.1740635
1.1740638
1.1740676
1.1740529
1.1740495
1.1740492
1.1740493
1.1740496
1.1740365
1.1740363
1.1740362
1.1740364
1.1740389
1.1740289
1.1740265
1.1740264
1.1740264
1.1740267
1.1740176
1.1740175
1.1740174
1.1740175
1.1740191
1.1740122
1.1740107
1.1740106
1.1740106
1.1740108
1.1740045
1.1740045
1.1740045
1.1740045
1.1740054
1.1740007
1.174
1.1739999
1.1739999
1.174
1.1739958
1.1739958
1.1739959
1.1739959
1.1739961
1.1739932
1.1739933
1.1739932
1.1739931
1.1739931
1.1739909
1.173991
1.173991
1.173991
1.1739903
1.1739886
1.1739897
1.1739898
1.1739898
1.1739899
1.1739848
1.1739857
1.173987
1.1739876
1.1739859
1.1739835
1.173986
1.1739839
1.17398
1.1739766
1.1739707
1.1739759
1.1739817
1.1739848
1.1739818
1.1739819
1.1739853
1.1739821
1.1739759
1.1739707
1.1739701
1.1739757
1.1739819
1.1739852
1.1739822
1.1739826
1.1739855
1.1739819
1.1739748
1.1739679
1.1739672
1.1739746
1.173982
1.173986
1.1739846
1.1739965
1.1739971
1.1740007
1.1740064
1.174011
1.1740575
1.1740406
1.1740207
1.1740091
1.1740068
1.1740058
1.1740076
1.1740147
1.1740268
1.1740371
1.1740098
1.1740093
1.1740082
1.1740072
1.1740033
1.1740114
1.1740106
1.1740092
1.1740079
1.1740041
1.1740076
1.1740089
1.1740151
1.1740253
1.1740338
1.1740338
1.1740253
1.1740146
1.1740081
1.1740073
1.1739995
1.1740006
1.1740044
1.1740106
1.1740157
1.1739754
1.1739804
1.1739852
1.1739876
1.1739861
1.173982
1.1739846
1.1739821
1.1739772
1.1739723
1.1739728
1.1739769
1.1739814
1.1739837
1.173981
1.1739808
1.173984
1.1739817
1.1739773
1.1739734
1.1739733
1.173977
1.1739811
1.1739833
1.1739807
1.1739827
1.173985
1.1739836
1.1739809
1.1739787
1.173984
1.1739849
1.1739861
1.1739866
1.1739851
1.1739882
1.1739892
1.1739893
1.1739893
1.1739895
1.1739905
1.1739906
1.1739907
1.1739907
1.17399
1.173993
1.1739931
1.173993
1.1739929
1.1739929
1.1739953
1.1739955
1.1739956
1.1739957
1.1739958
1.1740006
1.1739999
1.1739998
1.1739997
1.1739998
1.1740042
1.1740043
1.1740043
1.1740044
1.1740051
1.1740122
1.1740108
1.1740107
1.1740109
1.1740112
1.1740175
1.1740174
1.1740174
1.1740175
1.1740189
1.1740288
1.1740266
1.1740265
1.1740265
1.1740269
1.1740364
1.1740362
1.1740362
1.1740363
1.1740386
1.174053
1.1740497
1.1740495
1.1740496
1.17405
1.1740641
1.1740637
1.1740637
1.1740639
1.1740672
1.174088
1.1740832
1.1740828
1.1740829
1.1740835
1.1741046
1.1741042
1.1741041
1.1741046
1.1741094
1.1741403
1.1741336
1.174133
1.174133
1.1741337
1.1741655
1.174165
1.1741653
1.1741661
1.1741731
1.1742216
1.174212
1.1742107
1.1742101
1.1742105
1.1742626
1.1742626
1.1742637
1.1742653
1.1742755
1.1743596
1.1743449
1.1743438
1.1743443
1.174346
1.1745115
1.1744835
1.1744568
1.1744431
1.1744525
1.1746788
1.1747082
1.1748121
1.1749975
1.1751735
1.1760341
1.1756167
1.1751854
1.1749376
1.1747748
1.1738237
1.1737624
1.1731254
1.1719997
1.1709843
1.1734743
1.1737615
1.1740971
1.1742887
1.1743217
1.1743287
1.1743332
1.1743
1.1742444
1.1742009
1.1742908
1.1742952
1.1743022
1.1743072
1.1743146
1.1742555
1.1742465
1.1742449
1.1742439
1.1742439
1.1741979
1.1741974
1.1741977
1.1741987
1.1742068
1.1741664
1.174159
1.1741582
1.174158
1.1741586
1.1741277
1.1741272
1.1741272
1.1741279
1.1741338
1.1741068
1.1741015
1.174101
1.174101
1.1741016
1.1740804
1.17408
1.1740799
1.1740803
1.1740846
1.1740664
1.1740628
1.1740626
1.1740627
1.1740632
1.1740485
1.1740482
1.1740481
1.1740483
1.1740511
1.1740383
1.1740358
1.1740356
1.1740355
1.1740357
1.1740264
1.1740261
1.174026
1.174026
1.1740278
1.1740188
1.1740172
1.1740171
1.1740172
1.1740174
1.1740104
1.1740103
1.1740103
1.1740103
1.1740114
1.1740052
1.1740043
1.1740043
1.1740043
1.1740045
1.1739998
1.1739998
1.1739997
1.1739997
1.1740001
1.173996
1.1739958
1.1739958
1.1739959
1.173996
1.1739931
1.1739931
1.173993
1.173993
1.1739928
1.1739902
1.1739905
1.1739906
1.1739906
1.1739907
1.1739891
1.1739891
1.173989
1.1739889
1.1739881
1.1739864
1.1739875
1.1739877
1.1739878
1.1739878
1.173987
1.1739871
1.1739871
1.1739869
1.1739851
1.1739843
1.1739864
1.1739865
1.1739865
1.1739863
1.1739865
1.1739869
1.173987
1.1739868
1.1739843
1.1739847
1.1739873
1.1739875
1.1739873
1.1739869
1.1739886
1.173989
1.1739892
1.173989
1.173986
1.1739885
1.1739912
1.1739914
1.1739913
1.1739909
1.1739957
1.1739959
1.1739955
1.1739949
1.1739926
1.1739963
1.1739981
1.1739989
1.1739994
1.1739994
1.1740022
1.1740025
1.1740023
1.1740016
1.1739981
1.1740007
1.1740055
1.1740062
1.1740066
1.1740068
1.1740148
1.174013
1.1740104
1.1740085
1.1740048
1.1740086
1.1740098
1.1740168
1.1740283
1.1740382
1.1740374
1.1740279
1.1740159
1.1740087
1.1740082
1.174
1.1740011
1.1740054
1.1740123
1.174018
1.1739754
1.1739804
1.1739851
1.1739875
1.1739861
1.1739816
1.173984
1.1739811
1.1739756
1.1739701
1.1739695
1.1739746
1.1739801
1.173983
1.1739804
1.1739802
1.1739834
1.1739805
1.173975
1.1739703
1.1739695
1.1739743
1.1739798
1.1739827
1.1739801
1.1739819
1.1739843
1.1739823
1.1739785
1.1739754
1.1739814
1.173983
1.173985
1.173986
1.1739845
1.1739876
1.1739888
1.1739886
1.1739881
1.1739878
1.1739894
1.1739897
1.1739902
1.1739904
1.1739896
1.1739926
1.1739929
1.1739927
1.1739924
1.1739923
1.173995
1.1739952
1.1739954
1.1739955
1.1739956
1.1740002
1.1739997
1.1739996
1.1739995
1.1739996
1.174004
1.174004
1.1740041
1.1740042
1.1740049
1.1740117
1.1740104
1.1740102
1.1740101
1.1740102
1.1740173
1.1740171
1.1740171
1.1740172
1.1740186
1.1740283
1.1740262
1.1740261
1.1740261
1.1740265
1.1740358
1.1740356
1.1740355
1.1740357
1.1740379
1.174052
1.1740489
1.1740486
1.1740487
1.1740492
1.1740632
1.1740629
1.1740628
1.1740631
1.1740663
1.1740866
1.174082
1.1740817
1.1740818
1.1740824
1.1741034
1.1741028
1.1741026
1.174103
1.1741078
1.1741384
1.1741319
1.1741315
1.1741318
1.1741329
1.1741664
1.1741651
1.1741643
1.1741645
1.1741713
1.1742192
1.17421
1.1742101
1.1742118
1.1742142
1.1742717
1.1742678
1.1742643
1.1742634
1.1742731
1.1743557
1.1743416
1.1743445
1.1743519
1.1743597
1.1745177
1.1744839
1.1744502
1.1744326
1.1744435
1.1746523
1.1746755
1.1747827
1.1749756
1.1751603
1.1761285
1.1756384
1.1751253
1.1748327
1.1747033
1.1745597
1.174655
1.1745865
1.1744706
1.1743854
1.1742554
1.174345
1.174449
1.1745105
1.1745176
1.1743868
1.1743878
1.1743766
1.1743586
1.1743446
1.1743211
1.1743195
1.1743195
1.1743207
1.1743297
1.1742614
1.1742509
1.1742503
1.174251
1.1742526
1.1742012
1.1742001
1.1741997
1.1742002
1.174209
1.174167
1.174159
1.1741584
1.1741585
1.1741594
1.174127
1.1741263
1.1741262
1.1741267
1.174133
1.1741061
1.1741003
1.1740999
1.1741
1.1741006
1.1740794
1.1740789
1.1740788
1.1740792
1.1740836
1.1740654
1.1740615
1.1740612
1.1740613
1.1740617
1.1740474
1.174047
1.1740469
1.1740471
1.1740501
1.1740376
1.1740349
1.1740347
1.1740347
1.1740351
1.1740252
1.174025
1.1740249
1.174025
1.174027
1.1740184
1.1740166
1.1740164
1.1740165
1.1740167
1.1740097
1.1740096
1.1740097
1.1740098
1.1740109
1.1740049
1.1740039
1.1740038
1.1740036
1.1740037
1.1739987
1.1739988
1.173999
1.1739992
1.1739996
1.1739955
1.1739953
1.1739951
1.1739948
1.1739946
1.1739914
1.1739918
1.1739922
1.1739925
1.1739921
1.1739896
1.1739903
1.1739901
1.1739896
1.1739893
1.1739883
1.1739885
1.1739888
1.1739889
1.1739875
1.1739852
1.1739869
1.1739862
1.1739847
1.1739836
1.1739752
1.1739787
1.1739828
1.173985
1.1739824
1.1739811
1.1739843
1.1739812
1.1739754
1.1739703
1.1739699
1.1739752
1.1739812
1.1739843
1.173981
1.1739816
1.173985
1.1739818
1.1739758
1.1739704
1.1739676
1.1739743
1.173981
1.1739845
1.1739819
1.173985
1.1739863
1.1739826
1.1739757
1.1739687
1.1740136
1.1740087
1.1740026
1.1739987
1.1739974
1.1740084
1.174009
1.1740206
1.1740407
1.1740578
1.1740399
1.1740292
1.1740165
1.1740091
1.174007
1.1740042
1.1740083
1.1740095
1.1740107
1.1740115
1.1740029
1.1740075
1.1740081
1.1740081
1.174008
1.1740111
1.1740099
1.1740075
1.1740057
1.1740036
1.1740069
1.1740094
1.1740156
1.1740257
1.1740344
1.1739999
1.1740001
1.1739999
1.1739994
1.1739973
1.1739862
1.1739886
1.1739876
1.1739854
1.1739829
1.1739816
1.1739834
1.1739848
1.1739853
1.1739824
1.1739815
1.1739846
1.1739842
1.173983
1.1739817
1.1739812
1.1739824
1.1739836
1.1739839
1.173981
1.173981
1.1739835
1.173983
1.1739817
1.1739805
1.1739811
1.1739823
1.1739836
1.1739841
1.1739822
1.1739845
1.1739859
1.1739859
1.1739855
1.1739853
1.1739866
1.173987
1.1739875
1.1739877
1.1739867
1.1739888
1.1739894
1.1739891
1.1739885
1.173988
1.1739903
1.1739909
1.1739915
1.1739918
1.1739916
1.173995
1.1739949
1.1739947
1.1739942
1.173994
1.1739983
1.1739985
1.1739987
1.1739989
1.1739992
1.1740043
1.1740036
1.1740034
1.1740033
1.1740033
1.1740091
1.1740091
1.1740092
1.1740093
1.1740104
1.1740177
1.1740162
1.174016
1.1740161
1.1740163
1.1740245
1.1740243
1.1740243
1.1740244
1.1740263
1.1740365
1.1740341
1.1740339
1.1740341
1.1740344
1.1740461
1.1740459
1.1740458
1.174046
1.1740489
1.1740636
1.17406
1.1740597
1.1740598
1.1740604
1.1740771
1.1740767
1.1740767
1.1740771
1.1740814
1.1741028
1.1740976
1.1740971
1.1740972
1.1740979
1.1741229
1.1741223
1.1741222
1.1741228
1.1741289
1.1741608
1.1741534
1.1741528
1.174153
1.174154
1.1741924
1.1741914
1.1741911
1.1741917
1.1742004
1.1742479
1.1742386
1.1742377
1.1742377
1.1742389
1.1742861
1.1742884
1.1742933
1.1742972
1.1743057
1.1743175
1.1743227
1.1742918
1.17424
1.174201
1.173469
1.1737541
1.1740855
1.174275
1.1743085
1.1738325
1.1737939
1.1732007
1.1721452
1.1711893
1.1719586
1.1727814
1.1737337
1.1742931
1.1744891
1.1744804
1.1743923
1.1741902
1.1738391
1.1735291
1.1742436
1.1742902
1.1743511
1.1743873
1.1743842
1.1743373
1.1743285
1.1743229
1.174315
1.1743098
1.1742555
1.1742556
1.1742566
1.1742582
1.1742683
1.1742158
1.1742064
1.1742054
1.1742053
1.174206
1.1741639
1.1741633
1.1741633
1.174164
1.1741719
1.1741382
1.1741315
1.1741308
1.1741308
1.1741315
1.174104
1.1741035
1.1741035
1.174104
1.1741094
1.1740869
1.1740822
1.1740818
1.1740819
1.1740824
1.1740638
1.1740636
1.1740636
1.174064
1.1740678
1.1740525
1.1740493
1.174049
1.1740491
1.1740495
1.1740371
1.1740368
1.1740366
1.1740367
1.1740391
1.1740285
1.1740264
1.1740261
1.1740261
1.1740263
1.1740177
1.1740176
1.1740176
1.1740177
1.1740192
1.1740119
1.1740106
1.1740105
1.1740105
1.1740107
1.1740046
1.1740046
1.1740045
1.1740046
1.1740054
1.1740004
1.1739998
1.1739998
1.1739998
1.1739999
1.1739959
1.1739959
1.1739959
1.1739959
1.1739961
1.1739929
1.173993
1.173993
1.173993
1.173993
1.1739907
1.1739907
1.1739907
1.1739906
1.1739902
1.1739881
1.1739888
1.173989
1.1739892
1.1739894
1.1739873
1.1739873
1.1739871
1.1739869
1.1739857
1.1739834
1.1739848
1.1739844
1.1739834
1.1739826
1.1739807
1.173982
1.1739833
1.1739839
1.173982
1.1739819
1.1739842
1.1739836
1.1739821
1.1739807
1.1739804
1.1739822
1.1739839
1.1739846
1.1739821
1.1739828
1.1739852
1.1739842
1.173982
1.1739796
1.17398
1.1739834
1.1739864
1.1739879
1.1739857
1.1739958
1.1739987
1.1739991
1.1739991
1.1739988
1.1740342
1.1740257
1.1740156
1.1740094
1.174005
1.1740017
1.1740042
1.1740057
1.1740076
1.1740085
1.1740056
1.1740061
1.1740064
1.174006
1.1740017
1.1739658
1.1739628
1.1739657
1.1739628
1.1739567
1.1739582
1.1739601
1.1739626
1.1739607
1.1739582
1.1739571
1.1739586
1.1739608
1.173958
1.173957
1.173957
1.1739565
1.1739576
1.1739582
1.1739587
1.1739574
1.1739571
1.1739581
1.1739582
1.1739567
1.1739554
1.1739561
1.1739567
1.1739577
1.1739581
1.1739574
1.1739589
1.1739587
1.1739591
1.1739592
1.1739588
1.173957
1.1739572
1.1739568
1.1739571
1.1739569
1.1739587
1.1739588
1.1739584
1.173957
1.1739554
1.1739531
1.1739526
1.1739544
1.1739567
1.1739572
1.173955
1.1739521
1.1739461
1.1739407
1.1739488
1.1739489
1.1739445
1.1739576
1.173961
1.1739504
1.1739484
1.1745572
1.174678
1.1750294
1.1756476
1.1762354
1.1751327
1.1749164
1.1746832
1.1745523
1.1745145
1.1743478
1.1743311
1.1743534
1.1743949
1.1744355
1.1742757
1.1742709
1.1742662
1.1742645
1.174278
1.1742226
1.1742116
1.1742105
1.17421
1.1742104
1.17417
1.17417
1.1741706
1.1741716
1.1741795
1.1741464
1.1741389
1.174138
1.1741376
1.174138
1.1741124
1.174112
1.174112
1.1741126
1.1741182
1.1740959
1.1740906
1.1740901
1.1740901
1.1740906
1.174072
1.1740716
1.1740716
1.1740719
1.1740759
1.1740606
1.1740569
1.1740566
1.1740566
1.1740571
1.1740441
1.1740437
1.1740436
1.1740437
1.1740463
1.1740352
1.1740325
1.1740324
1.1740326
1.1740329
1.1740234
1.1740232
1.1740231
1.1740232
1.174025
1.174017
1.1740151
1.174015
1.174015
1.1740152
1.174009
1.1740088
1.1740088
1.1740088
1.1740099
1.1740043
1.1740031
1.1740031
1.1740031
1.1740033
1.1739993
1.1739992
1.173999
1.173999
1.1739994
1.1739957
1.1739951
1.1739952
1.1739954
1.1739956
1.1739932
1.173993
1.1739927
1.1739925
1.1739926
1.1739904
1.1739903
1.1739906
1.1739911
1.1739915
1.1739905
1.1739901
1.1739894
1.1739889
1.1739885
1.1739874
1.173988
1.1739886
1.1739895
1.1739902
1.1739904
1.1739896
1.1739884
1.1739876
1.1739866
1.1739864
1.1739876
1.1739885
1.1739897
1.1739907
1.1739913
1.1739905
1.1739892
1.1739883
1.1739865
1.1739869
1.1739887
1.1739894
1.1739902
1.1739908
1.1739913
1.1739912
1.1739907
1.1739902
1.1739879
1.1739895
1.1739919
1.1739921
1.1739919
1.1739916
1.1739923
1.1739934
1.1739942
1.1739942
1.1739916
1.1739944
1.1739972
1.1739969
1.1739958
1.1739943
1.1739972
1.173999
1.1740005
1.1740009
1.1739975
1.1740009
1.1740049
1.1740048
1.1740038
1.1740028
1.1740364
1.1740269
1.1740162
1.1740097
1.1740058
1.1740051
1.1740068
1.1740134
1.1740243
1.1740333
1.1740173
1.1740118
1.174005
1.1740007
1.1739982
1.173988
1.1739892
1.1739875
1.1739841
1.1739803
1.1739771
1.1739808
1.1739842
1.1739858
1.1739846
1.1739842
1.1739858
1.1739846
1.173982
1.1739795
1.1739781
1.1739807
1.1739836
1.173985
1.1739834
1.173983
1.1739844
1.1739828
1.1739796
1.1739768
1.1739779
1.1739803
1.173983
1.1739844
1.1739832
1.1739835
1.1739855
1.1739845
1.1739825
1.1739809
1.1739825
1.1739837
1.1739853
1.173986
1.1739836
1.173986
1.1739876
1.1739866
1.1739848
1.1739834
1.1739868
1.1739881
1.1739896
1.1739904
1.1739899
1.173994
1.173994
1.1739933
1.1739921
1.1739912
1.1739956
1.1739963
1.173997
1.1739975
1.1739977
1.1740028
1.1740021
1.1740018
1.1740014
1.1740013
1.1740068
1.1740069
1.1740071
1.1740073
1.1740081
1.174015
1.1740136
1.1740134
1.1740134
1.1740136
1.1740208
1.1740206
1.1740206
1.1740207
1.1740223
1.1740319
1.1740296
1.1740295
1.1740296
1.1740299
1.1740394
1.1740392
1.1740392
1.1740394
1.1740419
1.1740563
1.1740528
1.1740526
1.1740527
1.1740532
1.1740669
1.1740665
1.1740664
1.1740666
1.1740701
1.174089
1.1740842
1.1740838
1.1740841
1.1740849
1.1741035
1.1741029
1.1741027
1.1741031
1.1741081
1.1741345
1.1741279
1.1741275
1.1741276
1.1741286
1.1741546
1.174154
1.174154
1.1741546
1.1741612
1.1741976
1.174189
1.1741876
1.1741867
1.174187
1.1742229
1.1742236
1.1742259
1.1742282
1.1742369
1.1742741
1.1742667
1.1742723
1.1742843
1.1742974
1.1747869
1.1746478
1.1745039
1.1744229
1.1743746
1.1743218
1.1744543
1.1746675
1.1750439
1.1754153
1.1669799
1.1670881
1.1690996
1.1718829
1.1730977
1.1758715
1.1889306
1.1887177
1.1889614
1.1893616
1.1708691
1.1718526
1.1729508
1.173569
1.1736659
1.1742129
1.1742066
1.1740328
1.1737303
1.1734705
1.1741194
1.1741552
1.1742001
1.1742267
1.1742215
1.174234
1.1742264
1.1742224
1.1742173
1.1742141
1.1741779
1.1741784
1.1741797
1.1741812
1.1741882
1.1741598
1.1741522
1.174151
1.1741502
1.1741503
1.1741206
1.1741205
1.1741208
1.1741217
1.1741276
1.174106
1.1741001
1.1740995
1.1740993
1.1740997
1.1740802
1.1740797
1.1740798
1.1740802
1.1740843
1.1740707
1.1740662
1.1740658
1.1740658
1.1740663
1.1740514
1.1740511
1.174051
1.1740513
1.1740542
1.1740425
1.1740393
1.174039
1.1740391
1.1740394
1.1740291
1.1740289
1.1740288
1.1740289
1.1740308
1.1740232
1.1740209
1.1740207
1.1740207
1.1740209
1.1740135
1.1740133
1.1740132
1.1740132
1.1740144
1.1740087
1.1740071
1.1740071
1.1740072
1.1740074
1.1740025
1.1740023
1.1740021
1.174002
1.1740026
1.1739988
1.1739979
1.1739981
1.1739983
1.1739986
1.1739962
1.1739957
1.1739952
1.1739948
1.1739948
1.1739923
1.1739921
1.1739924
1.1739929
1.1739935
1.1739918
1.1739913
1.1739906
1.1739902
1.1739897
1.1739882
1.1739885
1.173989
1.1739896
1.1739901
1.173989
1.1739887
1.1739881
1.1739876
1.1739866
1.1739859
1.1739869
1.1739873
1.1739877
1.173988
1.1739874
1.1739874
1.1739872
1.1739868
1.1739853
1.1739854
1.1739869
1.173987
1.173987
1.1739868
1.1739876
1.173988
1.1739881
1.173988
1.1739857
1.1739869
1.1739892
1.1739893
1.173989
1.1739886
1.1739902
1.1739909
1.1739913
1.1739912
1.1739883
1.1739905
1.1739934
1.1739935
1.173993
1.1739922
1.1739951
1.1739962
1.1739967
1.1739966
1.173993
1.1739966
1.1740008
1.174001
1.1740005
1.1739996
1.1740061
1.1740061
1.1740061
1.1740056
1.1740004
1.1740066
1.1740057
1.1740046
1.1740035
1.1740005
1.1739984
1.1739999
1.1740006
1.1740012
1.1740013
1.1739987
1.1739983
1.1739972
1.1739962
1.1739946
1.1739911
1.1739933
1.1739949
1.1739972
1.1739989
1.1739999
1.1739973
1.1739939
1.1739917
1.1739892
1.1739884
1.1739902
1.1739925
1.1739961
1.173999
1.1739979
1.1739952
1.1739916
1.1739893
1.1739875
1.1739872
1.1739887
1.1739912
1.1739952
1.1739985
1.1739952
1.1739928
1.1739899
1.173988
1.1739864
1.1739812
1.1739822
1.1739781
1.1739708
1.1739643
1.1739541
1.1739632
1.1739733
1.1739789
1.1739781
1.1739822
1.173983
1.1739784
1.1739702
1.1739629
1.1739923
1.1739915
1.1739911
1.1739909
1.17399
1.1739948
1.1739958
1.1739964
1.1739973
1.1739984
1.1739992
1.1739988
1.1739984
1.1739982
1.1739979
1.1740027
1.1740021
1.1740021
1.1740023
1.1740027
1.1740069
1.1740067
1.1740066
1.1740067
1.1740076
1.1740143
1.1740128
1.1740127
1.1740128
1.1740131
1.1740196
1.1740194
1.1740193
1.1740195
1.1740211
1.1740307
1.1740283
1.1740281
1.1740282
1.1740286
1.1740381
1.1740377
1.1740374
1.1740375
1.1740399
1.1740546
1.174051
1.1740507
1.1740508
1.1740513
1.1740638
1.1740634
1.1740633
1.1740635
1.1740667
1.1740852
1.1740803
1.1740799
1.17408
1.1740807
1.1740983
1.1740975
1.1740972
1.1740974
1.174102
1.1741276
1.1741212
1.1741209
1.1741215
1.1741228
1.1741474
1.1741457
1.1741447
1.1741447
1.1741504
1.174185
1.1741769
1.1741769
1.1741784
1.1741809
1.1742176
1.1742144
1.1742122
1.1742118
1.1742191
1.1742464
1.1742402
1.1742502
1.1742697
1.1742895
1.1747709
1.1746224
1.1744688
1.1743826
1.174328
1.1742581
1.1743814
1.1746117
1.1750167
1.175414
1.1668162
1.1668828
1.1694565
1.1719662
1.172943
1.1741225
1.1658374
1.1643011
1.16436
1.1640355
1.1826694
1.1830541
1.1801829
1.1772219
1.1768122
1.1753514
1.1839337
1.1858951
1.1855953
1.1856948
1.1761096
1.1755495
1.174955
1.1746174
1.1745125
1.1745164
1.1745367
1.1746561
1.1748697
1.1750691
1.1744494
1.1744087
1.1743666
1.1743441
1.1743591
1.174295
1.1742807
1.1742853
1.1742955
1.1743053
1.1742354
1.174231
1.1742267
1.1742252
1.1742348
1.1741906
1.1741819
1.1741821
1.1741839
1.1741863
1.1741488
1.1741474
1.1741466
1.1741467
1.1741534
1.1741245
1.1741182
1.1741178
1.1741181
1.174119
1.1740949
1.1740943
1.1740942
1.1740945
1.1740994
1.1740795
1.1740748
1.1740745
1.1740745
1.1740751
1.174059
1.1740587
1.1740586
1.1740588
1.1740622
1.1740484
1.1740454
1.1740451
1.1740452
1.1740456
1.1740336
1.1740335
1.1740335
1.1740337
1.174036
1.1740263
1.1740242
1.1740241
1.1740241
1.1740244
1.1740162
1.174016
1.174016
1.1740161
1.1740175
1.1740106
1.1740093
1.1740092
1.1740092
1.1740094
1.1740039
1.1740038
1.1740037
1.1740037
1.1740045
1.1739999
1.1739992
1.1739992
1.1739993
1.1739994
1.1739958
1.1739957
1.1739956
1.1739956
1.1739958
1.1739927
1.1739925
1.1739926
1.1739927
1.1739928
1.1739906
1.1739906
1.1739905
1.1739903
1.1739902
1.1739883
1.1739887
1.1739888
1.1739889
1.173989
1.1739879
1.1739879
1.1739878
1.1739877
1.1739868
1.173986
1.173987
1.1739871
1.1739872
1.1739871
1.1739868
1.173987
1.173987
1.1739868
1.1739855
1.1739857
1.1739873
1.1739875
1.1739875
1.1739873
1.1739884
1.1739886
1.1739885
1.1739882
1.1739862
1.1739875
1.1739897
1.1739899
1.1739899
1.1739896
1.1739917
1.1739921
1.1739921
1.1739918
1.1739894
1.1739923
1.1739947
1.1739951
1.1739951
1.1739947
1.1739973
1.173998
1.1739982
1.1739979
1.1739952
1.1739984
1.1740018
1.1740022
1.1740021
1.1740016
1.1740067
1.1740065
1.1740062
1.1740056
1.1740014
1.1740018
1.1740062
1.1740066
1.1740068
1.1740068
1.174002
1.1740027
1.1740029
1.1740025
1.1739989
1.1739965
1.1739992
1.1739996
1.1739996
1.1739992
1.1739957
1.1739962
1.1739962
1.1739959
1.1739931
1.1739893
1.1739919
1.1739922
1.1739921
1.1739918
1.1739892
1.1739896
1.1739896
1.1739893
1.1739868
1.1739855
1.1739877
1.173988
1.173988
1.1739879
1.1739872
1.1739874
1.1739872
1.173987
1.173985
1.173985
1.1739865
1.1739868
1.173987
1.1739871
1.1739873
1.1739873
1.173987
1.1739868
1.1739855
1.1739866
1.1739875
1.1739878
1.1739881
1.1739883
1.1739893
1.1739892
1.173989
1.1739887
1.1739881
1.1739902
1.1739904
1.1739905
1.1739908
1.173991
1.1739929
1.1739928
1.1739927
1.1739926
1.1739926
1.173996
1.1739956
1.1739957
1.1739958
1.173996
1.1739993
1.1739993
1.1739993
1.1739993
1.1739998
1.174005
1.1740039
1.1740039
1.174004
1.1740042
1.1740096
1.1740095
1.1740095
1.1740096
1.1740108
1.1740182
1.1740165
1.1740164
1.1740164
1.1740167
1.1740248
1.1740247
1.1740247
1.1740248
1.1740268
1.1740374
1.1740347
1.1740345
1.1740346
1.174035
1.1740465
1.1740462
1.1740462
1.1740464
1.1740493
1.1740646
1.1740606
1.1740603
1.1740604
1.1740609
1.174077
1.1740766
1.1740766
1.1740769
1.1740816
1.1741036
1.1740977
1.1740973
1.1740973
1.174098
1.1741222
1.1741217
1.1741217
1.1741222
1.1741286
1.1741604
1.174152
1.1741514
1.1741515
1.1741523
1.1741882
1.1741876
1.1741876
1.1741883
1.1741977
1.1742445
1.174233
1.1742322
1.1742324
1.1742335
1.1742897
1.1742888
1.1742891
1.1742903
1.1743017
1.1743432
1.1743385
1.1743284
1.1743123
1.1742995
1.1741786
1.1742644
1.1743628
1.1744216
1.174449
1.1744341
1.1744698
1.1743928
1.1742665
1.1741684
1.174556
1.1622629
1.1622389
1.1619632
1.1615516
1.1741445
1.174126
1.1741426
1.1741811
1.1744975
1.1743755
1.1743127
1.1742598
1.174175
1.1741035
1.1742523
1.1742607
1.1742721
1.1742796
1.1742938
1.1742579
1.1742467
1.174247
1.1742494
1.1742527
1.1742015
1.1741997
1.1741985
1.1741986
1.1742077
1.1741716
1.174163
1.1741625
1.1741629
1.174164
1.1741319
1.1741312
1.1741311
1.1741315
1.1741381
1.1741136
1.1741073
1.1741069
1.1741069
1.1741076
1.1740861
1.1740856
1.1740855
1.1740859
1.1740909
1.1740737
1.1740689
1.1740685
1.1740685
1.174069
1.1740542
1.1740538
1.1740537
1.174054
1.1740574
1.1740449
1.1740417
1.1740415
1.1740416
1.1740419
1.1740309
1.1740306
1.1740305
1.1740307
1.174033
1.1740242
1.174022
1.1740218
1.1740219
1.1740222
1.1740143
1.1740142
1.1740141
1.1740142
1.1740157
1.1740094
1.174008
1.1740079
1.174008
1.1740082
1.1740028
1.1740027
1.1740026
1.1740026
1.1740034
1.1739992
1.1739984
1.1739985
1.1739987
1.1739989
1.1739954
1.1739953
1.173995
1.1739949
1.1739951
1.1739924
1.1739921
1.1739923
1.1739927
1.173993
1.173991
1.1739907
1.1739903
1.17399
1.1739898
1.1739883
1.1739885
1.1739889
1.1739894
1.1739898
1.1739889
1.1739886
1.173988
1.1739876
1.1739869
1.1739863
1.1739871
1.1739875
1.1739881
1.1739885
1.1739885
1.1739882
1.1739876
1.1739871
1.1739858
1.1739861
1.1739876
1.1739881
1.1739885
1.1739888
1.1739893
1.1739893
1.173989
1.1739886
1.1739865
1.1739877
1.17399
1.1739903
1.1739904
1.1739903
1.1739915
1.173992
1.1739922
1.173992
1.1739892
1.1739915
1.1739945
1.1739945
1.1739941
1.1739933
1.1739957
1.1739969
1.1739975
1.1739975
1.1739941
1.1739975
1.1740015
1.1740015
1.1740008
1.1739996
1.1740054
1.1740057
1.174006
1.1740058
1.174001
1.1740049
1.1740052
1.1740053