/*--------------------------------*- C++ -*----------------------------------*\
  =========                 |
  \\      /  F ield         | OpenFOAM: The Open Source CFD Toolbox
   \\    /   O peration     | Website:  https://openfoam.org
    \\  /    A nd           | Version:  7
     \\/     M anipulation  |
\*---------------------------------------------------------------------------*/
FoamFile
{
    version     2.0;
    format      ascii;
    class       volScalarField;
    location    "150";
    object      T;
}
// * * * * * * * * * * * * * * * * * * * * * * * * * * * * * * * * * * * * * //

dimensions      [0 0 0 1 0 0 0];

internalField   nonuniform List<scalar> 
24789
(
299.95298
299.95578
299.95692
299.95676
299.95543
299.94505
299.94539
299.94536
299.94405
299.94106
299.92917
299.93231
299.9338
299.93404
299.93489
299.92475
299.92263
299.92217
299.9205
299.91718
299.90534
299.90876
299.9106
299.91129
299.91471
299.90486
299.90017
299.89925
299.89727
299.89376
299.88261
299.88613
299.88824
299.88937
299.89532
299.88623
299.87909
299.87775
299.87555
299.87204
299.8622
299.86564
299.8679
299.86942
299.87768
299.86982
299.86056
299.85888
299.85658
299.85327
299.84538
299.84851
299.85081
299.85264
299.86278
299.85669
299.84584
299.8439
299.84166
299.83877
299.83356
299.83614
299.8383
299.84032
299.8517
299.848
299.83632
299.83427
299.83226
299.83007
299.82844
299.83017
299.83198
299.83403
299.84576
299.84513
299.83373
299.83177
299.83025
299.82914
299.83252
299.83287
299.83397
299.83576
299.84624
299.84946
299.84054
299.8391
299.83861
299.83936
299.85055
299.8483
299.84789
299.84878
299.85486
299.86254
299.86112
299.86118
299.86297
299.86752
299.89172
299.88388
299.88005
299.87853
299.87261
299.88494
299.90191
299.90566
299.91247
299.92504
299.96832
299.94964
299.93882
299.93193
299.89917
299.91454
299.96848
299.97958
299.9956
300.02191
300.08411
300.04914
300.02691
300.01057
299.92967
299.94423
300.05627
300.07865
300.10778
300.15201
300.21989
300.16676
300.13063
300.10197
299.95694
299.96661
300.14284
300.17749
300.22006
300.28108
300.32466
300.2591
300.21198
300.17263
299.97061
299.96309
300.18324
300.2251
300.27261
300.334
300.29508
300.25302
300.21122
300.17047
299.94723
299.90337
300.09677
300.13116
300.16253
300.1758
299.87357
299.8593
299.84547
299.83267
299.77489
299.69695
299.75614
299.76797
299.78345
299.80842
299.86739
299.84493
299.82683
299.81114
299.72866
299.7078
299.74939
299.7595
299.7716
299.78789
299.78384
299.75361
299.74337
299.74021
299.68475
299.70456
299.77458
299.78495
299.79981
299.83158
299.8791
299.84708
299.82884
299.81611
299.73454
299.71292
299.8083
299.82483
299.84534
299.87641
299.98893
299.9629
299.93789
299.91531
299.79098
299.90141
300.13633
300.17264
300.2072
300.23227
300.3391
300.29348
300.24974
300.20779
299.94339
299.95992
300.21939
300.26175
300.30937
300.36897
300.35536
300.29287
300.24618
300.20652
299.96759
299.96419
300.17395
300.20911
300.25177
300.31156
300.25008
300.19694
300.16012
300.13057
299.95513
299.94297
300.08191
300.10555
300.136
300.18133
300.11095
300.07403
300.05012
300.03232
299.9286
299.91333
299.98555
299.99817
300.01608
300.04486
299.98621
299.96503
299.95248
299.9443
299.89816
299.88421
299.91014
299.91491
299.92317
299.93794
299.89998
299.89042
299.88554
299.88332
299.87205
299.86221
299.86337
299.8639
299.86643
299.8722
299.85253
299.84947
299.84861
299.84924
299.85467
299.84946
299.83984
299.83852
299.83832
299.83958
299.8314
299.83145
299.83245
299.83424
299.84644
299.84542
299.83179
299.82976
299.82822
299.82699
299.82661
299.82808
299.82989
299.83201
299.84617
299.84857
299.83427
299.83212
299.83004
299.82781
299.83128
299.83392
299.83617
299.83831
299.85239
299.85748
299.84394
299.84187
299.83951
299.83654
299.84333
299.84654
299.84894
299.8509
299.86364
299.87077
299.85902
299.85719
299.85477
299.85134
299.86053
299.86406
299.86644
299.86807
299.87869
299.88727
299.87797
299.8765
299.87417
299.87053
299.8814
299.88503
299.88723
299.88847
299.89641
299.90596
299.89951
299.89847
299.89636
299.89272
299.90463
299.90815
299.91008
299.91086
299.9158
299.92583
299.92245
299.92188
299.92008
299.91664
299.92897
299.93221
299.93378
299.93409
299.93594
299.94609
299.94568
299.94556
299.94413
299.94102
299.95337
299.95623
299.9574
299.95727
299.9563
299.94583
299.9447
299.94448
299.94298
299.93979
299.92754
299.93085
299.9325
299.9329
299.93526
299.92505
299.92126
299.92063
299.91879
299.91532
299.9032
299.90678
299.90879
299.90964
299.91498
299.90513
299.89828
299.89718
299.89503
299.89136
299.87993
299.88363
299.88591
299.88722
299.89556
299.88643
299.87669
299.87517
299.87279
299.86911
299.85899
299.8626
299.86506
299.86677
299.87783
299.8699
299.85768
299.85579
299.8533
299.8498
299.84164
299.84497
299.84746
299.8495
299.86276
299.85657
299.84249
299.84034
299.83789
299.8348
299.82938
299.83217
299.83453
299.83677
299.85143
299.84754
299.83261
299.83035
299.82816
299.8258
299.82438
299.82602
299.82795
299.83018
299.84505
299.84417
299.82982
299.82768
299.82599
299.82457
299.8287
299.82897
299.83012
299.83203
299.84503
299.84781
299.83745
299.83601
299.83564
299.83669
299.84942
299.84658
299.84586
299.84661
299.85281
299.8601
299.86051
299.86092
299.86329
299.86886
299.8965
299.88709
299.88232
299.88019
299.86963
299.88145
299.90674
299.91142
299.91956
299.93421
299.98206
299.96099
299.94853
299.94043
299.89494
299.90962
299.98086
299.99331
300.01098
300.03944
300.10299
300.06688
300.04343
300.02595
299.9241
299.93782
300.07294
300.09585
300.12528
300.16891
300.23114
300.18095
300.1459
300.11765
299.94923
299.95765
300.15581
300.18881
300.22857
300.2838
300.3169
300.26124
300.2186
300.18207
299.96052
299.9528
300.18919
300.22749
300.27056
300.32607
300.28406
300.24782
300.21056
300.17357
299.93377
299.89194
300.11057
300.14336
300.17306
300.18719
299.96353
299.93878
299.91545
299.89554
299.79314
299.66396
299.71491
299.72541
299.74264
299.77992
299.96768
299.9163
299.88623
299.86404
299.72271
299.79277
299.97773
300.00446
300.03729
300.08505
299.77788
299.74022
299.72637
299.72121
299.70904
299.81655
300.03583
300.07587
300.1235
300.18639
299.93964
299.88051
299.85011
299.83005
299.71987
299.66922
299.68945
299.69633
299.71063
299.74683
299.91849
299.90122
299.88386
299.86914
299.80529
299.90658
300.09858
300.1309
300.15945
300.1711
300.28449
300.24218
300.20095
300.1617
299.94438
299.96106
300.1724
300.21221
300.25802
300.31772
300.30399
300.242
300.19742
300.1604
299.96737
299.96359
300.13048
300.16271
300.20258
300.26003
300.20075
300.15112
300.11757
300.09108
299.95433
299.94209
300.04757
300.06818
300.09517
300.13628
300.07169
300.03915
300.01857
300.00353
299.9272
299.91156
299.96239
299.9726
299.98752
300.01216
299.96011
299.94257
299.93256
299.92635
299.89614
299.88207
299.8968
299.90002
299.90623
299.91798
299.88538
299.87817
299.87483
299.87376
299.86982
299.85995
299.85673
299.85644
299.85785
299.8619
299.84541
299.84356
299.84349
299.84468
299.85241
299.84721
299.83675
299.83505
299.83429
299.8347
299.82807
299.82876
299.83016
299.83221
299.84433
299.84342
299.83052
299.82833
299.82656
299.82512
299.82483
299.82683
299.82886
299.83112
299.84424
299.84673
299.83373
299.83148
299.82925
299.82679
299.83063
299.83346
299.83582
299.83802
299.85061
299.85578
299.84381
299.8417
299.83927
299.83615
299.84308
299.84642
299.84888
299.85085
299.862
299.8692
299.85901
299.85719
299.85474
299.85122
299.86046
299.86406
299.86645
299.86808
299.87716
299.88584
299.87794
299.8765
299.87416
299.87047
299.88131
299.88498
299.88718
299.8884
299.89503
299.90467
299.89936
299.89835
299.89625
299.89259
299.90442
299.90796
299.90987
299.91062
299.91459
299.92473
299.92212
299.92157
299.9198
299.91634
299.92851
299.93178
299.93335
299.93365
299.93502
299.94567
299.94533
299.94518
299.94372
299.94052
299.94
299.94306
299.94445
299.94455
299.94466
299.9342
299.93307
299.93276
299.93122
299.92799
299.91609
299.91943
299.92114
299.92164
299.92399
299.91394
299.91033
299.9096
299.90773
299.90427
299.89273
299.89625
299.89826
299.89921
299.9041
299.89459
299.88845
299.88729
299.88515
299.88159
299.87101
299.87456
299.87679
299.87816
299.8855
299.87697
299.86851
299.86695
299.86464
299.86116
299.85219
299.85555
299.85789
299.85962
299.86911
299.86206
299.85168
299.84981
299.84747
299.84429
299.83759
299.84055
299.84285
299.84484
299.85595
299.85094
299.83928
299.83721
299.835
299.83236
299.82873
299.831
299.83308
299.83519
299.84718
299.84486
299.83279
299.83069
299.82882
299.82701
299.82747
299.82872
299.83032
299.83235
299.84415
299.8451
299.83414
299.83229
299.83111
299.83066
299.83724
299.83664
299.83722
299.83876
299.84814
299.85338
299.84673
299.84576
299.84607
299.8482
299.86468
299.86034
299.85869
299.85875
299.86084
299.87065
299.87576
299.87716
299.88087
299.88858
299.9213
299.90897
299.90234
299.89875
299.88271
299.89661
299.92821
299.93494
299.94559
299.96404
300.01645
299.99065
299.97495
299.96411
299.91171
299.92652
300.00513
300.02112
300.04289
300.07715
300.14265
300.09964
300.07126
300.04948
299.94085
299.95337
300.09343
300.12128
300.15637
300.20798
300.26636
300.20725
300.16603
300.13252
299.96286
299.96684
300.16086
300.19893
300.24464
300.30842
300.31766
300.25797
300.21164
300.17108
299.95959
299.94276
300.15793
300.19766
300.23911
300.27891
300.15949
300.14281
300.11385
300.08188
299.90029
299.77844
299.83544
299.84854
299.86354
299.87987
299.76722
299.73825
299.72321
299.71346
299.66954
299.72676
299.82811
299.84737
299.87157
299.90542
299.89388
299.86975
299.85272
299.83871
299.74822
299.68745
299.71211
299.71402
299.72704
299.76832
299.74999
299.71395
299.70368
299.69536
299.68951
299.98529
299.94764
299.91066
299.88305
299.77858
299.81464
299.91369
299.9279
299.93997
299.94083
300.05934
300.02611
299.99519
299.96701
299.80531
299.80152
299.97522
300.00544
300.0424
300.09776
299.88749
299.84185
299.81861
299.80349
299.72284
299.68218
299.72523
299.73557
299.75182
299.78406
299.9122
299.89823
299.88279
299.86869
299.80455
299.91021
300.09615
300.12736
300.15439
300.16426
300.27211
300.23404
300.19539
300.15789
299.94799
299.96378
300.1688
300.20711
300.25077
300.30715
300.29697
300.23715
300.19408
300.15814
299.96979
299.96569
300.12932
300.16078
300.19949
300.25493
300.1973
300.14917
300.11646
300.09054
299.9562
299.94368
300.04729
300.06747
300.09385
300.13392
300.07012
300.03832
300.01818
300.00346
299.92854
299.91274
299.96262
299.97261
299.98721
300.01131
299.96
299.94281
299.93299
299.92691
299.8972
299.88298
299.89756
299.90073
299.90684
299.91839
299.88616
299.87903
299.87572
299.87464
299.87062
299.86064
299.85764
299.85738
299.85882
299.86288
299.84641
299.84451
299.84438
299.84553
299.853
299.84773
299.83753
299.83587
299.83517
299.83564
299.82895
299.82955
299.83089
299.83289
299.84475
299.84378
299.83111
299.82895
299.82723
299.82585
299.82547
299.82741
299.82941
299.83163
299.84455
299.84699
299.83416
299.83194
299.82975
299.82733
299.8311
299.83389
299.83622
299.83839
299.85085
299.856
299.84414
299.84206
299.83965
299.83656
299.84346
299.84677
299.8492
299.85115
299.86221
299.86939
299.85929
299.85748
299.85505
299.85155
299.86076
299.86435
299.86672
299.86834
299.87735
299.88601
299.87818
299.87675
299.87444
299.87078
299.88161
299.88525
299.88744
299.88864
299.8952
299.90483
299.89959
299.8986
299.89652
299.89288
299.9047
299.90822
299.91011
299.91085
299.91475
299.92489
299.92233
299.9218
299.92005
299.91662
299.92878
299.93202
299.93357
299.93385
299.93515
299.94583
299.94553
299.94539
299.94394
299.94078
299.94049
299.94359
299.94504
299.9452
299.94602
299.93566
299.93351
299.93313
299.93151
299.92822
299.91603
299.91945
299.92125
299.92184
299.92548
299.91543
299.91027
299.90944
299.90748
299.90393
299.8921
299.89572
299.89784
299.89889
299.90557
299.89602
299.88789
299.88661
299.88437
299.88071
299.86991
299.87354
299.87588
299.87736
299.8869
299.87832
299.86751
299.86583
299.86343
299.85987
299.85073
299.85416
299.8566
299.85845
299.87041
299.86331
299.85037
299.84839
299.84596
299.84271
299.83597
299.83896
299.84134
299.84343
299.85715
299.85208
299.83785
299.83569
299.83342
299.83077
299.82734
299.82957
299.83166
299.83384
299.84826
299.84587
299.83167
299.82955
299.82774
299.82611
299.82719
299.82816
299.82963
299.83162
299.8451
299.84612
299.83419
299.83247
299.83156
299.83159
299.83987
299.83852
299.83866
299.83992
299.84914
299.85439
299.84955
299.84906
299.85007
299.85334
299.8733
299.86733
299.86464
299.86397
299.86192
299.87181
299.8842
299.88666
299.89181
299.90171
299.93998
299.92487
299.91635
299.91134
299.88396
299.89796
299.94577
299.95429
299.96724
299.98897
300.0477
300.01844
300.00017
299.98723
299.91304
299.9282
300.03389
300.05207
300.0764
300.1138
300.18281
300.13748
300.10686
300.08299
299.94232
299.95436
300.13045
300.16007
300.19677
300.24934
300.30635
300.24826
300.20639
300.17161
299.96296
299.96618
300.2009
300.23968
300.28486
300.34386
300.3543
300.29639
300.25083
300.21002
299.95811
299.94079
300.19426
300.23363
300.27329
300.31108
300.20668
300.18848
300.15685
300.1227
299.89921
299.79164
299.90041
299.91986
299.94078
299.96143
299.83427
299.79886
299.77949
299.76571
299.69457
299.72183
299.80479
299.82026
299.84403
299.88924
299.90195
299.85903
299.83882
299.82551
299.73361
299.72659
299.86007
299.88386
299.91304
299.95712
299.72348
299.71259
299.70974
299.71053
299.7144
299.72764
299.80163
299.81566
299.83169
299.85238
299.81344
299.78812
299.77139
299.75862
299.69101
299.76785
299.8287
299.8419
299.85574
299.86961
300.16937
300.15327
300.12113
300.08749
299.90007
299.94587
300.16862
300.20937
300.25082
300.2921
300.33359
300.27321
300.22592
300.18399
299.96249
299.9701
300.1735
300.21306
300.26029
300.32564
300.28231
300.22115
300.17839
300.14357
299.96614
299.95663
300.10264
300.13154
300.16795
300.22149
300.15337
300.10885
300.07952
300.05699
299.94403
299.92955
300.01122
300.02776
300.05024
300.0856
300.02303
299.99648
299.98031
299.9691
299.91447
299.89917
299.93241
299.93944
299.95046
299.96947
299.92583
299.91307
299.90617
299.90235
299.88494
299.87257
299.87882
299.88043
299.8844
299.89248
299.86795
299.86327
299.86142
299.86133
299.86247
299.85477
299.84887
299.84803
299.84853
299.85092
299.8395
299.83869
299.83914
299.84057
299.84936
299.84614
299.83569
299.83393
299.83287
299.83261
299.82909
299.83018
299.83168
299.83365
299.84503
299.84565
299.83393
299.83189
299.8301
299.82841
299.82996
299.83214
299.83415
299.83621
299.8479
299.85159
299.8402
299.83817
299.83602
299.83345
299.83862
299.8415
299.84375
299.84569
299.85657
299.86264
299.85249
299.85065
299.84835
299.8452
299.85308
299.8564
299.8587
299.86039
299.86968
299.87754
299.86926
299.86772
299.86543
299.86196
299.87184
299.87537
299.87757
299.8789
299.88608
299.89517
299.88921
299.88806
299.88592
299.88234
299.89356
299.89708
299.89907
299.89998
299.90471
299.91456
299.91114
299.91042
299.90855
299.90506
299.917
299.92033
299.922
299.92246
299.92461
299.93475
299.93388
299.93361
299.93208
299.92886
299.94096
299.94396
299.94526
299.94529
299.94501
299.94468
299.9446
299.94447
299.94307
299.93997
299.92798
299.93119
299.93274
299.93303
299.9342
299.92399
299.92166
299.92114
299.91942
299.91604
299.90421
299.90767
299.90955
299.91027
299.91392
299.90407
299.89918
299.89821
299.89619
299.89263
299.88147
299.88504
299.88718
299.88835
299.89454
299.88544
299.87807
299.87669
299.87444
299.87086
299.86098
299.86448
299.86679
299.86836
299.87689
299.86902
299.85947
299.85772
299.85535
299.85195
299.84398
299.8472
299.84957
299.85147
299.86195
299.85584
299.8446
299.84258
299.84025
299.83725
299.83189
299.8346
299.83686
299.83896
299.85079
299.84702
299.83481
299.83266
299.83053
299.82818
299.8263
299.82822
299.83017
299.83233
299.84466
299.84392
299.83178
299.82967
299.82799
299.82663
299.82954
299.83018
299.8315
299.83345
299.84484
299.84779
299.8378
299.83615
299.83541
299.83577
299.84616
299.84441
299.84435
299.84551
299.85297
299.86036
299.85711
299.85681
299.85815
299.86204
299.88482
299.87786
299.87463
299.87359
299.87007
299.88197
299.89571
299.89883
299.90483
299.9162
299.95685
299.93984
299.93013
299.92411
299.89565
299.91046
299.95844
299.96834
299.98278
300.00668
300.06374
300.03221
300.01222
299.99758
299.92502
299.93895
300.0394
300.05941
300.08547
300.12498
300.18518
300.13817
300.10608
300.08058
299.95101
299.96007
300.11661
300.14727
300.18486
300.23856
300.27641
300.21853
300.17697
300.14228
299.96372
299.95614
300.15031
300.1872
300.22932
300.2844
300.25008
300.21154
300.17372
300.13735
299.93771
299.89188
300.07
300.10156
300.13041
300.14311
299.88018
299.86155
299.84579
299.83266
299.77777
299.65485
299.69053
299.69904
299.71378
299.74689
299.93994
299.9065
299.87863
299.85457
299.71836
299.79006
299.92516
299.94683
299.96877
299.98842
299.77694
299.78095
299.75794
299.71464
299.74205
299.74733
299.75688
299.78014
299.96054
299.90453
299.87448
299.85367
299.73611
299.80182
299.77808
299.76908
299.76749
299.76365
299.807
299.8477
299.86073
299.87645
299.89649
299.93251
299.92611
299.91131
299.89451
299.82905
299.79384
299.9403
299.9772
300.02659
300.10128
299.80468
299.79827
299.82801
299.82725
299.99327
299.99671
299.98846
299.99327
299.98287
299.98207
299.98541
299.98563
299.94037
299.94348
299.94492
299.94506
299.9455
299.93492
299.93347
299.93314
299.93156
299.92829
299.91629
299.91969
299.92144
299.92199
299.92468
299.91459
299.91057
299.9098
299.90788
299.90436
299.89271
299.89631
299.89838
299.89938
299.90471
299.89514
299.88851
299.88729
299.8851
299.88146
299.87079
299.87441
299.87672
299.87814
299.88601
299.87743
299.86839
299.86677
299.8644
299.86083
299.85176
299.85522
299.85764
299.85944
299.86953
299.86244
299.85141
299.84946
299.84705
299.84376
299.83696
299.84002
299.84241
299.84449
299.85629
299.85124
299.83886
299.8367
299.8344
299.83163
299.82791
299.83034
299.83251
299.83472
299.84743
299.84507
299.83228
299.83009
299.82814
299.82636
299.82641
299.8279
299.82963
299.83177
299.84432
299.84534
299.83358
299.8316
299.83029
299.82969
299.83634
299.83589
299.8366
299.83825
299.84836
299.85367
299.8463
299.84518
299.84533
299.84722
299.86347
299.85949
299.85808
299.85835
299.86129
299.87133
299.87536
299.87646
299.87978
299.88687
299.9187
299.90734
299.90131
299.89818
299.88369
299.89803
299.92735
299.93338
299.94309
299.96004
300.01042
299.98686
299.97255
299.96275
299.91366
299.92975
300.00319
300.01763
300.03736
300.06844
300.13059
300.09168
300.06601
300.04634
299.94505
299.9581
300.08872
300.11392
300.14568
300.19233
300.24729
300.19392
300.15661
300.12621
299.96774
299.97234
300.15373
300.18821
300.22927
300.28593
300.29016
300.23933
300.19872
300.16235
299.96575
299.95131
300.14887
300.18395
300.21912
300.25048
300.14075
300.12907
300.10472
300.07758
299.91023
299.78707
299.84705
299.86102
299.87663
299.89271
299.86329
299.83433
299.8144
299.79916
299.72006
299.74419
299.8267
299.8459
299.86981
299.90832
299.90078
299.84494
299.82311
299.81193
299.72177
299.97201
299.99484
300.01887
300.02023
300.27065
300.23127
300.17689
300.1304
299.83776
299.81963
299.90182
299.92017
299.93817
299.94939
300.13073
300.07418
300.02643
299.98434
299.80691
299.82214
300.08766
300.13253
300.17943
300.23021
299.91274
299.8529
299.82842
299.81517
299.7195
299.74201
299.82411
299.84229
299.8654
299.9037
299.85654
299.82865
299.80949
299.79485
299.71812
299.78543
299.84374
299.85715
299.87203
299.88707
300.13736
300.12641
300.10241
300.07538
299.90947
299.95067
300.1472
300.1821
300.21708
300.24815
300.28824
300.2376
300.19714
300.16092
299.96509
299.97185
300.15274
300.18714
300.22808
300.28457
300.24643
300.19321
300.156
300.12566
299.9674
299.95793
300.08854
300.11374
300.14548
300.19207
300.13069
300.09179
300.06613
300.04645
299.94499
299.92979
300.00347
300.01796
300.03776
300.06891
300.01096
299.9873
299.97295
299.96311
299.91372
299.89812
299.92764
299.93372
299.94351
299.9606
299.91901
299.90754
299.90148
299.89834
299.88376
299.87138
299.87546
299.87658
299.87996
299.88715
299.86362
299.85956
299.85813
299.8584
299.86129
299.85366
299.84631
299.84521
299.84539
299.84734
299.83646
299.83596
299.83666
299.8383
299.84832
299.84531
299.83364
299.83168
299.83039
299.82982
299.82664
299.82807
299.82977
299.83189
299.8443
299.8451
299.83248
299.83032
299.8284
299.82663
299.82828
299.83067
299.83281
299.83499
299.84753
299.85141
299.83923
299.83711
299.83483
299.83209
299.83757
299.84059
299.84294
299.84497
299.85655
299.86279
299.85201
299.8501
299.84771
299.84444
299.8526
299.85601
299.85839
299.86013
299.86997
299.87796
299.8692
299.86762
299.86527
299.86171
299.87181
299.8754
299.87766
299.87903
299.88662
299.89582
299.8895
299.88832
299.88615
299.88252
299.89391
299.89748
299.89949
299.90042
299.90544
299.91536
299.9117
299.91098
299.90909
299.90558
299.91764
299.92099
299.92268
299.92315
299.92546
299.93568
299.9347
299.93444
299.9329
299.92966
299.94179
299.9448
299.94611
299.94613
299.94586
299.95613
299.95762
299.95778
299.95664
299.95378
299.94461
299.94459
299.9445
299.94313
299.94009
299.92815
299.93134
299.93288
299.93316
299.9343
299.92419
299.92183
299.92132
299.91962
299.91627
299.9045
299.90795
299.90982
299.91055
299.91419
299.90442
299.8995
299.89854
299.89653
299.893
299.88192
299.88547
299.88761
299.88878
299.89495
299.88592
299.87856
299.87719
299.87496
299.87142
299.86165
299.86512
299.86743
299.86898
299.87744
299.86966
299.8602
299.85847
299.85615
299.8528
299.84501
299.84817
299.8505
299.85236
299.86267
299.85666
299.84565
299.84368
299.84141
299.8385
299.83341
299.836
299.83818
299.84022
299.85173
299.84808
299.83629
299.83422
299.8322
299.83
299.82849
299.83021
299.83202
299.83408
299.84585
299.84523
299.83384
299.83188
299.83038
299.82928
299.83275
299.83306
299.83414
299.8359
299.84631
299.84951
299.84076
299.83935
299.8389
299.83971
299.85095
299.84864
299.84817
299.84901
299.85484
299.86248
299.86133
299.86144
299.86329
299.86789
299.89202
299.88412
299.88023
299.87866
299.87243
299.88473
299.90197
299.90577
299.91264
299.92528
299.96865
299.94984
299.93893
299.93196
299.89887
299.91415
299.96851
299.97971
299.99585
300.02234
300.08489
300.04965
300.02723
300.01074
299.92915
299.94373
300.05665
300.07921
300.10859
300.15318
300.22162
300.16804
300.13158
300.10264
299.95628
299.96602
300.14393
300.17888
300.22179
300.28318
300.32694
300.26139
300.214
300.17429
299.96988
299.96264
300.18525
300.22741
300.27497
300.33566
300.29466
300.25292
300.21113
300.17007
299.94569
299.90011
300.08901
300.12295
300.15545
300.17216
299.87393
299.85947
299.84511
299.8314
299.76768
299.69174
299.76197
299.77518
299.79229
299.81794
299.85669
299.8359
299.81964
299.80533
299.7297
299.71484
299.71386
299.71355
299.71694
299.72848
299.95636
299.91288
299.88349
299.85926
299.72349
299.73253
299.82379
299.83714
299.85734
299.9001
300.08775
300.0335
299.99752
299.96808
299.79866
299.81314
300.02972
300.06925
300.11616
300.17818
300.08968
300.04135
300.00761
299.98021
299.79125
299.78911
299.92747
299.94985
299.97286
299.99518
299.91239
299.88405
299.86431
299.848
299.74944
299.71603
299.75282
299.76072
299.77277
299.79798
299.97763
299.91862
299.88628
299.86355
299.737
299.74719
299.84901
299.86993
299.899
299.95092
299.87377
299.83622
299.8136
299.79734
299.71529
299.78578
299.84933
299.86434
299.88181
299.90239
300.1502
300.13761
300.11232
300.08386
299.90922
299.95017
300.15003
300.1858
300.22233
300.25555
300.29128
300.23926
300.19811
300.16156
299.96468
299.97153
300.15245
300.1869
300.22798
300.28488
300.24565
300.19251
300.15536
300.12507
299.96702
299.95752
300.08781
300.11294
300.14456
300.19095
300.12956
300.09084
300.06529
300.04569
299.94456
299.92937
300.00273
300.01715
300.03685
300.06785
300.00996
299.98643
299.97217
299.9624
299.9133
299.89774
299.92704
299.93307
299.94279
299.95976
299.91833
299.90695
299.90094
299.89783
299.88339
299.87103
299.87502
299.87612
299.87945
299.88658
299.86315
299.85914
299.85773
299.85801
299.86095
299.85334
299.84598
299.84487
299.84503
299.84696
299.83612
299.83564
299.83634
299.83798
299.84803
299.84507
299.83339
299.83143
299.83013
299.82954
299.82635
299.82783
299.82955
299.83167
299.84411
299.84495
299.83232
299.83016
299.82824
299.8265
299.82819
299.83055
299.83269
299.83486
299.8474
299.8513
299.83913
299.83701
299.83474
299.832
299.83747
299.84049
299.84284
299.84487
299.85646
299.86271
299.85192
299.85001
299.84761
299.84434
299.85249
299.85592
299.85829
299.86004
299.8699
299.8779
299.86912
299.86753
299.86519
299.86163
299.87172
299.87532
299.87757
299.87895
299.88656
299.89577
299.88942
299.88824
299.88606
299.88243
299.89383
299.89739
299.89941
299.90035
299.90539
299.91533
299.91163
299.9109
299.909
299.90549
299.91756
299.92092
299.92261
299.92309
299.92544
299.93564
299.93462
299.93436
299.93282
299.92959
299.94172
299.94472
299.94603
299.94605
299.94581
299.95604
299.95743
299.95758
299.95642
299.95358
299.94551
299.94515
299.945
299.94358
299.94045
299.92839
299.93162
299.93319
299.93351
299.9349
299.92465
299.92204
299.9215
299.91976
299.91635
299.90443
299.90792
299.90983
299.91059
299.91454
299.90465
299.8994
299.89841
299.89635
299.89275
299.88148
299.8851
299.88729
299.8885
299.89507
299.88593
299.87813
299.8767
299.87441
299.87079
299.8608
299.86436
299.86673
299.86834
299.87733
299.86942
299.85936
299.85757
299.85516
299.8517
299.84363
299.84692
299.84934
299.85129
299.8623
299.85613
299.84435
299.84228
299.8399
299.83683
299.83144
299.83421
299.83652
299.83868
299.85105
299.84723
299.83453
299.83233
299.83017
299.82776
299.82615
299.82791
299.82986
299.83205
299.84483
299.84408
299.83152
299.82938
299.82765
299.82615
299.82936
299.82999
299.83132
299.83331
299.84508
299.84808
299.83799
299.83636
299.83567
299.83615
299.8469
299.84502
299.84487
299.846
299.85337
299.861
299.85807
299.85782
299.85925
299.86327
299.88643
299.87939
299.8761
299.87502
299.87102
299.88339
299.89775
299.90087
299.90688
299.9182
299.95914
299.94237
299.93275
299.92678
299.89767
299.9133
299.96197
299.9717
299.9859
300.00928
300.06663
300.03591
300.01638
300.00209
299.92929
299.94465
300.045
300.0645
300.08993
300.12847
300.18959
300.14347
300.11205
300.0871
299.95759
299.96736
300.12446
300.15461
300.1916
300.24454
300.28346
300.22686
300.186
300.15176
299.97173
299.96519
300.16097
300.19732
300.23823
300.28991
300.25316
300.22054
300.18437
300.14886
299.95023
299.90946
300.0815
300.10972
300.13461
300.14656
299.89682
299.87761
299.86105
299.84675
299.78527
299.71532
299.79394
299.8094
299.83086
299.86655
299.93778
299.88883
299.86163
299.84216
299.74719
299.74669
299.84141
299.85672
299.87354
299.89689
299.89465
299.86134
299.83767
299.81803
299.70428
299.78804
299.89923
299.92
299.94393
299.97047
300.22143
300.19673
300.16297
300.12757
299.8985
299.94203
300.20397
300.24521
300.28737
300.32829
300.36917
300.30873
300.26118
300.21883
299.95888
299.96663
300.20756
300.24759
300.29463
300.35708
300.3154
300.25476
300.21148
300.1758
299.96284
299.95381
300.13264
300.16285
300.20053
300.25488
300.18577
300.13932
300.10812
300.0839
299.94147
299.92715
300.03394
300.05235
300.07706
300.11515
300.04816
300.01848
300
299.98694
299.912
299.89692
299.94525
299.95387
299.967
299.98904
299.93977
299.92441
299.91578
299.91073
299.88301
299.87098
299.88352
299.88601
299.89125
299.90135
299.87277
299.86668
299.86396
299.8633
299.86121
299.85378
299.84893
299.84843
299.84947
299.8528
299.83938
299.83798
299.83812
299.83939
299.84863
299.84569
299.83364
299.8319
299.83097
299.83104
299.82635
299.82759
299.82914
299.83116
299.84473
299.84553
299.83132
299.8292
299.8274
299.82599
299.82708
299.82929
299.83137
299.83355
299.84794
299.85177
299.83755
299.83539
299.83311
299.83045
299.83567
299.83866
299.84103
299.84313
299.85685
299.86301
299.85005
299.84806
299.84561
299.84235
299.8504
299.85384
299.85627
299.85811
299.87009
299.87798
299.86717
299.86548
299.86305
299.85946
299.86954
299.87318
299.87552
299.87699
299.88654
299.89563
299.88749
299.8862
299.88393
299.88025
299.89168
299.8953
299.8974
299.89845
299.90514
299.91496
299.90979
299.90895
299.90695
299.90337
299.9155
299.91893
299.92073
299.92131
299.92501
299.93522
299.93297
299.93256
299.93089
299.92755
299.93985
299.94301
299.94448
299.94466
299.94574
299.94575
299.94463
299.94441
299.94292
299.93974
299.92756
299.93086
299.93251
299.93291
299.93527
299.92512
299.92135
299.92071
299.91888
299.91542
299.9034
299.90695
299.90894
299.90979
299.91511
299.90532
299.89852
299.89743
299.89529
299.89164
299.88033
299.88399
299.88626
299.88755
299.89584
299.88679
299.87715
299.87563
299.87327
299.86961
299.85966
299.86323
299.86565
299.86734
299.87827
299.87044
299.8584
299.85653
299.85408
299.85063
299.84269
299.84593
299.84838
299.85038
299.86341
299.85733
299.84354
299.84143
299.83905
299.83606
299.83088
299.83355
299.83584
299.83801
299.85232
299.84857
299.83406
299.83187
299.82977
299.82752
299.82636
299.82787
299.82971
299.83186
299.84621
299.84548
299.83171
299.82967
299.8281
299.82688
299.83131
299.83139
299.83239
299.83419
299.84649
299.8495
299.83983
299.83851
299.83828
299.83951
299.85246
299.84946
299.84861
299.84923
299.85468
299.86217
299.86329
299.86381
299.8663
299.87197
299.89965
299.89022
299.88537
299.88316
299.87196
299.88409
299.90982
299.91455
299.92273
299.93733
299.98558
299.96454
299.95204
299.94389
299.89801
299.9132
299.9851
299.99766
300.0155
300.04417
300.11061
300.07371
300.04979
300.03199
299.92846
299.94293
300.08188
300.10553
300.13601
300.18142
300.25096
300.19764
300.16068
300.13104
299.95521
299.96447
300.17498
300.21028
300.25311
300.31318
300.35804
300.29507
300.2481
300.20822
299.96806
299.96069
300.22193
300.26458
300.31254
300.3722
300.34537
300.29829
300.25377
300.2113
299.94425
299.90234
300.14099
300.1779
300.21305
300.23888
299.9974
299.9702
299.94435
299.92108
299.79275
299.71523
299.81573
299.83313
299.85468
299.88715
299.89145
299.85767
299.83824
299.82455
299.73769
299.70768
299.78416
299.79566
299.81207
299.84669
299.80401
299.76719
299.7543
299.74948
299.68848