/*--------------------------------*- C++ -*----------------------------------*\
  =========                 |
  \\      /  F ield         | OpenFOAM: The Open Source CFD Toolbox
   \\    /   O peration     | Website:  https://openfoam.org
    \\  /    A nd           | Version:  7
     \\/     M anipulation  |
\*---------------------------------------------------------------------------*/
FoamFile
{
    version     2.0;
    format      ascii;
    class       volScalarField;
    location    "290";
    object      nut;
}
// * * * * * * * * * * * * * * * * * * * * * * * * * * * * * * * * * * * * * //

dimensions      [0 2 -1 0 0 0 0];

internalField   nonuniform List<scalar> 
25278
(
6.7456524
6.6471441
6.6786506
6.6786385
6.5675659
6.6471617
6.7249573
6.7456388
6.7249769
6.6420725
6.6944634
6.7219561
6.6876402
6.6529826
6.0312445
6.6785653
6.6470884
6.1579604
5.7681552
6.2244171
6.4713691
6.5493226
6.6139713
6.6529913
6.5349781
6.652975
6.6139777
6.4813564
6.4220567
6.4556522
6.3645925
6.3280818
6.0400335
6.2358028
6.2647309
6.2245744
6.2532839
6.1805885
6.1520406
5.9430998
6.0683441
6.0987219
5.9875453
6.0207243
6.2144846
6.4087981
6.593025
6.5179436
6.3263452
6.2745325
6.2072287
6.1535113
5.6280063
5.8154337
6.0743713
6.1089264
6.0332886
5.9966377
5.6837472
5.8152594
5.8635474
5.7438812
5.6425435
5.9778093
5.9345406
5.898236
5.9425032
5.5835987
5.5100882
5.574973
5.1068587
5.2954777
5.5016732
5.6988663
5.8829425
6.0133459
6.2652265
6.4559094
6.549506
6.4937809
6.4461108
6.0354202
6.1607476
5.7838834
6.3920354
6.3359185
5.5762385
4.7939585
5.2854706
5.7624602
5.7988895
5.303467
5.2738513
4.3683987
4.4532407
5.3146631
5.4278151
5.8785199
5.8981497
5.4434075
5.4169808
4.5572043
4.667107
5.4527729
4.9471258
4.9373092
4.8185375
3.4769425
3.408461
2.6286903
4.3536114
4.3365653
2.6055277
2.5959725
3.5630002
3.6593598
2.588229
4.4319648
4.4610012
4.4571718
5.7817559
6.3918463
6.5674705
5.2600677
4.348756
3.3956606
2.6214562
4.3490732
5.5736012
6.3356412
6.4458857
6.4937203
6.1590281
6.0320668
5.2764196
4.7859175
4.8103011
4.3311126
2.5967672
3.4615226
3.5460898
2.5852337
2.5751869
4.4258607
4.9381554
4.9289132
5.4200604
5.3050999
4.4327066
5.2890866
6.025459
5.7560801
5.7931237
5.8739802
6.1541615
5.8941025
5.4455847
4.6482134
3.6401978
2.1635293
0.974616
0.98077664
2.1817646
3.6100602
4.9127098
4.9055492
4.4050542
4.3695977
2.4770799
2.4980274
3.5175604
2.1331776
1.0109476
0.92378399
0.33249014
0.36948136
1.0663999
1.0609771
0.38100766
0.34392385
0.92310668
1.0072335
2.1176619
3.4797414
4.5360994
5.4046887
5.4310925
4.8836986
3.5681411
2.4010568
2.4306796
4.3480537
5.7509913
4.8764362
4.3080831
4.4725178
2.3859467
0.84305697
0.31225706
0.30097845
0.84072597
2.4722717
4.5326207
5.05029
5.5675237
5.9715939
6.2362944
6.422387
6.3301414
6.3653338
6.2263079
6.0443234
6.071263
6.1010123
6.2541408
6.1826204
6.1551362
5.9485931
5.991793
6.0237542
6.1378147
6.317408
6.4927468
6.5930992
6.5130537
6.3359146
6.3132999
6.4273634
6.4089921
6.2822783
6.2940139
6.1538506
6.0500257
6.226748
6.2157135
6.149039
6.3272907
6.518103
6.4719519
6.2282215
6.2764794
6.0793388
5.8274342
5.8253101
5.8716215
6.1120371
6.038472
6.0037996
5.6987436
5.7561592
5.6585308
5.9845441
6.2099002
6.1587094
5.646887
5.9433957
5.5946613
5.531204
5.9069371
5.9488218
5.5998017
5.6545847
5.7087016
5.7993309
5.9082573
5.9405291
6.1621325
6.0946509
6.0806207
6.0304928
6.2684926
6.2881253
6.347106
6.187973
6.2513592
6.2590883
6.3239773
6.1894815
6.1792206
6.0725557
6.0897927
5.98652
6.1966289
6.1332227
6.1250442
5.8687914
5.9657554
5.8352149
5.9004308
5.9660741
6.017112
6.1095996
6.3358029
6.5128916
6.4924468
6.3168696
6.2816703
6.2939017
6.2257186
6.0481936
6.1530532
6.136069
5.9640115
6.0741709
5.9891268
5.9366715
5.9164888
5.8956252
5.7531927
5.9231389
5.6692459
5.6286745
5.3634847
5.4422706
5.0621321
5.4115639
5.6719405
5.926389
5.8861538
5.5760315
5.6322639
5.3761279
5.7074587
5.7604118
5.4525402
5.0723081
4.985317
5.3507791
4.8088906
4.9730194
4.48789
4.6072658
4.935777
5.124971
5.3185115
5.479888
5.6395768
5.7746751
5.7962242
5.7062899
5.8424022
5.8208128
5.6753148
5.5197286
5.5490506
5.6654034
5.7268088
5.7496193
5.6880582
5.8193645
5.8317496
5.9475825
5.8783764
5.8666623
5.7293814
5.7470316
5.5961246
5.7047292
5.5518238
5.5353607
5.5062628
5.3733771
5.3332912
5.1412249
5.178904
5.3501098
5.4695858
5.7291217
5.9653629
5.9897139
5.7512031
5.6925214
5.8230104
5.9390558
5.9197272
5.8995149
5.7799127
5.7999312
5.7132781
5.8477364
5.8270219
5.683577
5.5302007
5.6450467
5.6701532
5.5127734
5.4862171
5.3465302
5.3845483
5.5580008
5.5826119
5.7349579
5.8710693
5.8813797
5.9492696
5.8344602
5.7518841
5.6022701
5.7081099
5.5562014
5.5402799
5.4119926
5.4344348
5.4553932
5.5809087
5.7935631
5.8032991
6.0314922
5.9862733
5.9725958
5.8604008
5.8531169
5.7681409
5.7804954
5.9066914
5.9229906
5.9279596
5.9921178
5.8819362
5.8753789
5.7937235
5.8042882
5.662159
5.7611566
5.7511735
5.7379616
5.7271261
5.6198323
5.6347723
5.4719985
5.5895913
5.6083581
5.616321
5.5031613
5.4880748
5.648525
5.5482826
5.7116414
5.8594798
5.8431084
5.6968703
5.682407
5.6648145
5.8154676
5.8029956
5.778244
5.7539893
5.5799285
5.5184682
5.0838785
5.0952062
5.1748021
4.8736426
5.3958133
5.3232304
4.7692007
4.0986278
4.5767354
3.7907882
3.9521763
4.064249
4.666148
4.1973783
3.4047615
3.2753481
2.5194337
3.5782884
4.4625067
5.145437
4.5945252
5.0333864
5.1191634
5.2271416
4.5685742
4.3461022
4.2300035
3.162879
2.6009711
1.7824787
1.7783242
2.5760288
3.6616551
3.2109974
3.7259357
3.9172657
4.144401
4.3707537
4.5923093
4.7916473
4.9831704
5.1546974
5.3245133
5.3559449
5.1603509
5.1286285
4.9300077
4.9778997
5.1909023
5.2227255
5.3862334
5.5100637
5.3814389
5.4013859
5.2392098
5.4260247
5.4019207
5.5739039
5.4595655
5.6370356
5.7969739
5.9367221
6.1602825
6.1459531
6.0774235
6.0923079
5.8315527
5.7898562
5.9019475
5.7453602
5.5648883
5.3708575
4.8250667
5.1490893
5.0661029
4.7168682
4.3878644
4.4960337
5.1922414
5.0828788
4.9922314
4.1510781
4.2681763
3.0700523
3.5344009
4.1194151
4.6306981
4.5393399
3.7356991
4.0206977
3.1909427
3.9215124
4.031882
3.3135358
2.4155594
2.3781619
3.4586382
3.0326673
1.6332924
1.6088618
2.1574341
2.8909467
3.5960613
4.1612693
4.6475266
5.0173303
5.329124
5.642419
5.9934212
6.2671503
6.2876554
6.3468092
6.4270999
6.3129634
6.3239486
6.2586519
6.2504233
6.0715035
6.1789633
6.1893335
6.0892128
5.9854916
6.1960789
6.1865589
6.1237783
6.1323098
5.8900612
5.8641715
5.9634865
5.8314048
5.8976743
5.9645041
6.016271
6.0314504
5.9853995
5.9714774
5.9048963
5.7779379
5.8585675
5.8510132
5.7639732
5.6152961
5.7247019
5.7924728
5.8024418
5.7500179
5.8745373
5.8813436
5.9915392
5.9268978
5.9210627
5.7917464
5.8029849
5.6601974
5.7601753
5.6149372
5.6059492
5.5867682
5.7354432
5.6310962
5.467289
5.4481737
5.5769545
5.4268958
5.551541
5.5738624
5.4602398
5.4398335
5.2859825
5.2638719
5.0623645
5.2466519
5.2136269
5.1955801
5.1558408
4.9660499
4.9161302
4.6893437
4.7367907
4.9749468
4.7448962
4.6976288
4.4262397
4.4870532
4.5312897
4.7772815
5.0023222
5.2110327
5.0373676
5.2595272
5.225972
5.4291478
5.6102112
5.7704954
5.6895133
5.661413
5.4731832
5.5787165
5.398249
5.2666427
5.3050357
5.5119045
5.5420275
5.7197029
5.73494
5.8104098
5.6579314
5.5660909
5.4728596
5.6667984
5.6485234
5.6158203
5.5839179
5.503361
5.5369107
5.3113748
5.410809
5.3702521
5.2623288
4.9928802
5.1325763
5.1733018
5.0397668
4.7215833
4.8993286
5.0688416
5.0157398
5.1852067
4.9593356
4.9984192
4.803941
4.7529246
4.4485316
4.7016383
4.7508644
4.5132459
4.5615077
4.8477202
5.1074397
5.3382903
5.3680446
5.4838762
5.2883944
5.1418575
4.9858389
5.2468232
5.2119309
5.4440791
5.3491374
5.5742293
5.5940645
5.3807583
5.1239686
5.0833919
4.7723315
4.9436609
4.6390792
4.5867817
4.5352664
4.8451487
4.6543533
4.4737311
4.8591999
5.1667853
5.433944
5.696387
6.0255856
6.0436585
6.0121512
5.6951644
5.7448843
5.7839515
6.0765647
6.0872799
6.0587272
6.0474993
5.7377913
5.7709741
5.8136602
5.6112729
5.6632951
5.7265439
5.7889442
5.8575128
5.8403482
5.7682625
5.7585607
5.588507
5.676986
5.6931805
5.606936
5.6250524
5.7085299
5.7219104
5.8646609
5.7958954
5.640201
5.5602333
5.7357297
5.6736365
5.4836419
5.4618737
5.5412873
5.5205922
5.7045464
5.6924375
5.624045
5.6373349
5.4368509
5.4107624
5.4982075
5.2785982
5.3938504
5.5061303
5.5259451
5.4173825
5.2018881
5.3370618
5.3136999
5.1724687
5.0237163
5.0591105
5.3066458
5.1962459
5.1608024
4.8667727
4.819861
4.6517673
5.003973
5.2945647
5.5347955
5.5119386
5.4717906
5.4107186
5.3703928
5.0785743
5.1350482
5.2162292
5.2581499
5.1806391
5.4544794
5.4790684
5.2200008
5.1650162
5.4430004
5.4166115
5.3708256
5.3490687
5.3058798
4.9846706
5.044062
5.0738816
5.121899
5.093528
5.3958337
5.422686
5.136794
4.7709988
4.8130942
4.8959967
4.8451312
4.9577318
4.9084814
4.791689
4.737545
4.294157
4.3704784
4.5392719
4.595917
4.4310823
4.4915083
4.3627021
4.2981229
4.7581927
4.7020402
4.6570308
4.6004474
4.0882067
4.1655221
4.2347719
3.6509777
3.8554603
4.100228
4.3515036
4.2905362
3.860263
4.1807311
4.243232
3.9381297
3.999034
4.4092934
4.4657101
4.6864465
4.8873901
5.0698393
4.8299245
5.0322586
4.811891
5.0406957
5.217312
5.4050759
5.248028
5.0422589
5.0127642
5.198755
5.013838
4.7845269
4.8182559
4.5695799
4.6052369
4.8430567
5.0707674
5.2494596
5.4297964
5.4430801
5.2611819
5.0926402
5.2911779
5.2710771
5.0688547
4.8489572
4.8765903
5.0905181
5.2584723
5.0863327
5.1102588
5.3062138
5.4848814
5.645694
5.54379
5.5598141
5.4582989
5.438332
5.2276421
5.3583038
5.3777998
5.5003232
5.324211
5.4714865
5.29505
5.2850222
5.1159073
5.287413
5.4620093
5.4730134
5.2961414
5.1339609
5.3270034
5.3101146
5.1142033
4.9021838
4.9249402
5.1311646
4.9219152
5.1300909
4.9507156
5.1741922
5.1512436
5.1266113
5.0997328
4.9241597
4.9579749
4.687754
4.8946482
4.8632954
4.6470953
4.6052509
4.3519147
4.2979069
3.934446
4.2537867
4.5293903
4.791458
4.4827697
4.4357629
4.1419289
4.2010009
3.8782138
4.1993289
4.1418329
3.8041752
3.4400923
3.8187767
3.8747839
3.4954876
3.4313055
2.98275
3.0571925
3.5027838
3.561399
3.9318248
4.2484857
4.29344
4.5702747
4.3023323
3.9832177
3.6188953
3.9906069
3.6188319
4.0599131
4.1235609
4.52083
4.7316547
4.7753316
4.5762294
4.910843
4.9534394
5.2282181
5.3330012
5.356982
5.2576816
4.9922179
5.1228085
5.2510703
5.0185507
4.9889919
4.7248873
4.9231182
4.6771269
4.8972551
4.8710186
4.6375417
4.6679248
4.6956268
4.4472483
4.707142
4.4773156
4.75942
4.553375
4.8548428
4.8161849
5.0912427
4.6300031
4.6814661
4.3214399
4.2550424
4.5046164
4.4549593
4.4034418
4.0480217
4.3486304
4.6082705
4.6433795
4.3934385
4.0825718
4.3744109
4.3345206
4.0325752
3.6776538
3.7380658
4.1051473
3.7582336
4.1882107
3.8809102
4.3600486
4.7598472
5.0888186
5.3593498
5.5832431
5.566836
5.5150433
5.5333767
5.2928649
5.2580771
5.3285501
5.0471193
4.9453248
4.9925919
4.6159238
4.5527411
4.7052524
4.2919184
4.2266587
4.1634101
3.9201234
3.9876332
3.3743816
3.7282456
3.6616497
3.5989079
3.531884
4.0405284
3.7940527
3.1771137
3.2513927
3.308805
2.9957928
3.7146626
3.783131
3.6717862
4.294783
4.228995
4.7141232
4.7232216
5.0975271
5.3978569
5.6965696
6.0125332
6.2673213
6.5179589
6.4714086
6.159554
5.7732866
5.4296123
5.8807012
5.4261479
4.9243908
4.4198293
4.3876632
4.9331106
3.6480668
2.5173306
2.5308817
3.5510063
4.5687197
4.6781952
5.451209
5.9000039
6.1606031
5.4540912
4.943427
3.6623348
2.2126999
0.95190255
1.0367259
2.1606338
1.0832763
0.3913688
0.35438578
0.99732619
2.5840981
2.5949271
3.5678315
4.9355944
5.7816739
4.4579973
4.8727141
3.4677725
2.1123662
1.0706074
0.38609631
0.34865347
0.98323768
2.1561473
0.90125523
0.98743036
2.4107058
2.3758909
3.5545217
4.8780246
5.7492862
4.3397566
4.2989483
4.4638714
2.3557216
0.81944003
0.31656683
0.32311233
0.8704658
2.5220156
4.5519947
5.6323624
6.1546654
6.207328
6.2757845
6.2256528
5.8217003
6.0004659
5.9379945
5.8991493
5.9430684
5.9804842
5.6490535
5.5857842
5.5132308
5.5823963
5.6914186
5.7505401
6.035459
6.1111908
6.0766846
5.821532
5.8687356
5.9065935
6.1478281
6.326749
6.3470471
6.2876487
6.048211
6.0588938
6.0878274
6.0772291
6.0445959
6.0273931
5.9935407
5.6437216
5.7017796
5.7487855
5.786471
5.738629
5.7714716
5.8152404
5.8915628
6.132662
6.1242172
6.0932372
6.0789775
5.7953552
5.8351575
5.9393037
6.1614556
6.1875397
6.1965422
5.9862847
5.965285
5.8663982
5.63057
5.5739346
5.5211509
5.4854163
5.4629329
5.4614824
5.4805249
5.5009938
5.4823586
5.2183794
5.2430105
5.2055971
5.1790656
4.8259085
4.8661463
4.91851
4.8798215
4.4363806
4.4982079
4.4287289
4.3633651
3.7482114
3.8585935
4.0600329
4.1384164
3.5367555
3.4488737
3.8004582
3.2468948
3.6850678
3.2375474
3.1720541
3.1128705
3.5553796
3.1140536
3.0570043
3.0109409
2.555706
2.5896801
1.9511353
2.530192
2.4885529
1.9181726
1.4264531
1.4073981
2.1601084
2.9467367
2.7748962
3.5405284
3.4880254
2.7188413
1.9175809
1.9023877
1.0647874
1.0951576
0.57111423
0.89642044
1.4384517
2.0530318
2.5948895
3.0823233
3.4787037
3.8419971
4.1574545
4.4598089
4.7271071
4.7753034
5.0205349
5.2440739
5.4437083
5.6209388
5.5909428
5.4903438
5.6737862
5.6997814
5.526987
5.5547426
5.6450387
5.4712351
5.4941632
5.3017245
5.2746449
5.1323938
5.3561168
5.3248102
5.2891532
5.4136502
5.2048105
5.0468018
5.0959729
4.9403485
5.2021433
5.4312102
5.6293444
5.5992407
5.393028
5.29264
5.522505
5.5537033
5.337068
5.3717998
5.4619722
5.6602531
5.7282536
5.7420509
5.576439
5.382982
5.1631325
5.0180412
5.2688506
5.4871749
5.6761996
5.8372313
5.753544
6.0466665
6.0152486
5.9976131
5.9977454
6.2682482
6.5180707
6.6470816
6.6785534
6.7455102
6.7248882
6.6530521
6.6139739
6.549395
6.4718743
6.1585631
6.2092457
5.9065191
5.645025
5.5296722
5.5986213
5.9479037
5.9835348
5.9422068
5.5924934
5.6559066
5.7537155
6.0372657
6.2764167
6.227366
5.8248197
6.0024294
5.6950253
5.8229715
6.0780098
6.1115769
5.869599
5.9069471
5.7973378
5.7064815
5.653314
5.7026894
5.7032463
5.7432103
5.7891208
6.0785932
6.0882427
5.8167
5.8920628
5.7312713
5.7919309
5.7726009
5.7642174
5.5968137
5.6134756
5.6297566
5.6437775
5.7236701
5.8660474
5.7979594
5.7392818
5.5651891
5.54874
5.5300698
5.7103466
5.6999872
5.510448
5.4275132
5.63389
5.605735
5.5884059
5.5293889
5.4915162
5.4564408
5.2020713
5.2479104
5.1703316
5.432235
5.395678
5.1173499
4.7973066
4.9110563
5.0347411
5.1640211
4.888997
4.7150546
4.7774535
5.0784593
5.1189552
5.2370851
4.9804228
4.8237841
4.86659
5.1540678
5.3994439
5.3190181
5.5491757
5.4948808
5.4730564
5.2117929
5.2856456
5.002467
4.9566386
4.6113567
4.5480421
4.3821744
4.4548422
4.8472934
4.8965246
4.9419117
5.0427628
4.7134057
4.6631518
4.5113124
4.5664345
4.4431142
4.860719
5.1928865
5.2468161
5.2817733
5.3490978
5.5787772
5.5933963
5.6454927
5.4500354
5.4723582
5.66904
5.6778361
5.4909602
5.2697641
5.3650388
5.4634367
5.5624832
5.3824153
5.3645232
5.3456931
5.5312214
5.5139241
5.3247278
5.1912534
5.4062515
5.4271466
5.2160603
5.2389548
5.4453402
5.344003
5.3213907
5.296423
5.051261
5.0820827
4.9450315
5.2164739
5.1865198
4.9062511
4.5814292
4.7708805
4.9478632
5.1136666
5.0861365
5.0558984
4.8145502
4.8489389
4.6405996
4.9143561
4.8791481
4.8385063
4.5545777
4.4917709
4.187751
4.2451653
4.5053881
4.2146433
3.9158557
3.8433515
3.5107476
3.8938564
4.2490929
4.3101418
4.6407679
4.4283158
4.0366291
3.9598708
3.5459613
3.611126
3.9493448
3.5748205
3.1740855
3.0954742
2.6457463
3.1660143
3.6651709
3.7350529
4.2019972
3.978485
3.4198021
3.3396237
2.7472784
2.7959529
3.2202613
2.6992478
2.1631502
2.1110533
1.6256458
2.3615579
3.0654897
3.1305685
3.7827948
4.3241335
4.7596606
5.1101039
5.3933357
5.3540638
5.0568871
5.0219596
5.329844
5.3691739
5.0771278
5.1228086
5.1537901
5.4359883
5.4591753
5.4369927
5.4126567
5.4124686
5.367983
5.3288639
5.1162057
5.0298708
4.5881396
4.2251269
4.3396061
4.5553064
5.2211738
5.1385897
4.4487894
3.5567487
3.15158
2.5846814
1.7665048
1.7581211
3.1974057
3.6364035
2.5403256
2.4894743
3.2487113
4.0774288
4.7573117
5.3176503
5.0748012
5.5140533
5.5755064
5.3898514
4.8609687
5.1656398
5.0843344
4.5604903
3.7697382
3.9281708
4.0400865
3.3736378
4.1747164
4.6500061
4.777604
4.5744157
4.3491546
4.120668
3.8939243
3.7078026
3.6002635
3.6066425
4.1724304
4.2522639
4.707599
4.6570104
4.7098213
4.2468407
4.3071436
4.3830298
4.8111732
4.7629485
4.8136954
5.161794
5.2005569
5.2295142
5.4938153
5.5275825
5.5435012
5.3111376
5.3754668
5.4014745
5.6178793
5.6289112
5.4232134
5.3656428
5.5833003
5.5712812
5.3397787
5.0644396
5.1492972
5.2436409
4.9801767
5.110214
5.1363188
5.2595683
5.0305875
5.1804963
5.1601197
5.1378058
4.908734
4.8796314
4.6780882
4.7133445
4.9774548
5.0047843
4.7459017
4.9345584
4.9584752
4.7754561
4.4965308
4.7155863
4.6875246
4.6572183
4.624574
4.5889377
4.5498681
4.2629448
4.3065114
4.0187475
4.3399652
4.2942883
4.5987387
4.3620843
4.6882069
4.7304518
4.4101924
4.1522182
4.5315354
4.4816329
4.0943699
3.6720109
4.0060716
4.0594111
3.6886933
3.6320881
3.9681114
3.6242598
3.9490717
3.8953666
3.5442418
3.1978693
3.5670741
3.5027492
3.3706299
3.2635334
2.2734844
2.4454982
2.5464939
1.8510455
2.6045596
2.4995711
1.7475125
0.98746129
1.5021894
1.5043147
0.62404267
0.70654197
0.37256123
0.33271326
1.0016136
0.52422474
1.0372735
1.6119432
1.599731
0.89836108
1.0197564
0.41021484
0.78474309
0.69923499
0.3684697
0.2066256
0.22753817
0.54769281
0.21796936
0.19827996
0.19029683
0.1967397
0.20442025
0.23222821
0.38616284
0.73198458
1.6781434
3.0670236
4.1682231
5.0004793
5.0901975
5.208321
5.1219702
4.4240848
4.5336505
4.2870191
3.1110338
3.6089857
3.5226547
2.4677696
2.5232843
1.6652268
1.9551284
2.7491607
3.50896
4.1009497
4.608778
4.9888129
5.3086921
5.350596
5.3784299
5.3361637
5.0303356
5.0866673
5.0474393
4.6645556
4.7236234
4.6679902
4.1966551
4.2714355
4.1792547
4.2440242
4.3098427
4.778076
5.1406987
5.4235492
5.4483879
5.422889
5.1340358
5.1755714
5.2345104
5.4855504
5.4629123
5.4197726
5.3811805
5.4457564
5.482756
5.2347399
5.1511248
5.0957633
5.1855419
4.8895872
4.7665927
4.8203134
4.9377254
4.5856552
4.4162482
4.3393663
4.5195829
4.6965799
5.0198409
5.2806697
5.5141058
5.3854366
5.3108887
5.0708216
5.5131996
5.5751292
5.1689331
4.8563711
4.7498553
5.0870234
4.571545
4.0749021
3.7792019
3.260657
3.3906838
4.176365
4.6615776
4.0680259
3.9558692
4.5007597
4.9880802
5.3741286
5.7052941
5.9463731
6.1542102
6.3649574
6.5493327
6.5930056
6.4089397
6.4271813
6.5129943
6.5349967
6.4925829
6.4557453
6.4814729
6.4222761
6.3289315
6.0423288
6.2256602
6.2652779
6.2537963
6.1817137
5.9901946
6.1002025
6.0699928
5.8864534
6.014372
5.926361
5.7583718
5.4510806
5.6724582
5.6331513
5.5743536
5.9730454
6.2361516
5.5764591
4.818774
5.3565469
5.415426
5.0738117
4.6179824
5.0730299
4.9870274
5.3746324
5.6338422
5.6725724
5.9261681
5.885847
5.7060609
5.7587277
5.4505785
5.4862131
5.7294678
6.07494
5.9654398
5.8988512
6.0224747
6.2152961
6.2263404
6.2939462
6.3172603
6.2818192
6.13721
6.1537595
6.0491856
6.0720518
6.2509029
6.2587872
6.3239495
6.33586
6.3127552
6.1792591
6.1893219
6.0891548
5.9224424
5.8592107
5.7913682
5.7301056
5.6674474
5.6157759
5.5682569
5.5364183
5.516797
5.5156615
5.5328643
5.5637692
5.5780851
5.62369
5.4142123
5.3882222
5.3262013
5.3551639
5.311938
5.5485319
5.5322993
5.2896742
5.2556264
5.2790876
4.9692318
5.0379704
5.127535
5.1635483
5.0804026
4.7399655
4.8619331
4.8116676
4.6779811
4.5689953
4.6390161
5.0165312
4.9838206
4.9324783
4.5103265
4.5848291
4.0366626
4.1339295
4.3066226
4.4963711
4.4283444
4.2209437
3.6367422
3.9653488
4.053639
3.7469901
3.4276803
3.305166
4.0344606
3.9424193
3.8344749
3.0110627
3.2033195
3.1201346
3.0517515
2.867195
2.8160193
3.6028187
3.6284068
3.5633822
3.7090775
3.6488507
2.9715121
3.036701
2.8099349
2.85663
2.9127141
3.6976196
3.8484291
4.3991057
4.8327902
4.7790941
4.3345587
4.4773941
4.8725545
5.1952185
5.2753611
5.5213279
5.542671
5.3095303
5.030024
4.9214733
4.536682
4.6940798
4.640525
4.9851669
5.1085799
5.3638328
5.5828747
5.546283
5.6247728
5.5934418
5.3860955
5.4250609
5.3265925
5.0653712
5.1945431
5.1547282
4.8786504
4.9303677
4.7604558
4.8098408
4.8552633
5.1456266
5.3939372
5.6008722
5.6735547
5.6558676
5.4571066
5.4835268
5.573637
5.7394734
5.7254291
5.6959147
5.6694639
5.7513713
5.7762456
5.6186825
5.5222929
5.4844824
5.587633
5.4109347
5.283592
5.320506
5.4402975
5.2416474
5.0908033
5.0398344
5.2016389
4.9804844
4.7849805
4.57938
4.3481148
4.1083138
3.8627648
3.9278272
4.169205
3.6969663
3.3575327
3.2743661
3.6240397
3.1256864
2.678971
2.2591189
2.2802656
1.9476387
1.1044037
1.1277244
1.5366833
1.5377102
1.5390372
2.3161246
3.0950509
3.7761457
3.9950463
4.0635572
4.2951132
4.2324047
3.7630929
3.4236891
3.4956139
3.1620933
2.3607943
1.9730176
1.9087876
2.1964909
2.6763576
3.1750955
2.6223387
2.5731901
1.964205
2.62852
2.1755414
1.902522
1.0222164
1.3824323
1.3547163
1.9818501
2.0063704
2.7358358
2.8116584
3.328527
2.750033
3.308795
3.3871614
3.8340941
4.1626429
4.4356333
4.1298957
4.4112892
4.1310371
4.420351
4.3844581
4.3465661
4.0658625
4.3825758
4.422921
4.1110846
4.1544207
4.460131
4.211736
4.5430654
4.8433005
4.8078707
4.5003194
4.4559682
4.2088064
4.2653605
4.6279551
4.6732733
4.7153723
4.8751289
4.5823499
4.3738448
4.3199756
3.9250778
3.8594911
4.1613914
4.1110101
3.7443248
3.7998024
3.4264362
3.3579838
3.7948824
3.7323703
3.2937622
3.2329233
2.7531079
3.28306
3.7980407
4.2624719
4.3206057
3.862495
3.5501608
4.1051689
4.0411685
3.482029
2.8497807
2.9111151
3.3485234
2.8120065
2.2406754
2.1973521
1.6325157
2.4211104
3.1874007
3.846928
3.9129769
3.2511128
3.0429746
3.7877256
4.3669929
4.4293713
4.5023601
4.6208852
4.7607225
5.0807035
5.1157673
4.8064771
4.6746623
5.024694
4.9839594
4.9076597
4.9531571
5.2621256
5.5112673
5.4914513
5.4725421
5.4727078
5.7422531
6.04953
6.0495362
6.0597179
5.7736105
5.5410383
5.5546177
5.3225796
5.2940338
5.2693264
5.5223557
5.5369279
5.2989311
5.0015333
5.0376614
5.0999358
5.1795394
4.8916518
5.0121545
5.042639
5.1594426
5.2788867
5.3982274
5.5176744
5.635865
5.8389151
6.1511586
6.3781979
6.5443688
6.5861515
6.6944636
6.7335112
6.7577894
6.733501
6.6389202
6.6863205
6.6420903
6.5444477
6.5635398
6.3940451
6.3780255
6.3450187
6.4631949
6.4783595
6.3681308
6.351616
6.2199916
6.2136778
6.1075175
6.2820172
6.2861343
6.1213052
6.1372087
6.2409222
6.2490909
6.3776335
6.312008
6.3062029
6.2451029
6.4001591
6.5770825
6.6229364
6.4377377
6.5144381
6.5956402
6.6182365
6.4552401
6.4363738
6.3981448
6.4041469
6.2786671
6.2724221
6.1666852
6.3334908
6.3362166
6.179446
6.1955757
6.2999972
6.4196235
6.5337081
6.4236344
6.3087014
6.3562606
6.3548665
6.2905375
6.4566346
6.2882626
6.0931964
6.0786201
6.2733425
6.2713374
6.2504337
6.0511259
6.1504267
6.0537163
6.098851
6.1777887
6.3938727
6.5634589
6.4782786
6.4630376
6.3449421
6.351782
6.286188
6.28175
6.1073365
6.2136929
6.2197918
6.1212904
6.1373976
6.3063816
6.3680831
6.3776718
6.3120223
6.1509352
6.2489543
6.2406954
6.0870884
6.0658772
6.0546758
6.0054795
6.0100513
5.9460425
5.9417795
5.8153237
5.8968953
5.9010858
5.8244148
5.8353184
5.9596273
6.0211947
6.0260177
5.9632782
5.8436737
5.9186156
5.9139162
5.7942157
5.8437741
5.837974
5.7756466
5.7828122
5.6846692
5.6729495
5.5161007
5.6347324
5.6398245
5.5283953
5.5411875
5.6955006
5.7061407
5.801681
5.6605221
5.6545751
5.514475
5.6215986
5.8437394
6.0660716
6.0546776
6.0058511
6.0102723
5.9016045
5.8971668
5.8162316
5.9425474
5.9461899
5.8248961
5.8354502
5.9144602
6.0213037
6.0261056
5.9189601
5.8436367
5.9631466
5.9594512
5.8993225
6.0208735
6.2247161
6.3855989
6.2201011
6.0049892
5.9137136
6.1600485
6.1628097
5.9306133
5.9476653
6.0365613
5.9168974
5.9768412
6.038424
6.0867002
5.8762323
5.880859
5.8317351
5.9490537
5.9363701
6.0421475
5.9798236
5.8616168
5.8535567
5.9329319
5.8153871
5.8017863
5.7940838
5.7834129
5.775937
5.6744469
5.685335
5.5294043
5.6404511
5.6558601
5.6611657
5.552874
5.7058652
5.6957731
5.5413019
5.3710282
5.5146001
5.4993386
5.6046336
5.4906086
5.4986141
5.355935
5.3408538
5.1505122
5.3197039
5.3259399
5.1665539
5.1830286
5.3698364
5.3826765
5.5519661
5.5643176
5.7165954
5.8537328
5.9766837
6.0383291
6.0425674
5.9795654
5.8615235
5.9363205
5.9326348
5.8152363
5.8760639
5.8808476
6.0986425
6.0535217
6.0579354
5.9954628
5.992224
5.871056
5.9489343
5.9531668
5.8784695
5.7444761
5.8385654
5.8311517
5.8212549
5.7255156
5.5738259
5.6815927
5.6777639
5.5381329
5.6485499
5.6625738
5.5579476
5.6957038
5.7004952
5.5939148
5.5839334
5.7346744
5.6424765
5.7943829
5.93258
6.0510467
6.2503487
6.4000001
6.577033
6.6228725
6.6863102
6.5955667
6.5142739
6.3980121
6.4362193
6.4038705
6.3359323
6.3334299
6.1665626
6.2724167
6.2783699
6.1790947
6.2186466
6.1205397
6.1308085
6.0838832
6.0735136
6.0699974
6.0082236
6.0103974
5.8949041
5.9696046
5.9667396
5.8875954
5.7539769
5.8514567
5.913126
5.9170415
5.8666246
5.9813749
5.9845552
6.0869609
6.0236566
6.0220834
5.9033545
5.9096911
5.7787332
5.8726301
5.7375985
5.733794
5.7202827
5.8568369
5.7620819
5.6135161
5.6041754
5.7171039
5.579761
5.6884672
5.9131927
6.1205472
6.131206
5.9173613
5.8668123
5.9815956
6.083877
6.07347
6.0700448
6.0577697
5.9533065
5.8789114
5.9954131
5.9923439
5.8707899
5.7356089
5.7255666
5.8210818
5.6821772
5.6782531
5.5643685
5.716273
5.622945
5.7766692
5.7663145
5.9032313
5.8389165
5.8349806
5.8196921
5.8855294
5.880767
5.7361504
5.7463778
5.6689744
5.6569375
5.8151408
5.7569334
5.7626467
5.594113
5.5804496
5.5093534
5.6981654
5.7041251
5.5241154
5.5392818
5.6072387
5.6805733
5.7567482
5.6009757
5.5887206
5.5760754
5.4792474
5.4936129
5.2959833
5.4124153
5.4261546
5.4383468
5.6113028
5.5195931
5.6905409
5.6183332
5.7827884
5.7776961
5.7219444
5.7260921
5.5511811
5.3463942
5.4296084
5.4155521
5.5063
5.3114179
5.325481
5.2157182
5.198581
5.1799016
5.4001071
5.3833574
5.2920765
5.3122674
5.0683861
5.0914968
5.3295611
5.2534159
5.4784559
5.676308
5.859898
6.1194655
6.3308523
6.3424306
6.1420153
6.1853618
6.1884429
5.9618444
5.8928189
6.1451788
6.1181936
6.1155638
6.0918949
6.0890664
6.1157394
5.8405822
5.8004758
5.820767
5.8396624
5.8775161
5.6985139
5.7424233
5.7974087
5.8534539
5.8562607
5.9205331
5.7853991
5.710473
5.7011448
5.530855
5.5416523
5.6325792
5.4615872
5.5738497
5.584757
5.6959666
5.7009463
5.8385767
5.744266
5.5940655
5.4280794
5.5644757
5.5578347
5.5442913
5.5382422
5.5222045
5.3517833
5.3466748
5.3260466
5.3203357
5.491081
5.3433808
5.356581
5.1678384
5.1520322
4.9462607
5.1529738
5.1655885
4.9628879
4.943297
4.7209357
4.7435564
4.9643335
4.982403
5.183717
5.3465144
5.351739
5.5209803
5.196403
4.996871
5.1937722
4.9974676
5.1965308
5.3828021
5.3956357
5.4061912
5.2222189
5.3752098
5.3719446
5.2101014
5.0120643
5.2105235
5.3721868
5.3752455
5.5435418
5.406202
5.3946612
5.2106292
5.2221023
5.2346044
5.4173107
5.4278404
5.5638396
5.3970666
5.3933283
5.234595
5.3939765
5.397171
5.2453338
5.2341319
5.4170511
5.282877
5.4721433
5.6425581
5.7947108
5.9327063
5.9364935
5.8028025
5.7285616
5.8719241
5.8696914
5.7197518
5.5517849
5.5615834
5.651868
5.4826103
5.3730103
5.3617055
5.3503908
5.3382464
5.4495649
5.2584327
5.2449556
5.2309572
5.2157791
5.1988835
4.980176
4.9993613
4.8271216
5.0732992
5.0525076
4.8020494
4.5282484
4.7409351
4.7638514
4.5101591
4.4827742
4.4528934
4.1949854
3.9085424
4.2577337
3.988698
3.5684147
3.4963808
3.8541485
3.4845337
3.8274459
3.7781732
4.087734
4.0440323
3.9976634
3.6546567
3.6000841
3.2550998
3.3110134
3.676488
3.3100851
3.2525215
3.1939645
3.1373359
2.7513756
3.1194766
2.7223466
2.7848684
3.1374041
2.655087
2.3063033
2.2376645
1.9240888
2.3673351
2.4197468
2.8152199
2.3691914
2.7523321
2.6890797
2.2985265
1.9520715
2.0083326
1.6300309
1.9804327
2.0299404
2.3568203
2.7077305
3.1959547
3.2534743
2.7628318
2.4098888
2.8989969
2.8413875
2.4756791
2.8727338
2.9297894
2.4750368
2.8658633
2.8079136
2.4204707
2.0578736
2.109345
2.5317066
2.0812063
1.719236
1.6728329
1.2355207
1.513205
1.7788395
2.1149562
2.0792606
1.4451662
1.1337955
1.743983
1.712187
1.1144656
0.62522462
0.59668213
0.85516557
0.51419249
0.28827136
0.32420909
0.22701221
0.5053177
0.92219615
1.4475378
1.4769445
0.94111767
0.7606863
1.2035182
1.1696849
1.5714882
1.1888146
1.4949372
1.7985422
2.1838749
2.2195724
1.8348123
1.2325388
1.6107799
1.5923034
1.2088194
0.97509569
0.99475903
1.5250906
1.2230642
0.78998394
0.76791263
0.44055706
0.54400881
0.69499795
1.0373875
1.0042639
1.6291686
2.3836752
2.0951712
2.9382197
3.6604188
3.7220133
2.9861647
2.1107936
2.1341715
2.4654732
1.6413642
1.1802319
1.2051471
1.2341761
1.2506588
2.0951692
2.8750396
2.8659474
2.9270653
3.6531886
4.242033
4.7066933
5.0751651
5.0194283
5.053065
5.3516661
5.3907755
5.1060186
5.1505472
5.120709
5.1604537
5.435553
5.4570703
5.4328877
5.4703634
5.7513731
6.0458674
6.0142351
6.0291027
6.0801848
6.3270904
6.3471738
6.2878998
6.0594599
5.7730726
5.8157042
6.0877195
6.077808
5.7871785
5.8675459
6.1246898
6.093705
5.8356905
5.9393738
6.1615533
6.1477652
6.215487
6.4090297
6.5930019
6.4272309
6.2511383
6.1874759
6.1965039
6.132627
5.8912109
5.9857352
5.9650292
6.0718744
6.0486339
6.2258782
6.2940585
6.3172092
6.2818735
6.2537582
6.1816268
6.3648143
6.3294325
6.0423354
6.1542651
5.9463788
5.9899695
6.0998782
6.2643193
6.2252605
6.0694308
5.884585
5.7036939
5.5699137
5.3684054
5.4462142
5.7570278
5.9248357
6.011419
5.6277196
5.667832
5.4042231
5.0606881
4.9723216
4.7912361
4.4664062
4.5877633
5.0476969
4.9565862
5.3416891
5.6227933
5.5578555
5.968582
6.2353653
6.481334
6.4222578
6.4557442
6.4926418
6.5349567
6.5129311
6.3358291
6.3129369
6.3238843
6.2587042
6.0890553
6.1893348
6.1788173
6.1531629
6.1370081
6.0219254
5.825344
5.7511858
5.6703133
5.5957308
5.5182291
5.4523913
5.3919501
5.428287
5.1636547
5.1106862
5.1948726
5.2414092
5.4877831
5.5256831
5.5460006
5.4914129
5.2420072
5.1886486
4.8536721
4.8107042
4.7596765
4.3020573
4.3622417
4.4298624
4.3707002
4.8036939
4.7519819
4.7006417
4.6535988
4.1671542
4.2411103
4.31164
4.4385722
4.8369112
4.7862937
4.3653585
4.5322117
4.8999846
4.9459945
4.5947534
4.6475572
4.4947007
4.8859988
5.2048388
5.2800767
5.312691
5.0333502
4.9316036
4.5499998
4.6970979
4.7457612
4.6048585
4.4890749
4.4238881
4.8600936
4.862322
4.9106739
5.2341771
5.2341259
5.4905327
5.5093681
5.4912841
5.2262155
5.1980173
5.259227
5.2919317
5.2678765
5.5218062
5.5363654
5.2978851
5.320193
5.5528507
5.5385626
5.5695616