/*--------------------------------*- C++ -*----------------------------------*\
  =========                 |
  \\      /  F ield         | OpenFOAM: The Open Source CFD Toolbox
   \\    /   O peration     | Website:  https://openfoam.org
    \\  /    A nd           | Version:  7
     \\/     M anipulation  |
\*---------------------------------------------------------------------------*/
FoamFile
{
    version     2.0;
    format      ascii;
    class       volScalarField;
    location    "290";
    object      omega;
}
// * * * * * * * * * * * * * * * * * * * * * * * * * * * * * * * * * * * * * //

dimensions      [0 0 -1 0 0 0 0];

internalField   nonuniform List<scalar> 
25278
(
155.26586
148.9271
148.34554
148.34553
142.91825
148.92687
155.63969
155.26592
155.63957
155.71051
154.54054
154.03235
150.89227
147.28594
153.60416
148.30394
148.91329
154.85803
165.04149
157.10686
151.25127
149.52386
148.018
151.46467
154.01223
151.4647
148.01798
151.21383
151.9297
153.30798
155.89739
154.48054
162.70762
157.08263
158.68779
159.54288
159.99853
162.30473
161.79099
168.37596
164.34451
164.8414
168.49838
168.77428
162.34799
156.71621
152.84859
154.50315
158.9084
158.29049
160.05313
158.93338
174.68957
169.19506
164.02992
164.4364
166.62696
166.24516
176.42085
172.34789
172.44904
176.18367
179.32309
168.19942
167.99004
169.03094
169.20072
181.16311
181.84269
179.7944
196.58726
189.90522
182.86158
176.30279
170.10727
166.26873
158.68278
153.3058
149.52022
147.08829
144.07512
153.51314
154.8033
164.66492
149.31606
146.39545
165.20999
188.31432
172.68302
159.54294
161.39385
175.4718
173.02922
204.64428
205.34302
175.13643
174.63449
161.64171
164.16268
177.77334
174.93928
205.37774
205.41908
177.5158
194.66012
190.6261
191.37333
253.8945
252.34407
312.28088
204.79446
210.08701
323.40924
333.79682
254.55496
254.87957
344.71384
215.29031
208.84294
209.0104
164.71564
149.31269
142.90631
173.43099
205.5097
253.25559
313.0854
204.99698
165.27816
146.39429
144.06007
147.06834
154.82459
153.57554
172.95603
188.61693
191.68954
210.3417
324.43109
254.99864
255.75538
335.10668
346.36113
215.57423
195.00379
190.94371
174.86923
175.43563
206.25064
175.91345
153.71155
159.68996
161.52922
161.74442
154.91994
164.25663
177.73956
206.25071
256.22153
393.01376
711.73207
707.73902
389.64129
257.93521
195.84555
191.71234
211.15092
217.97119
357.94426
344.8442
257.43395
385.06779
658.45098
736.62823
1259.1104
1093.9016
635.55294
638.50029
1074.3455
1232.832
738.16335
660.89635
387.87036
260.09798
206.31005
175.31178
178.16567
196.9778
260.88328
368.24542
353.37379
213.72214
165.48726
192.80216
220.91643
218.11658
382.30113
831.23166
1437.3268
1473.5154
831.01214
369.93311
215.32907
194.72107
177.08282
164.60358
157.07659
151.92635
154.44563
155.89125
159.51632
162.62367
164.28813
164.79973
159.9915
162.27867
161.74217
168.26242
168.41612
168.72202
164.7599
159.29855
154.30845
152.84736
155.97601
160.82015
161.27328
158.32836
156.71959
160.15609
160.89815
165.38384
168.99304
163.0896
162.33891
164.34964
158.90164
154.5046
151.24365
157.03975
158.26558
163.94003
168.91922
172.11768
172.27253
164.39193
166.53679
166.10735
176.05263
175.89507
178.92277
168.07163
160.01565
158.83742
174.21371
167.80695
179.27858
181.27692
168.85241
169.08513
180.75195
180.45262
178.78017
175.96935
172.52201
172.62271
165.04954
167.02187
166.345
167.76318
160.43818
161.94662
160.4371
165.18725
163.29244
164.05125
162.00105
166.2078
165.53332
169.23495
169.5983
172.96461
165.9016
167.71753
167.0069
175.80373
172.75463
177.69484
175.39908
172.91165
170.87462
167.67781
160.81789
155.97732
154.31217
159.30573
160.15833
160.88897
163.09638
169.01603
165.38862
164.7889
170.45512
166.72343
170.84603
172.84871
172.97299
172.89285
176.4041
170.50123
178.94984
178.3985
187.8008
187.22499
201.34045
188.09101
178.88275
170.42838
170.0385
176.85545
178.30382
187.42358
176.09038
176.23135
186.92801
200.98738
201.85491
188.05383
204.2569
202.293
222.70892
220.19206
208.48433
200.83624
193.47108
187.54463
181.86463
177.1583
177.25586
180.63822
175.72294
175.63257
180.86974
186.4325
186.29134
181.85883
178.49649
178.99532
181.66513
177.04455
177.19442
173.05305
175.64604
175.47548
180.47354
180.40649
185.82718
181.66693
187.09617
187.09678
187.52663
192.70072
193.24175
200.49435
200.01744
193.27966
187.76987
178.43993
170.43435
170.84577
178.95929
181.55378
176.96504
172.80918
172.91052
172.81368
177.03607
177.1769
180.46874
175.60785
175.49276
180.66394
186.1413
181.72745
181.74079
187.33955
187.36777
192.83092
192.35959
186.04681
185.82725
180.34387
175.38448
175.59412
173.03218
177.14152
180.29719
185.66754
181.58629
186.97548
186.95831
192.0193
191.73977
191.43277
186.51979
178.45493
179.02927
171.37385
173.14726
173.18056
177.1743
176.94317
180.20026
180.21736
175.66166
175.52337
175.80075
173.41906
177.30103
177.07351
180.17638
180.22379
185.24657
181.48598
181.38902
181.45501
181.3552
185.50717
185.41275
191.25248
186.67749
186.39457
186.54136
190.89699
191.05841
185.32987
189.03735
183.14085
177.7377
177.8974
183.24802
183.31852
183.46886
177.92543
177.78665
178.0561
178.02004
182.45005
182.4003
193.60279
197.72462
197.24306
208.99189
188.75153
189.06807
210.58343
242.19694
218.83887
253.25465
249.67672
246.70217
217.78849
240.17628
288.78691
294.75128
372.19981
274.15042
224.04266
195.31735
212.77463
199.436
198.53272
194.63887
222.0537
232.63529
235.46741
307.02248
353.88731
506.85826
518.36601
370.92264
272.22745
307.32818
271.36607
259.02078
245.86138
234.06781
223.57886
214.84406
206.88873
200.03754
193.28625
193.09921
200.48568
200.71514
208.87943
207.93498
199.6106
199.07465
192.60375
187.6882
192.7512
192.6033
198.94071
191.99195
192.3275
186.06715
190.32564
183.8196
177.91563
172.68703
165.0697
164.39836
166.38619
167.04851
175.99754
176.18036
172.65249
178.22405
182.85433
189.48523
210.85191
198.09781
198.71965
212.65183
227.44602
225.25893
195.75584
199.74164
200.854
239.45023
236.43375
320.09151
281.13422
244.29033
219.2809
220.45149
256.57496
246.42653
301.7072
251.43122
248.49054
295.95616
392.9113
391.69811
282.70433
318.84233
546.41841
565.75655
444.22745
341.91061
280.32537
244.86839
220.51101
204.56474
192.19114
180.74311
168.75193
160.44975
161.94296
160.43337
158.32872
161.27084
161.99259
164.04763
163.29883
169.23985
165.52515
166.1989
169.5926
172.96122
165.89517
165.19985
167.01001
167.71736
175.92152
175.8887
172.77942
177.76485
175.4465
172.93125
170.88325
171.36226
173.14977
173.18901
175.68281
180.26051
177.20479
176.98021
180.28959
185.61714
181.4084
178.47781
179.0466
181.40525
177.07763
177.29737
173.41406
175.80277
175.54924
180.20398
180.23284
185.27897
181.49814
186.56997
186.45748
186.75053
181.51294
185.4959
191.3792
191.64337
186.6288
192.09214
187.12655
187.20628
191.71229
192.07982
198.04254
198.46006
206.18442
198.80926
199.64003
199.75977
200.64153
208.37661
209.40572
218.96388
217.92252
207.93147
217.58719
218.61851
230.87882
229.05935
227.69046
216.87026
207.60341
199.47482
206.36736
197.78285
198.35443
190.74285
184.10117
178.23637
180.98473
181.06002
188.04677
184.32014
190.90031
195.76578
195.31529
187.57451
187.16997
180.53686
180.59525
178.03064
183.63345
186.86689
190.10344
182.86076
182.90305
183.44589
183.63874
186.31705
186.05849
194.62141
191.1163
191.66544
195.50018
206.14977
200.77074
200.20946
205.29561
218.70002
211.22586
204.44599
205.53515
198.9173
207.77042
207.22548
215.2675
216.41035
230.07093
218.53259
217.43991
228.09416
226.5604
214.12522
203.63298
194.77419
194.22334
189.99174
197.23797
202.83466
208.93415
198.66082
199.43224
190.58687
193.90747
185.34564
185.24645
193.30373
203.23644
204.27734
217.20906
210.11243
223.14202
224.80915
226.11484
212.45425
220.62185
228.91889
211.50254
198.96514
188.63788
179.07228
167.84683
168.41974
169.30347
180.1836
178.66123
178.33427
168.32448
168.96281
169.74835
169.13187
179.73089
179.50239
178.22506
185.82437
184.15247
182.1103
180.06392
177.75724
177.93924
180.3736
180.2284
186.54423
183.43919
183.31659
186.33231
186.10065
183.19347
183.13056
177.95786
180.26239
185.96445
188.68625
182.23126
184.22922
191.27547
191.66896
188.96695
189.30268
182.47904
182.41485
184.6431
184.66417
192.1741
192.68084
189.66556
197.92889
193.74129
189.6588
189.37704
193.30293
201.38282
196.29362
196.74834
202.10336
207.85829
206.84598
197.2989
201.32544
202.27145
214.16723
215.71028
222.9758
207.84376
196.32939
187.19189
187.39831
188.2256
190.26662
190.7821
202.23745
200.99808
198.02952
197.13276
199.92784
189.29592
189.0221
198.98802
200.98384
190.21837
190.56037
191.61818
192.35728
192.99149
205.82346
204.41203
203.28161
202.09062
203.14786
191.25854
190.89642
202.0234
217.33069
215.55555
212.13857
213.72123
209.16752
210.48127
215.28731
216.58779
237.80517
235.03332
226.88905
224.98554
232.76901
230.38397
236.73099
239.482
217.37436
219.12638
221.10171
222.61858
248.93656
245.7957
242.04818
277.79058
264.04854
249.40444
236.05327
238.04018
261.98248
243.56943
241.39668
258.46523
255.64271
233.91274
231.69246
221.55199
212.99441
205.61564
215.29137
206.94331
215.92286
206.51152
199.51483
192.4931
198.65094
206.57188
207.21602
199.65394
207.02417
216.57483
215.66596
226.44269
225.2378
215.03754
205.74051
198.71556
192.00843
191.98148
198.71092
205.41589
197.88352
198.2283
205.95419
214.80056
214.03004
205.38069
198.80035
205.64137
205.07062
197.66771
191.13701
185.38865
189.13808
188.95131
192.58382
192.93198
200.77743
195.8945
195.54238
190.9652
197.36318
191.71949
198.18589
198.17103
204.74193
198.08997
191.66411
191.67884
198.15457
204.52115
197.28848
197.55177
204.9362
213.32027
212.72123
204.51892
212.83675
204.65356
211.78024
203.11296
203.64537
204.23391
204.88353
211.91149
210.91575
222.16369
213.39905
214.32486
223.60958
225.08015
237.09053
239.30682
258.85031
241.24266
227.8663
216.40545
229.35211
230.52027
245.32652
243.27986
260.87233
243.11574
245.07431
264.22924
288.82188
263.97911
261.69132
287.2622
290.77014
327.88567
322.36489
285.49976
282.11429
258.41754
241.2688
239.48179
226.49986
239.27161
255.94249
278.68038
256.08819
279.87243
252.68873
249.52913
229.48863
219.98742
218.46622
227.25422
212.72056
211.32158
200.49088
196.70454
196.18856
199.7391
210.08083
205.05547
200.24659
209.16193
210.01712
220.86792
212.58024
222.8022
213.52061
214.2521
224.15153
223.13399
222.23028
233.27758
221.79806
232.03992
219.68411
228.72825
215.73999
217.05629
205.94459
225.1102
223.08954
239.87915
243.06233
230.7328
232.79066
234.95171
253.20348
237.35353
225.18567
223.97617
235.48943
251.06841
236.20283
237.83192
253.52964
275.12652
271.48297
250.34434
271.2454
246.33725
264.28922
237.67006
219.00404
205.33796
194.84315
186.42001
186.50568
188.18785
188.03157
197.16137
198.02252
195.54109
206.57517
210.55906
209.04246
225.36084
227.91888
221.02441
240.8074
243.81188
246.67209
260.85873
257.3784
299.89662
273.34489
277.25636
280.7674
284.23892
251.62847
266.70772
313.32356
308.3723
304.54968
334.1297
274.30431
270.37681
278.05866
240.22874
243.13538
219.27195
218.87121
202.99945
191.19343
180.14358
169.29372
160.44231
154.49497
151.24326
154.80912
164.90538
174.58554
161.58447
174.67756
191.04432
210.50813
217.14794
195.10487
255.53492
352.94099
340.99737
255.31144
204.93786
204.97988
177.53754
164.09799
154.77888
177.461
194.77591
254.71877
385.22187
722.60342
648.09597
381.23875
629.14808
1070.7736
1229.2597
699.79349
345.20982
334.02778
254.3243
190.69855
164.69749
208.97406
192.92556
260.90005
388.55448
633.92233
1067.2392
1223.1091
706.45993
394.05193
750.51469
670.00468
355.92753
371.69465
261.79398
197.19386
165.52952
214.09697
221.35077
218.51461
386.70994
847.93083
1423.3878
1432.9257
812.30423
363.43852
214.48147
174.56612
158.9039
160.04869
158.25356
157.07158
169.02425
166.14448
167.89838
169.00629
169.18509
168.12931
179.13321
181.09903
181.75037
179.57275
176.2017
175.99427
166.56846
164.37371
163.96728
172.17343
172.30486
172.52137
164.34415
158.89046
160.41789
161.94006
169.11295
169.74303
168.94569
168.30552
168.395
167.79935
168.74888
180.70666
178.91728
178.55062
178.26257
179.70717
179.48729
178.17994
175.87548
167.7017
166.99284
167.02044
166.3426
176.0248
175.8962
172.61474
165.03209
165.16666
165.87323
172.93285
172.72631
175.82455
184.44641
186.28883
187.99898
189.16628
189.90071
189.94747
189.31895
189.0856
189.69439
199.80411
198.92487
199.9045
200.86583
215.42604
213.76276
211.98392
213.55133
233.87914
230.86971
233.87799
237.15415
273.35603
265.99343
253.59469
249.51216
288.24458
294.54057
269.05662
309.84845
275.78211
308.55273
313.69207
318.25323
283.77234
320.34914
324.62322
327.4527
380.32512
378.00334
483.87617
382.33465
385.75706
487.5882
636.10909
650.26208
446.79491
337.89064
357.32371
285.86571
288.38764
361.92644
494.92103
502.34814
834.74334
804.45946
1344.4377
930.011
618.16908
452.16788
367.94588
316.6574
285.18171
261.70907
244.23776
229.39174
217.47411
216.43353
206.4106
197.76188
190.31513
183.82314
183.99465
187.56495
180.74948
180.73805
187.16096
186.83037
183.62323
189.99472
189.70533
196.81684
197.29669
202.77068
194.23333
194.70612
195.05928
190.44664
198.26896
204.42627
203.49661
209.6695
199.25765
190.52634
183.10349
183.24169
190.99125
194.5512
185.79905
185.61574
193.84072
193.23077
190.07823
182.61503
180.33982
180.43718
186.60009
193.78157
202.11419
207.75464
197.95867
189.71102
182.63812
175.89236
178.47079
168.38043
169.26194
168.69035
168.68349
160.43925
154.4967
148.913
148.30316
155.21946
155.62393
147.22912
147.97898
149.50004
151.23682
158.83662
160.02789
168.86264
174.26599
181.32252
180.78494
169.11123
168.09197
167.83402
179.33784
178.99408
175.94805
166.55512
158.25343
157.04812
168.97837
166.1292
176.14771
172.16771
163.95806
164.38605
172.31099
172.53605
176.00808
178.83595
180.48969
180.02271
180.01043
179.62494
178.23661
168.30332
168.96438
178.18123
175.90417
182.0158
180.02013
180.29276
180.11063
186.3397
186.18102
186.00407
185.8991
183.11707
177.95341
180.24275
182.16827
188.57996
188.78378
189.05824
182.35575
182.24518
189.33491
192.19808
184.40626
184.95784
184.98555
186.93119
187.68511
188.00308
197.81111
197.01722
199.82783
189.65935
190.04424
200.92174
214.19348
209.53147
204.65453
199.71966
210.76227
218.07608
216.41114
203.93397
203.04333
198.61973
208.73971
215.13421
213.85644
202.21716
192.76102
195.57564
186.81847
188.59843
188.78922
198.91798
196.27529
207.52302
208.6822
223.68412
225.54776
233.47725
230.99519
213.09923
211.7386
210.39867
206.44769
220.34298
222.05103
229.00526
226.94508
232.81984
213.68831
200.07881
198.13894
197.28033
194.92032
186.20197
186.16274
184.4716
191.8048
191.38518
184.0287
184.14801
191.09146
199.3727
195.96964
192.46591
188.90757
195.42424
195.72214
196.0404
189.25444
189.45266
196.41105
201.47799
193.38308
193.03417
200.92802
200.42451
192.75452
196.38869
196.85391
197.37691
206.86907
206.03881
211.4177
200.67118
201.41709
212.63576
226.71639
218.36412
211.01747
204.40031
205.03852
205.69997
215.45851
214.53334
223.52376
211.95935
212.89312
213.89408
226.21641
228.07077
242.88939
240.97532
228.30091
242.31085
258.59991
261.79534
283.55899
259.33808
240.00244
237.97663
222.44418
232.32246
252.67135
255.95187
282.1634
278.80931
257.17039
280.26858
311.54307
317.07238
365.02548
312.75812
274.74389
271.32316
243.86972
256.53679
294.33095
299.30163
356.07182
352.31834
309.44939
360.51123
440.88969
447.63014
567.05225
409.27039
324.02798
319.53688
268.87568
237.4995
216.77206
202.054
190.97059
191.45725
203.19209
204.51812
192.28186
191.78595
203.28863
202.17526
201.03482
190.02086
189.78123
190.51614
190.80136
190.8042
191.82675
192.31277
198.6393
199.56663
213.05543
235.72301
232.96555
222.66623
194.84147
195.56001
224.70428
275.74731
308.06744
355.99037
511.02863
523.80227
308.56578
274.04258
375.86318
376.47312
297.17488
243.43792
211.08677
189.24539
193.93527
182.52988
182.57337
188.93558
209.50966
197.57988
198.13702
219.62984
254.67945
251.26378
248.24244
291.44703
241.45509
218.5552
215.46763
224.43051
235.18901
247.21991
260.5039
272.63218
280.19497
279.72599
244.40371
240.12241
218.01885
220.23152
218.91852
241.54
239.13344
235.25648
215.25256
217.29463
215.64347
201.21607
200.18404
199.14443
188.97043
187.86539
187.7771
196.60697
194.3719
193.80402
185.67644
185.71747
193.38381
195.34426
187.17176
187.16906
195.92639
206.65603
203.47104
200.01004
210.33217
205.29271
204.60935
199.99368
208.73878
202.91572
203.3538
203.85495
212.85354
213.67875
222.27098
221.07973
210.19439
209.44453
219.99218
212.14138
211.49853
219.03062
231.14524
221.44119
222.35676
223.36626
224.461
225.65792
226.9324
240.52046
238.8179
253.87367
237.37856
239.1678
224.90015
236.08192
221.0329
219.6977
234.22757
247.49683
228.62598
230.46662
250.16078
275.44248
254.6089
252.09779
273.8427
277.09965
256.268
276.90556
257.15961
259.60757
281.70099
307.06295
280.08324
283.42915
290.01514
294.46048
387.87286
375.84095
368.15632
472.67141
360.97789
368.83181
487.88752
755.60459
567.12313
577.67986
1178.8801
1036.2441
1452.8615
1634.7822
765.24054
1201.8776
746.08034
545.35811
538.64023
794.49444
738.816
1378.5949
963.9229
1089.9027
1545.2635
2190.0209
1933.9998
1121.4222
1978.968
2247.8848
2475.6459
2131.7598
2119.4097
1940.2523
1428.783
1011.0887
533.58203
315.53128
238.53067
200.54547
199.47664
195.19692
196.05343
225.71283
223.51282
235.45832
316.16131
275.71349
277.94544
378.87954
377.63339
548.73806
486.207
358.18016
286.75852
248.20598
222.23735
205.66467
192.89683
192.31066
191.36883
191.95925
204.07379
202.80753
204.28465
220.76706
218.18332
219.60557
242.92027
240.08247
245.02955
242.31547
239.42917
217.02652
201.87929
190.87262
190.05022
190.36195
201.64553
200.60349
198.47568
188.82262
189.03024
189.97813
190.42916
188.26358
187.88184
197.3828
200.4182
201.60712
198.30194
210.27585
215.35472
214.09121
209.31724
224.73366
232.73856
235.47227
226.74443
218.76672
205.1235
194.8769
185.98774
189.01562
189.39846
193.99473
182.50803
182.54269
197.39317
209.59202
211.28253
197.96355
219.01193
243.39
253.8943
295.84204
289.77467
241.18985
217.93003
246.45459
249.43453
222.1192
201.72387
187.45381
176.1155
168.28386
161.72898
155.87382
149.50255
152.8251
156.69625
158.30909
155.94991
153.97269
154.2845
153.28231
151.17562
151.90246
154.44751
162.64158
159.50324
158.65363
159.97195
162.26807
168.42183
164.79193
164.29171
170.00177
166.2202
170.40225
176.2542
186.94349
178.84533
178.25452
176.87576
164.54304
157.05367
176.81984
203.86884
187.85551
187.95413
200.90708
219.71562
200.94478
201.77623
187.44781
178.23681
178.84273
170.4068
170.02032
176.10223
176.25006
186.96536
187.34382
178.40862
166.68149
170.40629
172.80001
168.72215
162.31758
163.0695
160.87193
159.27462
160.14028
164.74729
165.35787
168.98272
169.21653
163.27451
164.0311
161.97508
160.79403
161.2591
165.50324
166.18334
169.58269
175.50506
177.70663
179.98981
182.00187
184.0233
185.68517
187.20384
188.22775
188.85829
188.89577
188.34097
187.34616
187.28185
185.82839
193.6261
194.18425
196.32171
195.64141
197.131
188.22948
188.74688
197.90422
198.79338
197.96882
210.2708
207.5933
204.20009
203.16428
206.26439
220.43597
215.30182
217.11254
222.879
227.84022
224.90214
208.70777
209.97756
211.72967
230.61113
227.38541
256.1547
250.45264
241.00428
231.53832
234.57066
245.28441
281.25387
259.39922
254.42303
273.8357
297.96911
307.89953
255.92992
261.15105
268.07651
335.63425
316.50229
323.6576
329.5173
349.41431
354.05329
282.25857
280.36224
284.12795
273.67004
276.50273
333.21215
328.44435
353.12751
349.28542
344.22396
276.20445
266.00101
234.86819
214.72628
216.47852
237.57205
230.4932
212.5934
199.41068
196.53675
187.10963
186.952
195.81713
206.8327
211.10661
228.21069
221.07995
222.94747
208.09063
203.33655
193.41967
185.08674
185.77573
183.1798
183.35553
191.14866
190.65838
194.11302
204.33277
199.45252
199.97345
211.09009
209.98584
217.03163
215.62203
214.23226
202.43938
192.86835
185.04464
182.66108
182.68953
190.16991
189.76646
186.63808
180.46646
180.37229
180.80136
180.82322
178.05059
178.06974
183.84901
187.2542
187.69489
184.05036
190.48837
195.18787
194.7952
190.38574
197.80395
203.62508
204.62088
198.33302
206.94558
215.05481
224.07866
235.0872
247.72724
262.24344
259.45532
245.52161
273.76478
299.19027
304.59382
277.46709
316.27362
364.08628
425.74945
424.88635
491.57453
808.74075
784.53114
595.30972
600.51553
604.69008
421.00774
323.97804
270.05808
256.22441
252.80953
240.13504
242.87878
270.20262
294.88731
290.02626
318.57391
415.46233
491.4889
506.92443
444.62287
369.75451
315.59803
373.04502
378.19893
483.87152
374.57094
446.38772
505.53534
874.9912
666.49741
684.4412
482.51028
479.40333
363.43989
355.22231
303.37578
359.08316
303.00885
296.98925
266.64017
247.48176
233.75606
248.7697
234.723
248.49615
234.27968
235.70859
237.22457
251.62969
235.67398
234.05525
249.47562
247.42431
232.5821
244.82285
228.95427
215.97701
217.14627
230.65045
232.41702
244.85715
242.21179
224.94519
223.22018
221.64331
214.95597
227.42536
237.22835
239.68429
260.8723
264.62215
247.22742
249.63219
270.61762
267.41069
293.32688
298.30717
268.35843
271.9863
303.00408
307.42046
355.49576
305.06688
268.02429
241.40315
238.92833
264.5105
286.03084
250.55411
253.64737
290.46668
347.59589
341.92319
300.35855
349.78781
431.07822
436.91387
573.97598
404.47372
315.44505
265.57774
262.04272
310.60447
330.60139
270.18652
236.62599
233.94128
230.38353
224.85786
218.69819
205.38883
204.41333
217.09828
222.79057
207.88418
209.1283
212.1686
210.68388
198.33286
188.82688
189.46987
189.67133
189.66014
179.65028
169.10974
169.11271
169.7492
179.46777
188.1408
188.08734
196.82361
197.51547
198.38055
188.74124
188.64936
197.64143
209.3471
207.95372
205.59554
202.64697
214.14257
209.36563
208.45234
204.03499
199.60078
195.1919
190.73747
186.20109
178.63679
168.22038
161.59912
157.11801
156.97958
154.54085
158.33951
158.00251
158.33936
160.16504
159.38385
155.71154
157.11801
158.9107
163.23303
161.60743
162.30089
159.2958
161.06357
163.62495
163.13991
167.13506
166.35677
169.91876
164.26725
165.12301
170.36901
170.76176
167.42052
168.17608
164.43339
166.31654
165.47472
167.17669
162.97679
157.08059
160.65215
164.0284
162.226
160.22263
162.09236
165.91944
164.18861
164.84077
165.77804
169.27959
168.43423
171.66834
166.66346
167.62614
172.20927
172.68084
169.66579
166.39632
164.06663
167.45752
170.52426
169.19351
168.12866
169.76544
165.83198
170.89798
175.5382
175.10921
169.27189
168.31848
168.0014
174.25889
171.25322
174.36562
172.79865
169.37916
163.23432
158.91096
161.06014
159.29597
162.29499
163.12873
165.10997
164.26142
169.90454
166.34489
167.13126
170.35238
170.7423
165.45918
163.62065
164.42711
166.30768
171.22709
168.17342
167.41848
172.21016
172.02609
171.44683
173.34894
173.6493
175.98967
175.69643
180.20409
177.15408
177.44706
180.29244
180.31093
175.92824
173.68852
173.98908
176.23844
180.42026
177.68466
177.40702
181.48905
179.31865
178.65689
181.33008
181.50837
185.18478
185.21172
190.76354
186.22386
186.45656
190.69163
190.5936
185.18161
185.18777
181.65784
186.49756
186.29896
191.25353
187.08252
179.32577
172.02964
171.45877
173.35854
173.66269
177.45109
177.16624
180.20605
175.70127
176.01222
180.30566
180.33347
177.40964
173.70468
174.00489
177.6932
180.44651
176.26638
175.9595
178.00432
173.54097
166.87881
161.25719
166.06142
173.21253
176.01373
167.75134
168.59419
176.26922
176.51503
173.87657
178.20053
176.20305
173.99997
172.22839
179.06628
179.76695
181.79869
177.89491
177.92014
174.32746
176.52743
180.60609
180.49137
177.60895
181.5685
181.6707
181.50828
181.5055
181.33866
185.19165
185.19094
190.68056
186.44914
186.26483
186.48532
190.55689
185.22011
185.19841
190.60958
196.70106
191.25614
191.46209
186.86985
191.36684
191.48003
196.89271
197.09619
204.1959
197.59886
197.74317
203.91843
203.6196
196.72928
196.60242
190.57171
190.48318
185.19272
180.46374
176.18423
173.98559
174.30096
176.51694
180.59246
177.90945
177.60122
181.56024
179.06721
179.76369
172.7986
174.35948
174.67808
176.8193
176.49472
180.65831
177.88844
178.18426
180.80042
185.34501
181.98359
181.80884
181.7735
185.25541
190.50327
186.51403
186.24656
191.13346
186.88537
187.20733
191.16287
186.3865
186.62362
190.50373
190.49784
185.30699
188.53151
183.26384
178.44087
174.24493
167.99085
162.97252
157.07844
160.65016
159.38348
160.2219
162.22357
164.83834
164.18808
165.78048
167.62315
166.65702
171.66013
168.42948
169.28352
172.20282
170.09202
172.9891
173.64372
175.13811
175.04698
174.70063
176.8009
177.15747
181.02825
178.46927
178.13175
180.88022
185.38712
181.92326
179.54507
180.29118
182.21553
178.48988
178.81632
175.50597
177.54985
177.17946
181.13348
181.30284
185.64433
182.43568
186.88393
186.61379
186.7057
182.16569
185.48275
190.52593
190.49459
186.41082
191.1248
187.08079
179.54709
172.99473
173.64448
180.28812
182.22233
178.493
175.14891
175.05353
174.7061
174.6919
178.1873
180.79697
176.8317
176.50562
180.67772
185.28901
185.2689
181.78858
186.49998
186.23697
190.4974
185.22468
188.54424
183.15809
183.14856
178.28796
180.39173
180.12366
180.28295
178.09615
177.83212
183.06582
183.0931
185.75549
185.80491
180.02304
181.91679
182.12847
188.27756
188.39862
190.78648
183.79542
183.99163
190.6115
190.40853
188.1597
185.70708
183.10731
188.62258
188.70189
188.78709
192.24698
192.07648
199.28876
195.01717
194.85442
194.74565
188.609
191.81661
185.71733
188.11463
182.18113
181.95769
183.71798
183.95996
190.32101
197.79975
194.92852
195.11951
191.9582
199.03343
198.82779
202.79908
203.15224
203.56003
195.35967
195.63586
198.86974
198.44236
207.73195
207.11306
198.11635
200.7838
192.4168
185.14795
178.34863
169.76144
162.6149
164.36003
169.94074
168.79805
169.65203
176.85951
178.82336
170.77849
171.477
170.63796
170.49708
169.68005
168.95706
178.19586
179.37569
179.48482
179.6278
178.54701
185.08603
183.73414
182.02494
180.25542
180.55397
178.48947
183.2249
185.72223
185.69399
191.74213
191.68365
188.54981
194.56518
190.51572
190.47947
186.37985
186.61306
181.98908
185.36006
190.50692
196.32306
191.32395
191.16658
191.30479
191.1319
191.37307
197.49762
197.31901
197.74758
197.58213
191.36257
197.03007
196.89351
203.88617
204.15996
212.1743
203.99877
203.87149
211.81545
212.28824
221.43216
220.76201
211.76615
211.35538
203.49971
197.3211
197.4971
191.41343
203.44617
211.09091
203.46956
211.07388
203.4498
196.61362
196.47929
196.4344
203.13549
197.33124
197.08373
203.26207
210.8116
203.14906
197.07476
197.32883
191.33245
196.42629
196.50258
203.23064
203.13335
202.99295
196.3658
196.32502
191.34461
197.24009
197.01132
202.91877
196.98635
197.23768
202.93095
203.0166
196.37921
201.30952
194.51512
188.54321
183.26771
178.45421
178.7401
183.35925
185.79039
180.77273
180.45753
185.74343
191.64738
191.62585
188.56307
194.4677
198.32081
198.42366
198.5296
198.66469
194.66971
201.58526
201.77608
201.98041
202.23096
202.54552
210.94089
210.48716
217.4279
207.67684
208.18646
218.19707
229.94677
220.64933
219.96396
230.89322
231.88904
233.01383
245.54079
261.23436
242.68247
257.31338
283.28647
288.32756
264.30688
287.69905
265.33105
268.12279
250.56768
252.65005
254.87213
275.43358
278.59126
303.15537
299.2305
273.94831
299.98376
304.0609
308.10452
311.69628
347.03195
312.42792
350.27724
344.96653
313.08618
362.33475
404.92514
413.40292
463.83023
391.95598
386.29947
341.68372
395.57755
350.87134
356.48334
403.9679
458.31284
449.64336
528.57053
454.93771
447.14536
398.83044
357.35602
308.91019
304.71913
351.9782
392.26571
334.78934
339.98416
379.95108
336.68281
331.64119
383.15703
340.49451
345.86041
389.65939
442.03377
434.01111
373.53824
438.98325
509.37456
519.51938
660.85876
571.05887
508.8599
445.33652
449.8858
621.06328
744.81047
514.93077
519.50224
747.64484
1195.0805
1264.4642
981.14149
1491.4896
2144.7548
1915.3008
2211.9423
1334.8533
844.35302
585.69834
579.67918
839.52611
959.89284
671.1793
681.70973
541.52181
673.46808
570.85863
498.42983
428.2818
424.58154
493.19676
695.97022
565.26724
566.5775
700.47605
810.17295
805.09811
564.89282
663.02372
934.834
944.54163
1408.219
1275.5026
1109.4047
825.22212
858.87066
570.95283
408.32821
460.28078
339.05085
277.27584
273.93574
335.36783
459.75546
457.35539
399.36586
574.91975
779.15148
757.65205
734.67141
718.20365
457.07179
343.95748
344.98358
340.27446
277.79669
241.79556
219.05315
203.35972
204.61408
203.32998
191.5314
191.04946
202.2007
201.14548
202.25524
201.26092
190.56793
189.84417
190.12113
188.86365
178.52412
168.39435
169.28904
167.79573
166.34061
158.89314
160.42137
161.9473
169.75346
179.4789
178.19746
168.97026
168.31824
178.28285
175.81986
167.00114
167.03309
175.91468
172.63217
165.04458
164.36471
162.32429
156.69776
152.82468
158.30941
163.27509
165.18097
165.88465
167.7194
175.90867
172.9623
172.75067
169.22885
169.00741
163.09068
160.87241
159.27575
160.14457
159.98013
162.28682
155.88369
154.44348
162.65825
161.74498
168.30576
168.44598
164.80972
158.67924
159.52203
164.31774
170.06907
176.19168
177.03881
187.68974
187.14281
176.31857
170.45746
166.30578
178.44472
179.00916
188.36332
201.47288
202.40183
205.02408
223.8362
221.19598
201.96602
203.00398
188.38884
178.59092
177.38957
164.66847
157.07603
151.17637
151.90331
153.28247
154.28199
153.97185
155.94903
160.79279
161.25662
161.97746
164.03904
169.59213
166.1844
165.51545
165.37651
164.75833
168.75126
175.52218
178.08401
180.83484
183.3312
185.91621
188.12218
190.1589
189.78142
200.06178
201.16283
198.05809
197.23338
187.78723
187.03269
186.90054
188.70166
198.29517
200.23062
213.97739
215.77141
217.43361
239.40246
236.86684
233.48155
235.8862
215.56969
217.09992
218.31864
220.38217
244.69519
240.72038
238.15494
231.79674
213.52683
214.65658
234.33226
226.29386
209.9713
209.09557
224.45181
222.75398
229.80876
212.16177
199.16
196.44948
195.77908
206.79579
210.80898
227.71885
221.06329
219.34465
225.59506
231.02925
234.21861
214.1124
214.02386
212.38885
199.32866
199.32321
189.5003
188.88153
189.04966
199.25269
200.27773
198.4283
197.58087
198.43063
188.75508
188.66591
197.67374
196.89881
188.13715
188.21521
187.21353
187.8658
187.94125
197.46322
196.75544
194.5024