/*--------------------------------*- C++ -*----------------------------------*\
  =========                 |
  \\      /  F ield         | OpenFOAM: The Open Source CFD Toolbox
   \\    /   O peration     | Website:  https://openfoam.org
    \\  /    A nd           | Version:  7
     \\/     M anipulation  |
\*---------------------------------------------------------------------------*/
FoamFile
{
    version     2.0;
    format      ascii;
    class       volScalarField;
    location    "290";
    object      p;
}
// * * * * * * * * * * * * * * * * * * * * * * * * * * * * * * * * * * * * * //

dimensions      [1 -1 -2 0 0 0 0];

internalField   nonuniform List<scalar> 
25278
(
101315.68
101314.75
101316.02
101315.92
101319.01
101314.32
101314.77
101315.6
101315.1
101310.64
101312.27
101313.73
101314.5
101316.2
101323.8
101316
101314.81
101321.45
101324.98
101318.79
101314.24
101314.53
101314.84
101312.32
101308.62
101312.11
101314.64
101312.95
101318.2
101311.87
101309.82
101315.57
101310.49
101313.7
101307.76
101314.05
101309.7
101306.24
101310.04
101304.39
101307.51
101302.85
101303.35
101296.61
101301.49
101304.41
101310.51
101308.32
101303.07
101309.83
101309.66
101318.78
101314
101312.28
101313.95
101307.48
101305.76
101311.72
101303.64
101307.69
101302.28
101301.88
101302.06
101307.05
101316.06
101315.07
101306.5
101302.04
101306.4
101308.32
101322.91
101312.34
101315.72
101309.71
101315.74
101306.98
101307.69
101311.74
101314.22
101318.86
101322.38
101323.6
101321.27
101324.94
101318.63
101322.95
101326.34
101331.27
101330.12
101329.37
101323.73
101323.72
101330.36
101333.23
101334.26
101323.59
101329.76
101328.51
101321.36
101322
101329.88
101338.6
101335.31
101321.82
101321.3
101330.23
101323.5
101332.03
101331.01
101338.26
101334.89
101326.34
101344.35
101358.14
101337.45
101334.25
101362.11
101328.73
101337.65
101336.98
101324.01
101318.23
101318.75
101329.87
101332.9
101329.66
101337.76
101334.72
101325.8
101322.73
101322.21
101318.46
101320.6
101323.22
101329.86
101330.81
101322.31
101325.82
101343.6
101330.53
101335.75
101357.12
101360.94
101327.53
101320.08
101329.45
101328.84
101322.35
101333.77
101322.36
101323.15
101329.55
101323.14
101328.46
101320.42
101320.56
101320.12
101334.31
101332.95
101310.7
101334.81
101341.94
101313.31
101334.43
101321.56
101330.56
101338.17
101328.65
101359.4
101357.05
101337.82
101328.26
101343.04
101341.84
101425.89
101382.76
101343.07
101338.07
101384.67
101436.79
101340.18
101340.77
101324.81
101335.43
101338.01
101329.27
101320.54
101319.75
101331.41
101365.24
101359.88
101338.04
101324.39
101329.57
101328.82
101326.17
101347.97
101313.5
101451.79
101417.38
101311.24
101344.02
101325.54
101317.13
101318.88
101317.97
101313.65
101318.07
101315.04
101309.07
101313.91
101310.29
101307.34
101302.64
101309.64
101305.58
101309.42
101304.2
101303.08
101296.11
101296.91
101301.43
101307.13
101310.1
101306.87
101301.17
101297.5
101303.37
101303.53
101304.3
101303.19
101295.81
101292.53
101299.21
101300.71
101301.92
101302.33
101307.4
101313.63
101318.39
101309.32
101313.6
101312.04
101307.52
101302.02
101307.24
101304.77
101310.71
101303.34
101301.57
101301.46
101306.57
101308.55
101317.88
101313.53
101315.37
101307.91
101305.58
101313.7
101305.22
101301.28
101291.56
101292.38
101292.96
101294.63
101289.36
101299.04
101296.13
101299.39
101301.04
101300.59
101298.76
101301.02
101292.96
101294.11
101296.67
101300
101296.03
101291.48
101289.98
101290.37
101285.98
101294.63
101291.89
101289.66
101282.62
101286.06
101281.28
101280.02
101285.48
101287.77
101292.82
101301.36
101307.12
101307.37
101301.61
101304.45
101303.35
101300.07
101293.08
101296.19
101297.26
101298.65
101297.49
101294.18
101293.97
101301.35
101303.02
101301.17
101305.88
101298.82
101306.4
101299.04
101299.5
101297.68
101301.38
101298.86
101305.87
101315.56
101318.78
101306.44
101299.37
101309.62
101301.12
101299.68
101297.94
101311.47
101318.23
101324.22
101311.1
101295.24
101295.98
101288.86
101280.83
101296.9
101284.48
101297.72
101290.68
101289.62
101290.83
101293.13
101293.69
101288.76
101290.5
101287.57
101294.67
101290.11
101285.13
101288.09
101284.22
101284.88
101295.18
101288.22
101286.84
101284.64
101283.12
101278.63
101286.21
101276.03
101276.05
101282.84
101284.68
101281.25
101286.4
101280.58
101289.23
101290.78
101290.13
101298.55
101294.06
101285.15
101288.43
101284.25
101294.12
101301.45
101303
101290.71
101289.62
101290.81
101292.6
101293.17
101288.85
101290.74
101297.83
101294.96
101283.07
101284.7
101281.82
101285.02
101287.8
101281.86
101284.57
101286.25
101287.47
101295.25
101284.76
101283
101278.76
101286.47
101276.2
101276.33
101276.46
101273.59
101268.34
101268.17
101277.59
101283.51
101290.35
101281.46
101290.78
101283.13
101278.57
101279.11
101278.7
101285.08
101277.9
101285.76
101288.46
101284.58
101277.18
101277.23
101278.54
101272.16
101278.52
101274.34
101280.67
101278.68
101274.18
101272.91
101266.74
101273.59
101266.11
101275.85
101266.23
101264.84
101271.06
101266.53
101273.4
101276.61
101284.98
101275.22
101276.35
101280.53
101289.84
101289.87
101296.86
101300.26
101300.83
101315.25
101317.07
101307.71
101299.1
101298.89
101299.98
101312.17
101298.09
101319.17
101326.58
101320.93
101316.01
101294.33
101297.68
101297.58
101292.79
101289.87
101329.18
101351.13
101311.38
101321.97
101326.35
101320.24
101301
101301.1
101301.21
101301.51
101305.41
101344.69
101347.66
101294.82
101290.82
101300.65
101303.21
101303.35
101298.63
101292.43
101296.79
101285.6
101290.81
101286.44
101291.15
101287.02
101297.05
101289.59
101275.76
101281.01
101274.57
101277.73
101281.1
101273.08
101281.74
101279.56
101281.34
101277.78
101267.33
101273.27
101276.12
101281.71
101280.15
101283.15
101289.75
101289.9
101299.48
101302.24
101300.55
101297.38
101287.6
101293.59
101295.08
101300.37
101300.75
101299.8
101297.9
101298.58
101307.45
101296.89
101310.81
101300.04
101300.99
101300.93
101320.81
101304.15
101299.82
101298.47
101300.49
101295.68
101296.72
101326.93
101320.4
101317.82
101286.61
101316.05
101292.98
101289.61
101295.59
101327.63
101352.54
101342.4
101288.16
101281.86
101299.02
101270.1
101296.98
101277.23
101294.89
101286.16
101301.06
101292.91
101301.28
101302.19
101300.7
101302.06
101304.36
101297.77
101300.33
101297.82
101295.1
101290.75
101292.01
101296.63
101291.34
101287.24
101295.55
101293.56
101291.17
101293.73
101283.69
101283.79
101286.91
101281.22
101280.81
101285.41
101288.06
101290.66
101281.52
101290.81
101286.15
101279.09
101283.46
101278.74
101279.38
101274.21
101278.4
101277.66
101283.6
101274.22
101277.6
101285.23
101288.7
101287.22
101279.02
101277.86
101279.38
101272.85
101278.61
101276.15
101266.15
101273.59
101280.52
101273.08
101266.67
101268.17
101268
101268.39
101271.97
101271.56
101261.18
101269.67
101258.63
101261.38
101252.92
101255.21
101264.68
101266.87
101275.45
101277.25
101273.9
101279.04
101271.23
101277.84
101271.58
101279.71
101264.19
101268.83
101252.91
101260.45
101265.36
101272.59
101269.77
101273.77
101281.34
101285.7
101288.71
101296.72
101290.66
101293.48
101286.29
101291.95
101292.92
101289.5
101283.72
101288.09
101280.65
101283.95
101284.32
101289.77
101280.44
101278.08
101275.5
101286.28
101287.31
101294.31
101299.88
101293.97
101289.19
101285.9
101286.12
101289.41
101283.46
101288.3
101292.04
101281.61
101280.61
101277.16
101277.16
101280.58
101277.35
101286.22
101290.78
101277.05
101274.62
101285.05
101268.24
101281.99
101272.05
101270.86
101255.82
101264.97
101269.93
101276.87
101272.18
101275.61
101269.02
101265.1
101260.55
101268.92
101275.26
101279.3
101277.2
101282.52
101281.15
101273.52
101266.15
101272.69
101264.27
101267.49
101261.58
101270.45
101289.88
101282.32
101272.23
101280.44
101294.6
101288.27
101301.4
101293.29
101301.72
101297.33
101296.6
101285.1
101285.86
101281.19
101290.44
101292.19
101291.55
101289.67
101279.9
101279.15
101280.68
101267.06
101267.89
101271.67
101273.11
101276.86
101285.16
101281.34
101276.23
101273.63
101276.41
101275.48
101272.28
101270.72
101273.97
101275.38
101283.81
101282.4
101272.02
101267.96
101279.49
101277.47
101264.64
101263.61
101266.84
101268.6
101280.84
101277.25
101272.66
101276.83
101265.64
101268.02
101270.59
101263.01
101266.87
101270.73
101268.95
101264.5
101255.18
101260.99
101263.42
101258.59
101253.21
101248.71
101259.82
101255.55
101259.44
101248.73
101257.33
101252.58
101263.08
101271.3
101283.18
101285.84
101292.5
101289.27
101297.5
101283.79
101284.9
101284.62
101276.37
101275.27
101282.87
101279.59
101270.29
101268.91
101280.79
101284.8
101291.06
101290.07
101300.03
101284.9
101284.35
101284.17
101274.74
101274.5
101283.94
101279.65
101268.68
101259.19
101259.49
101261.68
101270.41
101271.7
101279.04
101279.05
101291.82
101272.56
101275.43
101274.49
101262.28
101260.83
101251.38
101247.7
101259.29
101269.65
101278.01
101278.2
101294.18
101274.75
101274.18
101273.67
101264.04
101266.82
101265.94
101269.6
101283.11
101260.02
101276.93
101265
101265.13
101246.41
101257.88
101246.26
101250.4
101256.74
101262.06
101253.41
101260.37
101252.29
101262.01
101265.06
101278.1
101267.85
101260.91
101265.88
101267.28
101269.77
101260.88
101252.73
101244.14
101233.63
101243.96
101254.2
101255.69
101268.81
101269.91
101260.16
101250.24
101258.9
101261.76
101253.37
101244.36
101239.39
101251
101259.73
101249.84
101247.23
101256.67
101265.07
101271.5
101266.8
101268.29
101263.82
101262.44
101253.01
101259.02
101260.63
101266.71
101258.18
101267.54
101262.73
101250.95
101246.69
101251.41
101261.43
101267.59
101263.11
101249.38
101257.85
101256.61
101247.34
101236.5
101238.46
101249.85
101238.57
101249.46
101239.76
101250.97
101249.22
101251.61
101255.4
101248.96
101243.97
101230.63
101240.43
101245.18
101237.14
101247.15
101238.68
101251.14
101242.45
101248.88
101255.96
101261.62
101266.03
101285.73
101276.75
101262.86
101258.99
101261.37
101275.34
101255.62
101267.66
101284.5
101255.85
101254.85
101272.35
101241.32
101249.15
101249.67
101229.38
101238.1
101246.88
101233.39
101243.86
101235.69
101223.52
101208.13
101224.01
101218.05
101233.9
101219.91
101235.52
101241.4
101234.97
101227.31
101243.1
101239.81
101252.8
101257.47
101258.73
101253.91
101240.4
101247.34
101254.27
101242.89
101241.38
101227.12
101237.64
101224.11
101236.38
101239.04
101227
101223.23
101225.29
101210.17
101226.76
101212.84
101228.72
101216.21
101233.81
101232.11
101246.22
101223.11
101224.08
101202.66
101202.95
101214.45
101218.37
101226.83
101208.87
101223.51
101234.08
101227.32
101214.59
101196.07
101212.07
101220.95
101207.81
101188.07
101172.67
101197.2
101184.86
101209.08
101188.99
101214.43
101235.5
101250.6
101262.17
101276.83
101273.9
101270.76
101273.66
101260.23
101263.69
101265.21
101255.47
101253.35
101247.72
101232.45
101240.54
101242.58
101225.35
101238.72
101254.78
101253.3
101237.48
101222.17
101222.53
101241.06
101259.67
101275.43
101295.51
101289.8
101259.77
101261.34
101239.31
101233.84
101250.42
101230.68
101230.57
101247.69
101259.07
101269.39
101269.98
101274.91
101283.91
101285.45
101296.66
101302.38
101308.44
101314.37
101321.52
101325.3
101328.89
101328.27
101330.71
101329.58
101339.88
101331.11
101320.57
101331.07
101364.11
101359.95
101334.76
101339.38
101336.33
101322.99
101321.23
101321.5
101321.21
101321.12
101336.65
101310.42
101350.16
101347.99
101325.46
101335.8
101385.24
101432.4
101331.4
101363.57
101358.92
101339.38
101329.67
101325.18
101335.85
101329.59
101334.35
101324.46
101333.2
101387.34
101440.91
101328.22
101312.2
101332.64
101336.44
101358.31
101362.55
101330.76
101319.99
101323.67
101337.25
101327.58
101323.36
101340.08
101302.9
101471.19
101442.4
101328
101351.08
101328.56
101315.16
101319.11
101309.82
101310.03
101318.88
101312.18
101311.83
101316.38
101315.3
101306.62
101307.31
101302.46
101302.55
101306.86
101308.59
101304
101302.4
101306.02
101307.76
101314.16
101308.06
101302.8
101295.93
101302.71
101303.45
101302.35
101300.84
101289.77
101291.65
101292.53
101290.91
101297.64
101302.06
101301.34
101293.22
101293.84
101286.56
101282
101280.26
101279.49
101281.43
101284.6
101294.14
101291.71
101297.76
101300.94
101294.36
101288.54
101290.88
101299.88
101294.17
101295.95
101288.11
101287.93
101284.8
101273.99
101274.94
101271.59
101272.22
101270.74
101270.64
101271.58
101273.72
101272.72
101257.23
101257.74
101261.76
101261.37
101249.53
101250.14
101243.33
101242.45
101223.95
101224.64
101235.06
101234.66
101211.08
101212.23
101223.02
101210.46
101188.27
101203.66
101204.17
101173.74
101200.11
101178.48
101201.43
101222.6
101237.07
101228.77
101247.48
101293.97
101280.3
101248.99
101239.01
101238.33
101265.24
101231.99
101254.38
101227.73
101242.13
101256.84
101257.25
101264.54
101294.94
101263.25
101288.56
101240.87
101224.06
101228.63
101283.68
101333.57
101272.39
101310.11
101267.51
101287.55
101273.19
101286.9
101275.29
101286.22
101282.59
101273.09
101278.09
101282.02
101286.23
101288.88
101292.16
101286.67
101292.89
101290.15
101288.27
101280.81
101283.32
101280.6
101276.05
101269.68
101274.46
101270.93
101277.46
101284.35
101290.01
101293.04
101286.82
101278.71
101281.48
101278.62
101282.73
101286.54
101294.57
101299.69
101289.91
101284.15
101293.14
101288.62
101286.3
101277.58
101279.71
101287.51
101283.36
101283.54
101278.16
101272.74
101266.05
101262.13
101269.99
101275.84
101286.44
101286.87
101284.8
101296.59
101294.98
101299.69
101299.9
101300.3
101306.97
101313.94
101315.51
101315.33
101314.55
101315.59
101313.91
101313.56
101313.3
101317.73
101308.38
101313.99
101312.28
101305.45
101300.49
101305.34
101305.44
101314.34
101306.03
101299.95
101299.46
101303.94
101308.37
101317.55
101310.29
101310.35
101301.55
101305.08
101312.52
101305.82
101299.58
101291.86
101290.69
101290.79
101290.97
101282.81
101283.56
101277.63
101279.59
101289.38
101290.62
101278.21
101281.94
101271.29
101271.72
101280.07
101275.41
101273.52
101271.92
101269.97
101270.83
101274.47
101283.15
101280.44
101278.48
101266.61
101266.09
101268.4
101280.61
101277.38
101270.72
101268.09
101271.71
101280.28
101281.81
101286.19
101292.98
101301.17
101289.02
101285.2
101285.37
101288.53
101296.13
101284.28
101292.39
101294.9
101289.16
101292.33
101283.75
101274.69
101278.83
101281.82
101273.86
101276.27
101269.04
101266.13
101259.14
101267.39
101273.83
101271.92
101283.57
101278.56
101281.93
101275.66
101277.01
101273.46
101280.8
101276.82
101282.8
101275.35
101277.8
101280.73
101272.09
101263.62
101265.11
101255.44
101264.94
101263.41
101253.91
101250.99
101261.98
101269.24
101270.65
101263.74
101265.58
101274.2
101276.67
101275.3
101265.35
101262.65
101266.14
101274.89
101262.96
101252.74
101257.75
101262.87
101267.6
101260.09
101258.93
101261.29
101269.02
101271.03
101263.96
101259.4
101267.28
101264.61
101255.69
101252.96
101262.07
101257.31
101260.35
101263.93
101254.64
101249.73
101244.41
101256.27
101260.55
101250.43
101239.31
101244.26
101250.54
101256.35
101263.1
101270.72
101262.65
101254.5
101248.84
101258.35
101266.5
101276.06
101272.36
101270.22
101278.91
101264.71
101267.16
101262.14
101260.53
101257.45
101269.53
101286.08
101278.9
101267.64
101272.88
101272.5
101268.27
101264.15
101276.79
101259.28
101259.41
101252.98
101253.4
101246.36
101269.83
101296.51
101279.24
101264.51
101270.22
101271.41
101266.56
101265.43
101286.23
101256.8
101254.56
101245.59
101247.29
101240.46
101262.05
101302.2
101275.68
101263.15
101269.44
101276.18
101279.85
101284.46
101291.41
101300.68
101286.8
101284.71
101298.12
101288.84
101284.48
101274.41
101275.11
101284.98
101281.02
101278.07
101282.49
101283.34
101289.62
101299.16
101299.81
101320.02
101323.35
101305.02
101299.37
101297.77
101298.81
101320.31
101307.58
101347.8
101343.94
101341.42
101292.12
101282.49
101299.2
101297.94
101292.75
101321.48
101283.14
101317.17
101294.56
101311.04
101315.48
101313.54
101297.78
101297.21
101295.11
101295.22
101303.85
101324.42
101319.39
101310.91
101288.68
101286.51
101292.64
101292.87
101281.76
101286.02
101281.72
101292.3
101289.77
101296.22
101296.82
101297.58
101277.02
101280.05
101295.09
101294.35
101279.85
101276.8
101261.85
101262.36
101271.7
101271.08
101261.32
101268.58
101260.88
101261.82
101271.67
101269.61
101271.86
101259.85
101262.1
101258.92
101266.55
101274.02
101258.86
101255.71
101270.1
101261.88
101256.17
101244.35
101247.94
101252.69
101240.07
101246.37
101246.5
101253.56
101242.64
101250.68
101249.47
101252.33
101241.26
101246.22
101238.82
101232.06
101245.27
101241.99
101227.79
101238.01
101239.66
101228.58
101213.21
101226.81
101224.75
101228.45
101235.35
101245.11
101257.08
101247.49
101234.1
101225.19
101237.99
101251.02
101257.51
101253.94
101264.02
101253.18
101241.72
101237.27
101249.75
101261.03
101249.87
101242.16
101246.32
101228.63
101212.11
101232.85
101239.76
101231.94
101240.48
101254.49
101250.55
101248.54
101251.59
101275.35
101291.92
101354.05
101282.19
101328.85
101287.83
101280.29
101288.82
101332.26
101263.95
101367.5
101439.34
101302.69
101300.39
101376.39
101245.91
101276.79
101283.99
101383.01
101299.02
101305.1
101434.36
101311.6
101362.07
101253.17
101387.08
101312.44
101287.7
101441.1
101501.32
101657.02
101467
101426.72
101444.98
101196.61
101222.55
101506.07
101263.03
101390.13
101296.83
101346.29
101306.02
101321.81
101301.89
101301.54
101323.17
101310.54
101300.61
101301.9
101303.22
101300.97
101351.77
101324.51
101295.13
101292.63
101292.79
101265.24
101296.25
101275.38
101294.66
101285.18
101299.96
101290.07
101291.54
101301.57
101286.67
101284.54
101284.84
101278.88
101278.57
101295.33
101277.96
101274.33
101275.33
101260.14
101249.09
101259.98
101269.21
101279.67
101281.34
101285.31
101275.27
101269.49
101271.43
101280.22
101283.37
101289.74
101297.59
101302.02
101293.17
101285.41
101285.7
101284.38
101289.18
101295.27
101292.04
101280.1
101280.1
101275.7
101276.77
101273.45
101281.61
101273.91
101289.14
101284.6
101294.66
101300.46
101312.45
101316.68
101315.91
101301.38
101299.19
101298.66
101297.49
101307.63
101326.61
101318.04
101318.31
101287.71
101291.05
101296.61
101297.32
101293.46
101315.07
101295.88
101311.92
101299.95
101310.37
101305.03
101310.53
101310.12
101314.65
101310.6
101304.87
101304.66
101307.2
101308.65
101307.61
101312
101313.06
101318.29
101315.87
101310.95
101314.22
101308.01
101309.85
101306.67
101303.92
101303.48
101308
101316.03
101307.27
101306.28
101301.92
101300.25
101299.48
101306.86
101319.51
101317.97
101313.78
101318.64
101324.96
101318.56
101301.85
101298.55
101296.8
101298.52
101311.4
101299.45
101307.1
101299.51
101306.08
101315.76
101309.58
101301.35
101300.06
101285.98
101291.17
101298.03
101299.33
101303.45
101297.49
101302.09
101300.56
101303.6
101302.02
101304.81
101298.1
101296.92
101294.01
101291.67
101295.75
101298.25
101300.56
101301.53
101298.22
101292.82
101297.06
101292.1
101280.4
101278.1
101274.64
101273.02
101269.37
101268.29
101265.19
101264.54
101263.28
101263.02
101263.8
101264.12
101273.38
101275.43
101260.86
101259.94
101257.62
101258.25
101255.87
101272.44
101271.83
101255.31
101254.63
101255.07
101239.59
101244.14
101247.61
101248.77
101244.7
101227.41
101232.95
101232.03
101228
101219.86
101221.51
101240.89
101240.31
101239.07
101220.72
101223.06
101193.44
101188.6
101203.49
101212.52
101210.02
101204.11
101181.98
101183.13
101186.3
101178.39
101157.2
101143.93
101183.8
101193.35
101190.56
101153.81
101157.18
101185.24
101210.65
101211.31
101233.04
101249.99
101251.96
101266.54
101265.11
101297.75
101271.27
101258.35
101260.62
101236.58
101215.68
101233.07
101232.69
101249
101260.3
101270.29
101260.24
101262.55
101271.54
101276.22
101277.43
101286.61
101283.98
101272.47
101264.53
101263.19
101253.68
101254.65
101263.93
101272.88
101274.08
101278.46
101283.54
101290.08
101295
101300.52
101290.4
101287.11
101286.87
101281.84
101282.81
101292.91
101283.49
101278.48
101278.52
101266.14
101259.58
101267.81
101274.88
101282.21
101287.1
101288.2
101280.52
101276.8
101279.39
101285.52
101285.25
101291.75
101294.55
101301.01
101297.33
101289.72
101289.07
101287.58
101292.89
101293.79
101290.51
101284.89
101286.78
101282.53
101281.77
101278.98
101287.21
101291.63
101286.29
101290.82
101284.37
101296.31
101290.24
101268.78
101267.64
101261.77
101264.05
101261.56
101276.93
101295.11
101282
101300.97
101244.7
101247.36
101234.01
101235.53
101256.03
101230.9
101192.97
101221.48
101236.13
101251.81
101255.62
101240.61
101241.37
101256.79
101244.05
101242.89
101227.08
101214.25
101186.62
101187.11
101177.67
101179.78
101200.21
101200.15
101174.59
101208.93
101205.6
101226.82
101217.38
101213.51
101181.64
101187.81
101140.31
101175.63
101141.92
101174.52
101151.24
101148.88
101101.17
101159.09
101146.12
101175.52
101192.24
101210.18
101189.4
101207.53
101188.1
101207.9
101212.72
101221.66
101209.63
101226.01
101217.02
101197.91
101190.43
101211.74
101195.61
101215.61
101233.47
101237.5
101221.09
101229.96
101223.35
101212.33
101231.08
101225.62
101224.7
101233.72
101215.78
101202.22
101204.4
101181.98
101192.57
101202.53
101214.17
101192.67
101177.28
101164
101182.51
101206.75
101223.69
101205.36
101227
101217.64
101237.5
101246.66
101259.56
101244.65
101228.94
101227.41
101243.64
101258.53
101245
101236.35
101211.33
101211.64
101185.14
101182.85
101214.63
101202.95
101230.89
101241.77
101257.22
101239.59
101219.5
101219.62
101239.99
101250.45
101237.46
101238.68
101242.93
101245.51
101257.48
101252.2
101238.02
101234.4
101249.32
101255.29
101252.94
101246.06
101257.34
101273.25
101270.33
101268.95
101269.69
101276.77
101287.65
101287.59
101288.99
101275.77
101262.72
101270.14
101252.47
101253.24
101251.91
101259.92
101267.5
101250.82
101236.57
101238.77
101243.08
101247.5
101231.49
101239.43
101241.97
101249.09
101255.87
101261.8
101267.51
101269.04
101280.74
101295.02
101301.33
101305.23
101309.99
101312.06
101313.98
101314.71
101314.1
101313.18
101313.2
101310.15
101304.81
101309.63
101308.17
101301
101295
101302.87
101308.93
101300
101301.15
101301.8
101293.49
101292.17
101293.23
101299.79
101296.68
101301.72
101302.37
101309.69
101306.11
101306.63
101299.89
101297.32
101307.37
101307.86
101312.61
101310.42
101311.28
101310.58
101313.24
101314.68
101311.73
101307.01
101310.5
101314.93
101311.57
101311.31
101308.4
101312.07
101314.57
101316.9
101316.91
101312.56
101314.34
101313.39
101317.02
101314.91
101314.25
101313.46
101314.04
101314.22
101317.61
101315.02
101310.82
101306.76
101304.55
101306.11
101307.03
101296.18
101305.28
101303.67
101308.45
101309.89
101309.79
101304.02
101295.63
101301.69
101301.16
101294.62
101293.45
101294.38
101302.53
101298.05
101303.11
101301.38
101300.83
101306.66
101307.8
101308.25
101310.32
101303.36
101298
101296.01
101288.18
101279.55
101289.56
101291.12
101280.43
101279.94
101279.82
101290.19
101283.85
101286.59
101286.66
101283.69
101292.88
101297.06
101291.43
101296.94
101286.79
101279.45
101294.37
101281.06
101273.29
101281.3
101278.08
101273.77
101268.37
101269.58
101283.31
101273.47
101278.01
101281.58
101287.19
101287.62
101293.1
101279.64
101269.85
101284.17
101294.09
101295.52
101287.5
101279.07
101289.09
101289.3
101278.91
101278.81
101278.83
101289.34
101282.54
101285.07
101285.57
101282.88
101292.17
101295.89
101289.8
101295.15
101284.74
101280.11
101293.53
101297.08
101300.21
101290.58
101288.27
101284.49
101287.69
101295.75
101290.37
101297.9
101299.75
101287.39
101292.38
101288.16
101297.11
101297.03
101308.31
101296.54
101302.84
101303.08
101296.95
101301.7
101298.29
101293.09
101293.73
101286.47
101287.03
101278.62
101280.95
101272.9
101272.74
101276.83
101272.36
101282.75
101278.71
101292.34
101283.14
101285.54
101280.07
101276.61
101271.04
101269.21
101271.78
101274.05
101261.48
101271.93
101266.48
101260.75
101252.68
101256.24
101272.91
101260.19
101267.37
101272.37
101280.04
101284.71
101290.22
101291.57
101294.83
101294.47
101289.36
101297.75
101303.47
101299.96
101304.09
101295.24
101287.72
101297.55
101308.63
101305.72
101297.43
101303.07
101309.38
101303.24
101303.66
101304.3
101310.44
101307.9
101306.99
101303.56
101297.88
101295.48
101297.49
101297.05
101302.9
101291.94
101282.39
101293.13
101304
101296.04
101304.2
101311.45
101308.08
101302.49
101302.07
101301.29
101302.87
101298.58
101307.92
101305.97
101308.6
101309.04
101313.21
101313.49
101310.94
101312.04
101307.82
101312.03
101310.94
101312.83
101309.59
101312.35
101312.39
101315.31
101315.33
101310.73
101309.19
101313
101310.69
101307.68
101304.65
101310.56
101313.72
101313.9
101314.99
101311.8
101310.93
101310.69
101306.82
101313.26
101317.27
101313.42
101317.16
101317.95
101311.35
101316.53
101315.97
101316.17
101317.87
101318.57
101314.59
101320.68
101320.61
101317.16
101309.91
101314.07
101316.01
101312.32
101314.23
101307.84
101311.56
101312.82
101308.44
101312.75
101317.07
101312.42
101316.19
101309.72
101306.97
101303.41
101302.27
101309.57
101306.45
101307.92
101301.34
101302.02
101300.4
101295.8
101294.82
101302.16
101290.67
101288.54
101289.81
101287.18
101290.81
101286.79
101289.74
101291.8
101279.22
101284.68
101284.91
101275.6
101275.02
101278.77
101275.53
101271.7
101272.56
101269.96
101280.69
101271.54
101267.62
101263.97
101266.15
101279.45
101268.16
101272.52
101275.52
101278.97
101281.67
101276.06
101272.67
101268.2
101264.04
101268.68
101261.28
101267.05
101271.98
101279.3
101282.3
101279.68
101284.48
101281.4
101286.7
101275.09
101273.38
101287.82
101278.94
101272.85
101276.1
101268.75
101272.93
101267.34
101275.22
101270.71
101262.02
101255
101263.92
101259.02
101254.05
101259.37
101248.43
101256.37
101264.81
101260.23
101268.97
101270.14
101287.46
101293.63
101298.12
101306.84
101294.21
101296.13
101304.9
101305.28
101304.73
101303.28
101303.39
101293.37
101292.67
101284.02
101285.82
101280.91
101278.32
101285.28
101294.95
101296.29
101280.72
101284.64
101284.07
101288.74
101299.9
101296.24
101296.45
101295.37
101289.26
101285.64
101293.04
101293.94
101293.53
101295.41
101300.89
101302.93
101310.82
101302.92
101305.53
101306.68
101306.54
101302.87
101294.94
101291.98
101281.41
101281.05
101286.9
101270.46
101273.14
101256.5
101261.31
101260.01
101265.45
101259.48
101252.23
101243.43
101250.69
101259.62
101252.62
101243.83
101232.08
101242.53
101251.97
101261.27
101264.6
101270.53
101286.92
101281.38
101276.94
101272.95
101275.36
101272
101275.73
101278.53
101285.47
101293.28
101293.46
101300.41
101287.34
101284.09
101282.47
101282.25
101287.72
101300.57
101292.32
101294.82
101287.06
101285.36
101294.73
101302.54
101301.5
101307.81
101303.19
101312.15
101304.35
101299.66
101303.81
101311.92
101308.72
101301.33
101300.01
101299.49
101299.86
101299.07
101300.76
101296.66
101303.07
101305.61
101305.6
101307.44
101299.65
101300.32
101299.02
101305.31
101304.84
101306.36
101306.45
101299.28
101291.78
101283.16
101285.76
101282.82
101274.71
101266.09
101259.64
101253.32
101243.82
101251.94
101242.67
101253.06
101246.21
101233.77
101221.94
101233.63
101244.09
101233.59
101220.24
101210.34
101191.87
101168.48
101196.82
101179.37
101142.89
101148.72
101167.34
101133.91
101165.56
101175.78
101194.15
101205.85
101221.06
101208.85
101230.51
101220.85
101196.53
101210.28
101193.58
101223.63
101243.77
101288.83
101270.33
101250.61
101271.35
101238.26
101240.79
101240.21
101239.59
101239.19
101271.81
101291.79
101231.31
101239.41
101241.16
101244.32
101272.81
101241.43
101275.41
101238.03
101248.82
101236.64
101199.97
101204.82
101213.67
101220.14
101189.23
101182.37
101169.58
101174.01
101209.67
101200.05
101210.65
101175.57
101168.58
101186.85
101218.38
101205.51
101201.13
101149.52
101150.77
101149.53
101150.6
101206.54
101191.97
101181.93
101184.12
101196.84
101228.19
101228.74
101226.81
101227.16
101284.38
101217.82
101273.47
101217.3
101219.03
101211.79
101214.5
101192.86
101252.55
101382.94
101269.47
101334.13
101229.59
101235.19
101267.2
101249.1
101328.4
101252.62
101322.58
101333.87
101282.92
101312.18
101235.04
101229.16
101229.36
101235.96
101280.35
101223.06
101277.8
101239.87
101231.14
101246.86
101265.12
101258.73
101369.44
101379.79
101271.07
101333.68
101224.92
101238.12
101251.59
101253.38
101264.94
101270.59
101257.37
101241.88
101230.47
101199.68
101198.81
101157.85
101158.49
101201.98
101239.41
101240.99
101295.49
101269.7
101269.12
101262.54
101268.92
101275.59
101279.06
101283.79
101284.83
101284.73
101299.01
101289.54
101283.24
101273.56
101273.89
101267.94
101278.91
101278.92
101283.16
101281.39
101282.96
101295.39
101295.13
101299.91
101298.52
101300.93
101299.54
101298.36
101288.94
101274.81
101275.78
101289.19
101287.93
101277.4
101279.46
101288.25
101295.07
101284.16
101286.14
101297.36
101300.37
101299.01
101301.96
101309.21
101301.65
101291.77
101290.82
101292.49
101290.33
101278.46
101281.98
101282.36
101286.18
101289.18
101297.32
101301.46
101298.76
101302.82
101308.39
101304.02
101307.99
101314.21
101308.2
101308.17
101301.49
101300.59
101299.52
101305.47
101313.1
101304.83
101314.58
101307.59
101317.14
101294.87
101296
101298.07
101303.47
101304.72
101303.2
101294.67
101297.81
101293.63
101308.46
101322.31
101289.01
101291.28
101293.34
101307.95
101316.82
101303.17
101317.3
101316.92
101312.03
101311.62
101317.47
101310.58
101305.59
101306.87
101305.22
101298.3
101295.34
101297.8
101294.3
101286.33
101291.88
101287.33
101291.9
101293.54
101293.19
101290.35
101298.38
101290.72
101297.68
101292.07
101299.02
101296.12
101287.86
101283.09
101282.39
101285.38
101282.46
101290.43
101283.75
101280.68
101277.68
101268.01
101267.67
101259.98
101260.54
101270.49
101260.87
101249.24
101248.49
101259.98
101269.83
101278.16
101293.57
101294.06
101277.01
101276.92
101274.21
101274.2
101277.9
101290.66
101272.35
101277.39
101291.84
101277.25
101272.64
101260.1
101259.6
101269.31
101273.24
101273.78
101268.55
101260.99
101260.41
101249.63
101250.25
101239.72
101238.13
101235.88
101236.1
101251.06
101251.93
101244.78
101256.24
101255.42
101271.06
101271
101269.57
101260.04
101260.16
101255.46
101251.11
101250.96
101260.51
101268.01
101249.72
101250.15
101267.75
101260.31
101260.29
101270.63
101268.59
101260.79
101256.66
101258.06
101273.44
101271.21
101261.8
101252.93