/*--------------------------------*- C++ -*----------------------------------*\
  =========                 |
  \\      /  F ield         | OpenFOAM: The Open Source CFD Toolbox
   \\    /   O peration     | Website:  https://openfoam.org
    \\  /    A nd           | Version:  7
     \\/     M anipulation  |
\*---------------------------------------------------------------------------*/
FoamFile
{
    version     2.0;
    format      ascii;
    class       surfaceScalarField;
    location    "290";
    object      phi;
}
// * * * * * * * * * * * * * * * * * * * * * * * * * * * * * * * * * * * * * //

dimensions      [1 0 -1 0 0 0 0];

internalField   nonuniform List<scalar> 
76358
(
36.221494
-0.011193799
2.0233018
1.4729443
-1.4802003
-2.0333363
0.060868011
-34.802156
0.00014987936
2.1426536
2.1295416
-2.0927167
-2.1001409
-1.4919183
1.4729368
2.0310911
-2.0575917
-0.059820911
-36.221672
-1.4921217
1.4726915
-2.0576434
2.0310618
-34.677003
-2.0405469
2.0191215
-2.0333373
1.9933709
0.00099564691
-34.802797
2.1295608
-2.0927731
-2.0996314
2.14342
0.00077229389
0.010747953
0.0003720017
-2.0833024
2.0761928
2.0774108
-2.0876978
1.472803
2.0232778
-2.0333864
-1.4802977
2.0761771
2.0770378
-2.0876405
-2.0832119
0.00018265706
-0.0534068
10.409179
0.36938735
-0.37466424
-0.5389451
0.53232743
-0.0098085422
-8.2578917
-0.0054096085
9.6656115
-0.0080792341
-7.6822276
10.340336
0.0055895621
-7.4055881
7.4258362
-0.03490361
-0.034636352
0.00065262375
0.000983615
-9.2592289
0.37609644
-0.3878202
-0.52717641
0.51609548
-0.061174502
-36.221326
1.4731195
2.0311824
-1.4917429
-2.0574531
-2.1001473
2.1425971
2.1295654
-2.0926071
-34.802029
0.010056125
-2.4925368
-2.5120905
-2.1925955
-2.3390262
0.38506513
-0.38286694
-0.3905441
0.53389609
-2.5295807
-2.4597052
-2.199156
-2.2190552
-0.38853341
0.54378034
0.54256776
-0.38392852
-6.8392138e-06
-0.42590541
-0.015654694
-2.0486989
-0.00039055497
-0.038931173
0.010739591
-7.8100737
-0.52232042
-0.50337349
0.41243998
-3.2846425e-05
0.13011375
0.32540201
-0.37558799
-0.52830331
0.41890604
-8.2478955
-7.6933089
-0.13154108
-0.024342676
-0.095849999
0.024620929
9.3837155
0.37604315
0.3683926
-0.38060162
-0.38666617
-0.3868324
-0.38078713
0.36817168
0.37585792
-9.3862571
7.6933657
-0.09533259
-9.6656919
-0.1318896
-0.12944933
0.33160371
-0.37600998
0.41562518
-0.36775661
-0.36756967
-0.37577519
0.41581674
0.33183386
-1.8168826
-0.0036200707
-0.015028428
-0.047239387
-0.045436365
-2.4758048
2.0868373
0.086711952
-0.097853441
-0.13079539
0.10676577
-2.6287103
0.0015013667
-0.025621933
0.019351208
-0.63978539
-0.61837764
-0.55984625
-0.61104024
0.022498119
0.16898276
-2.0834365
0.16435822
0.083729524
-0.096782256
0.10150876
-0.12932378
-0.11200119
-2.3437605
-0.47679718
0.0019271881
0.0055260772
-0.0041867665
-0.0022371299
-0.66500898
0.52148858
0.00017756227
-0.65519989
-0.0014484068
0.0068413679
0.0049625285
0.00025838234
-0.57159375
0.0047634763
0.013567007
-0.51619494
0.012447921
-0.01326712
-0.62338741
-0.011101331
-0.5767416
-0.00011644884
-0.0078252561
-0.00083610366
-0.57615169
0.010916743
-0.024004238
0.020589274
-0.032552105
0.025630413
-0.00033389401
-0.12863149
0.0015042468
-0.52799363
-0.00091512643
-0.52617504
-0.0067716064
-0.0063999382
0.095151289
-0.09756428
-0.13160861
-2.0839736
-0.0096991166
-0.37321494
0.36636166
-0.53690612
0.53334309
0.51213767
-0.51924165
-0.539623
2.2713223e-05
-9.9065526
2.5268415
-0.13230396
0.13074922
0.13346691
-0.13525029
-0.0024558583
-1.994476
0.0028859528
0.10749847
-0.13143646
-0.13458235
0.11295796
2.0133815
-0.13423129
0.11247272
0.10735967
-0.12974485
-2.4696856
-3.9699585e-05
-0.034237504
-3.6739163e-05
-0.0058403218
-0.64139632
-0.61836165
-0.5646035
-0.57431951
0.17117445
-4.6700689e-05
-0.62652792
-0.6417505
-0.57406391
-0.56886075
0.16987445
-0.52589986
0.0050754954
0.0067574493
7.412715e-05
0.00084006753
-0.65969892
0.53217724
0.00083108094
0.00018522808
-0.66770176
0.0069394394
0.0015207559
-0.0045761082
-0.57707081
0.0016074495
0.012914998
-0.57518105
0.013265117
0.0012698335
-0.56326962
-0.012457644
0.00043576467
-0.56293957
-0.012466084
-0.00091227562
-0.00035357879
0.57608307
-0.012274633
-0.56210682
0.53101159
0.00028715466
-0.66625708
-0.0033851977
0.0069939428
-0.52158061
0.0072081683
-1.4737231e-05
0.00095283524
-0.6519761
-1.5040964e-05
0.57275191
-0.012111387
-0.5600268
-1.4465657e-05
0.0025102879
0.012862048
-1.5751777e-05
0.012875235
-0.0015886686
0.58433594
0.01046822
-0.57761044
-0.0027298203
-0.0048969201
0.58413799
-0.57844641
0.010531666
-0.0042016911
0.58020104
-0.57861278
0.010981626
0.0019481216
0.57217636
-0.57550925
0.010750084
-0.100112
0.62557582
-0.5205539
0.0094861269
0.11220157
2.2126602
-2.3694309
-0.12836282
-0.093033559
0.087427272
-0.092978934
-0.12828208
0.10019547
0.087490593
0.045513715
2.0834507
0.083815359
0.10158509
-0.12925468
-0.096699338
-2.3437789
0.37566843
1.8169009
-0.04699418
-2.4758366
10.417763
0.32533977
0.41898867
-0.52821936
-8.2480536
-0.010039045
8.3794412
-0.20126381
-0.009570112
-0.063250715
-0.013054018
-9.2593089
-0.003515134
0.51613933
0.37595823
-0.38797389
-0.52716344
0.011187732
0.53391067
0.38489312
-0.38304962
-0.39057944
-2.339101
-2.4925868
-2.5120707
-2.1925811
0.30118754
8.8017719
-0.38847751
0.54392935
-0.38348586
0.54321596
0.00074720765
-2.5297174
-2.2191421
-2.4597549
-2.1990865
8.3872404
0.00060485243
-10.129565
-0.075118221
0.00058626694
0.5190859
-0.52757028
0.51679232
-0.5238543
0.00064911615
-0.0033087421
-2.0947226
0.0027946988
0.0010629601
-0.0047116281
0.0010506067
-2.0931115
-1.8942916
0.0045521623
-0.0029797571
-0.0028056996
-2.6643002
2.0930724
0.0034592947
-2.6275922
0.0011091061
-2.3248379
0.0029002097
-0.0033739812
-2.3263708
0.0042714507
-2.6276497
0.0011951013
-0.0064734544
0.012835792
-2.1038068
0.0037054535
-1.9071021
0.0062867264
-0.015685548
-0.015481967
-2.6418512
2.103756
-0.013647405
-0.0010935063
-2.4952447
0.012944362
0.00340226
-2.3076547
0.0036106412
0.0034533674
0.013772899
-0.00069411408
-0.00084452259
-2.3335363
-0.00080820924
-2.4952871
2.1045872
-0.0018821223
0.0023597958
-2.4943506
2.6290075
0.021975254
0.0012392474
0.0069120278
0.00099767572
2.3133774
0.0022139738
-2.3129718
0.0019823757
-0.0030094964
-2.3034114
0.00029914296
-2.0876959
0.00025263725
0.0075594111
-2.6184204
0.00030850977
-2.3031797
0.00035696629
-0.0021451479
-2.2881057
-0.023605243
0.00042151059
0.0102549
-2.2987668
0.0092357736
0.0030237752
0.0074085684
-2.3117754
-0.0016855761
0.0004985841
0.010273896
-2.2941688
2.0979121
0.00036077159
-2.4810845
0.00034165943
-0.5434343
2.6180619
0.024286776
-2.0976065
-0.0009661719
0.30016211
8.8011931
-0.010624911
-0.38306979
-0.3875883
0.54457887
-2.4598254
-2.1990151
-2.5296749
-2.2188228
2.033049
8.3871605
0.010154674
-10.129597
1.9936509
2.0199547
-2.0396994
-34.677244
0.0016104915
-2.092374
-0.51654305
-0.0051281777
0.0032674907
-0.0018863994
-2.3237248
0.001776759
-0.0037649202
-2.3120775
-0.003501901
-2.3026692
-0.51696634
-0.00083846251
-2.0874262
0.074130398
0.0040014176
0.51963115
-0.5267262
-0.52353854
0.013629875
-8.379393
-0.061791772
-0.19978893
-10.417887
9.2586291
0.53458673
0.38542988
-0.38242153
-0.38969525
-2.512097
-2.1922993
-2.3389353
-2.4926293
0.51671706
-0.52628795
0.37645028
-0.38731826
0.0034029453
-2.0925246
-0.0049464529
-2.0941385
0.00073543107
0.0079870155
-2.6282779
-0.0013092331
0.0081410241
-0.0019760884
-2.3023394
-2.3115899
-0.0046720654
0.0019073865
-0.023149998
-2.2973204
0.011067763
-0.004094573
-2.2871967
0.011472939
-0.0025329101
-0.0027833671
0.01173619
-2.293118
-0.0020577428
-2.4807907
2.1039811
0.00065301303
-0.0005663715
-2.4937138
-0.0038341102
2.6269412
-0.0067485341
-2.1032476
0.013807487
0.0042804861
0.002538986
-0.0039855596
-2.3252217
0.52640272
0.0023561292
-2.626761
0.37626293
-0.3874918
-9.2583651
-1.8939188
-2.6638338
-0.38526713
-1.906791
0.0069057189
-0.38255536
0.53440264
-0.38983422
0.011311005
-2.3389411
-2.1922565
-2.5120455
-2.4926132
-0.015161354
-0.015021295
-2.6415852
-0.012711593
-2.4947396
-0.0001132064
2.3064952
0.01300443
0.00028697814
-2.332385
0.0094476504
-2.310231
0.011261075
0.013625481
2.2655945
-0.0087416994
-2.2722917
-0.001289042
2.2205406
0.022054647
-2.2183089
-0.011596814
0.018912702
2.2232686
-2.2215996
-0.0075515443
2.2688397
0.010432497
-2.2759089
0.0019228174
0.0026045667
2.2983834
-2.3113069
2.1044101
0.0019771487
-2.4940914
0.00089172313
0.02186713
-2.0976171
0.022955103
-3.0108611e-05
0.0011600237
-2.4806851
-4.3420359e-05
2.2868158
0.0095828154
-2.2925709
-6.3179879e-05
-0.0017346375
0.0093618885
-4.7489605e-05
0.0093059595
0.0082873761
0.0093659388
-2.2191706
0.013138519
-0.00051243843
0.017428462
-2.2160754
-0.00050834607
1.9954592
-0.0016530728
-1.9540677
-0.0033973227
-0.014653934
-0.0014263619
-0.0028321829
0.0010691502
0.017229217
-0.0089847063
-1.9961179
-0.014706826
-0.001760602
-0.018303935
-1.9553504
-0.002062002
2.2129741
-0.010480684
-2.208664
0.0014920437
-0.011249992
-0.010513356
0.0011367983
-0.010368664
-0.0044962669
-2.2963896
0.0025879563
-0.022812297
-0.013509834
-2.1031007
0.0041381686
-0.00039676095
-2.494555
-0.00091305441
0.38771383
2.1034424
0.0024624951
-2.4931024
0.0034955304
-2.3092529
2.2841305
-0.0021504201
-2.2895429
0.000577626
-0.024004146
0.00048651012
-0.54320542
-0.0013537041
-2.0964278
0.00026622266
0.54422455
-0.38293912
0.00045289094
-2.2186561
-2.1985565
-2.5295559
-2.4595818
-2.4793262
0.00027140119
0.0088145736
0.00030608742
-0.57234063
-0.57890445
-0.005503368
-0.5841679
-0.5755445
-0.17198606
0.017821844
0.00067190166
-0.56494581
-0.56847988
-0.0066167494
-0.58163774
-0.57754185
0.024700065
0.0017750831
-0.016876235
-0.56312222
-0.55379868
-0.52905767
-0.55446245
0.0018265106
-0.0025260519
-0.030317048
-0.53031654
-0.49660045
-0.38653109
-0.48618564
-0.024708751
-0.0040466601
-0.025835641
-0.49716021
-0.53237115
-0.48855001
-0.37956875
-0.016704417
-0.00043480178
-0.013976208
-0.55630845
-0.56458493
-0.55617852
-0.53259683
-0.007778122
-0.0056449197
-0.56939861
-0.58215689
-0.57819215
-0.56605824
-4.6351688e-05
-0.0050182512
-0.57929579
-0.57576928
-0.57282633
-4.3148765e-05
-0.014023511
-0.57854766
-0.57942124
0.0070962752
0.050447688
-0.5992126
-0.57457297
-0.019195401
-0.1641699
-0.050215177
0.015097377
-0.019100913
-0.0034149317
-2.0868547
-0.025616913
0.015974622
0.086693777
-0.097876888
-0.13077257
0.10678705
-2.6287566
0.0018570274
0.6398047
0.0055122995
-0.47680469
0.0019968322
-0.61106517
-0.61837094
-0.55983687
0.022850071
0.16892867
-0.51620072
-0.00018257147
0.012415517
0.0022525261
-0.013182483
-0.62339248
-0.01113297
-0.0041084056
-0.66501999
0.52149466
0.00017598128
-0.65520864
-0.0013429762
0.0068408879
0.005066707
-0.5716015
0.0048690213
0.013553932
-0.57674657
-2.3223639e-05
-0.0078382122
0.010825295
-0.57615825
-0.00083495222
-0.00022884652
-0.024014047
0.020581211
-0.032549049
0.025632075
-0.12423607
0.00085691712
-0.48138827
-0.0077997556
-0.0048589805
-2.0755638
0.091112329
-0.095491902
-0.12903729
0.12186783
-0.36629632
-1.752632
0.006625349
-0.37328591
-0.53684705
0.52627066
-0.0091721265
-10.409421
-0.012071826
-0.017808189
-2.4766395
0.09346022
-0.093826631
-0.12660532
0.12663277
-0.13094335
-2.3430195
-0.097943745
0.66476553
0.0011613644
-0.47527177
0.00074883826
2.0840318
-0.00099477853
0.1319129
-0.13054379
-0.096844941
-2.6401602
0.09513103
-0.097588775
-0.13158455
0.12865873
-0.0064451976
-0.47649511
-0.0014245979
-0.0021289268
-0.0026813286
-0.0017010304
-0.60494176
-0.0059116932
0.0014306994
-0.00060350594
-0.57764466
0.02328949
0.03187057
-0.032360472
-0.023841407
0.52800263
-0.0016825319
-0.65915528
-0.00080683029
-0.13076115
0.65971494
0.002249153
-0.53263945
0.00062967888
-0.53345603
2.5269209
-0.132299
-0.13517566
0.13354573
-0.0021778904
-1.9945644
7.8103699
0.51250949
-0.51897588
-0.53956611
0.00043940369
-9.9070363
0.42603871
-0.5222342
-0.50301238
0.41281986
0.00057376391
-2.0487478
-0.038808176
-0.00014807552
0.10751688
-0.1314317
-0.13451184
0.11303335
0.0031893011
0.6265634
0.0067759396
-0.52591216
0.0051564066
-0.56889276
-0.64175757
-0.57404974
0.0062015536
0.16996168
-0.57519481
0.0046696604
0.013277348
-0.00086188467
0.0013726063
-0.56327962
-0.012449138
0.00016621737
0.53218908
0.00088091087
0.00030215932
-0.66771777
0.0069847999
0.0016364565
-0.57709037
0.0017332106
0.012961885
0.00054628507
-0.56295357
-0.012429575
-0.0010032002
0.57610665
-0.00024205122
-0.56212351
-0.0121916
0.1341701
0.53103011
0.00038056045
-0.66628181
2.0134283
0.11255636
0.10750765
-0.1296087
-2.4697891
0.00025248701
-0.033883205
0.00022843441
-0.64145174
-0.57434467
-0.56456325
-0.61838353
0.17167126
0.00030377649
0.0070736778
-0.0033024978
-0.0024076107
0.01297648
-0.0073357625
-0.57277106
0.013038707
9.7247731e-05
-0.52159436
8.0218573e-05
0.001094594
-0.65199807
8.0976664e-05
-0.5600403
-0.011962364
8.4149646e-05
-0.00014908005
-0.0025829204
9.166015e-05
-0.54471233
-0.032476861
0.02610502
0.026106335
-0.03242212
-0.00037064194
-0.0024979359
-0.54658005
-0.032570287
0.02610223
-0.032481877
0.026125976
-0.00051001718
-0.0023869183
-0.032643159
0.026016537
0.026118721
-0.032553839
-0.54736553
-0.54836941
-0.032731237
0.025912553
0.026036168
-0.032617404
0.0012122691
-0.54946886
-0.032562595
0.032092684
0.031950793
-0.032369888
0.00017268297
-0.00069202432
-0.66471669
0.53615886
-0.67089008
-0.0011604194
2.3946998e-05
0.00022958655
-0.13321986
-0.53480018
-0.00053011003
-1.9569617
-0.13468351
-0.13014061
0.12887982
0.0002286248
-0.0015060114
0.13585477
-0.13411813
0.13142421
-0.1296377
-2.4781462
0.00019147011
0.13340244
-0.13184973
-0.1345777
0.13623046
-2.5398368
-0.00063890321
-0.53201794
0.00066329687
0.00067929285
-0.52726186
0.00054193696
0.0011232498
0.00062983129
-0.00081835849
-0.65874037
-0.0001850116
-0.66463508
0.48126022
0.00044072661
-0.0038198903
-0.60467139
4.233873e-05
0.003657731
-0.57735861
6.958272e-05
0.032462251
0.023829186
-0.023750561
-0.032312232
0.00016711464
0.023887938
0.032557406
-0.032353098
-0.023795414
-0.576752
-0.00069613072
0.54939922
0.032723922
0.00013976672
0.032616807
-0.03260483
-0.032439941
-0.5489717
-0.00059790663
-0.66478425
0.53491276
-2.192958e-08
0.00075412853
-0.67084248
0.00076513014
0.00015131656
-0.00018421796
0.5478823
0.00022774541
-0.54781591
-0.032325445
0.032595363
0.032641545
-0.032256256
0.0327078
-0.032506524
-0.032311778
0.032605515
-0.00016599941
-0.13136008
0.00015986579
0.16397782
9.6200235e-05
-0.00022344077
0.16352951
0.00011650931
-0.13112633
-0.023542706
0.16523577
-0.11863994
0.00055262072
-0.13112601
0.64893512
-0.00069826204
-0.51345604
-0.023568464
-0.032802944
0.032831618
0.13075187
2.1291249
0.098627492
-0.098311389
-0.13093396
0.1310313
-0.13102497
0.098555221
-0.09838557
-2.3915042
0.012005347
2.0755402
0.093375788
-0.093900234
0.1265573
-0.12667392
-2.342985
1.7526017
-0.018006363
-2.476592
0.0049302789
0.091026966
-0.095576227
-0.12911102
0.12416275
0.12206537
-0.47648561
-0.00084086771
-0.0027625298
-0.0021132166
-0.66475037
-0.0014304157
-0.0017939783
-0.65914037
0.0017939578
0.023298844
-0.023831699
-0.032364547
0.031866474
-0.00070870705
-0.57763643
0.48138324
-0.0058790697
-0.60493444
-0.0077655427
-0.13196264
-0.51147093
-0.024023216
0.019814087
0.64656765
0.025725264
-0.033138509
0.00072275101
-0.13222052
0.10134969
-0.099433132
0.10141165
0.13205116
-0.13212884
-0.099365478
0.023106794
0.00029296737
0.032337714
-0.032779292
-0.023598625
-0.64893008
0.16452462
0.00031055115
-0.11848455
5.5020448e-05
0.1180657
-0.00078612388
-0.00078241111
0.15601504
0.0016872257
0.0007667997
0.015323654
0.0073907334
-0.15544487
-0.15416302
-0.14248743
0.0020614682
0.001873247
0.52729553
-0.015490556
-0.030783689
-0.5721816
-0.0018786817
0.026875017
-0.57956557
0.010483605
0.0033803988
0.0068788087
-0.15368084
-0.15635023
-0.14458768
-0.14271342
0.0027879791
0.012796692
0.58128215
-0.00050955244
-0.14793591
-0.15573156
-0.14321626
0.0032509534
-0.14305771
0.030843317
-0.012734652
0.58318686
-0.61928252
-0.0018362924
0.52730219
-0.015416164
-0.57218535
0.52056088
-0.015239081
-0.64657315
0.62559429
0.0094518216
-0.0018742406
-0.599245
-0.57458309
-0.57216749
-0.01934043
0.014356645
-0.0018151922
0.026814798
-0.010726636
-0.57958451
0.010441916
0.0034709492
-0.5755218
0.0043073711
0.0073614944
-0.1560201
-0.15545275
-0.15416023
-0.14248577
0.0021582498
0.0068356565
-0.14458427
-0.15635576
-0.15368982
-0.14271493
0.0028699445
0.58130224
-0.00056269662
0.0033187942
-0.14321404
-0.15573619
-0.14794546
-0.14306163
0.00028307347
0.58568221
0.0024434945
0.0033353749
0.63749603
-0.00033628189
-0.58568819
-0.57837527
0.0076736308
0.0074959151
0.0024829582
0.00325833
-0.58124499
0.0039248337
0.0038713406
-0.15633156
0.0033982073
0.0033410237
-0.14443697
-0.14443255
-0.14385539
-0.006173479
-0.00615422
0.0010158053
-0.14605172
0.0010320618
-0.0010972483
-0.0221934
-0.13200503
0.0011862946
-0.0019243943
0.0012615299
-0.13024553
-0.025920416
-0.0010074379
-0.025544035
-0.13018008
0.0011263099
-0.0018372612
0.00099714918
-0.13123803
-0.025279532
-0.13074823
0.0008785896
-0.00071135644
4.4199539e-05
-0.16400571
0.00043190401
0.14368892
0.00047222986
-0.1455122
0.00020779134
0.13015347
-0.16296656
-8.9517691e-05
0.0014633551
0.00092430363
0.0021591128
0.0013843212
-0.1441552
0.0011015818
0.0016222004
0.00076152169
0.00056368654
-0.14529402
0.00028584272
0.033042416
-0.16382334
0.00034861621
-0.49425877
-0.03232805
0.038696512
0.03218664
-0.03261032
-0.03195477
0.031865994
-0.032422521
-0.56046396
-0.00028439459
-0.13159565
0.00030808981
-6.474514e-05
-0.13156445
-7.7390488e-05
0.00047318463
0.0001091483
-0.00015953242
-0.16476654
-0.00020823471
-0.16523346
0.13095067
9.1153132e-05
-0.16352868
-8.592628e-05
-6.868505e-05
-2.5711763e-05
-0.14582978
0.00014784657
2.3657845e-05
0.00017426119
-0.14588626
8.2514193e-05
-0.00014188124
0.00023819686
0.1455764
-0.14562443
0.00012598015
7.1649218e-05
-0.16457903
0.13006319
7.380782e-05
0.00018107945
-0.1622012
0.16184748
0.0003996402
-9.8475241e-06
-0.0006596996
0.00034767298
0.14378429
0.0005460039
-0.14478171
0.00035539788
0.0015650277
0.0017337364
-0.14310109
0.00097288302
0.001738496
0.00036553611
0.00041124196
-0.14377602
0.00044416042
0.032362411
-0.16200435
0.00010962471
-0.038625351
0.025943446
-0.032338723
-0.023944925
0.022211128
-0.52562224
-0.023960748
-0.00067994518
-0.4942621
0.025305164
-0.033017095
-0.032309413
0.025564334
-0.51147564
-0.023996895
0.019839519
0.025748391
-0.033117068
0.0002497572
0.032361259
0.023134956
-0.023571143
-0.03275588
0.032214911
-0.032581883
-0.031932754
0.031887348
-0.56046592
-0.032499531
-0.00027351252
0.16382575
-3.804696e-05
-0.13159677
0.0002974912
-0.00030399645
0.16400765
-5.0650748e-05
-0.13156525
0.16452705
7.928077e-05
-0.11848588
0.11806782
-0.00079258317
-0.00075913138
0.0016814523
0.0007869968
-0.13075034
0.00090023389
0.0018272019
-0.00068606527
3.37172e-05
0.00043606744
0.14369109
0.0004656798
-0.14551383
0.00023492544
0.13015464
-0.16296774
-5.9008757e-05
0.0014595975
0.0009538842
0.0021520763
0.0014130808
-0.0010182534
0.0010939055
-0.14415802
0.0016501835
-0.1312404
0.00099875819
0.00033856436
-0.00073660046
0.13018263
-0.00063577263
-0.16184978
0.00033207726
0.0011460579
0.0019098383
-0.14378794
0.0015529859
0.0017599828
-0.00055478014
-0.14478434
0.00053440249
0.00038101253
-0.1452961
0.00031237686
-0.00014125808
-0.14557761
0.000289775
9.4942566e-05
7.2697587e-05
-0.14583084
5.2401109e-05
-0.13095132
6.12045e-06
0.00018306852
8.7392963e-05
-5.2739254e-05
-0.00047958812
0.00013728703
-0.00017038663
-0.16476762
0.00016780396
-0.145887
0.00011303872
-0.0001704884
0.00022881973
-0.14562499
0.00015685067
6.0782614e-05
-0.16458031
0.13006406
0.00020968141
-0.16220191
5.6195615e-05
1.6256194e-05
0.00038286315
-0.14493791
0.0003141591
0.00014543374
-0.14496728
0.00026839775
0.00019947758
-0.00010026867
-0.00018548761
-0.14507392
0.00022225322
0.00017014468
-0.032238753
-0.0001926839
-0.13019848
0.00032773533
-0.49568982
-0.03264574
0.032711403
-0.032037689
0.032886404
-0.00075813403
-0.0325849
0.032916913
0.032379812
-0.032049645
-0.032490245
-0.561415
0.023847247
-0.023480554
-0.032711251
0.033123661
-0.64974712
0.16524778
0.0004191512
-0.11850751
0.00057577066
-0.00044947169
-0.00026171437
0.13173981
6.0003457e-06
-0.1648149
-0.0001833275
1.5956677e-06
0.00035483688
-0.14601221
0.00015054465
9.2767479e-05
-9.8324607e-05
-0.14610041
0.00011389238
7.8635263e-05
-0.16375414
-4.4461513e-05
-0.1310641
7.9677916e-05
0.00020684624
0.00013377559
3.1284608e-05
-5.5672178e-05
-0.16352659
-0.00048285007
-0.16516686
0.13166031
0.0001505294
-0.00025190098
-0.16475304
0.00019014494
0.00035469178
-0.1460103
8.2783684e-05
9.6924846e-05
2.7324405e-05
6.5237502e-05
-0.14592104
-0.0001339999
2.3441618e-05
0.14575751
6.8448522e-05
-0.14568808
0.13170383
-6.8456787e-05
-0.16460617
0.16463931
0.00015671307
0.00017941157
0.13175902
4.3228387e-05
7.9852304e-06
5.2272883e-05
-0.14573758
0.00012992674
0.0001366875
-0.14582255
0.00010539696
-7.8530222e-05
-0.14515763
0.00016289115
0.00013602961
-0.16230617
-5.369584e-07
-0.1301912
0.00017288876
0.00024866747
0.00012220388
-0.00013982145
-0.16229169
0.14511353
1.9256955e-05
7.328483e-05
-0.14506043
-8.9405082e-05
9.6632614e-05
0.00012156472
0.00010775611
-9.0990511e-05
-0.1444156
0.00010370525
0.14441079
9.9855804e-05
-8.2426036e-05
0.14569104
8.1576644e-05
-0.14568426
0.16409586
7.8315166e-05
-0.13132583
0.00013140392
5.3386962e-05
0.14564741
0.00010428765
0.00014938924
0.14557781
0.0001241953
0.00019803057
-0.00012219765
0.14546744
0.00021122014
0.00013439065
0.13117779
6.249446e-05
0.16323756
-6.3684576e-05
0.00010271918
0.13080094
-0.0005055793
0.00015194775
0.15582996
0.0015222917
0.00031513134
0.57863819
0.0072902831
0.0020950126
-0.14418263
-0.14326595
-0.15503584
0.58025689
0.010975181
0.0049908335
-0.57861895
-0.58416767
-0.57948201
0.0070724395
0.0054208402
-0.58017472
0.0041537609
0.011848137
0.0022494619
0.0065483282
-0.14502274
-0.14618956
-0.14439671
-0.14320327
-0.0071384407
0.57853153
0.0062859085
0.0010567801
-0.14490017
-0.14519588
-0.14336625
-0.14302401
0.57848783
0.00082201938
-0.15520574
-0.14341185
-0.14314395
-0.15502132
0.010550481
0.0017224005
0.011949444
0.0018043118
-0.0030310262
0.58315407
-0.57496648
0.0048216897
0.0019711965
0.58577288
0.0042384806
-0.57785887
-0.57655595
-0.57119572
0.0060702535
0.013579034
-0.57554828
0.0025961243
0.0045595196
-0.0049158606
0.0029059735
-0.14370622
-0.14453283
-0.14320313
-0.14257314
0.0038751383
0.0024530661
-0.14359319
-0.14487858
-0.14404603
-0.14284289
0.0049359005
0.0015075905
-0.14338053
-0.143768
-0.14298592
-0.14253655
0.57201934
0.002415959
-0.14269297
-0.14335819
-0.14284935
-0.14208399
0.0043910709
0.0027823725
0.0054590654
-0.0049715098
0.56990875
0.0018214288
-0.56962018
0.0056438875
-0.011982026
-0.00012151421
0.58249864
-0.57339542
-0.010535673
0.57942884
-0.57745882
-0.0016120661
0.58444745
-0.0026178614
-0.57766638
-0.57583137
-0.57288804
0.0081767641
0.00042648867
-0.57611342
0.0105874
0.00011549884
9.7485336e-05
0.007414909
-0.15485583
-0.14307196
-0.14301419
-0.15475315
0.00010696179
0.0072816373
-0.15506292
-0.14319143
-0.15489887
-0.14306689
0.00023650545
0.0064417751
-0.14483638
-0.1449703
-0.1430836
-0.1429084
0.57627623
0.0066935578
0.00012782656
-0.14285027
-0.14293053
-0.14486233
-0.14480308
0.012215676
0.0001478522
0.57853972
0.0056295004
-0.57226139
0.00018633613
-0.56674057
0.00062025565
0.017145604
-0.56752278
0.00032371711
0.0079094189
-0.0018937067
-0.006033746
-0.14139851
-0.14259289
0.00027689936
0.0073822552
-0.14089462
-0.14236845
-0.0053715703
-0.14211974
-0.14294251
-0.14255844
-0.14148756
0.0053818955
0.00078955388
-0.14325484
-0.14346193
-0.142597
-0.14229341
-0.14329977
-0.14231695
0.00016976384
-0.14320454
-0.14216053
-0.00024432537
0.0010977382
-0.14282179
0.00012256715
-0.0014539675
-0.00025498455
-0.0014078888
-0.14287903
0.0010427368
-0.00039055054
-0.0013448097
0.00096260402
-0.14294415
-0.0003608653
-0.0012907366
-0.14302249
0.00090301539
-0.00063292114
-0.0012550467
0.00085989917
-0.14310079
-0.00061416545
-0.001234115
-0.14322093
0.00084310871
-0.0017634675
0.00099613641
-0.14331209
-0.0014133149
-0.00128013
0.00096111187
-0.14310551
-0.13024807
0.0010850376
9.4804727e-05
-0.00034272252
-0.1620068
0.13200708
-1.9651818e-05
-0.009113582
-0.14672397
0.0012035665
-0.14374294
0.0012297248
0.001616257
-0.00039677735
0.0003784273
-0.14428311
0.00053887357
-0.14377932
0.00046871545
-0.00012799245
-0.14389275
0.00032802049
0.00022755733
-0.032323082
-0.1295953
0.00016645512
0.032295765
-0.032257568
-0.59150998
-0.024091551
0.024489179
-0.024071737
-0.032229115
0.024507636
-0.1295943
0.00018274954
0.00010260507
0.0002373173
-0.1622607
0.00024531641
-0.00028137313
-0.14392431
0.14389071
0.0002257687
0.00032651649
0.14493637
-0.14496672
0.00016825305
-0.00029902617
0.00032652055
0.00011731642
6.644912e-05
-0.00018194463
0.00035456222
0.143914
0.00017694343
-0.14419711
6.3165575e-05
0.14511941
0.00012479876
-0.14546566
-0.03209666
0.16323454
7.5296022e-05
-0.13117573
0.0012385644
5.5449275e-05
0.54836012
-0.54945838
0.031938686
-0.032382043
-0.032557763
0.53262455
-0.00078961591
-0.6646943
0.00053445647
0.0022252585
-0.5361434
0.0023339093
0.00010908711
-0.0012178279
-0.67086584
-9.9634603e-05
0.54735232
-0.54786861
-0.032386572
0.031936452
0.031980164
-0.032326497
0.00015036346
-0.000393362
-0.03264404
0.026011373
0.026099539
-0.032572508
0.0002456569
0.025914953
-0.032725907
-0.032627401
0.026026856
0.15582138
-0.13079803
0.00029246114
0.0015234465
0.0019867282
0.0072996199
-0.15503569
-0.14326638
-0.14417186
0.007122812
0.00070174766
-0.15519251
-0.15501725
-0.14339804
-0.14314252
-0.002157343
0.57844581
0.00094911028
0.0062985976
-0.14488894
-0.14517592
-0.14334191
-0.14300659
0.58012962
0.006577314
-0.14617856
-0.14502047
-0.14319592
-0.14438172
0.0040720846
0.011871895
0.0016770174
0.011951307
-0.57732788
-0.0017332594
0.011910587
-0.0072178909
0.00010617179
0.0064127522
-0.14304601
-0.1449376
-0.14481448
-0.1428817
-0.0002266843
-0.14317475
-0.15504373
-0.15489033
-0.14306573
0.57606223
0.007266967
-0.14305817
-0.15483286
-0.15474236
-0.14302049
-1.3378859e-05
0.010440064
-1.4886471e-05
-0.57613689
0.012030383
-1.3023761e-05
0.0065609696
-0.14288828
-0.14481979
-0.14477631
-0.1428317
-8.6436056e-06
-0.00064902506
0.57190566
0.0059357361
-0.14220338
-0.14321121
-0.14313228
-0.14207292
-1.1625066e-05
-0.0014138972
0.0053941393
0.57310907
-0.14251778
-0.14340125
-0.14319641
-0.14221014
-0.0023768645
0.57480923
0.0049784325
-0.14373715
-0.14335106
-0.14249257
-0.14294531
0.57778994
0.0049633204
-0.14486517
-0.14358423
-0.14282589
-0.14402656
0.5856839
0.00296224
0.004274017
-0.58302295
-0.57098764
-0.57645556
0.013790479
0.004854186
0.0018456369
-0.0025465688
-0.57178705
0.0026712792
0.0055288869
-0.57547799
0.0046212128
0.0028337699
-0.14452001
-0.14319019
-0.14368836
-0.14255393
0.0039450767
0.0023176734
-0.1426379
-0.14331413
-0.14279604
-0.14201525
0.0044707993
0.5690673
0.0016876549
-0.14283133
-0.14242806
-0.14197757
-0.14130579
0.0054995971
-0.0049567353
0.0016441012
0.0056526133
-0.0002483329
0.0055181141
-2.2549375e-05
-0.56659585
0.0077803101
-8.0479117e-05
-0.14238655
-0.14110246
-0.14217468
-0.14060459
0.0073439283
-4.8103518e-05
-0.0015205972
-0.00045146499
0.0014303029
-0.1420572
0.00021240851
-0.0010827486
-0.00031368814
-0.14246638
0.00013884062
-0.0014243979
-0.1427509
-0.00020243592
8.3778886e-05
-0.0011613398
-0.00014196898
5.5567165e-05
-0.14306493
-0.0025046766
-9.0383215e-05
-0.14341693
3.0863701e-05
-0.0017275107
-6.0084433e-05
1.6929228e-05
-0.14379218
-0.026070228
-2.6412542e-05
-0.13046043
-3.3074508e-06
-0.0024369318
-2.3762463e-05
-0.54469347
-0.03250419
-0.032473665
0.026051478
-1.6490823e-05
-0.12873529
0.000625886
-0.52628856
-1.506169e-05
-1.9568344
0.13314928
-0.13474486
-0.13027793
-3.1140933e-05
-0.0012674174
0.13577823
-0.134173
-0.12975613
0.1312754
-1.3845928e-05
-2.4779193
0.0012822888
-0.13185337
0.13338705
0.13614639
-0.13464495
-2.5396838
0.097962209
-0.096822725
-0.13056463
0.13188258
-2.6400612
-0.47525884
0.0010825846
0.00076388364
-0.0011969604
-0.00017107269
-0.66461377
0.52724563
0.00062724611
-0.00092073533
-0.65871374
0.00054051864
0.00052990979
5.1116937e-05
-0.57734571
-3.8447792e-05
0.032457097
0.02383814
-0.023740776
-0.032317331
-0.48125208
0.0036899371
0.00034930993
-0.0037893445
-0.60465704
5.9930792e-05
0.023896464
-0.023786158
-0.032358581
0.032550913
-0.57673172
-0.00066536697
1.8399413e-05
0.54938299
0.032599863
0.032725809
-0.032601199
-0.032455887
-0.54894468
0.53199508
-0.0006881669
-0.66474638
0.0005676133
0.00065011889
-0.53488598
0.00070340772
3.0739831e-05
0.00068916815
-0.00011278417
-0.67079549
0.54779479
2.7515929e-05
0.032609058
0.032600568
-0.032455168
-0.032433554
-0.54743565
-6.278263e-05
9.8349931e-05
-0.032329982
0.032590369
0.032616247
-0.032282613
0.032711078
-0.032502458
-0.032326441
0.032591316
-0.00013163372
0.1639753
-0.13135786
6.6255712e-05
0.00015902311
-0.00019761764
-0.13112544
0.00011984732
-0.023514116
-0.11863778
0.00055895834
-0.51345007
-0.023597657
-0.032828624
0.032806893
-0.00065350641
0.023817113
0.00080267693
0.033096758
-0.032736867
-0.023508691
-0.64973537
0.16524446
0.0005817402
-0.1185048
0.00039217681
-0.00028845303
-0.00044330084
0.00010119565
-0.16375232
-8.0098223e-05
2.4943236e-05
0.14601137
-0.14609917
0.00011957857
4.4477833e-05
0.13173867
-0.1648133
-0.00017235711
-2.7864377e-05
0.00036584579
0.00015668297
6.0411125e-05
-2.1730368e-05
-0.14573725
0.00019479356
9.644134e-05
-0.032680905
-0.1317579
0.00020388566
-0.49568728
-0.032063537
-0.032677564
0.032214713
0.032970515
0.032883321
-0.032617588
-0.032077381
0.032352232
-0.032401346
-0.56140941
-0.00036556487
-0.1317022
0.00016813006
0.16463772
0.00014523305
-0.13165869
0.00015832475
0.00047724362
0.00011841749
-0.00024150758
-0.16474971
-0.00016068413
-0.16516172
0.13106186
3.321048e-05
-9.2093718e-05
-0.16352224
8.199825e-05
0.00017062687
-0.14600817
6.140554e-05
8.7912355e-05
3.1972589e-05
2.9014789e-05
-0.14591753
-9.8996715e-05