/*--------------------------------*- C++ -*----------------------------------*\
  =========                 |
  \\      /  F ield         | OpenFOAM: The Open Source CFD Toolbox
   \\    /   O peration     | Website:  https://openfoam.org
    \\  /    A nd           | Version:  7
     \\/     M anipulation  |
\*---------------------------------------------------------------------------*/
FoamFile
{
    version     2.0;
    format      ascii;
    class       volScalarField;
    location    "290";
    object      T;
}
// * * * * * * * * * * * * * * * * * * * * * * * * * * * * * * * * * * * * * //

dimensions      [0 0 0 1 0 0 0];

internalField   nonuniform List<scalar> 
25278
(
299.99785
299.99826
299.99869
299.99859
300.00126
299.99794
299.99762
299.99776
299.99791
299.99401
299.99612
299.99754
299.99763
299.99879
300.02008
299.99875
299.99832
300.01268
300.02282
300.00668
299.99827
299.99756
299.99779
299.99556
299.99054
299.99542
299.99768
299.99652
300.00077
299.99509
299.99648
300.00382
300.01157
300.00548
299.99698
300.0012
299.99615
299.9983
300.00389
300.00928
300.00549
299.99934
300.00264
299.99536
299.993
299.98972
299.99336
299.99161
299.99009
299.99847
300.0003
300.00899
300.02364
300.01863
300.00631
300.00034
300.00276
300.00912
300.01765
300.01329
300.00638
300.01005
300.01318
300.00446
300.01088
300.01219
300.00565
300.01499
300.02271
300.02066
300.03436
300.0296
300.02302
300.01689
300.01084
300.00229
299.99675
299.99484
299.99728
300.0024
300.00686
300.01994
300.01236
300.02241
300.00474
300.0105
300.0317
300.07398
300.05685
300.03778
300.03356
300.05235
300.0565
300.0872
300.08206
300.05237
300.04623
300.02879
300.02267
300.03993
300.04652
300.0756
300.06744
300.03933
300.05678
300.06314
300.06917
300.12344
300.12787
300.16129
300.08809
300.08294
300.15532
300.1493
300.11801
300.11002
300.14314
300.07022
300.07611
300.07874
300.02415
300.00511
300.00132
300.06335
300.0951
300.13554
300.16508
300.08996
300.03342
300.01101
300.00772
300.00289
300.01466
300.02275
300.06245
300.07892
300.07492
300.08518
300.16032
300.13268
300.12905
300.15596
300.15157
300.07339
300.06367
300.06929
300.05273
300.05862
300.09096
300.05982
300.02387
300.04278
300.03885
300.03388
300.0157
300.02771
300.04624
300.07842
300.12307
300.24957
300.39381
300.36984
300.22779
300.11052
300.0577
300.0631
300.07405
300.06992
300.14096
300.14376
300.11728
300.22815
300.34931
300.36528
301.34309
301.09519
300.36149
300.37894
301.11294
301.36532
300.38078
300.36087
300.24476
300.12998
300.08552
300.05408
300.04785
300.06751
300.12523
300.15339
300.15471
300.08318
300.02748
300.07222
300.07957
300.06606
300.14733
300.39586
301.63748
301.61231
300.37508
300.13299
300.05639
300.04459
300.02788
300.01377
300.00526
300.00054
300.00334
299.996
300.00066
300.01082
300.00486
299.99872
299.99564
299.99752
300.00307
300.0082
300.00163
299.99449
299.99269
299.98814
299.99045
299.99298
299.98726
299.98168
299.98252
299.98394
299.98925
299.99125
299.98608
299.98584
299.98691
299.98633
299.99231
299.99353
299.98936
299.99083
299.99775
300.00604
299.99775
300.00528
300.01741
300.01182
300.00492
299.99931
300.00147
300.00787
300.01576
300.00814
300.01108
300.00307
299.99951
300.00842
300.02251
300.00962
300.0187
300.02105
300.01113
300.00438
300.01307
300.00372
300.00202
299.9996
299.99698
299.98832
299.98681
299.98764
299.99513
299.99635
299.98988
299.98117
299.98224
299.98167
299.98189
299.97851
299.97989
299.97698
299.9807
299.98044
299.97583
299.97499
299.97759
299.97683
299.98172
299.98121
299.98067
299.98275
299.98225
299.98192
299.97956
299.97759
299.9819
299.98757
299.9907
299.98833
299.99171
299.98651
299.98697
299.98764
299.98629
299.9932
299.99552
299.98865
299.9867
299.99066
299.99472
299.99962
300.00868
300.00329
300.00958
300.01883
300.02739
300.01679
300.0279
300.01669
300.00906
300.00264
300.01021
300.02712
300.01835
300.02604
300.01562
300.00742
300.01542
300.02681
300.03922
300.02716
300.05423
300.04028
300.05882
300.04235
300.0201
300.01573
300.01131
300.00782
300.00449
300.00184
299.99642
299.99857
299.99652
300.00174
300.00415
300.00737
300.00097
299.99826
299.9994
299.98791
299.99288
299.99166
299.9865
299.98607
299.98712
299.9921
299.99323
299.98784
299.98854
299.98695
299.98754
299.99443
300.00074
300.00377
300.01112
300.01568
300.00714
300.00325
300.00415
299.99894
299.99497
299.98625
299.98755
299.99198
299.99079
299.98987
299.99384
299.99866
300.00079
299.99544
299.99722
299.99532
300.00044
300.00267
300.00576
300.0034
299.99724
299.99974
300.00677
300.00943
300.00219
299.99947
299.9934
299.99201
299.99102
299.98617
299.98536
299.98573
299.98678
299.98737
299.98616
299.98676
299.99354
299.99513
299.98807
299.9815
299.98111
299.97821
299.97155
299.97456
299.97564
299.97823
299.97736
299.98161
299.98199
299.97758
299.97826
299.97532
299.97295
299.97353
299.97195
299.97433
299.97404
299.9714
299.96956
299.9704
299.97313
299.97661
299.98144
299.98178
299.9767
299.97557
299.97559
299.97136
299.96828
299.96725
299.97073
299.97258
299.97221
299.97383
299.97516
299.9784
299.97779
299.9826
299.98785
299.98698
299.99221
299.99679
300.00226
300.01259
300.02116
300.0428
300.03453
300.02343
300.03178
300.01769
300.02709
300.04462
300.06915
300.05257
300.09447
300.08095
300.06332
300.03972
300.05449
300.09037
300.11334
300.14616
300.08422
300.05275
300.03176
300.05495
300.03538
300.02594
300.02261
300.04049
300.04651
300.05944
300.09609
300.13183
300.17287
300.15925
300.12913
300.07202
300.08448
300.05393
300.04895
300.04224
300.03559
300.02901
300.02355
300.01847
300.01403
300.0104
300.00238
300.0061
300.01517
300.01947
300.00967
300.0056
299.99727
299.99531
299.98974
299.99608
299.98819
299.9902
299.98931
299.99655
299.99474
299.9971
299.99514
299.99358
299.98943
299.98766
299.99446
299.99631
299.98874
299.99154
300.00136
299.9983
300.00386
300.01461
300.02047
300.03567
300.02603
300.03681
300.04805
300.0564
300.04512
300.02578
300.02883
300.03752
300.06234
300.05069
300.09028
300.07852
300.0595
300.04262
300.05491
300.09638
300.07323
300.11814
300.08261
300.06565
300.09611
300.13853
300.15295
300.08879
300.09932
300.17628
300.16784
300.11961
300.08525
300.06084
300.04446
300.03202
300.02321
300.01634
300.00565
299.99863
299.99077
299.98243
299.98312
299.98451
299.98296
299.98038
299.97918
299.98251
299.98106
299.98109
299.9774
299.97645
299.97588
299.97847
299.98248
299.98277
299.97799
299.97568
299.98247
299.98159
299.9838
299.98308
299.98253
299.9799
299.97491
299.97616
299.97879
299.97899
299.97836
299.97792
299.98225
299.98289
299.98276
299.98209
299.97846
299.97176
299.97361
299.97484
299.97247
299.97408
299.97364
299.976
299.97474
299.97207
299.9702
299.97088
299.96868
299.9718
299.97611
299.97717
299.97752
299.97641
299.98253
299.98175
299.98159
299.97773
299.96891
299.97022
299.97514
299.97504
299.98222
299.98174
299.98109
299.98913
299.99811
300.00666
300.01099
300.02087
300.02695
300.0156
300.00998
300.01476
300.02604
300.03433
300.0211
300.00766
300.00405
300.00114
299.99867
300.00214
299.99941
300.00739
300.00392
300.00096
299.9983
300.0005
300.0064
300.00991
300.00687
300.01074
300.01454
300.00718
300.00354
299.99731
299.9954
299.98956
299.98818
299.98928
299.99095
299.99285
299.9909
299.99711
300.00248
300.00857
300.01117
300.0048
300.00913
300.0063
300.01283
300.01612
300.02251
300.01828
300.01076
300.0145
300.02114
300.01614
300.01148
300.02016
300.0153
300.02093
300.01163
300.01686
300.02711
300.03542
300.02744
300.01653
300.0231
300.01063
300.00641
300.00281
299.99982
299.99239
299.99029
299.99138
299.99397
299.99716
299.99486
300.00289
299.99966
300.00216
299.99911
299.99254
299.99492
299.99762
300.0062
300.01126
300.0068
300.01161
300.023
300.03359
300.02509
300.03089
300.03609
300.02625
300.0189
300.01316
300.00405
299.99766
299.9896
299.9903
299.99475
299.9935
299.98359
299.98312
299.97781
299.97785
299.98349
299.98441
299.97612
299.97583
299.97708
299.97666
299.9763
299.97608
299.97602
299.97932
299.97982
299.98473
299.98496
299.98381
299.97883
299.97945
299.97486
299.97474
299.97169
299.97335
299.97307
299.97139
299.97125
299.97295
299.97295
299.97127
299.97566
299.97517
299.98029
299.98039
299.98571
299.98694
299.98118
299.98133
299.98791
299.98634
299.98706
299.98527
299.98385
299.978
299.97873
299.97758
299.97682
299.98375
299.98544
299.98771
299.97883
299.97979
299.98117
299.98917
299.99054
300.00088
300.00495
300.00052
299.99699
299.99393
300.00077
300.00668
300.00853
300.01518
300.02156
300.01419
300.01186
300.00458
300.00672
300.00243
299.99537
299.99887
300.00029
299.99629
300.00347
300.00968
300.01039
300.0171
300.02423
300.01678
300.01588
300.00829
300.00914
300.00412
299.99689
300.00106
300.0064
300.00527
300.00319
300.01255
300.00955
300.01824
300.02146
300.02976
300.04123
300.03091
300.02632
300.01594
300.02028
300.00887
300.01202
300.02363
300.01482
300.02387
300.02514
300.03339
300.04656
300.03629
300.03439
300.04953
300.04416
300.03733
300.02987
300.04134
300.05508
300.04409
300.0312
300.04064
300.0258
300.0177
300.0049
299.99986
299.99576
299.99261
299.99394
299.99118
299.99236
299.99009
299.98868
299.98752
299.98896
299.99011
299.99992
299.9976
300.0003
300.00326
299.99166
299.99388
299.98057
299.98118
299.98091
299.98073
299.98104
299.97468
299.97345
299.97254
299.97422
299.9812
299.98085
299.9806
299.9706
299.97231
299.97374
299.97324
299.96622
299.96915
299.97141
299.97328
299.97317
299.96963
299.96914
299.97324
299.97096
299.97108
299.96693
299.96786
299.96503
299.96666
299.96366
299.96764
299.96547
299.96741
299.96987
299.96633
299.96347
299.961
299.96449
299.96852
299.96569
299.96239
299.95679
299.96079
299.95705
299.96144
299.95887
299.96344
299.96833
299.9752
299.98349
299.98542
299.97585
299.9733
299.97297
299.98298
299.98508
299.99772
300.00295
300.01741
300.02458
300.0157
300.00909
300.00531
300.02248
300.0352
300.0454
300.0309
300.04018
300.02962
300.04476
300.05796
300.07357
300.05691
300.04168
300.05507
300.07205
300.09575
300.07335
300.05446
300.03329
300.02181
300.01369
299.99727
299.99546
299.99992
300.00239
300.01054
300.00652
300.01591
300.00981
299.99346
299.99201
299.98823
299.97724
299.97952
299.98062
299.97191
299.9742
299.97357
299.96887
299.96883
299.96526
299.96549
299.96609
299.96193
299.96778
299.96335
299.96467
299.95994
299.96272
299.97105
299.96843
299.95842
299.9516
299.94538
299.95296
299.94859
299.95627
299.95393
299.96071
299.96775
299.9712
299.96844
299.96002
299.95231
299.96309
299.96268
299.97466
299.98847
299.98825
299.9843
299.9822
299.97005
299.9697
299.96471
299.96631
299.98117
299.98296
299.98724
299.96477
299.97074
299.97389
299.97743
299.9822
299.98284
299.98295
299.98282
299.98249
299.98193
299.98804
299.98921
299.98278
299.98364
299.99111
299.98957
299.9915
299.99373
299.98448
299.98542
299.99716
299.99384
299.99677
300.01076
300.02441
300.03096
300.01673
300.02799
300.0184
300.03565
300.05152
300.06596
300.04876
300.05604
300.07764
300.06216
300.04603
300.05476
300.03618
300.02177
300.02476
300.01378
300.02549
300.01603
300.01598
300.00912
300.00412
299.9948
299.99037
299.99086
299.99172
299.99835
300.01283
300.02284
300.04677
300.02908
300.0467
300.06346
300.07396
300.06979
300.05808
300.11167
300.14074
300.14352
300.11823
300.07606
300.06791
300.04012
300.02302
300.01278
300.0399
300.05749
300.11074
300.22936
300.36297
300.34747
300.22906
300.36326
301.07165
301.31413
300.3729
300.14386
300.14953
300.11836
300.06377
300.02321
300.07689
300.07226
300.1293
300.24149
300.37152
301.10605
301.34333
300.38352
300.24612
300.37872
300.35878
300.15409
300.15311
300.12478
300.06768
300.02772
300.08313
300.07963
300.06632
300.14755
300.39502
301.59817
301.57972
300.3721
300.13332
300.05652
300.02367
300.00901
300.00037
299.99868
300.00682
300.01882
300.00924
300.01097
300.01221
300.00569
300.00457
300.01327
300.01502
300.02273
300.02078
300.01776
300.01018
300.00293
300.00063
300.00651
300.01348
300.00663
299.99865
299.99482
299.99041
299.98357
299.98258
299.98358
299.97798
299.97825
299.98345
299.98984
299.99779
299.99867
300.00567
300.00413
299.99368
299.98398
299.98453
299.97633
299.97643
299.97658
299.97863
299.98328
299.98912
299.99654
300.00155
299.99192
299.99002
299.9882
299.98315
299.97926
299.97695
299.98245
299.98311
299.98744
299.98841
299.98942
299.9901
299.99053
299.9905
299.98998
299.98337
299.98379
299.98512
299.98459
299.99233
299.99301
299.99656
299.99556
299.98593
299.98669
299.9889
299.98773
300.00002
300.00163
300.00948
300.00664
300.00188
299.98663
299.98817
300.00866
300.00043
300.00507
299.99476
299.99549
300.02335
300.04972
300.0363
300.05127
300.07175
300.08846
300.10672
300.08965
300.13114
300.09927
300.1216
300.15548
300.18094
300.16297
300.10549
300.07087
300.07609
300.05255
300.06394
300.09074
300.12913
300.11582
300.18725
300.20308
300.32191
300.27889
300.22488
300.16627
300.12542
300.09446
300.07364
300.05676
300.04357
300.03318
300.02508
300.01416
300.0092
300.0051
300.00185
299.99917
300.00497
300.00747
300.00439
299.99859
300.00125
299.99521
299.99351
299.99522
299.98864
299.98953
299.9973
299.99988
299.99731
300.00446
300.01171
300.0086
300.01294
300.0169
300.00835
300.01209
300.00734
300.0035
300.00023
300.00624
300.00994
300.01272
300.00848
300.00217
300.00584
299.99907
299.99707
299.99504
299.99366
299.98802
299.9891
299.99016
299.99135
299.99362
299.99196
299.99052
299.98905
299.99002
299.99168
299.98833
299.98899
299.9974
299.99767
299.99002
299.9907
299.99784
299.99839
299.99759
299.99749
299.99852
299.99751
299.99734
299.99787
300.00888
299.9998
300.01154
300.02382
300.02176
300.01375
300.00473
300.00418
300.01097
300.02095
300.01297
300.01085
300.00302
299.99854
300.00729
300.02048
300.00976
300.0189
300.01546
300.00753
300.0011
300.00797
299.99945
300.00182
300.00358
300.00428
299.99331
299.99291
299.98271
299.98203
299.98187
299.97639
299.97425
299.97446
299.975
299.97501
299.97864
299.98339
299.98337
299.9781
299.97369
299.9703
299.97083
299.9725
299.97202
299.97169
299.96988
299.97368
299.97858
299.97896
299.98408
299.98432
299.98545
299.98498
299.99032
299.99668
299.99808
300.00381
300.0103
300.01522
300.00819
300.0103
300.0055
300.01221
300.01769
300.02502
300.02177
300.01843
300.01486
300.02103
300.02591
300.01618
300.01042
300.00231
299.99969
300.00293
300.00643
299.99635
299.99403
299.9921
299.99374
299.99145
299.99266
299.99957
300.00295
300.00107
300.00504
300.01362
300.0206
300.03054
300.03525
300.02469
300.0165
300.00763
299.99845
299.99627
299.99947
300.01024
300.01396
300.00264
300.00544
300.00032
299.9966
299.9953
299.98788
299.98667
299.98583
299.97996
299.97946
299.97921
299.97383
299.97509
299.97142
299.96958
299.96688
299.96736
299.96799
299.96876
299.96606
299.97007
299.97557
299.97686
299.98246
299.9822
299.98322
299.98337
299.97717
299.97577
299.96951
299.97194
299.97185
299.97771
299.98456
299.98464
299.97631
299.97724
299.9785
299.98601
299.9865
299.98696
299.98455
299.98288
299.98183
299.99062
299.99989
300.00308
299.99194
299.99449
299.99278
300.00311
300.01337
300.01942
300.03168
300.04176
300.02729
300.02043
300.02832
300.03706
300.05487
300.06844
300.05164
300.03904
300.026
300.01831
300.02398
300.03387
300.04845
300.06476
300.0475
300.03617
300.04899
300.06514
300.08782
300.11113
300.07958
300.05824
300.04333
300.03039
300.03653
300.05295
300.06896
300.09636
300.07849
300.06222
300.08812
300.11669
300.14179
300.1665
300.10932
300.07673
300.06143
300.04181
300.02813
300.01891
300.01202
300.00668
300.01347
300.01944
300.02082
300.01453
300.00763
300.0132
300.00555
300.00448
300.0006
299.99352
299.99423
300.00145
300.00179
300.00802
300.01497
300.02716
300.03659
300.05845
300.06152
300.04868
300.04622
300.02589
300.03533
300.05899
300.09459
300.09986
300.14236
300.18172
300.16861
300.0886
300.08225
300.14867
300.16645
300.13546
300.08213
300.05291
300.03201
300.04964
300.0267
300.01771
300.02234
300.0397
300.03185
300.04343
300.06567
300.10975
300.10064
300.08362
300.11269
300.0678
300.05309
300.03506
300.04039
300.04611
300.05135
300.05583
300.05834
300.05908
300.05762
300.04123
300.03862
300.02741
300.02921
300.02053
300.03042
300.01928
300.01712
300.00979
300.01128
300.00163
299.99752
299.98967
299.98893
299.98745
299.98677
299.98057
299.9808
299.97998
299.97413
299.97528
299.9713
299.96945
299.96945
299.97126
299.97556
299.97453
299.97288
299.97235
299.97198
299.96916
299.96918
299.96379
299.96487
299.96065
299.9626
299.9673
299.97388
299.97167
299.98131
299.98231
299.97111
299.97381
299.96619
299.96168
299.96368
299.95809
299.95495
299.94735
299.95232
299.95911
299.96891
299.98073
299.9937
300.00715
300.01243
299.99612
299.99951
299.99668
300.0122
300.0071
300.01231
300.00709
299.99566
299.99814
300.0032
299.99935
300.01188
300.01899
300.02865
300.01912
300.00133
300.00526
300.0278
300.01874
300.02755
300.01966
300.03893
300.05236
300.06695
300.05036
300.07157
300.10131
300.11898
300.21245
300.18151
300.15836
300.24886
300.15329
300.17675
300.30458
300.49894
300.25902
300.26485
300.33234
300.27639
300.57991
300.63303
300.46612
300.94226
300.44326
300.24932
300.24738
300.36768
300.48012
300.52276
300.27616
300.32194
300.55925
301.75389
301.6374
300.92451
301.68942
301.85722
303.08138
302.79922
302.72648
301.68918
300.55392
300.2618
300.17447
300.09938
300.06243
300.03756
300.02886
300.02586
300.03453
300.0569
300.04532
300.05077
300.09048
300.07918
300.08983
300.15502
300.13985
300.16661
300.12898
300.09088
300.06401
300.04658
300.03338
300.02422
300.0171
300.01039
300.00968
300.01634
300.02322
300.01585
300.01677
300.02511
300.0238
300.03204
300.04458
300.03434
300.03626
300.02541
300.01365
300.00633
300.00104
299.9969
299.99635
300.00348
300.00824
300.00026
299.99889
299.9955
300.00246
300.00855
300.01517
300.01317
300.00674
300.01185
300.01414
300.02154
300.0189
300.02622
300.02973
300.02135
300.01815
300.02619
300.03078
300.04128
300.03612
300.0309
300.02248
300.01614
300.0112
300.02054
300.0297
300.04486
300.02317
300.0148
300.02618
300.03576
300.04834
300.03705
300.05533
300.07388
300.09746
300.11998
300.09746
300.05987
300.04286
300.06634
300.08373
300.05965
300.04071
300.02773
300.01716
300.00958
300.00417
299.99681
299.99778
299.9936
299.99017
299.98506
299.98806
299.99097
299.99116
299.9955
299.99693
300.00106
300.00404
300.01185
300.00157
299.99753
299.99664
299.99869
300.00303
299.99986
300.00589
300.01124
300.00297
300.00386
300.00907
300.01719
300.01021
300.01929
300.0282
300.01422
300.00585
300.02775
300.0548
300.02771
300.01742
300.02835
300.04299
300.02765
300.03998
300.02692
300.01903
300.00996
300.00361
300.01098
300.01656
300.00854
300.01645
300.00796
300.00006
299.98965
299.99624
300.00014
299.99588
299.99347
299.98761
299.98723
299.98906
299.99226
299.99384
299.98715
299.98839
299.98203
299.98326
299.98002
299.98121
299.98275
299.98374
299.98209
299.9785
299.97758
299.97734
299.97732
299.97731
299.97742
299.9776
299.97785
299.97812
299.97831
299.97835
299.97828
299.978
299.9776
299.97331
299.97307
299.97149
299.97632
299.97703
299.97183
299.97221
299.97353
299.97376
299.97251
299.97804
299.97766
299.97708
299.97613
299.9751
299.96909
299.96958
299.96616
299.96549
299.97313
299.9746
299.97608
299.96702
299.97013
299.97053
299.97755
299.97666
299.96756
299.96359
299.96264
299.96112
299.96012
299.97005
299.97225
299.96836
299.96514
299.95197
299.9535
299.95652
299.97312
299.97479
299.99064
299.99263
299.99991
299.99582
300.01729
300.03667
300.0424
300.06033
300.03924
300.03912
300.05255
300.04958
300.06111
300.08598
300.07124
300.0761
300.06017
300.04205
300.02453
300.02116
300.01167
300.00511
300.01468
300.02342
300.01999
300.01239
300.00667
300.0046
300.00087
299.99417
299.99712
300.00048
300.00304
300.00848
300.00468
300.01568
300.00944
300.00623
300.00229
299.9993
300.00492
300.00271
300.00868
300.01294
300.00648
300.00919
300.01448
300.01087
300.01834
300.02517
300.01621
300.02107
300.01116
300.00088
299.9978
299.99521
299.99291
299.99143
299.99743
299.99995
299.99333
299.99162
299.99022
299.99584
300.00084
300.00659
300.00417
299.99877
300.00142
300.00386
300.01011
300.0072
300.01104
300.01469
300.00746
300.00438
300.00786
300.01174
300.02034
300.01564
300.02126
300.02729
300.03369
300.04141
300.04889
300.05624
300.0441
300.03721
300.05166
300.06244
300.07828
300.06651
300.08946
300.10775
300.12057
300.10623
300.11539
300.18278
300.19975
300.18099
300.16293
300.13967
300.08545
300.05468
300.03593
300.03058
300.01604
300.01018
300.02402
300.03531
300.04582
300.02714
300.03591
300.06117
300.07361
300.07429
300.0617
300.04518
300.02886
300.04334
300.07308
300.10533
300.06892
300.08508
300.09677
300.17009
300.13949
300.11053
300.0734
300.03556
300.01876
299.99006
299.98071
299.97739
299.96779
299.94268
299.95514
299.95546
299.95732
299.94917
299.9539
299.94656
299.95339
299.96558
299.9802
299.98049
299.98151
299.96752
299.96284
299.94786
299.9557
299.95261
299.95999
299.96537
299.97422
299.9712
299.98421
299.98737
299.97227
299.97526
299.96498
299.95714
299.95878
299.95177
299.94875
299.9589
299.95032
299.968
299.967
299.98361
299.98253
299.96113
299.96163
299.98784
299.98778
300.00842
300.01507
300.04133
300.06162
300.04154
300.02724
300.0174
300.00385
300.00996
300.01808
300.00877
300.02308
300.0364
300.05742
300.03353
300.01902
300.03172
300.05837
300.09023
300.12177
300.07303
300.04472
300.02803
300.01329
300.02605
300.03164
300.01644
300.00738
299.99526
299.9936
299.99127
299.9888
299.98767
299.97954
299.97862
299.98024
299.98068
299.98937
299.9909
299.98178
299.98154
299.98103
299.98141
299.98802
299.98823
299.98292
299.98217
299.98211
299.97615
299.97423
299.9758
299.97127
299.96954
299.97494
299.97524
299.97602
299.9713
299.96964
299.96698
299.96679
299.96662
299.96665
299.9624
299.96293
299.95903
299.96053
299.96211
299.96368
299.96518
299.96645
299.9685
299.97475
299.98086
299.98765
299.99147
299.99598
299.99821
299.99822
299.99831
299.99637
299.99734
299.99359
299.98731
299.98967
299.98372
299.98059
299.97896
299.98314
299.98587
299.98077
299.97941
299.97581
299.97535
299.97352
299.97706
299.9773
299.9736
299.97551
299.97746
299.98045
299.98324
299.98142
299.97873
299.97725
299.98356
299.99109
299.9963
299.98818
299.98987
299.9927
299.99583
299.99235
299.98829
299.98548
299.98809
299.98604
299.98318
299.98183
299.98397
299.98675
299.98477
299.98708
299.98822
299.9901
299.99381
299.99204
299.99007
299.99092
299.98896
299.98824
299.99268
299.99026
299.98642
299.98406
299.98591
299.98293
299.98016
299.97726
299.97861
299.97674
299.97845
299.97879
299.98402
299.99002
299.98662
299.98384
299.9795
299.98004
299.9782
299.97783
299.97425
299.97582
299.97639
299.9745
299.97652
299.97971
299.98142
299.98389
299.98238
299.97962
299.98108
299.97809
299.97543
299.97335
299.97272
299.97274
299.97235
299.97157
299.97209
299.97036
299.97099
299.97052
299.96974
299.96999
299.97156
299.97233
299.97341
299.97265
299.97116
299.97189
299.97065
299.96904
299.96988
299.96871
299.96922
299.96872
299.96771
299.9683
299.96577
299.96684
299.96653
299.9653
299.9661
299.96819
299.96968
299.9705
299.96893
299.96693
299.96512
299.96682
299.96957
299.97286
299.97236
299.97217
299.9717
299.96991
299.97047
299.96966
299.97136
299.97074
299.96895
299.96909
299.96998
299.97161
299.9726
299.97111
299.97014
299.97162
299.97063
299.96979
299.97174
299.97577
299.9806
299.97572
299.97195
299.97064
299.97446
299.97425
299.97009
299.97226
299.9738
299.97182
299.9726
299.97343
299.9749
299.97245
299.97716
299.97572
299.97615
299.97431
299.97523
299.97452
299.97365
299.97161
299.97227
299.97122
299.96978
299.96843
299.96817
299.96876
299.96765
299.96697
299.96463
299.96606
299.96641
299.9683
299.96714
299.96869
299.96734
299.96531
299.96308
299.96473
299.96408
299.96533
299.9646
299.96444
299.9625
299.96276
299.95898
299.96141
299.96154
299.95908
299.96098
299.96376
299.96635
299.96807
299.97057
299.97165
299.97271
299.97371
299.97428
299.97613
299.9757
299.97482
299.97518
299.97309
299.97198
299.97281
299.97753
299.979
299.97765
299.97973
299.97955
299.97736
299.97698
299.97703
299.9793
299.97927
299.97933
299.97909
299.97654
299.97439
299.97416
299.97363
299.97374
299.97074
299.96978
299.97102
299.97681
299.97613
299.97622
299.97921
299.97969
299.97668
299.97673
299.9769
299.97694
299.97712
299.97876
299.98145
299.98475
299.99198
299.99687
299.99761
299.99299
299.99049
299.98606
299.98853
299.98857
299.98747
299.98484
299.98273
299.98375
299.98651
299.98551
299.98459
299.9821
299.98508
299.98425
299.98298
299.98117
299.98116
299.98301
299.98309
299.98288
299.981
299.98124
299.98157
299.98098
299.98139
299.98463
299.98442
299.98425
299.98551
299.98556
299.98558
299.9843
299.98454
299.9857
299.9862
299.98567
299.98626
299.98504
299.98356
299.983
299.98357
299.98441
299.98223
299.98133
299.98186
299.98153
299.98107
299.9816
299.98469
299.98439
299.98384
299.98361
299.98356
299.98222
299.98034
299.97885
299.97844
299.97812
299.97841
299.97618
299.9758
299.97556
299.973
299.97356
299.973
299.97006
299.96953
299.97057
299.96977
299.97082
299.96921
299.97078
299.96984
299.96881
299.96905
299.96996
299.9707
299.96884
299.968
299.96702
299.96801
299.96993
299.96937
299.96833
299.96607
299.96727
299.96661
299.96878
299.96752
299.96517
299.96507
299.96607
299.96709
299.96812
299.96618
299.96578
299.96656
299.96547
299.96453
299.96133
299.96305
299.96388
299.96593
299.96766
299.96653
299.96823
299.96723
299.96901
299.96797
299.96711
299.9681
299.96623
299.9641
299.96534
299.96365
299.96494
299.9623
299.96458
299.96309
299.96058
299.95953
299.96326
299.96443
299.96349
299.96203
299.95768
299.95877
299.96235
299.96109
299.96413
299.96638
299.96874
299.9732
299.97873
299.9818
299.97474
299.97579
299.97898
299.97613
299.97518
299.97813
299.97747
299.97393
299.97239
299.97304
299.97363
299.96968
299.96911
299.9678
299.96996
299.97093
299.96853
299.96928
299.97015
299.97093
299.97318
299.97388
299.97304
299.9724
299.96998
299.96887
299.97186
299.97247
299.97204
299.97252
299.97556
299.97549
299.9785
299.97829
299.9782
299.97861
299.97934
299.9789
299.97554
299.97266
299.96924
299.96701
299.96546
299.96238
299.96134
299.96123
299.96431
299.96225
299.96193
299.95863
299.95859
299.95421
299.95841
299.95869
299.955
299.95444
299.94882
299.95003
299.95473
299.95753
299.96047
299.96262
299.96576
299.96751
299.96443
299.9623
299.96412
299.96191
299.96377
299.96553
299.96858
299.97222
299.9721
299.97248
299.9683
299.96764
299.96686
299.96787
299.96863
299.97285
299.97326
299.97323
299.96952
299.9684
299.97292
299.97719
299.97684
299.98031
299.97947
299.98011
299.97627
299.97668
299.97591
299.97976
299.98044
299.97636
299.97582
299.97594
299.97548
299.97532
299.9754
299.97564
299.97803
299.97791
299.97772
299.97769
299.97509
299.97498
299.97503
299.97822
299.9782
299.97885
299.97911
299.97535
299.97146
299.96771
299.9687
299.96764
299.96404
299.96118
299.95969
299.96003
299.95534
299.9555
299.95192
299.95722
299.95763
299.95169
299.94384
299.9494
299.95031
299.94399
299.9419
299.94499
299.9373
299.92872
299.94206
299.93672
299.91948
299.93801
299.94247
299.92908
299.93797
299.9571
299.96191
299.98013
299.9998
300.00548
300.02955
300.03938
300.0096
300.00358
300.01043
300.0393
300.06641
300.08995
300.1175
300.09311
300.12021
300.09081
300.07121
300.0981
300.12633
300.16286
300.20486
300.15132
300.11739
300.0877
300.11886
300.08968
300.11725
300.15561
300.20006
300.15705
300.20741
300.16158
300.10933
300.08663
300.0669
300.04416
300.01519
300.03217
300.04106
300.02027
300.05713
300.07489
300.05397
300.01715
300.0334
300.0236
300.0583
300.07895
300.10475
300.04485
300.02798
300.04947
300.06161
300.14029
300.21444
300.1785
300.1406
300.10362
300.13953
300.1994
300.28712
300.18651
300.22333
300.32655
300.41394
300.41077
300.27149
300.33238
300.45091
300.40714
300.54566
300.58565
300.43604
300.28506
300.24185
300.3941
300.48948
300.3009
300.36599
300.2661
300.35859
300.27381
300.21042
300.15404
300.12661
300.17302
300.26219
300.18002
300.20669
300.30325
300.41062
300.36774
300.23084
300.29367
300.46205
300.54393
300.78751
300.55807
300.39241
300.25838
300.24801
300.14641
300.09378
300.10347
300.06686
300.04525
300.03137
300.05027
300.08358
300.06099
300.04939
300.09178
300.11626
300.14422
300.16587
300.18722
300.11909
300.08271
300.0847
300.06867
300.04658
300.03142
300.02129
300.01377
300.02142
300.02136
300.01493
300.00795
300.01369
300.00594
300.00604
299.99793
299.9945
299.99443
300.00173
300.0013
299.99277
299.98885
299.98915
299.99724
299.99634
299.98969
299.9819
299.98108
299.97609
299.97423
299.9742
299.97618
299.98208
299.9826
299.98196
299.98193
299.98831
299.99152
299.98992
299.9875
299.99489
299.99357
299.98939
299.99257
299.98335
299.98182
299.98178
299.97699
299.97644
299.97427
299.97456
299.98129
299.98076
299.98826
299.98687
299.98632
299.98848
299.99221
299.9971
299.99927
299.99675
300.00467
300.01402
300.00531
300.01182
300.00458
300.0013
299.99831
300.00263
300.00805
300.01478
300.02098
300.03356
300.03441
300.02303
300.01223
300.00658
300.00578
300.02533
300.01535
300.02557
300.03825
300.05089
300.06605
300.07529
300.05863
300.04019
300.05277
300.03653
300.02633
300.03542
300.01813
300.00762
299.99675
300.00145
299.99521
299.99025
299.98974
299.98645
299.9807
299.98219
299.97892
299.97773
299.97511
299.97596
299.98068
299.98673
299.99458
299.99678
300.00443
300.00639
300.00853
300.01022
300.01204
300.01334
300.01445
300.00747
300.01298
300.02067
300.01923
300.01174
300.00647
300.00042
299.9933
299.99405
299.99725
299.99783
300.00196
300.00218
300.01194
300.02014
300.0081
300.0076
300.01968
300.01173
300.02112
300.02989
300.03003
300.04229
300.04196
300.03104
300.02941
300.02008
300.02891
300.04045
300.0375
300.02697
300.01834
300.02685
300.01578
300.01813
300.01077
300.0053
300.00419
299.99631
299.99977
300.0011
300.00619
300.00421
299.99267
299.99419
299.99538
299.99584
299.99242
299.99198
299.98256
299.98207
299.9823
299.98155
299.98149
299.98819
299.9899
299.99
299.98223
299.97535
299.97538
299.97609
299.97129
299.96968
299.96963
299.97124
299.97607
299.97594
299.98126
299.98787
299.98943
299.98188