/*--------------------------------*- C++ -*----------------------------------*\
  =========                 |
  \\      /  F ield         | OpenFOAM: The Open Source CFD Toolbox
   \\    /   O peration     | Website:  https://openfoam.org
    \\  /    A nd           | Version:  7
     \\/     M anipulation  |
\*---------------------------------------------------------------------------*/
FoamFile
{
    version     2.0;
    format      ascii;
    class       volScalarField;
    location    "360";
    object      omega;
}
// * * * * * * * * * * * * * * * * * * * * * * * * * * * * * * * * * * * * * //

dimensions      [0 0 -1 0 0 0 0];

internalField   nonuniform List<scalar> 
25278
(
155.26005
148.85227
148.32994
148.32998
142.77165
148.85206
155.60935
155.26008
155.60935
155.56385
154.48388
154.01834
150.86895
147.25048
151.39487
148.28823
148.83804
152.89991
161.62153
155.37296
150.67219
149.19522
147.88064
151.37147
153.6024
151.37151
147.88046
150.63243
151.07775
152.57076
154.70527
153.16446
159.77013
155.26903
156.95409
157.52109
158.10065
159.94579
159.31973
164.5926
161.35232
161.9577
164.87581
165.31233
160.18367
155.7348
152.61595
154.08215
157.59084
156.69762
158.20113
156.92445
170.00055
165.19502
161.17242
161.69546
163.53259
163.02463
171.33817
167.8732
168.11145
171.26993
173.99587
164.87213
164.52267
165.42497
165.73573
175.61041
176.08065
174.27423
188.64128
182.63257
176.52123
171.00866
166.00825
163.07206
156.94789
152.56832
149.19245
146.63768
143.55211
151.31163
152.84732
161.25707
148.53003
145.53594
161.48141
181.70816
167.6578
156.25064
157.98753
170.08522
167.96151
196.27069
196.66654
169.78384
169.39228
158.37762
160.72003
172.099
169.6642
196.45718
196.22189
171.85532
186.86324
183.51646
184.27667
241.81436
240.83396
299.77775
197.22171
201.82833
310.05024
319.48758
241.88776
241.57657
329.25566
205.96557
200.50479
200.70894
161.30705
148.52612
142.75909
168.39332
197.1618
241.83177
300.62925
197.42597
161.54976
145.53424
143.53711
146.61822
152.8637
151.35974
167.92251
182.0128
184.60007
202.07923
311.13128
242.96703
243.13057
320.86372
330.99015
206.26059
187.20441
183.83284
169.62046
170.06379
197.57944
170.53922
151.49363
156.39383
158.11775
158.47722
152.94946
160.80629
172.07298
197.05591
242.94025
373.40927
697.15566
692.90932
369.72565
244.61091
188.00475
184.56274
202.79848
208.60881
342.73417
330.68404
244.71142
366.70872
647.04498
723.27841
1259.3494
1095.7791
622.6314
625.84073
1075.723
1232.3313
727.29876
651.4316
369.81562
247.58427
197.37087
170.04933
172.48214
189.15036
247.69941
354.14056
340.20186
205.49766
162.05235
185.67049
211.66078
208.74332
367.14536
818.02183
1434.1259
1471.3402
814.73148
353.57496
205.88554
186.8802
171.57646
161.34195
155.25785
151.07156
153.13495
154.69485
157.49395
159.68659
161.30114
161.92091
158.08725
159.91252
159.26755
164.48149
164.79539
165.2586
162.09951
157.85228
153.71537
152.61547
155.47174
159.54368
159.78213
157.47922
155.73217
158.41699
159.26121
162.86735
165.73976
161.02967
160.16442
161.82438
157.57976
154.08148
150.66187
155.30426
156.66861
161.08017
164.92706
167.65417
167.94461
161.63907
163.43491
162.88509
170.97992
170.99174
173.61299
164.74421
158.15902
156.82999
169.54098
164.34225
173.78188
175.56018
165.24666
165.61317
175.21899
175.12494
173.66131
171.23682
168.34472
168.69758
162.64933
164.30779
163.4817
164.70066
158.89796
160.61656
159.29381
163.00496
161.42312
162.30238
160.61619
164.05113
163.22699
166.21295
166.79381
169.57806
163.85715
165.41464
164.54007
171.68002
169.09112
172.87873
171.00483
169.03372
167.56839
165.22095
159.54376
155.47228
153.71712
157.85667
158.4251
159.26258
161.04179
165.76994
162.87803
162.12432
166.68344
163.89394
167.2787
168.70643
168.67404
168.4979
171.19007
166.4977
173.38345
172.77912
180.55881
180.10706
192.08597
180.92992
173.31766
166.43748
165.93804
171.36844
172.69222
180.20912
170.80442
171.02725
179.82916
191.75072
192.53207
180.81954
194.94282
192.94223
210.85891
208.50306
198.20283
191.64974
185.41455
180.44999
175.76155
171.91399
172.10647
174.81123
170.85298
170.6703
174.88733
179.46869
179.44549
175.8535
173.20147
173.90354
175.82997
172.06151
172.33782
169.01833
171.07335
170.77832
174.80799
174.90074
179.35357
175.98078
180.47136
180.30257
180.52779
184.79505
185.15031
191.32322
190.99913
185.33922
180.81386
173.15091
166.6538
167.26466
173.8715
175.73106
171.98758
168.66059
168.61162
168.41844
171.79993
172.02207
174.65332
170.74446
170.53741
174.6948
179.20158
175.62382
175.73874
180.36809
180.27842
184.78528
184.48991
179.22149
179.18401
174.68287
170.69176
171.0126
168.98625
172.28329
174.79852
179.20542
175.90518
180.36741
180.17844
184.34391
184.27165
184.19306
180.14936
173.75861
174.56961
168.27017
169.53077
169.40702
172.62412
172.26334
174.87907
175.05831
171.38094
171.42368
171.82063
169.91313
173.05413
172.69017
175.19348
175.40604
179.56066
176.4966
176.23818
176.12662
175.87155
179.23457
179.32966
184.2189
180.4627
180.40232
180.71751
184.31004
184.23855
179.43259
182.52924
177.63233
173.23514
173.20328
177.53919
177.42949
177.39149
172.90549
172.64467
172.73327
172.60238
176.15096
176.07068
185.80836
189.03321
188.5595
198.92051
181.54235
181.81486
200.43427
228.83205
207.5339
239.46464
235.20302
232.29451
206.42982
226.73703
271.25639
277.09709
351.84205
259.00975
212.81061
187.41381
203.38776
191.14829
190.26608
186.74548
210.81532
220.67862
223.50469
290.80613
337.25921
487.02084
497.19001
349.93377
256.74002
290.52504
256.04968
244.33883
232.04668
221.14524
211.6107
203.78246
196.80398
190.89997
185.23584
185.17789
191.43407
191.51874
198.51824
197.79332
190.62832
190.32273
184.90025
181.05094
185.03192
185.0781
190.38901
184.48851
184.60892
179.38434
182.94566
177.55729
172.77166
168.76772
162.67378
161.86934
163.54101
164.34623
171.55844
171.4394
168.46513
172.79856
176.53219
182.24918
200.70093
189.36457
189.95849
202.41975
216.11013
213.9099
187.81497
191.41409
192.48628
227.38192
224.33896
303.13707
265.48067
230.70808
207.84713
209.06348
242.74562
232.90665
284.00618
236.90091
234.00689
278.28828
372.07514
371.46968
267.39844
302.47097
527.75655
546.01558
422.79763
323.24351
264.76997
231.76387
209.6366
195.49688
184.85399
175.40465
165.56569
158.91486
160.61945
159.29538
157.48029
159.78387
160.61477
162.30416
161.43093
166.22759
163.22966
164.05095
166.79881
169.59208
163.86046
163.01956
164.55866
165.42355
172.11309
171.76085
169.1281
172.95344
171.05451
169.05976
167.57955
168.27045
169.54205
169.42402
171.41265
175.11031
172.65561
172.30411
174.95998
179.34498
175.92675
173.7784
174.58121
176.26385
172.70678
173.06339
169.91861
171.83367
171.45059
175.23004
175.42803
179.60009
176.51474
180.74614
180.45134
180.52486
176.1747
179.41353
184.34078
184.36918
180.23623
184.82023
180.90998
181.35012
184.87304
184.98963
190.0058
190.15527
196.82527
190.50964
191.03333
190.95864
191.57026
198.19489
198.98845
207.35351
206.52936
197.79795
206.21689
207.01454
217.90366
216.38302
215.34611
205.76169
197.66141
190.66126
196.61436
189.23194
189.58204
183.15024
177.64878
172.89835
175.19693
175.15726
180.89198
177.73506
183.20699
187.37883
187.06928
180.57813
180.37471
174.94804
175.15264
173.00721
177.55383
180.27128
183.03993
177.0664
176.95085
177.27822
177.35623
179.67616
179.5369
186.69075
183.61875
184.00138
187.36286
196.54761
191.75709
191.33171
195.84264
207.62512
200.87703
194.87442
195.74231
189.98138
197.6214
197.20426
204.31351
205.24468
217.37336
207.01639
206.12802
215.66623
214.44319
203.43822
194.30211
186.73023
186.42449
182.81143
188.93048
193.77379
199.15629
190.26902
190.77575
183.28753
186.19571
179.05463
179.12203
185.81893
194.30699
195.05879
206.40371
200.01024
211.5286
212.87717
214.01033
201.8876
209.27749
216.91324
201.3834
190.45273
181.70697
173.94074
164.78697
165.52291
166.28238
175.18857
173.85668
173.88436
165.69254
166.50861
167.19483
166.38847
175.10474
175.23803
174.11139
180.15237
178.69285
176.93506
175.19614
173.26934
173.25524
175.28534
174.99607
180.16756
177.55375
177.62502
180.15919
180.14548
177.69605
177.82833
173.60717
175.54002
180.21672
182.55407
177.21557
178.94704
184.80273
184.93848
182.58595
182.69514
177.06662
176.85063
178.7662
178.94704
185.18634
185.44608
182.82438
189.81652
186.17974
182.7047
182.65108
185.98944
192.8971
188.49118
188.6848
193.3124
198.3872
197.69003
189.44859
192.99867
193.6255
204.02612
205.20857
211.82492
198.42828
188.4848
180.8107
180.84085
181.42157
183.2288
183.58942
193.39061
192.36771
189.69995
189.03359
191.5431
182.51257
182.42525
190.8557
192.64691
183.47413
183.62523
184.4147
185.07634
185.55229
196.62925
195.43667
194.41252
193.46995
194.43135
184.24267
184.07237
193.57095
207.05073
205.43006
202.31724
203.58769
199.44764
200.50882
204.88411
206.01215
225.15304
222.65008
215.1017
213.47928
220.67356
218.62846
224.50395
226.89187
206.91469
208.39998
210.2099
211.54996
235.55475
232.6563
229.15956
262.32839
249.31149
235.55617
223.16605
224.93354
246.79483
229.69415
227.77627
243.57881
241.09666
221.33808
219.4942
210.27064
202.61679
196.12425
204.5741
197.2588
205.12449
196.91643
190.9318
184.97385
190.12534
196.94401
197.31113
190.85504
197.15461
205.48629
204.88607
214.43514
213.59907
204.54792
196.43876
190.43065
184.73902
184.91406
190.63692
196.36044
189.8488
189.94321
196.59796
204.33953
203.89983
196.34872
190.70473
196.55796
196.28567
189.88459
184.32327
179.49323
182.63689
182.67094
185.7714
185.85714
192.5713
188.35054
188.26418
184.3746
189.83918
185.07986
190.60501
190.35482
196.00993
190.2987
184.82639
185.04434
190.57503
196.03397
189.75877
189.76786
196.1499
203.5141
203.2395
196.04452
203.33684
196.14547
202.39905
194.78918
195.01997
195.31921
195.6827
201.85918
201.1852
211.14071
203.32781
203.91669
212.18538
213.29061
224.18729
225.99578
243.7794
227.60821
215.51496
205.34105
216.66695
217.63944
231.06638
229.27391
245.24114
229.01129
230.67473
248.18859
271.08008
248.2825
246.216
270.12737
273.37592
307.94839
302.78027
268.06213
265.10111
243.1668
227.52563
226.14315
214.49289
226.03095
241.13389
262.13231
241.425
263.51909
238.52612
235.82377
217.67212
209.06083
207.91479
215.86315
202.9292
201.90992
192.46485
189.13494
188.90023
192.02364
201.03111
196.55775
192.32095
200.09927
200.60347
210.21981
202.82998
211.9314
203.66392
204.07997
212.87281
212.23135
211.70263
221.66977
211.29833
220.54045
209.41691
217.58873
205.95341
206.8766
197.09063
214.14999
212.57784
227.73623
230.35221
219.09745
220.71627
222.44032
239.01611
224.52168
213.54716
212.70243
223.08394
237.23707
223.69144
224.88204
239.1726
259.08793
255.99193
236.6337
255.94728
233.09344
249.74474
225.38241
208.60196
196.56733
187.53468
180.4717
180.38174
181.86516
181.90041
189.59723
190.16754
187.95629
197.46763
201.07514
199.9017
214.40271
216.53451
210.21398
228.0502
230.6418
233.13204
246.42213
243.30849
282.92349
257.79548
261.31302
264.51747
267.77332
237.58957
251.78315
295.56759
290.81816
287.21793
315.64711
259.10257
255.53362
262.75419
227.72773
230.27537
208.64399
208.27306
194.2782
184.17561
175.14099
166.26954
158.90468
154.07276
150.66063
152.83685
161.47533
169.30746
158.29656
169.38651
183.88662
202.10564
207.73803
187.24438
242.09452
337.22412
326.41757
242.46114
195.95305
195.7362
171.83491
160.63942
152.80355
171.77608
186.94184
241.36866
365.0881
707.30773
634.9814
362.64039
615.69431
1069.5068
1225.4644
684.26653
329.7322
319.61038
241.55149
183.54284
161.26034
200.61596
185.80495
248.34442
370.52979
621.16774
1067.9318
1221.7179
691.77266
374.40314
740.70087
661.48527
342.84785
357.60736
248.5422
189.33633
162.0891
205.85188
212.06898
209.10806
371.5237
835.85754
1418.9736
1425.5486
793.74214
346.49031
205.00363
169.86737
156.89498
158.18828
156.66328
155.3287
165.02064
162.92833
164.43645
165.39476
165.71369
164.80319
173.80473
175.5334
175.98376
174.04897
171.11224
171.07925
163.46379
161.63126
161.09807
167.69838
167.96778
168.34541
161.81707
157.56932
159.27779
160.61322
166.37483
167.18806
166.48936
165.66708
165.48866
164.73642
165.55181
175.34861
173.78668
173.74351
173.80696
175.07247
175.21692
174.06137
172.06284
165.40149
164.53044
164.30723
163.48784
171.28626
171.45058
168.68841
162.634
162.98664
163.83485
169.55342
169.07003
171.68745
178.57054
180.16736
181.66762
182.70308
183.35893
183.40907
182.85719
182.8273
183.36139
191.95313
191.16061
191.84582
192.70393
205.49089
203.9781
202.56634
203.97518
222.23598
219.46437
222.03159
225.04656
258.45311
251.5611
239.9402
236.33694
272.19883
277.96153
253.94997
291.9406
259.88753
290.30123
294.88936
299.01419
266.96044
301.61891
305.6082
308.39931
359.64014
357.20541
459.74701
360.25575
363.61706
463.62098
613.60366
626.95646
424.80559
319.23397
338.02701
269.94563
272.3837
342.60597
473.10826
479.80171
815.43843
785.90506
1339.4096
910.4942
591.32227
426.81772
345.3533
296.75543
267.36025
245.7726
229.89356
216.59332
206.0306
205.21287
196.46389
189.03812
182.76308
177.39239
177.43169
180.43578
174.86519
174.95886
180.19132
180.05456
177.35928
182.63292
182.54896
188.54442
188.77625
193.506
186.22083
186.48176
186.69983
182.7745
189.37081
194.70197
193.97592
199.42083
190.42836
183.0629
176.95256
176.97053
183.35886
186.47405
179.17153
179.10698
185.94253
185.55261
182.81415
176.68065
174.75543
174.99773
180.01409
186.0046
193.10484
198.05332
189.60861
182.66054
176.85153
171.43778
173.67191
165.47264
166.23261
165.48865
165.48819
158.89639
154.07272
148.83762
148.28747
155.21357
155.59343
147.1935
147.84098
149.17082
150.65435
156.83197
158.16315
165.25563
169.58954
175.59844
175.24873
165.62753
164.76123
164.36586
173.8503
173.67846
171.04943
163.45108
156.66077
155.30839
164.98708
162.90693
171.06551
167.70939
161.09617
161.64017
167.98541
168.36766
171.2799
173.71249
175.15317
175.0269
175.01189
174.99833
173.77853
165.66326
166.49776
174.05791
172.07998
176.84158
175.13787
175.19849
174.87708
179.96633
180.00695
180.03882
180.14259
177.79194
173.58666
175.50348
177.1517
182.43823
182.41025
182.45923
176.94177
176.68344
182.51368
185.00134
178.53516
178.8346
178.70123
180.40004
180.90062
181.0938
189.35449
188.73977
191.25376
182.63914
182.88836
192.1262
203.74143
199.50189
195.11727
190.74623
200.28457
206.86272
205.45416
194.55155
193.9098
190.00023
198.72653
204.44635
203.47885
193.34148
185.29132
187.77985
180.45193
182.01474
182.0196
190.57931
188.21305
197.90667
198.7952
212.05167
213.65778
220.98664
218.77812
202.80462
201.71518
200.67842
197.10738
209.33624
210.69358
217.07984
215.36477
220.795
203.66615
191.78968
190.04162
189.47976
187.37887
180.09344
180.2405
178.76571
184.8424
184.67875
178.56557
178.86015
184.62473
191.67417
188.68018
185.6425
182.6048
188.14324
188.17838
188.25262
182.5108
182.50456
188.3742
192.74974
185.84039
185.72927
192.46813
192.24293
185.67167
188.82388
189.02613
189.28574
197.4653
196.94453
201.72383
192.36862
192.82134
202.57707
215.07529
207.54586
201.02419
195.24036
195.58997
195.98962
204.50725
203.88163
211.86138
201.63247
202.28301
203.01636
213.90238
215.45809
228.75145
227.1089
215.69824
228.26146
243.04774
245.84141
265.96293
243.82377
226.28902
224.54051
210.64983
219.61185
238.01269
240.94947
265.0288
261.95614
241.89437
263.00225
292.20204
297.30106
342.99611
293.92425
258.52579
255.37498
230.23052
242.03165
277.0538
281.74337
335.38706
331.62409
290.7366
338.61654
416.09616
422.91349
541.59555
387.35941
305.53331
301.16316
253.66767
224.81162
206.1654
193.24818
183.80127
184.14624
194.17866
195.40203
184.88999
184.52979
194.37531
193.5158
192.46384
183.11423
183.05459
183.70603
183.79739
183.81178
184.56249
184.91976
190.36588
191.26223
203.67929
223.79051
221.01051
211.42652
186.94629
187.63963
213.44954
260.63024
291.88515
339.46865
491.53559
503.06591
291.80391
258.56419
354.98662
356.17213
279.5667
230.05575
200.95504
182.00839
186.13563
176.21513
176.27994
181.72811
199.43143
188.89286
189.4226
208.31639
240.8973
236.78706
233.8152
273.89077
227.99082
207.17912
204.40498
212.44638
222.24401
233.38827
245.80716
257.30926
264.51167
264.02273
231.22334
227.16771
207.2399
209.29897
208.15184
228.61033
226.50261
222.84964
204.90459
206.79643
205.46214
192.80721
192.07369
191.13475
182.52319
181.54379
181.64963
189.06653
187.08692
186.79856
179.99717
180.22599
186.63541
188.37113
181.49778
181.29996
188.66081
197.92863
195.07075
191.99113
200.98208
196.50562
196.14311
192.08517
199.71345
194.60201
194.75375
194.97045
202.847
203.33252
210.96144
210.14167
200.51201
200.07769
209.42472
202.45261
202.1381
208.82459
219.72029
210.9781
211.51454
212.15483
212.88804
213.72317
214.64963
226.83506
225.52808
239.19541
224.24817
225.63902
212.86815
222.97914
209.53322
208.51505
221.49118
233.6061
216.56627
218.0627
235.83702
258.97448
239.72075
237.6435
257.5066
260.25222
241.10293
259.99246
241.91521
243.93271
264.25066
287.59697
262.66318
265.64747
271.93564
276.43613
366.40162
353.37632
345.4829
443.63917
338.40885
346.38687
459.01112
721.56557
542.13823
550.7371
1169.3513
1028.5282
1440.7942
1616.9151
728.44155
1169.5692
709.76728
518.03138
513.20229
776.78087
704.99921
1365.8926
952.15514
1076.1645
1527.8264
2190.9652
1940.4541
1093.0461
1986.4857
2251.1934
2480.072
2133.5837
2121.5793
1938.2317
1413.7408
998.89584
513.26076
298.97325
226.42113
192.18409
191.1424
187.25359
188.07113
214.335
212.13898
223.3333
298.98154
259.90743
262.46088
357.90503
355.98297
526.96693
463.52187
338.67148
270.72265
234.8088
211.17892
196.46062
185.46186
185.01276
184.17521
184.61125
195.00402
193.94936
195.28618
209.86311
207.46671
208.71077
229.79214
227.20188
231.88139
229.47439
226.9478
206.73808
193.4278
184.02721
183.29722
183.42352
193.04017
192.26842
190.35653
182.20183
182.24283
182.92824
183.24259
181.33332
181.08332
189.0684
191.77564
192.74726
189.7791
200.16667
204.78877
203.70031
199.35572
212.96808
220.34229
222.78924
214.71825
207.4562
195.5175
186.74406
179.33351
181.76537
182.10452
186.14205
176.16071
176.21694
188.665
199.41648
201.03921
189.19879
207.63577
229.84034
239.9552
277.95512
271.98703
227.57358
206.49963
231.95453
234.8385
210.23674
192.37529
180.19774
170.80868
164.48516
159.25543
154.67518
149.17153
152.5913
155.70885
157.45607
155.43979
153.55732
153.68431
152.5381
150.58825
151.04229
153.12578
159.68593
157.47271
156.91141
158.06183
159.89793
164.7877
161.89773
161.2836
165.89749
163.01499
166.40185
171.02552
179.8089
173.25711
172.62128
171.34852
161.27107
155.2234
171.31327
194.51604
180.62072
180.77875
191.62657
207.99361
191.67451
192.41957
180.20468
172.61505
173.26028
166.40131
165.90097
170.7982
171.02453
179.83604
180.24719
173.10335
163.84645
166.61785
168.39632
165.24527
160.14364
161.00758
159.23239
157.8183
158.39215
162.07376
162.83646
165.71995
166.18878
161.40094
162.27883
160.58691
159.50905
159.75678
163.1945
164.02035
166.76976
171.39829
173.20781
175.11455
176.82906
178.56473
180.0128
181.34368
182.25127
182.8116
182.84792
182.35909
181.4817
181.61886
180.33713
186.87171
187.14514
189.05256
188.6565
189.98241
182.44714
182.91318
190.66952
191.24086
190.50299
201.23059
198.80783
195.75947
195.06322
197.83903
210.38418
205.71705
207.10024
212.34501
216.904
214.45081
200.03496
201.18719
202.52764
219.4351
216.71078
242.95349
237.67575
228.94044
220.24795
222.75874
232.63005
265.82256
245.42094
241.08359
259.09622
281.74905
290.94404
242.51267
247.18997
253.64738
317.14727
298.97599
305.71019
311.24561
330.30318
334.77417
266.58525
264.6835
268.16208
258.12368
260.82299
314.18972
309.51115
333.61957
329.849
324.9645
260.86024
251.14362
222.65161
204.60747
206.02754
224.97906
218.41771
202.47595
191.00896
188.46045
180.55125
180.56245
187.98507
197.45212
201.29909
216.48858
209.95973
211.46476
198.38398
194.15806
185.70843
178.78867
179.23628
177.01431
177.06292
183.4942
183.16877
186.15904
194.88146
190.58725
190.95581
200.56071
199.66258
205.96134
204.84493
203.78165
193.52639
185.39056
178.90101
176.87129
176.73066
182.88714
182.70486
180.03094
175.00792
174.77273
174.99575
174.91552
172.61711
172.73531
177.4012
180.24831
180.52047
177.45916
182.79687
186.79524
186.54572
182.79024
189.04803
194.06233
194.83491
189.397
196.80939
203.91837
211.9968
221.99564
233.6841
247.27003
244.676
231.66751
257.48713
281.45521
286.57461
260.89534
296.97361
342.70347
403.02512
401.62604
468.04422
785.17558
762.61529
568.49788
572.49449
575.58192
397.5573
305.2237
254.78762
241.77715
238.75791
227.02074
229.35089
254.27392
277.46245
273.01337
300.12325
391.97899
466.88244
483.37366
422.252
349.18407
297.19491
351.43283
356.28625
459.4999
353.80485
424.14351
482.43197
854.66505
642.49853
659.82892
457.96259
454.77014
343.13359
335.32754
286.00188
338.37395
285.34818
280.02674
251.93898
234.29386
221.76698
235.44098
222.63274
235.19521
222.24875
223.23699
224.33364
237.41794
222.95266
221.75456
235.744
234.19431
220.68868
231.82373
217.46748
205.88759
206.67667
218.7181
220.06884
231.40607
229.23739
213.69442
212.39798
211.24929
205.22652
216.37165
225.27064
227.18759
246.50425
249.64193
233.69001
235.62886
254.8054
252.14985
276.08719
280.42032
252.82276
255.95116
284.55941
288.48328
333.89453
286.70483
252.41875
228.09953
226.00161
249.32227
269.45114
236.74319
239.44736
273.47149
327.09012
321.7314
282.42452
328.57155
406.26297
412.01103
546.56769
381.99957
297.27294
250.667
247.50009
292.74301
311.97075
255.20264
224.33013
222.04959
218.73824
213.6541
208.04277
196.35369
195.6816
206.81116
211.98178
198.7896
199.70616
202.47613
201.3418
190.60307
182.57424
183.14559
183.13071
183.13722
175.01489
166.36097
166.3616
167.18503
175.19093
182.16902
182.3153
189.68917
190.08094
190.87381
182.69556
182.81481
190.4269
200.60844
199.33586
197.20323
194.56712
204.64713
200.35319
199.81593
195.87521
191.97969
188.15737
184.37676
180.60999
174.55997
166.159
160.58016
156.7176
156.70802
154.48398
158.30339
157.99403
158.30335
159.99289
159.29055
155.56418
156.71764
158.5784
162.36446
160.58223
161.05975
158.61899
160.49908
162.5949
161.9916
165.32541
164.40536
167.34145
162.69538
163.66378
167.99817
168.60604
165.79155
166.68661
163.49735
165.12877
164.17031
165.6629
162.21999
156.81194
160.48015
163.43991
161.78739
159.96408
161.88251
165.35998
163.51497
164.01614
165.03057
168.08518
167.11424
169.92201
165.61773
166.6772
170.64631
171.3007
168.61256
165.7286
163.70797
166.84709
169.57971
168.43392
167.29372
168.79966
165.35438
170.01797
173.89054
173.23465
168.16699
167.10072
166.61761
171.91002
169.2923
171.77925
170.61212
167.64909
162.36469
158.57831
160.49793
158.6191
161.05857
161.98858
163.66048
162.69499
167.34013
164.4031
165.32464
167.99433
168.60071
164.16606
162.5936
163.4954
165.12612
169.28499
166.68568
165.79095
169.82518
169.3939
168.6099
170.01237
170.42468
172.31666
171.89651
175.58146
173.09892
173.51588
175.82936
176.02605
172.41995
170.60121
171.01621
172.85297
176.29367
174.04494
173.63686
177.04314
175.47997
174.56933
176.54936
176.87553
179.89893
179.72321
184.41303
180.63087
181.02556
184.55048
184.67225
180.08123
180.28569
177.36067
181.43873
181.06262
185.28597
182.00694
175.48149
169.39445
168.61172
170.01055
170.4259
173.5127
173.0957
175.56941
171.88965
172.31868
175.82561
176.02847
173.63498
170.6044
171.02013
174.04626
176.29943
172.86009
172.42661
174.14245
170.67896
165.17325
160.34087
164.22377
170.08699
172.50347
165.68389
166.68063
173.05055
173.59354
171.26674
174.66054
172.96703
171.15773
169.83034
175.58691
176.52203
178.01608
174.71192
174.57202
171.59278
173.41748
176.79973
176.51447
174.13139
177.456
177.36279
177.04566
176.86855
176.54264
179.6974
179.88884
184.52916
181.0149
181.04619
181.43218
184.84152
180.29221
180.07937
184.66705
189.9167
185.28109
185.25811
181.41824
184.97629
185.27347
189.87001
189.81591
195.99435
190.30448
190.6605
195.9842
195.96388
189.94039
190.06073
184.85192
184.99464
180.48066
176.507
172.96196
171.15385
171.58502
173.41433
176.79571
174.56889
174.12971
177.45441
175.58757
176.52092
170.61201
171.77725
172.20655
174.00125
173.54849
177.03103
174.7098
175.13492
177.32863
181.19511
178.35376
178.01876
177.81602
180.72405
185.21457
181.8403
181.40249
185.59058
182.20293
182.87332
186.02711
181.91301
182.3212
185.63014
185.4082
180.95444
183.74324
179.25607
175.219
171.90557
166.61437
162.21849
156.81131
160.47937
159.29031
159.96374
161.78648
164.01522
163.5147
165.03078
166.67596
165.61564
169.91946
167.11284
168.08586
170.64421
168.69294
171.02906
171.86912
173.03444
172.81452
172.36046
174.13825
174.61385
177.88452
175.7024
175.24009
177.57157
181.42297
178.47124
176.63602
177.60509
179.07773
175.87334
176.32334
173.4988
175.26823
174.78109
178.14916
178.47016
182.2168
179.44003
183.29976
182.87261
182.77393
178.85587
181.69508
186.06878
185.82409
182.31382
186.40857
183.1181
176.63664
171.03077
171.86941
177.60436
179.07982
175.87441
173.03755
172.8166
172.36231
172.21078
175.13626
177.32833
174.00533
173.55199
177.0371
180.94958
180.72792
177.8205
181.83567
181.39806
184.99667
180.48903
183.33031
178.77234
178.56556
174.55054
176.35858
175.93237
175.89646
174.0433
173.65251
177.93604
178.14301
180.40721
180.2453
175.48995
177.11857
177.48473
182.58565
182.47691
184.57206
178.73863
179.10495
184.62717
184.67284
182.69289
180.55984
178.33503
182.97575
182.83111
182.70021
185.664
185.73124
191.94024
188.22048
188.30638
188.43045
183.15782
185.95426
180.7695
182.8663
177.90764
177.51491
179.05684
179.46934
184.81083
191.23798
188.67921
188.60803
185.83562
191.9523
192.00938
195.54311
195.58836
195.69593
188.58445
188.60282
191.45477
191.31492
199.42573
199.14295
191.25301
193.65759
186.44354
180.31564
174.88354
167.7147
161.55247
163.47859
168.12023
167.09198
168.09973
174.21982
175.98949
169.11827
169.75307
168.74139
168.36653
167.37829
166.73865
174.40092
175.45707
175.89986
176.37536
175.39309
180.67224
179.463
177.96114
176.4162
176.86803
175.0831
179.02703
181.19021
180.95376
186.10788
186.28274
183.53933
188.73136
185.21785
185.40308
181.91107
182.3185
178.35579
181.20021
185.63185
190.70943
186.37998
186.0281
185.9506
185.58838
185.59432
190.88503
190.48781
190.65339
190.28491
184.96026
189.75589
189.84658
195.94459
195.93803
203.01359
195.81817
195.9558
202.94591
203.09298
211.27741
210.96794
202.90371
202.81411
195.85075
190.49421
190.88775
185.61042
196.04744
202.83738
196.07133
202.82354
196.03937
190.05682
190.17187
190.35444
196.25293
191.17932
190.72735
196.10814
202.84839
196.02048
190.7262
191.17908
185.95964
190.35303
190.1828
196.10252
196.25386
196.3681
190.51529
190.70936
186.38582
191.54928
191.10016
196.29894
191.09236
191.54865
196.55182
196.37517
190.51942
194.88773
188.90867
183.74747
179.25793
175.22337
175.65102
179.52983
181.66241
177.42042
176.95468
181.40613
186.4715
186.67587
183.97247
189.09591
192.5262
192.36939
192.22496
192.10309
188.57717
194.63559
194.55237
194.49279
194.47658
194.51049
201.90294
201.75651
207.95809
199.27327
199.46
208.34407
218.93768
210.55336
210.23428
220.14165
220.70567
221.4069
232.81176
247.18837
230.17151
243.5596
267.47282
271.75341
249.61002
271.23984
250.60936
252.79811
236.72219
238.33438
240.07674
258.95495
261.57742
284.19802
280.85329
257.52186
281.57468
285.07292
288.63394
291.89996
324.66932
292.40518
327.83002
322.94181
293.47399
340.03771
379.60974
387.57338
434.6568
366.69264
361.43626
319.76111
370.49054
328.78477
334.0385
378.3277
429.30598
421.09521
495.66996
426.2031
418.98685
373.9779
335.46007
289.7713
286.11166
330.56253
367.96598
313.8951
318.45865
355.67991
315.31436
310.89981
359.17206
319.40914
324.21603
365.03544
414.05757
406.72794
349.94409
411.48216
477.7453
487.12543
622.33836
537.22005
479.33864
419.8961
424.31618
593.35248
711.54899
485.28501
490.01564
715.27402
1167.7408
1234.1253
960.35715
1485.1526
2147.5314
1921.1372
2207.9139
1298.6342
805.42117
551.84489
545.60262
799.49027
913.91197
632.40336
643.07339
507.99063
635.20434
537.41159
469.15468
402.9207
399.12958
463.87815
662.20249
536.17976
538.20531
667.57126
771.87322
765.7892
531.31126
624.68311
890.00712
900.53471
1365.3853
1239.4181
1079.9975
800.17398
831.43467
544.40989
385.93751
437.46114
320.07806
261.66606
258.58672
316.48981
436.47354
433.73109
376.90101
546.66543
751.92985
732.39426
711.23346
696.33706
434.88584
324.91195
326.02012
321.35995
262.20422
228.86418
208.27938
194.44008
195.47929
194.33332
184.2271
183.88055
193.40051
192.59439
193.58183
192.85523
183.74038
183.11829
183.19783
182.10641
173.71416
165.48038
166.244
164.71866
163.48424
157.57007
159.27965
160.61389
167.18605
175.19895
174.07077
166.49776
165.66863
173.80931
171.6963
164.53555
164.3122
171.46541
168.71097
162.64316
161.82908
160.15258
155.71075
152.59098
157.45696
161.40543
162.99579
163.84212
165.40994
172.08474
169.57414
169.09224
166.205
165.74445
161.02052
159.2379
157.82629
158.40041
158.07361
159.91292
154.6808
153.12692
159.71645
159.27058
164.52004
164.81945
161.9261
156.93484
157.49136
161.32067
165.98276
170.90574
171.54298
180.46291
180.03528
171.1106
166.47102
163.10144
172.83536
173.43745
181.1909
192.20995
193.05894
195.70696
211.96651
209.48072
192.68817
193.64344
181.13988
172.96966
171.87389
161.39859
155.25282
150.59285
151.04759
152.54107
153.68503
153.5577
155.43989
159.51302
159.76012
160.59046
162.28472
166.782
164.02795
163.20816
162.85597
162.0943
165.27516
170.58083
172.67055
174.95413
177.07227
179.29429
181.22009
183.00514
182.75321
191.47676
192.36109
189.60121
188.96198
181.01265
180.50281
180.53928
182.10766
190.21024
191.93154
203.95294
205.581
206.92305
226.76283
224.57559
221.43337
223.47844
205.21335
206.48422
207.5473
209.43352
231.49111
227.78508
225.45381
219.56817
203.22158
204.18024
221.81157
214.4176
199.9367
199.20866
212.80853
211.40349
217.86226
202.11966
190.79621
188.40494
187.97154
197.45937
201.06219
216.11787
210.03275
208.67561
214.36639
219.35669
222.31075
204.26314
204.1652
202.89594
191.48737
191.50906
183.16741
182.62437
182.58794
191.25056
192.14028
190.70477
190.16106
190.91467
182.70865
182.82716
190.45673
189.76279
182.35241
182.22095
181.34687
181.72167
181.6175
189.64827
189.20774