/*--------------------------------*- C++ -*----------------------------------*\
  =========                 |
  \\      /  F ield         | OpenFOAM: The Open Source CFD Toolbox
   \\    /   O peration     | Website:  https://openfoam.org
    \\  /    A nd           | Version:  7
     \\/     M anipulation  |
\*---------------------------------------------------------------------------*/
FoamFile
{
    version     2.0;
    format      ascii;
    class       volVectorField;
    location    "360";
    object      U;
}
// * * * * * * * * * * * * * * * * * * * * * * * * * * * * * * * * * * * * * //

dimensions      [0 1 -1 0 0 0 0];

internalField   nonuniform List<vector> 
25278
(
(120.02601 0.0077754674 0.007730202)
(120.01602 -0.0030689899 -0.017345718)
(120.01527 -0.0021459686 -0.0063983359)
(120.01599 -0.0058750626 -0.0048472721)
(119.98978 -0.019470993 -0.0093507777)
(120.01832 -0.01958089 -0.0072042587)
(120.03094 0.0060665029 0.00096751134)
(120.02663 0.0081902735 0.006366406)
(120.02866 0.0025816984 0.006903966)
(120.03536 0.0035021524 0.0016541739)
(120.03228 0.00189654 0.0011391094)
(120.02795 0.0044620189 0.0026233611)
(120.02174 -0.0056145416 -0.0081655085)
(120.00877 -0.011892524 -0.014988431)
(119.8921 -0.033804086 -0.060286134)
(120.01558 0.0012897315 -0.0081438587)
(120.01588 0.0010832035 -0.018018722)
(119.92675 -0.046405038 -0.081526856)
(119.86611 -0.017569122 -0.12014623)
(119.95923 -0.024123961 -0.10617255)
(119.99995 -0.0091227505 -0.055193519)
(120.00432 -0.017643252 -0.041821876)
(120.00764 -0.018902966 -0.028596994)
(120.02703 -0.011831044 -0.017799213)
(120.04119 -0.024467536 -0.029993501)
(120.02813 -0.015984233 -0.016429594)
(120.00849 -0.026413795 -0.024462489)
(120.00561 -0.040938447 -0.047487692)
(119.98438 -0.036712117 -0.067166597)
(120.01292 -0.03690603 -0.066927479)
(120.01447 -0.037052664 -0.085554551)
(119.97446 -0.036858653 -0.091396252)
(119.95374 -0.077583334 -0.1424097)
(119.97271 -0.070737594 -0.098629573)
(120.01857 -0.065314053 -0.099200665)
(120.00451 -0.060095242 -0.1163614)
(120.02752 -0.057214802 -0.11273839)
(120.02601 -0.05652849 -0.13382458)
(119.99635 -0.05809729 -0.13966862)
(119.98214 -0.087583199 -0.17584688)
(119.99364 -0.087837986 -0.14161082)
(120.0276 -0.08263045 -0.13901931)
(120.02339 -0.082823468 -0.16760264)
(120.06604 -0.074324172 -0.14776386)
(120.05554 -0.049293615 -0.1175106)
(120.0502 -0.027694734 -0.066537206)
(120.03188 -0.0095401032 -0.027155874)
(120.03729 -0.0078532377 -0.037407969)
(120.05354 -0.021476003 -0.082808043)
(120.00659 -0.027056156 -0.10465734)
(119.99922 -0.0099852226 -0.11763259)
(119.94639 -0.0080258143 -0.11476737)
(119.87941 -0.017181893 -0.20140499)
(119.91737 -0.056303429 -0.18902598)
(119.98534 -0.050966093 -0.15592136)
(120.01852 -0.050770199 -0.15335396)
(120.01035 -0.040095999 -0.17490068)
(119.97162 -0.037513639 -0.17697493)
(119.93957 -0.062699168 -0.23432067)
(119.96259 -0.080401177 -0.20312813)
(120.00798 -0.078593028 -0.20109476)
(119.99343 -0.064428792 -0.23157623)
(119.97177 -0.042552529 -0.25461206)
(120.00033 -0.025607397 -0.18817224)
(119.9595 -0.023189257 -0.18403515)
(119.95187 -0.0067680938 -0.1922561)
(119.99493 -0.0078159711 -0.19715214)
(119.96217 -0.013717218 -0.2668139)
(119.90115 -0.01350997 -0.25710241)
(119.9146 -0.039327012 -0.24549779)
(119.82557 -0.058832127 -0.31593363)
(119.87344 -0.091230446 -0.30106118)
(119.91481 -0.11446403 -0.25333239)
(119.9475 -0.123746 -0.21483191)
(119.97188 -0.11539065 -0.16545176)
(120.0076 -0.11374009 -0.12535366)
(120.01946 -0.092602382 -0.077761577)
(120.01428 -0.063829626 -0.048146334)
(120.00616 -0.042588794 -0.026443651)
(119.97485 -0.040755786 -0.028089436)
(119.95419 -0.030934716 -0.023138232)
(119.89407 -0.058167771 -0.044562063)
(119.92857 -0.078629286 -0.058202232)
(119.8716 -0.1300484 -0.034839098)
(119.96296 -0.055622231 -0.019378734)
(119.93695 -0.040474054 -0.015174873)
(119.8308 -0.095098824 -0.024469774)
(119.60596 -0.13649461 -0.067809978)
(119.72019 -0.090254368 -0.086749947)
(119.82048 -0.06449906 -0.071806388)
(119.83723 -0.081960267 -0.089890151)
(119.73387 -0.096304735 -0.11081772)
(119.71638 -0.075511139 -0.092759798)
(119.53285 -0.12987016 -0.13694939)
(119.55934 -0.14680831 -0.15591134)
(119.73812 -0.10695944 -0.10847511)
(119.76966 -0.12583243 -0.12122428)
(119.86076 -0.08897838 -0.097647326)
(119.89002 -0.10911867 -0.11875225)
(119.80044 -0.13608747 -0.16674069)
(119.76561 -0.10838689 -0.1308635)
(119.58613 -0.18092415 -0.19146783)
(119.62941 -0.22363234 -0.23367169)
(119.80451 -0.1602715 -0.14913365)
(119.70398 -0.24577514 -0.12115965)
(119.66502 -0.19054975 -0.095070367)
(119.62812 -0.16008796 -0.084596516)
(119.25635 -0.2903275 -0.12953577)
(119.2193 -0.24888031 -0.11776377)
(118.86699 -0.26379072 -0.057735251)
(119.49496 -0.12574417 -0.026732474)
(119.51292 -0.13741844 -0.034214457)
(118.89374 -0.29586728 -0.068645175)
(118.89822 -0.3759275 -0.094309591)
(119.29249 -0.36216627 -0.15070874)
(119.35667 -0.44197467 -0.20084909)
(118.91312 -0.48785391 -0.14870156)
(119.58171 -0.23208407 -0.057727926)
(119.55119 -0.16087266 -0.040442398)
(119.53794 -0.18477631 0.0083990233)
(119.86776 -0.15207256 0.01384719)
(119.96361 -0.063880066 0.0026867883)
(119.99085 -0.024308337 0.0016143581)
(119.68343 -0.11399069 0.12158524)
(119.48393 -0.18438726 0.1673341)
(119.16356 -0.31861978 0.13195276)
(118.83651 -0.30445724 0.026531619)
(119.48225 -0.14414406 0.0024003981)
(119.82435 -0.11492783 0.0061280356)
(119.93601 -0.048826577 -0.00028471261)
(119.95343 -0.045288579 0.018800121)
(119.97634 -0.054851729 0.023602192)
(119.92514 -0.10731686 0.062016912)
(119.88649 -0.085784464 0.048966015)
(119.69317 -0.13215371 0.10082245)
(119.57966 -0.18014267 0.067365801)
(119.60143 -0.20878544 0.085047414)
(119.50002 -0.15843642 0.0049868121)
(118.85979 -0.34470371 0.032008981)
(119.19869 -0.36705602 0.14648485)
(119.23277 -0.44668924 0.17557207)
(118.85977 -0.43447214 0.051540243)
(118.87 -0.56005506 0.098880677)
(119.56816 -0.26350169 0.020391832)
(119.67773 -0.30385049 0.12450503)
(119.63951 -0.24222886 0.096303399)
(119.74578 -0.17385655 0.13755369)
(119.71143 -0.1526649 0.12395245)
(119.50935 -0.20652328 0.18740177)
(119.70132 -0.13781982 0.14177372)
(119.88176 -0.055673441 0.080082324)
(119.80156 -0.098593312 0.090073183)
(119.81989 -0.11820879 0.11020213)
(119.84615 -0.12507812 0.11815049)
(119.92211 -0.06776948 0.10143143)
(119.87798 -0.14709265 0.14103323)
(119.7825 -0.21315327 0.16810246)
(119.57903 -0.29227577 0.27244223)
(119.29268 -0.53570546 0.23406228)
(118.39105 -0.61919158 0.58357315)
(116.14928 -0.51779567 0.65928414)
(116.26685 -0.44473359 -0.78751528)
(118.54592 -0.48426164 -0.50441045)
(119.33219 -0.19572751 -0.4481554)
(119.68934 -0.106805 -0.24591956)
(119.65198 -0.080451108 -0.18774155)
(119.52856 -0.013282283 -0.13887397)
(119.55498 -0.027862223 -0.21441849)
(118.83126 -0.10380771 -0.46344727)
(118.82744 -0.053072316 -0.34359667)
(119.27106 -0.14425814 -0.36279082)
(118.38546 -0.40020025 -0.41591995)
(116.14233 -0.45637799 -0.25765333)
(116.00107 -0.65442579 -0.42071338)
(103.61635 -1.6123896 -1.4937373)
(105.32712 -1.1864315 -1.0823207)
(116.34872 -0.30285149 -0.58125492)
(116.24316 -0.37515994 0.46908583)
(105.50513 -1.4473405 1.2412613)
(103.77775 -1.9610755 1.6490558)
(115.6656 -0.89638437 0.40453954)
(115.85885 -0.68700594 0.28365425)
(118.2462 -0.52397722 0.48079545)
(119.18078 -0.19101393 0.42445134)
(119.53539 -0.24627046 0.22577743)
(119.73563 -0.14995851 0.1633248)
(119.77172 -0.17941212 0.20246361)
(119.64215 -0.13839556 0.29575295)
(119.23887 -0.2445522 0.51065049)
(118.68082 -0.16343394 0.53427701)
(118.699 -0.10738956 0.41886642)
(119.46909 -0.040659895 0.18126513)
(119.85132 -0.032076634 0.15111962)
(119.60547 -0.11207231 0.23398656)
(119.49089 -0.056424398 0.25757355)
(119.5993 -0.071930494 0.34713139)
(118.75096 -0.25019239 0.69026057)
(115.49155 -1.1359854 0.82401683)
(101.58889 -2.7214271 2.2115914)
(101.43062 -2.210001 -2.1072249)
(115.90955 -0.91727052 -0.80656792)
(118.91472 -0.18415868 -0.62224879)
(119.66011 -0.044526966 -0.29601155)
(119.78325 -0.12233978 -0.28682927)
(119.87753 -0.14382234 -0.19104591)
(119.94283 -0.11035008 -0.12096176)
(119.97357 -0.091926784 -0.082322874)
(119.98563 -0.063912733 -0.047636827)
(119.97642 -0.091601385 -0.050799586)
(120.0167 -0.08576968 -0.0515711)
(120.0064 -0.11282894 -0.075498143)
(119.95623 -0.1390248 -0.093192888)
(119.99531 -0.13589232 -0.10352009)
(120.02898 -0.13331099 -0.099187412)
(120.02937 -0.10941087 -0.073143539)
(120.02842 -0.13294505 -0.074335505)
(119.99885 -0.13858074 -0.075345812)
(119.98489 -0.17222915 -0.10544861)
(120.0255 -0.16399137 -0.10165234)
(120.06788 -0.14448974 -0.094302084)
(120.06429 -0.11771659 -0.089208724)
(120.06354 -0.070343578 -0.060918772)
(120.04048 -0.049100507 -0.037197191)
(120.03459 -0.027855551 -0.016780513)
(120.05408 -0.024946645 -0.01980697)
(120.08791 -0.033616466 -0.033574134)
(120.09153 -0.054099007 -0.041241028)
(120.07445 -0.037409384 -0.024622291)
(120.05329 -0.067124806 -0.041577367)
(120.05364 -0.096000775 -0.064812466)
(120.07705 -0.075874282 -0.053712183)
(120.09864 -0.094444235 -0.0746086)
(120.10968 -0.11751467 -0.080859955)
(120.08681 -0.094500908 -0.058018071)
(120.05806 -0.11710163 -0.067339925)
(120.0569 -0.13914491 -0.065548147)
(120.05802 -0.089174206 -0.037494712)
(120.04291 -0.044225537 -0.016162881)
(120.00353 -0.062897229 -0.019612695)
(119.96248 -0.11141394 -0.039764565)
(120.01031 -0.11074067 -0.043568939)
(119.98906 -0.15824663 -0.069660885)
(119.92255 -0.19252437 -0.074848384)
(119.96709 -0.2032561 -0.10009401)
(120.01154 -0.20148345 -0.099636065)
(120.02195 -0.15610141 -0.070251972)
(120.01485 -0.18280856 -0.061081384)
(119.97647 -0.18449092 -0.057769546)
(119.94625 -0.23935449 -0.084776054)
(119.99858 -0.23678341 -0.087739888)
(119.97875 -0.26838965 -0.06733515)
(120.00619 -0.20239655 -0.047077071)
(120.0047 -0.13313865 -0.026705319)
(119.95054 -0.12984545 -0.024368388)
(119.8872 -0.21931568 -0.040023658)
(119.96566 -0.19757686 -0.04407548)
(119.92312 -0.25888697 -0.062935473)
(119.91024 -0.28207559 -0.037425483)
(119.9585 -0.21525343 -0.026610377)
(120.00173 -0.22064606 -0.028169245)
(119.97 -0.2916444 -0.0387138)
(120.03639 -0.27937734 -0.039423133)
(120.0435 -0.25420833 -0.06882205)
(120.05505 -0.21930035 -0.086917539)
(120.06353 -0.18263416 -0.095846244)
(120.11513 -0.15132647 -0.084196653)
(120.09096 -0.11410545 -0.057170978)
(120.09437 -0.13916024 -0.053259007)
(120.0542 -0.16544751 -0.058175448)
(120.05007 -0.18601718 -0.046073812)
(120.06132 -0.11168314 -0.024850269)
(120.09919 -0.067663841 -0.019170411)
(120.08741 -0.050636115 -0.023108335)
(120.11485 -0.080637489 -0.044626518)
(120.10624 -0.065981132 -0.044646954)
(120.11542 -0.02962034 -0.02785352)
(120.09754 -0.023054069 -0.023231151)
(120.13093 -0.026717795 -0.03072906)
(120.12117 -0.064603534 -0.055303695)
(120.13998 -0.078861021 -0.05935029)
(120.15476 -0.03600226 -0.035741631)
(120.17649 -0.049855779 -0.040643589)
(120.12737 -0.037755626 -0.028247438)
(120.14099 -0.050779018 -0.030852922)
(120.12388 -0.10083629 -0.044040996)
(120.16518 -0.13299642 -0.065308742)
(120.15487 -0.10411665 -0.065205263)
(120.16578 -0.13573993 -0.090678546)
(120.15975 -0.11811434 -0.087126665)
(120.14848 -0.10257094 -0.082488132)
(120.14653 -0.075381418 -0.070282221)
(120.12815 -0.03695777 -0.049191192)
(120.08633 -0.022039892 -0.039390812)
(120.05193 -0.01043033 -0.027441091)
(120.03882 -0.02677961 -0.051917653)
(120.06253 -0.048741518 -0.076640393)
(120.05172 -0.04893157 -0.099090976)
(120.0747 -0.037699107 -0.078558687)
(120.08383 -0.039632569 -0.09429364)
(120.10769 -0.059860792 -0.12013893)
(120.09713 -0.056959735 -0.099640872)
(120.063 -0.072217112 -0.12330531)
(120.06674 -0.10076192 -0.1516821)
(120.08325 -0.089304935 -0.10161556)
(120.11341 -0.079942659 -0.12168864)
(120.1052 -0.088444316 -0.15147418)
(120.08146 -0.09798049 -0.16743756)
(120.05561 -0.10451437 -0.17892189)
(120.00444 -0.12565901 -0.21414428)
(120.01741 -0.11463254 -0.16582289)
(120.00166 -0.16616716 -0.20848473)
(119.93881 -0.16926317 -0.20230032)
(119.90149 -0.18355628 -0.26891083)
(119.97893 -0.18316742 -0.27019414)
(119.91746 -0.26872833 -0.33271385)
(119.96758 -0.22556707 -0.23954628)
(120.0027 -0.19702018 -0.18152252)
(120.01872 -0.15735489 -0.13096277)
(119.97361 -0.15733988 -0.13070489)
(119.88092 -0.18353828 -0.15821748)
(119.94026 -0.19159654 -0.18306921)
(119.90608 -0.25974657 -0.19923586)
(119.95113 -0.20863747 -0.14140195)
(120.00705 -0.20752122 -0.14443822)
(119.98202 -0.2602502 -0.20067332)
(119.92062 -0.31993125 -0.28459216)
(119.82874 -0.30854995 -0.26197295)
(119.89425 -0.21595728 -0.22848002)
(119.72157 -0.26903745 -0.27962783)
(119.82427 -0.24763694 -0.31954784)
(119.72185 -0.36399039 -0.37627707)
(119.84649 -0.38327817 -0.39795993)
(119.98202 -0.32566061 -0.34260529)
(120.00289 -0.27818484 -0.31979976)
(120.02359 -0.22621271 -0.28144398)
(120.03808 -0.18934514 -0.25586159)
(120.04882 -0.15157795 -0.22720487)
(120.05331 -0.12742958 -0.20481808)
(120.08548 -0.11904449 -0.19205125)
(120.08442 -0.12259334 -0.21795523)
(120.08188 -0.099598754 -0.18900908)
(120.05055 -0.10576183 -0.20186831)
(120.04813 -0.13141468 -0.23382952)
(120.03955 -0.16236802 -0.26258715)
(120.08124 -0.155328 -0.24782472)
(120.08536 -0.14437463 -0.21395999)
(120.06803 -0.14996069 -0.19270776)
(120.13599 -0.12236927 -0.15972181)
(120.11973 -0.13121072 -0.19503467)
(120.11425 -0.10791515 -0.17319128)
(120.14275 -0.092051132 -0.14997699)
(120.12853 -0.074446393 -0.12982833)
(120.13618 -0.077078745 -0.1477769)
(120.10902 -0.089711709 -0.17136284)
(120.1166 -0.11060783 -0.19660245)
(120.14907 -0.096230311 -0.17140482)
(120.16039 -0.12314959 -0.19702266)
(120.15397 -0.11260434 -0.16872765)
(120.16748 -0.14127398 -0.19376049)
(120.12549 -0.16358858 -0.22232416)
(120.08374 -0.17878469 -0.24329038)
(120.07746 -0.18988122 -0.28232879)
(120.02657 -0.20111732 -0.29963615)
(120.00447 -0.24615115 -0.33321126)
(120.0638 -0.23809636 -0.31897678)
(120.07517 -0.2178691 -0.26978867)
(120.05708 -0.21349666 -0.22941997)
(120.06861 -0.18035881 -0.16685813)
(120.06764 -0.14296962 -0.11796177)
(120.11427 -0.11312239 -0.098339864)
(120.13629 -0.14646927 -0.14139225)
(120.12051 -0.18483597 -0.15309853)
(120.11525 -0.16515443 -0.12948958)
(120.10657 -0.14556713 -0.10957893)
(120.083 -0.16133394 -0.11842199)
(120.05739 -0.17262814 -0.12400304)
(120.055 -0.19667557 -0.14676183)
(120.08679 -0.18393864 -0.1396063)
(120.08614 -0.21110117 -0.14464955)
(120.08372 -0.18433674 -0.12146319)
(120.05281 -0.19692728 -0.1266137)
(120.0505 -0.22683051 -0.15216958)
(120.04218 -0.25386876 -0.1828534)
(120.05055 -0.21736856 -0.17064764)
(120.08665 -0.20395702 -0.16492736)
(120.08492 -0.23096016 -0.19912628)
(120.03982 -0.24402946 -0.20786928)
(120.02954 -0.28873881 -0.22097971)
(120.07935 -0.27112664 -0.21175926)
(120.08302 -0.23900226 -0.17740121)
(120.12248 -0.21735939 -0.16485722)
(120.11783 -0.19003487 -0.13405645)
(120.11057 -0.16706832 -0.11251585)
(120.13762 -0.14399108 -0.10097199)
(120.12992 -0.12428292 -0.096508259)
(120.14358 -0.14215119 -0.11488322)
(120.14996 -0.16521433 -0.12110082)
(120.16085 -0.18850058 -0.14903101)
(120.15448 -0.15855549 -0.13611365)
(120.16766 -0.1805507 -0.16539073)
(120.12609 -0.20950946 -0.18559333)
(120.12504 -0.24695249 -0.19787578)
(120.1722 -0.21495907 -0.17932837)
(120.21428 -0.17491144 -0.15310718)
(120.20281 -0.14733953 -0.13995114)
(120.18631 -0.095243581 -0.099056616)
(120.21183 -0.032187226 -0.05014156)
(120.162 -0.026677585 -0.037491802)
(120.17338 -0.04887326 -0.050634399)
(120.16439 -0.074049515 -0.065127857)
(120.1868 -0.084554661 -0.078173903)
(120.16697 -0.11569375 -0.097543852)
(120.17763 -0.13341438 -0.1034718)
(120.2007 -0.10032818 -0.085703032)
(120.17849 -0.087571331 -0.071227129)
(120.19019 -0.057537499 -0.054653747)
(120.19577 -0.023278454 -0.034821878)
(120.17714 -0.017673939 -0.029579675)
(120.20402 -0.018893747 -0.035375796)
(120.19869 -0.052974599 -0.059064285)
(120.21584 -0.061448247 -0.06310779)
(120.22353 -0.02473185 -0.041272917)
(120.2535 -0.024016847 -0.047538304)
(120.22887 -0.017558584 -0.039481267)
(120.22195 -0.057562289 -0.068203029)
(120.20708 -0.093163041 -0.091749817)
(120.18261 -0.12954899 -0.11499491)
(120.19535 -0.15334161 -0.1270325)
(120.22383 -0.11325063 -0.10441369)
(120.24987 -0.12870903 -0.12551378)
(120.2332 -0.10605776 -0.11115646)
(120.25276 -0.065804755 -0.081382163)
(120.26192 -0.018177911 -0.045516437)
(120.28777 -0.024090868 -0.055314639)
(120.27471 -0.077487551 -0.089961852)
(120.24342 -0.069305769 -0.075824295)
(120.26154 -0.085786814 -0.085611977)
(120.2309 -0.075497725 -0.070464925)
(120.20153 -0.067798022 -0.058263004)
(120.18746 -0.10193383 -0.074725016)
(120.21199 -0.12032449 -0.092319292)
(120.18508 -0.15797275 -0.11112626)
(120.15286 -0.19376232 -0.12720964)
(120.14082 -0.16451438 -0.10348877)
(120.11023 -0.18947549 -0.11428257)
(120.07988 -0.20818988 -0.1218598)
(120.04652 -0.21928895 -0.12602941)
(119.98004 -0.26074954 -0.14186086)
(119.92172 -0.25022374 -0.13391546)
(119.79653 -0.28501599 -0.13937584)
(119.85717 -0.31584764 -0.19984355)
(119.93338 -0.33821886 -0.2092311)
(119.88334 -0.42161829 -0.19526052)
(119.95218 -0.31611178 -0.12779288)
(119.88471 -0.30254647 -0.11362493)
(119.79132 -0.39440058 -0.17614928)
(119.62985 -0.50750526 -0.24234428)
(119.74433 -0.38747029 -0.27114815)
(119.48226 -0.50373166 -0.27958248)
(119.58401 -0.45733294 -0.41770836)
(119.70929 -0.52927252 -0.45829109)
(119.83212 -0.43014882 -0.30874433)
(119.73654 -0.55893788 -0.30603936)
(119.55548 -0.71298745 -0.4916017)
(119.38319 -0.62800066 -0.415768)
(119.04664 -0.68184912 -0.43490927)
(119.4685 -0.55869314 -0.20485783)
(119.7128 -0.42482539 -0.13580153)
(119.84058 -0.32652172 -0.083488001)
(119.68448 -0.3118242 -0.074422803)
(119.81629 -0.36122817 -0.04929085)
(119.89323 -0.40029045 -0.054131537)
(119.91258 -0.36278762 -0.096864803)
(119.80936 -0.49390134 -0.15418938)
(119.77114 -0.55436064 -0.0823476)
(119.664 -0.48370071 -0.078234339)
(119.35583 -0.67696538 -0.12708222)
(119.00812 -0.63506871 -0.23292583)
(118.67121 -0.92776565 -0.34967987)
(118.91219 -1.1642972 -0.34581512)
(119.2288 -0.92604253 -0.50461089)
(119.57697 -0.68143572 -0.26267232)
(119.48042 -0.79764009 -0.14773507)
(119.72302 -0.73737906 -0.1598729)
(119.76318 -0.68800423 -0.21805843)
(119.81153 -0.61838576 -0.25247306)
(119.86781 -0.56052648 -0.27552509)
(119.91227 -0.4894953 -0.28424064)
(119.94971 -0.43162163 -0.28596193)
(119.98043 -0.36924904 -0.27405813)
(120.0078 -0.32049166 -0.26557775)
(120.02528 -0.26797167 -0.24423645)
(120.07633 -0.25539074 -0.237893)
(120.06719 -0.29190662 -0.2852829)
(120.00416 -0.30444656 -0.29565112)
(119.98366 -0.36400104 -0.32010768)
(120.05439 -0.3453622 -0.30932083)
(120.06596 -0.30538097 -0.25974593)
(120.12377 -0.28065602 -0.24296181)
(120.12603 -0.2333544 -0.22074373)
(120.15003 -0.17444956 -0.19282233)
(120.1255 -0.19881119 -0.24870419)
(120.17578 -0.17262475 -0.2176049)
(120.18078 -0.1929376 -0.26002845)
(120.17203 -0.15262766 -0.22652798)
(120.12406 -0.17368251 -0.25842115)
(120.12146 -0.1409106 -0.22613165)
(120.11739 -0.14603569 -0.26052641)
(120.11486 -0.11462106 -0.22534133)
(120.10826 -0.089998684 -0.19152407)
(120.11257 -0.06017533 -0.14890082)
(120.08725 -0.036856427 -0.10991579)
(120.05359 -0.045642917 -0.13579138)
(120.04981 -0.036768308 -0.15678893)
(120.08956 -0.03145306 -0.129168)
(120.11254 -0.053111745 -0.17798951)
(120.05095 -0.061932812 -0.21287141)
(120.06072 -0.073271221 -0.18144034)
(120.04332 -0.10400928 -0.22238734)
(119.97459 -0.12083909 -0.26430728)
(119.94343 -0.10427138 -0.31506076)
(119.86784 -0.17356118 -0.42666444)
(119.92524 -0.18998426 -0.34635871)
(119.84683 -0.1830407 -0.32280314)
(119.77139 -0.15586128 -0.3984176)
(119.68299 -0.11198901 -0.41823373)
(119.78294 -0.12891602 -0.49068651)
(119.89947 -0.070787617 -0.35278769)
(119.8791 -0.025544985 -0.37523019)
(119.80041 -0.022390826 -0.3360013)
(119.62962 -0.046299175 -0.45965357)
(119.74082 -0.048870681 -0.53260159)
(119.40492 -0.10356222 -0.78380402)
(119.51824 -0.23973104 -0.68941262)
(119.70808 -0.28669731 -0.57153547)
(119.81969 -0.29155467 -0.44293582)
(119.73035 -0.2562448 -0.39793751)
(119.45555 -0.26871541 -0.51351731)
(119.59724 -0.22234515 -0.51788573)
(119.3361 -0.39588704 -0.64380611)
(119.5709 -0.40577129 -0.47113612)
(119.69694 -0.44099668 -0.54588718)
(119.5154 -0.46922787 -0.73031921)
(119.11896 -0.47799816 -0.94487654)
(118.93824 -0.41450677 -0.68500151)
(119.41222 -0.18254454 -0.55976199)
(119.28301 -0.085717634 -0.65801909)
(118.47529 -0.26741957 -0.91891466)
(118.71909 -0.26205482 -1.1620472)
(119.20016 -0.29719736 -1.1156134)
(119.48438 -0.19727646 -0.91239322)
(119.66739 -0.12634181 -0.73003599)
(119.7987 -0.09008106 -0.60745732)
(119.88062 -0.061475407 -0.49581934)
(119.93876 -0.045563503 -0.41945858)
(119.97341 -0.032338185 -0.34135498)
(120.02947 -0.013393757 -0.25289835)
(120.04088 -0.0072628347 -0.18071041)
(120.05431 -0.0090977092 -0.096797813)
(120.08875 -0.0057348655 -0.053150025)
(120.08091 -0.0086401624 -0.044132208)
(120.07008 -0.011832493 -0.036426312)
(120.08873 -0.025654344 -0.05647775)
(120.09402 -0.0083380732 -0.025090581)
(120.11047 -0.010365184 -0.028402609)
(120.10252 -0.026555122 -0.065195971)
(120.13732 -0.037733935 -0.080653474)
(120.11916 -0.037642005 -0.069408438)
(120.12805 -0.013378503 -0.031042384)
(120.1506 -0.01425876 -0.037063355)
(120.17098 -0.015390655 -0.044656999)
(120.1211 -0.0088057602 -0.032299794)
(120.11025 -0.024512586 -0.075712893)
(120.11787 -0.022513192 -0.089889345)
(120.13259 -0.010058371 -0.039003299)
(120.18744 -0.016651846 -0.055911863)
(120.16091 -0.037428688 -0.1222789)
(120.15156 -0.040088335 -0.10016607)
(120.16399 -0.064056933 -0.13618712)
(120.15815 -0.062432147 -0.12133952)
(120.14694 -0.059963462 -0.10783952)
(120.14537 -0.051343139 -0.083783359)
(120.15993 -0.01833824 -0.034565006)
(120.17078 -0.027294854 -0.053347365)
(120.16235 -0.041901467 -0.078847428)
(120.17636 -0.045598691 -0.090113124)
(120.19944 -0.058106779 -0.10529731)
(120.18554 -0.053390639 -0.091749755)
(120.16609 -0.073852638 -0.12329362)
(120.17677 -0.077189418 -0.13900677)
(120.19519 -0.099113813 -0.16142318)
(120.18222 -0.090229004 -0.13970585)
(120.186 -0.078563066 -0.10896785)
(120.21087 -0.028468009 -0.046001031)
(120.2208 -0.041048026 -0.067205232)
(120.19685 -0.033798219 -0.05981901)
(120.20131 -0.0098339611 -0.02529113)
(120.17367 -0.0062439485 -0.02169911)
(120.19165 -0.0087181382 -0.024669568)
(120.18726 -0.028685251 -0.059486869)
(120.21383 -0.034565884 -0.06567496)
(120.22027 -0.012327144 -0.028393987)
(120.25119 -0.015180896 -0.030168229)
(120.22683 -0.011740914 -0.026772175)
(120.26066 -0.015220935 -0.031466287)
(120.25234 -0.052161383 -0.079326062)
(120.23313 -0.08324196 -0.11959643)
(120.20637 -0.065479786 -0.10300662)
(120.22344 -0.074554133 -0.12072639)
(120.25026 -0.093470827 -0.13978135)
(120.21469 -0.12371426 -0.1863446)
(120.20289 -0.11411995 -0.16084071)
(120.21817 -0.13979074 -0.18130502)
(120.2214 -0.11278036 -0.13334486)
(120.26039 -0.038015031 -0.060046945)
(120.27893 -0.061175215 -0.089293633)
(120.25482 -0.10164722 -0.13543578)
(120.278 -0.11771284 -0.16186757)
(120.23369 -0.15698644 -0.21531455)
(120.25457 -0.19295945 -0.24843286)
(120.23998 -0.17301531 -0.21063632)
(120.18672 -0.21339115 -0.25255254)
(120.12603 -0.24329382 -0.28463045)
(120.06625 -0.26550745 -0.30868371)
(120.0522 -0.28759897 -0.36165507)
(119.98036 -0.30105052 -0.37900167)
(119.94868 -0.36092534 -0.41336474)
(120.02881 -0.35216422 -0.40171071)
(120.05154 -0.31501816 -0.33423364)
(120.0304 -0.3824522 -0.3740242)
(119.95112 -0.39646053 -0.37990804)
(119.90881 -0.43905401 -0.45877289)
(120.0042 -0.42454018 -0.44733225)
(120.09699 -0.39803434 -0.42482083)
(120.11101 -0.3276141 -0.37782215)
(120.11907 -0.26589252 -0.3355688)
(120.12268 -0.2185089 -0.29502278)
(120.11177 -0.23349108 -0.34642078)
(120.11698 -0.1849422 -0.3009224)
(120.06092 -0.19862683 -0.32661186)
(120.06974 -0.15793176 -0.28384537)
(120.07681 -0.12480024 -0.24863896)
(120.07736 -0.098667994 -0.21083432)
(120.07163 -0.096604603 -0.23611579)
(120.0327 -0.10071721 -0.24934989)
(120.02398 -0.13128757 -0.29440794)
(120.03718 -0.13214221 -0.26252103)
(120.02364 -0.16327113 -0.29581047)
(120.00485 -0.16459979 -0.33613931)
(120.05697 -0.16056656 -0.32224004)
(120.06895 -0.12438623 -0.27782615)
(120.10996 -0.11486344 -0.25381287)
(120.10605 -0.088529631 -0.21580512)
(120.14114 -0.077999281 -0.18817208)
(120.1391 -0.077915088 -0.16581741)
(120.15181 -0.10040005 -0.19729442)
(120.15222 -0.10208511 -0.22363618)
(120.14873 -0.10139706 -0.25522364)
(120.13981 -0.075544337 -0.20933618)
(120.10112 -0.084609148 -0.23828102)
(120.06326 -0.090934637 -0.25928816)
(120.02278 -0.09385836 -0.27032993)
(120.00808 -0.082587142 -0.29605757)
(120.05322 -0.081826091 -0.28436626)
(120.04213 -0.10926131 -0.34143943)
(120.05538 -0.11926722 -0.31154788)
(120.00841 -0.12407275 -0.32459502)
(119.98968 -0.11208388 -0.35606199)
(119.95607 -0.14452932 -0.41355754)
(119.9825 -0.15719601 -0.37238545)
(120.037 -0.15581404 -0.36339633)
(120.0164 -0.1466055 -0.40447907)
(119.98686 -0.19635526 -0.48153205)
(120.01544 -0.20406286 -0.42743508)
(120.04356 -0.20561273 -0.37478798)
(119.97941 -0.21383149 -0.39178705)
(120.0051 -0.20720015 -0.34009988)
(119.97422 -0.25372487 -0.38129077)
(120.0404 -0.24928554 -0.37187733)
(120.01493 -0.26262437 -0.43130622)
(119.93918 -0.2647746 -0.44309587)
(119.8958 -0.33964858 -0.51221147)
(119.94174 -0.31777941 -0.4360641)
(120.02118 -0.30938712 -0.42466898)
(119.98869 -0.33196081 -0.49644297)
(120.07873 -0.31655485 -0.46863139)
(120.09358 -0.24854422 -0.40538317)
(120.10424 -0.19329451 -0.34847811)
(120.10929 -0.14953556 -0.29818086)
(120.16085 -0.13392544 -0.26341787)
(120.16237 -0.12886489 -0.22833588)
(120.17247 -0.16419566 -0.26538933)
(120.1684 -0.17437396 -0.31003671)
(120.15764 -0.18035192 -0.36206606)
(120.1543 -0.13534812 -0.30328778)
(120.09645 -0.14837031 -0.33949824)
(120.10176 -0.11239409 -0.28697306)
(120.09083 -0.10394852 -0.31782554)
(120.09418 -0.076643189 -0.26348149)
(120.13696 -0.069946549 -0.2338733)
(120.14304 -0.095616298 -0.28536355)
(120.14412 -0.1315638 -0.34545514)
(120.0797 -0.14125134 -0.38213162)
(120.05999 -0.19180779 -0.45855228)
(120.0852 -0.19603704 -0.40177696)
(120.06598 -0.25767458 -0.47319276)
(119.97466 -0.26566752 -0.49748574)
(119.8955 -0.26228268 -0.50012124)
(119.94853 -0.20825166 -0.43747521)
(119.91097 -0.19706604 -0.49282297)
(119.86687 -0.1726065 -0.53408268)
(119.92513 -0.12364245 -0.44457029)
(119.96873 -0.094627229 -0.38113788)
(119.99432 -0.069053041 -0.31291036)
(120.03778 -0.042305322 -0.23902762)
(120.04445 -0.024237378 -0.17106014)
(120.08851 -0.020861797 -0.14310926)
(120.0876 -0.0067987898 -0.15311212)
(120.10362 -0.011926946 -0.21959753)
(120.10774 -0.037518174 -0.20458386)
(120.16494 -0.027691565 -0.14455047)
(120.1207 -0.014724019 -0.10113748)
(120.13835 -0.0063365726 -0.045211282)
(120.14224 -0.0036514224 -0.050826368)
(120.12259 -0.0057042047 -0.10960477)
(120.16558 -0.0090097466 -0.15829192)
(120.20301 -0.0049442802 -0.078796748)
(120.19828 -0.013433245 -0.069280401)
(120.23158 -0.030614849 -0.11664852)
(120.22735 -0.034254467 -0.10320344)
(120.21871 -0.033310474 -0.088132048)
(120.21087 -0.032970367 -0.077225465)
(120.19824 -0.029950407 -0.0664058)
(120.18511 -0.046964576 -0.10139448)
(120.19473 -0.049123377 -0.11685328)
(120.16997 -0.065364102 -0.1555835)
(120.18922 -0.085347576 -0.18344762)
(120.18423 -0.082532723 -0.16045997)
(120.21083 -0.0620006 -0.12170192)
(120.22055 -0.065562831 -0.14027582)
(120.24225 -0.042638229 -0.088275373)
(120.22876 -0.038821444 -0.075664861)
(120.23751 -0.014341411 -0.031831637)
(120.20425 -0.0096561257 -0.027030399)
(120.2189 -0.012920055 -0.032281704)
(120.25372 -0.018260998 -0.03830406)
(120.26778 -0.022143736 -0.047709377)
(120.22879 -0.01443669 -0.038136191)
(120.23991 -0.017137656 -0.047658011)
(120.28016 -0.025792477 -0.060389661)
(120.2621 -0.04752229 -0.12411346)
(120.25323 -0.046108221 -0.1050126)
(120.22725 -0.06785176 -0.16360251)
(120.19999 -0.048990649 -0.13204845)
(120.17178 -0.063930836 -0.17422802)
(120.17306 -0.060423654 -0.19669921)
(120.20524 -0.047706549 -0.15135499)
(120.23171 -0.067153435 -0.18816617)
(120.19014 -0.083174799 -0.23978587)
(120.19097 -0.086525527 -0.21159673)
(120.20887 -0.11659789 -0.25463844)
(120.2082 -0.11283693 -0.21851258)
(120.2034 -0.10643488 -0.18774531)
(120.23704 -0.080374754 -0.1409177)
(120.24813 -0.087147239 -0.16563051)
(120.27874 -0.11501147 -0.19626769)
(120.26602 -0.10350685 -0.16478188)
(120.22333 -0.13644445 -0.21933955)
(120.2276 -0.1480309 -0.25869468)
(120.22658 -0.15682131 -0.30631592)
(120.28728 -0.12555914 -0.23626935)
(120.2557 -0.092523172 -0.19582403)
(120.25967 -0.094921599 -0.23066359)
(120.20556 -0.11608595 -0.29436865)
(120.21948 -0.16154827 -0.36052179)
(120.14127 -0.18071001 -0.41895394)
(120.11789 -0.16794022 -0.48184953)
(120.1296 -0.11888859 -0.389797)
(120.13436 -0.084808407 -0.31820855)
(120.13234 -0.060673006 -0.25475578)
(120.08623 -0.065763924 -0.28444731)
(120.0416 -0.069019624 -0.30493221)
(120.03145 -0.052263142 -0.3240019)
(119.98105 -0.051820031 -0.33180695)
(119.95119 -0.072989755 -0.40479167)
(120.0099 -0.072283522 -0.39589923)
(120.02344 -0.09357863 -0.37252754)
(120.07781 -0.090876969 -0.3502629)
(120.06552 -0.070188587 -0.37561643)
(120.07812 -0.04956412 -0.30431943)
(120.12716 -0.046423676 -0.27507456)
(120.12588 -0.066312239 -0.34418641)
(120.11797 -0.042416032 -0.36592792)
(120.123 -0.029172815 -0.28818456)
(120.07224 -0.03118337 -0.31686788)
(120.02401 -0.032347005 -0.33585249)
(120.01968 -0.0089575288 -0.34147826)
(119.96803 -0.0089725396 -0.34672971)
(119.93165 -0.013813077 -0.42643564)
(119.99156 -0.013395396 -0.42164701)
(119.9973 -0.045268807 -0.41458989)
(120.05541 -0.04464778 -0.39601214)
(120.05003 -0.012482489 -0.40400541)
(120.06856 -0.008037187 -0.32296538)