/*--------------------------------*- C++ -*----------------------------------*\
  =========                 |
  \\      /  F ield         | OpenFOAM: The Open Source CFD Toolbox
   \\    /   O peration     | Website:  https://openfoam.org
    \\  /    A nd           | Version:  7
     \\/     M anipulation  |
\*---------------------------------------------------------------------------*/
FoamFile
{
    version     2.0;
    format      ascii;
    class       surfaceScalarField;
    location    "120";
    object      phi;
}
// * * * * * * * * * * * * * * * * * * * * * * * * * * * * * * * * * * * * * //

dimensions      [1 0 -1 0 0 0 0];

internalField   nonuniform List<scalar> 
76009
(
0.0022851594
1.4791498
-1.4798651
-2.0320876
2.0336708
-36.230065
2.0787318
-2.079197
-2.0785806
2.077399
-34.812083
-6.7388963e-05
0.0022385874
2.0336845
1.4791848
-1.4798431
-2.0320708
-36.230019
2.0774707
2.0787604
-2.0791557
-2.0784903
1.353032e-06
-34.811942
-0.0032970373
-9.3255118
-0.0032621108
-0.38308061
0.37482777
0.36809174
-0.39122451
0.36809734
0.37484306
-0.38307836
-0.39122852
-0.012917679
-7.6966048
0.066696492
-7.4072251
0.012951388
-0.012231464
-0.012220556
-10.342481
0.0062354205
-0.054428542
-9.6927139
-0.0062240538
0.38356913
0.37889087
-0.37516737
-0.37997516
0.38356695
-0.37997943
-0.37517342
0.37888482
-9.3276687
7.6966251
-0.054433791
-9.6927235
0.066725059
0.37074811
-0.37676641
0.52407555
-0.53748336
-8.2570546
-0.0017475563
-0.00016714812
-0.57882949
-0.020096761
0.023902777
-0.024987705
0.032530487
-0.00036759825
-0.56517143
0.032724178
-0.025231208
-0.025361215
0.032603695
-0.011084593
-0.0078144009
-2.4813406
0.098779141
0.13269092
-0.12925988
-0.096202058
0.0034920884
-2.6372685
0.09499047
-0.092240692
-0.12671767
0.12824156
-0.13055943
-2.3433026
0.0024249515
-0.47576631
0.0019818145
-0.0015569864
-0.0013555572
0.00060365098
-0.57570201
-0.031938805
-0.023523055
0.02376408
0.032323174
-0.52720197
0.0015732993
-0.00062750444
0.00038123229
-0.65461143
-0.0016041534
-0.00047485871
-0.6643617
0.48080033
-0.6238787
0.0096823164
0.0062035174
0.0046540831
-0.13147972
-0.51121223
-0.02328563
0.023555553
0.032685268
-0.032789798
-0.001821322
-0.13258837
-0.10192675
0.097957092
-0.10192542
-0.13258403
-2.3813348
0.0019816565
0.13646864
0.13357934
-0.13114456
-0.13384021
-2.5356662
0.13599592
-0.13349918
-0.1291917
0.13146323
-2.4765205
-3.7161546e-06
-2.6945762e-05
0.001476729
-0.53375718
-0.0006902875
-0.00075749489
0.001543329
-0.53514146
0.0015338975
-0.53186105
0.00014163729
-0.54577361
-8.7661704e-05
0.032272725
0.032325413
-0.031990819
-0.031993298
6.1833742e-05
-0.54656133
0.032368737
-0.031972505
-0.032000421
0.032322301
-0.54768651
-0.032139664
0.032533405
0.032366714
-0.031972723
0.0029159097
-0.00036086652
0.00016492875
0.032726589
0.03260716
-0.025355472
-0.025226881
-0.56515788
-0.0006044094
-0.65910406
-0.0030666231
-0.0001701073
-0.66634934
-0.00018350469
0.032609727
0.032562032
-0.025446313
-0.025365538
-0.56416523
0.003157479
-4.7503499e-05
-0.02544388
0.032564705
0.032517503
-0.025447641
-0.56325777
0.00054261556
-0.6648116
0.52540169
-0.0031923195
-0.65085803
-4.276732e-07
0.0014237175
-1.6519858e-06
-0.54394335
-8.6333814e-07
-0.031973055
0.032260706
0.032231794
-0.031963721
-0.56132944
2.2480048e-07
-0.025425823
0.032505628
0.032479452
-0.025413215
0.0047969391
6.1014379e-05
-0.57262329
8.7936892e-07
0.006435017
-0.12865032
0.00067343975
-0.51808449
2.7902366e-07
-0.50014269
0.0024888206
-2.0271966
-0.10843208
0.13306556
-0.10495434
4.6283033e-07
0.0017365299
-7.7911888
0.51968366
-0.54579792
-0.52580516
-3.693587e-06
-8.2570058
-0.37675044
0.37076279
0.52409101
-0.53745714
0.012579671
0.54797093
0.38634096
-0.37538416
-0.52860022
-10.433497
0.55337382
9.2718895e-06
-0.53163143
-0.51373417
0.5366052
-9.9017221
-0.0069281212
0.020385837
2.681725
-2.1402818
-0.0015270617
-0.013447325
2.6567582
-2.1177715
0.015503441
2.6261284
0.0065737454
-1.8762394
1.8143389
0.021763751
0.030194704
0.042704877
0.035883985
-2.104008
-0.085018363
-0.003041003
0.12977078
0.096575999
-0.10475204
0.040380726
-0.0033239793
0.63400394
0.021515926
-2.3271286
-0.0075023805
0.61588088
0.53959959
0.62223977
0.077645643
-0.098100904
-0.13423864
0.096465493
0.08436261
0.47536384
-0.0045293369
-0.0062115414
-2.0379989
0.094770717
0.12575764
-0.11885438
0.081360711
-2.1870525
-0.19046035
-1.949544
0.002820985
0.14513513
-0.0050366312
0.0011658839
-0.14269097
-2.1781496
-0.0065147352
-2.6301206
0.0052649072
-0.002339918
-2.6558114
2.3145575
0.09596052
0.13062504
-0.12955706
-0.095124002
0.00052089142
-2.3105522
0.0015483147
0.13183067
0.096418832
-0.094781967
-0.12926247
2.2167727
-2.2007438
2.0242937e-05
-0.12993159
0.1328006
0.13216355
-0.12914752
0.62873184
-0.064425695
-0.0018706265
0.63350487
0.54563994
0.54240323
0.098740191
-0.13608954
-0.1352837
0.097919789
0.10546128
-0.0018886723
0.52339901
0.0054847117
-0.0037244888
-2.0663684
-0.10887594
0.13347729
0.1306936
0.0018089824
0.06179344
2.5903145e-06
-2.6129888
0.63262185
0.54173579
0.53939856
0.61794045
4.8910273e-06
0.097918332
-0.13498286
-0.13481479
0.097609381
-2.1975088
0.0011039113
-0.0040942663
0.52644749
0.00073264075
0.52785226
-0.0040080973
-0.00027953649
-0.0046132753
-0.00012698584
-0.00085098536
-0.0044400041
-0.0023633957
-0.52006125
-0.0032669871
-1.4539867e-05
-0.51591345
0.0098549836
0.0079228642
-0.0031044026
-0.020311891
0.0033003573
0.57494467
-0.037926981
-0.0038228597
0.57881859
0.0033253317
-0.00061124848
0.023904993
-0.020093737
-0.024984058
0.032532467
-0.023752047
-0.11768131
0.00056233219
0.16445129
0.0003247292
-0.020346793
0.032740344
-0.029857099
-0.010861945
-0.63302364
-0.15575003
-0.0011201657
-0.0012516431
0.1538
0.15588842
0.13483703
-0.0070159438
-0.022817297
0.018934416
0.023153775
-0.028254264
-0.0031296957
-0.57782114
0.12950835
-0.00067673458
-0.0011358416
0.16279353
-0.00024740254
5.7025418e-05
0.00013935472
0.13084697
-0.00013069112
-9.0986921e-07
0.11840622
-0.00062425893
0.00018664231
0.00039291299
-0.00013247792
8.3597675e-05
0.0001366995
-0.14572615
-0.00021373824
-7.8974041e-05
-0.13150216
4.900311e-05
-3.8999489e-05
-0.16413737
-0.0007398453
-0.14547573
-0.00038265961
-3.7449845e-05
-0.00034557552
-0.14394777
-0.0012864638
-0.00014332623
-0.13071569
-0.00070218678
-0.00065273358
-0.0052832783
-0.0094510485
-0.0009891614
0.0001362277
0.14501558
0.00026854496
-0.15431307
-0.00055832409
0.028536294
0.13145592
-2.2320766e-05
-0.16511694
0.49549759
0.033005136
0.032210513
-0.032394511
-0.035240349
-0.57733078
0.032574774
-0.032462451
0.031897459
-0.032333455
0.031348906
-0.13154165
-0.00016448612
-0.00014310778
-6.1694723e-05
-0.00057671643
-0.16410553
0.14548141
-0.00047135213
-0.14538601
-6.8398416e-05
-0.00025666539
-0.00011314257
0.00018636004
-0.14485003
-0.00025660878
-0.00013895778
-0.13004949
-0.00012144237
-0.00010643491
-0.1622198
-0.00063342901
-0.14497588
-0.00035375814
-9.8185154e-05
0.0011952271
-0.00017532473
-0.14559624
-0.0003458455
-5.3690315e-05
-0.00037316383
-8.85102e-05
-0.00071982942
-0.1306099
-0.00029454111
0.00010585657
-0.00075129289
-0.1623813
-0.00033979001
-0.14480049
-8.156327e-05
-8.7472251e-10
-0.14382737
0.14398246
-6.0751629e-05
-0.00043412581
0.032676719
-0.16285689
-0.00041602313
0.1298449
0.035244078
-0.59598141
-0.032677718
0.03252892
0.52706178
0.02421243
-0.02484752
-0.024846387
0.024213122
0.032529075
0.010867898
-0.57733387
0.032210084
0.033005872
-0.028536917
-0.032395971
-0.63302972
-0.020346945
0.02375337
0.032740585
-0.029858291
-0.00019494477
-0.56418169
0.032605992
-0.025371936
-0.025455011
0.032556189
-6.2787166e-05
-0.56327604
0.032558687
-0.025453239
-0.025460056
0.032508371
-0.56134879
0.032496544
-0.025438764
-0.025429572
0.032466653
-1.6800589e-05
7.7534577e-05
0.0063887295
-1.6108991e-05
0.0048341242
-0.57263307
0.00029513545
0.006537886
0.0047806103
-0.57481214
0.00075533556
0.0046340941
-0.57614255
0.006866561
0.00061757052
0.0044544595
-0.576809
0.0073208745
-0.0098519327
0.0032768438
-0.5749521
0.0033152664
-0.12575684
2.0864592e-05
-0.51591841
0.0079157559
-0.035868644
-2.0380077
-0.084364176
0.09477347
-0.11885888
0.081346346
-1.8143499
0.04270837
0.030185329
0.021756942
-2.6261369
-0.021531052
-2.1870563
-0.19046349
0.6340105
-0.040358745
-2.3271349
-0.0075345741
0.62224652
0.53960163
0.61588477
0.077642864
-0.098103005
-0.13424517
0.09645901
0.085026127
-0.0062147704
0.47536939
-0.0045344281
-2.1040304
-0.0030514556
-0.10476298
0.12976426
0.096570238
-2.6567723
-0.0033433488
-0.01343777
-0.54795498
0.015489135
-2.1177759
0.0069072514
-0.38633326
-1.8762426
0.0065681181
-0.37539079
-0.5286142
0.012549154
-10.433518
0.0050338018
-0.006524045
-2.6301226
1.9495452
0.0011525108
-2.1781497
-0.14268767
0.0028052846
0.14513654
-2.3145579
0.0015213488
0.096418233
-0.094782152
-0.12926598
0.13182605
-0.0052562866
-2.3105504
0.00050025952
0.095960868
-0.095123382
-0.12955882
0.13062237
-0.0023575044
-2.6558129
0.53164752
-2.6830377
0.0024729622
2.1402854
0.0062743483
7.7912602
-9.9017419
-0.51376528
0.53656204
0.55335265
-5.1674874e-05
0.51965583
-0.54583596
0.50008755
-0.52587018
-7.3747948e-05
-2.0663963
-0.10547507
0.13068518
0.13346232
-0.10889704
-0.0025119632
0.064382258
-2.681741
0.0017831762
0.62874252
0.63351378
0.54240312
0.54564419
-2.216776
-0.0019190496
-0.13609602
0.098732074
0.097902326
-0.13529926
0.0054918008
0.5234083
-0.001895948
-0.0037366951
0.5200692
-0.0033086314
-0.0023622008
0.00084695174
0.00027359158
-0.52786313
-0.0001375366
-0.0040256661
-0.0011166736
0.00094408765
-0.00088822166
-0.037820957
0.0038315373
-0.037788948
0.0031092723
-0.037936832
-0.02031768
0.1175866
0.50194811
0.007189299
0.0086646708
-0.65570637
-2.2132406
-0.11758423
0.12603928
0.091425628
-0.10257144
0.091424342
0.12604053
-0.10257461
0.10986131
0.096424431
0.10985791
-0.096316221
-0.098053421
0.096428219
-0.0980497
-0.096312066
-2.6180049
0.65570383
0.0029945594
-0.47155791
0.00036646766
0.50194493
0.0086671255
0.0071956544
-0.0041325042
-0.51568697
-0.020980449
0.027465355
-0.030646806
0.031588208
0.018223007
-0.0050940269
-0.050177394
-0.55431987
0.15893458
0.15616845
0.13523731
0.15529759
-0.011935931
-0.0022012237
0.023138977
0.018811355
-0.024708271
-0.033599461
-0.5802374
0.11866455
-0.0013342371
-0.0021934761
-0.00015336965
0.00010074427
-0.13049271
-0.00018635693
-0.00063360576
-0.0022602355
-0.0016525195
0.0012369122
0.14326091
-0.001370018
-0.010150734
0.12971281
-0.0060185824
8.4880457e-06
-0.00098802603
-0.0013717508
-0.00034569615
-4.503199e-05
-0.14375884
-0.001197725
-0.00019752591
-0.032530739
-0.1305343
-0.00082490835
-0.018222096
0.032529432
-0.029862725
-0.025311368
0.024182915
-0.56261887
-0.029860893
-0.025309834
0.024184292
0.004136737
-0.020982094
0.027464583
0.03158671
-0.030648853
-0.51568871
0.0070114175
0.15575292
0.15589042
0.13483849
0.15380301
-0.0031397716
-0.57782629
-0.02281912
0.018932865
-0.028257319
0.02315148
0.11768351
-0.0012535557
-0.0011207443
0.0003226007
0.00056239583
-0.00017410629
0.0011976154
-0.14559824
-0.00034771707
-5.6007326e-05
0.00072150419
-0.13061119
-0.00029607516
0.00070458485
0.00037241025
-0.13145757
-0.13071779
0.00034523303
-0.00065367708
-0.005285541
0.00067929841
0.14395055
-0.0094540575
-0.00099098371
0.12951124
-0.0011373814
-0.00025014556
5.6498208e-05
-0.0012891197
-0.00014435998
-0.14501795
-9.0131603e-05
0.00013766323
0.0002663336
-0.00056093944
-0.15431506
-2.3764631e-05
-0.1651186
0.00010401085
-0.00075246999
-0.16238247
-0.00034141723
-8.4520272e-05
-0.14480195
2.169277e-06
0.14398399
-0.00043479978
-6.4347183e-05
-0.14382843
0.12984579
-0.00041618224
-0.16285763
0.16235837
-3.9628937e-05
-0.00024010056
0.032548673
0.1295758
-0.00022650671
-0.00017505162
0.032257478
0.024114394
-0.024672471
-0.032549153
0.032255537
-0.024672325
0.024113649
-0.0022255
2.077481
-2.0784826
-2.0791328
2.078784
-34.811848
1.4792189
2.0337118
-2.0320425
-1.479817
-36.229793
-0.53051421
-10.423525
-0.3695685
0.37482184
0.058202143
0.0019869358
0.13647076
-0.13383603
-0.13114015
0.13358049
-0.0034956885
-2.5356546
0.13146431
0.13599638
-0.13349701
-0.12919055
-2.4765169
0.00068756024
-0.52540105
0.001424774
-0.0015472665
-0.00013913828
-0.54655702
5.9229811e-05
0.032369724
0.032323656
-0.031998412
-0.031970601
3.0333421e-05
-0.53513777
-0.00075990012
-0.53375481
0.0014795723
0.00054333344
-0.0031543102
0.00016891727
-0.66480977
-0.0031911786
-0.65085751
0.54394253
4.7654641e-05
-0.56132902
0.032479647
0.032506265
-0.025425042
-0.025412988
8.5640242e-05
-0.031963394
0.032232109
0.03226116
-0.031972346
-0.545771
0.032273749
-0.031991975
-0.031989352
0.032326294
0.00018302746
-0.56325635
0.032518493
0.032565914
-0.025442302
-0.02544644
0.0030619703
0.00035988753
-0.56416281
0.032611223
0.032563556
-0.025444375
-0.025363443
0.00060349757
-0.66634641
0.53185606
-0.0029103468
-0.0003822726
-0.65910009
0.001538426
-0.0015755415
-0.54768072
0.032534389
0.032368086
-0.031970364
-0.032137513
-0.00060579712
0.00016381438
-0.56515452
0.03272819
0.032608921
-0.025353089
-0.025224491
0.0015978663
0.032534337
0.57569498
-0.024981423
-0.020091163
0.023907042
-0.57881446
-0.0096833611
0.1292542
0.52719639
-0.65460692
-0.00062807778
-2.6372527
0.13269332
-0.096195792
0.098782596
0.011084936
5.9039307e-05
-0.0022635256
1.4007027e-05
-3.7674891e-05
0.00011904427
-0.0026865844
1.8054741e-05
-4.1736034e-05
0.00018602489
-0.0030426964
2.1146434e-05
-4.5579899e-05
0.00026481762
-0.0034093941
2.3945106e-05
-4.9809967e-05
-0.055323341
0.00051049034
-0.00048298215
-0.00017368949
-0.00024133239
-0.055389935
0.00032847476
-0.00021443842
0.00019389165
-0.00017058677
-0.0034754378
2.0144101e-05
-2.4845582e-05
-0.00010597413
-0.0031028847
1.8739557e-05
-2.3163507e-05
-4.8122588e-05
-0.0027403114
1.7468821e-05
-2.1592458e-05
-0.002308019
1.6187093e-05
-1.9816182e-05
1.9968101e-05
-0.0023253439
3.7431836e-06
-6.3854566e-06
4.1377182e-05
-0.0027591777
4.5069179e-06
-7.0487936e-06
6.509145e-05
-0.0031239971
4.9755808e-06
-7.5767553e-06
9.1893771e-05
-0.0034995294
5.4285828e-06
-8.1387714e-06
-0.055666164
0.00012435402
-7.2641446e-05
0.00031641217
-3.7057205e-05
-0.056013406
8.2653444e-05
-2.8804891e-05
0.00033045242
-2.6068399e-05
-0.0035108094
3.9373196e-06
-3.6419246e-06
-1.6157184e-05
-0.0031341076
3.6618762e-06
-3.4580446e-06
-7.3564769e-06
-0.0027681082
3.4605158e-06
-3.3198409e-06
-0.0023328176
3.3549384e-06
-3.2376232e-06
2.5718178e-06
-0.0023353895
1.8834977e-06
-1.8778355e-06
5.3592609e-06
-0.0027710101
2.0514636e-06
-1.9344358e-06
8.4245069e-06
-0.0031373814
2.220647e-06
-2.0102208e-06
1.1823465e-05
-0.003514529
2.4282021e-06
-2.1071816e-06
-0.056308249
5.7521887e-05
-1.6107199e-05
0.00026525448
-5.5890819e-06
-0.056511394
4.5765232e-05
-1.3470101e-05
0.00017643971
-3.9590073e-06
-0.0035165573
2.1814969e-06
-1.7824992e-06
-2.4506228e-06
-0.0031392034
2.0151491e-06
-1.7008421e-06
-1.1023917e-06
-0.0027726058
1.8826448e-06
-1.6335725e-06
-0.0023366956
1.7839332e-06
-1.5802537e-06
7.3592376e-07
-0.0023375516
1.4483404e-06
-1.3312599e-06
1.5878529e-06
-0.0027736189
1.5640782e-06
-1.4038984e-06
2.5267501e-06
-0.0031403481
1.6802817e-06
-1.475104e-06
3.5458625e-06
-0.0035178363
1.8154702e-06
-1.555502e-06
-0.056631621
3.5359038e-05
-1.219992e-05
0.00010061546
-2.9276615e-06
-0.056695744
2.7243913e-05
-1.0678442e-05
5.0486329e-05
-2.0784047e-06
-0.0035188695
1.5135394e-06
-1.3273167e-06
-1.2960519e-06
-0.0031412817
1.4075738e-06
-1.2538528e-06
-5.8846815e-07
-0.0027744479
1.315609e-06
-1.1885556e-06
-0.0023382438
1.2258199e-06
-1.1221296e-06
4.8601232e-07
-0.0023388048
9.9172097e-07
-9.138161e-07
1.0521994e-06
-0.002775107
1.066677e-06
-9.7245197e-07
1.6805397e-06
-0.00314202
1.1396753e-06
-1.028836e-06
2.3611729e-06
-0.0035196802
1.2222588e-06
-1.0920574e-06
-0.056728322
2.0966569e-05
-8.9553156e-06
2.2928152e-05
-1.9360825e-06
-0.056745313
1.6370661e-05
-7.3401794e-06
9.8972121e-06
-1.3742294e-06
-0.0035203407
9.8334006e-07
-8.8460103e-07
-8.5854359e-07
-0.003142622
9.1849696e-07
-8.3200804e-07
-3.9748965e-07
-0.0027756433
8.6129605e-07
-7.85742e-07
-0.0023392665
8.0247612e-07
-7.3818035e-07
3.2190807e-07
-0.0023396396
6.4712221e-07
-5.9502112e-07
6.9409036e-07
-0.0027760758
6.9401321e-07
-6.332072e-07
1.1063879e-06
-0.0031431027
7.3940936e-07
-6.7062095e-07
1.5542672e-06
-0.0035208659
7.910117e-07
-7.1363911e-07
-0.056755138
1.297817e-05
-5.9675072e-06
4.3697021e-06
-1.2513077e-06
-0.05676158
1.0413204e-05
-4.8532271e-06
2.1335205e-06
-8.9203444e-07
-0.0035212861
6.3848882e-07
-5.7727572e-07
-5.6200378e-07
-0.0031434876
5.9711917e-07
-5.4203117e-07
-2.6129754e-07
-0.0027764248
5.6068481e-07
-5.1191082e-07
-0.0023399426
5.2318581e-07
-4.8152134e-07
2.1422698e-07
-0.0023401859
4.2106043e-07
-3.8920089e-07
4.5312262e-07
-0.0027767002
4.5108807e-07
-4.1346569e-07
7.1777507e-07
-0.003143794
4.8032654e-07
-4.377391e-07
1.001565e-06
-0.0035216174
5.1379705e-07
-4.6620812e-07
-0.056766203
8.3780528e-06
-3.9316968e-06
1.1779927e-06
-7.9451642e-07
-0.056769636
6.6673591e-06
-3.1513418e-06
7.123486e-07
-5.6987735e-07
-0.0035218766
4.0753102e-07
-3.7264936e-07
-3.622257e-07
-0.0031440325
3.8092429e-07
-3.4975342e-07
-1.7241842e-07
-0.0027769164
3.5804295e-07
-3.3070729e-07
-0.0023403814
3.3516694e-07
-3.1203603e-07
1.417576e-07
-0.0023405356
2.5497898e-07
-2.4263284e-07
2.9070292e-07
-0.0027770799
2.699555e-07
-2.554319e-07
4.5150589e-07
-0.0031442101
2.862887e-07
-2.6953823e-07
6.217229e-07
-0.0035220659
3.0612347e-07
-2.8699747e-07
-0.056772103
5.0557986e-06
-2.4347273e-06
4.6687408e-07
-4.8329854e-07
-0.056773693
3.3281477e-06
-1.6899293e-06
4.3543499e-07
-3.5355676e-07
-0.0035221935
1.9671077e-07
-1.9909866e-07
-2.3178277e-07
-0.0031443295
1.8467658e-07
-1.8722772e-07
-1.14507e-07
-0.0027771952
1.7652464e-07
-1.7899449e-07
-0.0023406484
1.7180651e-07
-1.7350878e-07
9.6584538e-08
-0.0023407261
7.9718264e-08
-1.0034332e-07
1.8295838e-07
-0.0027772571
7.1780997e-08
-9.6911148e-08
2.7482778e-07
-0.0031443938
7.016471e-08
-9.8151725e-08
3.6722638e-07
-0.0035222555
7.2857783e-08
-1.0322882e-07
-0.056774473
1.3703841e-06
-8.6295688e-07
6.3934783e-07
-2.7879803e-07
-0.056774287
-8.0276865e-07
-6.3693088e-08
9.5961393e-07
-2.1455015e-07
-0.0035222364
-6.4128418e-08
-1.8637787e-08
-1.5027897e-07
-0.0031443812
-5.5893742e-08
-2.0331446e-08
-8.2416942e-08
-0.0027772541
-4.2981541e-08
-2.6285858e-08
-0.0023407486
-2.1000527e-08
-3.8835055e-08
7.5209639e-08
-0.0023407505
-1.1537375e-07
4.2896451e-08
1.250874e-07
-0.0027772179
-1.5109721e-07
6.5313872e-08
1.6385491e-07
-0.0031443238
-1.7472884e-07
7.8852676e-08
2.0545948e-07
-0.0035221721
-1.9360664e-07
8.7711282e-08
-0.05677333
-2.8679977e-06
8.2377089e-07
1.2924517e-06
-1.3835434e-07
-0.05677169
-4.1495656e-06
1.263902e-06
1.3846612e-06
-1.2057694e-07
-0.0035220541
-2.7283248e-07
1.3721e-07
-9.4523041e-08
-0.0031442271
-2.4737388e-07
1.2472024e-07
-6.5268701e-08
-0.0027771375
-2.1698997e-07
1.0769753e-07
-0.0023407235
-1.7341784e-07
8.1151209e-08
5.5440902e-08
-0.002340685
-1.6164162e-07
6.7819591e-08
7.103721e-08
-0.0027770414
-2.021579e-07
9.0486097e-08
7.1557966e-08
-0.0031441016
-2.3091382e-07
1.0488599e-07
6.6742028e-08
-0.003521909
-2.5556651e-07
1.1521761e-07
-0.05676969
-3.9591945e-06
1.0503066e-06
9.7534668e-07
4.2766457e-09
-0.056767769
-2.0018986e-06
7.7411564e-08
-8.3055649e-10
-2.425758e-08
-0.0035217644
-1.2838068e-07
1.2364623e-08
-4.6168728e-08
-0.0031439764
-1.1415829e-07
1.0892486e-08
-4.9766208e-08
-0.0027769469
-9.7412303e-08
6.4740643e-09
-0.0023406584
-7.3380552e-08
-2.9668791e-09
4.1949737e-08
-0.0023406644
8.8656026e-08
-1.247268e-07
2.471552e-08
-0.0027768847
9.2514155e-08
-1.3759056e-07
-1.395778e-08
-0.0031438852
9.6632725e-08
-1.4924064e-07
-6.4530943e-08
-0.0035216534
1.0196244e-07
-1.6245971e-07
-0.056766363
1.5754997e-06
-1.5519852e-06
-1.494152e-06
8.6172478e-08
-0.056765686
6.0243839e-06
-3.4916196e-06
-3.2967791e-06
2.4144568e-08
-0.003521609
3.9156745e-07
-3.7402929e-07
-2.5149921e-08
-0.0031438547
3.6201929e-07
-3.4341567e-07
-4.9136174e-08
-0.0027768796
3.3182652e-07
-3.1324521e-07
-0.002340731
2.9317537e-07
-2.7577595e-07
4.5794982e-08
-0.0023408514
4.8813739e-07
-4.1390875e-07
1.4021505e-08
-0.0027769313
5.5629949e-07
-4.7306333e-07
-4.7556089e-08
-0.0031438837
6.0930566e-07
-5.1883369e-07
-1.2440624e-07
-0.0035216291
6.609211e-07
-5.6408667e-07
-0.056765826
1.0114524e-05
-5.1976479e-06
-4.9012621e-06
1.2871908e-07
-0.056766499
1.25482e-05
-6.1129809e-06
-5.8914782e-06
4.4279141e-08
-0.0035216942
8.1833316e-07
-6.6894763e-07
-2.2637992e-08
-0.0031439546
7.5355076e-07
-6.1588856e-07
-5.4937895e-08
-0.0027770247
6.8711577e-07
-5.6177121e-07
-0.0023410163
6.0131208e-07
-4.9142777e-07
6.9565667e-08
-0.0023412234
6.0728198e-07
-4.7029998e-07
4.7412923e-08
-0.0027771591
6.9499255e-07
-5.3875429e-07
-1.2163434e-08
-0.0031440667
7.6243356e-07
-5.9098337e-07
-9.1239548e-08
-0.0035218017
8.2815931e-07
-6.4165479e-07
-0.05676737
1.2679121e-05
-5.8573105e-06
-6.0423432e-06
-8.615039e-09
-0.056767814
1.053355e-05
-4.7188412e-06
-5.3616107e-06
-6.6940114e-08
-0.0035219021
6.8977657e-07
-5.3124485e-07
-1.0432843e-07
-0.0031441737
6.3575927e-07
-4.9160475e-07
-1.0324336e-07
-0.0027772903
5.7994674e-07
-4.5041609e-07
-0.0023414377
5.0708718e-07
-3.9600348e-07
1.4510057e-07
-0.0023416654
3.224505e-07
-2.4111103e-07
1.8134153e-07
-0.002777415
3.6333738e-07
-2.7542379e-07
1.764863e-07
-0.0031442685
3.9936621e-07
-3.0015035e-07
1.4824187e-07
-0.0035219873
4.3594812e-07
-3.2260025e-07
-0.056767499
6.7076086e-06
-2.787711e-06
-4.0871026e-06
-1.9318507e-07
-0.056766244
2.0877061e-06
-7.0546142e-07
-2.4447474e-06
-2.2356023e-07
-0.003521991
1.2736048e-07
-9.3264583e-08
-2.3065295e-07
-0.0031442875
1.1441923e-07
-8.835852e-08
-1.8002664e-07
-0.0027774836
1.0099957e-07
-8.3128443e-08
-0.0023418573
8.7286902e-08
-7.5358735e-08
7.2863531e-08
-0.0023419024
-8.6866518e-08
5.8293409e-08
3.6056652e-08
-0.0027774306
-8.863414e-08
7.2087752e-08
-4.6812168e-08
-0.0031441934
-9.3988063e-08
8.2523175e-08
-1.5867392e-07
-0.003521869
-1.0282172e-07
9.25631e-08
-0.056764742
-1.6556172e-06
9.7656684e-07
-9.8202736e-07
6.7678432e-08
-3.8517584e-06
2.095361e-06
-7.5519064e-07
-1.8530962e-08
-2.5574851e-07
2.2620841e-07
-9.2557661e-08
-2.3605885e-07
2.0741738e-07
-1.1907941e-07
-2.2003177e-07
1.8616084e-07
-2.0431572e-07
1.5482462e-07
8.1851828e-07
0.08291628
-2.1117309e-06
-3.4432629e-06
5.3865895e-07
0.0036426205
-1.6045167e-07
2.851399e-07
0.0031907503
-1.4690858e-07
7.9852222e-08
0.0027676064
-1.3126218e-07
0.0022916465
-1.0747397e-07
-1.6799085e-07
0.0022916187
1.0824067e-07
-4.344526e-07
0.0027676839
1.0009305e-07
-7.4971288e-07
0.0031908739
9.748447e-08
-1.1088455e-06
0.003642779
9.7777576e-08
0.082915502
7.2888534e-07
-2.7152461e-06
5.0634633e-07
0.082916002
3.9159642e-06
-2.8350221e-06
2.8321582e-07
0.0036428165
3.129255e-07
8.9750367e-08
0.0031908894
2.9233427e-07
-3.6297104e-08
0.0027676421
2.6866255e-07
0.0022914372
2.3255697e-07
1.9029705e-07
0.0022911676
4.0041412e-07
2.3912823e-07
0.0027674896
4.6647243e-07
2.3705925e-07
0.0031907748
5.1562426e-07
2.1424621e-07
0.0036427131
5.6207679e-07
0.082918192
7.65472e-06
-2.9235464e-06
-2.8966423e-07
0.082920193
1.1080298e-05
-2.2575886e-06
-2.8006556e-07
0.0036425853
8.0798162e-07
-2.5190138e-07
0.0031906423
7.4005284e-07
-1.8081614e-07
0.0027673297
6.6858926e-07
0.0022909202
5.7367032e-07
1.6943485e-07
0.0022906977
6.6027337e-07
2.4135917e-07
0.0027671834
7.6935754e-07
2.7142302e-07
0.0031905215
8.5303945e-07
2.8127996e-07
0.0036424701
9.3338776e-07
0.082921906
1.2911742e-05
-1.6644883e-06
-3.1139213e-07
0.082923669
1.2324985e-05
-1.2289928e-06
-2.9072645e-07
0.0036423832
8.8459871e-07
-2.5020649e-07
0.003190427
8.075331e-07
-1.725849e-07
0.0027670653
7.2754775e-07
0.0022905029
6.23521e-07
1.7197838e-07
0.0022903577
4.6122672e-07
2.6382081e-07
0.0027669915
5.381765e-07
3.2247588e-07
0.0031903792
5.9835408e-07
3.6610034e-07
0.0036423435
6.5692842e-07
0.082925724
9.29306e-06
-8.6723112e-07
-3.3706009e-07
0.082927925
4.6650982e-06
-5.0501311e-07
-2.9503326e-07
0.0036423802
3.1269928e-07
-2.3563979e-07
0.0031903987
2.8308143e-07
-1.5147463e-07
0.0027669853
2.5366572e-07
0.0022902818
2.1758135e-07
1.0455709e-07
0.0022902706
-4.845251e-09
1.484552e-07
0.0027670441
-1.0218945e-08
1.6786298e-07
0.0031904889
-1.2954031e-08
1.7720682e-07
0.0036424875
-1.4709973e-08
0.08292997
-5.9825147e-08
-2.3240113e-07
-6.982447e-08
0.082931871
-3.7981402e-06
-3.5563784e-08
-8.054998e-08
0.0036426384
-2.6857319e-07
-8.1405064e-08
0.0031906176
-2.4202398e-07
-6.7583788e-08
0.0027671452
-2.1243693e-07
0.0022903007
-1.7099426e-07
6.70553e-08
0.00229034
-2.680006e-07
8.9778982e-08
0.0027672466
-3.2625936e-07
9.6983461e-08
0.0031907494
-3.6999753e-07
1.020814e-07
0.0036427877
-4.0996135e-07
0.082933651
-5.8571764e-06
2.2074025e-07
-2.0739758e-07
0.082935039
-6.048339e-06
7.1743852e-07
-1.7023658e-07
0.0036429128
-4.3510696e-07
-1.2787706e-07
0.0031908546
-3.9495493e-07
-7.9567766e-08
0.0027673307
-3.4939633e-07
0.0022903738
-2.8681411e-07
8.9305137e-08
0.0022903769
-2.0775898e-07
1.5416378e-07
0.002767375
-2.6025059e-07
2.1481551e-07
0.0031909163
-2.9705169e-07
2.7635291e-07
0.0036429862
-3.2852856e-07
0.082935692
-4.5908127e-06
1.3470604e-06
-3.4744215e-07
0.082935425
-2.2981077e-06
2.1092149e-06
-2.5891191e-07
0.0036429912
-1.5756779e-07
-1.7567731e-07
0.0031909171
-1.3981629e-07
-9.4732979e-08
0.0027673682
-1.1701161e-07
0.002290344
-8.283278e-08
1.0407112e-07
0.0022902742
4.3497674e-08
2.0475975e-07
0.0027673103
2.8307015e-08
3.1526763e-07
0.0031908562
2.0015701e-08
4.3291126e-07
0.0036429302
1.6140511e-08
0.082934149
4.2051504e-08
3.0369899e-06
-5.5521467e-07
0.082931855
2.0443311e-06
4.1330722e-06
-3.9661123e-07
0.0036428023
1.6600551e-07
-2.5379876e-07
0.0031907397
1.583538e-07
-1.2263172e-07
0.0027672013
1.5426091e-07
0.00229017
1.5345057e-07
1.5271176e-07
0.002290025
2.4713717e-07
3.2175376e-07
0.0027670417
2.6040516e-07
5.0824973e-07
0.0031905655
2.7395168e-07
7.1527265e-07
0.0036426108
2.90587e-07
0.082928434
3.6763208e-06
5.5163463e-06
-9.1521376e-07
0.082923663
5.0718015e-06
7.2817172e-06
-6.4720483e-07
0.0036423505
3.9984526e-07
-4.0458455e-07
0.0031903277
3.7604773e-07
-1.9219033e-07
0.0027668322
3.5511383e-07
0.0022898355
3.3254393e-07
2.3722822e-07
0.002289601
4.1938984e-07
5.1202334e-07
0.0027665596
4.493366e-07
8.1935401e-07
0.0031900246
4.7641943e-07
1.1623124e-06
0.0036420147
5.0670594e-07
0.082917233
6.4071172e-06
9.5634326e-06
-1.4574167e-06
0.082908271
7.9137885e-06
1.2919171e-05
-1.0259283e-06
0.0036415937
6.2815693e-07
-6.3916984e-07
0.0031896444
5.9079225e-07
-2.9751696e-07
0.0027662219
5.5714513e-07
0.0022893068
5.1978677e-07
3.6516556e-07
0.0022889483
6.4094395e-07
7.9062346e-07
0.0027658027
6.878752e-07
1.2740847e-06
0.0031891708
7.2968839e-07
1.8125955e-06
0.0036410708
7.7553541e-07
0.08289463
9.7381994e-06
1.8694126e-05
-2.2620969e-06
0.082871123
1.1970857e-05
3.017005e-05
-1.5861122e-06
0.0036404216
9.5634998e-07
-9.8325687e-07
0.0031885863
9.0003384e-07
-4.5396645e-07
0.002765286
8.4837059e-07
0.0022885069
7.8998248e-07
5.5632355e-07
0.0022879722
9.7044924e-07
1.2125427e-06
0.0027646537
1.0427336e-06
1.9549535e-06
0.0031878775
1.106227e-06
2.7832563e-06
0.0036396411
1.1745865e-06
0.082826286
1.4626281e-05
5.3960228e-05
-3.5320873e-06
0.082738353
1.7556979e-05
0.00010115276
-2.4800703e-06
0.0036386782
1.4247105e-06
-1.5361928e-06
0.0031869973
1.3441534e-06
-7.0242544e-07
0.0027638667
1.2695037e-06
0.0022873099
1.1856543e-06
8.9104703e-07
0.0022864691
1.39387e-06
1.9423133e-06
0.0027628888
1.4889758e-06
3.1251279e-06
0.0031859211
1.5726118e-06
4.444036e-06
0.0036375122
1.662734e-06
0.082573413
2.0282599e-05
0.00018446205
-7.2274346e-06
0.08229436
2.2231478e-05
0.00030981589
-5.0872543e-06
0.003635678
1.8757755e-06
-3.1521673e-06
0.0031842155
1.7859484e-06
-1.4431813e-06
0.0027613556
1.7073324e-06
0.0022851788
1.6310889e-06
2.9552478e-06
0.0022824247
1.6836376e-06
6.3931908e-06
0.0027582101
1.7594844e-06
1.0296178e-05
0.0031807058
1.8279257e-06
1.4742046e-05
0.0036317524
1.9083136e-06
0.081886024
2.2402926e-05
0.00045819785
-4.1741077e-05
0.08140188
2.5002168e-05
0.00058353847
-2.902626e-05
0.0036206365
2.3406758e-06
-1.7912459e-05
0.0031709775
2.2787835e-06
-8.2419887e-06
0.0027497697
2.2359282e-06
0.0022753325
2.2052284e-06
1.9568827e-05
0.0022576514
1.8566384e-06
4.2937801e-05
0.0027288423
2.0656727e-06
6.9926643e-05
0.0031468124
2.1523897e-06
0.00010112237
0.003592649
2.220842e-06
0.080988458
3.0205286e-05
0.00060869379
-0.0002024536
0.080864147
9.2909859e-05
0.00056233204
-0.00013959433
0.003543084
6.8503571e-06
-8.5535156e-05
0.0031051017
6.3916079e-06
-3.9087448e-05
0.0026940917
5.7729815e-06
0.0022299342
4.8168096e-06
5.4591739e-05
0.0021881329
1.2316172e-06
0.00011775842
0.0026463221
2.6635305e-06
0.00019069334
0.0030495472
3.7708668e-06
0.0002755015
0.0034773661
4.8554036e-06
0.080911683
0.00012973918
0.00060871809
-0.0010585005
0.00041061627
0.0017843584
-0.00077175762
4.5695839e-05
-0.00050470043
4.5207375e-05
-0.00025107443
4.1543019e-05
3.1206229e-05
5.375634e-05
-0.0022227875
-6.7205769e-06
4.0120449e-06
0.00011722326
-0.0026858637
-3.7205799e-06
1.2581762e-08
0.00019100097
-0.0030957116
-1.6502859e-06
-2.9194446e-06
0.00027711837
-0.0035324075
1.148603e-07
-5.6820689e-06
-0.080672138
0.00014214644
-0.00033055226
0.000543001
-0.00019615
-0.080871668
4.0853939e-05
-0.00016924881
0.00052407712
-0.00013492203
-0.0035864349
-2.6411021e-07
-6.9346516e-06
-8.2710304e-05
-0.003141329
-6.7574598e-07
-5.9165124e-06
-3.8013236e-05
-0.0027240703
-1.3844926e-06
-5.1011776e-06
-0.0022536878
-2.6290085e-06
-4.4839624e-06
1.8391785e-05
-0.0022732847
-4.8073577e-06
6.0126043e-06
4.0449997e-05
-0.0027473335
-4.9481834e-06
6.1539106e-06
6.6151343e-05
-0.0031681753
-5.0913998e-06
6.2372689e-06
9.6131523e-05
-0.0036174313
-5.2479463e-06
6.2647654e-06
-0.081331667
-4.3745849e-05
3.1075159e-05
0.00056880388
-3.8461337e-05
-0.081840341
-4.8631959e-05
4.0825039e-05
0.00055494411
-2.6565096e-05
-0.0036297394
-4.17318e-06
4.5847034e-06
-1.6284678e-05
-0.0031789354
-3.9011718e-06