/*--------------------------------*- C++ -*----------------------------------*\
  =========                 |
  \\      /  F ield         | OpenFOAM: The Open Source CFD Toolbox
   \\    /   O peration     | Website:  https://openfoam.org
    \\  /    A nd           | Version:  7
     \\/     M anipulation  |
\*---------------------------------------------------------------------------*/
FoamFile
{
    version     2.0;
    format      ascii;
    class       volVectorField;
    location    "120";
    object      U;
}
// * * * * * * * * * * * * * * * * * * * * * * * * * * * * * * * * * * * * * //

dimensions      [0 1 -1 0 0 0 0];

internalField   nonuniform List<vector> 
25201
(
(120.03659 0.014610686 0.010410684)
(120.0387 0.020251117 0.0053597701)
(120.03634 0.010712901 0.014388613)
(120.03783 0.0053175873 0.019893486)
(120.02022 0.015643504 0.015097619)
(120.03378 0.010349724 0.013123895)
(120.03667 0.012086945 0.011629897)
(120.03951 0.01770582 0.017484253)
(120.03774 0.012381534 0.016369494)
(120.02268 0.010437468 0.010368153)
(120.03795 0.016605444 0.012283234)
(120.03424 0.013547277 0.0098349513)
(120.02729 0.019761423 0.0096204547)
(120.00495 0.081218187 0.043899734)
(119.99777 0.099230064 0.043306095)
(120.0279 0.021425256 0.028730071)
(120.0231 0.022425997 0.039237382)
(120.021 0.035678305 0.046241937)
(120.0294 0.035330424 0.059436393)
(120.02105 0.049627031 0.088156249)
(120.02643 0.036023935 0.071695393)
(120.00958 0.032267133 0.065626924)
(120.01378 0.032170412 0.054616297)
(120.00657 0.043852121 0.067226839)
(120.02429 0.04896379 0.074832538)
(120.01939 0.066908844 0.091476598)
(120.01291 0.065479463 0.063835122)
(120.01802 0.019542106 0.053980634)
(120.0123 0.0077783359 0.065583671)
(120.01278 0.020209611 0.11202823)
(120.01687 0.029278029 0.10100443)
(120.02274 0.034983288 0.08548647)
(119.99744 0.029127029 0.14756544)
(120.00546 0.041918594 0.12991316)
(120.01402 0.049155921 0.10979816)
(119.99382 0.042379283 0.096055755)
(120.00489 0.030406942 0.076865035)
(119.99864 0.025087318 0.089287644)
(119.98518 0.035486261 0.11135952)
(119.97736 0.024123984 0.1244242)
(119.99423 0.016985337 0.097557788)
(119.99089 0.0057035787 0.1030852)
(120.0093 0.0069534251 0.11929377)
(119.99247 0.010198984 0.15679004)
(119.97279 0.0082803246 0.13105478)
(119.96213 0.006481876 0.10789115)
(119.97895 0.0047986461 0.086243786)
(119.99318 0.0058596267 0.050056832)
(120.01819 0.0043362963 0.026568579)
(120.0262 0.0097899198 0.019103504)
(120.0296 0.0093036522 0.018429036)
(120.02132 0.0031992913 0.020638151)
(119.99234 0.0058244305 0.020897981)
(119.99951 0.0084450521 0.018199465)
(120.01113 0.009694183 0.015431334)
(120.01051 0.012794697 0.019819858)
(120.01614 0.017960264 0.026108382)
(120.00642 0.018364339 0.033657915)
(119.99907 0.012440093 0.025980169)
(119.98066 0.01942502 0.033610673)
(119.99401 0.023363 0.040490634)
(120.00144 0.027006524 0.036589291)
(119.99277 0.018781181 0.024605984)
(119.99222 0.011113362 0.015153093)
(119.99511 0.0054837198 0.0081472897)
(120.01477 0.006437472 0.0109769)
(120.00314 0.0050893413 0.011966815)
(119.98211 0.0047380055 0.009407747)
(119.97867 0.010045083 0.018563318)
(119.96842 0.0076884865 0.023172193)
(119.96922 0.015220583 0.044051728)
(119.98294 0.020939507 0.055381517)
(119.99948 0.014580662 0.043226603)
(119.99187 0.0091450483 0.031214324)
(119.98593 0.0034906657 0.035198442)
(119.96146 0.0057830271 0.050191085)
(119.97299 0.011013716 0.06697218)
(119.9768 0.016856454 0.062813317)
(119.9863 0.021286646 0.076021269)
(119.99249 0.025901831 0.066357974)
(119.99755 0.027949293 0.057640199)
(120.00309 0.02814058 0.048468637)
(119.99413 0.037801487 0.058548142)
(119.98496 0.031712074 0.048209053)
(119.97914 0.030869729 0.057748506)
(119.98778 0.02321137 0.048714361)
(119.98878 0.036694565 0.069156313)
(120.00194 0.043888588 0.079057699)
(120.00354 0.058687504 0.092469557)
(120.00027 0.058197674 0.079246778)
(119.99501 0.054062215 0.085143319)
(119.97914 0.050570143 0.080430507)
(119.98943 0.052809309 0.09457615)
(119.9985 0.057164397 0.10219537)
(120.00815 0.061448482 0.10919921)
(120.01274 0.062686271 0.098612731)
(120.02498 0.067046323 0.10459058)
(120.0206 0.065883913 0.11568662)
(120.01333 0.077682966 0.12996493)
(120.01827 0.078916556 0.1179289)
(120.00589 0.073393246 0.11059356)
(120.00093 0.072191864 0.12213067)
(119.9914 0.066191208 0.11293043)
(119.99614 0.068245787 0.1027794)
(119.9877 0.062993869 0.093971377)
(119.98266 0.061331623 0.10406305)
(119.97399 0.070506374 0.11213902)
(119.98059 0.071019094 0.10158767)
(119.98611 0.079406203 0.095901343)
(120.0053 0.095514457 0.11356999)
(120.01097 0.09324444 0.12977341)
(119.99783 0.08559408 0.12050454)
(119.99045 0.087190627 0.1345656)
(120.00302 0.094961934 0.14477189)
(119.98985 0.11244953 0.15981005)
(119.99928 0.11229784 0.14290926)
(119.9864 0.1020654 0.13157439)
(119.97728 0.10227221 0.14726392)
(119.96841 0.091092268 0.13433768)
(119.98084 0.078509407 0.12362249)
(119.98832 0.078536206 0.1116515)
(119.977 0.092670965 0.12115705)
(119.97047 0.082808489 0.10935803)
(119.96255 0.081667225 0.12147462)
(119.94936 0.096007683 0.12902547)
(119.96094 0.095593863 0.11495402)
(119.97123 0.10512125 0.10485501)
(119.98697 0.097058204 0.079193095)
(120.00182 0.080882959 0.057743495)
(119.99007 0.11600233 0.037390403)
(119.98296 0.13111775 0.026986962)
(119.97887 0.14000449 0.011742031)
(119.9651 0.11678676 0.010328424)
(119.96886 0.10988212 0.022628172)
(119.9758 0.098360311 0.031472672)
(119.98296 0.08538278 0.036702236)
(119.99081 0.071311115 0.037685149)
(119.99561 0.060028291 0.038077245)
(120.0022 0.037526384 0.026752139)
(120.01713 0.027000051 0.017497088)
(120.01108 0.020495942 0.012931684)
(119.99311 0.025065313 0.019152602)
(119.98117 0.034771187 0.020650492)
(119.99526 0.041856356 0.023910149)
(120.00831 0.034979045 0.018497636)
(119.99998 0.027137102 0.013130302)
(119.99989 0.019036884 0.0092269046)
(120.01143 0.015879624 0.010014655)
(120.03002 0.018960506 0.0095435964)
(120.01491 0.011262706 0.0068049576)
(119.99513 0.0081958006 0.0059781246)
(119.99235 0.015359679 0.011616668)
(119.97874 0.019228879 0.011212485)
(119.982 0.0097630329 0.0056830105)
(120.00323 0.01252335 0.0057998348)
(119.99631 0.013807503 0.0044150004)
(120.02181 0.021825735 0.0039168326)
(120.02003 0.028095868 0.0049132604)
(120.00203 0.0455475 0.015512575)
(119.99295 0.033238869 0.010408489)
(119.96963 0.046722161 0.017489779)
(119.98471 0.058068994 0.022535747)
(119.98931 0.050625555 0.024246159)
(119.99991 0.059638934 0.028472048)
(120.00487 0.049949328 0.028120845)
(119.99533 0.069130311 0.026984538)
(119.98959 0.07996703 0.023015669)
(119.97865 0.066624855 0.019001601)
(119.96598 0.080847313 0.026013404)
(119.97316 0.070679464 0.030195376)
(119.98036 0.059664512 0.03229338)
(119.98591 0.049460529 0.032530505)
(119.97923 0.054622233 0.041227286)
(119.98921 0.04611382 0.045654124)
(119.9788 0.028239965 0.028416271)
(119.9744 0.032154668 0.043018537)
(119.97864 0.040317943 0.053703177)
(119.98726 0.049571951 0.066861622)
(119.97465 0.062986061 0.078106855)
(119.96874 0.051195763 0.06115853)
(119.96075 0.050959476 0.073193215)
(119.97045 0.056644855 0.08237148)
(119.97467 0.064185122 0.09290322)
(119.96748 0.0632505 0.10210162)
(119.9639 0.056416157 0.09146556)
(119.95595 0.064395725 0.097344699)
(119.9622 0.065563812 0.087668168)
(119.96565 0.07364006 0.098735802)
(119.95877 0.071610312 0.10858667)
(119.94735 0.083207783 0.11441084)
(119.95749 0.084292994 0.10292995)
(119.96301 0.081756543 0.082084112)
(119.97522 0.078823227 0.063540866)
(119.98829 0.068154714 0.049961713)
(119.9806 0.08244404 0.052045475)
(119.99719 0.087169139 0.054394629)
(120.00616 0.094467707 0.058373455)
(119.97035 0.13614695 0.092525355)
(119.97841 0.1225199 0.093232295)
(119.99015 0.11333412 0.078765196)
(119.99839 0.10462453 0.068224245)
(119.9895 0.095772527 0.063595201)
(119.98485 0.10632942 0.062481926)
(119.99198 0.096975909 0.053664487)
(120.00164 0.10451465 0.057360502)
(119.99415 0.11519021 0.066751305)
(119.98319 0.12572368 0.079482856)
(119.97579 0.11418499 0.072047317)
(119.98201 0.10312747 0.071861849)
(119.97151 0.11051326 0.083938059)
(119.96395 0.12312901 0.083621204)
(119.95035 0.13008977 0.09837912)
(119.96161 0.11557587 0.096881793)
(119.96764 0.12937137 0.10872224)
(119.97673 0.14205464 0.12018352)
(119.99063 0.12872339 0.12731409)
(120.0377 -0.005352656 0.019792589)
(120.03626 -0.010746342 0.014182365)
(120.03557 -0.0099868088 0.014150852)
(120.01716 -0.019242801 0.0535751)
(120.01204 -0.0074197285 0.065425878)
(120.0091 -0.0063617374 0.11914086)
(120.0042 -0.041332993 0.12889682)
(120.01579 -0.028684095 0.10041199)
(120.01209 -0.019589298 0.1116094)
(119.99379 -0.01679255 0.097036053)
(119.99076 -0.0055566209 0.10291198)
(119.97266 -0.0083738734 0.13075962)
(119.99223 -0.0098218037 0.15650702)
(119.99668 -0.028627479 0.14682178)
(119.97691 -0.024095552 0.1236315)
(119.98442 -0.03531909 0.11020413)
(119.99793 -0.024861671 0.088527959)
(120.00394 -0.030179537 0.075924993)
(120.02129 -0.034478897 0.08478728)
(120.01234 -0.048593313 0.10865653)
(119.99278 -0.042128543 0.094698488)
(120.00073 -0.043674051 0.077530965)
(120.00848 -0.032105225 0.06454222)
(120.02199 -0.022372388 0.038608419)
(100.82704 0.11666079 0.21570997)
(108.28047 0.13360643 0.23512538)
(110.89116 0.1401033 0.246284)
(112.28617 0.14017092 0.25458632)
(117.69455 0.04269821 0.2136059)
(118.21947 -0.17244836 0.12560552)
(113.49782 -0.1780154 0.2656024)
(112.18888 -0.17435075 0.29392514)
(109.63364 -0.17402123 0.32002733)
(102.09116 -0.18656155 0.33459498)
(102.02071 -0.068794209 0.10271684)
(109.47141 -0.071476518 0.10983387)
(112.02618 -0.070698271 0.10614193)
(113.3603 -0.069593367 0.10093858)
(118.24716 -0.083053586 0.063681893)
(118.38957 -0.071843991 0.043037242)
(113.54107 -0.070999932 0.078754181)
(112.21266 -0.071580818 0.085329378)
(109.66187 -0.073341208 0.09165012)
(102.20457 -0.076012997 0.098372383)
(102.255 -0.046459128 0.058426422)
(109.70671 -0.046813361 0.057128208)
(112.25707 -0.046299707 0.054199569)
(113.58613 -0.046125497 0.050833392)
(118.46218 -0.05186129 0.028404395)
(118.53451 -0.040725211 0.020765767)
(113.65437 -0.036538936 0.039139932)
(112.32693 -0.036580397 0.042157158)
(109.77692 -0.037056776 0.045043483)
(102.32057 -0.037806979 0.047648619)
(102.36329 -0.027686992 0.034703486)
(109.82146 -0.027591302 0.033375136)
(112.37173 -0.027395995 0.031374147)
(113.69845 -0.02747415 0.029202581)
(118.5856 -0.031472318 0.01551453)
(118.62802 -0.024917579 0.011895378)
(113.74011 -0.021669717 0.022574767)
(112.41387 -0.021524252 0.024343561)
(109.86335 -0.021626907 0.026031708)
(102.40204 -0.021834278 0.027360721)
(102.43361 -0.017052555 0.021316829)
(109.89633 -0.016940497 0.020320857)
(112.44711 -0.016897448 0.019001236)
(113.77288 -0.017050603 0.017622623)
(118.66071 -0.019721332 0.0093607471)
(118.68717 -0.015742596 0.0075018376)
(113.80076 -0.013610762 0.013966529)
(112.47512 -0.013464019 0.015067538)
(109.92408 -0.013481647 0.016138225)
(102.45937 -0.013582528 0.016970702)
(102.48143 -0.010895627 0.013608027)
(109.94679 -0.010810572 0.012934302)
(112.49798 -0.010798179 0.01207392)
(113.82325 -0.010921104 0.011200131)
(118.70821 -0.012593368 0.0061292205)
(118.72522 -0.010110871 0.005082569)
(113.84179 -0.0088340182 0.0090716642)
(112.51656 -0.0087348783 0.0097697627)
(109.96521 -0.0087456716 0.010466208)
(102.49853 -0.0088206864 0.011015974)
(102.51375 -0.0071798668 0.0089636632)
(109.98048 -0.0071176224 0.0085219789)
(112.53186 -0.0071072105 0.0079607529)
(113.85672 -0.0071834803 0.0074041222)
(118.73881 -0.0081213782 0.0042784702)
(118.74972 -0.006517469 0.003667922)
(113.8689 -0.0058580094 0.0060855975)
(112.54404 -0.0058005157 0.0065260601)
(109.99261 -0.0058101422 0.0069749009)
(102.52507 -0.0058632137 0.007327586)
(102.53566 -0.0047850671 0.0059944893)
(110.00277 -0.0047348098 0.0057104791)
(112.55411 -0.0047252113 0.0053559886)
(113.87861 -0.0047687487 0.0050157619)
(118.75836 -0.0052045314 0.003212581)
(118.76519 -0.0041200123 0.0028785498)
(113.88649 -0.00386559 0.00415266)
(112.562 -0.003833626 0.0044074825)
(110.01074 -0.0038483782 0.0046878441)
(102.54335 -0.0039087768 0.0049349635)
(102.55113 -0.0031984876 0.0041047167)
(110.01753 -0.0031248314 0.0038831355)
(112.56856 -0.0030990898 0.003658946)
(113.89268 -0.0031189951 0.0034736759)
(118.77048 -0.0032112584 0.0026332254)
(118.77454 -0.0024407798 0.0024573463)
(113.89764 -0.0025198204 0.0029889523)
(112.57357 -0.0025168996 0.0031256156)
(110.02279 -0.0025592946 0.0033142321)
(102.55674 -0.0026566281 0.0035209558)
(102.56284 -0.0023044168 0.003123742)
(110.02732 -0.0021908093 0.0029311944)
(112.57771 -0.0021247648 0.0027666211)
(113.90139 -0.0021014168 0.0026609884)
(118.77751 -0.0018124296 0.0023301041)
(118.77964 -0.0013106978 0.0022806602)
(113.90433 -0.0018325208 0.0025216103)
(112.58073 -0.0018866284 0.0026151494)
(110.03077 -0.0019758727 0.0027675344)
(102.56724 -0.0021007214 0.0029356638)
(102.57249 -0.0020130889 0.0028300186)
(110.0339 -0.0018781924 0.0026882156)
(112.58333 -0.0017677747 0.0025496985)
(113.90653 -0.0016788987 0.0024633577)
(118.78107 -0.00091998094 0.0022823565)
(118.78194 -0.00061814037 0.0022030229)
(113.90821 -0.0015225774 0.0022748117)
(112.58515 -0.0016282982 0.00234099)
(110.03637 -0.0017434836 0.0024518061)
(102.57659 -0.0018682032 0.0025657046)
(102.58174 -0.0017415823 0.0023687343)
(110.03869 -0.0016189547 0.002257186)
(112.58674 -0.0014995133 0.0021520975)
(113.90935 -0.0013761039 0.0020935155)
(118.78226 -0.00033548573 0.0020783711)
(118.78229 -1.6788655e-05 0.0020066591)
(113.91042 -0.0011178027 0.0020390051)
(112.58801 -0.001248805 0.0020968371)
(110.04083 -0.0013652022 0.0022038734)
(102.58618 -0.0015099038 0.0022898749)
(102.59217 -0.0014711807 0.002214888)
(110.04329 -0.0013137245 0.0021120394)
(112.58948 -0.0011863563 0.001997702)
(113.91135 -0.0010440671 0.0019371353)
(118.78207 0.00017025128 0.0019245331)
(118.78157 0.00028499252 0.0018025184)
(113.91205 -0.00096152738 0.0016926499)
(112.59047 -0.0010960022 0.0017435009)
(110.04537 -0.0012214275 0.0018591954)
(102.5973 -0.0013834303 0.0019919179)
(102.60371 -0.0013172718 0.0018509945)
(110.04757 -0.001186344 0.0017253607)
(112.59149 -0.0010741956 0.0016040241)
(113.91247 -0.00094691412 0.0015522141)
(118.78077 0.00033021796 0.0017009213)
(118.77995 0.00034075396 0.0016130027)
(113.91299 -0.00088449196 0.0014870322)
(112.59236 -0.00099716935 0.0015557926)
(110.04973 -0.001085651 0.0016791306)
(102.60957 -0.001184157 0.0018278307)
(102.61741 -0.00060701477 0.0011113953)
(110.05261 -0.00059590248 0.0012045469)
(112.59378 -0.00061956611 0.0011549324)
(113.91375 -0.00057323242 0.0011211001)
(118.7793 0.00031455534 0.001371354)
(118.77815 2.2687707e-05 0.00069732315)
(113.91379 -0.00042352405 -0.0004109764)
(112.59425 -0.00036023805 -0.00053226508)
(110.05479 -0.00020075312 -0.00061432529)
(102.62463 -0.00024800316 -0.00087447987)
(102.63 -0.0015726318 -0.0017998369)
(110.05439 -0.0019193404 -0.0017217664)
(112.59238 -0.0020140468 -0.0015808237)
(113.9115 -0.0019799339 -0.0014099015)
(118.77566 -0.00070823143 0.00020147195)
(118.77325 0.00034884356 0.00095707334)
(113.90969 -0.00042617273 -9.9115877e-05)
(112.59117 -0.00047698724 -0.00025002018)
(110.05428 -0.0004513417 -0.00038328038)
(102.63273 -0.00032614632 -0.00049290632)
(118.84848 0.00021238036 0.00061782519)
(113.14915 -0.001899064 -0.0010592969)
(111.81151 -0.0021620637 -0.0012934683)
(109.22045 -0.002323142 -0.0015109214)
(101.68177 -0.0019846901 -0.0015302112)
(101.68077 -0.0046182633 -0.00089138638)
(109.22215 -0.00490841 -0.00097986883)
(111.81416 -0.0046900266 -0.0008988118)
(113.15231 -0.004315629 -0.00076545229)
(118.85104 -0.00081919846 0.00058727799)
(118.85378 0.00033906665 0.00079027898)
(113.15612 -0.0017059971 -0.00036791804)
(111.8177 -0.0019094332 -0.00049848373)
(109.22433 -0.0019956661 -0.00059364502)
(101.67681 -0.0023356142 -0.00085423642)
(101.66878 0.00049732841 0.00062012057)
(109.22213 0.0009691527 0.00083630585)
(111.81744 0.00089198527 0.00084047781)
(113.15626 0.00087541883 0.00087634379)
(118.85505 0.0013531765 0.0013090008)
(118.85558 0.0011677566 0.0013768747)
(113.15468 0.00077675916 0.0012535242)
(111.81511 0.00079139131 0.0013040514)
(109.21816 0.00084818047 0.0013772269)
(101.65929 0.00080672744 0.0013368923)
(101.65206 0.00058481855 0.0015642469)
(109.215 0.00060501242 0.0015144763)
(111.81353 0.00055138129 0.0014242257)
(113.15357 0.00051165292 0.0013647468)
(118.85643 0.00093257702 0.0013867996)
(118.85732 0.00076469761 0.0014646956)
(113.15274 0.00038263515 0.0015785392)
(111.81208 0.00042872557 0.0016575463)
(109.21235 0.00048730879 0.0017642803)
(101.64491 0.00045459491 0.0018194235)
(101.6385 0.00033968786 0.0021686118)
(109.20934 0.00036195609 0.002100717)
(111.81041 0.00029702122 0.0019852106)
(113.15146 0.00024223355 0.0018898886)
(118.85791 0.00056075195 0.0015931675)
(118.85824 0.00025875886 0.0017184843)
(113.15021 -0.00010762274 0.002044364)
(111.80861 -7.1576835e-05 0.002140045)
(109.20655 -2.4507049e-05 0.0022530364)
(101.63203 6.1069246e-06 0.0023406978)
(101.62706 -0.00068829756 0.0027218734)
(109.20406 -0.00069751586 0.0025878489)
(111.80717 -0.00067868443 0.0024659461)
(113.14903 -0.00064586766 0.0023693094)
(118.85833 -3.3606589e-05 0.0019869808)
(118.85805 -0.00024454273 0.002290644)
(113.14813 -0.00097446687 0.0028172643)
(111.80589 -0.0010528219 0.0029208839)
(109.20216 -0.001112662 0.0030577688)
(101.62231 -0.0011752505 0.0031690609)
(101.61811 -0.0012973047 0.0034257225)
(109.19973 -0.0012069937 0.0033387715)
(111.80422 -0.0011425335 0.0031948276)
(113.1466 -0.001070045 0.0030884819)
(118.85719 -0.00046929279 0.0024808652)
(118.8558 -0.00091484371 0.0025301328)
(113.14462 -0.0012501624 0.0031760121)
(111.80189 -0.0012820289 0.0032917851)
(109.19698 -0.0013125156 0.0034627873)
(101.61318 -0.0013910064 0.0036171359)
(101.60865 -0.0016076906 0.0039993461)
(109.19354 -0.0015443549 0.0037992999)
(111.79902 -0.0015331632 0.0036028178)
(113.14186 -0.0015327103 0.0034709785)
(118.85381 -0.0014892602 0.0026886579)
(118.85099 -0.0021726144 0.0029334998)
(113.13833 -0.0018872082 0.0038966055)
(111.79518 -0.0018527452 0.0040483438)
(109.18946 -0.0018382801 0.0042658037)
(101.60303 -0.0018816286 0.0044817805)
(101.59713 -0.0022233949 0.0051385338)
(109.18404 -0.0021997944 0.0049157248)
(111.79018 -0.0022432799 0.0046728092)
(113.13345 -0.0023156675 0.0044893556)
(118.84713 -0.002979892 0.0032512473)
(118.84205 -0.0039269711 0.0036630051)
(113.12747 -0.0028517957 0.0052854515)
(111.78395 -0.0027398017 0.0055152583)
(109.17781 -0.0026597455 0.0057912866)
(101.5902 -0.0026542864 0.006013419)
(101.58244 -0.0032036938 0.007176066)
(109.16983 -0.0032440976 0.0069532644)
(111.77617 -0.0033653302 0.0066295016)
(113.11978 -0.0035209721 0.0063352003)
(118.8355 -0.0050551506 0.0041985368)
(118.82719 -0.0064199005 0.0049052736)
(113.11039 -0.00435771 0.0077097142)
(111.76652 -0.0041536403 0.0080893992)
(109.16026 -0.0039900994 0.0084847327)
(101.57259 -0.0039174049 0.0087310044)
(101.56112 -0.0048143113 0.010714975)
(109.14818 -0.0049183903 0.010419792)
(111.75456 -0.0051275318 0.0099267981)
(113.09852 -0.0053885102 0.0094421599)
(118.81673 -0.0080783329 0.0058215261)
(118.8037 -0.0101313 0.0069977813)
(113.08409 -0.0066670262 0.01163076)
(111.73983 -0.0063388993 0.012245973)
(109.13358 -0.0060802621 0.012866883)
(101.54656 -0.0059489406 0.013246559)
(101.52956 -0.0073398616 0.016330708)
(109.1155 -0.0075069043 0.015868234)
(111.72178 -0.007824315 0.015100621)
(113.06616 -0.0082330745 0.014332259)
(118.78745 -0.012668534 0.0084861226)
(118.76739 -0.015867751 0.010389661)
(113.04463 -0.01021129 0.017760643)
(111.69993 -0.0097028529 0.018721946)
(109.0939 -0.0093104087 0.019671274)
(101.50856 -0.0090999881 0.020237618)
(101.48366 -0.011333062 0.025209603)
(109.06719 -0.011601603 0.02455137)
(111.67313 -0.012067404 0.023392749)
(113.01802 -0.012679176 0.022198249)
(118.74227 -0.019884128 0.012894362)
(118.71136 -0.025112888 0.01621001)
(112.9871 -0.015989945 0.028127181)
(111.64177 -0.015248177 0.029651939)
(109.0362 -0.014688194 0.031125649)
(101.45405 -0.014379156 0.032002404)
(101.41753 -0.018077842 0.040308662)
(108.99679 -0.018521877 0.039443198)
(111.60231 -0.019122219 0.037691648)
(112.94822 -0.019957643 0.035819385)
(118.67158 -0.031604011 0.020719741)
(118.62381 -0.040631006 0.026941458)
(112.90704 -0.026157579 0.046970369)
(111.56023 -0.025145424 0.049525562)
(108.95497 -0.024437646 0.052018111)
(101.3778 -0.024120867 0.053779345)
(101.32003 -0.029052761 0.065117124)
(108.89383 -0.030104279 0.064590321)
(111.49968 -0.030859939 0.062084881)
(112.84812 -0.031999498 0.059225028)
(118.55793 -0.050635079 0.035367567)
(118.48918 -0.0684683 0.049197287)
(112.79423 -0.046845694 0.086231114)
(111.44433 -0.04532015 0.091203128)
(108.83692 -0.044200792 0.096165932)
(101.2603 -0.044197318 0.099001053)
(101.13917 -0.033806672 0.090183431)
(108.72469 -0.037091985 0.094099724)
(111.33513 -0.039177353 0.091036841)
(112.68577 -0.041830687 0.086275065)
(118.374 -0.07373699 0.05830503)
(118.31452 -0.1110651 0.10992572)
(112.57277 -0.057105621 0.17766705)
(111.21742 -0.052812738 0.18531396)
(108.59657 -0.051478502 0.19082524)
(100.99895 -0.056820621 0.1896925)
(101.22512 0.060656977 -0.16502906)
(108.77367 0.072053243 -0.13536803)
(111.33797 0.062309975 -0.11563774)
(112.64287 0.051620017 -0.097629188)
(118.13458 0.0076212142 0.013540767)
(118.35137 -0.34930878 0.62305968)
(113.12115 0.49973605 1.9196791)
(111.82993 0.63431187 2.1379892)
(109.12786 0.72616181 2.3578344)
(100.9757 0.3742991 2.354937)
(100.94064 0.81829369 0.34396653)
(108.4926 0.76823189 0.3405723)
(111.05278 0.71589162 0.32129488)
(112.35227 0.66549039 0.29788579)
(117.81606 0.32272281 0.20338792)
(118.09865 0.1049399 0.0018888445)
(112.33654 0.12076519 0.075858846)
(110.98071 0.12416347 0.082126279)
(108.36297 0.12891883 0.083991294)
(100.78013 0.13394419 0.080696742)
(101.01855 0.12509546 0.059283315)
(108.59794 0.11858013 0.054027998)
(111.20628 0.11160894 0.050392063)
(112.5558 0.10557052 0.045484537)
(118.24063 0.074920279 0.0051539183)
(118.4006 0.042543814 -0.014369603)
(112.70374 0.037996268 0.010029228)
(111.35409 0.038175002 0.012371929)
(108.74797 0.038546674 0.013939192)
(101.17637 0.037584386 0.015405632)
(101.26442 0.030959148 0.01287419)
(108.83504 0.03042316 0.011281076)
(111.43989 0.029565155 0.010148754)
(112.78791 0.028906669 0.0085915131)
(118.49721 0.030118661 -0.010582237)
(118.58096 0.021267067 -0.010587075)
(112.86437 0.017748611 0.0037844569)
(111.51771 0.017773856 0.0050773605)
(108.91293 0.017881168 0.0060581496)
(101.33772 0.017635051 0.0069685833)
(101.38876 0.013169658 0.0052159971)
(108.96659 0.013238143 0.0044837751)
(111.57167 0.013107286 0.0037149856)
(112.91736 0.013072685 0.0027187043)
(118.6404 0.015784212 -0.0084581218)
(118.68817 0.011971132 -0.0071236107)
(112.96407 0.0095212748 0.0014867573)
(111.61879 0.0094558165 0.0023462725)
(109.01333 0.0094723884 0.0030372849)
(101.43182 0.0093795803 0.0036309474)
(101.46656 0.0070690031 0.0027133294)
(109.04992 0.0071303523 0.0022328026)
(111.65584 0.0071290401 0.0016702325)
(113.00065 0.0072018359 0.00098058641)
(118.72471 0.0091896765 -0.0056790451)
(118.75387 0.0071347392 -0.0045339514)
(113.03116 0.0055102151 0.00060809093)
(111.68637 0.0054298859 0.0011707404)
(109.0801 0.0054123327 0.0016404194)
(101.49436 0.0053620955 0.0020335832)
(101.51803 0.0041560184 0.0015680772)
(109.10461 0.0041896031 0.0012512889)
(111.71114 0.0042065988 0.00087456474)
(113.05555 0.0042774748 0.00042978969)
(118.77689 0.0055690741 -0.0035254968)
(118.79533 0.0043633894 -0.0026925284)
(113.07549 0.0033431005 0.00031597733)
(111.73104 0.0032812672 0.00066497548)
(109.12431 0.0032642394 0.00096625441)
(101.53621 0.0032414886 0.0012178198)
(101.55234 0.0025652061 0.00095787852)
(109.14056 0.0025775265 0.00076124031)
(111.74739 0.0025903287 0.00052496709)
(113.09147 0.0026405617 0.00025685859)
(118.81001 0.0034218648 -0.0019823504)
(118.82173 0.0026857852 -0.001381779)
(113.10444 0.0021269291 0.0002371527)
(111.76032 0.0020909169 0.00044011133)
(109.15346 0.0020859 0.00062532435)
(101.56438 0.0020854089 0.00078182656)
(101.5757 0.0016817511 0.00062791533)
(109.16427 0.0016750297 0.00050971209)
(111.77107 0.0016755394 0.00036903331)
(113.11481 0.0017014097 0.00022175655)
(118.831 0.0020869589 -0.00087694234)
(118.83831 0.001606906 -0.00044924457)
(113.1232 0.0013954456 0.00022564261)
(111.77943 0.0013828253 0.00032817861)
(109.17276 0.0013897186 0.00043334957)
(101.58394 0.0014041029 0.00052146055)
(101.59228 0.0011509135 0.00043101034)
(109.18 0.0011367871 0.00036934874)
(111.78645 0.0011272193 0.00029482179)
(113.12982 0.0011307787 0.00023040757)
(118.84398 0.0012053643 -8.2380006e-05)
(118.84832 0.00086748915 0.00023936783)
(113.13511 0.0009377023 0.00025157947)
(111.79174 0.00094645519 0.00028389449)
(109.18559 0.00096075655 0.00033257666)
(101.59826 0.00097373691 0.00037019465)
(101.6049 0.00080748003 0.00031310049)
(109.19046 0.0008059951 0.00030031868)
(111.7962 0.00079190555 0.00027429342)
(113.13914 0.00077290121 0.00026876562)
(118.85153 0.00057594244 0.00051002907)
(118.85383 0.00032568771 0.00072896682)
(113.14224 0.00061682336 0.00027095048)
(111.79934 0.00064177068 0.00025284989)
(109.1941 0.00064630226 0.00025708121)
(101.60966 0.00062357126 0.00023845856)
(101.61538 0.00038737636 0.00012467871)
(109.1973 0.00043978833 0.00016414837)
(111.80193 0.00045323491 0.00018277693)
(113.14438 0.00043205784 0.0002225746)
(118.85534 0.00011404197 0.00088113345)
(118.85619 -9.0950568e-05 0.00098447456)
(113.14578 0.0001579687 0.00014022879)
(111.80339 0.00015995967 8.2362031e-05)
(109.19946 0.00012668575 4.3630269e-05)
(101.61943 4.0988953e-05 3.7711068e-05)
(101.62466 -0.00053908088 0.0002171137)
(109.20161 -0.00041891939 0.00018303642)
(111.80478 -0.00035628156 0.00022324065)
(113.14672 -0.00031931707 0.00027587785)
(118.85651 -0.00036336981 0.0011341611)
(118.85662 -0.00065110827 0.0013775828)
(113.14798 -0.00077638583 0.00069809646)
(111.80622 -0.00084378929 0.00067842236)
(109.20404 -0.00093154848 0.00067337949)
(101.62963 -0.0010105405 0.00065778082)
(101.63704 -0.0013382225 0.00087677127)
(109.20746 -0.0012835047 0.00096478026)
(111.80846 -0.0011682347 0.0009534784)
(113.14957 -0.0010773324 0.0009580466)
(118.85654 -0.00088608813 0.001548761)
(118.85619 -0.00099135484 0.0016121494)
(113.15122 -0.0011525235 0.00096429889)
(111.81046 -0.0012406083 0.0009634997)
(109.21079 -0.001349567 0.00098198644)
(101.64385 -0.0013858357 0.00089500635)
(101.65226 -0.0012871829 0.00097333273)
(109.21445 -0.0012772991 0.0010302866)
(111.81272 -0.001194183 0.0010051111)
(113.15271 -0.0011213685 0.001004235)
(118.85553 -0.0010584267 0.0016624925)
(118.85489 -0.0010959338 0.0017749273)
(113.15453 -0.0010570805 0.0012095821)
(111.815 -0.0011169934 0.0011952252)
(109.21828 -0.0011843494 0.0012316009)
(101.66017 -0.0011545619 0.0011531277)
(101.67094 -1.6310041e-05 0.00090769893)
(109.22337 -0.0002615544 0.0013937188)
(111.81831 -0.0003037912 0.0013053948)
(113.15695 -0.00036636231 0.0012840295)
(118.85456 -0.00091039475 0.0018956645)
(118.85348 9.185738e-06 0.00088306597)
(113.15741 0.0016411569 -0.001161963)
(111.81919 0.0018491658 -0.0013284711)
(109.22627 0.0020200379 -0.0013598091)
(101.68001 0.002340094 -0.0016834532)
(101.68581 0.0026691068 -0.0039551934)
(109.22492 0.0027610038 -0.0042952954)
(111.81605 0.0026130996 -0.0041216394)
(113.15378 0.0023875363 -0.0037745549)
(118.85065 0.00051543617 -0.00028968162)
(118.84826 0.00033147357 0.00060341334)
(113.15126 0.002419768 -0.001692223)
(111.81392 0.0026328513 -0.0018500285)
(109.22469 0.0028556566 -0.001877778)
(101.69126 0.0029090567 -0.0013835995)
(101.69709 0.00037826172 -3.0089453e-05)
(109.2274 0.00035567538 -2.6498042e-05)
(111.81555 0.00027615708 6.179085e-05)
(113.15207 0.00016345789 0.000206254)
(118.84715 -0.00047417226 0.0015578891)
(102.51647 0.00014259302 -0.00027734587)
(109.94216 0.00011520851 -0.00023331979)
(112.48291 7.9301616e-05 -0.00010832056)
(113.80143 3.9424345e-05 8.0135953e-05)
(118.75897 -0.00020165402 0.001319491)
(118.76021 -6.9908859e-05 0.00011260723)
(113.80147 0.00024003665 -0.0021717562)
(112.48229 0.00027618581 -0.0023776947)
(109.94046 0.00029258184 -0.0024703884)
(102.51133 0.00025348339 -0.0022666105)
(102.50448 -0.0014593519 -0.0031186594)
(109.93941 -0.0012248311 -0.0031515488)
(112.48318 -0.0010498184 -0.003081177)
(113.80286 -0.00091361403 -0.0028813066)
(118.76253 -0.00029593564 -0.00062200619)
(118.76523 -0.00029122332 -8.6960497e-07)
(113.80517 -0.00043100083 -0.0017934404)
(112.48494 -0.00047768064 -0.001965458)
(109.93944 -0.00055552234 -0.0019977257)
(102.498 -0.00059597674 -0.002142598)
(102.48969 -0.00039489681 0.00043493228)
(109.93682 -0.00044647182 0.00069424264)
(112.48425 -0.0004306254 0.00067732755)
(113.80499 -0.00042943633 0.00072144951)
(118.76646 -0.00049168157 0.0015246795)
(118.7668 -0.00053730391 0.0017941457)
(113.803 -0.0003977986 0.0010048107)
(112.48148 -0.00038956646 0.0009781594)
(109.9324 -0.00039724714 0.0010133793)
(102.47982 -0.00039593005 0.00094601982)
(102.47199 -0.00036844907 0.00093656464)
(109.92866 -0.00033715499 0.00095909691)
(112.47932 -0.00032532773 0.00095678304)
(113.80141 -0.0003418768 0.00098880277)
(118.76742 -0.00056098022 0.0018319768)
(118.76806 -0.00057415105 0.0018446209)
(113.80024 -0.00024803798 0.001054274)
(112.47751 -0.00021280321 0.0010228871)
(109.92558 -0.00021790495 0.0010173505)
(102.46442 -0.00026216238 0.00097474364)
(102.45773 -0.00016776406 0.00096346875)
(109.92239 -0.00012986687 0.00099546206)
(112.47568 -0.00014192028 0.0010114048)
(113.79885 -0.00019062838 0.0010470303)
(118.7684 -0.00056809949 0.001776415)
(118.76847 -0.00051578808 0.0015493054)
(113.79774 -0.00013896625 0.00078419721)
(112.47409 -8.8578036e-05 0.00073255619)
(109.91984 -6.8248899e-05 0.00070020213)
(102.45162 -9.4754418e-05 0.00069599061)
(102.44673 -0.0001829787 0.00029997935)