/*--------------------------------*- C++ -*----------------------------------*\
  =========                 |
  \\      /  F ield         | OpenFOAM: The Open Source CFD Toolbox
   \\    /   O peration     | Website:  https://openfoam.org
    \\  /    A nd           | Version:  7
     \\/     M anipulation  |
\*---------------------------------------------------------------------------*/
FoamFile
{
    version     2.0;
    format      ascii;
    class       volScalarField;
    location    "490";
    object      rho;
}
// * * * * * * * * * * * * * * * * * * * * * * * * * * * * * * * * * * * * * //

dimensions      [1 -3 0 0 0 0 0];

internalField   nonuniform List<scalar> 
25201
(
1.1738712
1.1738611
1.1738715
1.1738621
1.1738281
1.1738445
1.1738538
1.173857
1.1738475
1.1738271
1.1738472
1.1738438
1.1738311
1.1738321
1.1738372
1.1738139
1.1738174
1.1738144
1.1737967
1.1738329
1.1738124
1.1738098
1.1737981
1.1738282
1.1738365
1.1738194
1.1738062
1.1738117
1.1738151
1.1738128
1.1738173
1.1738046
1.1738554
1.1738485
1.1738398
1.1738411
1.1738018
1.1738097
1.1738493
1.1738545
1.1738055
1.1738084
1.1738185
1.1738597
1.1738578
1.1738516
1.1738333
1.1738302
1.1738258
1.1738326
1.1738335
1.1738251
1.173815
1.1738189
1.1738224
1.173817
1.1738227
1.1738281
1.1738161
1.1738177
1.1737873
1.1738282
1.1738112
1.1738157
1.1737939
1.1738117
1.1738031
1.1737886
1.1738022
1.1737976
1.1738171
1.1737852
1.173826
1.1738118
1.1738115
1.1738179
1.1737869
1.1737954
1.1738328
1.1738218
1.1738289
1.1738171
1.1738432
1.1738199
1.1738427
1.1738017
1.173838
1.173835
1.1738172
1.1738172
1.1737791
1.1738532
1.1738168
1.1738531
1.1738283
1.1737865
1.1738085
1.1738522
1.1738557
1.1738654
1.1738445
1.1738555
1.1738678
1.173868
1.1738406
1.1738831
1.1738604
1.1738225
1.1738458
1.1738662
1.1738392
1.173822
1.1738616
1.1738627
1.1738864
1.1739049
1.1738714
1.1738849
1.1738885
1.1738654
1.1738459
1.173902
1.1738629
1.1738828
1.1738918
1.1738493
1.1738535
1.1738452
1.1738165
1.1738447
1.1738493
1.1738528
1.1738492
1.1738453
1.1738438
1.1738353
1.1738357
1.1738409
1.173827
1.1738212
1.1738164
1.1738107
1.173817
1.1737861
1.173826
1.1738152
1.1738185
1.1738218
1.1738328
1.1738113
1.1737937
1.1738154
1.173802
1.1737884
1.1738028
1.1737962
1.1738242
1.1738228
1.1738229
1.1738101
1.1738163
1.173783
1.1738002
1.1738262
1.1738142
1.173818
1.1738291
1.1737937
1.1738486
1.173831
1.1738419
1.1738195
1.1738107
1.1738198
1.1738073
1.1738262
1.1738111
1.1738356
1.1738695
1.1738304
1.1738535
1.1737929
1.1738504
1.1738765
1.1738291
1.1738916
1.1738456
1.1738942
1.1738882
1.1738895
1.1738766
1.1738618
1.1738682
1.1738335
1.1738516
1.1737777
1.173813
1.1738859
1.1738989
1.1738414
1.1738644
1.1738407
1.1738813
1.1738141
1.1738495
1.1738645
1.1738623
1.1738585
1.1738212
1.1738622
1.1738813
1.1738909
1.1738492
1.173876
1.1738477
1.1738594
1.1738617
1.1738707
1.1738277
1.1738097
1.173815
1.1738187
1.1738446
1.1738154
1.1738105
1.1738038
1.1738087
1.1738571
1.1738588
1.1738528
1.1738522
1.1738459
1.1738084
1.1737991
1.1738011
1.1738349
1.1738369
1.1738304
1.1738073
1.1738154
1.1734938
1.1735097
1.173536
1.1735709
1.173878
1.1743754
1.1743491
1.1743371
1.174324
1.1743152
1.1740282
1.1740433
1.1740526
1.1740604
1.1741097
1.1740959
1.1740582
1.1740498
1.174039
1.1740252
1.1739174
1.1739333
1.1739453
1.1739547
1.1740018
1.173954
1.1739056
1.1738956
1.1738829
1.1738662
1.1738108
1.1738284
1.1738416
1.1738521
1.1739029
1.1738648
1.1738133
1.1738025
1.1737889
1.1737707
1.1737342
1.1737529
1.1737669
1.1737779
1.1738304
1.1738013
1.173748
1.1737368
1.1737225
1.1737032
1.1736752
1.173695
1.1737095
1.173721
1.1737752
1.173752
1.1736968
1.1736851
1.1736702
1.1736499
1.1736266
1.1736473
1.1736625
1.1736744
1.1737307
1.173711
1.1736536
1.1736414
1.173626
1.1736047
1.1735841
1.1736057
1.1736215
1.1736339
1.1736926
1.173675
1.1736151
1.1736024
1.1735863
1.1735642
1.1735449
1.1735675
1.1735839
1.1735969
1.1736581
1.1736417
1.173579
1.1735657
1.173549
1.1735259
1.1735072
1.1735308
1.1735479
1.1735614
1.1736256
1.1736097
1.1735439
1.1735301
1.1735126
1.1734886
1.1734697
1.1734942
1.1735121
1.1735263
1.1735938
1.1735779
1.1735086
1.173494
1.1734758
1.1734507
1.1734317
1.1734573
1.173476
1.1734908
1.173562
1.1735456
1.1734723
1.1734571
1.173438
1.1734118
1.1733915
1.1734183
1.1734378
1.1734535
1.1735289
1.1735121
1.1734343
1.1734182
1.1733982
1.1733707
1.1733493
1.1733775
1.173398
1.1734146
1.1734948
1.1734767
1.1733939
1.1733768
1.1733557
1.1733268
1.1733017
1.1733316
1.1733533
1.173371
1.1734569
1.1734381
1.1733482
1.1733298
1.1733073
1.1732764
1.1732569
1.1732885
1.1733116
1.1733304
1.1734219
1.1733994
1.1733036
1.1732841
1.1732602
1.1732276
1.1734014
1.1732755
1.1732536
1.173227
1.1731916
1.1732211
1.1732554
1.1732811
1.1733021
1.1734233
1.1734393
1.1733203
1.1732997
1.1732746
1.173241
1.1732652
1.1732977
1.173322
1.1733419
1.1734565
1.1734764
1.1733672
1.1733481
1.1733246
1.1732933
1.1733169
1.1733474
1.1733702
1.1733888
1.1734947
1.173512
1.1734092
1.1733911
1.1733689
1.1733392
1.1733609
1.1733898
1.1734115
1.1734291
1.1735288
1.1735456
1.1734489
1.1734318
1.1734107
1.1733824
1.173403
1.1734306
1.1734512
1.1734679
1.1735619
1.1735779
1.1734862
1.1734699
1.1734498
1.1734228
1.1734425
1.1734688
1.1734885
1.1735044
1.1735937
1.1736097
1.1735228
1.1735073
1.173488
1.1734622
1.1734814
1.1735067
1.1735255
1.1735407
1.1736255
1.1736414
1.1735586
1.1735437
1.1735253
1.1735006
1.17352
1.1735441
1.1735622
1.1735767
1.1736577
1.1736744
1.1735952
1.173581
1.1735633
1.1735397
1.1735599
1.173583
1.1736003
1.1736142
1.1736918
1.1737101
1.173634
1.1736204
1.1736034
1.1735808
1.1736028
1.1736249
1.1736415
1.1736549
1.1737295
1.1737504
1.1736771
1.1736641
1.1736477
1.1736261
1.1736511
1.1736723
1.1736883
1.1737011
1.1737732
1.1737987
1.1737276
1.1737151
1.1736994
1.1736787
1.1737089
1.173729
1.1737444
1.1737567
1.173827
1.1738603
1.1737909
1.1737788
1.1737639
1.1737443
1.1737827
1.1738017
1.1738164
1.1738282
1.1738972
1.1739457
1.1738787
1.1738673
1.1738532
1.173835
1.1738849
1.1739024
1.1739158
1.1739266
1.1739918
1.1740759
1.1740165
1.1740065
1.173994
1.1739776
1.1740195
1.1740328
1.1740436
1.1740523
1.174106
1.1742891
1.1741942
1.1741826
1.1741711
1.1741588
1.1741211
1.1741425
1.1741483
1.1741474
1.1741273
1.1743654
1.1731684
1.1730402
1.1729149
1.1727796
1.1744085
1.1744145
1.1744199
1.1744201
1.1743982
1.1744531
1.1743611
1.17435
1.1743392
1.1743278
1.1741422
1.1741522
1.1741615
1.1741689
1.1742104
1.1741478
1.1740947
1.1740855
1.1740738
1.174059
1.1739425
1.1739585
1.1739713
1.1739815
1.1740415
1.1739818
1.1739186
1.1739076
1.173894
1.1738766
1.1738141
1.1738324
1.1738466
1.1738581
1.173924
1.173881
1.173814
1.1738022
1.1737874
1.1737684
1.1737277
1.1737476
1.1737627
1.1737749
1.1738431
1.1738116
1.1737422
1.1737297
1.1737142
1.1736938
1.1736635
1.1736844
1.1737003
1.173713
1.1737837
1.1737591
1.173687
1.173674
1.1736578
1.1736363
1.1736114
1.1736334
1.17365
1.1736632
1.1737368
1.1737163
1.1736412
1.1736276
1.1736108
1.1735883
1.1735664
1.1735894
1.1736066
1.1736204
1.1736972
1.1736791
1.1736006
1.1735866
1.173569
1.1735455
1.1735252
1.1735492
1.1735672
1.1735816
1.1736619
1.1736452
1.173563
1.1735483
1.1735299
1.1735054
1.1734859
1.173511
1.1735297
1.1735448
1.1736289
1.1736128
1.1735266
1.1735112
1.173492
1.1734664
1.1734469
1.1734731
1.1734927
1.1735084
1.1735969
1.1735811
1.1734904
1.1734743
1.1734543
1.1734275
1.1734076
1.173435
1.1734555
1.173472
1.1735651
1.1735484
1.1734526
1.1734356
1.1734146
1.1733865
1.1733648
1.1733936
1.1734151
1.1734326
1.1735314
1.1735144
1.1734125
1.1733945
1.1733725
1.173343
1.1733207
1.1733509
1.1733736
1.1733921
1.1734971
1.1734787
1.1733705
1.1733514
1.1733281
1.1732971
1.1732691
1.1733013
1.1733255
1.1733452
1.1734588
1.1734419
1.1733241
1.1733036
1.1732788
1.1732454
1.1732259
1.17326
1.1732854
1.1733062
1.173426
1.1734046
1.1732804
1.1732587
1.1732324
1.1731973
1.173163
1.1731995
1.1732269
1.1732497
1.1733807
1.1731924
1.1732262
1.1732512
1.1732717
1.1733752
1.1733994
1.1733009
1.1732812
1.1732572
1.1732245
1.1732498
1.1732816
1.173305
1.1733241
1.1734197
1.1734373
1.1733446
1.1733261
1.1733035
1.1732725
1.1732939
1.1733241
1.1733462
1.1733642
1.1734542
1.1734744
1.1733885
1.1733712
1.1733498
1.1733207
1.1733437
1.1733721
1.1733929
1.1734097
1.1734929
1.1735104
1.1734296
1.1734133
1.173393
1.1733652
1.1733865
1.1734136
1.1734334
1.1734493
1.1735275
1.1735446
1.1734687
1.1734532
1.1734339
1.1734075
1.1734278
1.1734536
1.1734725
1.1734875
1.1735613
1.1735774
1.1735057
1.173491
1.1734726
1.1734473
1.1734662
1.1734909
1.1735089
1.1735233
1.1735933
1.1736092
1.1735411
1.173527
1.1735094
1.1734852
1.1735043
1.1735279
1.1735452
1.1735589
1.1736254
1.1736418
1.1735768
1.1735634
1.1735465
1.1735234
1.1735427
1.1735654
1.173582
1.1735951
1.1736586
1.173676
1.1736139
1.1736011
1.1735848
1.1735626
1.173583
1.1736048
1.1736208
1.1736333
1.1736941
1.1737133
1.1736538
1.1736415
1.1736259
1.1736046
1.1736274
1.1736482
1.1736635
1.1736756
1.1737339
1.1737563
1.1736992
1.1736874
1.1736724
1.173652
1.1736789
1.1736988
1.1737134
1.173725
1.1737811
1.1738091
1.173754
1.1737427
1.1737284
1.173709
1.1737429
1.1737617
1.1737756
1.1737867
1.173841
1.1738792
1.1738259
1.1738151
1.1738015
1.1737834
1.1738295
1.1738469
1.17386
1.1738704
1.1739231
1.1739824
1.1739319
1.173922
1.1739095
1.1738931
1.1739623
1.1739772
1.1739888
1.173998
1.1740462
1.1741611
1.174121
1.174113
1.1741027
1.1740898
1.1742034
1.1742103
1.1742176
1.1742236
1.174255
1.1745676
1.1745465
1.1745425
1.1745386
1.1745371
1.1747785
1.1747614
1.1747508
1.1747422
1.1747122
1.173786
1.1734588
1.1734294
1.1734178
1.1734323
1.1744572
1.1744641
1.1744796
1.1744944
1.1745157
1.1741474
1.1740973
1.1740896
1.1740794
1.174063
1.1740619
1.1740745
1.1740851
1.1740933
1.1741302
1.1740239
1.1739768
1.1739675
1.1739557
1.1739399
1.173885
1.1739014
1.1739139
1.1739238
1.1739717
1.1739167
1.1738663
1.1738559
1.1738428
1.1738254
1.1737829
1.173801
1.1738145
1.1738251
1.1738762
1.1738398
1.1737878
1.1737769
1.1737631
1.1737444
1.173712
1.1737312
1.1737454
1.1737566
1.1738093
1.1737822
1.1737285
1.1737171
1.1737026
1.1736829
1.1736568
1.173677
1.1736918
1.1737034
1.1737581
1.1737361
1.1736803
1.1736684
1.1736533
1.1736327
1.1736104
1.1736315
1.1736469
1.173659
1.1737159
1.173697
1.1736389
1.1736265
1.1736108
1.1735893
1.1735691
1.1735911
1.1736071
1.1736197
1.1736791
1.1736619
1.1736012
1.1735884
1.173572
1.1735496
1.1735305
1.1735534
1.1735701
1.1735832
1.1736453
1.173629
1.1735655
1.173552
1.1735351
1.1735117
1.1734929
1.1735168
1.1735342
1.1735479
1.173613
1.1735971
1.1735303
1.1735163
1.1734986
1.1734741
1.1734552
1.1734802
1.1734983
1.1735127
1.1735812
1.1735652
1.1734947
1.17348
1.1734615
1.173436
1.1734162
1.1734423
1.1734612
1.1734764
1.1735489
1.1735322
1.1734576
1.173442
1.1734226
1.1733959
1.173375
1.1734023
1.1734223
1.1734383
1.1735152
1.1734979
1.1734184
1.1734019
1.1733815
1.1733534
1.1733309
1.1733597
1.1733807
1.1733977
1.1734798
1.173461
1.1733759
1.1733584
1.1733367
1.1733071
1.1732831
1.1733136
1.1733359
1.173354
1.1734421
1.1734231
1.1733319
1.1733131
1.1732901
1.1732587
1.1732317
1.1732642
1.1732879
1.1733073
1.1734021
1.1733799
1.1732809
1.1732607
1.1732361
1.1732026
1.1731915
1.1732254
1.1732504
1.1732709
1.1733746
1.1733989
1.1733002
1.1732805
1.1732565
1.1732238
1.1732491
1.173281
1.1733044
1.1733234
1.1734192
1.1734366
1.1733437
1.1733253
1.1733026
1.1732715
1.1732929
1.1733231
1.1733452
1.1733632
1.1734534
1.1734735
1.1733874
1.1733701
1.1733487
1.1733195
1.1733424
1.1733708
1.1733917
1.1734085
1.173492
1.1735095
1.1734285
1.1734121
1.1733918
1.173364
1.1733852
1.1734122
1.1734321
1.173448
1.1735266
1.1735437
1.1734675
1.173452
1.1734327
1.1734062
1.1734265
1.1734524
1.1734713
1.1734864
1.1735605
1.1735767
1.1735046
1.1734898
1.1734714
1.1734461
1.173465
1.1734897
1.1735078
1.1735222
1.1735926
1.1736086
1.1735401
1.173526
1.1735083
1.173484
1.1735031
1.1735268
1.1735441
1.1735579
1.1736248
1.1736412
1.1735759
1.1735624
1.1735454
1.1735222
1.1735415
1.1735643
1.1735809
1.1735941
1.1736579
1.1736752
1.1736128
1.1735999
1.1735836
1.1735613
1.1735818
1.1736037
1.1736197
1.1736323
1.1736933
1.1737124
1.1736527
1.1736403
1.1736247
1.1736033
1.173626
1.1736469
1.1736623
1.1736744
1.1737329
1.1737553
1.1736978
1.173686
1.1736709
1.1736505
1.1736773
1.1736972
1.1737119
1.1737235
1.1737799
1.1738078
1.1737524
1.173741
1.1737267
1.1737073
1.1737409
1.1737598
1.1737738
1.1737849
1.1738394
1.1738774
1.1738239
1.1738131
1.1737994
1.1737813
1.1738272
1.1738446
1.1738577
1.1738682
1.1739211
1.1739803
1.1739297
1.1739198
1.1739073
1.1738908
1.1739597
1.1739747
1.1739863
1.1739955
1.1740438
1.1741597
1.1741197
1.1741118
1.1741015
1.1740887
1.1741982
1.1742054
1.1742129
1.1742189
1.1742509
1.1745825
1.1745581
1.1745543
1.1745506
1.1745504
1.1747508
1.1747345
1.1747249
1.1747177
1.1746844
1.1742494
1.1742653
1.1742704
1.1742785
1.1742893
1.1744247
1.1744281
1.1744376
1.1744472
1.1745084
1.1741979
1.1741533
1.1741455
1.1741355
1.1741237
1.1740549
1.174069
1.1740806
1.1740896
1.1741404
1.1740318
1.1739716
1.1739613
1.1739484
1.1739321
1.1738687
1.1738861
1.1738998
1.1739108
1.1739738
1.1739172
1.1738512
1.1738396
1.1738253
1.1738069
1.1737624
1.1737815
1.1737963
1.1738082
1.1738752
1.1738383
1.1737699
1.1737577
1.1737425
1.1737226
1.1736894
1.1737099
1.1737255
1.1737379
1.1738074
1.1737801
1.1737093
1.1736965
1.1736806
1.1736596
1.1736329
1.1736545
1.1736707
1.1736837
1.1737559
1.1737339
1.1736602
1.173647
1.1736304
1.1736084
1.1735855
1.173608
1.1736249
1.1736384
1.1737137
1.1736948
1.1736179
1.1736041
1.1735868
1.1735638
1.173543
1.1735665
1.1735842
1.1735983
1.1736769
1.1736598
1.1735793
1.1735649
1.1735469
1.1735229
1.1735031
1.1735277
1.1735461
1.1735608
1.1736432
1.173627
1.1735426
1.1735275
1.1735087
1.1734836
1.1734641
1.1734898
1.173509
1.1735245
1.1736109
1.1735951
1.1735063
1.1734904
1.1734708
1.1734445
1.1734251
1.173452
1.173472
1.1734883
1.1735793
1.1735633
1.1734698
1.1734532
1.1734326
1.1734052
1.173384
1.1734122
1.1734332
1.1734503
1.1735466
1.1735296
1.1734303
1.1734127
1.1733911
1.1733622
1.1733403
1.1733699
1.1733921
1.1734102
1.1735126
1.1734952
1.1733896
1.173371
1.1733483
1.1733179
1.1732941
1.1733253
1.1733487
1.1733678
1.1734767
1.1734567
1.1733423
1.1733224
1.1732982
1.1732657
1.173242
1.1732755
1.1733005
1.1733211
1.1734398
1.1734241
1.1733034
1.1732824
1.1732569
1.1732226
1.1731935
1.1732289
1.1732553
1.1732772
1.1734025
1.1733783
1.1732462
1.1732233
1.1731957
1.1731589
1.1733769
1.1732769
1.1732565
1.1732318
1.1731981
1.1732282
1.1732608
1.1732847
1.1733042
1.1733999
1.1734222
1.1733307
1.1733119
1.1732888
1.1732573
1.1732765
1.1733074
1.1733299
1.1733483
1.1734383
1.173457
1.1733711
1.1733534
1.1733316
1.1733018
1.1733269
1.1733558
1.173377
1.1733941
1.1734768
1.1734949
1.1734148
1.1733982
1.1733776
1.1733494
1.173371
1.1733985
1.1734185
1.1734346
1.1735123
1.1735292
1.1734539
1.1734383
1.1734187
1.1733919
1.1734124
1.1734386
1.1734576
1.1734729
1.173546
1.1735625
1.1734915
1.1734767
1.1734581
1.1734324
1.1734515
1.1734766
1.1734948
1.1735093
1.1735785
1.1735944
1.173527
1.1735128
1.173495
1.1734705
1.1734894
1.1735134
1.1735308
1.1735447
1.1736103
1.1736264
1.1735623
1.1735488
1.1735317
1.1735082
1.1735271
1.1735501
1.1735668
1.17358
1.1736426
1.1736591
1.173598
1.173585
1.1735687
1.1735461
1.1735656
1.1735877
1.1736037
1.1736163
1.1736762
1.173694
1.1736354
1.173623
1.1736073
1.1735857
1.1736066
1.1736278
1.1736432
1.1736554
1.1737128
1.1737328
1.1736765
1.1736646
1.1736495
1.1736288
1.1736527
1.1736729
1.1736877
1.1736993
1.1737546
1.1737785
1.1737242
1.1737128
1.1736983
1.1736786
1.1737074
1.1737266
1.1737408
1.1737519
1.1738054
1.1738356
1.1737829
1.173772
1.1737582
1.1737395
1.1737777
1.1737957
1.1738091
1.1738197
1.1738717
1.1739122
1.1738606
1.1738504
1.1738374
1.1738201
1.1738791
1.1738954
1.1739078
1.1739175
1.173967
1.1740205
1.1739716
1.1739625
1.1739509
1.1739354
1.1740564
1.1740688
1.1740789
1.1740867
1.1741269
1.1741538
1.174102
1.1740946
1.1740846
1.1740691
1.1744571
1.1744614
1.1744744
1.1744859
1.1745146
1.1738836
1.1736019
1.1735783
1.1735738
1.1735932
1.1736599
1.1736751
1.1737025
1.1737371
1.1740428
1.174484
1.174453
1.1744415
1.1744301
1.174421
1.1740944
1.1741076
1.1741167
1.1741239
1.1741736
1.1741424
1.1741032
1.1740952
1.1740848
1.1740719
1.1739505
1.1739658
1.1739775
1.1739865
1.1740343
1.1739786
1.17393
1.1739203
1.1739079
1.1738917
1.1738303
1.1738476
1.1738606
1.1738708
1.1739217
1.1738797
1.1738283
1.1738178
1.1738043
1.1737864
1.1737469
1.1737655
1.1737793
1.1737901
1.1738423
1.1738111
1.1737582
1.1737471
1.173733
1.1737138
1.1736841
1.1737038
1.1737183
1.1737296
1.1737835
1.173759
1.1737042
1.1736926
1.1736778
1.1736576
1.1736333
1.173654
1.1736691
1.1736809
1.1737368
1.1737163
1.1736593
1.1736472
1.1736318
1.1736107
1.1735895
1.1736111
1.1736268
1.1736391
1.1736973
1.1736792
1.1736198
1.1736072
1.1735912
1.1735692
1.1735496
1.1735721
1.1735884
1.1736012
1.173662
1.1736453
1.1735832
1.17357
1.1735534
1.1735304
1.1735116
1.173535
1.173552
1.1735654
1.173629
1.1736129
1.1735478
1.1735341
1.1735167
1.1734929
1.1734741
1.1734985
1.1735162
1.1735302
1.173597
1.1735811
1.1735126
1.1734982
1.1734802
1.1734553
1.1734363
1.1734617
1.1734802
1.1734949
1.1735652
1.1735486
1.1734764
1.1734613
1.1734424
1.1734164
1.173396
1.1734226
1.173442
1.1734575
1.1735319
1.1735149
1.1734383
1.1734223
1.1734025
1.1733752
1.1733538
1.1733817
1.1734021
1.1734185
1.1734976
1.1734794
1.1733979
1.173381
1.17336
1.1733314
1.1733066
1.1733361
1.1733577
1.1733752
1.1734599
1.1734413
1.1733525
1.1733344
1.1733121
1.1732815
1.1732619
1.1732932
1.1733159
1.1733344
1.1734247
1.1734025
1.1733081
1.1732888
1.1732652
1.173233
1.1732034
1.1732367
1.1732612
1.1732812
1.1733798
1.1738636
1.1738502
1.1738634
1.1738498
1.1738237
1.1738395
1.1738455
1.173846
1.173841
1.1738396
1.1738195
1.1738132
1.1738409
1.1738214
1.1737942
1.1738009
1.1738096
1.1737936
1.1737754
1.1737621
1.173789
1.173802
1.1737752
1.1737646
1.1737958
1.1738153
1.1738114
1.1737752
1.1737841
1.1737779
1.1737905
1.1737619
1.1737734
1.1737504
1.1737397
1.1737199
1.1737649
1.1737606
1.1737723
1.1737753
1.1737798
1.1737486
1.1737426
1.1737601
1.1737937
1.1737932
1.1738147
1.1738142
1.1737974
1.1737811
1.1737782
1.1737963
1.1738178
1.173784
1.1738269
1.1738105
1.17381
1.173822
1.1738602
1.1738697
1.1738411
1.1738287
1.1743411
1.1743554
1.1743602
1.1743658
1.1743685
1.1743449
1.1743508
1.1743563
1.1743614
1.1743855
1.1741341
1.1740988
1.1740918
1.1740832
1.1740739
1.1740121
1.1740265
1.1740376
1.1740462
1.1740883
1.1739957
1.1739452
1.1739356
1.1739234
1.1739075
1.1738558
1.1738728
1.1738857
1.173896
1.1739481
1.1738985
1.1738443
1.1738336
1.1738202
1.1738024
1.1737639
1.1737823
1.1737961
1.1738071
1.1738616
1.1738281
1.1737728
1.1737615
1.1737474
1.1737284
1.1736982
1.1737178
1.1737322
1.1737437
1.1737996
1.1737741
1.1737172
1.1737055
1.1736908
1.1736707
1.1736458
1.1736663
1.1736814
1.1736933
1.1737512
1.1737301
1.1736713
1.1736591
1.1736437
1.1736228
1.173601
1.1736225
1.1736382
1.1736505
1.1737106
1.1736922
1.1736309
1.1736183
1.1736023
1.1735804
1.1735606
1.1735829
1.1735992
1.1736121
1.1736746
1.1736578
1.1735939
1.1735807
1.1735641
1.1735413
1.1735224
1.1735456
1.1735626
1.173576
1.1736414
1.1736253
1.1735585
1.1735447
1.1735274
1.1735037
1.173485
1.1735092
1.1735269
1.173541
1.1736094
1.1735936
1.1735234
1.173509
1.173491
1.1734662
1.1734473
1.1734726
1.173491
1.1735057
1.1735778
1.1735618
1.1734878
1.1734727
1.1734538
1.173428
1.1734082
1.1734347
1.173454
1.1734695
1.1735456
1.173529
1.1734507
1.1734348
1.173415
1.1733879
1.173367
1.1733947
1.173415
1.1734314
1.1735121
1.1734946
1.1734113
1.1733944
1.1733736
1.1733451
1.1733225
1.1733517
1.1733731
1.1733904
1.1734765
1.1734578
1.1733687
1.1733508
1.1733287
1.1732987
1.1732739
1.1733048
1.1733275
1.173346
1.1734384
1.1734184
1.1733225
1.1733034
1.1732799
1.1732481
1.1732206
1.1732535
1.1732777
1.1732975
1.1733972
1.173375
1.173271
1.1732504
1.1732254
1.1731914
1.173221
1.1732539
1.173278
1.1732978
1.1733971
1.1734179
1.1733216
1.1733024
1.1732789
1.1732469
1.1732706
1.1733018
1.1733245
1.1733431
1.1734362
1.1734535
1.173363
1.173345
1.1733228
1.1732925
1.1733186
1.1733479
1.1733694
1.1733868
1.1734732
1.1734916
1.1734078
1.1733909
1.17337
1.1733414
1.1733628
1.1733907
1.1734111
1.1734275
1.1735088
1.1735256
1.1734467
1.1734307
1.1734108
1.1733836
1.1734042
1.1734307
1.1734501
1.1734657
1.1735423
1.1735583
1.1734839
1.1734687
1.1734498
1.1734239
1.1734433
1.1734686
1.1734871
1.1735019
1.1735744
1.1735905
1.17352
1.1735055
1.1734874
1.1734626
1.1734818
1.173506
1.1735238
1.1735379
1.1736066
1.1736221
1.173555
1.1735412
1.1735239
1.1735001
1.1735187
1.173542
1.173559
1.1735725
1.173638
1.1736543
1.1735902
1.173577
1.1735604
1.1735376
1.1735567
1.173579
1.1735953
1.1736082
1.1736709
1.1736882
1.1736268
1.1736142
1.1735981
1.1735763
1.1735965
1.173618
1.1736337
1.1736461
1.1737062
1.1737253
1.1736663
1.1736542
1.1736388
1.1736178
1.1736404
1.1736609
1.173676
1.1736879
1.1737458
1.1737681
1.1737112
1.1736995
1.1736848
1.1736647
1.1736914
1.1737109
1.1737254
1.1737368
1.1737929
1.1738202
1.1737649
1.1737537
1.1737396
1.1737205
1.1737545
1.1737729
1.1737867
1.1737977
1.1738522
1.1738873
1.1738332
1.1738225
1.1738091
1.1737913
1.173841
1.1738581
1.173871
1.1738812
1.1739333
1.173977
1.1739267
1.1739171
1.1739049
1.1738888
1.1739795
1.1739945
1.1740056
1.1740142
1.1740572
1.1740951
1.1740588
1.1740516
1.1740427
1.1740318
1.1742348
1.1742431
1.1742498
1.1742559
1.1742894
1.1742562
1.1742507
1.1742533
1.1742548
1.1742499
1.1739048
1.1739272
1.1739733
1.1740379
1.1744495
1.1779999
1.179512
1.1796857
1.1798046
1.1798777
1.1732009
1.1731895
1.1732023
1.1732339
1.1735934
1.1744153
1.174398
1.1743842
1.1743696
1.1743621
1.1739645
1.173982
1.173993
1.1740013
1.1740535
1.1740647
1.1740271
1.1740187
1.1740079
1.1739944
1.1738855
1.1739019
1.1739141
1.1739237
1.1739722
1.1739332
1.1738842
1.1738741
1.1738614
1.1738444
1.1737937
1.1738115
1.1738248
1.1738353
1.1738868
1.1738531
1.1738013
1.1737904
1.1737768
1.1737584
1.1737251
1.173744
1.173758
1.173769
1.1738217
1.1737951
1.1737418
1.1737305
1.1737162
1.1736968
1.1736707
1.1736906
1.1737052
1.1737167
1.1737709
1.1737492
1.173694
1.1736823
1.1736674
1.173647
1.1736249
1.1736457
1.1736609
1.1736728
1.173729
1.1737102
1.1736529
1.1736408
1.1736253
1.1736041
1.1735842
1.1736058
1.1736216
1.173634
1.1736925
1.1736755
1.1736158
1.1736031
1.1735871
1.173565
1.1735462
1.1735688
1.1735852
1.1735981
1.1736591
1.1736431
1.1735807
1.1735675
1.1735508
1.1735278
1.1735096
1.1735331
1.1735501
1.1735636
1.1736274
1.1736118
1.1735464
1.1735326
1.1735153
1.1734913
1.1734729
1.1734974
1.1735151
1.1735292
1.1735962
1.1735805
1.1735118
1.1734974
1.1734793
1.1734543
1.1734353
1.1734608
1.1734793
1.1734941
1.1735647
1.1735486
1.173476
1.1734609
1.1734419
1.1734158
1.1733958
1.1734225
1.1734419
1.1734575
1.1735322
1.1735154
1.1734383
1.1734223
1.1734024
1.173375
1.1733536
1.1733817
1.1734021
1.1734186
1.1734981
1.1734803
1.1733982
1.1733812
1.1733601
1.1733313
1.173308
1.1733377
1.1733594
1.1733769
1.1734619
1.1734428
1.1733547
1.1733366
1.1733143
1.1732837
1.1732582
1.1732897
1.1733127
1.1733315
1.1734229
1.1734019
1.1733068
1.1732874
1.1732637
1.1732313
1.1732027
1.1732359
1.1732604
1.1732805
1.1733799
1.1732187
1.1732516
1.1732759
1.1732958
1.173396
1.1734171
1.1733208
1.1733016
1.1732781
1.1732461
1.1732717
1.1733027
1.1733254
1.173344
1.1734369
1.1734559
1.1733663
1.1733484
1.1733263
1.1732962
1.1733204
1.1733496
1.1733711
1.1733885
1.1734749
1.1734929
1.1734091
1.1733922
1.1733713
1.1733428
1.1733645
1.1733922
1.1734126
1.173429
1.1735101
1.1735269
1.1734482
1.1734323
1.1734125
1.1733854
1.1734052
1.1734318
1.1734511
1.1734666
1.1735431
1.1735572
1.1734818
1.1734665
1.1734475
1.1734214
1.173442
1.1734673
1.1734859
1.1735007
1.1735732
1.1735903
1.1735199
1.1735054
1.1734873
1.1734626
1.1734837
1.1735079
1.1735255
1.1735395
1.1736076
1.1736226
1.1735554
1.1735416
1.1735242
1.1735004
1.1735187
1.173542
1.173559
1.1735725
1.1736381
1.1736542
1.1735901
1.1735769
1.1735603
1.1735375
1.1735564
1.1735787
1.173595
1.1736079
1.1736706
1.1736876
1.1736263
1.1736136
1.1735976
1.1735757
1.1735957
1.1736172
1.1736329
1.1736453
1.1737054
1.1737242
1.1736652
1.173653
1.1736376
1.1736167
1.1736388
1.1736594
1.1736745
1.1736864
1.1737444
1.1737662
1.1737091
1.1736974
1.1736826
1.1736625
1.1736885
1.1737081
1.1737226
1.1737341
1.1737903
1.1738169
1.1737613
1.17375
1.1737358
1.1737167
1.1737496
1.1737681
1.173782
1.173793
1.173848
1.1738817
1.1738272
1.1738165
1.1738029
1.173785
1.1738328
1.1738501
1.1738631
1.1738734
1.1739261
1.1739676
1.1739169
1.1739072
1.1738949
1.1738785
1.1739658
1.1739809
1.1739924
1.1740011
1.1740448
1.1740794
1.1740424
1.174035
1.1740258
1.1740146
1.174215
1.1742234
1.1742302
1.1742362
1.1742695
1.1742377
1.1742343
1.1742355
1.1742353
1.1742285
1.1738895
1.173915
1.1739669
1.1740291
1.1744555
1.1744403
1.1734614
1.1733447
1.1732379
1.1731096
1.1765967
1.1766076
1.1765826
1.1765272
1.1759808
1.1768674
1.1778328
1.1779299
1.1779785
1.1780125
1.1744045
1.1743987
1.1743932
1.1743888
1.1743597
1.1744244
1.1743953
1.1743905
1.1743855
1.1743808
1.1740956
1.1741049
1.1741132
1.1741198
1.1741526
1.1741035
1.1740626
1.1740543
1.1740436
1.1740294
1.1739205
1.1739362
1.1739481
1.1739575
1.1740066
1.1739563
1.1739051
1.173895
1.1738823
1.1738654
1.1738096
1.1738273
1.1738406
1.1738512
1.1739045
1.1738662
1.1738122
1.1738014
1.1737876
1.1737693
1.1737326
1.1737515
1.1737656
1.1737767
1.1738316
1.1738024
1.1737468
1.1737354
1.173721
1.1737015
1.1736733
1.1736933
1.1737081
1.1737197
1.1737762
1.1737529
1.1736953
1.1736835
1.1736684
1.1736479
1.1736243
1.1736453
1.1736606
1.1736728
1.1737314
1.1737117
1.1736518
1.1736394
1.1736238
1.1736024
1.1735815
1.1736033
1.1736193
1.1736319
1.173693
1.1736753
1.1736129
1.1736
1.1735837
1.1735614
1.173542
1.1735647
1.1735814
1.1735945
1.1736583
1.1736418
1.1735765
1.1735631
1.1735461
1.1735229
1.1735041
1.1735278
1.1735451
1.1735588
1.1736257
1.1736097
1.1735412
1.1735272
1.1735095
1.1734853
1.1734665
1.1734912
1.1735092
1.1735236
1.1735938
1.1735779
1.1735059
1.1734911
1.1734727
1.1734474
1.1734281
1.1734539
1.1734728
1.1734879
1.1735618
1.1735455
1.1734695
1.173454
1.1734347
1.1734083
1.1733879
1.173415
1.1734347
1.1734506
1.1735289
1.1735119
1.1734312
1.1734149
1.1733946
1.1733669
1.1733452
1.1733736
1.1733944
1.1734112
1.1734944
1.1734764
1.1733904
1.1733731
1.1733517
1.1733225
1.1732988
1.1733288
1.1733508
1.1733687
1.1734577
1.1734385
1.1733463
1.1733279
1.1733052
1.1732743
1.1732485
1.1732804
1.1733038
1.1733229
1.1734187
1.1733976
1.1732981
1.1732783
1.1732541
1.1732212
1.173192
1.173226
1.173251
1.1732716
1.1733753
1.1733803
1.1732479
1.173225
1.1731973
1.1731605
1.1731914
1.1732269
1.1732536
1.1732756
1.1734024
1.1734234
1.1733018
1.1732806
1.1732548
1.1732204
1.1732469
1.1732802
1.1733051
1.1733256
1.1734427
1.1734616
1.1733488
1.173329
1.1733049
1.1732726
1.1732976
1.1733289
1.1733523
1.1733714
1.1734803
1.1734983
1.173393
1.1733745
1.1733517
1.1733213
1.173344
1.1733736
1.1733957
1.1734137
1.1735156
1.1735326
1.1734337
1.1734162
1.1733947
1.1733658
1.173387
1.1734151
1.1734361
1.1734532
1.1735491
1.1735654
1.1734721
1.1734555
1.173435
1.1734075
1.1734274
1.1734543
1.1734743
1.1734905
1.1735813
1.1735971
1.1735087
1.1734929
1.1734733
1.173447
1.1734664
1.1734921
1.1735113
1.1735267
1.173613
1.1736289
1.1735447
1.1735296
1.1735109
1.1734857
1.1735051
1.1735297
1.1735481
1.1735628
1.1736451
1.1736616
1.1735812
1.1735668
1.1735488
1.1735247
1.1735447
1.1735683
1.1735859
1.1736
1.1736787
1.1736965
1.1736195
1.1736057
1.1735884
1.1735653
1.1735868
1.1736093
1.1736263
1.1736398
1.1737152
1.1737353
1.1736613
1.173648
1.1736314
1.1736094
1.1736335
1.1736551
1.1736714
1.1736844
1.173757
1.1737807
1.1737094
1.1736966
1.1736807
1.1736596
1.1736885
1.1737091
1.1737247
1.1737372
1.1738074
1.1738373
1.173768
1.1737557
1.1737404
1.1737204
1.1737582
1.1737776
1.1737925
1.1738044
1.1738729
1.1739124
1.1738444
1.1738328
1.1738183
1.1737995
1.173857
1.1738748
1.1738887
1.1738999
1.1739657
1.1740166
1.1739522
1.1739415
1.1739283
1.1739112
1.1740242
1.1740393
1.1740514
1.174061
1.1741168
1.174148
1.174092
1.1740834
1.1740726
1.174058
1.1743406
1.1743485
1.1743612
1.1743745
1.1744452
1.1740486
1.1739686
1.1739657
1.1739657
1.1739641
1.1743085
1.1731723
1.1730503
1.1729326
1.1728056
1.1741678
1.1741788
1.174184
1.1741831
1.1741529
1.1742936
1.1742058
1.1741944
1.1741829
1.1741692
1.1740211
1.1740333
1.1740439
1.1740522
1.1740976
1.1740722
1.1740171
1.1740073
1.1739948
1.1739785
1.1738833
1.1739004
1.1739138
1.1739244
1.1739863
1.1739425
1.1738779
1.1738666
1.1738525
1.1738344
1.1737825
1.1738014
1.173816
1.1738277
1.1738948
1.1738593
1.1737914
1.1737794
1.1737644
1.1737449
1.17371
1.1737301
1.1737455
1.1737578
1.1738268
1.1737992
1.1737292
1.1737166
1.173701
1.1736803
1.1736531
1.1736742
1.1736902
1.173703
1.1737742
1.1737518
1.1736793
1.1736663
1.17365
1.1736284
1.1736053
1.1736273
1.173644
1.1736572
1.1737312
1.173712
1.1736366
1.173623
1.1736061
1.1735835
1.1735627
1.1735858
1.173603
1.1736169
1.1736939
1.1736766
1.173598
1.1735838
1.1735662
1.1735427
1.1735231
1.1735472
1.1735651
1.1735796
1.17366
1.1736438
1.1735615
1.1735468
1.1735284
1.1735039
1.1734848
1.1735099
1.1735286
1.1735437
1.1736279
1.1736122
1.1735259
1.1735105
1.1734913
1.1734657
1.1734465
1.1734727
1.1734923
1.1735081
1.1735965
1.1735808
1.17349
1.1734738
1.1734538
1.173427
1.1734072
1.1734346
1.1734551
1.1734716
1.1735649
1.1735488
1.1734529
1.1734358
1.1734149
1.1733868
1.1733658
1.1733946
1.1734161
1.1734336
1.1735324
1.1735156
1.1734137
1.1733957
1.1733736
1.1733441
1.1733215
1.1733519
1.1733746
1.1733931
1.1734983
1.1734804
1.1733717
1.1733525
1.1733292
1.173298
1.1732733
1.1733055
1.1733296
1.1733493
1.173462
1.1734428
1.173326
1.1733055
1.1732807
1.1732475
1.1732203
1.1732546
1.1732803
1.1733015
1.173423
1.173402
1.1732755
1.1732536
1.1732269
1.1731915
1.1731606
1.1731974
1.173225
1.1732479