/*--------------------------------*- C++ -*----------------------------------*\
  =========                 |
  \\      /  F ield         | OpenFOAM: The Open Source CFD Toolbox
   \\    /   O peration     | Website:  https://openfoam.org
    \\  /    A nd           | Version:  7
     \\/     M anipulation  |
\*---------------------------------------------------------------------------*/
FoamFile
{
    version     2.0;
    format      ascii;
    class       volScalarField;
    location    "410";
    object      p;
}
// * * * * * * * * * * * * * * * * * * * * * * * * * * * * * * * * * * * * * //

dimensions      [1 -1 -2 0 0 0 0];

internalField   nonuniform List<scalar> 
25278
(
101315.47
101315.01
101316.24
101316.16
101319.81
101314.68
101314.38
101315.41
101314.68
101310.39
101312
101313.7
101314.71
101316.83
101325.21
101316.16
101315
101322.86
101326.5
101319.97
101315.07
101315.45
101315.52
101312.45
101309.12
101312.27
101315.36
101314.08
101319.51
101312.97
101310.95
101316.91
101312.48
101315.27
101309.2
101315.52
101311
101307.55
101311.72
101306.49
101309.59
101304.68
101305.04
101298.98
101303.1
101305.64
101310.81
101308.43
101304.52
101311.13
101310.67
101319.73
101315.54
101314
101315.37
101308.79
101306.71
101312.9
101305.27
101309.39
101303.86
101303.22
101302.99
101308.01
101317.08
101315.78
101307.14
101302.71
101307.26
101309.51
101322.71
101313.09
101316.43
101311.37
101316.94
101308.99
101309.21
101312.93
101315.26
101319.68
101323.17
101325.09
101322.8
101326.9
101319.5
101323.68
101328.28
101331.53
101331.18
101330.06
101324.64
101325.11
101331.27
101335.2
101336.49
101325.2
101330.99
101329.21
101322.34
101323.49
101331.01
101341.1
101337.68
101323.57
101322.31
101330.46
101324.25
101334.1
101332.55
101341.08
101335.64
101327.89
101347.77
101361.92
101339.88
101336.32
101365.95
101329.97
101338.36
101337.51
101325.8
101319.06
101319.52
101330.68
101334.97
101331.05
101340.68
101335.47
101327.64
101323.43
101322.96
101319.26
101322.06
101324.62
101330.71
101330.92
101323.06
101327.27
101347
101332.45
101338.05
101360.8
101364.71
101328.52
101321.13
101329.62
101329.77
101323.77
101336.1
101323.79
101324.53
101330.15
101324.04
101329.1
101321.82
101321.6
101321.71
101336.69
101335.2
101309.2
101336.9
101345.3
101311.66
101336.2
101322.33
101330.89
101338.1
101329.16
101362.23
101360.43
101340.13
101327.92
101345.76
101344.9
101438.12
101390.52
101345.9
101339.98
101393.43
101450.43
101342.26
101342.75
101324.28
101337.4
101340.47
101330.3
101322.17
101320.47
101333.06
101369.34
101363.85
101338.26
101326.15
101329.62
101329.48
101326.79
101351.3
101315.39
101469.82
101430.52
101313.24
101346.78
101326.25
101318.17
101320.26
101319.18
101315.27
101319.44
101316.6
101310.47
101315.54
101312.52
101309.59
101304.67
101311.09
101307.19
101311.45
101306.63
101305.05
101298.84
101299.31
101302.89
101308.52
101310.5
101307.29
101301.34
101299.14
101303.62
101305.02
101306.32
101304.41
101297.22
101294.77
101300.32
101302.64
101303.87
101304.12
101307.72
101314.7
101319.73
101310.95
101315.33
101314.1
101309.6
101304
101308.87
101306.2
101312.41
101305.57
101303.38
101303.03
101308.03
101310.03
101319.21
101315.79
101316.81
101309.71
101307.37
101315.06
101306.48
101302.67
101293.54
101294.58
101295.5
101297.37
101291.67
101300.33
101297
101300.96
101302.58
101302.1
101299.02
101301.59
101294.42
101295.36
101296.85
101300.62
101295.84
101292.66
101291.43
101290.91
101286.54
101295.13
101291.84
101290.57
101283.9
101287.59
101283.53
101282.17
101288.28
101289.47
101293.82
101301.45
101307.46
101308.66
101302.98
101306.29
101304.43
101300.91
101294.98
101297.41
101299.44
101300.86
101299.51
101295.9
101296.45
101303
101305.07
101303.31
101307.47
101300.92
101308.6
101301.57
101301.26
101299.23
101302.84
101301.04
101307.58
101316.9
101320.28
101308.67
101302.11
101311.58
101303.51
101301.62
101299.55
101312.92
101318.88
101325.95
101312.42
101298.58
101296.95
101289.22
101283.74
101297.63
101287.77
101299.45
101293.94
101291.98
101292.21
101295.15
101296.76
101291.55
101292.56
101288.84
101295.66
101292.78
101286.9
101289.53
101286.72
101286.6
101296.72
101289.71
101289.26
101286.44
101284.32
101279.49
101287.13
101277.4
101278.47
101284.98
101285.49
101283.75
101287.67
101281.27
101289.42
101292.92
101292.85
101300.88
101295.89
101286.98
101290.04
101286.95
101296.83
101303.29
101305.31
101294.19
101292.19
101292.45
101294.93
101296.68
101291.94
101293.06
101299.79
101296.1
101285.32
101288.12
101284.46
101285.98
101289.26
101283.42
101286.64
101289.04
101289.26
101296.96
101286.66
101284.44
101279.8
101287.52
101277.65
101278.86
101277.94
101274.29
101268.78
101269.56
101278.82
101283.22
101290.92
101283.65
101292.15
101283.92
101280.4
101280.28
101279.38
101285.99
101279.04
101285.76
101289.47
101284.36
101277.9
101277.45
101278.38
101271.83
101278.73
101275.19
101281.26
101280.1
101275.03
101273.29
101266.71
101273.77
101266.27
101274.97
101265.42
101264.4
101271.11
101266.5
101273.59
101278.21
101286.14
101275.78
101277.39
101281.79
101291.52
101292.37
101298.77
101302.75
101303.03
101316.32
101318.32
101309.38
101300.79
101300.18
101301.91
101313.47
101300.52
101319.91
101326.13
101322.44
101317.61
101295.46
101298.98
101298.73
101294.05
101294.3
101331.41
101350.04
101312.79
101322.33
101327.63
101320.67
101302.12
101302.57
101301.98
101301.68
101306.75
101343.85
101351.14
101294.85
101290.09
101301.71
101303.84
101302.95
101296.17
101291.58
101294.8
101285.75
101290.01
101287.06
101291.37
101288.39
101297.93
101289.84
101277.79
101283.96
101276.91
101278.1
101281.87
101273.9
101282.52
101281.63
101282.04
101277.9
101267.55
101273.84
101277.43
101283.05
101281.08
101284.62
101291.86
101291.76
101300.47
101303.85
101301.6
101297.81
101289.12
101295.52
101297.35
101302.42
101302.54
101301.21
101298.78
101299.93
101308.84
101298.78
101311.64
101300.16
101301.74
101301.17
101320.27
101304.22
101299.06
101296.94
101300.55
101296.53
101297.77
101326.23
101321.8
101318.12
101290.64
101317.52
101293.91
101290.65
101296.13
101329.21
101350.97
101340.16
101286.79
101280.04
101295.42
101269.74
101293.68
101277.06
101293.31
101286.59
101301.19
101294.02
101301.87
101303.2
101300.53
101302.35
101304.39
101299.24
101300.83
101297.78
101296.07
101291.9
101293
101296.29
101291.62
101287.44
101295.8
101294.71
101291.65
101293.34
101283.6
101284.53
101288.02
101283.11
101282.64
101287.99
101289.65
101291.15
101283.51
101292
101286.79
101279.56
101284.09
101280.4
101280.32
101274.89
101279.69
101278.84
101283.27
101274.97
101278.16
101284.87
101289.56
101287.01
101279.9
101277.88
101279.04
101272.39
101278.72
101275.2
101266.25
101273.7
101280.98
101273.3
101266.53
101268.48
101269.31
101268.85
101273.15
101271.94
101261.35
101269.45
101258.23
101261.35
101252.69
101256.15
101265.89
101269.11
101277.45
101277.55
101276.22
101280.09
101271.64
101278.1
101271.99
101280.69
101266.75
101268.5
101253.26
101260.74
101266.26
101273.3
101269.91
101274.55
101282.01
101286.7
101290
101298.28
101292.19
101295.78
101288.47
101293.98
101294.06
101290.76
101284.44
101288.96
101281.87
101285.76
101285.35
101291.13
101281.4
101278.71
101275.83
101287.19
101288.84
101295.49
101301.36
101295.32
101290.12
101286.26
101286.75
101290.82
101285.07
101288.79
101292.18
101282.03
101280.78
101276.7
101277.09
101280.67
101279.16
101287.58
101290.72
101277.45
101274.79
101285.44
101270.18
101282.64
101272.31
101270.46
101255.94
101264.94
101270.44
101277.52
101272.39
101276.18
101269.2
101264.9
101260.03
101268.84
101275.48
101280.1
101277.76
101283.49
101281.63
101273.59
101265.76
101272.63
101264.09
101267.5
101261.03
101270.4
101288.64
101283.02
101273.65
101280.59
101293.64
101289.06
101302.12
101294.74
101302.73
101297.85
101296.74
101285.76
101286.87
101281.49
101291
101292
101290.97
101289.78
101279.85
101278.4
101280.21
101267.08
101267.69
101272.32
101273.51
101278.15
101286.03
101281.59
101277.47
101274.02
101277.16
101275.79
101272.28
101270.34
101273.92
101274.97
101284.14
101281.85
101271.33
101267.15
101279.36
101276.6
101263.59
101262.77
101266.3
101268.4
101281.25
101278.45
101273.13
101276.64
101265.16
101267.82
101270.71
101262.76
101266.89
101271.16
101268.95
101264.14
101254.43
101260.55
101263.41
101258.21
101252.51
101247.74
101259.26
101254.68
101258.84
101247.76
101256.55
101251.4
101262.36
101271.04
101283.69
101286.69
101293.28
101289.68
101297.91
101284.73
101284.71
101284.6
101276.5
101275.18
101283.12
101279.66
101269.82
101268.16
101280.9
101285.01
101291.44
101290.2
101299.88
101285.29
101283.74
101283.64
101274.32
101273.96
101283.81
101279.48
101267.83
101257.78
101258.2
101260.72
101269.66
101271.21
101278.83
101278.62
101291.25
101273.24
101274.36
101273.67
101261.55
101259.96
101250.04
101245.9
101257.9
101268.55
101277.23
101277.3
101292.69
101274.6
101272.54
101272.13
101262.58
101266.01
101265.28
101269.38
101282.84
101262.14
101277.22
101264.65
101264.42
101246.11
101257.25
101245.29
101249.61
101256.27
101261.9
101253.05
101260.41
101251.99
101261.96
101266.28
101278.28
101268.15
101260.99
101266.83
101269.52
101269.86
101261.2
101252.45
101243.53
101232.73
101243.32
101253.74
101256.63
101269.32
101269.75
101260.1
101249.58
101258.57
101261.81
101253.18
101243.75
101238.4
101250.45
101259.65
101249.15
101246.16
101255.95
101264.53
101271.4
101266.59
101267.69
101262.87
101261.82
101251.99
101258.29
101259.54
101265.81
101257.14
101267.03
101261.45
101250.61
101245.67
101251.06
101261.62
101267.12
101261.83
101247.96
101256.86
101255.93
101246.29
101235.14
101236.76
101248.77
101236.85
101248.03
101238.09
101249.66
101248.25
101250.88
101255.01
101248.24
101242.93
101229.34
101239.4
101244.56
101236.21
101246.47
101237.68
101250.69
101241.66
101248.65
101255.63
101261.86
101266.28
101284.9
101277.15
101262.98
101258.57
101261.46
101275.87
101258.93
101268.72
101282.66
101256.03
101255.08
101272.71
101246.18
101249.23
101249.74
101229.1
101238.36
101246.74
101232.64
101243.24
101234.94
101222.8
101207.2
101223
101217.32
101232.89
101218.6
101234.27
101240.35
101233.71
101225.88
101241.9
101238.39
101251.72
101256.69
101257.66
101252.58
101238.79
101245.89
101252.94
101241.3
101240.08
101225.57
101236.32
101222.53
101234.99
101238.03
101225.67
101221.58
101223.27
101207.98
101224.8
101210.68
101226.87
101214.29
101232.07
101230.63
101245.02
101221.48
101222.2
101200.77
101201.29
101212.79
101216.9
101225.58
101207.46
101222.37
101233.1
101226.02
101213.11
101194.48
101210.56
101219.81
101206.66
101186.69
101171
101195.6
101183.46
101207.59
101187.28
101212.79
101234.1
101249.56
101261.49
101276.85
101274.42
101270.63
101273.2
101259.35
101262.96
101264.73
101254.6
101252.21
101246.47
101230.93
101239.04
101241.27
101223.68
101237.26
101253.46
101251.98
101235.99
101220.81
101220.89
101239.9
101258.57
101275.4
101292.9
101288.18
101261.03
101260.13
101238.45
101231.82
101248.34
101228.46
101228.28
101245.8
101257.57
101268.14
101268.67
101274.31
101283.84
101286
101296.82
101303.35
101308.5
101315.16
101322.76
101326.68
101329.77
101328.95
101331.83
101329.8
101339.83
101331.66
101321.17
101332.28
101366.9
101363.51
101336.5
101341.67
101338.5
101324.35
101322.12
101322.88
101322.55
101321.97
101338.73
101308.83
101353.02
101350.41
101324.74
101337.45
101393.01
101445.08
101333.27
101367.92
101362.67
101341.73
101329.79
101326.98
101336.2
101329.74
101336.42
101324.32
101334.82
101395.78
101455.12
101329.95
101311.52
101333.83
101337.6
101361.95
101366.41
101332.69
101320.99
101325.36
101337.33
101328.1
101323.68
101342.38
101303.87
101492.03
101458.96
101330.5
101353.6
101329.15
101316.58
101320.07
101310.8
101311.12
101319.88
101313.59
101312.88
101317.2
101316.06
101307.28
101308.07
101303.19
101303.13
101307.69
101309.5
101305.3
101303.38
101306.81
101308.79
101315.32
101309.34
101303.96
101297.66
101303.99
101304.62
101302.39
101300.65
101289.9
101291.1
101292.15
101291.24
101297.98
101302.86
101301.95
101294.22
101295.01
101287.3
101282.01
101280.12
101278.64
101280.69
101284.08
101293.59
101291.99
101298.01
101301.8
101295.86
101289.6
101292.18
101300.57
101294.97
101295.91
101287.79
101288.47
101285.09
101274.1
101275.1
101271.3
101271.9
101270.33
101270.18
101271.46
101273.37
101272.1
101256.09
101256.69
101260.8
101260.28
101247.99
101248.74
101241.91
101240.94
101222.2
101222.9
101233.17
101232.68
101208.65
101209.85
101221.29
101208.82
101186.91
101202.05
101202.32
101171.84
101198.94
101177.76
101201.22
101223.31
101236.76
101227.36
101247.2
101290.84
101279.16
101248.89
101239.32
101237.95
101266.79
101236.19
101256.19
101226.36
101240.65
101254.72
101255.04
101262.95
101291.84
101262.8
101284.92
101239.24
101223.5
101229.78
101283.09
101334.34
101274.14
101307.73
101269.85
101285.48
101274.02
101285.05
101275.99
101285.52
101283.41
101273.47
101278.63
101282.91
101287.5
101290.52
101294.55
101289.28
101295.81
101292.12
101289.5
101282.43
101285.11
101281.79
101276.85
101270.03
101275.44
101271.69
101278.44
101285.37
101291.71
101294.58
101288.44
101280.75
101281.8
101278.87
101283.53
101287.63
101296.22
101301.79
101291.83
101286.36
101295.33
101290.12
101287.12
101278.66
101280.96
101289.57
101285.69
101284.97
101279.13
101273.23
101266.05
101261.84
101270.24
101276.58
101287.79
101288.97
101286.56
101297.58
101295.67
101300.91
101301.15
101301.81
101307.28
101314.26
101315.73
101315.08
101314.12
101316.2
101314.61
101314.56
101314.35
101318.91
101309.87
101315.24
101314.25
101307.12
101301.83
101306.63
101306.86
101315.74
101307.96
101301.48
101301.26
101305.42
101309.94
101318.79
101312.42
101311.95
101303.85
101307.26
101314.11
101307.44
101301.55
101294.52
101293.17
101292.94
101292.93
101284.31
101285.06
101278.36
101280.56
101290.41
101290.8
101278.31
101282.3
101272.36
101272.49
101280.67
101277.09
101274.24
101272.22
101269.85
101270.37
101274.27
101283.74
101280.18
101278.68
101266.07
101265.85
101268.54
101281.42
101279.07
101271.22
101268.32
101272.76
101281.28
101283.45
101287.71
101294.36
101302.64
101290.47
101285.79
101285.77
101289.65
101297.56
101286.03
101292.72
101294.71
101290.29
101293.06
101284.81
101276.48
101278.67
101282.41
101274.26
101276.87
101269.34
101266.3
101258.62
101267.38
101274.34
101272.18
101284.62
101279.27
101282.98
101276.23
101277.73
101273.48
101281.15
101276.47
101283.42
101276.7
101277.17
101280.9
101271.96
101263.18
101264.85
101254.59
101264.62
101263.03
101252.94
101249.68
101261.33
101269.15
101270.75
101263.56
101265.59
101275.34
101277.18
101275.57
101265.26
101262.15
101266.4
101274.38
101262.2
101251.63
101256.87
101262.1
101267.16
101259.09
101258.32
101260.98
101269.22
101271.68
101264.1
101259.2
101267.57
101264.49
101255.1
101252.07
101261.67
101256.77
101260.06
101263.98
101254.16
101248.93
101243.42
101255.74
101260.31
101249.7
101238.26
101243.37
101249.95
101256.07
101263.06
101271.03
101262.98
101254.2
101248.22
101258.03
101266.66
101276.39
101272.06
101272.19
101279.3
101264.87
101267.46
101262.26
101260.11
101260.7
101270.77
101284.49
101279.41
101267.45
101273.07
101272.53
101267.67
101266.39
101277.26
101259.55
101259.68
101253.09
101253.4
101251.1
101271.58
101293.78
101279.52
101263.73
101270.01
101271.07
101265.62
101267.26
101285.67
101256.96
101254.59
101245.43
101247.71
101245.1
101264.7
101299.22
101276.04
101261.7
101268.79
101275.31
101279.86
101284.67
101292.52
101301.68
101288.06
101286.22
101299.14
101289.82
101284.63
101274.69
101275.43
101285.98
101281.78
101278.68
101283.26
101284.13
101290.65
101300.04
101300.86
101320.13
101324.05
101306.12
101299.34
101298.53
101300.28
101320.69
101309.32
101346.71
101342.45
101343.18
101291.31
101280.48
101298.25
101298.5
101293.73
101324.36
101287.48
101317.7
101297.1
101312.2
101316.73
101314.47
101300.05
101299.18
101296.46
101296.99
101305.67
101323.62
101321.12
101312.37
101289.81
101287.71
101293.79
101294.21
101282.44
101285.2
101281.82
101290.43
101288.76
101293.98
101294.56
101295.76
101278.02
101280.6
101294.45
101294.08
101279.77
101275.84
101261.09
101261.58
101271.29
101270.64
101260.62
101268.44
101260.45
101261.46
101272.28
101270.18
101271.95
101259.47
101261.87
101258.31
101267.1
101273.93
101258.02
101254.73
101269.52
101261.81
101255.38
101243.3
101247.04
101251.89
101238.83
101245.31
101245.15
101252.34
101241.13
101249.44
101248.58
101251.7
101240.26
101245.63
101237.93
101230.8
101244.36
101240.79
101226.25
101236.71
101237.97
101226.68
101211.07
101224.86
101223.18
101227.17
101234.4
101244.54
101256.8
101247.37
101233.35
101224.41
101237.27
101250.84
101257.73
101253.61
101263.69
101252.58
101240.79
101236.28
101249.01
101260.67
101249.67
101241.88
101245.61
101227.66
101211.12
101232.57
101240
101231.96
101239.93
101255.03
101251.15
101248.94
101252.14
101276.01
101293.18
101352.3
101280.83
101331.95
101290.56
101285.6
101291.05
101335.1
101275.79
101375.82
101439.94
101304.03
101304.23
101376.71
101251.43
101284.72
101285.02
101392.87
101302.94
101305.83
101435.01
101314.39
101370.87
101257.68
101389.11
101316.94
101294.55
101455.35
101516.32
101669.92
101477.91
101440.43
101454.83
101201.97
101231.35
101519.96
101266.91
101389.22
101295.61
101343.89
101306.09
101321.25
101302.02
101302.02
101322.71
101310.98
101300.4
101301.02
101301.48
101300.51
101349.8
101325.65
101295.01
101290.93
101289.25
101264.75
101293.06
101275.2
101293.11
101285.54
101299.92
101290.26
101291.71
101301.42
101286.88
101283.91
101284.14
101277.89
101277.65
101293.57
101277.55
101272.69
101273.56
101258.55
101247.09
101258.51
101268.29
101279.56
101281.23
101285.31
101274.69
101268.61
101270.72
101280.15
101283.48
101290
101297.9
101302.3
101293.59
101285.1
101285.24
101285.04
101289.53
101293.89
101291.18
101279.37
101279.53
101274.54
101275.39
101273.82
101281.26
101274.76
101289.14
101285.7
101295.69
101301.43
101312.91
101317.45
101316.24
101302.65
101299.95
101299.02
101298.95
101308.51
101325.37
101317.9
101319.27
101291.21
101291.47
101296.82
101297.71
101293.78
101315.96
101298.51
101312.67
101301.83
101311.6
101306.63
101311.91
101311.03
101315.43
101310.76
101305.79
101304.44
101307.33
101308.9
101308.64
101312.9
101313.95
101319.46
101317.01
101312.55
101315.47
101309.02
101310.91
101307.67
101305.15
101304.73
101309.56
101316.94
101308.89
101307.46
101303.51
101301.4
101300.87
101308.43
101320.61
101319
101315.01
101319.79
101326.28
101318.7
101302.79
101299.43
101297.14
101299.49
101312.34
101301.52
101308.63
101300.96
101307.36
101316.72
101311.05
101303.11
101301.35
101288.25
101292.96
101299.53
101301.04
101305.13
101299.28
101303.35
101301.08
101304.4
101302.89
101306.33
101299.62
101297.49
101295.3
101292.22
101296.36
101297.91
101300.76
101301.19
101299.33
101293.15
101296.16
101291.82
101280.65
101278.86
101274.51
101273.21
101268.8
101267.95
101264.38
101263.78
101262.43
101262.13
101263.25
101263.47
101272.35
101274.94
101259.7
101258.94
101256.41
101256.92
101254.43
101271.62
101270.71
101253.78
101253.17
101253.71
101238.05
101242.7
101246.39
101247.35
101243.1
101225.62
101231.27
101230.5
101226.33
101218.09
101219.69
101239.23
101238.53
101237.41
101218.92
101221.11
101191.39
101186.72
101201.47
101210.62
101208.31
101202.36
101180.65
101181.56
101184.61
101176.66
101155.76
101142.42
101181.98
101191.35
101188.64
101152.05
101155.09
101182.49
101208.12
101208.85
101231.02
101247.81
101249.67
101264.8
101263.49
101294.24
101270.56
101256.08
101258.25
101234.38
101213
101230.64
101230.37
101247.06
101258.88
101269.03
101258.69
101261.37
101270.54
101275.87
101277.2
101287.1
101284.15
101271.88
101263.47
101261.98
101252.06
101253.1
101262.81
101272.02
101273.59
101278.57
101284.16
101290.67
101295.76
101301.5
101291.22
101287.29
101286.81
101281.54
101282.7
101292.46
101283.55
101277.9
101277.6
101265.49
101258.36
101267.01
101274.54
101282.36
101287.61
101289.28
101280.82
101276.67
101279.48
101286.06
101286.53
101292.78
101296.32
101302.53
101298.45
101290.44
101289.41
101289.08
101294.22
101294.25
101291.14
101285.03
101287.17
101282.57
101281.3
101280.04
101287.83
101290.8
101285.95
101288.91
101283.49
101293.22
101288.24
101267.58
101266.54
101260.22
101262.4
101262.41
101276.31
101291.42
101280.36
101297.14
101243.07
101245.64
101233.22
101236.64
101257.32
101229.26
101191.19
101219.16
101233.94
101249.59
101253.95
101238.79
101239.48
101255.03
101242.37
101241.58
101225.29
101211.6
101184.2
101184.35
101175.07
101177.18
101199.52
101198.6
101173.29
101208.21
101206.71
101226.25
101215.11
101211.27
101180.78
101186.31
101137.94
101176.3
101141.99
101173.5
101150.51
101147.21
101099.44
101157.95
101144.83
101173.96
101190.47
101208.43
101187.55
101205.75
101186.24
101206.07
101211.18
101220.51
101208.42
101224.89
101215.58
101196.28
101188.53
101210.03
101193.84
101213.91
101232.1
101236.38
101219.61
101228.72
101222.03
101210.84
101229.86
101224.16
101222.92
101232.03
101213.73
101200.14
101202.71
101180.55
101191.24
101200.93
101212.75
101191.15
101175.48
101162.72
101181.49
101205.53
101222.94
101204.89
101227.56
101217.07
101236.33
101245.72
101258.61
101243.52
101227.42
101226.11
101242.54
101257.68
101244.37
101235.96
101210.73
101210.27
101183.82
101183.05
101215.61
101201.97
101229.36
101240.29
101255.81
101238.01
101217.36
101217.7
101238.52
101249.14
101236
101237.2
101241.77
101244.47
101257.02
101251.52
101236.84
101233.19
101248.51
101254.64
101252.1
101245.14
101256.85
101273.5
101270.38
101269.28
101270.09
101277.51
101288.36
101288.25
101288.84
101275.68
101262.81
101269.79
101251.44
101252.38
101250.97
101259.7
101266.91
101249.71
101235.14
101237.42
101241.77
101246.32
101229.88
101237.92
101240.28
101247.51
101254.37
101260.5
101266.31
101268.03
101279.78
101294.86
101300.79
101305.38
101309.47
101311.82
101313.37
101314.38
101313.48
101312.14
101312.42
101309.97
101305.05
101308.99
101306.63
101300.53
101295.81
101302.58
101307.55
101299.62
101300.93
101300.18
101293.02
101291.76
101293.4
101298.9
101295.43
101299.78
101300.56
101307.29
101305.12
101304.92
101298.87
101296.6
101306.06
101307.51
101311.57
101308.74
101309.64
101309.64
101312.09
101312.69
101309.92
101305.76
101308.95
101312.29
101309.09
101308.63
101306.56
101309.9
101311.76
101314.14
101314.33
101310.78
101312.54
101311.66
101314.57
101312.71
101312.06
101311.37
101312.18
101312.1
101314.7
101312.06
101308.83
101305.14
101303.13
101303.56
101304.63
101295.13
101303.44
101302.29
101306.87
101309.22
101308.34
101303.56
101296.29
101301.36
101300.12
101294.58
101292.81
101293.76
101300.82
101296.63
101301.05
101300.24
101300.33
101305.6
101306.01
101305.78
101307.88
101301.45
101296.71
101295.13
101288.3
101281.01
101289.75
101289.99
101280.41
101279.18
101279.38
101288.77
101282.68
101285.06
101285.68
101284.2
101292.57
101295.24
101289.61
101294.82
101285.37
101278.94
101292.28
101280.07
101273.51
101280.7
101276.88
101272.97
101267.09
101268.52
101281.25
101271.84
101276.1
101280.09
101285.4
101286.57
101290.42
101277.62
101269
101282.69
101292.02
101294.71
101287.72
101280.7
101289.42
101288
101278.61
101278.2
101279.02
101288.39
101281.51
101283.66
101284.25
101283.54
101291.97
101293.86
101288.08
101293.46
101283.91
101280.12
101292.21
101296.57
101300.12
101291.06
101287.82
101283.81
101287.55
101294.66
101288.84
101295.58
101297.68
101286.56
101290.71
101287.97
101295.89
101294.5
101305.33
101294.8
101300.2
101300.42
101296.03
101299.36
101295.99
101291.08
101291.65
101285.34
101286.04
101278.19
101280.45
101273.21
101272.05
101275.72
101270.8
101280.75
101276.73
101289.7
101281.02
101283.83
101278.66
101274.75
101269.14
101268.37
101270.85
101273.33
101261.16
101270.96
101264.82
101259.37
101250.88
101254.67
101270.56
101258.12
101265.02
101270.46
101277.91
101282.54
101287.83
101289.54
101292.74
101292.69
101289.04
101296.73
101301.05
101297.58
101301.37
101293.08
101286.51
101294.98
101305.64
101303.86
101296.27
101301.65
101306.66
101300.84
101301.15
101301.59
101307.48
101305.23
101304.41
101301.54
101296.08
101293.78
101295.19
101294.46
101299.71
101289.14
101280.93
101290.94
101301.4
101294.09
101300.97
101308.15
101305.3
101299.81
101299.64
101298.93
101300.4
101296.9
101305.28
101304.44
101307.17
101308.56
101312.15
101312.68
101309.97
101310.37
101306.5
101310.2
101309.36
101310.64
101307.7
101309.65
101309.87
101312.68
101312.52
101308.85
101307.05
101310.7
101308.46
101305.81
101302.87
101307.75
101310.79
101311.04
101311.87
101308.79
101308.18
101308.01
101304.54
101310.1
101314.15
101310.88
101314.04
101314.88
101309.26
101313.59
101312.97
101313.34
101315.01
101315.8
101312.11
101317.49
101317.17
101313.85
101307.55
101311.32
101313.15
101309.5
101310.78
101305.5
101308.75
101309.67
101306.34
101310.45
101313.96
101309.92
101313.08
101307.54
101305.14
101301.71
101300.91
101306.63
101303.81
101305.23
101299
101299.56
101298.01
101293.55
101293.18
101299
101287.9
101286.17
101287.83
101285.25
101288.84
101285.12
101288.94
101289.91
101278.13
101283.52
101284.76
101276.49
101274.42
101277.77
101274.31
101270.82
101272.42
101270.33
101280.18
101270.29
101266.69
101262.8
101265.62
101278.11
101266.72
101270.72
101273.92
101277.4
101280.31
101274.69
101271.54
101267.49
101262.99
101267.26
101259.49
101265.39
101270.09
101277.15
101280.61
101277.75
101282.62
101279.55
101285.55
101274.67
101272.01
101285.78
101276.93
101270.77
101274.16
101267.07
101271.28
101265.32
101273
101268.46
101259.95
101253.13
101262.46
101257.89
101252.71
101257.71
101246.47
101254.22
101262.95
101258.34
101267.15
101269.31
101285.72
101292.8
101297.64
101305.12
101293.12
101294.84
101302.95
101302.5
101301.74
101301.54
101301.38
101291.98
101291.54
101283.71
101285.86
101279.99
101277.23
101283.41
101292.28
101293.76
101279.13
101282.48
101282.84
101286.82
101297.41
101294.78
101294.21
101292.99
101287.11
101283.48
101290.68
101291.76
101291.01
101292.85
101298.23
101299.74
101307.53
101300.93
101302.97
101303.9
101303.89
101300.8
101293.01
101290.22
101279.95
101279.7
101283.9
101267.92
101270.79
101254.91
101261
101258.66
101263.82
101257.4
101250.44
101241.36
101249.14
101258
101250.32
101241.75
101229.74
101239.99
101249.67
101258.73
101262.61
101267.99
101283.91
101280.01
101274.41
101270.31
101273.35
101269.36
101273.21
101276.42
101283.14
101290.81
101290.64
101297.07
101284.09
101281.36
101279.67
101279.92
101284.46
101297.21
101290.55
101292.35
101284.74
101282.64
101291.91
101299.68
101298.94
101305.17
101301.11
101308.74
101300.76
101297.16
101300.24
101308.52
101305.84
101298.47
101297.45
101296.95
101297.25
101296.75
101298.35
101295.08
101301.16
101303.03
101302.9
101304.6
101297.08
101297.78
101296.53
101302.68
101302.36
101303.66
101303.75
101296.66
101289.22
101280.74
101283.41
101280.45
101272.51
101264.08
101257.83
101251.82
101241.84
101249.68
101240.31
101251.02
101244.44
101231.63
101219.44
101231.34
101241.55
101230.75
101217.59
101208.07
101189.45
101165.92
101194.59
101177.44
101140.71
101147.37
101165.41
101132.34
101163.78
101174.18
101192.53
101204.55
101220.28
101208.32
101230.59
101221.92
101196.43
101209.68
101192.81
101223.14
101244.82
101286.85
101272.67
101255.73
101273.55
101239.65
101241.88
101241.96
101242.09
101247.77
101277.5
101290.65
101233.49
101240.73
101243.31
101245.88
101274.93
101249.55
101280.48
101241.85
101254.57
101240.58
101203.35
101208.03
101214.91
101219.7
101188.56
101183.1
101171.51
101173.83
101210.32
101200.25
101211.29
101175.35
101170.03
101187.15
101219.3
101208.29
101204.22
101151.46
101150.44
101151.76
101154.88
101212.77
101195.18
101182.15
101184.56
101196.41
101229.22
101230.96
101230.13
101228.97
101288.52
101226.08
101278.26
101219.01
101219.65
101212.78
101218.46
101192.84
101252.3
101388.58
101277.51
101334.15
101231.97
101242
101276.64
101253.09
101336.84
101266.1
101331.22
101333.49
101286.58
101309.97
101236.19
101230.67
101232.38
101238.11
101282.39
101230.58
101284.71
101247.94
101233.48
101251.16
101275.32
101275.69
101385.89
101387.53
101275.86
101334.6
101225.8
101237.4
101250.94
101252.77
101263.55
101269.91
101256.07
101240.63
101229.26
101198.39
101197.07
101155.59
101156.76
101201.86
101239.55
101244.09
101293.32
101270.75
101269.85
101261.11
101268.24
101274.65
101279.01
101283.95
101286.19
101286.24
101300.02
101290.64
101283.46
101273.91
101274.17
101267.8
101279.58
101279.67
101284.05
101282.38
101284.67
101296.32
101295.88
101301.33
101300.01
101302.61
101300.07
101298.65
101288.86
101274.73
101275.89
101289.31
101288.85
101278.35
101280.75
101289.14
101295.97
101286.22
101288.4
101298.61
101302.17
101300.84
101303.4
101309.57
101301.9
101292.96
101292.16
101292.93
101290.31
101278.84
101282.57
101283.88
101287.63
101291.38
101298.44
101302.66
101300.13
101304.69
101309.82
101305.66
101309.37
101315.68
101310.5
101310.12
101304.06
101302.57
101301.5
101306.96
101314.59
101307.02
101315.71
101309.51
101318.6
101297.79
101298.06
101300.52
101305.25
101306.76
101305.32
101296.92
101299.34
101295.27
101309.89
101324.02
101292.39
101292.19
101294.8
101309.1
101317.17
101305.32
101318.66
101318.11
101313.63
101312.72
101318.71
101311.76
101306.95
101307.33
101305.62
101298.38
101296.89
101298.38
101294.47
101286.88
101291.59
101288.38
101293.27
101295.76
101295.84
101293.72
101300.63
101293.43
101299.6
101294.03
101300.4
101297.37
101289.07
101283.55
101284.24
101287.17
101283.09
101291.85
101285.08
101281.74
101278.49
101268.17
101267.6
101259.38
101259.85
101270.04
101260.1
101247.93
101247.29
101259.34
101269.49
101278.2
101293.12
101293.55
101277.82
101277.87
101273.41
101273.69
101278.18
101290.89
101273.89
101278.53
101291.79
101277.72
101272.42
101259.97
101259.34
101269.23
101273.85
101274.54
101268.87
101260.82
101260.04
101248.78
101249.56
101238.82
101237.07
101234.53
101234.65
101250.19
101251.06
101243.87
101255.7
101254.9
101271.2
101271.2
101270.06
101259.7
101259.75
101254.99
101250.24
101250.02
101260.37
101267.53
101248.63
101249.12
101267.35
101260.27
101260.26
101270.84
101269.15
101260.63
101256.32
101257.87
101273.94
101272.16
101261.83
101252.54
101251.13