/*--------------------------------*- C++ -*----------------------------------*\
  =========                 |
  \\      /  F ield         | OpenFOAM: The Open Source CFD Toolbox
   \\    /   O peration     | Website:  https://openfoam.org
    \\  /    A nd           | Version:  7
     \\/     M anipulation  |
\*---------------------------------------------------------------------------*/
FoamFile
{
    version     2.0;
    format      ascii;
    class       volVectorField;
    location    "410";
    object      U;
}
// * * * * * * * * * * * * * * * * * * * * * * * * * * * * * * * * * * * * * //

dimensions      [0 1 -1 0 0 0 0];

internalField   nonuniform List<vector> 
25278
(
(120.02683 0.0072914562 0.0071211789)
(120.01552 -0.003844472 -0.019123168)
(120.01507 -0.003024442 -0.0073079137)
(120.01572 -0.0067952806 -0.0056083036)
(119.98739 -0.020588873 -0.0098268931)
(120.0176 -0.021226991 -0.0078749027)
(120.03233 0.0048795637 0.00055704101)
(120.02749 0.0075684143 0.0058982526)
(120.03014 0.0021934756 0.0057247291)
(120.03592 0.0016350085 -0.0019544596)
(120.03322 0.00011215275 -0.0011858502)
(120.02871 0.0032858661 0.0014796725)
(120.02139 -0.0072679997 -0.0097267162)
(120.00731 -0.013403313 -0.0163344)
(119.88646 -0.033952184 -0.061009683)
(120.01554 0.0021775644 -0.0092895895)
(120.01552 0.0014850939 -0.02001774)
(119.91916 -0.048207615 -0.083538792)
(119.86006 -0.019053702 -0.12382273)
(119.95069 -0.026881417 -0.11106181)
(119.99471 -0.010716899 -0.0602264)
(119.99984 -0.019974073 -0.045200804)
(120.00482 -0.020926225 -0.030835801)
(120.02598 -0.014100239 -0.020630013)
(120.03742 -0.028807768 -0.034122096)
(120.02699 -0.018879684 -0.018546976)
(120.00556 -0.02875199 -0.026181737)
(119.9993 -0.044362438 -0.050541362)
(119.97666 -0.039812029 -0.070656489)
(120.00527 -0.040919557 -0.071736313)
(120.0051 -0.040877068 -0.091058829)
(119.96572 -0.039872233 -0.095240738)
(119.94417 -0.080034025 -0.14511249)
(119.96291 -0.073645993 -0.10167921)
(120.00777 -0.069627004 -0.10380613)
(119.99375 -0.063728765 -0.12058799)
(120.01631 -0.061641911 -0.11815523)
(120.01458 -0.060795264 -0.1394005)
(119.98565 -0.061675401 -0.14402212)
(119.97176 -0.090709256 -0.17908478)
(119.9825 -0.091107905 -0.14515039)
(120.01548 -0.086834187 -0.14372893)
(120.01171 -0.086741573 -0.17206505)
(120.05314 -0.079237022 -0.15412088)
(120.04367 -0.054238656 -0.12446624)
(120.04157 -0.032099812 -0.073326599)
(120.02962 -0.012013065 -0.031396997)
(120.03431 -0.0093970277 -0.043498852)
(120.04438 -0.025343616 -0.091301488)
(119.99714 -0.030527881 -0.11167633)
(119.99006 -0.012064773 -0.12650747)
(119.93811 -0.0097093278 -0.12127375)
(119.87299 -0.018957333 -0.20791145)
(119.90939 -0.058746683 -0.19293936)
(119.97519 -0.05451754 -0.16111804)
(120.00752 -0.054963632 -0.15983946)
(120.00003 -0.044013843 -0.18283566)
(119.96217 -0.040891082 -0.1835455)
(119.93192 -0.06588529 -0.2400491)
(119.95343 -0.0835469 -0.207272)
(119.99751 -0.082568712 -0.20652532)
(119.98436 -0.068340936 -0.23865875)
(119.96413 -0.045859312 -0.26393331)
(119.99072 -0.02876972 -0.1975237)
(119.95068 -0.026006612 -0.19192732)
(119.94346 -0.0084461786 -0.20147514)
(119.98582 -0.0096492835 -0.20781086)
(119.95541 -0.015671033 -0.27786511)
(119.89553 -0.015240935 -0.26671061)
(119.90817 -0.042166888 -0.25326434)
(119.82373 -0.061467355 -0.32311808)
(119.86949 -0.093890651 -0.30567075)
(119.90827 -0.11700257 -0.25609488)
(119.93873 -0.12629957 -0.21687053)
(119.96142 -0.11842655 -0.16822994)
(119.99577 -0.11803765 -0.12938205)
(120.00851 -0.097332267 -0.081468002)
(120.00641 -0.068690045 -0.051552214)
(120.00139 -0.045822158 -0.028316453)
(119.96967 -0.04289903 -0.029273778)
(119.94951 -0.031775163 -0.023737555)
(119.88854 -0.058469273 -0.043904055)
(119.92093 -0.080369609 -0.059047231)
(119.86608 -0.13172886 -0.03567811)
(119.95731 -0.058360941 -0.020242677)
(119.93254 -0.041241392 -0.015738799)
(119.82836 -0.09507198 -0.02451445)
(119.61278 -0.1316453 -0.066467226)
(119.72252 -0.086085529 -0.084958365)
(119.81816 -0.063042043 -0.070310629)
(119.83333 -0.080955975 -0.088805777)
(119.73433 -0.094807783 -0.10787542)
(119.71837 -0.073624688 -0.089592445)
(119.54322 -0.12420212 -0.13252143)
(119.56768 -0.14134256 -0.15178365)
(119.73879 -0.10299645 -0.10698545)
(119.768 -0.12293148 -0.12052375)
(119.85514 -0.088908925 -0.097429429)
(119.88263 -0.10996291 -0.11939843)
(119.79669 -0.13594665 -0.16575512)
(119.76376 -0.10769787 -0.1288929)
(119.59188 -0.17613597 -0.18793966)
(119.63244 -0.22009085 -0.23115907)
(119.80084 -0.15849228 -0.14888063)
(119.70618 -0.24361576 -0.12068577)
(119.66848 -0.18697369 -0.094442604)
(119.63351 -0.15530331 -0.083492371)
(119.27545 -0.2850862 -0.12396504)
(119.23996 -0.24289054 -0.11243313)
(118.89459 -0.25627594 -0.055888063)
(119.50539 -0.11952737 -0.026769844)
(119.52242 -0.13129539 -0.034516644)
(118.91956 -0.28961854 -0.066608215)
(118.92221 -0.37049342 -0.093466411)
(119.30946 -0.35834498 -0.14517129)
(119.37204 -0.43879249 -0.19603007)
(118.93641 -0.48459418 -0.14932296)
(119.58901 -0.22988485 -0.058713084)
(119.55903 -0.15471046 -0.04114484)
(119.54734 -0.1797765 0.0076510269)
(119.86311 -0.15435384 0.013770867)
(119.95814 -0.066943759 0.0027393882)
(119.9885 -0.025622319 0.0016584879)
(119.68834 -0.11332984 0.11929052)
(119.49853 -0.18074213 0.16372558)
(119.18979 -0.31582564 0.12738517)
(118.86763 -0.29848439 0.02253319)
(119.49413 -0.13843169 0.0012852825)
(119.82278 -0.11543643 0.0056523527)
(119.93181 -0.049915468 -0.00041267245)
(119.94906 -0.046681855 0.0191076)
(119.97137 -0.057580539 0.024424926)
(119.91849 -0.10991852 0.062779624)
(119.88213 -0.086906301 0.048501744)
(119.69826 -0.12920838 0.099624216)
(119.58945 -0.17675506 0.066076004)
(119.61008 -0.20554898 0.084128947)
(119.51096 -0.15316978 0.0038930024)
(118.88966 -0.34139133 0.028474643)
(119.22374 -0.36511892 0.14196945)
(119.25623 -0.44555232 0.17194536)
(118.88808 -0.43180138 0.0488403)
(118.89795 -0.56008614 0.09757862)
(119.57715 -0.26254832 0.019664093)
(119.68342 -0.30324989 0.12417141)
(119.64626 -0.24012782 0.095791763)
(119.74716 -0.17229444 0.13726346)
(119.71507 -0.14999795 0.12304944)
(119.52206 -0.2032715 0.18412717)
(119.70472 -0.1374767 0.13984462)
(119.87725 -0.056322154 0.081677603)
(119.80132 -0.098073887 0.089387221)
(119.81811 -0.11810844 0.10993311)
(119.84252 -0.12594607 0.11871894)
(119.91533 -0.070054709 0.10446773)
(119.87245 -0.14890836 0.14239924)
(119.78205 -0.21277555 0.16818889)
(119.58694 -0.29078887 0.27116064)
(119.31486 -0.53540717 0.2317522)
(118.44674 -0.61395903 0.58138936)
(116.20304 -0.50878549 0.6647129)
(116.30261 -0.43069168 -0.79514485)
(118.58787 -0.47343306 -0.49675808)
(119.34716 -0.19017206 -0.44788267)
(119.691 -0.10655921 -0.24585796)
(119.65459 -0.079570598 -0.18648522)
(119.53456 -0.01312328 -0.13847666)
(119.56022 -0.028436908 -0.21595703)
(118.85129 -0.10290637 -0.46488553)
(118.84838 -0.050172097 -0.34174434)
(119.28749 -0.1380401 -0.36123624)
(118.42578 -0.38795282 -0.40687483)
(116.17191 -0.45605359 -0.23987645)
(116.0293 -0.65701738 -0.41137171)
(103.54063 -1.6026453 -1.4845984)
(105.24199 -1.175378 -1.0706414)
(116.38646 -0.28209997 -0.58668746)
(116.29644 -0.35999483 0.4710605)
(105.4895 -1.4544772 1.2393977)
(103.7761 -1.972631 1.6499783)
(115.70982 -0.90691077 0.3918512)
(115.90369 -0.69618812 0.26383598)
(118.29909 -0.51687668 0.47579574)
(119.20354 -0.18579894 0.42465747)
(119.54574 -0.24358544 0.22322868)
(119.73667 -0.15038215 0.16255078)
(119.77088 -0.18033317 0.20289234)
(119.64731 -0.13869682 0.29761925)
(119.26061 -0.23968756 0.512297)
(118.70733 -0.16316 0.53767129)
(118.72601 -0.10539185 0.41893074)
(119.47855 -0.041595355 0.17890688)
(119.84658 -0.033359863 0.15601019)
(119.61157 -0.11222604 0.23406692)
(119.50009 -0.057351631 0.25977023)
(119.60531 -0.073553444 0.35376167)
(118.77842 -0.25219853 0.6973886)
(115.53377 -1.1470022 0.82045628)
(101.59095 -2.7434518 2.2195338)
(101.35742 -2.2048658 -2.1057164)
(115.93604 -0.92338206 -0.80236693)
(118.93579 -0.1852463 -0.62734168)
(119.66302 -0.045921679 -0.3008523)
(119.78207 -0.12317747 -0.28847703)
(119.8708 -0.14490597 -0.19180295)
(119.93325 -0.11268186 -0.12305039)
(119.96366 -0.095088159 -0.084578349)
(119.97773 -0.067415147 -0.05005684)
(119.96742 -0.094989293 -0.053033336)
(120.00692 -0.090985395 -0.054656165)
(119.99536 -0.11677837 -0.078356075)
(119.94649 -0.14115817 -0.094878993)
(119.98396 -0.13910597 -0.10614068)
(120.01662 -0.1377596 -0.10278906)
(120.01783 -0.11461526 -0.076865561)
(120.01655 -0.13797397 -0.077888431)
(119.98782 -0.14227247 -0.07813973)
(119.97425 -0.17467802 -0.10793209)
(120.01348 -0.16779707 -0.10497763)
(120.05455 -0.15035497 -0.09869512)
(120.05112 -0.12387139 -0.093788637)
(120.05295 -0.077099248 -0.066077939)
(120.03371 -0.054771228 -0.041141621)
(120.03205 -0.032063438 -0.01905676)
(120.04922 -0.031511833 -0.024500666)
(120.07937 -0.041932503 -0.039994936)
(120.08087 -0.063168413 -0.047052347)
(120.06718 -0.045279047 -0.029243272)
(120.04414 -0.07379811 -0.045454915)
(120.04188 -0.10245687 -0.069222507)
(120.06547 -0.084026468 -0.059071274)
(120.08517 -0.10263119 -0.080515958)
(120.09554 -0.12573327 -0.08646245)
(120.07429 -0.10304961 -0.063171303)
(120.04568 -0.12365446 -0.071667232)
(120.04464 -0.14644085 -0.069780945)
(120.0481 -0.097308665 -0.040890769)
(120.03936 -0.050109696 -0.017576786)
(119.99773 -0.067345863 -0.020830713)
(119.95358 -0.11537712 -0.041784488)
(120.00031 -0.11705645 -0.046368964)
(119.97853 -0.16243745 -0.072468593)
(119.91442 -0.1949723 -0.076583229)
(119.95763 -0.20612157 -0.10265811)
(120.00065 -0.20577587 -0.10310361)
(120.01044 -0.1617123 -0.073779265)
(120.00393 -0.18945823 -0.064437404)
(119.96663 -0.18956505 -0.060520739)
(119.9383 -0.24320245 -0.087510302)
(119.989 -0.24223568 -0.091267775)
(119.97064 -0.27552627 -0.070426285)
(119.99597 -0.21009231 -0.049821974)
(119.99487 -0.14078891 -0.028337563)
(119.94197 -0.13472141 -0.025628375)
(119.88095 -0.22322895 -0.041469179)
(119.95645 -0.20357789 -0.046412575)
(119.91648 -0.26421793 -0.065464797)
(119.90468 -0.28861345 -0.039139197)
(119.94984 -0.22208577 -0.028060279)
(119.99205 -0.22922559 -0.029811682)
(119.96291 -0.29998218 -0.040726303)
(120.02783 -0.29029269 -0.04171789)
(120.03388 -0.26394777 -0.072557489)
(120.04396 -0.227269 -0.091352453)
(120.05107 -0.18926176 -0.10035521)
(120.10156 -0.16069862 -0.089840566)
(120.07838 -0.12359093 -0.062108291)
(120.08222 -0.14987735 -0.057687336)
(120.04248 -0.17385669 -0.062097673)
(120.03894 -0.19550358 -0.049178765)
(120.05138 -0.12116783 -0.026689889)
(120.09082 -0.078514396 -0.021141397)
(120.07922 -0.060185482 -0.026847231)
(120.10286 -0.091677914 -0.050054271)
(120.09449 -0.075911375 -0.050362745)
(120.10488 -0.040853913 -0.033998484)
(120.08822 -0.033138941 -0.029584001)
(120.11953 -0.037741136 -0.03839145)
(120.10844 -0.074372255 -0.062132779)
(120.12617 -0.089367517 -0.066110369)
(120.14208 -0.048034982 -0.043190184)
(120.16382 -0.063602481 -0.047761888)
(120.11648 -0.050226111 -0.033967523)
(120.13025 -0.064504171 -0.035721064)
(120.1122 -0.11310014 -0.048743601)
(120.15272 -0.14640523 -0.071198998)
(120.14134 -0.11610426 -0.071767242)
(120.15239 -0.1464993 -0.097815279)
(120.14571 -0.12827097 -0.094449618)
(120.13421 -0.1124999 -0.089998364)
(120.13281 -0.085658252 -0.078457536)
(120.11681 -0.046252104 -0.058292473)
(120.07799 -0.028734679 -0.047548951)
(120.0473 -0.015364711 -0.033913607)
(120.03231 -0.031166047 -0.057512695)
(120.05214 -0.054365577 -0.083232662)
(120.04033 -0.053960859 -0.10567057)
(120.06354 -0.043550529 -0.086731678)
(120.07189 -0.045274169 -0.1030677)
(120.09406 -0.065869285 -0.12864815)
(120.08401 -0.063305959 -0.10787534)
(120.05014 -0.077342613 -0.12961309)
(120.05357 -0.10620505 -0.15757565)
(120.0702 -0.09642243 -0.10847795)
(120.09953 -0.087052002 -0.12997931)
(120.09162 -0.094472 -0.15884309)
(120.06839 -0.10330559 -0.17356546)
(120.04322 -0.10899947 -0.18379079)
(119.99393 -0.12899496 -0.21745125)
(120.00558 -0.11870751 -0.16988646)
(119.99098 -0.16958486 -0.21185571)
(119.93001 -0.17113709 -0.20437147)
(119.89537 -0.18472849 -0.26978387)
(119.97052 -0.18560129 -0.27239353)
(119.91325 -0.26952941 -0.33394225)
(119.95942 -0.22762989 -0.24233949)
(119.99191 -0.19989071 -0.18509125)
(120.00671 -0.16111819 -0.1346733)
(119.96302 -0.15977577 -0.13333406)
(119.87411 -0.18358313 -0.15917613)
(119.93137 -0.19316595 -0.18505246)
(119.89973 -0.25946024 -0.20069455)
(119.94216 -0.20975985 -0.14363454)
(119.99626 -0.20999499 -0.14752686)
(119.97331 -0.26135878 -0.20348238)
(119.91616 -0.31966994 -0.28657018)
(119.82637 -0.3067099 -0.26254304)
(119.88781 -0.21656696 -0.22976647)
(119.72169 -0.26664472 -0.27841931)
(119.8221 -0.24718935 -0.31916726)
(119.72596 -0.36053222 -0.37477025)
(119.84802 -0.38166233 -0.39839865)
(119.97921 -0.32661338 -0.34533143)
(119.99752 -0.2802238 -0.32271897)
(120.01572 -0.22926729 -0.2846464)
(120.02849 -0.19294927 -0.25943816)
(120.03778 -0.15565311 -0.2311303)
(120.04141 -0.13172016 -0.20921809)
(120.07279 -0.12428748 -0.19773847)
(120.0727 -0.12740471 -0.22333198)
(120.06938 -0.10461017 -0.19506667)
(120.03885 -0.11005468 -0.20662126)
(120.03722 -0.13539934 -0.23786853)
(120.02993 -0.16599774 -0.26593076)
(120.07091 -0.15989751 -0.25264031)
(120.07364 -0.14949547 -0.21923981)
(120.05571 -0.15533206 -0.19821624)
(120.12266 -0.13008965 -0.16812693)
(120.10742 -0.13738191 -0.20194346)
(120.10106 -0.11400243 -0.18039179)
(120.12915 -0.099223744 -0.15885074)
(120.11466 -0.081436149 -0.13878471)
(120.12273 -0.083720257 -0.15689302)
(120.09599 -0.095508362 -0.17876954)
(120.10435 -0.1163925 -0.20370417)
(120.13631 -0.10296961 -0.18026674)
(120.14902 -0.13008362 -0.20568245)
(120.14122 -0.11999185 -0.17747373)
(120.15612 -0.14884353 -0.20243235)
(120.11458 -0.16970527 -0.22903706)
(120.07336 -0.18369574 -0.24825134)
(120.06891 -0.19419823 -0.28670168)
(120.01879 -0.20427451 -0.30244931)
(119.99903 -0.24862385 -0.33547577)
(120.0578 -0.2418503 -0.32297277)
(120.06672 -0.22234338 -0.27445941)
(120.04694 -0.21798431 -0.23464538)
(120.05615 -0.18543141 -0.1723922)
(120.05425 -0.14865351 -0.12307735)
(120.10015 -0.12131194 -0.10519514)
(120.12282 -0.15452469 -0.14931913)
(120.10792 -0.19107028 -0.15957431)
(120.10173 -0.17181294 -0.13559165)
(120.09263 -0.15252107 -0.11536226)
(120.0696 -0.16695019 -0.12346674)
(120.04469 -0.17691345 -0.12814493)
(120.0428 -0.20036073 -0.15097545)
(120.07379 -0.18898223 -0.14482998)
(120.07401 -0.21558554 -0.14954003)
(120.07079 -0.18964501 -0.12627753)
(120.04073 -0.20083444 -0.13063767)
(120.03922 -0.22987896 -0.1561733)
(120.03217 -0.25607344 -0.18683065)
(120.03923 -0.22046458 -0.17492561)
(120.07463 -0.20846716 -0.17031833)
(120.07426 -0.23495903 -0.20468282)
(120.02994 -0.24659325 -0.21206533)
(120.02134 -0.29021087 -0.22490561)
(120.07038 -0.27424727 -0.21690798)
(120.07228 -0.24276585 -0.18240598)
(120.11118 -0.22310945 -0.17115256)
(120.10516 -0.1963855 -0.13998218)
(120.09709 -0.17385357 -0.11816597)
(120.1237 -0.15263065 -0.10753486)
(120.11568 -0.13293317 -0.10331852)
(120.12965 -0.15058828 -0.12212473)
(120.13678 -0.17346304 -0.12803439)
(120.14907 -0.1963905 -0.15651174)
(120.14145 -0.1667343 -0.14384678)
(120.15605 -0.18845078 -0.17365888)
(120.1149 -0.21535132 -0.19237855)
(120.11565 -0.25222193 -0.20445419)
(120.16236 -0.22249408 -0.18727473)
(120.20429 -0.18464534 -0.16228677)
(120.19107 -0.15705214 -0.14931421)
(120.173 -0.10587558 -0.10875434)
(120.19943 -0.044712312 -0.061154529)
(120.14941 -0.038482074 -0.046678272)
(120.15974 -0.061134243 -0.059373482)
(120.15032 -0.085400532 -0.073441456)
(120.17292 -0.09607321 -0.087141058)
(120.15297 -0.12571397 -0.10563775)
(120.16427 -0.14355947 -0.11134507)
(120.18733 -0.11208432 -0.094333525)
(120.16454 -0.099283053 -0.079239056)
(120.17657 -0.070353516 -0.063165786)
(120.18263 -0.037123624 -0.043755323)
(120.16408 -0.030858098 -0.038816764)
(120.19099 -0.032550623 -0.04539054)
(120.18518 -0.065644108 -0.068572443)
(120.2027 -0.074637745 -0.072378357)
(120.21077 -0.039000892 -0.050980305)
(120.24186 -0.038637628 -0.058314173)
(120.21646 -0.031471452 -0.050322658)
(120.20914 -0.070379655 -0.078509251)
(120.194 -0.10470281 -0.10140794)
(120.16944 -0.1394358 -0.12368999)
(120.18337 -0.16328335 -0.1356358)
(120.21179 -0.12503667 -0.11391491)
(120.23979 -0.14041014 -0.13573943)
(120.22154 -0.11752615 -0.12165544)
(120.24129 -0.078643136 -0.092621654)
(120.25075 -0.032199745 -0.057378101)
(120.27789 -0.038864161 -0.066964101)
(120.26468 -0.090898246 -0.10102106)
(120.23153 -0.08266793 -0.086091661)
(120.25112 -0.099854517 -0.095542029)
(120.2187 -0.089513533 -0.079493787)
(120.18836 -0.081394402 -0.066510575)
(120.17408 -0.11433525 -0.082500856)
(120.19968 -0.13278057 -0.10075137)
(120.17289 -0.16868354 -0.118805)
(120.14091 -0.20242501 -0.13399543)
(120.12764 -0.17364641 -0.10991255)
(120.09755 -0.19665366 -0.11985572)
(120.06788 -0.2137544 -0.12663137)
(120.03533 -0.22340326 -0.13007586)
(119.97154 -0.263309 -0.14507025)
(119.91492 -0.25149803 -0.13624023)
(119.79537 -0.284664 -0.14028695)
(119.8543 -0.31534413 -0.2013356)
(119.92848 -0.33884249 -0.21198011)
(119.88276 -0.4237873 -0.19844086)
(119.94618 -0.32011349 -0.13119897)
(119.8805 -0.3049474 -0.11621204)
(119.7929 -0.39496387 -0.1781239)
(119.63983 -0.5058901 -0.2434724)
(119.74746 -0.38482579 -0.27160303)
(119.49611 -0.50003275 -0.27712925)
(119.59659 -0.45200643 -0.41606341)
(119.72006 -0.52577809 -0.45858564)
(119.83392 -0.42878859 -0.31067756)
(119.74524 -0.55901497 -0.30881122)
(119.57676 -0.71036404 -0.49346967)
(119.4068 -0.62261862 -0.41531996)
(119.07901 -0.6796408 -0.43945004)
(119.48402 -0.56016178 -0.20767456)
(119.71822 -0.42784449 -0.13856736)
(119.83868 -0.33081946 -0.086171901)
(119.68805 -0.31304871 -0.076330071)
(119.8162 -0.36737217 -0.05128229)
(119.89189 -0.40853298 -0.05647941)
(119.90936 -0.36908934 -0.10016635)
(119.81341 -0.49916231 -0.15774497)
(119.77852 -0.56272278 -0.085281356)
(119.67266 -0.48978907 -0.080710719)
(119.37624 -0.68399674 -0.13071381)
(119.0312 -0.63497867 -0.23612148)
(118.71133 -0.93505843 -0.35915953)
(118.95238 -1.1767997 -0.35380598)
(119.2616 -0.92916243 -0.50989317)
(119.59325 -0.68567026 -0.2669859)
(119.50215 -0.80688784 -0.15193865)
(119.73951 -0.74768905 -0.16451955)
(119.77711 -0.69601342 -0.22313099)
(119.8222 -0.6237883 -0.2573542)
(119.87497 -0.56376883 -0.28008983)
(119.91573 -0.49100223 -0.28821511)
(119.9498 -0.43217231 -0.28969212)
(119.9773 -0.36957893 -0.27756408)
(120.00194 -0.32120404 -0.2692463)
(120.01717 -0.26997669 -0.24823484)
(120.06764 -0.25889507 -0.24337038)
(120.06093 -0.29491393 -0.2904635)
(119.99862 -0.30588588 -0.2990771)
(119.98082 -0.36406183 -0.32332276)
(120.0509 -0.34734007 -0.31418723)
(120.05956 -0.30789252 -0.26477931)
(120.11695 -0.28542256 -0.24973652)
(120.11676 -0.23880852 -0.22774664)
(120.13862 -0.1821248 -0.20118667)
(120.11645 -0.20480536 -0.25524303)
(120.16629 -0.18030298 -0.22618553)
(120.17397 -0.1999662 -0.26841404)
(120.16259 -0.15964179 -0.23503971)
(120.1151 -0.17936779 -0.26481096)
(120.11057 -0.1467068 -0.23279879)
(120.10843 -0.1514822 -0.26751049)
(120.10399 -0.12014022 -0.23291355)
(120.09612 -0.095632838 -0.19949381)
(120.0997 -0.06611258 -0.1588283)
(120.07539 -0.04223334 -0.11980419)
(120.04197 -0.05044994 -0.14375651)
(120.03887 -0.041168056 -0.16619799)
(120.07832 -0.036233689 -0.14051024)
(120.10115 -0.058552118 -0.1896018)
(120.04058 -0.066658514 -0.22213193)
(120.04883 -0.07820703 -0.18895838)
(120.0326 -0.1082559 -0.22758305)
(119.9665 -0.12414178 -0.26827712)
(119.93796 -0.10762317 -0.32109555)
(119.86803 -0.17595664 -0.43129126)
(119.9209 -0.19209229 -0.34873039)
(119.84433 -0.18406611 -0.3241107)
(119.77342 -0.15724537 -0.40162536)
(119.68858 -0.11419839 -0.42471124)
(119.78761 -0.13162588 -0.49933381)
(119.89667 -0.073866241 -0.36183558)
(119.87789 -0.027362316 -0.38693876)
(119.79993 -0.024015247 -0.34583725)
(119.63769 -0.047892446 -0.47033654)
(119.74835 -0.050605593 -0.54533405)
(119.42594 -0.10581325 -0.79843987)
(119.53492 -0.24247339 -0.69766139)
(119.71771 -0.28766839 -0.57449156)
(119.82215 -0.2918638 -0.44377549)
(119.73391 -0.25538605 -0.39746606)
(119.46944 -0.26454776 -0.51258616)
(119.60777 -0.22195945 -0.51930474)
(119.36016 -0.39243284 -0.64168452)
(119.58375 -0.40165617 -0.46854525)
(119.70823 -0.43846566 -0.5451952)
(119.53748 -0.46776562 -0.73073413)
(119.15137 -0.48036346 -0.95197468)
(118.96991 -0.41668232 -0.68690982)
(119.42777 -0.18418845 -0.56528488)
(119.30199 -0.087799799 -0.67047754)
(118.51001 -0.27328677 -0.9327583)
(118.75503 -0.26646639 -1.1804937)
(119.23289 -0.30233756 -1.1331856)
(119.5089 -0.20114283 -0.92861633)
(119.68417 -0.12922622 -0.74512447)
(119.80877 -0.092604993 -0.62176308)
(119.88497 -0.063876743 -0.50926746)
(119.93859 -0.04797796 -0.4325463)
(119.96966 -0.034866632 -0.35392992)
(120.02162 -0.015576171 -0.26600584)
(120.03113 -0.0092244787 -0.19271684)
(120.04539 -0.011268915 -0.10693203)
(120.08143 -0.0078589348 -0.064072144)
(120.07345 -0.012601985 -0.053689158)
(120.06331 -0.016731343 -0.044260786)
(120.07848 -0.031845163 -0.065501954)
(120.08509 -0.014930234 -0.035056296)
(120.10048 -0.016732237 -0.039569042)
(120.09134 -0.032632175 -0.075200904)
(120.12404 -0.044768065 -0.091253854)
(120.10679 -0.044803323 -0.079132096)
(120.11698 -0.021249133 -0.041949395)
(120.13843 -0.021863808 -0.049042045)
(120.15898 -0.022556695 -0.058375526)
(120.11089 -0.014703308 -0.044721081)
(120.09899 -0.030255208 -0.086921139)
(120.10711 -0.027462342 -0.10243791)
(120.12272 -0.015050247 -0.052695491)
(120.17644 -0.02278795 -0.071034966)
(120.14938 -0.043353794 -0.1360239)
(120.13874 -0.046813203 -0.11237995)
(120.15117 -0.071129326 -0.14738287)
(120.14458 -0.069787422 -0.13184115)
(120.13303 -0.067612162 -0.11798128)
(120.1319 -0.05970118 -0.094059765)
(120.14757 -0.027630755 -0.046295765)
(120.1575 -0.036085724 -0.065653541)
(120.14866 -0.050298137 -0.090316064)
(120.16287 -0.053589179 -0.10204371)
(120.18646 -0.066466648 -0.11739074)
(120.17196 -0.06222336 -0.10350033)
(120.1524 -0.081848639 -0.13364014)
(120.16382 -0.084823122 -0.14961445)
(120.18359 -0.10713875 -0.171983)
(120.16932 -0.09856548 -0.15005154)
(120.17281 -0.088065398 -0.11982874)
(120.19857 -0.039290005 -0.058668579)
(120.20821 -0.050985714 -0.080288082)
(120.18362 -0.043158688 -0.072632793)
(120.18853 -0.019678684 -0.039016881)
(120.16095 -0.015485255 -0.034855104)
(120.17892 -0.017560329 -0.038528694)
(120.17408 -0.037143709 -0.072416236)
(120.20105 -0.043546706 -0.079077546)
(120.20783 -0.021736458 -0.042776107)
(120.23977 -0.025387874 -0.04502657)
(120.21461 -0.022217809 -0.040866542)
(120.24962 -0.026466941 -0.045852501)
(120.24103 -0.062750918 -0.092620003)
(120.22166 -0.09305577 -0.13161964)
(120.19354 -0.074763612 -0.11490198)
(120.21174 -0.083462399 -0.13299195)
(120.24047 -0.10275074 -0.15216039)
(120.20504 -0.1319436 -0.19690114)
(120.19138 -0.12279329 -0.17121409)
(120.20851 -0.14880598 -0.19169237)
(120.20981 -0.12320402 -0.14435632)
(120.24934 -0.050361356 -0.072869364)
(120.26926 -0.072508608 -0.10273823)
(120.24512 -0.11201147 -0.14753907)
(120.27078 -0.12750643 -0.17432621)
(120.22667 -0.16550286 -0.22584783)
(120.25076 -0.20141327 -0.25901833)
(120.23289 -0.1820641 -0.22117211)
(120.1798 -0.22084139 -0.26119927)
(120.11947 -0.24880445 -0.29115181)
(120.06015 -0.26926571 -0.31316377)
(120.04906 -0.29072326 -0.36542346)
(119.97788 -0.30257053 -0.38091942)
(119.94963 -0.36119906 -0.41496491)
(120.02943 -0.35414105 -0.40536636)
(120.04831 -0.31766968 -0.33867221)
(120.03082 -0.38395971 -0.37819576)
(119.95185 -0.39588022 -0.38233659)
(119.91407 -0.43788184 -0.4602294)
(120.00901 -0.42549307 -0.45088283)
(120.10203 -0.40140707 -0.43073606)
(120.11151 -0.33176908 -0.38378337)
(120.11577 -0.27086836 -0.34161051)
(120.11626 -0.22395634 -0.30115105)
(120.10855 -0.2384941 -0.352643)
(120.11053 -0.19022618 -0.30750609)
(120.05492 -0.20259179 -0.33105587)
(120.06142 -0.16225439 -0.28887454)
(120.06654 -0.12938966 -0.25437037)
(120.06587 -0.10355855 -0.21735864)
(120.06134 -0.10144023 -0.24347887)
(120.02321 -0.10498125 -0.25534017)
(120.0161 -0.13507228 -0.29949873)
(120.02764 -0.135913 -0.266877)
(120.01583 -0.16665705 -0.29933162)
(119.99919 -0.16797703 -0.34038079)
(120.05075 -0.16476102 -0.32801443)
(120.06028 -0.12890047 -0.28430001)
(120.10078 -0.12023045 -0.26210644)
(120.09517 -0.094042509 -0.22460314)
(120.12975 -0.084185571 -0.19875716)
(120.12649 -0.084322575 -0.17555611)
(120.14041 -0.10684709 -0.20672146)
(120.1425 -0.10826958 -0.23379852)
(120.1409 -0.10725522 -0.26656892)
(120.1297 -0.08141449 -0.22090572)
(120.09152 -0.089929562 -0.24812314)
(120.05432 -0.095667866 -0.26770861)
(120.01454 -0.098095772 -0.27735189)
(120.00123 -0.086698974 -0.3045104)
(120.04568 -0.086343493 -0.2942183)
(120.03713 -0.11356825 -0.35068887)
(120.04859 -0.12368896 -0.31929194)
(120.00223 -0.12782196 -0.33091116)
(119.98534 -0.11584595 -0.36395174)
(119.955 -0.1480293 -0.42086268)
(119.97909 -0.16058666 -0.37787569)
(120.03331 -0.15998242 -0.37048982)
(120.01502 -0.15072924 -0.41331865)
(119.98967 -0.20036048 -0.48995052)
(120.0153 -0.20792198 -0.43392461)
(120.04027 -0.20945786 -0.37992335)
(119.97672 -0.21660574 -0.39528358)
(119.99963 -0.2099927 -0.34297289)
(119.97173 -0.25583931 -0.38346953)
(120.0377 -0.25272601 -0.37583911)
(120.0156 -0.26595225 -0.43586887)
(119.94015 -0.26692815 -0.44579487)
(119.90119 -0.34076537 -0.51419627)
(119.94287 -0.3188267 -0.43775862)
(120.02202 -0.31208953 -0.42821989)
(119.99364 -0.33462269 -0.50043738)
(120.0838 -0.32088338 -0.47504372)
(120.09398 -0.25333862 -0.41221893)
(120.10072 -0.19835316 -0.3557596)
(120.10257 -0.1547714 -0.30591833)
(120.15368 -0.14015532 -0.27325412)
(120.15293 -0.13541572 -0.23741393)
(120.1656 -0.1707773 -0.27421319)
(120.16448 -0.18060281 -0.31956532)
(120.15693 -0.18625752 -0.37278892)
(120.14965 -0.14124044 -0.3143046)
(120.09222 -0.15343096 -0.34851192)
(120.09447 -0.11756091 -0.29651726)
(120.08545 -0.1088591 -0.32874567)
(120.08606 -0.081652192 -0.27465777)
(120.12836 -0.0753752 -0.24668297)
(120.13715 -0.10106366 -0.29797057)
(120.142 -0.13708295 -0.35792046)
(120.07796 -0.14611303 -0.39276024)
(120.06279 -0.19666893 -0.46891071)
(120.08483 -0.20096711 -0.41037697)
(120.07026 -0.26241667 -0.48132554)
(119.97931 -0.26915625 -0.50340306)
(119.90001 -0.26458902 -0.50406998)
(119.94868 -0.21110569 -0.44227651)
(119.91419 -0.20023718 -0.49964229)
(119.87281 -0.17588668 -0.54327619)
(119.92624 -0.12705305 -0.45391004)
(119.96606 -0.098178933 -0.39084345)
(119.9887 -0.072877573 -0.3227802)
(120.02894 -0.046165453 -0.25050521)
(120.03417 -0.027693569 -0.18184179)
(120.07792 -0.024523044 -0.1556988)
(120.07758 -0.0088182163 -0.16682574)
(120.09486 -0.014261571 -0.23461502)
(120.09792 -0.041801538 -0.21818601)
(120.15487 -0.032205385 -0.15996122)
(120.11049 -0.018479035 -0.11478625)
(120.12894 -0.010044213 -0.059833942)
(120.13329 -0.0056112311 -0.066253439)
(120.1129 -0.0077210695 -0.12420882)
(120.15653 -0.011426642 -0.17483728)
(120.19413 -0.0073650603 -0.09621359)
(120.18849 -0.01800172 -0.085794428)
(120.22334 -0.036076387 -0.13371772)
(120.21803 -0.040584061 -0.1194438)
(120.20808 -0.040385518 -0.1034948)
(120.1992 -0.040608836 -0.091775808)
(120.18559 -0.03804844 -0.080140854)
(120.17227 -0.054620506 -0.11407108)
(120.18298 -0.056382655 -0.13035925)
(120.15833 -0.072132103 -0.16760737)
(120.17918 -0.092288108 -0.19542405)
(120.17255 -0.089822157 -0.17173561)
(120.19901 -0.070005899 -0.1345563)
(120.21027 -0.073118999 -0.15383696)
(120.23188 -0.050709406 -0.10320762)
(120.21699 -0.047407916 -0.089915605)
(120.22593 -0.023357149 -0.04713943)
(120.19194 -0.018094917 -0.041733098)
(120.20745 -0.020831152 -0.047803641)
(120.24338 -0.026695912 -0.054310344)
(120.25888 -0.029858587 -0.06460275)
(120.21826 -0.021720438 -0.054423023)
(120.23056 -0.023590072 -0.064734975)
(120.2728 -0.032614113 -0.077977284)
(120.25504 -0.054140816 -0.14076709)
(120.24448 -0.053526835 -0.12088083)
(120.21873 -0.074850813 -0.17818078)
(120.1894 -0.05574964 -0.14641532)
(120.16137 -0.070298311 -0.18717508)
(120.16411 -0.06624089 -0.21075406)
(120.19605 -0.05379855 -0.16671452)
(120.22503 -0.073460016 -0.20369047)
(120.18386 -0.089112284 -0.25393633)
(120.18278 -0.093015027 -0.22466588)
(120.20381 -0.1232406 -0.26752297)
(120.20067 -0.11997209 -0.23033596)
(120.19363 -0.11399755 -0.19882966)
(120.22706 -0.088799002 -0.15380969)
(120.24026 -0.09503739 -0.17925265)
(120.27408 -0.12316837 -0.20986776)
(120.25859 -0.11227587 -0.17771558)
(120.21618 -0.14419741 -0.23032857)
(120.22336 -0.15530714 -0.27036729)
(120.2255 -0.16358649 -0.31903081)
(120.28563 -0.13301802 -0.25075124)
(120.25019 -0.099775629 -0.21039038)
(120.25657 -0.10144512 -0.24625989)
(120.20301 -0.1221719 -0.3084897)
(120.22155 -0.1677969 -0.37451714)
(120.14375 -0.18633418 -0.4312249)
(120.12336 -0.17306576 -0.49613293)
(120.12988 -0.1238368 -0.40400796)
(120.13032 -0.089655468 -0.33239084)
(120.12501 -0.065488013 -0.26877196)
(120.07938 -0.070269875 -0.29696145)
(120.03537 -0.073159254 -0.31620186)
(120.02637 -0.055758353 -0.33678507)
(119.97653 -0.055089514 -0.34322666)
(119.94998 -0.076110326 -0.41631276)
(120.00814 -0.075723511 -0.40869021)
(120.02026 -0.097564658 -0.38362578)
(120.07424 -0.095325251 -0.36292134)
(120.06348 -0.073953984 -0.38980592)
(120.07248 -0.053344642 -0.31822461)
(120.12108 -0.050406519 -0.29035138)
(120.12341 -0.070345069 -0.35973994)
(120.11664 -0.04537018 -0.38282004)
(120.11773 -0.032136981 -0.30441889)
(120.0674 -0.03400973 -0.33183913)
(120.01973 -0.035016628 -0.34978423)
(120.01587 -0.010498998 -0.35629555)
(119.9647 -0.010459176 -0.36022734)
(119.93204 -0.015171192 -0.4406094)
(119.99149 -0.014843181 -0.43702461)
(119.99665 -0.04785339 -0.42896761)
(120.0545 -0.047432648 -0.41167782)
(120.04972 -0.014014636 -0.42058819)
(120.06422 -0.0096728726 -0.33875682)
(120.11552 -0.0090681885 -0.31164429)
(120.11313 -0.013013426 -0.39210516)