/*--------------------------------*- C++ -*----------------------------------*\
  =========                 |
  \\      /  F ield         | OpenFOAM: The Open Source CFD Toolbox
   \\    /   O peration     | Website:  https://openfoam.org
    \\  /    A nd           | Version:  7
     \\/     M anipulation  |
\*---------------------------------------------------------------------------*/
FoamFile
{
    version     2.0;
    format      ascii;
    class       volScalarField;
    location    "250";
    object      k;
}
// * * * * * * * * * * * * * * * * * * * * * * * * * * * * * * * * * * * * * //

dimensions      [0 2 -2 0 0 0 0];

internalField   nonuniform List<scalar> 
25278
(
1048.3154
994.41132
992.37287
992.37002
944.66997
994.4173
1049.472
1048.3151
1049.4688
1043.4805
1039.5663
1037.4262
1011.8032
983.1222
961.50235
992.08575
994.31893
989.33319
999.27514
1014.0193
996.9416
992.37963
986.52056
1014.1777
1023.3566
1014.1722
986.52156
999.34635
999.89123
1013.3325
1023.7731
1008.7405
1033.001
1017.6832
1033.4214
1036.0886
1043.3825
1051.6986
1043.5456
1062.1952
1051.2456
1059.8089
1070.8639
1078.2622
1056.1174
1033.5715
1019.3362
1023.6448
1039.9438
1030.231
1033.7634
1017.0085
1045.9587
1042.6096
1048.4855
1057.2424
1061.4427
1052.1897
1073.7433
1069.1544
1079.2082
1084.2103
1086.556
1063.5924
1054.1739
1055.3376
1064.7351
1087.4114
1076.4106
1075.644
1091.2531
1090.6014
1086.3686
1078.5302
1065.0621
1056.1992
1033.5051
1013.3777
992.38156
969.83165
943.40281
961.61384
989.46941
999.84893
974.34247
946.65222
966.43915
961.85652
965.66983
963.18945
982.96341
988.48674
965.47817
959.44407
985.12834
988.68849
1008.1167
998.19337
1020.7633
1034.8536
1007.7931
1012.0996
1041.6503
1035.2266
1039.9096
1009.4296
986.92148
960.17106
931.65293
893.37433
952.90832
978.59044
920.82794
950.96199
990.83848
1024.2991
984.10129
1034.9016
1002.8715
1002.7683
999.7581
974.29095
944.58187
965.11778
959.06085
931.41359
893.15445
952.82337
966.35236
946.60091
943.27391
969.70206
989.31403
961.44687
965.47382
961.72219
986.78185
978.51036
920.56325
959.94957
990.63525
950.67374
983.73623
1034.7828
1039.7334
1009.3041
1007.9463
988.52516
984.79112
988.22581
961.24972
962.97373
982.77228
998.02606
989.13927
1020.6151
1035.0719
1041.4874
1024.1254
942.74576
774.31158
774.95488
942.69215
1022.4506
1038.7281
1008.5245
1001.013
1032.7031
977.77998
945.24569
989.16718
906.79811
741.66499
760.19384
468.90992
455.14568
754.53406
754.09177
460.94998
475.0465
761.85247
742.29371
906.64452
988.57368
1011.8473
1007.584
1034.7281
1038.4692
1021.9993
975.19662
942.70262
999.98976
998.99575
1008.1653
1031.801
1061.2873
1010.759
785.29526
500.00284
493.76194
782.30877
1013.3618
1061.9526
1065.1423
1056.2221
1036.3438
1017.7459
999.93588
1008.9012
1023.9061
1036.2791
1033.3082
1051.4751
1060.0213
1043.5461
1051.9921
1043.8867
1062.6063
1071.2414
1078.6031
1064.5712
1043.2034
1023.4663
1019.3402
1036.337
1054.5103
1057.731
1045.6821
1033.665
1047.6631
1053.6183
1070.4971
1083.838
1062.459
1056.3709
1062.2239
1040.1388
1023.7181
997.00689
1014.3081
1030.4948
1048.9343
1043.2659
1069.7874
1079.8009
1057.6548
1061.9838
1052.7889
1074.6117
1085.0315
1087.5225
1064.209
1034.0921
1017.3765
1046.8731
1054.8204
1076.6622
1077.5034
1056.0002
1065.3622
1088.4112
1097.6227
1096.654
1093.921
1088.2555
1093.6465
1068.3191
1072.7442
1066.5337
1068.7923
1043.5487
1054.8392
1051.669
1071.6619
1066.0228
1071.1468
1063.099
1078.7503
1073.8973
1087.6279
1091.2481
1100.4904
1076.5467
1080.6087
1075.8121
1102.958
1097.297
1115.7694
1109.8273
1101.2078
1091.4804
1077.3532
1054.4466
1036.3023
1023.4242
1043.128
1047.5139
1053.4796
1062.2317
1083.5361
1070.3126
1064.378
1082.0738
1067.7365
1088.1552
1096.995
1094.8489
1090.4838
1090.94
1075.6639
1093.2455
1080.2082
1093.8965
1108.5361
1120.4764
1107.809
1093.4091
1075.8692
1065.291
1056.583
1080.3744
1094.4242
1079.0109
1091.3956
1109.0107
1120.8588
1103.518
1092.7435
1071.8821
1103.0773
1105.3636
1125.055
1138.8895
1133.8538
1127.513
1120.1903
1111.1721
1101.7802
1106.7401
1115.7953
1103.365
1098.5218
1111.1767
1120.8972
1126.3839
1116.5946
1101.196
1108.3399
1119.3021
1109.0709
1111.8345
1099.7457
1108.312
1105.5447
1118.7488
1121.0665
1131.9519
1121.9666
1131.5462
1128.7038
1125.9697
1135.0338
1129.4914
1135.5613
1141.7054
1133.6953
1118.7241
1101.3444
1082.256
1088.3293
1108.4716
1119.6011
1109.3845
1097.3035
1095.1764
1090.8316
1102.1496
1107.0764
1116.288
1103.8159
1098.9846
1111.7128
1121.4495
1111.5317
1116.9178
1126.279
1120.5363
1130.0624
1135.5378
1126.8886
1130.1147
1119.1941
1105.9571
1108.6988
1100.0405
1112.1325
1121.4898
1132.3678
1122.2296
1131.7945
1128.9551
1138.9133
1141.2512
1142.7958
1132.7546
1111.0127
1115.0561
1095.6411
1104.4781
1103.3372
1115.2645
1113.1941
1123.0036
1124.5266
1111.916
1112.7866
1114.6156
1106.4187
1117.9953
1116.2096
1125.6569
1126.9039
1137.4498
1127.735
1126.2128
1125.1869
1123.3441
1133.9128
1135.3022
1144.1483
1134.6736
1135.4712
1137.0287
1146.1591
1145.1525
1136.3927
1143.3621
1132.4533
1118.5454
1117.7399
1131.3702
1129.9702
1128.4126
1114.6341
1111.9355
1109.6714
1104.4798
1102.0575
1087.1801
1066.354
1101.4567
1119.0679
1121.8713
1107.4343
1091.834
1103.017
1100.2474
1105.4351
1059.913
1097.5309
1118.7692
1125.4965
1121.089
1100.4524
1077.2186
1047.3366
1089.2262
1100.4811
1092.8062
1064.0886
1092.7414
1109.0129
1109.0409
1119.938
1117.0306
1097.2603
1078.6934
1020.171
1009.0891
1031.7178
1069.9071
1110.2934
1099.3884
1127.2321
1131.1031
1135.446
1139.0961
1141.496
1142.1318
1140.225
1136.0902
1127.7875
1133.9516
1140.4412
1134.0224
1140.2556
1146.5386
1142.1473
1145.7211
1136.8846
1125.954
1136.677
1139.4475
1147.7455
1140.8512
1138.4786
1129.6464
1136.5095
1125.5569
1111.3836
1093.1661
1067.9939
1061.8577
1066.0466
1072.3389
1098.7814
1093.1722
1087.7111
1103.875
1101.2683
1106.2304
1120.1475
1118.054
1100.408
1101.2223
1098.0189
1117.5243
1107.519
1107.4199
1091.0982
1094.4912
1114.3626
1094.1835
1106.2084
1118.7015
1124.3573
1104.2509
1058.0004
1097.7911
1073.9639
1096.5394
1117.756
1097.2484
1062.3194
1040.0567
1085.1595
1073.5517
996.56012
1018.4318
1073.1519
1104.6505
1123.1887
1130.8231
1131.1403
1125.8103
1114.448
1096.7197
1069.3844
1043.2942
1054.6477
1051.5315
1045.6067
1057.6005
1062.9878
1070.969
1065.8147
1087.3604
1073.7265
1078.601
1091.0031
1100.1301
1076.3012
1071.376
1075.4636
1080.3207
1105.506
1102.4058
1096.8628
1115.3005
1109.4686
1100.9332
1091.3148
1095.4994
1104.2315
1103.0803
1111.5781
1124.157
1115.0048
1112.9216
1122.5943
1133.533
1123.1106
1110.9036
1114.9601
1126.0071
1115.986
1117.7667
1106.1806
1114.2994
1112.4539
1125.3099
1126.5784
1137.1323
1127.5407
1136.8564
1135.303
1134.4695
1124.9674
1134.9354
1143.7984
1142.4047
1132.5344
1140.6246
1128.9443
1132.0522
1143.2212
1142.3702
1150.7338
1149.3743
1154.1323
1147.4931
1146.264
1143.4341
1140.2865
1146.1337
1139.7931
1141.6015
1148.2919
1145.6239
1148.5423
1141.8701
1140.4881
1147.5735
1151.7549
1152.2552
1149.9159
1145.3436
1150.0647
1144.6962
1140.9592
1132.9958
1122.377
1109.0975
1113.6951
1108.2713
1121.6854
1117.1695
1126.7915
1130.9698
1137.1978
1126.948
1130.2199
1116.0122
1118.8661
1114.1351
1127.8512
1132.5761
1135.5742
1121.8578
1118.9861
1116.5973
1110.9911
1112.8594
1118.5471
1131.3224
1129.794
1124.2532
1125.6784
1133.533
1132.878
1139.4179
1140.1177
1144.4668
1145.19
1144.1923
1137.7965
1134.7586
1139.394
1146.1683
1147.7048
1140.8555
1140.3061
1141.5847
1148.4041
1147.5093
1151.7913
1151.8057
1148.0649
1140.8445
1143.2369
1138.8222
1147.0828
1150.5774
1151.8745
1145.6896
1143.1775
1133.1756
1134.7835
1120.9631
1123.9076
1137.2579
1146.5986
1144.0206
1148.6762
1149.235
1151.055
1146.7822
1139.7082
1138.5659
1137.5762
1135.6348
1133.0661
1126.1483
1113.8195
1095.765
1068.2447
1074.5113
1075.6693
1102.465
1101.4609
1105.105
1077.5969
1082.3365
1083.4093
1078.7041
1106.1165
1109.13
1108.1142
1128.9331
1127.7325
1125.6676
1122.6878
1118.1273
1117.3054
1121.9749
1119.9421
1134.1626
1129.4422
1130.8766
1135.5794
1136.6416
1131.9822
1133.0928
1119.8322
1124.3901
1137.7162
1140.7493
1127.3127
1129.3948
1142.5635
1141.4941
1139.6999
1138.6392
1124.9726
1122.9617
1125.0044
1127.0655
1140.4281
1138.9373
1137.2169
1147.4438
1144.9193
1140.4608
1141.7903
1146.2381
1153.6813
1150.0496
1148.7405
1152.3093
1153.7448
1155.1885
1148.8175
1149.911
1148.448
1153.499
1151.4734
1149.8856
1146.4662
1137.9693
1125.0338
1122.067
1119.5955
1120.0833
1114.2696
1126.0556
1131.8879
1131.8844
1135.4275
1135.4695
1122.585
1125.5991
1138.0711
1137.9466
1125.8565
1122.8279
1120.3018
1120.3707
1114.506
1125.6375
1131.5347
1131.6531
1135.2934
1135.188
1122.926
1125.9711
1137.8647
1144.4947
1144.9387
1145.7298
1142.9113
1143.7501
1139.7543
1138.8359
1132.0843
1132.9838
1140.1816
1142.5782
1146.9328
1144.6536
1147.7824
1145.8698
1142.5999
1142.0415
1137.9104
1137.3893
1130.6097
1129.5495
1136.8694
1138.0242
1130.5855
1134.8203
1139.6259
1143.8987
1136.668
1129.9894
1136.5476
1143.8497
1137.8584
1142.6636
1148.3972
1151.4474
1153.89
1154.4247
1152.5662
1155.0963
1152.46
1154.8861
1151.8403
1146.3956
1139.6338
1148.1148
1152.7608
1150.2547
1143.5627
1149.1281
1152.4834
1155.0853
1154.4942
1156.4636
1156.6843
1153.3462
1147.5991
1140.7932
1142.5197
1149.3406
1155.7672
1151.0401
1149.7087
1154.3955
1156.8633
1158.2868
1154.8596
1149.2278
1155.5308
1156.5969
1151.7889
1144.8465
1136.0569
1142.8623
1143.8331
1148.2333
1147.2978
1154.7687
1151.1262
1152.0326
1145.869
1152.7402
1144.5841
1151.3785
1150.032
1155.815
1150.1081
1143.351
1144.707
1151.4644
1157.7817
1153.0003
1152.0482
1156.7925
1159.4063
1160.4101
1156.9271
1160.2896
1157.5938
1160.5336
1157.6571
1156.7108
1155.6445
1154.2905
1156.2969
1157.7476
1158.2505
1158.3667
1156.9585
1156.6327
1154.6111
1151.4521
1148.384
1140.8745
1147.8546
1151.7133
1152.493
1147.4956
1140.4496
1136.0908
1143.3483
1135.0637
1143.136
1135.9354
1127.1529
1115.4355
1128.7599
1136.0705
1125.7961
1118.0426
1098.3479
1107.298
1123.2363
1128.3433
1139.7701
1147.5592
1150.5305
1154.5231
1150.882
1143.083
1132.1254
1144.2683
1134.863
1146.1059
1148.7776
1153.7728
1155.9336
1157.5752
1155.6298
1155.1059
1156.4126
1151.0837
1149.899
1150.867
1152.0814
1157.5327
1157.3632
1155.692
1159.9158
1158.9385
1159.5945
1159.5515
1159.395
1159.2963
1158.1152
1158.0033
1159.2773
1160.3793
1157.2934
1160.5195
1157.9072
1160.7492
1158.6473
1160.0516
1158.9068
1156.3564
1157.2201
1158.5845
1154.8153
1153.0131
1157.2591
1155.648
1153.785
1146.9438
1153.1566
1156.5154
1158.1217
1155.0091
1147.7912
1154.5142
1152.7598
1145.623
1135.2097
1137.8943
1149.2035
1140.8975
1151.0476
1144.9237
1152.4729
1153.8934
1149.9832
1141.2438
1128.258
1126.1823
1126.7658
1128.8829
1141.4824
1139.8725
1139.7248
1148.4086
1147.8091
1149.4849
1152.1984
1150.198
1152.1041
1150.2683
1147.6641
1144.3165
1139.7137
1143.3265
1130.8847
1138.9628
1135.1583
1130.0149
1122.2017
1132.3701
1127.3728
1112.7244
1121.1796
1126.6203
1118.7524
1135.6561
1139.4903
1137.3406
1144.8204
1141.4938
1141.5565
1141.7202
1135.2824
1122.9908
1102.5197
1075.6925
1043.2855
1023.605
996.91129
989.36711
999.39223
1008.3349
998.36964
1008.1483
1008.9704
1001.351
1033.1058
1039.2158
1023.6777
979.69421
946.90148
990.40708
1012.637
1042.0019
1035.081
1020.7853
989.40319
1035.2599
1039.819
1024.5462
945.13218
767.49772
747.7195
909.22511
758.38032
469.8008
485.82326
778.81398
983.9765
951.33617
991.39358
1009.6234
999.78742
1002.9712
1008.0539
988.25063
906.06838
755.52312
463.87175
477.82869
775.45682
942.08719
756.83604
738.25833
941.7814
974.0512
1021.6919
1038.438
998.96907
999.82333
1031.6273
1061.1671
1009.4886
779.20349
502.30316
513.41222
790.82539
1015.545
1062.3632
1046.0731
1017.0331
1033.7659
1030.2478
1014.0413
1042.771
1052.3012
1054.2666
1055.3608
1064.7496
1063.681
1086.7432
1087.4823
1076.5189
1075.8239
1073.9635
1084.4048
1061.5165
1057.3116
1048.5648
1069.3391
1079.3726
1087.8463
1061.9044
1039.9331
1051.5044
1054.639
1078.7281
1083.4147
1082.354
1077.6296
1074.565
1068.3126
1069.3989
1096.7793
1095.9382
1101.6027
1105.2023
1106.1535
1109.1459
1108.1849
1105.556
1080.3193
1075.4716
1072.3743
1066.0975
1093.3462
1098.9177
1093.2829
1068.0182
1071.3917
1076.2882
1100.1611
1096.9415
1102.4951
1125.2266
1126.4226
1126.9778
1127.2191
1127.2229
1127.1828
1127.0495
1129.1762
1129.2982
1141.398
1141.4419
1139.8091
1139.7388
1146.7032
1147.1029
1148.8809
1148.5141
1149.7581
1150.616
1148.4346
1147.4742
1140.7296
1142.705
1146.2662
1148.8188
1137.9864
1134.5828
1142.136
1126.7043
1138.1049
1121.2432
1117.4048
1112.9235
1131.0096
1118.2884
1112.6543
1104.9732
1088.9151
1097.0004
1059.3632
1086.473
1077.8444
1049.2251
1017.3564
1026.017
1080.8251
1113.0669
1108.1911
1128.2202
1120.7709
1099.4791
1062.3064
1069.7715
996.3692
987.78651
864.22335
935.96338
998.29354
1043.3601
1073.7652
1097.6579
1114.7671
1127.9569
1136.4016
1141.1521
1142.3892
1149.1403
1146.9075
1141.7145
1133.7204
1123.0598
1117.8763
1122.6225
1109.0591
1114.4513
1127.8379
1131.038
1126.1629
1137.1797
1139.4538
1147.7199
1145.3682
1149.0895
1141.7727
1138.1801
1132.0183
1127.5588
1135.5657
1138.9918
1145.2816
1146.667
1140.7106
1130.9207
1117.5162
1111.9558
1125.4162
1127.1074
1114.0028
1119.6416
1132.6601
1136.0179
1134.2137
1119.8528
1116.7146
1119.5104
1133.323
1144.0914
1151.5195
1153.1336
1146.7803
1136.5163
1122.6316
1099.4443
1102.2265
1074.983
1076.1428
1069.9535
1069.9256
1043.5099
1023.667
994.31858
992.07965
1047.9857
1049.3612
982.76299
986.27748
992.24486
996.95281
1017.3405
1034.056
1055.9848
1046.8194
1077.4536
1088.3564
1065.3645
1064.1322
1054.7576
1076.5479
1087.3946
1084.8001
1061.8432
1030.393
1014.2038
1043.0952
1052.6326
1074.3952
1069.5848
1048.7728
1057.4952
1079.5855
1088.0156
1093.6952
1096.5086
1097.5847
1103.1917
1103.2451
1106.7387
1105.7224
1077.9797
1082.6558
1108.6255
1105.9562
1126.2291
1123.1896
1122.5267
1120.5309
1134.8482
1136.212
1137.2164
1138.2371
1133.5253
1120.2287
1124.8517
1127.8222
1141.3479
1140.374
1139.3898
1125.588
1123.666
1138.0555
1139.9477
1125.8271
1124.8232
1121.988
1123.2041
1120.8109
1115.0702
1127.7383
1133.4132
1133.5263
1121.3669
1115.609
1127.7697
1134.2641
1135.0087
1135.2163
1134.2475
1140.119
1139.6137
1146.3809
1141.7146
1145.5151
1144.3897
1150.5957
1150.4387
1153.0942
1147.976
1138.3773
1139.2597
1126.0701
1126.6931
1123.8025
1137.0092
1136.8581
1145.5125
1141.6248
1144.8923
1138.0548
1135.7827
1142.8467
1140.9071
1144.878
1147.5109
1148.0775
1151.9007
1149.0784
1147.1431
1150.1044
1148.3114
1146.7741
1139.3881
1139.4928
1141.1326
1140.8732
1127.0821
1129.0335
1127.7871
1141.3033
1142.2719
1128.353
1129.948
1143.2371
1152.896
1151.5602
1148.8283
1144.2867
1152.4891
1151.6211
1150.6151
1142.3336
1141.033
1149.3511
1153.1954
1145.6903
1146.9571
1154.467
1155.47
1147.9526
1150.6983
1149.7137
1148.43
1154.8954
1156.2313
1156.4161
1150.9873
1149.6919
1154.9593
1155.5585
1157.2749
1157.2243
1154.8975
1153.2108
1150.7491
1153.1336
1155.7197
1155.6789
1155.4214
1152.8783
1148.8777
1148.7437
1141.6458
1137.4807
1144.6552
1148.1178
1143.5795
1136.2669
1128.4437
1117.8635
1131.0404
1138.5824
1145.8005
1148.4617
1146.1838
1140.6445
1132.9252
1121.6234
1129.2533
1138.2544
1125.6078
1111.3997
1102.6052
1084.747
1110.2462
1126.2157
1133.9066
1142.5881
1138.384
1126.239
1117.9403
1096.4775
1104.5183
1117.807
1093.3336
1070.5509
1060.5065
1033.7681
1082.8413
1110.7749
1118.9995
1134.5059
1140.8353
1140.0445
1133.3553
1121.6182
1115.8088
1127.5729
1127.3382
1115.8214
1121.6397
1133.166
1136.6995
1136.8805
1124.0627
1126.991
1127.0484
1124.12
1124.0824
1121.6186
1115.7761
1108.9289
1092.6536
1063.9439
1097.1375
1116.888
1119.615
1108.8259
1092.6111
1100.1979
1088.8051
1078.4397
1019.7057
1008.2521
1030.6697
1099.0741
1109.8043
1068.928
1046.5687
1076.9907
1099.9388
1102.7135
1091.5816
1066.1413
1086.9629
1101.7958
1107.1473
1121.5291
1118.8143
1101.2216
1105.2776
1059.7417
1097.5424
1118.7907
1100.1573
1120.7249
1125.3242
1141.8577
1141.1325
1138.6549
1134.9697
1130.6315
1126.8711
1124.5693
1124.7139
1132.423
1133.7803
1133.3772
1132.773
1139.4598
1139.5933
1144.0362
1145.2326
1144.0339
1143.5042
1146.2624
1139.2628
1140.9707
1141.1124
1128.0467
1127.73
1129.7152
1142.5651
1142.2527
1143.2472
1129.6179
1131.1904
1144.2139
1144.5925
1131.8868
1130.2949
1143.5851
1152.0737
1152.3693
1152.0285
1157.5729
1157.2987
1158.1609
1156.3202
1160.5549
1158.0897
1157.2086
1156.1906
1158.8763
1157.4846
1157.6239
1159.1192
1158.5626
1159.6635
1160.3421
1159.9733
1160.933
1161.385
1158.5664
1160.8143
1159.7375
1158.4998
1156.9768
1155.0379
1152.2974
1147.9625
1150.9023
1144.1242
1151.9761
1149.0298
1152.9327
1150.1901
1152.6316
1155.3453
1153.1429
1148.543
1153.4222
1150.5183
1145.2856
1134.2521
1142.9383
1146.1866
1134.1971
1130.5479
1140.8859
1128.2596
1139.7789
1135.1383
1122.501
1105.4382
1123.3392
1115.6718
1095.7778
1073.8585
982.55615
1029.2282
1052.6168
982.74867
1055.7808
1032.4903
955.4298
835.15772
954.17698
974.89134
827.48252
823.30733
609.01844
610.61049
858.72001
704.54308
867.25711
986.3545
965.19655
798.87582
843.45337
636.40338
849.80869
856.59682
639.7235
502.11031
489.98113
686.86228
479.07745
492.93029
501.47025
450.61612
464.9736
498.31935
619.70918
831.1279
999.64285
1074.4818
1094.8464
1091.2704
1107.5993
1107.9086
1091.6204
1098.7955
1118.3199
1114.7347
1095.2368
1107.9603
1086.7661
1043.8955
1066.5757
1022.1693
1063.9931
1100.2672
1121.1766
1129.791
1130.7544
1125.733
1114.5751
1120.4475
1120.5092
1114.6476
1126.1186
1131.9662
1131.6099
1137.5457
1138.3356
1131.5693
1131.5037
1138.7111
1137.1129
1141.7481
1145.0777
1144.6297
1137.9483
1126.0353
1126.0572
1123.0454
1135.58
1138.2136
1138.4373
1125.848
1122.8551
1120.3706
1114.5505
1114.1644
1119.931
1132.3703
1132.299
1126.4882
1126.6403
1133.7399
1132.7218
1139.4615
1140.4105
1143.5373
1141.0891
1133.8698
1136.6084
1138.4872
1134.1916
1126.1909
1113.2107
1106.6445
1090.9982
1065.6242
1086.6835
1101.5585
1118.5555
1120.8818
1101.9675
1100.9199
1104.9963
1099.066
1059.2431
1076.2056
1099.5129
1119.9872
1125.0672
1118.6964
1097.4898
1105.707
1103.4511
1094.1859
1078.7302
1062.3044
1043.6027
1023.7335
992.26564
1019.1963
1033.5145
1045.5374
1036.2066
1023.1645
1023.3317
1013.2432
999.18633
999.81183
1008.7217
1033.0679
1036.098
1033.3779
1043.3775
1051.7356
1070.9543
1059.8509
1051.2961
1065.1515
1056.1643
1075.7368
1091.1265
1108.8119
1093.34
1080.3043
1056.397
1036.2993
1017.6375
1056.5345
1072.1499
1092.8894
1107.9029
1120.7828
1125.3486
1120.8574
1103.5427
1094.322
1080.3618
1093.3702
1075.7716
1065.2019
1078.8913
1091.2582
1108.8902
1120.4626
1101.3025
1067.7
1082.1328
1090.6194
1078.346
1056.1342
1062.2338
1053.451
1043.0826
1047.5035
1064.4087
1070.3349
1083.5941
1087.3929
1065.8039
1070.9446
1062.9432
1054.3905
1057.5595
1073.7264
1078.5789
1090.9969
1112.5274
1118.229
1122.7799
1125.7828
1127.8441
1129.0715
1129.691
1129.9873
1130.0428
1130.0228
1129.8942
1129.5759
1131.2574
1130.5825
1143.4791
1142.3704
1142.6618
1143.8192
1143.8654
1131.5928
1131.7145
1143.8504
1142.6373
1142.6785
1150.3527
1150.8638
1151.2392
1152.3439
1152.0692
1155.4234
1156.708
1155.3916
1153.8969
1152.509
1154.1742
1151.6435
1151.3711
1150.0192
1151.7282
1153.4955
1149.1341
1150.5384
1153.1516
1156.069
1154.3856
1151.0747
1141.1502
1147.4531
1149.7693
1144.1332
1138.7612
1135.1506
1148.1271
1145.5552
1143.7553
1127.6404
1131.4553
1127.5716
1123.4139
1118.9403
1114.0594
1133.354
1133.8093
1128.6627
1131.7129
1124.2834
1106.6824
1115.1541
1109.0595
1114.9784
1119.9095
1137.7796
1140.6085
1146.5031
1145.324
1142.4567
1143.2521
1145.5345
1143.5007
1135.8633
1135.8716
1122.3849
1125.3199
1138.3699
1147.0243
1146.2676
1148.6193
1150.7237
1147.8161
1144.3608
1144.6035
1135.2153
1121.2798
1118.8877
1116.9049
1111.3233
1124.7183
1130.2459
1131.776
1140.7491
1139.979
1133.4518
1139.2956
1145.9075
1145.3299
1149.4904
1152.2227
1147.1271
1137.64
1124.1821
1122.1004
1119.2812
1133.5826
1135.9395
1132.8798
1119.0806
1116.2458
1113.9622
1108.5352
1104.0858
1109.2947
1122.7039
1127.3171
1122.0702
1117.4777
1127.181
1131.4509
1137.6745
1133.3789
1141.3915
1144.732
1138.3742
1135.1867
1139.8859
1141.5588
1140.6629
1137.8865
1133.7714
1128.8107
1136.2625
1141.0378
1132.1478
1123.5618
1115.0344
1124.2955
1108.1295
1092.8296
1076.9984
1085.0529
1071.6862
1000.8094
991.5987
1025.2339
1034.8226
1042.5146
1091.7727
1120.9075
1136.7671
1141.1337
1144.6989
1148.968
1145.6858
1137.2454
1129.0582
1133.2929
1125.618
1097.7269
1084.5974
1082.2524
1092.8619
1108.2497
1122.8321
1098.0774
1092.8045
1066.1722
1103.0856
1087.2277
1076.2413
1002.1147
1032.5721
1038.6231
1072.2954
1078.1123
1113.0006
1117.4493
1130.2933
1107.4769
1124.7601
1127.9403
1143.451
1151.1326
1156.5879
1149.6352
1156.0222
1149.2682
1156.2642
1154.8055
1153.0702
1146.595
1154.1359
1155.8668
1148.6289
1150.3517
1157.3031
1152.4828
1158.4453
1159.9418
1158.7482
1157.0083
1155.29
1151.0307
1153.0553
1157.2391
1158.6154
1159.757
1160.9425
1159.6575
1156.2749
1154.7408
1145.6668
1143.4522
1150.7422
1148.6733
1137.1142
1139.5937
1127.8975
1124.7068
1140.892
1137.9206
1121.1084
1116.8705
1099.4497
1123.2763
1138.8185
1147.111
1150.2498
1142.4329
1135.4828
1146.4702
1143.092
1131.4688
1110.4545
1115.3836
1127.5131
1104.5342
1083.5663
1077.4024
1050.3186
1097.008
1124.485
1139.3724
1142.9528
1128.853
1124.2911
1140.6689
1147.1756
1149.5725
1150.6531
1152.2913
1153.9208
1149.8608
1151.2798
1155.5283
1154.0687
1150.905
1149.3894
1148.7405
1150.3071
1142.5618
1130.0409
1130.1115
1128.148
1128.096
1106.6936
1079.0839
1079.1098
1083.7284
1109.6108
1130.6242
1132.2086
1144.6392
1143.5996
1143.5308
1130.7113
1132.2847
1144.578
1152.2741
1152.6358
1153.0859
1153.2928
1157.8823
1158.5212
1159.3186
1158.8976
1157.0468
1153.2436
1146.9327
1137.3702
1116.5126
1084.1668
1063.0182
1046.5735
1048
1039.575
1070.2482
1069.3173
1070.2364
1074.8021
1073.2626
1043.5069
1046.6017
1060.1578
1074.376
1063.0723
1066.5928
1054.804
1067.1972
1076.3178
1072.0112
1086.4004
1081.5833
1094.3545
1074.2076
1079.306
1097.7902
1100.9838
1089.7407
1094.5461
1081.9098
1088.0695
1082.9412
1087.2705
1071.427
1046.4624
1075.065
1081.2301
1077.9184
1071.9842
1086.7597
1096.7149
1084.2284
1086.0958
1092.0144
1102.945
1097.9043
1107.677
1091.7634
1097.1729
1111.2461
1114.6733
1106.9611
1097.1321
1091.509
1103.6659
1112.3685
1107.4757
1101.6132
1104.2459
1094.0124
1109.7136
1119.4828
1116.919
1100.3114
1095.3079
1092.0293
1111.5425
1104.4363
1115.7789
1108.5771
1092.9173
1074.3319
1060.1313
1067.1173
1054.7563
1066.4953
1071.9234
1079.1602
1074.0517
1094.1327
1081.4474
1086.2876
1097.5875
1100.8075
1082.8011
1076.2448
1081.8351
1087.9515
1104.2803
1094.4618
1089.6388
1104.5478
1101.8543
1097.8789
1107.0012
1108.8431
1116.7864
1115.011
1127.5168
1118.3767
1120.1097
1128.7059
1129.6649
1117.5627
1109.9241
1111.8106
1119.2861
1130.7986
1122.6495
1120.9614
1130.4489
1120.0854
1116.4196
1128.1178
1129.5696
1138.9959
1138.0116
1146.6574
1137.2217
1138.7123
1147.5821
1148.3717
1139.8908
1140.8173
1131.8571
1140.7624
1139.373
1146.9735
1136.2605
1120.1539
1101.9613
1098.0143
1107.2265
1109.0647
1120.3238
1118.5949
1127.8328
1115.3106
1117.0814
1129.0049
1129.9512
1121.1706
1110.143
1112.0217
1122.8598
1131.0727
1119.5573
1117.8517
1123.1323
1106.1007
1084.0434
1059.8834
1079.2812
1103.2431
1108.3972
1082.9839
1087.5568
1110.933
1113.1921
1108.7695
1125.2313
1120.2752
1112.9084
1104.6361
1121.8225
1125.3795
1134.8154
1125.9903
1125.1387
1114.6973
1121.9101
1133.0029
1131.9365
1123.5133
1132.6109
1132.0331
1130.6123
1129.7405
1128.3026
1138.3039
1139.2818
1147.8181
1138.8498
1139.4649
1140.8628
1149.4134
1141.0655
1140.1585
1148.5745
1155.3232
1147.0455
1146.4326
1133.6672
1145.0661
1146.3574
1154.3851
1153.5193
1158.3639
1151.8283
1153.0668
1159.2277
1159.9835
1155.1701
1155.9501
1149.2399
1149.9197
1141.613
1131.6886
1120.0058
1112.7079
1114.5244
1121.6935
1132.8094
1124.9934
1123.3242
1132.4646
1121.7715
1125.3336
1108.5003
1115.6324
1117.4761
1124.125
1122.4761
1133.7276
1125.8659
1127.5086
1134.8078
1144.2345
1136.0863
1134.7151
1133.848
1142.5189
1150.7524
1142.5372
1141.1487
1148.6325
1137.8454
1140.425
1150.4452
1143.1974
1144.5357
1152.2825
1151.4777
1143.3438
1149.1426
1139.2775
1127.0765
1111.3322
1091.8541
1071.3053
1046.4043
1074.9955
1073.2488
1071.9443
1077.8194
1086.0104
1084.1647
1091.9449
1097.0226
1091.6465
1107.5203
1097.8355
1102.8873
1111.0322
1100.5382
1111.1776
1115.1866
1121.3774
1120.2386
1118.4337
1124.8856
1126.4918
1136.7236
1129.8514
1128.2349
1135.6653
1144.9976
1136.7433
1127.0641
1130.6517
1138.9841
1130.7602
1132.2556
1123.1934
1128.7574
1127.2923
1137.5721
1138.4397
1147.3028
1140.2365
1148.2957
1147.0542
1146.3551
1138.1245
1145.8713
1153.7562
1152.9528
1144.9749
1152.1321
1142.1522
1127.1139
1111.2552
1115.3382
1130.7284
1139.1352
1130.8884
1121.5208
1120.3194
1118.5291
1117.5945
1127.6048
1134.9402
1124.2694
1122.6558
1133.8688
1143.4911
1142.6925
1133.9628
1142.6036
1141.2262
1150.0905
1141.8455
1148.0293
1137.9006
1137.1474
1124.6473
1128.8134
1127.3802
1126.9049
1122.4868
1120.8726
1134.412
1135.4068
1139.9303
1139.0219
1125.3301
1128.2592
1129.7151
1142.9271
1142.0868
1143.9523
1130.3163
1131.7649
1144.7491
1145.335
1143.5555
1140.6386
1136.2555
1146.6546
1145.9154
1145.0843
1149.5794
1150.3033
1157.7255
1153.984
1154.6658
1155.3185
1147.389
1151.5508
1141.4335
1144.2572
1131.4586
1130.114
1132.0832
1133.3755
1145.9827
1155.3555
1154.0734
1153.5311
1150.9424
1158.3293
1158.8974
1160.659
1160.1439
1159.5487
1152.9629
1152.2648
1153.6284
1154.301
1160.0234
1160.6196
1154.8731
1155.3166
1146.2952
1133.2525
1113.2775
1089.2968
1062.4903
1073.5334
1091.9637
1090.3914
1094.8658
1115.5481
1117.4024
1096.2344
1096.9316
1092.7796
1090.1891
1085.8771
1084.8879
1110.935
1111.8678
1114.1482
1116.0933
1115.329
1134.6652
1133.6137
1131.7959
1129.2162
1130.5687
1126.6806
1138.7439
1142.7499
1142.0246
1152.0944
1152.625
1148.6908
1156.5312
1150.8998
1151.5943
1143.2328
1144.5937
1136.1647
1144.3425
1152.3863
1158.9611
1151.6484
1150.4553
1149.845
1148.6635
1148.2206
1154.8217
1153.6575
1153.1442
1151.8902
1145.1835
1153.7702
1154.6155
1159.394
1158.5751
1161.2727
1157.6049
1158.6147
1162.0255
1161.1617
1161.3578
1162.308
1162.131
1162.9175
1159.2783
1153.6196
1154.7978
1148.1903
1160.8036
1163.645
1160.2359
1163.72
1160.8896
1156.1068
1156.7593
1157.5031
1162.3536
1156.3912
1155.2241
1161.5768
1164.4712
1160.8247
1155.219
1156.3758
1149.8488
1157.4144
1156.6308
1161.4713
1162.2812
1162.9942
1158.1446
1158.8788
1151.6233
1158.0881
1156.9481
1162.4419
1156.9435
1158.108
1163.8466
1163.0549
1158.2007
1162.7736
1157.1278
1149.3149
1139.4548
1127.2885
1128.6917
1140.2865
1143.9929
1132.2589
1130.9764
1143.3057
1153.1155
1153.6175
1149.9601
1157.7018
1160.8571
1160.38
1159.9043
1159.3889
1155.9268
1161.5456
1160.9509
1160.2751
1159.5898
1158.8562
1161.774
1162.5707
1163.1285
1162.0623
1161.3392
1162.3021
1159.6918
1161.7998
1162.6886
1159.7306
1158.6591
1157.5041
1151.8835
1143.6874
1154.0089
1147.6082
1133.2706
1130.7139
1141.756
1125.9627
1139.2287
1137.095
1147.5335
1145.4849
1143.0138
1131.1161
1127.4544
1110.7951
1114.8545
1131.8222
1116.8969
1112.7897
1107.4182
1099.9297
1074.9766
1096.6365
1073.4917
1081.9539
1105.2016
1082.3658
1051.3068
1040.936
1004.118
1044.8156
1052.9158
1083.4338
1055.2243
1086.7773
1078.3298
1045.0263
1006.6998
1016.4811
968.72314
1014.062
1021.5898
1058.0876
1088.5273
1110.6788
1114.931
1093.6145
1063.8632
1092.6619
1087.8683
1059.4929
1089.2938
1093.9827
1067.4457
1097.6668
1092.7547
1061.8623
1023.9162
1030.3671
1064.9728
1028.1499
984.67578
977.18824
916.18102
970.86893
1017.5937
1058.6474
1051.584
1007.6805
947.63895
1009.6723
999.876
934.9494
837.92099
845.41007
941.55302
862.57913
696.66718
700.89239
566.85644
753.5645
872.42859
952.46315
961.94072
885.27769
816.69627
906.34028
894.5169
956.43953
898.29353
958.93446
1007.918
1051.5047
1059.7005
1017.6604
962.81824
1022.4246
1012.9989
950.31743
885.55662
897.82872
968.18531
910.02788
826.48399
811.59623
691.88601
776.13189
864.70228
960.72829
967.49964
1043.0599
1090.6408
1080.1336
1114.1009
1132.0267
1136.9877
1119.7166
1086.5736
1092.3581
1102.5161
1057.2337
1029.6565
1023.0556
1016.5145
1007.2187
1072.5003
1105.5811
1105.3391
1113.8409
1131.8738
1139.4617
1139.3664
1133.0938
1127.269
1127.4171
1115.6868
1121.4943
1133.2056
1136.7231
1136.6668
1139.1925
1127.0563
1126.8838
1123.9724
1123.6098
1102.0838
1074.9099
1076.1328
1068.7377
1066.3848
1040.0473
1051.5847
1054.8043
1083.7058
1109.559
1108.4965
1082.5914
1077.9276
1105.5902
1102.7591
1075.6863
1072.6181
1099.2042
1093.4207
1068.1512
1062.0622
1056.2185
1033.5433
1019.1958
1045.5594
1065.8636
1071.5135
1076.4025
1080.5024
1105.7741
1100.287
1097.0766
1087.4349
1083.6341
1062.3038
1053.4636
1043.0502
1047.5274
1043.407
1051.858
1023.776
1008.7684
1033.1483
1043.7218
1062.4203
1071.0427
1059.8638
1033.3383
1036.1307
1051.3148
1065.1504
1078.8251
1056.4214
1094.2702
1108.8759
1091.2033
1075.7295
1056.0971
1080.2781
1093.3179
1107.815
1120.8344
1103.459
1071.8078
1105.4311
1125.2028
1120.6268
1103.1615
1092.7306
1080.1954
1056.1685
1036.2093
1017.5986
999.13878
999.78343
1013.2233
1023.3083
1023.1472
1036.1809
1054.3603
1057.5711
1062.951
1071.0089
1091.0543
1078.5841
1073.6994
1070.3139
1064.4012
1078.4102
1098.7599
1104.2257
1108.7737
1111.6698
1113.7084
1114.8445
1115.43
1121.1956
1133.2759
1127.5507
1127.4457
1133.113
1120.5391
1122.9503
1125.8111
1126.526
1139.2368
1139.2676
1146.58
1146.2059
1143.4135
1143.935
1147.0512
1148.0397
1144.9706
1143.8655
1139.8405
1133.1723
1132.68
1132.294
1133.5282
1140.5828
1142.468
1140.6194
1133.9769
1135.4136
1137.6578
1134.6613
1141.2599
1144.5014
1148.6776
1146.7801
1144.5633
1136.7642
1136.5183
1138.9518
1147.6981
1147.2252
1149.7162
1151.4793
1153.5157
1151.906
1150.3686
1149.4757
1148.2025
1148.2863
1149.8838
1142.4718
1142.4042
1130.0979
1129.9368
1127.9627
1140.943
1140.9277
1142.427
1143.4749
1143.487
1130.664
1132.26
1144.516
1144.5163
1132.113
1130.5278
1130.165
1129.5856
1127.5597
1140.9057
1142.3404
1141.9859