/*--------------------------------*- C++ -*----------------------------------*\
  =========                 |
  \\      /  F ield         | OpenFOAM: The Open Source CFD Toolbox
   \\    /   O peration     | Website:  https://openfoam.org
    \\  /    A nd           | Version:  7
     \\/     M anipulation  |
\*---------------------------------------------------------------------------*/
FoamFile
{
    version     2.0;
    format      ascii;
    class       volScalarField;
    location    "250";
    object      nut;
}
// * * * * * * * * * * * * * * * * * * * * * * * * * * * * * * * * * * * * * //

dimensions      [0 2 -1 0 0 0 0];

internalField   nonuniform List<scalar> 
25278
(
6.7509546
6.6690608
6.6877668
6.6877564
6.5960899
6.6691287
6.7391343
6.7509474
6.7391222
6.68481
6.7200143
6.7333116
6.7026629
6.6709991
6.1192113
6.6876995
6.6690285
6.2569582
5.8662042
6.33243
6.5416246
6.6063245
6.6510634
6.6855229
6.6048096
6.6855089
6.6510696
6.5573851
6.5118555
6.5464597
6.4728215
6.4308867
6.1648451
6.3495811
6.3847688
6.3514749
6.3834921
6.3178125
6.2845072
6.0841935
6.2055919
6.2408771
6.134536
6.1722602
6.3522526
6.5134282
6.6450316
6.5850839
6.4406083
6.390254
6.3266574
6.2631715
5.7481218
5.9393371
6.2090335
6.249167
6.1748367
6.1313905
5.8218506
5.9554211
6.0109903
5.8898085
5.7860256
6.1190661
6.068674
6.0324225
6.0836202
5.7252168
5.6427072
5.7095297
5.2370106
5.4300987
5.641003
5.8416295
6.0246275
6.1509079
6.3855234
6.5469509
6.6066491
6.5548188
6.5051852
6.1239096
6.2601422
5.8830313
6.4637674
6.4021508
5.6584825
4.869452
5.367219
5.853287
5.8983013
5.3927687
5.3541351
4.4408277
4.5342119
5.4050413
5.5275957
5.9850962
6.0155421
5.5556114
5.51536
4.6474382
4.7698271
5.5656803
5.0515589
5.0286352
4.9017497
3.5588628
3.4842388
2.7206159
4.4284645
4.4188469
2.7018197
2.6968902
3.6514394
3.7562248
2.6948408
4.5322097
4.5495801
4.5465452
5.8805909
6.4635211
6.5959703
5.3413316
4.4215112
3.4725983
2.7135246
4.4237599
5.6555952
6.4018016
6.5050315
6.5549015
6.2579806
6.1195056
5.3573868
4.8610907
4.8933304
4.4130575
2.6932587
3.5439236
3.6349259
2.6863661
2.6821574
4.5261689
5.0418536
5.0197042
5.519012
5.3942249
4.5134355
5.3787359
6.1130501
5.8464891
5.8920437
5.980224
6.2527703
6.0108977
5.5575949
4.7506972
3.7372115
2.2574777
1.0583255
1.0647895
2.2740955
3.707688
5.0159807
4.9960821
4.4941036
4.4696855
2.5853509
2.6000936
3.6060481
2.2236127
1.099479
1.0064396
0.37157562
0.41562904
1.1554146
1.1498346
0.42808321
0.38394756
1.0095704
1.099246
2.209611
3.5719527
4.6254544
5.5034522
5.542807
4.9877899
3.6685944
2.517202
2.540202
4.4409274
5.8487756
4.9678134
4.4118312
4.5859963
2.50783
0.92310203
0.34610843
0.33390954
0.91676775
2.5858913
4.6430126
5.1666767
5.6934083
6.0969127
6.3499585
6.5121701
6.4338414
6.4738448
6.3537837
6.1698141
6.2093534
6.2440437
6.3845885
6.3203809
6.2883777
6.0906567
6.1397951
6.1761923
6.2822958
6.43624
6.5789862
6.645262
6.5960926
6.4526692
6.4413659
6.5300065
6.5137154
6.412006
6.4233516
6.2991049
6.2042825
6.3657147
6.3538163
6.2920208
6.4421441
6.5854918
6.5423124
6.3369341
6.3928859
6.2150083
5.9527007
5.9670588
6.0207004
6.2528326
6.1810221
6.139808
5.8384681
5.9039122
5.8040926
6.1272453
6.3300714
6.2693163
5.7686466
6.0789539
5.7313128
5.6666612
6.0423211
6.0909241
5.7434132
5.8055602
5.8613719
5.9537133
6.0631136
6.0983316
6.3060295
6.2411758
6.2249664
6.1759367
6.3877765
6.4066225
6.460103
6.3310428
6.3889605
6.3953923
6.4503079
6.3326205
6.3233793
6.2265981
6.2429691
6.1446624
6.3383848
6.2788502
6.2709613
6.0286382
6.1236669
6.0050991
6.0685606
6.1302243
6.1740705
6.2517229
6.452419
6.5956596
6.5782944
6.4351988
6.4111333
6.4232408
6.3640466
6.2017913
6.2979352
6.2796841
6.1183305
6.215969
6.1457044
6.0991765
6.0771448
6.0530907
5.9055952
6.0721184
5.8211644
5.7707226
5.5038539
5.594224
5.2091471
5.5631362
5.8241135
6.0764064
6.0281731
5.7029882
5.7747617
5.5176488
5.8511669
5.9139402
5.6054211
5.2197155
5.120152
5.4906476
4.9254967
5.1071956
4.614661
4.7458393
5.0897389
5.2817304
5.478382
5.6410822
5.8013159
5.935458
5.9610288
5.872856
6.005758
5.9803232
5.8371598
5.6818066
5.7158208
5.8314005
5.885772
5.9122923
5.8564631
5.9860641
5.9996545
6.1107764
6.0450407
6.0319913
5.8982621
5.9172632
5.7675757
5.8743122
5.7218158
5.7035169
5.6717055
5.5388061
5.4933155
5.2988304
5.3415365
5.5148107
5.6303061
5.8885761
6.1197481
6.1462035
5.9143295
5.8619357
5.9906707
6.1021426
6.0812224
6.057752
5.9416825
5.9651876
5.8811503
6.0123817
5.9877414
5.84673
5.6936567
5.8071944
5.8367494
5.6794334
5.647814
5.5082467
5.5514139
5.7260727
5.7537601
5.9049104
6.0376273
6.0487536
6.1128628
6.0030739
5.9233796
5.7748646
5.8784513
5.7271452
5.7091868
5.5817571
5.6059751
5.6279974
5.7526572
5.957782
5.9671288
6.1871983
6.1498946
6.1361106
6.0292151
6.0217919
5.9401143
5.9526134
6.0745004
6.0908987
6.0952599
6.1550135
6.0501022
6.0437018
5.9656191
5.9759295
5.8355943
5.9317118
5.921981
5.9088728
5.897962
5.7928498
5.8080852
5.6447884
5.7612682
5.7804074
5.7881326
5.6763132
5.6606684
5.8214276
5.7221372
5.8847847
6.0290602
6.0124996
5.8697026
5.8550252
5.8367928
5.9841326
5.9708234
5.9438422
5.9152766
5.7321377
5.658874
5.2017853
5.2310784
5.3227776
5.014023
5.5434854
5.4591844
4.8971804
4.2186943
4.704435
3.8970403
4.0700984
4.1917001
4.8051578
4.3262983
3.5201079
3.3834912
2.6257132
3.6944126
4.5853343
5.2773819
4.7057296
5.1623662
5.2582649
5.3695306
4.7011074
4.4741696
4.349193
3.2790576
2.7128475
1.8917025
1.8869669
2.6838376
3.7821749
3.3297026
3.8511721
4.0450962
4.2772816
4.509235
4.7370891
4.9419628
5.1383165
5.3132146
5.4845997
5.5213392
5.3222668
5.2850246
5.084287
5.1374902
5.3545189
5.3897448
5.5544377
5.6758171
5.5490393
5.570795
5.4069224
5.5959722
5.5699628
5.7429603
5.6285447
5.806114
5.9634785
6.0934337
6.3032185
6.2875315
6.2213057
6.2381037
5.988403
5.9423768
6.0550524
5.9052708
5.7153554
5.5166793
4.9636899
5.295427
5.1999331
4.8433086
4.5095344
4.626983
5.3323347
5.219563
5.1185386
4.2695298
4.3945859
3.1891167
3.6553698
4.2476702
4.7687355
4.6659674
3.8427198
4.139822
3.3008536
4.0394134
4.1590179
3.4297762
2.5257592
2.4860846
3.5748336
3.1486406
1.7419399
1.7171857
2.2687541
3.0083537
3.7205564
4.2920928
4.7857749
5.1615951
5.4773141
5.7915991
6.1375349
6.3857695
6.4055745
6.4593577
6.529272
6.4406389
6.4500891
6.3943554
6.3871744
6.225015
6.3230228
6.332263
6.2418996
6.1431093
6.3372314
6.3285578
6.2692071
6.2771304
6.0492672
6.0222855
6.1205589
6.0001732
6.0647915
6.1280372
6.1727607
6.1871521
6.1485064
6.1344666
6.072037
5.9493367
6.0265981
6.0190578
5.934545
5.7875285
5.8950371
5.9562635
5.9657096
5.920555
6.0426069
6.0492492
6.1540038
6.0935375
6.0878583
5.9629197
5.9740856
5.8329794
5.930317
5.7862672
5.7770683
5.7576176
5.9053393
5.8035406
5.6392628
5.6190516
5.7475143
5.5974415
5.7190125
5.7414415
5.6313768
5.6101864
5.4557657
5.4324137
5.2277364
5.4145065
5.3798922
5.3602246
5.3172324
5.1247703
5.0691782
4.838319
4.8909011
5.1337973
4.8993206
4.8464735
4.5692562
4.635243
4.6827966
4.9344933
5.1638119
5.3762328
5.1997233
5.4257365
5.3887681
5.5943328
5.7759624
5.9343169
5.8531758
5.8200493
5.6329139
5.7397843
5.5583512
5.4242756
5.4680719
5.6763302
5.7097711
5.8857085
5.9026956
5.9776479
5.8286809
5.7357718
5.6400498
5.8332736
5.8131348
5.7776976
5.740924
5.6582479
5.6966199
5.469973
5.5723915
5.5266793
5.4152234
5.1422002
5.2860745
5.3321424
5.1939451
4.8699703
5.0530936
5.2278803
5.1690445
5.3426389
5.1130673
5.1569515
4.9578817
4.9013548
4.5911982
4.8501824
4.904349
4.6606527
4.7118827
5.0047158
5.2698234
5.5043087
5.5365104
5.6542777
5.4566454
5.3064582
5.1454495
5.4112496
5.3738146
5.6085042
5.5108631
5.7367422
5.7586564
5.5445672
5.2837864
5.2405401
4.9235027
5.1002742
4.7896119
4.7339742
4.6781985
4.9934955
4.7972436
4.6122206
5.0040415
5.3165957
5.5862657
5.8469958
6.1696926
6.1902397
6.1587402
5.8492504
5.9001514
5.9416657
6.2231213
6.233696
6.2058069
6.1942381
5.894478
5.9294262
5.9723796
5.777965
5.8311743
5.8956106
5.9584456
6.0263612
6.0088363
5.9370549
5.9270829
5.7594143
5.8485119
5.8653906
5.7784325
5.7969853
5.8807738
5.894425
6.0331071
5.9651561
5.8124271
5.7313109
5.9047513
5.8420243
5.6525995
5.6295291
5.7110032
5.6899868
5.8725451
5.8602051
5.7901128
5.8038313
5.6035286
5.5760692
5.6663609
5.4449288
5.5634134
5.6777787
5.6984845
5.5879122
5.3692982
5.5073032
5.482914
5.3381811
5.1848336
5.2214832
5.4738714
5.3596717
5.3221135
5.0219072
4.9727918
4.7988519
5.1588976
5.4548617
5.6972055
5.672194
5.6289167
5.5656449
5.5197237
5.2250508
5.2867366
5.3707833
5.4158236
5.3355371
5.6124341
5.639427
5.3771392
5.3197838
5.6015409
5.5727686
5.5236458
5.5012534
5.4526521
5.1275609
5.1918221
5.2226003
5.2736733
5.244511
5.5511216
5.5803457
5.2900427
4.916519
4.9602355
5.0465374
4.9932826
5.1100269
5.0578568
4.9369031
4.8781178
4.427902
4.5082915
4.6816067
4.7406647
4.5709248
4.6328092
4.4996944
4.4335228
4.9026933
4.8440512
4.7974652
4.7366202
4.2170437
4.297283
4.3682757
3.7764186
3.9846026
4.2345643
4.492187
4.4271569
3.9896224
4.3167992
4.3832187
4.0707271
4.1333229
4.5523925
4.6108204
4.8388691
5.0465358
5.2339048
4.9887488
5.1954577
4.971248
5.2051345
5.3843041
5.5748285
5.4166778
5.2069076
5.17509
5.3634257
5.1757528
4.9420385
4.9779213
4.7228607
4.7601327
5.0034248
5.236432
5.417799
5.6006179
5.614423
5.4300766
5.2596027
5.4614007
5.440483
5.2343361
5.0099437
5.0388947
5.2569805
5.4266104
5.2524076
5.2771591
5.4763444
5.656996
5.8177499
5.716723
5.7329383
5.630183
5.6091791
5.395701
5.5292255
5.5494911
5.6726382
5.4948698
5.6425024
5.4643451
5.453594
5.2832438
5.4568298
5.633465
5.6445022
5.4656411
5.3020846
5.4979937
5.4806433
5.2812453
5.0652956
5.0889239
5.2985727
5.0853689
5.2973668
5.1143804
5.3422415
5.3183107
5.2930157
5.2652479
5.0849271
5.119799
4.8430123
5.0558013
5.0231962
4.8004896
4.7571871
4.4960865
4.4398639
4.0685514
4.3965686
4.6797918
4.9473705
4.6299179
4.5784536
4.2778553
4.3407925
4.0105338
4.3396942
4.2777201
3.93198
3.5609825
3.9477251
4.0064836
3.6192954
3.5529438
3.0956729
3.1718759
3.6260236
3.6862901
4.0661467
4.3916301
4.4386776
4.722587
4.4469499
4.1192094
3.7447771
4.1257669
3.7440895
4.1950774
4.2599981
4.6672007
4.8855543
4.9307955
4.7243256
5.0674638
5.1121107
5.3929148
5.501356
5.5264962
5.42391
5.15247
5.2879426
5.4197147
5.182606
5.151547
4.8812582
5.0849728
4.8337069
5.0591462
5.0323027
4.7934664
4.8250568
4.8539345
4.5987214
4.8647181
4.6280182
4.9170351
4.7042924
5.0133075
4.9728952
5.2542526
4.779786
4.8333432
4.4635228
4.3943899
4.6528744
4.6017557
4.5486935
4.1846476
4.4945907
4.7620965
4.7983078
4.5407325
4.2217285
4.5223213
4.4808294
4.1696609
3.8044733
3.866029
4.242881
3.8853777
4.3255437
4.0092396
4.4998904
4.9102158
5.2475528
5.5230778
5.7480817
5.7308812
5.6773212
5.6969332
5.453906
5.4169371
5.4903243
5.2037221
5.0979782
5.1471004
4.760478
4.6952716
4.8533796
4.4300403
4.3637178
4.2993096
4.0502935
4.1184165
3.494191
3.8547947
3.7878329
3.7244548
3.6557166
4.1717849
3.9206993
3.2965987
3.371853
3.4287791
3.1120793
3.8402894
3.9090086
3.794815
4.4291334
4.3620672
4.85681
4.8666241
5.2484043
5.553194
5.8505258
6.1591154
6.3858983
6.5851131
6.5415242
6.2585358
5.8712925
5.5292933
5.9873861
5.5250113
5.0151355
4.5077869
4.4867
5.0361906
3.7434214
2.6221694
2.6299182
3.6373004
4.6580158
4.7802649
5.5631999
6.0175898
6.2598825
5.5670921
5.0477309
3.7588493
2.3032636
1.0329276
1.1232581
2.2493361
1.1718584
0.43710519
0.39316704
1.0808901
2.6907675
2.6953195
3.6550462
5.0267922
5.8806305
4.5473332
4.9651286
3.5601497
2.2048414
1.1598113
0.43333373
0.38891944
1.0673152
2.2501055
0.98794908
1.0800142
2.5210599
2.4921793
3.6549176
4.9820112
5.8470709
4.4323581
4.402446
4.5769857
2.4774077
0.89935329
0.35073324
0.35586941
0.94517362
2.6318107
4.6615944
5.7523554
6.2645356
6.3263856
6.3921465
6.3335676
5.946147
6.1360702
6.0728195
6.033177
6.0839694
6.1222242
5.7929746
5.727051
5.6458959
5.7172462
5.8299379
5.8971346
6.177037
6.2520852
6.2114524
5.9625858
6.0171165
6.0611197
6.2902061
6.4411727
6.4598023
6.4054683
6.1953686
6.2060106
6.2344424
6.2237655
6.1910615
6.1717347
6.1372007
5.792269
5.8529427
5.9044362
5.944366
5.8951071
5.9297934
5.974169
6.0511183
6.2775556
6.2694735
6.2389498
6.222876
5.9487024
5.9924015
6.0965456
6.3048921
6.3301325
6.3379748
6.1440173
6.1228697
6.0246879
5.7973466
5.7386491
5.6835518
5.6462931
5.6226327
5.6212251
5.6411396
5.6631728
5.6436423
5.3758841
5.4013616
5.3619113
5.3341129
4.9732415
5.0151602
5.0697233
5.0289396
4.5739939
4.6381088
4.5667478
4.4988165
3.8710989
3.9846032
4.1913332
4.2708241
3.656305
3.5679788
3.9272376
3.3629228
3.8105277
3.3531329
3.287024
3.2277531
3.6796773
3.230728
3.1737719
3.1277701
2.6684673
2.7016596
2.0528103
2.6374551
2.5958177
2.0202594
1.5248068
1.5032586
2.2688526
3.0636125
2.8899418
3.6633033
3.6099976
2.8340917
2.0263839
2.0084119
1.1538501
1.1873515
0.63559164
0.97573315
1.5275657
2.1498397
2.6983195
3.1943559
3.5988277
3.9708319
4.2938141
4.603469
4.8767361
4.9304088
5.1808233
5.4085647
5.6109096
5.7885091
5.7537138
5.6519462
5.8343475
5.8651011
5.693482
5.7243858
5.8150887
5.6415945
5.6663048
5.4715668
5.4421153
5.2969788
5.5239805
5.4892021
5.448182
5.5749914
5.3634659
5.2019698
5.2565588
5.0965914
5.3630474
5.5951351
5.7932895
5.7579826
5.5514941
5.4484556
5.6792395
5.7153823
5.4978478
5.5358669
5.6288748
5.8270774
5.8958197
5.9113597
5.7477361
5.5531227
5.3296951
5.1799586
5.4354589
5.6561498
5.8444945
5.9949874
5.9106448
6.1941344
6.1627754
6.1423376
6.1427289
6.3873552
6.585452
6.6690472
6.6876994
6.7508421
6.7390932
6.6711364
6.6511766
6.6065471
6.542204
6.2692756
6.3288802
6.0417985
5.7664316
5.6646843
5.7419403
6.0894254
6.1258205
6.0773812
5.7290989
5.8007594
5.9008587
6.1792937
6.3929845
6.3356396
5.94955
6.137967
5.8335755
5.9641444
6.2130937
6.2522872
6.0179237
6.0613259
5.9511043
5.8584706
5.8037886
5.8580424
5.8586283
5.901294
5.9480209
6.2260976
6.2353688
5.9765641
6.0520725
5.9018822
5.9623073
5.9426373
5.9341358
5.7691822
5.7863405
5.8027382
5.817095
5.8965805
6.0351497
5.9679849
5.9097559
5.7373485
5.720165
5.7011709
5.8797785
5.8693851
5.6806718
5.5954605
5.8017431
5.7719426
5.752758
5.6921865
5.6508408
5.6108401
5.3544499
5.4051618
5.3246533
5.5891777
5.5475476
5.2660624
4.940874
5.0582865
5.1861326
5.3191678
5.0392516
4.8603041
4.9281822
5.2350701
5.279167
5.4008609
5.1394192
4.9774953
5.0224949
5.3162328
5.5650531
5.4821152
5.7137178
5.6572283
5.633032
5.3691594
5.4456678
5.1580063
5.1085212
4.7562038
4.6878494
4.5176987
4.5948144
4.9952798
5.047755
5.0954667
5.2003104
4.8632758
4.8104628
4.6535788
4.7105492
4.5830131
5.0106393
5.3501169
5.406196
5.4435531
5.5135534
5.744933
5.7606892
5.8139394
5.618916
5.6422308
5.8382691
5.8474816
5.6615096
5.4376745
5.5357817
5.6362476
5.7359702
5.554943
5.5363336
5.5172266
5.7042734
5.686785
5.4954527
5.3594758
5.5774996
5.5991569
5.3850391
5.408671
5.617192
5.5137535
5.4904762
5.4644303
5.2146625
5.2468059
5.1044881
5.3816159
5.3502349
5.0635511
4.7305509
4.927065
5.1102733
5.2806182
5.2515102
5.2193305
4.9727158
5.0091194
4.7946805
5.0746874
5.0377301
4.9938084
4.7033593
4.634993
4.324448
4.3862018
4.6535261
4.3555143
4.0481509
3.9711618
3.6312335
4.0232776
4.3862289
4.451826
4.789996
4.5708826
4.1701747
4.089271
3.6675912
3.7351862
4.0818275
3.6979887
3.2878972
3.2068622
2.7511375
3.2814695
3.7889141
3.8612368
4.3377394
4.1085438
3.5396298
3.4577732
2.8575246
2.9054722
3.3360038
2.8045783
2.2612478
2.210012
1.7220219
2.4703026
3.1817977
3.2469803
3.9090448
4.4600927
4.9044565
5.2615373
5.5486695
5.5042883
5.2033221
5.1675668
5.4792277
5.5233821
5.2273843
5.2762778
5.3080013
5.5945799
5.619807
5.5964399
5.5696582
5.5697796
5.5218512
5.4781101
5.2549063
5.1581493
4.6993753
4.3448775
4.4676193
4.68743
5.3629216
5.2694604
4.5707282
3.6731274
3.2680561
2.6970385
1.8763277
1.8675945
3.3165903
3.7571602
2.64892
2.5959045
3.3576369
4.1968679
4.8850214
5.4532825
5.1917711
5.6540138
5.7267714
5.5365722
5.000293
5.3123587
5.2185031
4.6873567
3.8759022
4.0459727
4.1670952
3.4889527
4.3028596
4.7878358
4.9269267
4.7181433
4.4868566
4.2532207
4.0216527
3.8330773
3.7242235
3.7302551
4.3034278
4.3842571
4.8478172
4.7960318
4.8530584
4.3811606
4.44337
4.5206711
4.9584487
4.9087972
4.9617591
5.3172482
5.3581052
5.3884275
5.6563887
5.691388
5.7086361
5.4741275
5.54126
5.5687276
5.7857791
5.7974577
5.5914174
5.5315359
5.7501476
5.7372975
5.5037714
5.2232113
5.3117818
5.4096506
5.1409943
5.2759309
5.3032872
5.429743
5.1962898
5.3494782
5.3284839
5.3054975
5.071583
5.0409222
4.8336285
4.8703444
5.1408372
5.1690638
4.9041572
5.0981383
5.1230292
4.934733
4.6486344
4.8740499
4.8446855
4.8132687
4.7794849
4.7423281
4.701146
4.4067057
4.4522732
4.155773
4.4856393
4.4378247
4.75006
4.506433
4.8405337
4.8846192
4.5562668
4.2895391
4.6782636
4.6267239
4.2296606
3.797387
4.1408908
4.1959702
3.8151969
3.7568348
4.1025986
3.7497134
4.0838115
4.0273539
3.6673886
3.311272
3.6898266
3.6225675
3.4838589
3.3712053
2.3675346
2.5425883
2.646003
1.930209
2.7034963
2.5956594
1.8248601
1.0493592
1.5926328
1.5922603
0.69102681
0.78219463
0.41408147
0.36807213
1.0609418
0.56727135
1.0980478
1.7001589
1.6904162
0.97645723
1.0827707
0.45539797
0.86401106
0.77043895
0.40762512
0.22876688
0.25345295
0.59400541
0.24238339
0.21904584
0.20271919
0.21134662
0.21924564
0.25621551
0.42745936
0.80599026
1.7830822
3.1809963
4.2856998
5.1270957
5.2268018
5.3487102
5.2512474
4.5444845
4.6636913
4.4125836
3.2274096
3.7264441
3.6353954
2.5703009
2.6270763
1.7692342
2.0610112
2.8627477
3.6302073
4.2292911
4.7451323
5.1314484
5.4557092
5.5023132
5.5319037
5.4842434
5.1746831
5.2359021
5.1945093
4.8046176
4.8657364
4.8055917
4.326439
4.4045202
4.3105885
4.3772206
4.4443287
4.9232828
5.2940059
5.5805658
5.6069593
5.579271
5.2864428
5.3305632
5.3923778
5.6455187
5.6212064
5.5747393
5.5311482
5.5987021
5.6407175
5.3902606
5.3027207
5.2421162
5.3354478
5.0347454
4.9073623
4.9657817
5.0874607
4.7279448
4.5530403
4.4717116
4.6570196
4.8400011
5.169347
5.4343637
5.6692638
5.5314653
5.4453685
5.1873062
5.6531495
5.7264082
5.3160836
4.994396
4.8759827
5.2212758
4.6983399
4.1925553
3.8837147
3.3667265
3.5034248
4.3028649
4.7995987
4.1941454
4.0719493
4.6271462
5.122926
5.5149024
5.8485941
6.0877084
6.2873954
6.4732998
6.6063867
6.6450935
6.513648
6.5294862
6.5958866
6.6048722
6.5785867
6.5466019
6.5576358
6.5120798
6.4319597
6.1670599
6.3528676
6.3855819
6.3840706
6.3191044
6.1376007
6.2427661
6.2073785
6.0289214
6.1523745
6.0765051
5.9112844
5.6034615
5.8244873
5.7755955
5.7003277
6.0986978
6.3497139
5.7036011
4.9349026
5.4973616
5.5674334
5.2207303
4.7562628
5.2203664
5.1217395
5.5160935
5.7768841
5.8249683
6.0764094
6.0279233
5.8500233
5.9123216
5.6033186
5.6484961
5.889154
6.2172864
6.1199656
6.0570826
6.1742526
6.3532524
6.3649492
6.4231907
6.4359005
6.411158
6.2812733
6.2989215
6.2028461
6.2255756
6.3879758
6.3945737
6.4500762
6.4524475
6.4401387
6.323374
6.3321125
6.241524
6.089671
6.0283665
5.9612273
5.8998845
5.8358835
5.7829194
5.7335193
5.7004713
5.6798407
5.6786063
5.6964996
5.7285342
5.7439244
5.7907552
5.5809106
5.5530212
5.4888755
5.5194573
5.4743141
5.7130473
5.6965899
5.4509788
5.4145451
5.4389956
5.1226641
5.1944155
5.2878883
5.3258582
5.2389616
4.8894377
5.0164386
4.9636132
4.8242637
4.7111689
4.7837917
5.1719316
5.1378955
5.0835219
4.6498381
4.7269926
4.1635222
4.2643115
4.4433164
4.6403909
4.5698034
4.3548429
3.7571731
4.0949152
4.1855737
3.8689599
3.5416083
3.4179795
4.1621128
4.068887
3.957623
3.1202047
3.3161419
3.2338474
3.1665946
2.9790019
2.9293094
3.7255055
3.7505395
3.685099
3.8320701
3.7705541
3.0845772
3.1495314
2.9228472
2.9680652
3.0224204
3.8193837
3.9724205
4.5355707
4.9799542
4.9236733
4.4691979
4.6168997
5.0210608
5.3498923
5.4342425
5.6821978
5.7053964
5.4706925
5.1860196
5.0723168
4.6779254
4.8413302
4.7852235
5.1379072
5.2672439
5.5262378
5.7459299
5.7061312
5.7876605
5.7509854
5.5436883
5.5878104
5.4850558
5.2199348
5.3543794
5.3086683
5.0280241
5.0849885
4.9087256
4.9615408
5.0093565
5.3062995
5.5586246
5.7654854
5.8410525
5.821156
5.6229737
5.6516267
5.7439095
5.9075531
5.8920142
5.8599152
5.8288891
5.9120268
5.9413108
5.7858446
5.6874426
5.6445328
5.7496317
5.572137
5.4418579
5.4843326
5.6064804
5.4057612
5.2505946
5.1937486
5.3598011
5.1349637
4.9340951
4.7223208
4.4840255
4.2381526
3.9873095
4.0546862
4.3019602
3.8196243
3.4734739
3.3888713
3.7441302
3.2373986
2.7849568
2.3638323
2.3820902
2.0502718
1.1899469
1.2170034
1.6275168
1.6253898
1.6232413
2.4153805
3.2066908
3.8992411
4.1232509
4.1926854
4.4316436
4.3669779
3.8866783
3.5397095
3.6115477
3.2725688
2.4575447
2.0693938
2.0092307
2.3010302
2.7856317
3.2909569
2.7280264
2.6796374
2.064116
2.7389511
2.2820709
2.0056272
1.1069349
1.4754045
1.4448232
2.079864
2.102655
2.8437671
2.9187071
3.4444988
2.8547208
3.4250034
3.5048877
3.9626906
4.3020718
4.5839349
4.2706178
4.5604058
4.2729905
4.570473
4.5329208
4.4936459
4.2044265
4.5298204
4.5716348
4.2511444
4.296251
4.6099139
4.3532762
4.693922
5.0024085
4.965241
4.6491951
4.6033387
4.3474447
4.4056184
4.7784075
4.8257638
4.8698798
5.0354475
4.7349396
4.5183807
4.4616884
4.0558167
3.9880301
4.300517
4.2488766
3.8721555
3.9290851
3.5435767
3.4737179
3.9219343
3.8584425
3.4087982
3.3473879
2.85796
3.3990867
3.9253056
4.4005008
4.4601791
3.9906168
3.6701775
4.2374922
4.1723707
3.6017239
2.9581821
3.0183964
3.464499
2.9161174
2.3350776
2.2933993
1.7225299
2.5248484
3.3029142
3.9738981
4.0403569
3.3656515
3.1555867
3.9125773
4.5042486
4.5682286
4.6435372
4.7666163
4.9121719
5.2400396
5.2764609
4.9595276
4.8220422
5.1810717
5.1386896
5.0593215
5.1067442
5.4226437
5.6750372
5.6542642
5.633508
5.6341896
5.8998419
6.1973296
6.1972426
6.2075647
5.9329118
5.7063777
5.7208097
5.4864723
5.4559804
5.4306264
5.6865606
5.7023299
5.4618049
5.1574932
5.1951731
5.260243
5.3434956
5.0487695
5.1741029
5.2068129
5.3272714
5.4499049
5.5708719
5.6907299
5.8075011
6.0018878
6.2894833
6.4888596
6.6206005
6.6466217
6.7200452
6.7544322
6.7665401
6.7543738
6.6897879
6.7220786
6.6849226
6.6208722
6.6357705
6.5009286
6.4885528
6.468054
6.5586145
6.5696672
6.4860356
6.4721295
6.3588521
6.3540234
6.2588383
6.4149992
6.4171992
6.2709002
6.2846242
6.3771248
6.3832253
6.4930069
6.4377191
6.4340233
6.3797418
6.5021906
6.6333746
6.6712374
6.5316921
6.5978695
6.661251
6.6792876
6.5499059
6.5359746
6.509542
6.5125155
6.4066557
6.4028629
6.3093025
6.4550335
6.4548943
6.3190836
6.3314099
6.4243179
6.5243862
6.6119997
6.5252032
6.4297383
6.4672328
6.4693322
6.4112886
6.5447293
6.4050332
6.2363023
6.2255582
6.398172
6.3994117
6.3824894
6.2035829
6.2953516
6.2112901
6.2480158
6.3123498
6.5004055
6.6354777
6.5692243
6.5580069
6.4676736
6.4722251
6.4169275
6.4141634
6.2582931
6.3539015
6.3581459
6.2705085
6.2844981
6.4339797
6.4856209
6.4927345
6.4372036
6.295754
6.3824888
6.3762933
6.2377107
6.2180316
6.2084401
6.1674781
6.1711537
6.1116056
6.1076971
5.9861147
6.0641482
6.0675703
5.9947029
6.0053294
6.1245706
6.1814831
6.1856502
6.1275639
6.0130798
6.0837543
6.0796348
5.9634879
6.0052643
6.0001578
5.9456616
5.9519383
5.857041
5.8451134
5.6887806
5.8058438
5.810398
5.7008417
5.7135463
5.8672921
5.8779826
5.970075
5.8303481
5.8245083
5.6854124
5.7884659
6.0053172
6.2186359
6.2085141
6.1682124
6.1716929
6.068546
6.06455
5.9875028
6.1090663
6.1119421
5.995496
6.005603
6.0807376
6.1818754
6.1860721
6.084555
6.0131493
6.127566
6.1243855
6.067314
6.1765264
6.3617126
6.4915448
6.3591116
6.1615252
6.0733319
6.3031172
6.3045289
6.0894845
6.1053562
6.1901836
6.0839818
6.1407938
6.197441
6.2372141
6.0369564
6.0400865
5.999183
6.1126906
6.1004718
6.1999402
6.1431335
6.0302503
6.0223063
6.0977422
5.9837583
5.9703556
5.9632448
5.9529546
5.9459657
5.8472765
5.8579649
5.7021723
5.8113256
5.8267795
5.8315745
5.7255173
5.8775296
5.8676908
5.7135482
5.5424439
5.6855166
5.6702547
5.771487
5.6618582
5.6692012
5.5269802
5.5113217
5.3186626
5.4892889
5.4954913
5.334901
5.3517561
5.5406405
5.5538087
5.7238629
5.7363978
5.8878834
6.0223872
6.1401484
6.1969267
6.200324
6.1421155
6.0296251
6.0999857
6.0969436
5.9832903
6.0364439
6.0397196
6.2471378
6.2103194
6.2136575
6.1563178
6.1538028
6.0384512
6.1119344
6.1153107
6.0449524
5.9143559
6.0044389
5.9975821
5.9883244
5.8961748
5.745395
5.8505293
5.847086
5.7085658
5.8145936
5.8277393
5.7276387
5.864308
5.868573
5.7646222
5.7547155
5.9044422
5.814752
5.964218
6.0974117
6.2024936
6.3816587
6.5014257
6.6331007
6.6709448
6.7219929
6.6609973
6.5972862
6.5089061
6.5355098
6.5115309
6.4537616
6.4543463
6.3082601
6.4024056
6.4054966
6.3176048
6.3476897
6.2664029
6.2738808
6.2356593
6.2263852
6.2243011
6.1679362
6.168796
6.0595687
6.129316
6.1276647
6.0528588
5.9229681
6.0165096
6.07007
6.0718615
6.0298149
6.1399903
6.1416507
6.2367671
6.1788238
6.1790239
6.0666603
6.071464
5.9445534
6.0342369
5.9024231
5.8998362
5.8868675
6.020451
5.930083
5.7831404
5.7739956
5.8844561
5.7488437
5.8524562
6.0706533
6.2669336
6.2751974
6.0729861
6.0312208
6.1414898
6.2365602
6.2272562
6.2252229
6.2140512
6.1163176
6.0467194
6.1571187
6.154709
6.0385975
5.9068165
5.8966753
5.9883273
5.8519106
5.8481354
5.736666
5.8874699
5.7964465
5.9480519
5.9377671
6.0699833
6.0080646
6.0041642
5.9892808
6.0534331
6.0496256
5.9088964
5.9187226
5.8420568
5.8296602
5.9850446
5.9275178
5.9328099
5.7668054
5.7525029
5.6806005
5.8679845
5.8740336
5.6956847
5.7114918
5.7800353
5.8532428
5.9282954
5.7745084
5.7620597
5.7494068
5.6522816
5.6668495
5.4674598
5.5849926
5.5990253
5.6110724
5.7841094
5.69351
5.8630945
5.7913402
5.9525663
5.9474078
5.8919922
5.8960656
5.7235536
5.5178641
5.6023255
5.5876059
5.6791828
5.4832367
5.4976013
5.3862243
5.3678952
5.3483466
5.5715848
5.5543732
5.460735
5.4819162
5.2336802
5.2582007
5.4994868
5.4218925
5.6490398
5.8459305
6.0194798
6.263184
6.442512
6.4501674
6.2833865
6.3242085
6.3253285
6.1180782
6.0505617
6.2842821
6.2585514
6.2577433
6.236381
6.2347916
6.2604186
5.9999545
5.9602268
5.9805861
5.9987799
6.0357863
5.8686619
5.9123166
5.9671148
6.0221243
6.0246281
6.0867203
5.9566879
5.8831089
5.8734975
5.70469
5.7157097
5.8056918
5.6347185
5.7458131
5.7568445
5.8652504
5.8700701
6.0051594
5.9148676
5.7657968
5.5994483
5.7342023
5.7277888
5.7144514
5.7088737
5.6928099
5.5213663
5.5160424
5.495447
5.489989
5.6622448
5.5145818
5.5274491
5.3363603
5.3200074
5.1109431
5.3209381
5.3338694
5.127552
5.1069949
4.8804239
4.9041449
5.1293528
5.1483439
5.352039
5.5158711
5.5212852
5.6905906
5.3652145
5.1628928
5.3621504
5.1637958
5.3653668
5.5539651
5.5670302
5.5774591
5.3916558
5.5443922
5.5412808
5.3788539
5.1786993
5.379124
5.541637
5.5443181
5.7128328
5.5770973
5.565145
5.3796725
5.3911423
5.4035968
5.5877324
5.5981918
5.7325176
5.56594
5.5619879
5.4034959
5.5633598
5.5664265
5.4149307
5.4032377
5.5878761
5.454503
5.6451562
5.8157089
5.9656327
6.0984237
6.1015824
5.9733596
5.9009659
6.0389463
6.0372596
5.8917892
5.7257767
5.735617
5.8247566
5.6557338
5.5463261
5.5345052
5.5230124
5.5105252
5.6218283
5.4292051
5.4152097
5.4009887
5.3856426
5.3682248
5.1455518
5.1653022
4.9890067
5.2404122
5.2185502
4.9622269
4.6817605
4.9005443
4.9246942
4.6649632
4.6357516
4.6043584
4.3386824
4.042374
4.4008782
4.1217637
3.6897035
3.6149312
3.9849847
3.6056379
3.9597184
3.9082098
4.2272727
4.182292
4.134229
3.7814895
3.7249296
3.3701049
3.427504
3.8032764
3.4260754
3.3670103
3.3071569
3.2487397
2.8525805
3.229367
2.8237002
2.887701
3.2508786
2.7592838
2.398578
2.3285933
2.003876
2.4583955
2.511522
2.9179848
2.4613839
2.8556351
2.791284
2.389246
2.0320858
2.0887925
1.6986874
2.0605897
2.1104022
2.4492683
2.8121448
3.3106238
3.3690883
2.8672795
2.5024128
3.0035282
2.9448352
2.5680891
2.9766174
3.0347283
2.5678767
2.9700808
2.9115524
2.5127178
2.138586
2.1904334
2.6247949
2.161857
1.7881797
1.7413911
1.2921925
1.5808852
1.8596141
2.2096219
2.1747082
1.5322751
1.2036967
1.8254857
1.7946139
1.1853918
0.68059488
0.64824066
0.93003056
0.57186967
0.32384024
0.36528462
0.25503074
0.54641851
0.97830466
1.5168302
1.5450753
0.99608975
0.80467365
1.2604191
1.2271853
1.6393616
1.2471118
1.5652239
1.8812008
2.279273
2.3138144
1.9167465
1.3035507
1.6963315
1.6799725
1.2810418
1.033361
1.0518381
1.5943125
1.2808492
0.83573903
0.81411146
0.47442463
0.58824014
0.75394897
1.1185184
1.0805813
1.7223422
2.4894991
2.2014656
3.0536274
3.7848551
3.8465949
3.0999903
2.213953
2.2342188
2.5667585
1.7279777
1.2623564
1.2920146
1.3258536
1.3460133
2.2041003
2.9906235
2.9823632
3.0431491
3.7779759
4.376276
4.8496566
5.2251043
5.1643627
5.1996874
5.5017974
5.5457962
5.2573077
5.3050423
5.2736809
5.3158823
5.5943658
5.6174296
5.5906212
5.6302442
5.9075549
6.1928361
6.1609456
6.1736238
6.224501
6.4418476
6.4603848
6.406197
6.207116
5.9321218
5.9751054
6.2344754
6.2247143
5.9450309
6.0267908
6.2704561
6.2395719
5.9928919
6.0965603
6.3050222
6.2897692
6.3534857
6.5139268
6.6451994
6.5298732
6.3886047
6.3301498
6.3382391
6.277788
6.0507651
6.1432952
6.1224923
6.2253683
6.2017989
6.3640515
6.42357
6.4361226
6.411282
6.383977
6.31867
6.4729162
6.4326884
6.1671656
6.2871327
6.087514
6.1369749
6.2422772
6.3840882
6.3520925
6.2065828
6.0267054
5.8464855
5.6957551
5.5085272
5.597764
5.9094158
6.0744948
6.1485806
5.7696087
5.8189848
5.5546728
5.2064619
5.1058354
4.9074199
4.5924824
4.7253732
5.1935779
5.0901667
5.4804137
5.7644495
5.683297
6.0933359
6.3488213
6.5576443
6.5121597
6.5467417
6.5789057
6.6049853
6.5959883
6.4528451
6.440769
6.4503014
6.3947233
6.2416438
6.3325609
6.3227732
6.2979441
6.280965
6.1730571
5.9855952
5.9114633
5.8298121
5.7538159
5.6741681
5.6063015
5.5433725
5.5844372
5.3170669
5.2587067
5.346449
5.3980346
5.6466179
5.687722
5.7099442
5.6528874
5.4011988
5.3452899
5.0033283
4.9584872
4.9051239
4.4381127
4.4996069
4.5692808
4.5083513
4.9505847
4.8963169
4.8408151
4.792124
4.2976184
4.3734897
4.4473163
4.5781307
4.9842054
4.9288084
4.5000702
4.6719587
5.0463902
5.0971588
4.7389717
4.7946676
4.6363819
5.0362652
5.3608508
5.4397729
5.4745655
5.1902615
5.0840082
4.6935202
4.8459928
4.8965217
4.749922
4.6296929
4.5624346
5.0097287
5.0117882
5.0622767
5.3929132
5.393587
5.6529801
5.6726881
5.6530787
5.3850083
5.3546217
5.4196309
5.4540629
5.4287819
5.6858721
5.7015485
5.4605614
5.483763