/*--------------------------------*- C++ -*----------------------------------*\
  =========                 |
  \\      /  F ield         | OpenFOAM: The Open Source CFD Toolbox
   \\    /   O peration     | Website:  https://openfoam.org
    \\  /    A nd           | Version:  7
     \\/     M anipulation  |
\*---------------------------------------------------------------------------*/
FoamFile
{
    version     2.0;
    format      ascii;
    class       surfaceScalarField;
    location    "250";
    object      phi;
}
// * * * * * * * * * * * * * * * * * * * * * * * * * * * * * * * * * * * * * //

dimensions      [1 0 -1 0 0 0 0];

internalField   nonuniform List<scalar> 
76358
(
36.222174
-0.011237691
2.023366
1.4730023
-1.4802219
-2.0334023
0.060786064
-34.803011
6.0092456e-05
2.1429195
2.1298652
-2.092694
-2.1002248
-1.4918904
1.473097
2.031391
-2.0575468
-0.059734414
-36.222357
-1.4920927
1.4728513
-2.0575955
2.0313682
-34.677946
-2.0402513
2.0195244
-2.0330327
1.9937806
0.00082720861
-34.803685
2.1299071
-2.0927401
-2.0996865
2.1437341
0.00063905076
0.010808659
0.00027875597
-2.0834091
2.0762464
2.0773453
-2.0879204
1.472864
2.0233447
-2.0334511
-1.480315
2.076224
2.0769645
-2.0878507
-2.0833193
0.0001265948
-0.05336543
10.409657
0.36939545
-0.37471633
-0.53903367
0.53233025
-0.0098818026
-8.258162
-0.0054109928
9.6659654
-0.0081200791
-7.6824338
10.340612
0.0055893408
-7.4057464
7.4260621
-0.034851223
-0.034581633
0.00077972535
0.0011159305
-9.2591595
0.37624713
-0.38764662
-0.52689608
0.51634388
-0.061002874
-36.221946
1.4732267
2.0314087
-1.4917511
-2.0574559
-2.100243
2.142842
2.1298039
-2.0926466
-34.802843
0.010297042
-2.4926284
-2.5121342
-2.192497
-2.3390241
0.38522637
-0.38269232
-0.39026976
0.53415786
-2.5296333
-2.4597546
-2.1991224
-2.2189921
-0.38834971
0.54396002
0.54282223
-0.38375355
-6.3728487e-05
-0.42605043
-0.015691055
-2.0487416
-0.00039163748
-0.038758566
0.010748573
-7.8104601
-0.5222196
-0.50332493
0.41253889
-8.961967e-05
0.12999251
0.325531
-0.37549892
-0.52817702
0.41907962
-8.2482848
-7.6936189
-0.13124146
-0.024223457
-0.095828096
0.024503704
9.3842328
0.37615262
0.36844828
-0.38062089
-0.38667548
-0.3868447
-0.38081
0.36822338
0.3759648
-9.386798
7.6936783
-0.095301669
-9.6660501
-0.13159023
-0.1293127
0.33168204
-0.3759723
0.41579089
-0.36762934
-0.36743944
-0.37573359
0.41598456
0.33191495
-1.8169551
-0.0035642141
-0.014896051
-0.047185291
-0.04529527
-2.4759458
2.0868871
0.086769372
-0.097805082
-0.13073593
0.106833
-2.6288405
0.0015297078
-0.025422749
0.019217679
-0.63980304
-0.61838046
-0.55980238
-0.61102364
0.022586188
0.1692859
-2.0834668
0.16455527
0.083757293
-0.096762932
0.10156484
-0.12926864
-0.11180169
-2.3438803
-0.47680799
0.0019505088
0.0055811037
-0.0041625815
-0.0021773082
-0.66503611
0.5214908
0.00025488985
-0.65521599
-0.0014282112
0.0069092902
0.004984565
0.00022170243
-0.57157981
0.0047972411
0.013667771
-0.51619102
0.012535027
-0.013226426
-0.62339437
-0.01101617
-0.57673704
-8.7432624e-05
-0.0077268691
-0.00090890986
-0.57616825
0.01087729
-0.023981367
0.020613559
-0.032524336
0.025659857
-0.00030488952
-0.12868968
0.001484132
-0.52802035
-0.00089901208
-0.526295
-0.0067672564
-0.006431787
0.095198968
-0.097537221
-0.13157411
-2.0841238
-0.0097558355
-0.37321869
0.36645011
-0.53692
0.53344025
0.51217838
-0.51932851
-0.5396597
-2.6328267e-05
-9.9070448
2.5269589
-0.13227524
0.13079989
0.1335122
-0.1352285
-0.0024745113
-1.9946197
0.0028776617
0.10755741
-0.1313853
-0.13453474
0.11301234
2.0134255
-0.13419745
0.1125139
0.10738943
-0.12972226
-2.4697969
-5.9528102e-05
-0.034127889
-5.3934963e-05
-0.0058582894
-0.64140331
-0.61837074
-0.56459422
-0.57430072
0.17134271
-6.574833e-05
-0.62653632
-0.64175542
-0.57403156
-0.56882969
0.17013021
-0.52590124
0.005082999
0.0068238924
8.1366183e-05
0.00091725476
-0.65971336
0.53217874
0.00089679127
0.00018612364
-0.66771503
0.0069951621
0.0015234937
-0.0045910904
-0.57705828
0.0016131597
0.012999811
-0.57516524
0.013365591
0.0012859431
-0.56326104
-0.012360321
0.00044004183
-0.56293282
-0.012382768
-0.00096129224
-0.00035626363
0.57607659
-0.012214683
-0.56210431
0.53101544
0.0002842002
-0.66627226
-0.0033873794
0.0070369098
-0.52158658
0.0072379547
-2.0068607e-05
0.00098780101
-0.65199212
-2.0323693e-05
0.57275028
-0.012071724
-0.56002757
-1.9444644e-05
0.0025130676
0.012902619
-2.1678655e-05
0.012939008
-0.0016013367
0.58435132
0.01052925
-0.57760897
-0.0027312559
-0.0049215883
0.58414018
-0.57843515
0.010615036
-0.0042519729
0.58021063
-0.57859271
0.011078057
0.0018982287
0.57216165
-0.57548799
0.010843908
-0.1001614
0.62558457
-0.52054773
0.0095578174
0.11199218
2.2126462
-2.3695262
-0.12832031
-0.092950039
0.087515071
-0.092897094
-0.12824177
0.10024252
0.087576346
0.045365144
2.0834765
0.083842786
0.10164184
-0.12919792
-0.096679931
-2.3438957
0.37557234
1.8169708
-0.046935345
-2.4759763
10.418076
0.32547629
0.41918112
-0.52807497
-8.248447
-0.010044738
8.3795877
-0.20064018
-0.0095414765
-0.062615094
-0.013004341
-9.259184
-0.0032156899
0.51640475
0.37611972
-0.38778873
-0.52685389
0.011447463
0.53419251
0.38506437
-0.38286409
-0.39027892
-2.3390905
-2.4926748
-2.5121044
-2.1924612
0.300599
8.8015327
-0.38823699
0.5441433
-0.38323042
0.54350189
0.00066573234
-2.5297474
-2.2190301
-2.459771
-2.1989792
8.3873355
0.0005152048
-10.129826
-0.074496416
0.00049782207
0.51928646
-0.52733077
0.51705973
-0.5235528
0.00058581577
-0.0034678576
-2.0946662
0.0030849014
0.0011518912
-0.0048740564
0.0013340875
-2.0930386
-1.8942429
0.004718358
-0.0028085431
-0.0026379066
-2.6642318
2.0930232
0.0037369055
-2.6275258
0.0013757759
-2.3247688
0.0031797262
-0.0036742187
-2.3263142
0.0045617836
-2.627556
0.0013513181
-0.0066458539
0.013145836
-2.1037255
0.0038620806
-1.9070489
0.0064620173
-0.015492893
-0.015291147
-2.6418213
2.1036941
-0.013344604
-0.00093771961
-2.4951744
0.01323009
0.0035581297
-2.3076298
0.0039252492
0.0037663196
0.013448892
-0.00035956671
-0.0005174332
-2.3335463
-0.00064703684
-2.4951997
2.1045246
-0.001557927
0.0024441761
-2.4942948
2.6289383
0.022276586
0.0013150342
0.0072094421
0.001083281
2.313301
0.0024886149
-2.3129207
0.0022448648
-0.0033921382
-2.3033062
0.00032918252
-2.0876396
0.00025475273
0.0079365562
-2.6183563
0.00031065626
-2.3031264
0.00038486001
-0.0024315415
-2.2881254
-0.023975369
0.00044676731
0.010959176
-2.2987637
0.0096133418
0.0033087327
0.0078342353
-2.3118242
-0.0020323988
0.00053747953
0.010924178
-2.2942459
2.0978542
0.00035904042
-2.4810319
0.00033948175
-0.54366467
2.6179847
0.02457317
-2.097532
-0.0010216795
0.29971962
8.8009197
-0.010924482
-0.38286763
-0.38744392
0.54468619
-2.4598156
-2.1988939
-2.5296791
-2.2186998
2.0327816
8.3872407
0.010041157
-10.129829
1.99401
2.0202177
-2.0395204
-34.67813
0.0017725541
-2.0923393
-0.51669983
-0.0052167123
0.0034220715
-0.0020469107
-2.3236783
0.0019624952
-0.0038999171
-2.3120106
-0.0038208064
-2.3025588
-0.51719216
-0.00090689436
-2.0873656
0.073656104
0.0036870328
0.51973581
-0.52658297
-0.5232839
0.013494874
-8.3795003
-0.061375146
-0.19936679
-10.418147
9.2584246
0.53475032
0.38552688
-0.38229451
-0.38949708
-2.5120915
-2.1921629
-2.3388987
-2.4926822
0.51687035
-0.52609206
0.3765351
-0.38720673
0.0034980269
-2.0924539
-0.0050476586
-2.0940769
0.00079842388
0.0081288301
-2.6281856
-0.0014015258
0.0084442305
-0.0021679464
-2.302265
-2.3115246
-0.0048447883
0.002089572
-0.023292734
-2.2972742
0.011229865
-0.0042771048
-2.2871679
0.012012457
-0.0027862484
-0.0029388128
0.01223144
-2.2931368
-0.0021176056
-2.4807092
2.1038853
0.00055152653
-0.00040630749
-2.4935921
-0.0039284786
2.6268349
-0.0068603087
-2.1031406
0.013987859
0.0044534654
0.0024340299
-0.0041632907
-2.3251759
0.52621847
0.0022632404
-2.6267001
0.37636016
-0.38737141
-9.2582323
-1.8938655
-2.6637464
-0.38537329
-1.9067155
0.0070089856
-0.38242272
0.53457241
-0.38964269
0.011493307
-2.3389104
-2.1921446
-2.5120577
-2.4926707
-0.015031246
-0.014897485
-2.641504
-0.012517748
-2.4945997
7.256978e-05
2.3064649
0.012808959
0.00050434783
-2.3323686
0.009660764
-2.3102075
0.011403579
0.013766126
2.2655224
-0.0089081894
-2.2721231
-0.0012978387
2.2208438
0.022697073
-2.218608
-0.011900536
0.019894912
2.223672
-2.22204
-0.0079288296
2.2687418
0.010873031
-2.2757523
0.0016504376
0.0028676488
2.2984302
-2.3113946
2.1044034
0.0020527799
-2.4940932
0.00096626627
0.022120731
-2.0976771
0.023280258
-3.8185259e-05
0.0014378996
-2.4807615
-5.4231949e-05
2.2870091
0.010147998
-2.2927936
-5.8019326e-05
-0.0020102139
0.010010075
-3.5720998e-05
0.0096362012
0.0086838729
0.0096258816
-2.2199103
0.014076778
-0.00044927646
0.018369703
-2.2168071
-0.00045186819
2.00214
-0.001407346
-1.9594358
-0.0030322148
-0.01558617
-0.0012011785
-0.0025133756
0.0010573803
0.017817632
-0.0091244535
-2.0013928
-0.015520276
-0.001640551
-0.019207036
-1.9590048
-0.0018912495
2.2140868
-0.011033898
-2.2098244
0.0013306053
-0.011322936
-0.011097696
0.00099366909
-0.01050226
-0.0046964103
-2.2965125
0.0028144485
-0.022935378
-0.013696645
-2.1030337
0.0042184262
-0.0003024978
-2.4944625
-0.00077481392
0.3876132
2.1034646
0.0025176001
-2.4931231
0.0037228079
-2.309414
2.2845002
-0.0023693178
-2.2899993
0.00055733228
-0.024245619
0.00045942315
-0.54341572
-0.0013981018
-2.0965392
0.00025324659
0.54433238
-0.3828135
0.00040065713
-2.2185873
-2.1985199
-2.5295802
-2.4596043
-2.4794666
0.00026221351
0.0090067758
0.00029448862
-0.57239027
-0.57893875
-0.0055600526
-0.58419048
-0.5755718
-0.17211656
0.018224506
0.00064783295
-0.5650959
-0.56856122
-0.0067942762
-0.58175133
-0.57766213
0.025459165
0.0016018433
-0.017097344
-0.56319458
-0.55347944
-0.53001773
-0.55487177
0.0015736636
-0.0023562589
-0.030624447
-0.52970268
-0.49632133
-0.38970082
-0.48641374
-0.025427934
-0.0036064602
-0.026605266
-0.49713424
-0.53199638
-0.48920561
-0.38388624
-0.017135871
-0.00039161788
-0.014415329
-0.55594907
-0.56458973
-0.55646474
-0.53328863
-0.0080182696
-0.0058691181
-0.56940608
-0.58222308
-0.57825423
-0.56611469
-4.3986596e-05
-0.0050858994
-0.57930258
-0.57578905
-0.57284822
-6.0005083e-05
-0.014204205
-0.57852922
-0.57939828
0.0074336186
0.050235843
-0.59919366
-0.57451768
-0.018871029
-0.1643767
-0.050007246
0.014957388
-0.018963547
-0.0033552959
-2.0868958
-0.025394283
0.016011474
0.086756201
-0.0978233
-0.13070595
0.10686116
-2.6288816
0.0018873928
0.63981999
0.0055718308
-0.4768135
0.0020206619
-0.61104394
-0.61837017
-0.55978556
0.022940832
0.16925977
-0.51619417
-0.0001455355
0.012509427
0.0021879899
-0.013141788
-0.62339681
-0.011041473
-0.0040838279
-0.66504491
0.5214932
0.00026116743
-0.65522108
-0.0013230666
0.0069163744
0.0050884731
-0.57158254
0.004902807
0.013665014
-0.57673766
5.3477376e-06
-0.0077308571
0.010785951
-0.57617138
-0.00091484831
-0.00020076383
-0.023988886
0.020607534
-0.03251897
0.025663707
-0.12428932
0.00079983723
-0.48140813
-0.0077132464
-0.0049539982
-2.0757331
0.091134168
-0.095486165
-0.1290059
0.12201258
-0.36638857
-1.7527553
0.0066618724
-0.37328788
-0.5368539
0.52640196
-0.0092252278
-10.409912
-0.012050282
-0.017805372
-2.4768084
0.093473926
-0.093834944
-0.1266086
0.12666459
-0.13092755
-2.3432263
-0.097973916
0.66481665
0.0011686762
-0.47531459
0.00077710622
2.0841812
-0.0010130407
0.13195101
-0.1305431
-0.096844623
-2.6403646
0.095182387
-0.097558133
-0.13154477
0.12872191
-0.0064380122
-0.4765245
-0.0014040221
-0.0020849318
-0.0026672174
-0.001670849
-0.60498244
-0.0058456649
0.0013663341
-0.00058367985
-0.57767615
0.023313052
0.031897976
-0.032337291
-0.023822466
0.52802707
-0.0016730105
-0.65919971
-0.00079096496
-0.13081886
0.65972381
0.0023323821
-0.53266164
0.00063334448
-0.53357222
2.5270262
-0.13226264
-0.13514438
0.13359937
-0.0021987367
-1.9947045
7.8107533
0.51257201
-0.51904574
-0.53959046
0.00037554255
-9.9075487
0.42621143
-0.52210219
-0.50292771
0.41294815
0.00048717044
-2.0487736
-0.038597988
-0.00015292037
0.10758486
-0.13137035
-0.1344519
0.1130987
0.0031765382
0.62656586
0.006852371
-0.52590807
0.0051631771
-0.56885002
-0.64175445
-0.57400172
0.0062183587
0.17026642
-0.57517119
0.0046845921
0.013391756
-0.00094983853
0.0013877834
-0.5632643
-0.012339478
0.00017248914
0.53218272
0.00096026091
0.00030071171
-0.6677231
0.0070534055
0.001636749
-0.57706656
0.0017378328
0.013065015
0.00054908347
-0.56293728
-0.012330326
-0.0010679564
0.57608462
-0.00024731953
-0.56210778
-0.012112485
0.13412067
0.53102343
0.00037469426
-0.66628604
2.0134436
0.11261001
0.10754825
-0.12957155
-2.4698778
0.00021701153
-0.033727104
0.00019488937
-0.64144627
-0.57430434
-0.56452942
-0.61837856
0.17189823
0.00027244425
0.0071309715
-0.0033070503
-0.0024118488
0.013060933
-0.0073802036
-0.57274917
0.013100906
8.719928e-05
-0.52158698
6.9418703e-05
0.0011458377
-0.65200007
7.0402736e-05
-0.56002362
-0.011902186
7.5153965e-05
-0.00014241498
-0.0026302546
8.1757371e-05
-0.54471171
-0.032459387
0.026123118
0.026122132
-0.032406856
-0.00037213769
-0.0025579607
-0.54658205
-0.0325484
0.026125567
-0.032462086
0.026146876
-0.00052425772
-0.0024614471
-0.032617195
0.026044555
0.026146062
-0.032527816
-0.54736932
-0.54837573
-0.032704272
0.025942045
0.02606793
-0.032586914
0.0011457352
-0.54949321
-0.032541768
0.032117186
0.031977919
-0.032346488
0.00018121096
-0.00069217519
-0.66475938
0.53617788
-0.67092921
-0.0011027746
1.7549116e-05
0.00022604769
-0.13326348
-0.5348176
-0.0005368724
-1.9570902
-0.13466012
-0.13012808
0.12891089
0.00019950818
-0.0014778239
0.13587374
-0.1341343
0.13143216
-0.12966205
-2.4783381
0.00017037493
0.13343727
-0.1318514
-0.13458912
0.13625688
-2.5400395
-0.00064145819
-0.53206224
0.00065923949
0.00072234752
-0.52730651
0.00058502762
0.0011235363
0.00065124504
-0.00082313161
-0.65880126
-0.00017385095
-0.66469677
0.48130244
0.00044745524
-0.0038026021
-0.60472974
6.073509e-05
0.0037009627
-0.57740436
8.0077058e-05
0.032483347
0.023847108
-0.023738614
-0.032297951
0.00016835519
0.023899908
0.03257138
-0.032347742
-0.023790854
-0.57680671
-0.00071522353
0.54943841
0.032736989
0.00013467043
0.032629755
-0.03259995
-0.032435272
-0.54902102
-0.0006060588
-0.66484594
0.53495469
-1.1781351e-05
0.00076417865
-0.67090227
0.00079936371
0.00014223256
-0.00018593056
0.54790314
0.00022215512
-0.54785117
-0.032313831
0.032612821
0.032657883
-0.0322457
0.03272699
-0.03249364
-0.032297649
0.032625994
-0.00017345262
-0.131367
0.00018283096
0.16398336
0.00010125083
-0.00023026982
0.16353485
0.0001383564
-0.13113305
-0.023549347
0.16524495
-0.1186487
0.00056993395
-0.1311488
0.6489806
-0.0006589475
-0.51350451
-0.023566625
-0.032795577
0.032845467
0.13073975
2.1293121
0.098663008
-0.098315604
-0.13094466
0.13105645
-0.1310343
0.098593188
-0.098387945
-2.3917583
0.011986146
2.0757107
0.093389096
-0.093909241
0.12658848
-0.12667833
-2.3431918
1.7527247
-0.018007904
-2.4767593
0.0050205888
0.091048974
-0.095570869
-0.12908083
0.12421538
0.12220305
-0.47651618
-0.00078785416
-0.002748952
-0.0020726143
-0.66480271
-0.0013720504
-0.0017843879
-0.65918697
0.0017635919
0.023320567
-0.023814696
-0.032343314
0.031892213
-0.00068789075
-0.57767077
0.48140472
-0.0058178393
-0.60497673
-0.0076848299
-0.13200344
-0.51149283
-0.024013166
0.019825876
0.64657062
0.025746269
-0.033117508
0.00079934984
-0.13219989
0.10142739
-0.099379716
0.10148683
0.13208879
-0.13211072
-0.099314631
0.023116921
0.00034929954
0.032357295
-0.032764527
-0.023592276
-0.64897727
0.1645291
0.00033243279
-0.11848985
6.5803492e-05
0.11806734
-0.00076226577
-0.00077050971
0.15601957
0.0017092347
0.00077797396
0.01526295
0.007504613
-0.15543924
-0.15416179
-0.14247241
0.0021105793
0.0019493529
0.52728544
-0.015413881
-0.030693094
-0.57217915
-0.0018119292
0.026976599
-0.57955083
0.010613329
0.0034518045
0.0070074725
-0.15367763
-0.15635711
-0.14458807
-0.14269899
0.0028542243
0.012696575
0.58129009
-0.00037503243
-0.14793909
-0.15574503
-0.14322165
0.0033482452
-0.14304664
0.030746412
-0.012639417
0.58318543
-0.61928894
-0.0019175885
0.52729053
-0.015342008
-0.57218162
0.5205523
-0.015179419
-0.64657371
0.62560053
0.0095283409
-0.0018246291
-0.59922224
-0.57452111
-0.57214918
-0.018994832
0.014540758
-0.0017495313
0.026922514
-0.010828932
-0.57956533
0.010581331
0.0035422962
-0.57549531
0.0043575812
0.0074846823
-0.15602384
-0.15544564
-0.15415813
-0.14246905
0.0022063896
0.0069734502
-0.14458427
-0.156362
-0.15368537
-0.14269918
0.002934708
0.5813077
-0.00041984338
0.0034127278
-0.14321962
-0.15574934
-0.14794765
-0.14304995
0.00019807401
0.58569075
0.0025636217
0.0034365844
0.63753081
-0.00024819262
-0.58569694
-0.57833961
0.0080068726
0.0078390422
0.0025968511
0.0033614395
-0.58127686
0.0040725071
0.0040252128
-0.15635515
0.0035356931
0.0034859021
-0.14444747
-0.14444394
-0.14384676
-0.0062130883
-0.0061964936
0.0010509703
-0.14606175
0.0010652101
-0.0011257284
-0.022231102
-0.13201058
0.001215233
-0.0019616203
0.0012851775
-0.13025026
-0.025944056
-0.0010329386
-0.025571727
-0.13018066
0.0011460757
-0.0018699628
0.0010141317
-0.13123912
-0.025295099
-0.1307469
0.00089320805
-0.00069592378
7.610439e-05
-0.16400686
0.00040304455
0.14368609
0.00050474147
-0.14551219
0.00022239223
0.13015201
-0.1629674
-7.6416163e-05
0.0014901282
0.00093792379
0.002195951
0.0014010698
-0.14415411
0.0011338313
0.0016422963
0.00074315826
0.00059932906
-0.14529537
0.00030351269
0.033030871
-0.16382728
0.00037655258
-0.4942777
-0.03230113
0.038790458
0.03219821
-0.032603323
-0.031935489
0.031891344
-0.032355348
-0.56050351
-0.00031379868
-0.13160124
0.00033406707
-4.8102927e-05
-0.13156765
-6.3276842e-05
0.00045428266
0.00012120545
-0.00013407502
-0.16477359
-0.00019908902
-0.16524345
0.13095365
0.00011480492
-0.16353511
-7.5749044e-05
-4.1922542e-05
-1.3809655e-05
-0.14583245
0.00017805406
3.6999081e-05
0.00020118676
-0.14589173
9.4105057e-05
-0.00015614122
0.00026808789
0.14558043
-0.1456312
0.00014000698
9.4295462e-05
-0.16458907
0.13006827
0.00010321296
0.00019750292
-0.16221018
0.16185086
0.00043353164
9.2855377e-06
-0.00063859672
0.0003842205
0.14378498
0.00058447973
-0.14478505
0.00037632171
0.0016082926
0.0017576105
-0.14310554
0.0010096201
0.0017677404
0.00033965619
0.00045192277
-0.14378271
0.00047007584
0.032344989
-0.16201266
0.00014128966
-0.038726714
0.025965139
-0.032323393
-0.023913796
0.022247158
-0.52564891
-0.023928137
-0.00076198713
-0.49428002
0.025319354
-0.033006906
-0.032283112
0.025591169
-0.51149588
-0.023987578
0.019850521
0.025768953
-0.03309617
0.00031078864
0.032380325
0.023144105
-0.023565518
-0.032741358
0.032224766
-0.032576338
-0.0319143
0.031911739
-0.56050453
-0.032425205
-0.00030523942
0.16382891
-2.2561402e-05
-0.13160178
0.0003254282
-0.00032760356
0.16400788
-3.7415752e-05
-0.13156778
0.1645306
8.9506223e-05
-0.11849055
0.11806876
-0.00076687951
-0.00074774815
0.0017051589
0.00079781655
-0.13074822
0.00091429089
0.0018623932
-0.00067143668
6.805518e-05
0.00040482872
0.14368707
0.00050071549
-0.14551273
0.00024868257
0.13015212
-0.16296735
-4.6658e-05
0.0014886088
0.00096690673
0.0021918317
0.0014290876
-0.0010344987
0.0011285329
-0.14415588
0.0016694138
-0.13124082
0.0010260738
0.00036851767
-0.0007192784
0.13018269
-0.00061598389
-0.16185259
0.00037128751
0.0011648669
0.0019496944
-0.14378779
0.0015992518
0.0017827585
-0.00059303131
-0.14478697
0.0005755557
0.00040067166
-0.1452965
0.00032902434
-0.00017386035
-0.14558077
0.00032573255
0.00010983785
4.3701093e-05
-0.14583248
6.477644e-05
-0.13095337
1.7203678e-05
0.00017449727
0.00011311852
-4.3423241e-05
-0.00045909108
0.00014842009
-0.00014276317
-0.16477389
0.00019697902
-0.14589152
0.00012359413
-0.00018351615
0.00026110359
-0.14563095
0.00016956699
8.5288885e-05
-0.16458968
0.13006874
0.00022454087
-0.16221043
8.8142611e-05
3.3927666e-05
0.00041939196
-0.14494315
0.00035286325
0.00016297579
-0.14497518
0.00030323098
0.00021444693
-0.00011184011
-0.00021333674
-0.14508437
0.00025234996
0.00018201715
-0.03225584
-0.0002136311
-0.1302078
0.00035499396
-0.49573814
-0.032645303
0.032718319
-0.032028602
0.032937415
-0.00077339187
-0.032588804
0.032921114
0.032389502
-0.032049806
-0.032475543
-0.56147681
0.023851594
-0.023482143
-0.032710969
0.033132366
-0.64981602
0.16526167
0.00042250222
-0.11851893
0.00058626077
-0.00043554401
-0.00025672224
0.13174728
1.2480044e-05
-0.16482659
-0.00016429731
1.0406239e-05
0.00037839447
-0.1460195
0.00017556177
0.00010118828
-0.00011618163
-0.1461102
0.00013448593
8.4872183e-05
-0.16376483
-3.9070548e-05
-0.13107456
9.325441e-05
0.00021035227
0.00013226551
4.0677865e-05
-5.421582e-05
-0.16354103
-0.00047605692
-0.16518361
0.13167142
0.00015242017
-0.00024243552
-0.16476843
0.00019432125
0.00036913606
-0.14602217
9.8616503e-05
0.00010092421
3.8445371e-05
6.7066429e-05
-0.14593458
-0.00013582715
3.5912397e-05
0.14577064
7.0459387e-05
-0.14570274
0.13171729
-6.0145681e-05
-0.16462422
0.16465408
0.00016948859
0.00018397685
0.13176906
5.0644819e-05
2.4777672e-05
6.2456695e-05
-0.14574629
0.00014002478
0.0001596486
-0.14583366
0.0001128455
-8.6885457e-05
-0.14517028
0.00018770019
0.00014474346
-0.16231988
2.1372863e-05
-0.130204
0.00017785845
0.00026524906
0.00012397037
-0.00012918986
-0.16230873
0.145128
3.2642728e-05
7.5453034e-05
-0.14507621
-0.00010715742
0.0001158086
0.00012692209
0.00011242152
-0.00010801655
-0.14442792
0.00012326907
0.14442108
0.00010400253
-9.6646846e-05
0.14570004
8.4927284e-05
-0.14569542
0.16410679
8.0421347e-05
-0.13133652
0.00015015634
5.6928315e-05
0.14565392
0.00010969756
0.00017145012
0.14558159
0.00013160122
0.00022474841
-0.00014923223
0.14546846
0.00024227022
0.00014368952
0.13118003
6.8907445e-05
0.16323735
-3.3306256e-05
0.00011037081
0.13079868
-0.00047270857
0.00016044671
0.155832
0.001552615
0.00032302059
0.57860942
0.0074190344
0.0021256159
-0.14417152
-0.14324964
-0.155034
0.58025907
0.011083468
0.0050162204
-0.57858772
-0.58415826
-0.57943894
0.0074600918
0.005496228
-0.58016071
0.0041958311
0.01200293
0.0022971506
0.0066995287
-0.14502532
-0.1461984
-0.14439039
-0.14318954
-0.0072573224
0.57852598
0.006431854
0.0010818674
-0.14490506
-0.1452048
-0.14336101
-0.14301435
0.57846325
0.00083419537
-0.15520678
-0.14340101
-0.1431311
-0.1550206
0.010650273
0.0017359515
0.012099652
0.0018334978
-0.0030978582
0.58318813
-0.57498977
0.0049743683
0.0020247805
0.58583747
0.0043806853
-0.57787649
-0.57657729
-0.5711515
0.0062893422
0.014107826
-0.57559113
0.0027053974
0.0047616363
-0.0050908621
0.0030290075
-0.14371797
-0.14456488
-0.14322038
-0.1425631
0.0040727519
0.0025301777
-0.14360406
-0.14489838
-0.14404915
-0.14283368
0.0051174433
0.001553587
-0.14339318
-0.14378846
-0.14298841
-0.14252872
0.57204609
0.002493596
-0.14269679
-0.14338828
-0.14286342
-0.14206531
0.0046205578
0.0028676907
0.0057066661
-0.0050998064
0.56988466
0.0018153884
-0.56960301
0.0058704635
-0.01210529
-0.00010660185
0.58254472
-0.57340785
-0.010616287
0.5794068
-0.57745643
-0.0016058652
0.58444447
-0.0026182803
-0.5776456
-0.57582639
-0.57286845
0.0084919161
0.00041673464
-0.57609338
0.010641632
0.00010799088
9.84771e-05
0.0074808563
-0.15485416
-0.14306311
-0.1430059
-0.15475157
9.9837447e-05
0.0073750174
-0.15506284
-0.14318187
-0.15489837
-0.14305735
0.00024312454
0.0065554437
-0.14484088
-0.14497711
-0.14307864
-0.14290149
0.57627024
0.0067653276
0.00012661858
-0.14284347
-0.14292446
-0.14486531
-0.14480496
0.012290184
0.0001473788
0.57856344
0.0056850275
-0.57225745
0.00019256431
-0.56672949
0.00065579508
0.017601874
-0.56747373
0.00032660736
0.0079180511
-0.0019044299
-0.0060995084
-0.14135884
-0.14257996
0.00028311715
0.0073916813
-0.1408562
-0.14234958
-0.0055126951
-0.14210265
-0.14295517
-0.14255699
-0.14145396
0.0055676249
0.0008049118
-0.14326298
-0.14347616
-0.14259379
-0.1422835
-0.143304
-0.14230592
0.000175332
-0.1432054
-0.14214673
-0.00024783554
0.0011219855
-0.14281965
0.00012406241
-0.0014825676
-0.00026136982
-0.0014431696
-0.14287997
0.0010736925
-0.00040305739
-0.0013868049
0.001000264
-0.14294793
-0.0003751697
-0.0013381787
-0.14302838
0.00094549723
-0.00065528318
-0.0013058754
0.00090487435
-0.14310735
-0.00063468779
-0.0012858099
-0.1432272
0.00088835313
-0.0017913227
0.0010390953
-0.14331732
-0.0014635235
-0.0013025413
0.0010002309
-0.14310938
-0.13025245
0.0011154022
0.00012869258
-0.00031850592
-0.16201474
0.13201249
9.7838965e-06
-0.0090756307
-0.14673174
0.001230902
-0.14375018
0.0012809873
0.0016503801
-0.00044020097
0.00042401577
-0.14429276
0.00056854979
-0.14378556
0.00049303139
-0.00014962675
-0.14390136
0.00036890467
0.00024938244
-0.032339008
-0.12960399
0.00019802512
0.032314032
-0.032246015
-0.59155969
-0.024066827
0.024520838
-0.024048657
-0.032219815
0.024537664
-0.12960324
0.0002120727
0.0001260652
0.00025768817
-0.16227452
0.00027078786
-0.00031367009
-0.14393554
0.14389969
0.00024659725
0.00036060546
0.14494224
-0.14497518
0.00018486382
-0.00033246868
0.00036260087
0.00013634414
8.2542205e-05
-0.00021376395
0.00039035411
0.14391539
0.00019153966
-0.14420098
3.5379646e-05
0.14511913
0.00013667015
-0.14546795
-0.032118835
0.16323587
8.3634397e-05
-0.1311791
0.0011804584
6.5653754e-05
0.54837145
-0.54948682
0.031963541
-0.032361348
-0.032539664
0.53265021
-0.00078904994
-0.66474033
0.00053909183
0.0022986305
-0.53616744
0.0023958141
0.00010789032
-0.0011710759
-0.67090977
-0.00010414417
0.54736321
-0.54789512
-0.032370426
0.031956592
0.031999984
-0.032310749
0.00015107971
-0.00040915079
-0.032622193
0.026035767
0.026123065
-0.032550739
0.00024945614
0.025941621
-0.032702093
-0.032600147
0.026055621
0.15582475
-0.13079708
0.00030074164
0.0015511337
0.002017834
0.0074159125
-0.15503537
-0.14325282
-0.14416326
0.0072251853
0.00071376033
-0.15519558
-0.15501888
-0.14339079
-0.14313378
-0.0022047209
0.57845352
0.00097109793
0.0064278745
-0.14489578
-0.14518635
-0.14333972
-0.14300072
0.5801237
0.0067162242
-0.14618837
-0.14502408
-0.14318449
-0.14437757
0.0041117865
0.012012561
0.0017009311
0.012081125
-0.57734651
-0.0017333598
0.012007471
-0.0072901999
0.00010822508
0.0065027153
-0.14304571
-0.14494689
-0.14482245
-0.1428811
-0.00022757657
-0.14317029
-0.15504675
-0.15489338
-0.1430621
0.57606875
0.0073091368
-0.14305633
-0.15483581
-0.1547459
-0.14302002
-1.9130325e-05
0.01047211
-2.1050454e-05
-0.57616281
0.012071718
-1.8382736e-05
0.0066027307
-0.14288951
-0.14482704
-0.14478386
-0.1428342
-1.3562796e-05
-0.00065657655
0.57193791
0.0059625152
-0.14219961
-0.1432188
-0.143139
-0.14206988
-1.3820487e-05
-0.0014559375
0.0055092787
0.57314043
-0.14251786
-0.14341671
-0.1432073
-0.14220576
-0.0024549913
0.57484227
0.005144195
-0.1437582
-0.14336465
-0.14248696
-0.14294972
0.57781285
0.0051264209
-0.14488541
-0.14359531
-0.14281784
-0.14403123
0.58575305
0.00302762
0.0044061796
-0.58306628
-0.57095525
-0.57648473
0.014268269
0.0049912818
0.0018934491
-0.0026589035
-0.57181767
0.0027567642
0.0057558477
-0.57552313
0.0048108964
0.0029641336
-0.144552
-0.14320636
-0.14370139
-0.14254373
0.0041285361
0.002398769
-0.14264262
-0.14334368
-0.1428088
-0.14199567
0.0046826592
0.56906391
0.0016997995
-0.14284325
-0.14242693
-0.14196152
-0.14127405
0.0056500878
-0.0050609098
0.0016378573
0.0058376468
-0.00024264144
0.0055374072
-2.4653179e-05
-0.56659774
0.0077321323
-7.381823e-05
-0.14237665
-0.14107256
-0.14216224
-0.14058144
0.0073016447
-4.4178778e-05
-0.0015393564
-0.0004534579
0.0014452942
-0.14204081
0.00021167911
-0.0010989295
-0.00031575423
-0.14246283
0.00013854447
-0.0014440907
-0.14275331
-0.00020385416
8.3525336e-05
-0.0011765031
-0.00014308925
5.5085511e-05
-0.14306909
-0.0025222999
-9.0970018e-05
-0.14342051
3.0237388e-05
-0.001740198
-6.0379361e-05
1.6173447e-05
-0.14379423
-0.026083625
-2.6347274e-05
-0.13046194
-4.0973026e-06
-0.0024685537
-2.0541078e-05
-0.54470653
-0.032492773
-0.03246418
0.026062949
-2.1569787e-05
-0.12875751
0.00062979606
-0.52631268
-2.0281608e-05
-1.9569717
0.13318255
-0.13473384
-0.13027762
-4.9872039e-05
-0.00123814
0.13578959
-0.13419659
-0.12978855
0.13127594
-3.174676e-05
-2.4781108
0.0013046782
-0.13185937
0.13341711
0.13616675
-0.13466216
-2.5398846
0.097990136
-0.09682418
-0.13056706
0.13191723
-2.6402631
-0.47530223
0.0010892106
0.00078954771
-0.0011980263
-0.00016187569
-0.66467575
0.52729152
0.00064491162
-0.00092607592
-0.65877544
0.00057880427
0.0005321821
3.2760946e-05
-0.57739379
-2.7214841e-05
0.032476834
0.023854573
-0.023730457
-0.032304678
-0.48129534
0.0037293931
0.00035574342
-0.0037750004
-0.60471628
6.1490486e-05
0.023907215
-0.023782872
-0.032354564
0.032563776
-0.57678818
-0.00067903771
1.420996e-05
0.54942547
0.032611294
0.032737275
-0.032598189
-0.032453065
-0.54899647
0.53204128
-0.00069637256
-0.66480939
0.00056391971
0.00068632146
-0.53493065
0.00072866392
2.288443e-05
0.00069207959
-0.00012405016
-0.67085722
0.54783448
1.9484162e-05
0.03261619
0.032609491
-0.032454311
-0.032434433
-0.54748462
-6.5926258e-05
9.4856882e-05
-0.032321367
0.032605294
0.032630164
-0.032274991
0.032728312
-0.03249187
-0.032314554
0.032609943
-0.00013990973
0.16398218
-0.13136578
7.2042982e-05
0.00017977968
-0.00020498029
-0.13113299
0.0001397848
-0.023521583
-0.11864709
0.0005748198
-0.5134998
-0.023595217
-0.03282103
0.03282124
-0.00061820596
0.023822132
0.000814696
0.033105899
-0.032736456
-0.023509876
-0.64980549
0.16525908
0.00059101145
-0.1185167
0.00039595821
-0.00028296135
-0.00043073051
0.00011728867
-0.16376399
-7.3923259e-05
1.7597538e-05
0.14601958
-0.14610984
0.00013821505
5.1733632e-05
0.13174676
-0.16482571
-0.0001552191
-1.8162355e-05
0.00038739304
0.00017960275
6.9872403e-05
-3.3133507e-05
-0.14574673
0.00022037908
0.00010789273
-0.032689421
-0.13176846
0.0002230715
-0.49573641
-0.032053621
-0.03267578
0.032232779
0.033015079
0.032888948
-0.032620407
-0.03207686
0.032362833
-0.032392153
-0.56147202
-0.00037828186
-0.13171617
0.00017936643
0.16465313
0.00015090924
-0.13167036
0.00016327826
0.00047154585
0.00012099036
-0.00023360426
-0.16476575
-0.00015882416
-0.16517908
0.13107304
4.1144821e-05
-9.0055609e-05
-0.16353752
9.3966296e-05
0.00017481774
-0.14602088
6.6343029e-05
0.00010193963
4.1435477e-05
3.1680638e-05
-0.14593186
-0.00010183059