/*--------------------------------*- C++ -*----------------------------------*\
  =========                 |
  \\      /  F ield         | OpenFOAM: The Open Source CFD Toolbox
   \\    /   O peration     | Website:  https://openfoam.org
    \\  /    A nd           | Version:  7
     \\/     M anipulation  |
\*---------------------------------------------------------------------------*/
FoamFile
{
    version     2.0;
    format      ascii;
    class       volVectorField;
    location    "250";
    object      U;
}
// * * * * * * * * * * * * * * * * * * * * * * * * * * * * * * * * * * * * * //

dimensions      [0 1 -1 0 0 0 0];

internalField   nonuniform List<vector> 
25278
(
(120.02766 0.0084295742 0.0079853853)
(120.02274 -0.001641871 -0.017359624)
(120.01988 -0.0023791798 -0.0076697936)
(120.02071 -0.0071954421 -0.0053328911)
(119.99769 -0.022499755 -0.0088801767)
(120.02555 -0.020078448 -0.0059521921)
(120.0331 0.0081053637 0.0023777605)
(120.02833 0.0084204658 0.0070108918)
(120.03053 0.0038466351 0.0089646998)
(120.0441 0.0076357809 0.0075418643)
(120.03836 0.0046541235 0.0042126257)
(120.03205 0.0057467971 0.0038779585)
(120.02832 -0.0049138804 -0.0076057726)
(120.01658 -0.013163616 -0.016524995)
(119.89605 -0.044684636 -0.074083805)
(120.01963 0.0016143404 -0.0084344148)
(120.02219 0.0010776923 -0.017247213)
(119.93503 -0.055100346 -0.094859956)
(119.87238 -0.017166613 -0.12706679)
(119.9707 -0.022269218 -0.11464843)
(120.01453 -0.0055956433 -0.05505042)
(120.01834 -0.016643545 -0.045143819)
(120.01918 -0.01985717 -0.031734787)
(120.03749 -0.010293292 -0.017005151)
(120.06058 -0.021861685 -0.027897566)
(120.0388 -0.015153959 -0.015286639)
(120.02019 -0.029528484 -0.026099464)
(120.02313 -0.044693488 -0.05188122)
(119.99955 -0.040694679 -0.076104189)
(120.03206 -0.038847744 -0.072763904)
(120.03318 -0.037897752 -0.093473198)
(119.98721 -0.039122027 -0.10293677)
(119.96074 -0.086725446 -0.16310309)
(119.98538 -0.081444476 -0.11231543)
(120.03861 -0.072755063 -0.11112629)
(120.01924 -0.067429537 -0.13406476)
(120.046 -0.063088259 -0.12865411)
(120.04165 -0.06038019 -0.15273911)
(120.00768 -0.063175705 -0.15977761)
(119.98789 -0.097275015 -0.20282965)
(120.00408 -0.10037705 -0.1644613)
(120.04272 -0.09398855 -0.16076672)
(120.03344 -0.092000615 -0.19447899)
(120.08306 -0.081918379 -0.17078422)
(120.07662 -0.050786856 -0.13227446)
(120.07457 -0.025498278 -0.067772544)
(120.04616 -0.0062406821 -0.025004063)
(120.05327 -0.0037600742 -0.031010344)
(120.0774 -0.015768241 -0.079776867)
(120.0237 -0.023448875 -0.10898788)
(120.01569 -0.0058972806 -0.11416708)
(119.95796 -0.0047991922 -0.11652687)
(119.88481 -0.014435989 -0.2070295)
(119.92157 -0.058520871 -0.20575328)
(119.99482 -0.05267827 -0.17414051)
(120.03221 -0.051344704 -0.17056741)
(120.02282 -0.037209356 -0.18642273)
(119.98034 -0.035798356 -0.18940416)
(119.94191 -0.062924538 -0.25274861)
(119.96583 -0.08591841 -0.22844796)
(120.01466 -0.083307964 -0.22675649)
(119.99838 -0.063908249 -0.25054438)
(119.97615 -0.039004304 -0.2635815)
(120.01228 -0.021576221 -0.1933729)
(119.96803 -0.019961008 -0.19081233)
(119.96082 -0.0034448812 -0.19329391)
(120.00662 -0.0041651829 -0.19663906)
(119.9661 -0.010039501 -0.26794228)
(119.90433 -0.0099368317 -0.25886266)
(119.91725 -0.036558143 -0.25543203)
(119.82386 -0.057589488 -0.32875754)
(119.87115 -0.095072654 -0.32453043)
(119.91317 -0.12497899 -0.28458763)
(119.94852 -0.13936592 -0.24704046)
(119.97875 -0.13267896 -0.19144926)
(120.02323 -0.12913116 -0.14044624)
(120.03931 -0.10517317 -0.086205419)
(120.03346 -0.070174543 -0.051431971)
(120.0205 -0.046783878 -0.02652603)
(119.98563 -0.048812605 -0.030198352)
(119.96165 -0.041526065 -0.026167854)
(119.89653 -0.074174508 -0.057066797)
(119.93586 -0.093987323 -0.068696378)
(119.87323 -0.14360841 -0.035509402)
(119.97292 -0.063007487 -0.017084373)
(119.94277 -0.051441578 -0.013793342)
(119.82778 -0.1095946 -0.02734907)
(119.59103 -0.16702038 -0.081258158)
(119.71101 -0.11957008 -0.10323886)
(119.81758 -0.083780291 -0.09055873)
(119.83577 -0.10147915 -0.1090772)
(119.72884 -0.11293133 -0.13812842)
(119.70987 -0.092289164 -0.11897705)
(119.51578 -0.15996743 -0.16492012)
(119.54603 -0.17854926 -0.18464212)
(119.73073 -0.13758104 -0.12480006)
(119.76412 -0.15576326 -0.13761168)
(119.86059 -0.10797571 -0.11637728)
(119.89199 -0.12825669 -0.13780377)
(119.79846 -0.15351626 -0.19368935)
(119.76203 -0.12483801 -0.15745921)
(119.57793 -0.21365887 -0.22087993)
(119.62724 -0.25617347 -0.26362786)
(119.8011 -0.19032162 -0.16709555)
(119.69321 -0.27629756 -0.13521607)
(119.6531 -0.22150601 -0.10751795)
(119.61558 -0.19201201 -0.09794376)
(119.22742 -0.31941279 -0.16530871)
(119.18573 -0.27860393 -0.15096954)
(118.8202 -0.30633099 -0.077372599)
(119.47471 -0.1625702 -0.031793556)
(119.49644 -0.17502557 -0.038649391)
(118.85411 -0.33558752 -0.088059552)
(118.86921 -0.41143593 -0.11186391)
(119.2701 -0.39015385 -0.18977724)
(119.34046 -0.47217909 -0.24140757)
(118.89303 -0.5209268 -0.16213707)
(119.56621 -0.26305713 -0.060422411)
(119.53484 -0.2007919 -0.04323344)
(119.51806 -0.21938672 0.012321079)
(119.86653 -0.16086224 0.018310303)
(119.97266 -0.069258722 0.0045726586)
(119.99831 -0.02612924 0.0033415124)
(119.67393 -0.12272647 0.14022379)
(119.46327 -0.20204533 0.18491611)
(119.12386 -0.33097456 0.15542271)
(118.78495 -0.33660826 0.043842901)
(119.4602 -0.17710845 0.008423227)
(119.81919 -0.12492131 0.01165102)
(119.9411 -0.057659624 0.0021954848)
(119.95949 -0.052253432 0.022886431)
(119.98562 -0.059567214 0.026899324)
(119.92849 -0.11670231 0.071288478)
(119.88565 -0.095482462 0.059512877)
(119.68029 -0.15159877 0.11121746)
(119.56028 -0.19945993 0.076688709)
(119.5829 -0.22913283 0.093854697)
(119.48068 -0.19166743 0.010309147)
(118.81401 -0.37290797 0.048686148)
(119.16059 -0.3788424 0.17181319)
(119.1985 -0.45765157 0.2007231)
(118.82271 -0.45783704 0.065700229)
(118.8404 -0.57847433 0.10685012)
(119.54826 -0.28787122 0.024241238)
(119.65798 -0.32220973 0.13323968)
(119.6204 -0.26159213 0.10423868)
(119.73359 -0.19369215 0.1480995)
(119.69889 -0.17319687 0.13421574)
(119.49107 -0.2250359 0.20650861)
(119.69248 -0.14629636 0.16143675)
(119.88274 -0.063424253 0.089347554)
(119.7952 -0.11046685 0.10277949)
(119.81405 -0.13051795 0.12313003)
(119.84088 -0.13737966 0.1309199)
(119.92697 -0.074017406 0.11049527)
(119.87402 -0.16000431 0.15440324)
(119.77064 -0.23280761 0.18006185)
(119.56896 -0.31196882 0.29227086)
(119.26245 -0.54740929 0.25754511)
(118.2912 -0.6692202 0.62259071)
(116.07148 -0.62906501 0.64576034)
(116.22445 -0.56779234 -0.76964654)
(118.46497 -0.55467107 -0.56589856)
(119.31893 -0.23347367 -0.4701584)
(119.6838 -0.11872793 -0.26880554)
(119.64614 -0.092026521 -0.21117542)
(119.52399 -0.017487448 -0.16679794)
(119.5516 -0.030474125 -0.23343907)
(118.82449 -0.11902519 -0.48555056)
(118.81527 -0.073666804 -0.37153907)
(119.25305 -0.18113838 -0.38451801)
(118.31788 -0.46281625 -0.47021756)
(116.13434 -0.47259041 -0.37594287)
(115.98846 -0.66195828 -0.52286882)
(104.07974 -1.6761223 -1.5569876)
(105.92892 -1.2478956 -1.1496102)
(116.30542 -0.43492 -0.57057231)
(116.17268 -0.49103056 0.46702899)
(105.90632 -1.4375867 1.2706514)
(104.01811 -1.9438273 1.6757437)
(115.66311 -0.86455906 0.53446429)
(115.85825 -0.65722819 0.41699621)
(118.16493 -0.56317404 0.51380246)
(119.16023 -0.22331506 0.43252735)
(119.52094 -0.26539127 0.24585285)
(119.72744 -0.15901293 0.18219004)
(119.76434 -0.190211 0.22113808)
(119.63418 -0.1474896 0.30989425)
(119.22296 -0.27912489 0.51961049)
(118.68598 -0.17504648 0.54876002)
(118.69315 -0.12283508 0.43641031)
(119.46459 -0.042008368 0.20938847)
(119.85476 -0.032004571 0.15423045)
(119.59714 -0.11936131 0.24932345)
(119.48846 -0.05805246 0.2757167)
(119.60081 -0.071801232 0.35603762)
(118.75807 -0.25279716 0.70498718)
(115.48415 -1.1055841 0.91952108)
(101.69418 -2.6562566 2.2156698)
(101.77595 -2.2630931 -2.1387778)
(115.88515 -0.91310027 -0.88608605)
(118.90564 -0.1909071 -0.63986754)
(119.65907 -0.044519496 -0.30764378)
(119.77971 -0.13315958 -0.31138152)
(119.87819 -0.16232243 -0.2183407)
(119.94934 -0.12789256 -0.13826568)
(119.9859 -0.10634834 -0.094128824)
(120.00067 -0.0735611 -0.053027175)
(119.98846 -0.10575012 -0.054524089)
(120.03527 -0.095704112 -0.053930967)
(120.02061 -0.13273151 -0.084201294)
(119.96196 -0.16300968 -0.10384429)
(120.00501 -0.16122508 -0.11710401)
(120.0435 -0.15736413 -0.11138739)
(120.04747 -0.12731655 -0.080234352)
(120.04335 -0.15520983 -0.079311524)
(120.00913 -0.16240761 -0.081666829)
(119.98927 -0.20342048 -0.11622241)
(120.03453 -0.19470474 -0.11165441)
(120.08415 -0.17084803 -0.10256032)
(120.08575 -0.1366756 -0.098749278)
(120.09161 -0.07439511 -0.063126061)
(120.06279 -0.050129503 -0.037149731)
(120.04947 -0.026107228 -0.014095281)
(120.07607 -0.019146657 -0.015268797)
(120.11861 -0.027036228 -0.02797836)
(120.12181 -0.053740867 -0.038650818)
(120.10144 -0.031108216 -0.019733335)
(120.07807 -0.069628455 -0.040672653)
(120.07673 -0.1091227 -0.069250171)
(120.1049 -0.081947649 -0.0542528)
(120.12748 -0.10528197 -0.079156277)
(120.13509 -0.1346905 -0.084850368)
(120.1136 -0.10458058 -0.057266914)
(120.07876 -0.13472184 -0.069870788)
(120.07543 -0.15620412 -0.064926481)
(120.08223 -0.088724749 -0.032676152)
(120.05999 -0.039115584 -0.012331978)
(120.01839 -0.06517322 -0.016503864)
(119.9726 -0.12411474 -0.038942015)
(120.02672 -0.11879926 -0.040965203)
(119.99689 -0.1814409 -0.072395734)
(119.92369 -0.21558252 -0.078507205)
(119.96811 -0.23452361 -0.10662239)
(120.01651 -0.23283767 -0.10499489)
(120.03444 -0.17795995 -0.071685881)
(120.0255 -0.20049738 -0.058626709)
(119.98262 -0.2035808 -0.056607136)
(119.94525 -0.26581679 -0.085741007)
(120.0011 -0.26327359 -0.087569029)
(119.97931 -0.28664772 -0.063649592)
(120.0154 -0.21489809 -0.042853889)
(120.0195 -0.13496467 -0.022476419)
(119.95924 -0.13764705 -0.020792739)
(119.88658 -0.23410634 -0.037156239)
(119.97075 -0.21207844 -0.040774114)
(119.92101 -0.27837715 -0.060458058)
(119.90653 -0.29459298 -0.033066014)
(119.96248 -0.22489387 -0.022265646)
(120.00946 -0.22826973 -0.023477126)
(119.96849 -0.30316332 -0.03388757)
(120.04047 -0.28671904 -0.034019675)
(120.05005 -0.26799077 -0.063871166)
(120.0643 -0.24138992 -0.085034843)
(120.07573 -0.20983573 -0.099286705)
(120.1369 -0.16829391 -0.083963738)
(120.11611 -0.12315902 -0.053873623)
(120.11759 -0.14384927 -0.047388157)
(120.07078 -0.17834349 -0.054136806)
(120.065 -0.1937876 -0.040978238)
(120.08424 -0.10519175 -0.020240082)
(120.12648 -0.05080479 -0.014414001)
(120.11531 -0.039824898 -0.016152997)
(120.144 -0.080791456 -0.038679803)
(120.13655 -0.067919071 -0.040638963)
(120.14739 -0.022936194 -0.020681485)
(120.12843 -0.015317277 -0.016831281)
(120.16573 -0.019675109 -0.02472539)
(120.15429 -0.066523844 -0.054727081)
(120.17146 -0.084875028 -0.057932514)
(120.18949 -0.031682701 -0.029599203)
(120.20915 -0.042700905 -0.032171664)
(120.15885 -0.028556861 -0.019811997)
(120.17109 -0.036966227 -0.021853386)
(120.15128 -0.096612279 -0.036597928)
(120.1903 -0.13219842 -0.058015291)
(120.18339 -0.1085776 -0.060687452)
(120.18791 -0.15398172 -0.092208283)
(120.18443 -0.13602461 -0.089776157)
(120.17593 -0.11738234 -0.085966138)
(120.17961 -0.078962615 -0.069500624)
(120.16382 -0.028393864 -0.040608123)
(120.11685 -0.015683746 -0.032784641)
(120.07352 -0.0050526206 -0.021612397)
(120.06084 -0.025593547 -0.052696659)
(120.09056 -0.050022075 -0.080389421)
(120.07496 -0.052208697 -0.11059255)
(120.10252 -0.037194792 -0.083405745)
(120.1107 -0.037949674 -0.10209408)
(120.13353 -0.063331027 -0.13464453)
(120.12618 -0.060815691 -0.10898623)
(120.08483 -0.080966927 -0.14037166)
(120.08575 -0.1145016 -0.17357232)
(120.11239 -0.095183052 -0.10725227)
(120.14127 -0.086805957 -0.13426681)
(120.12559 -0.09974941 -0.17589831)
(120.0975 -0.11201467 -0.19650645)
(120.06745 -0.12028252 -0.21057765)
(120.00886 -0.14276917 -0.24917344)
(120.02893 -0.13177975 -0.19154492)
(120.01146 -0.19007359 -0.23821646)
(119.94371 -0.1937714 -0.23195444)
(119.90298 -0.20639271 -0.30656664)
(119.98373 -0.20761413 -0.31131441)
(119.92535 -0.30573928 -0.37919025)
(119.97619 -0.25969573 -0.27114152)
(120.01219 -0.22936148 -0.20442243)
(120.02972 -0.18546423 -0.14828466)
(119.97979 -0.18576743 -0.14845628)
(119.88057 -0.21394601 -0.17708814)
(119.94475 -0.22365616 -0.20696605)
(119.90663 -0.30183466 -0.22187038)
(119.95076 -0.2452397 -0.15764015)
(120.01043 -0.24680008 -0.16172579)
(119.98626 -0.30582166 -0.22426834)
(119.92856 -0.37095072 -0.31913782)
(119.83268 -0.3555028 -0.2939692)
(119.89872 -0.24934505 -0.25979481)
(119.72378 -0.30449078 -0.31264989)
(119.82853 -0.28124457 -0.36233695)
(119.72812 -0.41508655 -0.42343218)
(119.8575 -0.43840416 -0.44844053)
(119.99716 -0.37716946 -0.38939621)
(120.01663 -0.31970053 -0.36612722)
(120.03609 -0.25927927 -0.32535602)
(120.04929 -0.21614645 -0.29772014)
(120.05922 -0.17371399 -0.26616602)
(120.06364 -0.14651778 -0.24088983)
(120.10032 -0.13595633 -0.22541243)
(120.09601 -0.13890341 -0.25599839)
(120.09495 -0.11246822 -0.2215452)
(120.05899 -0.12011746 -0.23699875)
(120.05554 -0.14946224 -0.27445852)
(120.04724 -0.18466594 -0.30766508)
(120.09289 -0.17606995 -0.29087658)
(120.10017 -0.16438982 -0.25056471)
(120.08581 -0.16933092 -0.21876828)
(120.16365 -0.13230616 -0.17525653)
(120.13842 -0.14744706 -0.22645057)
(120.13331 -0.12170934 -0.20131243)
(120.16623 -0.10138125 -0.17174386)
(120.15305 -0.081842155 -0.14812423)
(120.15783 -0.083894632 -0.1691542)
(120.12617 -0.099888814 -0.19918581)
(120.13193 -0.12377855 -0.22923215)
(120.169 -0.10558114 -0.19745833)
(120.17969 -0.13550051 -0.22742191)
(120.17697 -0.12375581 -0.19319104)
(120.19108 -0.1551619 -0.22011953)
(120.14493 -0.18343903 -0.25617846)
(120.09931 -0.20291638 -0.28263741)
(120.09025 -0.21468951 -0.32952231)
(120.03612 -0.22802574 -0.3491203)
(120.01591 -0.28019517 -0.38631779)
(120.07834 -0.27036764 -0.36988929)
(120.09169 -0.24853855 -0.3115073)
(120.07298 -0.24408048 -0.25707428)
(120.08619 -0.20905095 -0.18494414)
(120.08627 -0.16699691 -0.13169092)
(120.14181 -0.12746037 -0.10507206)
(120.16375 -0.16445566 -0.14981609)
(120.13875 -0.21993486 -0.16773704)
(120.13371 -0.19666213 -0.14237585)
(120.12631 -0.17300299 -0.12066407)
(120.09829 -0.19370713 -0.13230762)
(120.06843 -0.2077777 -0.13988647)
(120.06459 -0.23657273 -0.16535916)
(120.10095 -0.22095764 -0.15571829)
(120.09687 -0.25367407 -0.16003691)
(120.09585 -0.22107462 -0.13399751)
(120.06015 -0.23654109 -0.14092073)
(120.05694 -0.27222841 -0.16962112)
(120.0492 -0.30391369 -0.20403186)
(120.06041 -0.2603191 -0.19173297)
(120.10097 -0.24444662 -0.18351345)
(120.10027 -0.27450014 -0.22102447)
(120.05079 -0.29009733 -0.23281894)
(120.03883 -0.3433965 -0.24602701)
(120.09198 -0.32339083 -0.23424531)
(120.09415 -0.28685076 -0.19656742)
(120.13719 -0.25955735 -0.17988562)
(120.13238 -0.22685849 -0.14609563)
(120.12687 -0.19875374 -0.12224155)
(120.15852 -0.1688469 -0.10721947)
(120.15384 -0.14529119 -0.1036032)
(120.16647 -0.16704464 -0.12319919)
(120.1692 -0.19513263 -0.12918562)
(120.17972 -0.22311888 -0.15932715)
(120.17705 -0.18646019 -0.14554362)
(120.19109 -0.21077538 -0.17668808)
(120.14536 -0.24740848 -0.20301573)
(120.1409 -0.29324773 -0.21556038)
(120.19186 -0.25322379 -0.1915442)
(120.23685 -0.2039354 -0.1590304)
(120.2293 -0.1694915 -0.14521968)
(120.21963 -0.10021526 -0.096984748)
(120.24812 -0.023893683 -0.038288853)
(120.19788 -0.019186789 -0.029643835)
(120.20609 -0.050370342 -0.046849537)
(120.19505 -0.081616497 -0.064430683)
(120.21671 -0.094566548 -0.077409611)
(120.19354 -0.13332873 -0.10145973)
(120.20069 -0.15517159 -0.1071314)
(120.22737 -0.11415616 -0.085265679)
(120.20673 -0.097876881 -0.070249516)
(120.22083 -0.060996181 -0.050396425)
(120.22827 -0.019627102 -0.027283288)
(120.21123 -0.01260208 -0.022087949)
(120.23767 -0.014663666 -0.026682767)
(120.23081 -0.055738965 -0.054471177)
(120.24505 -0.066949716 -0.058513813)
(120.25466 -0.022737228 -0.033027548)
(120.2832 -0.023430861 -0.03780749)
(120.26171 -0.013846997 -0.029125536)
(120.2533 -0.061730862 -0.062505207)
(120.23637 -0.10503503 -0.090645779)
(120.20864 -0.14991983 -0.11923716)
(120.21778 -0.17936356 -0.13187536)
(120.2495 -0.13027337 -0.10428906)
(120.27507 -0.14803905 -0.12561835)
(120.26249 -0.11911618 -0.11003976)
(120.28376 -0.070650079 -0.074797182)
(120.29406 -0.014411048 -0.033341136)
(120.31594 -0.024224334 -0.04414715)
(120.30169 -0.087046578 -0.084006592)
(120.27141 -0.077349016 -0.07053712)
(120.28569 -0.095082438 -0.080561905)
(120.25699 -0.081339202 -0.065791682)
(120.22991 -0.070820699 -0.053420842)
(120.21329 -0.11222856 -0.072890643)
(120.23544 -0.135085 -0.091481258)
(120.20495 -0.1811446 -0.11428614)
(120.169 -0.22559649 -0.13436993)
(120.15918 -0.19008453 -0.1082064)
(120.12395 -0.22217328 -0.12213618)
(120.08954 -0.2462401 -0.1321531)
(120.05162 -0.26003287 -0.13757122)
(119.97909 -0.30252467 -0.15339545)
(119.91767 -0.28785534 -0.14518927)
(119.78911 -0.31698049 -0.15140188)
(119.85512 -0.36108731 -0.21867966)
(119.93478 -0.38950932 -0.22853711)
(119.88172 -0.46791621 -0.20636398)
(119.94895 -0.3521092 -0.1322745)
(119.87862 -0.3349252 -0.11833444)
(119.78644 -0.43559696 -0.18736437)
(119.62393 -0.56011884 -0.26376098)
(119.74535 -0.44094748 -0.30098141)
(119.47054 -0.54603272 -0.31573659)
(119.58275 -0.52135158 -0.46646554)
(119.71391 -0.60150679 -0.50870063)
(119.83807 -0.49164446 -0.34023871)
(119.73505 -0.61829101 -0.32763866)
(119.5398 -0.79005023 -0.53007787)
(119.36112 -0.70117202 -0.45451343)
(119.00067 -0.74351111 -0.44523413)
(119.45423 -0.59929487 -0.2139921)
(119.70435 -0.45540971 -0.13918581)
(119.83309 -0.35024208 -0.083037177)
(119.6744 -0.33504402 -0.074521137)
(119.80635 -0.37515434 -0.045824765)
(119.88406 -0.4149394 -0.05030899)
(119.90669 -0.38772527 -0.095441765)
(119.80167 -0.52612808 -0.15637695)
(119.75582 -0.57140148 -0.080058064)
(119.64937 -0.49954551 -0.075970691)
(119.32882 -0.69280129 -0.12443483)
(118.98828 -0.6683859 -0.23621593)
(118.59929 -0.94902814 -0.32285725)
(118.81869 -1.1770938 -0.3296191)
(119.17305 -0.98005722 -0.51577324)
(119.55929 -0.72306673 -0.26930284)
(119.44485 -0.81505271 -0.14528955)
(119.69669 -0.76270942 -0.15849028)
(119.74524 -0.72474247 -0.21985731)
(119.80228 -0.66691673 -0.26081585)
(119.86624 -0.61858237 -0.28987876)
(119.91664 -0.55363374 -0.3060407)
(119.95774 -0.49775397 -0.31229343)
(119.99071 -0.43311014 -0.30422992)
(120.01938 -0.37890007 -0.29693706)
(120.03775 -0.31621624 -0.27466093)
(120.09289 -0.30153194 -0.26546971)
(120.08494 -0.34075011 -0.31973392)
(120.018 -0.3552953 -0.33345785)
(119.99796 -0.42601279 -0.35873898)
(120.071 -0.40493268 -0.34479981)
(120.08079 -0.36161464 -0.2887543)
(120.14118 -0.33073005 -0.26621887)
(120.14563 -0.27359944 -0.24283723)
(120.17587 -0.19330104 -0.20861796)
(120.14506 -0.22419058 -0.28458341)
(120.19912 -0.19120646 -0.24561549)
(120.20074 -0.2136678 -0.29653148)
(120.19173 -0.16775627 -0.26017791)
(120.14 -0.19404217 -0.29985163)
(120.13665 -0.15779931 -0.26379301)
(120.12961 -0.16194406 -0.30066124)
(120.1274 -0.12678871 -0.25939599)
(120.12298 -0.09848147 -0.21958947)
(120.13501 -0.059757633 -0.16177328)
(120.11262 -0.032866498 -0.11571203)
(120.07278 -0.044247174 -0.1488013)
(120.0675 -0.032392432 -0.16427563)
(120.11326 -0.025273339 -0.12942611)
(120.13194 -0.048866532 -0.18422087)
(120.06198 -0.060034361 -0.22818222)
(120.0741 -0.076327053 -0.20358085)
(120.04977 -0.1156987 -0.25775397)
(119.97549 -0.13218546 -0.29972102)
(119.94292 -0.10844259 -0.34237094)
(119.8675 -0.18447476 -0.46361796)
(119.92758 -0.20988133 -0.39095908)
(119.84652 -0.20160822 -0.36140468)
(119.76935 -0.1659356 -0.42990576)
(119.67969 -0.11333192 -0.43637217)
(119.7784 -0.12996531 -0.51014382)
(119.89814 -0.069095381 -0.36662229)
(119.87689 -0.022377999 -0.37706286)
(119.79926 -0.019224174 -0.33731424)
(119.62449 -0.043029334 -0.45990369)
(119.73174 -0.046293593 -0.53392118)
(119.37432 -0.10093572 -0.78149733)
(119.50097 -0.24503306 -0.71655438)
(119.70532 -0.30945016 -0.62124886)
(119.82513 -0.32531352 -0.49757759)
(119.73197 -0.28715749 -0.44491974)
(119.44564 -0.30629481 -0.54813221)
(119.59237 -0.243775 -0.56058792)
(119.31224 -0.43850407 -0.70734479)
(119.56937 -0.45834016 -0.52859837)
(119.70019 -0.49684344 -0.61086404)
(119.49534 -0.51326639 -0.79833528)
(119.0589 -0.49191024 -0.98412245)
(118.89271 -0.4252702 -0.73198046)
(119.40142 -0.1893759 -0.5862409)
(119.26616 -0.082309863 -0.655081)
(118.42043 -0.2497892 -0.91496152)
(118.63335 -0.25355245 -1.1500104)
(119.12205 -0.28906596 -1.1168739)
(119.4394 -0.19326698 -0.9168397)
(119.64246 -0.12387849 -0.73720789)
(119.78596 -0.088060403 -0.61470324)
(119.87434 -0.059153061 -0.50313166)
(119.93666 -0.042983357 -0.42533028)
(119.97417 -0.029206476 -0.34585614)
(120.03789 -0.0093919724 -0.25065803)
(120.05696 -0.0032732073 -0.17660602)
(120.07738 -0.0044270991 -0.086518971)
(120.11502 -0.00063935246 -0.034332076)
(120.10786 -0.00091514146 -0.03205132)
(120.09634 -0.0059364678 -0.029550409)
(120.1188 -0.022098768 -0.055250735)
(120.12457 -0.0011231725 -0.016817814)
(120.14206 -0.0024404339 -0.020546913)
(120.13264 -0.021678112 -0.065433921)
(120.16903 -0.035842421 -0.084655757)
(120.15234 -0.036407559 -0.070273616)
(120.1628 -0.0067766244 -0.023282171)
(120.18537 -0.0076660417 -0.031304633)
(120.2037 -0.0067743589 -0.035247044)
(120.15215 0.00023037801 -0.021379388)
(120.13927 -0.017899019 -0.073393677)
(120.14521 -0.014728774 -0.082280101)
(120.16223 -0.00070244991 -0.022811073)
(120.21703 -0.0070750544 -0.040359189)
(120.18648 -0.030403579 -0.11725607)
(120.18041 -0.035444129 -0.10150473)
(120.1869 -0.066388612 -0.15071109)
(120.18352 -0.065641336 -0.13614251)
(120.17492 -0.063711132 -0.1202476)
(120.1787 -0.050644055 -0.086012334)
(120.19601 -0.010511475 -0.02610445)
(120.20391 -0.023734034 -0.053013496)
(120.1935 -0.041480594 -0.084304047)
(120.20522 -0.045204181 -0.097676042)
(120.22675 -0.058982513 -0.11598685)
(120.21599 -0.053608104 -0.099234864)
(120.1932 -0.078756296 -0.1381263)
(120.2005 -0.082150557 -0.15728068)
(120.21805 -0.10608127 -0.18357012)
(120.20867 -0.096182443 -0.15691313)
(120.21951 -0.077880032 -0.11186216)
(120.24738 -0.017819301 -0.036026351)
(120.25259 -0.036942354 -0.068789043)
(120.22947 -0.030102024 -0.060366991)
(120.23545 -0.0019511644 -0.01911182)
(120.20812 0.0010705817 -0.015067105)
(120.22465 -0.0016313977 -0.018969263)
(120.21846 -0.024936028 -0.060549973)
(120.24366 -0.031203308 -0.068408774)
(120.25202 -0.0052129457 -0.023964585)
(120.28141 -0.0073857107 -0.026749609)
(120.26014 -0.0028475002 -0.020760977)
(120.29313 -0.0053228604 -0.024919963)
(120.28359 -0.048003539 -0.081099442)
(120.26265 -0.084691455 -0.12930439)
(120.23611 -0.06606431 -0.11200532)
(120.24956 -0.076576425 -0.13421619)
(120.27558 -0.096628473 -0.15511614)
(120.2373 -0.1326546 -0.2110529)
(120.22955 -0.12196745 -0.17936641)
(120.2439 -0.15125239 -0.20094071)
(120.25274 -0.11725909 -0.13496021)
(120.29463 -0.028606462 -0.048161754)
(120.30838 -0.058176145 -0.091100374)
(120.28301 -0.10564666 -0.14578781)
(120.30194 -0.12389365 -0.17865918)
(120.25574 -0.17021056 -0.24225264)
(120.27563 -0.21102891 -0.27642242)
(120.2651 -0.18960703 -0.23068653)
(120.21033 -0.2383811 -0.28174711)
(120.14622 -0.27581809 -0.32217234)
(120.08386 -0.30407074 -0.35273659)
(120.06831 -0.32743116 -0.41556263)
(119.99424 -0.34350161 -0.43548163)
(119.96374 -0.41445076 -0.47213048)
(120.04575 -0.40399192 -0.45726499)
(120.07004 -0.36443453 -0.37852663)
(120.04782 -0.44416917 -0.42027026)
(119.96661 -0.46107326 -0.42844896)
(119.92371 -0.50595696 -0.51926381)
(120.01991 -0.48838195 -0.50431669)
(120.1124 -0.45450174 -0.47409788)
(120.1288 -0.37270509 -0.42617715)
(120.13696 -0.29958116 -0.38275641)
(120.13977 -0.24541667 -0.33988736)
(120.12557 -0.25989607 -0.3963195)
(120.12984 -0.2050801 -0.34616442)
(120.07122 -0.22267731 -0.37768253)
(120.0789 -0.17709022 -0.32946444)
(120.08583 -0.13967343 -0.28826572)
(120.08818 -0.10943794 -0.24382568)
(120.08067 -0.10423748 -0.26689532)
(120.03761 -0.1090949 -0.28239911)
(120.02793 -0.14383777 -0.33438987)
(120.04258 -0.14825211 -0.30442522)
(120.02947 -0.18363074 -0.34302076)
(120.00903 -0.18126792 -0.38209661)
(120.06388 -0.17659288 -0.36681522)
(120.07601 -0.13616004 -0.31575261)
(120.12012 -0.12435463 -0.2862105)
(120.11875 -0.094231246 -0.24167952)
(120.15813 -0.081173206 -0.20733086)
(120.15833 -0.083409019 -0.18721822)
(120.16868 -0.10906609 -0.22450866)
(120.16633 -0.10862567 -0.24915983)
(120.15996 -0.10549716 -0.27654969)
(120.1547 -0.076744484 -0.22477617)
(120.112 -0.087792325 -0.26030011)
(120.07087 -0.095669282 -0.28620995)
(120.02661 -0.098978561 -0.29957086)
(120.01104 -0.084272421 -0.31903932)
(120.05947 -0.083208236 -0.30523096)
(120.04558 -0.11357184 -0.36867487)
(120.06063 -0.12759573 -0.34508318)
(120.01116 -0.13305284 -0.36030391)
(119.99119 -0.11659131 -0.385079)
(119.95654 -0.15174885 -0.44812403)
(119.98501 -0.1697482 -0.4142424)
(120.04138 -0.16773172 -0.40367448)
(120.01807 -0.15368529 -0.4376783)
(119.98638 -0.2066447 -0.52087336)
(120.01936 -0.22036118 -0.47437143)
(120.05109 -0.22651267 -0.42579786)
(119.98544 -0.23588497 -0.44439648)
(120.01306 -0.23305577 -0.39288274)
(119.98401 -0.2865129 -0.4388984)
(120.05251 -0.28038793 -0.42796263)
(120.02337 -0.29022706 -0.48851352)
(119.94619 -0.29338715 -0.50194265)
(119.90366 -0.37811448 -0.57762619)
(119.95371 -0.36030619 -0.49835978)
(120.03434 -0.34915833 -0.48519766)
(119.99684 -0.36822256 -0.55965574)
(120.08649 -0.34767714 -0.52480709)
(120.10277 -0.2719893 -0.45629156)
(120.11349 -0.21083633 -0.39363627)
(120.11867 -0.16284465 -0.33725189)
(120.17322 -0.14363588 -0.29493697)
(120.17819 -0.14058703 -0.26093631)
(120.18826 -0.17938505 -0.30254989)
(120.17976 -0.18756299 -0.34702174)
(120.16351 -0.1901773 -0.39517349)
(120.16274 -0.14211566 -0.33071183)
(120.10263 -0.15807223 -0.37432453)
(120.10959 -0.11888764 -0.31501894)
(120.09637 -0.1068801 -0.33974758)
(120.10332 -0.076830902 -0.27964382)
(120.14965 -0.068631306 -0.24366313)
(120.15132 -0.096759184 -0.30083406)
(120.14827 -0.13474283 -0.36630605)
(120.08244 -0.14667971 -0.41002825)
(120.05937 -0.19989439 -0.49223016)
(120.08997 -0.20946878 -0.44286403)
(120.06861 -0.27623488 -0.52056563)
(119.97744 -0.28782992 -0.55119894)
(119.89839 -0.28586098 -0.55571799)
(119.95204 -0.22588519 -0.48616525)
(119.91074 -0.20792928 -0.53366011)
(119.86237 -0.17818517 -0.56456853)
(119.92318 -0.12667363 -0.4703201)
(119.96888 -0.095951196 -0.40231372)
(119.9963 -0.068325116 -0.32974413)
(120.04708 -0.037864425 -0.2443838)
(120.06112 -0.019385304 -0.172347)
(120.11079 -0.015006295 -0.13755297)
(120.10889 -0.0025319791 -0.1424253)
(120.11875 -0.0076187274 -0.20963793)
(120.1245 -0.031781509 -0.20154952)
(120.18721 -0.020529592 -0.131184)
(120.14652 -0.0079384263 -0.088084149)
(120.16652 0.0012697575 -0.02414582)
(120.16914 0.0010496233 -0.025696993)
(120.14721 -0.0012212331 -0.091991967)
(120.18569 -0.0042857543 -0.13889836)
(120.22683 0.00017591802 -0.050735062)
(120.22448 -0.0049335133 -0.046334133)
(120.24988 -0.024157606 -0.10179724)
(120.2483 -0.027692842 -0.092929429)
(120.24261 -0.027628962 -0.08246955)
(120.23736 -0.027907135 -0.074952688)
(120.22724 -0.025863747 -0.066571056)
(120.21163 -0.045954908 -0.10841039)
(120.21873 -0.046729929 -0.12150851)
(120.19045 -0.065841071 -0.16783172)
(120.20665 -0.088486569 -0.20079239)
(120.20477 -0.087292034 -0.17949013)
(120.23492 -0.062797824 -0.13274234)
(120.24131 -0.065275567 -0.14955768)
(120.2656 -0.038875285 -0.08902189)
(120.25548 -0.035723958 -0.078239077)
(120.26638 -0.0075465797 -0.026727339)
(120.23531 -0.0024570793 -0.02009452)
(120.24757 -0.0051694929 -0.02276116)
(120.27926 -0.011256175 -0.031201934)
(120.28955 -0.01492211 -0.036960597)
(120.25493 -0.0065260804 -0.025336445)
(120.26309 -0.0088953064 -0.030529418)
(120.29788 -0.018273616 -0.045468606)
(120.27768 -0.042113497 -0.11658625)
(120.27279 -0.041652689 -0.10201077)
(120.24437 -0.066292795 -0.16901081)
(120.22145 -0.045589058 -0.1332454)
(120.18988 -0.062874142 -0.18286)
(120.18859 -0.057388877 -0.20003411)
(120.22388 -0.04289991 -0.14756665)
(120.245 -0.063998424 -0.18855968)
(120.2008 -0.082175355 -0.24764181)
(120.20506 -0.087840909 -0.2248843)
(120.21942 -0.11996863 -0.27355089)
(120.22331 -0.11841469 -0.24129095)
(120.2225 -0.11341884 -0.21168134)
(120.25918 -0.082578134 -0.15574952)
(120.2659 -0.088508313 -0.17921591)
(120.29356 -0.11813574 -0.21362076)
(120.28653 -0.10734457 -0.18256272)
(120.24157 -0.14599677 -0.24708781)
(120.24066 -0.15624217 -0.28615361)
(120.23336 -0.16248976 -0.33015363)
(120.29525 -0.12698981 -0.25033418)
(120.26847 -0.092387951 -0.20579023)
(120.267 -0.092869413 -0.23511961)
(120.21115 -0.11667395 -0.30717593)
(120.21908 -0.16363327 -0.37792617)
(120.14077 -0.18596066 -0.4450205)
(120.11033 -0.16900361 -0.49766131)
(120.12915 -0.11891578 -0.40198045)
(120.13964 -0.083698305 -0.32612162)
(120.14305 -0.058066373 -0.25879959)
(120.09377 -0.06417043 -0.29452003)
(120.04663 -0.068244266 -0.31953664)
(120.03538 -0.049588121 -0.33168868)
(119.98249 -0.049190889 -0.34149824)
(119.95016 -0.071439206 -0.41773795)
(120.00982 -0.07083011 -0.40717574)
(120.02505 -0.09465595 -0.39157458)
(120.0809 -0.091024867 -0.3642343)
(120.06651 -0.068142437 -0.38204955)
(120.08419 -0.046325743 -0.3077288)
(120.13596 -0.042551737 -0.27275786)
(120.12845 -0.063519777 -0.34495089)
(120.11849 -0.039373945 -0.35990425)
(120.13053 -0.025698994 -0.28106825)
(120.07734 -0.027993781 -0.3151838)
(120.02718 -0.029365564 -0.33825165)
(120.02257 -0.0060977351 -0.34001254)
(119.9688 -0.0060638284 -0.34721254)
(119.92926 -0.01119045 -0.42759259)
(119.98966 -0.010990171 -0.42113806)
(119.99595 -0.042761589 -0.41850389)
(120.05475 -0.041950213 -0.39531256)
(120.04864 -0.010127258 -0.39902093)
(120.07319 -0.0051408613 -0.31755912)
(120.12709 -0.0044778217 -0.28399998)