/*--------------------------------*- C++ -*----------------------------------*\
  =========                 |
  \\      /  F ield         | OpenFOAM: The Open Source CFD Toolbox
   \\    /   O peration     | Website:  https://openfoam.org
    \\  /    A nd           | Version:  7
     \\/     M anipulation  |
\*---------------------------------------------------------------------------*/
FoamFile
{
    version     2.0;
    format      ascii;
    class       volScalarField;
    location    "280";
    object      alphat;
}
// * * * * * * * * * * * * * * * * * * * * * * * * * * * * * * * * * * * * * //

dimensions      [1 -1 -1 0 0 0 0];

internalField   nonuniform List<scalar> 
25201
(
7.9998721
7.9882274
7.9998951
7.9882778
7.8673975
7.9558294
7.9747083
8.017721
8.0030863
7.9323449
8.0030598
7.9557966
7.9139172
7.3259192
7.2067564
7.7822681
7.6875569
7.6002556
7.5604756
7.3078739
7.48744
7.4882853
7.5642966
7.4359355
7.426217
7.2587886
7.3678914
7.5997456
7.5341403
7.2925218
7.3445301
7.4137406
7.007292
7.0880144
7.1903857
7.2068735
7.4101742
7.3386743
7.1063471
7.0239964
7.2838762
7.2534314
7.2620566
6.9637807
6.9816648
7.0214223
7.269325
7.5903606
7.8561759
7.9139571
7.9686238
7.9177641
7.7453204
7.8160906
7.8870598
7.8498723
7.8201878
7.7335764
7.7711514
7.5191322
7.5553348
7.6520459
7.6855821
7.7427892
7.7756741
7.9178799
7.8481178
7.6188819
7.5674806
7.3748299
7.3243365
7.3874478
7.6508585
7.6962913
7.6381996
7.1921459
7.2546347
7.3313019
7.3571071
7.4223609
7.5079567
7.579625
7.4640014
7.4733983
7.3931568
7.4977932
7.3590037
7.3256116
7.2053813
7.2727533
7.1850318
7.1327538
7.1252004
7.1351261
7.1255729
7.1981817
7.1979337
7.1262161
6.9929577
7.083685
7.086136
7.0009001
7.0128467
7.0984054
7.1001174
7.0296695
6.8709488
6.9727383
7.0342176
7.0260427
6.9539779
6.9600144
6.8514969
6.8415413
6.6732987
6.8026077
6.8068034
6.6840896
6.6960158
6.8607324
6.9691627
6.8221723
6.8259577
6.7064145
6.5217303
6.6761153
6.7895683
7.0338112
7.2726275
7.1062657
7.0239694
6.9815277
7.0216599
7.0604952
7.1448641
7.2370906
7.3592491
7.4641381
7.6520781
7.8202267
7.8499123
7.6855544
7.5191351
7.5553062
7.7336251
7.7711762
7.8160486
7.8870336
7.9685759
7.9178739
7.7756511
7.7426208
7.5675751
7.6186823
7.8480003
7.7804615
7.9176894
7.8560622
7.6509541
7.6963717
7.3244464
7.3873544
7.4978571
7.5079546
7.5796536
7.4223241
7.3570715
7.3312535
7.1824787
7.2602969
7.3931462
7.4734479
7.3264604
7.4236167
7.4759673
7.3536727
7.3261317
7.306676
7.0744093
7.0933379
6.8746438
6.9472584
6.9752235
6.8709585
6.8609945
6.7434519
6.8441252
6.8436068
6.7209601
6.5366252
6.6940597
6.8226585
7.0740588
7.3067284
7.1328687
7.1846994
7.2045405
6.6954885
6.8217402
6.9689631
7.0979723
7.1002264
7.0298328
7.125154
7.134527
7.0119445
6.8606184
6.8708861
6.9726235
6.8259988
6.7064533
6.5217576
6.6759263
6.6681931
6.6520583
6.7706416
7.9881632
7.9996952
7.8562711
7.5998432
7.5340872
7.2622862
7.0882011
7.3444115
7.2924938
7.2841495
7.2532687
6.9816113
6.9633081
7.0069896
7.0239824
7.1063775
7.3385606
7.410302
7.4135583
7.1903428
7.2067441
7.3257446
7.4881573
7.6874896
0.0013219804
0.0062937
0.015214495
0.0262433
0.34982825
0.35678051
0.027188054
0.015735832
0.006502916
0.0013585986
0.0013759602
0.0066776569
0.016174101
0.027918058
0.3644652
0.36885014
0.028171254
0.016332304
0.0067454838
0.0013844527
0.001387225
0.0067684907
0.016382442
0.028236732
0.37145456
0.37303343
0.028248515
0.016397103
0.0067765629
0.001388489
0.0013894103
0.0067852305
0.016415904
0.028270196
0.37411153
0.37496815
0.028307383
0.016439967
0.006795056
0.0013903076
0.00139129
0.0068077882
0.016471896
0.028357894
0.37570466
0.37641779
0.028414093
0.016504994
0.0068205365
0.0013922396
0.0013932635
0.0068350951
0.016542255
0.02847538
0.37709722
0.37779467
0.028537643
0.016578709
0.0068491087
0.0013942427
0.0013953032
0.0068648018
0.016618895
0.028604045
0.37849553
0.37922763
0.028671082
0.01665827
0.0068799916
0.00139633
0.0013974484
0.0068969068
0.016701458
0.028742394
0.37997138
0.38075543
0.028815152
0.016744378
0.006913532
0.0013985485
0.001399748
0.0069319387
0.016791285
0.028892584
0.38156299
0.38242068
0.028972311
0.016838438
0.0069502451
0.0014009435
0.0014022423
0.0069703225
0.016889507
0.029056643
0.38330738
0.38424709
0.029144121
0.016941361
0.0069904989
0.0014035515
0.0014049666
0.0070124282
0.016997008
0.029235968
0.38522344
0.38625917
0.029331687
0.017053936
0.0070346512
0.001406401
0.001407941
0.0070586512
0.017114776
0.029432181
0.38733861
0.38848
0.029536685
0.017177047
0.0070830138
0.0014095054
0.0014111784
0.0071091756
0.017243328
0.029646274
0.38966838
0.39091794
0.029760105
0.017311289
0.0071358211
0.0014128848
0.0014147055
0.0071642623
0.017383269
0.029879185
0.39221586
0.39357782
0.030003174
0.017457383
0.0071933708
0.0014165788
0.0014185775
0.007224292
0.017535559
0.030132529
0.39499728
0.39649107
0.030268254
0.017616744
0.0072561804
0.0014206401
0.0014228024
0.0072896885
0.01770098
0.030407237
0.39804645
0.39965539
0.03055095
0.017787257
0.0073238061
0.0014250276
0.44818686
0.027562076
0.016198492
0.0067449192
0.0013663859
0.0013643995
0.0067141229
0.016120671
0.02743342
0.44640349
0.44465758
0.027307166
0.016043482
0.0066833392
0.0013624561
0.0013605738
0.0066535245
0.015967621
0.027181641
0.44296395
0.44135389
0.02706278
0.015895183
0.0066248749
0.001358746
0.0013570211
0.0065977494
0.015825859
0.02694761
0.4398191
0.43836505
0.026838985
0.01575956
0.0065714941
0.0013553537
0.001353779
0.0065467179
0.015696121
0.026733501
0.43697499
0.4356608
0.026634479
0.015635613
0.0065227691
0.0013522511
0.0013508169
0.0065003804
0.015578115
0.026538635
0.43440866
0.43322481
0.026449298
0.015523477
0.0064787486
0.0013494264
0.001348121
0.0064584112
0.015471093
0.026361726
0.43208424
0.43100081
0.026279698
0.015420878
0.0064385417
0.0013468444
0.0013456481
0.0064199564
0.015372809
0.026199082
0.42996009
0.42897136
0.026124092
0.015326867
0.00640179
0.0013444737
0.0013433753
0.0063848394
0.015282785
0.026049754
0.42800912
0.42712388
0.025982404
0.015241323
0.0063683966
0.0013422982
0.0013412888
0.0063530287
0.015201148
0.025914298
0.42625247
0.42542797
0.025851871
0.015162782
0.0063378532
0.0013402811
0.0013393317
0.0063236931
0.015125557
0.025788466
0.4246073
0.42381929
0.025729848
0.015089567
0.0063094925
0.0013383676
0.0013374534
0.0062963395
0.015054889
0.025670684
0.42303992
0.42227788
0.02561661
0.015021512
0.006283144
0.0013365167
0.0013356256
0.0062711709
0.014990029
0.025563293
0.4214989
0.4206892
0.025518895
0.014961472
0.0062596137
0.001334719
0.001333858
0.0062501999
0.014937864
0.025481947
0.41975217
0.41863937
0.025463961
0.014921237
0.0062422019
0.0013329662
0.0013316965
0.0062342187
0.014905572
0.025448885
0.41702761
0.41443591
0.025392543
0.014860615
0.0062126729
0.0013288409
0.0013211569
0.0061529165
0.01471914
0.025168761
0.41002771
0.40331092
0.024640015
0.014402943
0.0060227031
0.001304783
0.0012807211
0.0058142819
0.013906542
0.023798373
0.39510365
0.37062707
0.021317228
0.012315889
0.0051595974
0.0012326831
0.0012789333
0.0058251387
0.01393394
0.023838415
0.39586407
0.40409613
0.02467252
0.0144236
0.0060309714
0.00130381
0.0013207647
0.0061614556
0.014740073
0.025202089
0.41067937
0.41493527
0.025415886
0.014875399
0.006218946
0.0013286072
0.0013315901
0.0062394464
0.01491852
0.02547015
0.41747242
0.41901742
0.025478421
0.014930201
0.0062460286
0.0013328975
0.0013338331
0.0062536086
0.014946551
0.02549678
0.42009905
0.42097353
0.025528896
0.014967388
0.0062621013
0.0013346966
0.0013356204
0.0062733767
0.014995758
0.025573414
0.42175342
0.42251136
0.025623012
0.015025153
0.0062847062
0.0013365052
0.0013374537
0.0062978065
0.015058803
0.025677933
0.4232437
0.42399732
0.025733683
0.015091658
0.0063104422
0.0013383595
0.0013393366
0.0063246735
0.015128193
0.025793535
0.42476193
0.42556238
0.025854064
0.015163995
0.0063384897
0.0013402831
0.0013413105
0.0063539285
0.015203538
0.025918852
0.42638291
0.42724649
0.025984751
0.015242679
0.0063690849
0.0013423196
0.0013434162
0.0063858997
0.015285644
0.026055143
0.42813989
0.42908293
0.026127197
0.0153286
0.0064025854
0.0013445062
0.0013456895
0.0064209622
0.015375473
0.026203999
0.43006314
0.43109836
0.026282993
0.015422717
0.0064393607
0.0013468759
0.0013481574
0.0064594396
0.015473833
0.026366737
0.43217595
0.4333144
0.026453321
0.015525711
0.0064796873
0.0013494512
0.0013508411
0.0065015299
0.015581191
0.026544214
0.43450799
0.43576185
0.026638553
0.015637891
0.0065237172
0.0013522592
0.0013537856
0.0065477138
0.015698833
0.026738513
0.43707926
0.43847287
0.026842436
0.01576143
0.0065722588
0.0013553497
0.001357023
0.0065985679
0.015828114
0.026951849
0.43993282
0.44147284
0.027065847
0.01589683
0.0066255496
0.0013587491
0.001360594
0.0066543294
0.015969746
0.027185507
0.44308524
0.44478152
0.027310761
0.01604565
0.0066842774
0.0013624975
0.0013644852
0.0067157258
0.016124547
0.027439527
0.44653263
0.44834536
0.027572405
0.016204837
0.0067473816
0.0013665204
0.0013686391
0.0067797608
0.016286488
0.02770685
0.45024727
0.0014167383
0.0072433509
0.017550744
0.030085962
0.40093034
0.39923043
0.029939655
0.017462667
0.0072084146
0.0014144519
0.0014122314
0.0071739027
0.01737528
0.029794215
0.39758128
0.39600443
0.02965566
0.017291312
0.0071405171
0.0014100876
0.001408029
0.0071084495
0.017209787
0.029519809
0.39448353
0.39304194
0.029391221
0.017131893
0.007077571
0.0014060315
0.0014041431
0.0070483436
0.017057318
0.029266578
0.39166156
0.39035325
0.029149171
0.016986124
0.0070201037
0.0014023191
0.0014006002
0.0069934491
0.016917894
0.029034855
0.38909314
0.38791997
0.028928666
0.016853371
0.0069678443
0.0013989445
0.0013973917
0.0069437026
0.016791351
0.02882444
0.38678505
0.38571413
0.028727117
0.016732239
0.0069202799
0.0013958853
0.0013944737
0.0068982924
0.01667559
0.028631722
0.38468233
0.38370634
0.028542657
0.016621459
0.0068768567
0.0013930943
0.0013918029
0.0068568192
0.016569627
0.028455095
0.38276743
0.38188553
0.028374121
0.016520322
0.0068372832
0.0013905359
0.0013893514
0.0068190728
0.01647301
0.028293875
0.38103077
0.38022385
0.028219789
0.016427876
0.0068012002
0.0013881791
0.0013870829
0.0067846126
0.016384587
0.028146072
0.37944117
0.37869952
0.028078236
0.016343219
0.0067682374
0.0013859886
0.0013849625
0.0067530902
0.016303479
0.02801024
0.37797556
0.37728365
0.027947818
0.016265385
0.0067380251
0.001383926
0.0013829478
0.0067241471
0.016228782
0.027884929
0.3766013
0.37594299
0.027828321
0.016194031
0.0067103727
0.0013819496
0.0013810048
0.0066979862
0.016161368
0.027772522
0.37526412
0.37456558
0.027727673
0.016132546
0.0066862746
0.0013800492
0.0013791574
0.0066771799
0.016109788
0.027692233
0.37374319
0.37275577
0.027679938
0.016095986
0.0066701488
0.0013782496
0.0013769353
0.0066634644
0.01608404
0.027672407
0.37129227
0.368864
0.027614105
0.016037472
0.0066413898
0.0013737393
0.0013647944
0.006578408
0.0158854
0.027367653
0.3648164
0.35887503
0.026775743
0.015540694
0.0064404564
0.0013454483
0.0013141245
0.0062434163
0.01504668
0.025891605
0.35209436
0.35106141
0.026304325
0.015273666
0.0063297759
0.0013172197
0.0013588459
0.0064934527
0.01570586
0.027143968
0.35651333
0.36459449
0.027933691
0.016183652
0.0066812977
0.0013758629
0.0013845701
0.0067480876
0.016337684
0.028178431
0.36886033
0.37149238
0.028242605
0.016385621
0.0067697568
0.0013871966
0.0013885081
0.0067783742
0.016401093
0.028253396
0.37305261
0.3741447
0.028273109
0.016417106
0.0067856322
0.0013893538
0.0013903151
0.0067963669
0.016442826
0.028310585
0.37499267
0.37572898
0.028359533
0.016472336
0.0068078783
0.0013912392
0.0013922533
0.0068216205
0.016507317
0.028416437
0.37641578
0.37710031
0.028476405
0.016542326
0.0068350309
0.0013932199
0.0013942614
0.0068500271
0.01658065
0.028539467
0.37778481
0.37849409
0.028604602
0.016618706
0.0068646424
0.001395267
0.0013963544
0.0068808414
0.016660072
0.02867282
0.37922262
0.37997483
0.028742788
0.01670121
0.0068967302
0.0013974199
0.0013985796
0.0069143533
0.016746121
0.028816863
0.380751
0.38156622
0.028893288
0.016791241
0.0069318419
0.0013997303
0.0014009809
0.0069511019
0.016840241
0.028974126
0.38241519
0.38331202
0.02905814
0.016889936
0.0069704012
0.0014022343
0.0014035912
0.0069914412
0.016943387
0.029146368
0.38425008
0.38523478
0.0292382
0.016997902
0.0070126816
0.0014049628
0.0014064451
0.0070357276
0.017056414
0.029334911
0.38626221
0.38734485
0.029435637
0.01711631
0.0070591177
0.0014079545
0.0014095779
0.0070842838
0.017180079
0.029541032
0.38847515
0.38966386
0.029651029
0.017245655
0.0071099675
0.0014112408
0.0014130214
0.0071374748
0.017315277
0.029766178
0.39090902
0.39222069
0.029886125
0.017386984
0.0071656468
0.001414849
0.0014167919
0.0071956895
0.01746296
0.030011869
0.39359665
0.39504992
0.030142379
0.017541043
0.0072264011
0.0014187797
0.0014208774
0.0072589011
0.017623161
0.030278339
0.39657023
0.39816
0.030420059
0.017707995
0.0072922802
0.0014230291
0.001425285
0.0073271944
0.017795813
0.030565128
0.39981014
0.4015178
0.030715547
0.017886201
0.0073629755
0.0014276125
0.0014167015
0.0072429381
0.017549677
0.030084118
0.40091217
0.39922559
0.029938333
0.017461836
0.0072080669
0.0014144126
0.0014121904
0.007173586
0.017374541
0.029793048
0.39758341
0.39601199
0.029654576
0.017290617
0.0071402112
0.0014100468
0.0014079899
0.0071081529
0.017209101
0.029518715
0.39449151
0.39304933
0.029389916
0.017131092
0.0070772399
0.0014059949
0.0014041115
0.007048017
0.017056535
0.029265309
0.39166567
0.39035755
0.0291478
0.01698529
0.0070197686
0.0014022927
0.0014005821
0.006993184
0.016917285
0.029033956
0.38910315
0.38792022
0.028926967
0.016852379
0.0069674692
0.0013989261
0.0013973763
0.0069433747
0.016790532
0.028823144
0.38678341
0.38571329
0.028725827
0.016731438
0.0069199637
0.0013958717
0.0013944629
0.0068980365
0.016674975
0.028630792
0.38468186
0.38370921
0.02854197
0.016620971
0.0068766457
0.0013930856
0.0013917967
0.0068566707
0.016569306
0.028454661
0.38276838
0.38189569
0.028374167
0.016520237
0.0068372152
0.0013905338
0.0013893546
0.0068190947
0.016473156
0.028294274
0.38104332
0.38024006
0.028220373
0.016428111
0.0068012561
0.0013881855
0.0013870936
0.0067847353
0.016384966
0.028146823
0.37945304
0.37872023
0.028079601
0.016343891
0.006768455
0.0013860055
0.0013849841
0.0067533554
0.016304228
0.028011606
0.37799419
0.37729741
0.02794941
0.016266221
0.0067383147
0.0013839507
0.0013829752
0.0067244544
0.016229633
0.027886439
0.37661764
0.37595565
0.027829486
0.016194666
0.006710608
0.001381976
0.0013810309
0.0066981904
0.016161923
0.02777351
0.37527366
0.37456989
0.027728076
0.016132765
0.0066863637
0.0013800706
0.0013791787
0.0066773182
0.016110181
0.027693009
0.37375804
0.37276908
0.027680081
0.016096048
0.0066701784
0.0013782629
0.0013769388
0.0066636282
0.016084412
0.027672974
0.37130935
0.36889943
0.027614789
0.016037918
0.0066415634
0.00137373
0.0013646862
0.0065779458
0.015884484
0.027366061
0.36485568
0.35895066
0.026772555
0.015539205
0.0064398929
0.0013453238
0.0013132366
0.0062401659
0.015040703
0.025880907
0.35230584
0.39689647
0.023894838
0.013991357
0.0058568687
0.0012743713
0.0013037924
0.0060264114
0.014405395
0.024642502
0.40382066
0.41073469
0.025207634
0.014742856
0.0061622892
0.0013207564
0.001328861
0.0062206332
0.014878762
0.025420165
0.41496847
0.41747206
0.025471178
0.014918319
0.0062392646
0.0013316688
0.0013329979
0.0062465999
0.014931414
0.025479335
0.41898795
0.42006731
0.025495884
0.01494521
0.0062529589
0.0013338488
0.0013347595
0.0062624784
0.014968115
0.025528955
0.42094373
0.42172549
0.025572342
0.014994474
0.0062727887
0.0013356245
0.0013365654
0.0062852677
0.015026346
0.025623787
0.42246629
0.42321391
0.025677852
0.015058104
0.0062974306
0.0013374574
0.0013384133
0.0063110643
0.015093044
0.025734894
0.42396919
0.42474594
0.025793661
0.015127611
0.0063243379
0.001339334
0.0013403258
0.0063390517
0.015165237
0.02585511
0.42554026
0.42636933
0.025918769
0.015202834
0.0063535409
0.0013412971
0.0013423469
0.006369495
0.015243542
0.02598526
0.42722871
0.42812928
0.026054454
0.015284604
0.0063853842
0.0013433895
0.0013445164
0.006402803
0.015328978
0.026126982
0.42906566
0.43005192
0.026202533
0.01537399
0.0064202743
0.0013456461
0.0013468669
0.0064393313
0.015422492
0.026281932
0.43108706
0.43217006
0.026364131
0.015471728
0.0064585305
0.0013481001
0.0013494343
0.0064794546
0.015524924
0.026451302
0.43330055
0.43449419
0.026541379
0.015579014
0.0065006072
0.0013507912
0.0013522597
0.0065235158
0.015637233
0.026636894
0.43574441
0.4370681
0.026736272
0.015697031
0.006546942
0.0013537685
0.0013553884
0.006572229
0.015761186
0.026841541
0.43845661
0.43992114
0.026950742
0.015827018
0.0065980801
0.001357049
0.0013588193
0.0066256967
0.015896977
0.027065585
0.44145294
0.44306239
0.027184927
0.015969003
0.0066539834
0.0013606365
0.0013625512
0.0066842132
0.016045297
0.027309745
0.44474165
0.4464834
0.02743813
0.016123136
0.0067150213
0.0013644891
0.0013665025
0.0067463437
0.016201835
0.027567032
0.44827762
0.45016189
0.027702948
0.016284069
0.0067788284
0.0013686163
0.40142607
0.030707332
0.01788138
0.0073610996
0.0014274903
0.0014251458
0.0073252963
0.017790952
0.030556772
0.39971456
0.39808903
0.030413631
0.017704387
0.0072908482
0.0014229085
0.0014207525
0.0072572346
0.017618981
0.030270954
0.39649652
0.39497867
0.030135714
0.017537237
0.0072248241
0.0014186514
0.0014166499
0.0071939786
0.01745849
0.030003749
0.3935363
0.39216857
0.02987968
0.017383398
0.007164174
0.0014147138
0.0014128843
0.007135913
0.017311122
0.029758421
0.39085913
0.38961823
0.029645013
0.017242394
0.0071086396
0.0014111174
0.0014094555
0.0070828722
0.017176299
0.029533908
0.38843004
0.38730575
0.029430985
0.017113812
0.0070580681
0.0014078544
0.0014063553
0.0070346772
0.017053593
0.029329485
0.38622668
0.38519943
0.029235813
0.01699664
0.0070120714
0.001404902
0.0014035393
0.0069908032
0.016941651
0.029142807
0.38421621
0.38328263
0.029057234
0.016889568
0.0069701363
0.0014022065
0.0014009568
0.0069507484
0.016839221
0.028971753
0.38238318
0.38153035
0.028893177
0.016791372
0.0069317726
0.0013997231
0.0013985682
0.0069140838
0.016745257
0.028814625
0.38070722
0.37992805
0.028742825
0.016701476
0.0068967161
0.0013974218
0.0013963471
0.0068805685
0.016659178
0.028670463
0.37917129
0.37844977
0.02860453
0.01661894
0.0068646147
0.0013952703
0.0013942562
0.0068497824
0.016579857
0.028537337
0.37774112
0.37705695
0.028476376
0.016542595
0.0068350153
0.0013932253
0.0013922493
0.0068213775
0.016506506
0.028414214
0.37637062
0.37567725
0.028360517
0.016473125
0.0068080285
0.0013912517
0.0013903195
0.0067963184
0.016442507
0.028309103
0.3749478
0.37411301
0.028274601
0.016418287
0.0067859592
0.0013893734
0.001388522
0.0067787164
0.016401728
0.028253467
0.37303017
0.37147923
0.028245995
0.016387959
0.0067705597
0.0013872273
0.001384572
0.0067495876
0.016341173
0.028183109
0.36887285
0.36459368
0.027937709
0.016185358
0.0066816307
0.0013757823
0.0013581861
0.0064984224
0.01571727
0.02715933
0.3565792
0.35080766
0.026300622
0.015272878
0.0063296343
0.0013164273
0.0013220363
0.006308173
0.015246402
0.026289956
0.35029329
0.3570448
0.027202768
0.015746007
0.0065075762
0.0013581774
0.0013755687
0.0066803843
0.016179759
0.027925618
0.36463532
0.36896267
0.028179917
0.016338031
0.0067478891
0.0013842372
0.0013870972
0.0067705966
0.016387166
0.028243359
0.37153693
0.37308433
0.028256118
0.016402062
0.0067785813
0.0013884234
0.0013893605
0.0067867104
0.016419244
0.028274814
0.37415026
0.3749958
0.028312312
0.016443283
0.0067964203
0.0013902781
0.0013912611
0.0068087313
0.01647397
0.028360556
0.37571505
0.37640145
0.028417393
0.016507265
0.0068214577
0.00139222
0.0013932364
0.0068355839
0.016543178
0.028476133
0.3770722
0.37776106
0.028539616
0.016580151
0.0068496946
0.0013942267
0.0013952832
0.0068650638
0.01661923
0.028603843
0.37845919
0.37919459
0.028672417
0.016659334
0.0068804446
0.0013963233
0.0013974412
0.0068971669
0.016701837
0.028742358
0.3799405
0.38072652
0.028816695
0.016745531
0.0069140105
0.0013985554
0.0013997546
0.0069322765
0.01679188
0.028892976
0.38153884
0.38239864
0.028974313
0.016839834
0.0069508168
0.0014009616
0.0014022573
0.0069707757
0.016890426
0.029057663
0.38329671
0.38425098
0.029146458
0.016942968
0.0069911657
0.0014035712
0.0014049779
0.0070130455
0.016998436
0.029237993
0.38524007
0.38628536
0.029334883
0.017055897
0.0070353978
0.0014064078
0.0014079317
0.0070591926
0.017116112
0.029434255
0.38737235
0.38851815
0.029539462
0.017178696
0.0070836207
0.001409492
0.0014111549
0.0071096063
0.017244411
0.029647979
0.38971119
0.3909677
0.029762535
0.017312779
0.0071363824
0.0014128664
0.0014146919
0.0071648227
0.017384641
0.029881281
0.39227334
0.39364762
0.030006384
0.017459471
0.007194215
0.0014165834
0.0014186001
0.0072254001
0.017538257
0.030136729
0.39508585
0.39660552
0.030273969
0.017620422
0.007257706
0.0014206901
0.0014228947
0.0072918866
0.017706386
0.030415896
0.39818809
0.39982341
0.030563654
0.017794785
0.007326655
0.0014251611
0.0014275182
0.0073623338
0.017884527
0.030712407
0.40152291
8.082699
8.0794423
8.0826774
8.0793982
8.0246182
8.049743
8.0586196
8.1028098
8.0977023
8.0497611
7.9965652
8.0597459
8.0976876
8.0796367
8.0234896
7.987155
7.9550559
7.8316915
7.8688556
7.7323998
7.9291154
7.8939988
7.6752525
7.4969025
7.8325651
7.9865127
8.0503634
7.9239386
7.9744666
8.0117986
8.0561454
7.9646126
7.9244552
7.7929952
7.8530434
7.7088982
7.9664669
7.9287353
7.8837322
7.8256693
7.8719998
7.5642125
7.4469556
7.3739687
7.7851078
7.7272566
7.692215
7.7451406
7.3745606
7.4322827
7.3049222
7.2438517
7.191734
7.2546727
7.5902453
7.6380006
7.6381489
7.85609
7.9881263
7.9996682
7.95569
7.9138211
0.35303785
0.025862901
0.015032001
0.0062369344
0.0013187606
0.0013469533
0.0064287654
0.015509222
0.026719317
0.35886667
0.36450476
0.02731451
0.015852235
0.0065650301
0.0013650622
0.0013738417
0.0066320138
0.016013596
0.027574862
0.36850639
0.37099456
0.027644462
0.016065243
0.0066556918
0.0013769
0.0013782516
0.0066650512
0.016082723
0.02765817
0.3725005
0.37357272
0.027676841
0.016098744
0.0066725515
0.0013791002
0.0013800422
0.0066834377
0.01612488
0.027714857
0.37440518
0.3751521
0.027763436
0.016154329
0.006694981
0.0013809479
0.0013819448
0.0067087393
0.016189391
0.027820409
0.37585324
0.37654292
0.027879359
0.016224013
0.006722056
0.0013828948
0.0013839226
0.0067370425
0.016262424
0.02794267
0.37723181
0.37794248
0.028006312
0.016299844
0.0067514738
0.001384911
0.001385985
0.0067675952
0.016341108
0.028074428
0.37866549
0.37942649
0.028143176
0.016381681
0.0067833007
0.001387034
0.001388178
0.0068007995
0.016426393
0.028216981
0.38020095
0.38101592
0.028291928
0.016470752
0.0068180136
0.0013893076
0.0013905367
0.0068370076
0.016519153
0.028371782
0.38186148
0.38275531
0.028453688
0.016567815
0.006855958
0.0013917675
0.0013931041
0.0068767854
0.016620836
0.028541236
0.3836834
0.38466267
0.02863129
0.016674411
0.0068976775
0.0013944501
0.0013959034
0.0069203738
0.016732064
0.028726446
0.38568302
0.38675861
0.028825054
0.01679084
0.0069433478
0.0013973799
0.0013989672
0.0069681282
0.016853681
0.028928791
0.38788079
0.38906164
0.029036491
0.016918044
0.0069933565
0.0014005897
0.001402328
0.0070204463
0.016986657
0.029149844
0.39030084
0.39160293
0.029267257
0.017057013
0.0070481004
0.0014041102
0.0014060121
0.0070776691
0.01713182
0.029390883
0.39296658
0.39440431
0.029519092
0.017208702
0.0071079319
0.0014079653
0.0014100367
0.007140022
0.017289718
0.029652883
0.39591092
0.39749018
0.029792488
0.01737352
0.0071730453
0.0014121712
0.0014144107
0.0072075501
0.017460384
0.029935862
0.39913739
0.4008566
0.030084808
0.017549977
0.0072429957
0.0014167197
0.0014143118
0.007206036
0.017456293
0.02992883
0.3990753
0.39746908
0.029789594
0.017372126
0.0071725236
0.0014121329
0.0014100119
0.0071395299
0.017288455
0.029650283
0.39590532
0.39440247
0.02951628
0.017207094
0.007107161
0.0014079327
0.001405956
0.0070765606
0.017129048
0.029385931
0.39296653
0.3916026
0.029263235
0.017054645
0.0070470432
0.0014040472
0.0014022475
0.0070191214
0.016983275
0.029143749
0.39030392
0.3890682
0.029031555
0.016915189
0.0069921258
0.0014005077
0.0013988771
0.006966762
0.016850098
0.028922251
0.38787582
0.38675829
0.028821053
0.016788626
0.0069424045
0.0013973073
0.0013958411
0.0069196061
0.016729909
0.028722137
0.38568351
0.38466362
0.028629784
0.016673712
0.0068973221
0.0013944113
0.0013930717
0.006876343
0.016619585
0.028538502
0.3836785
0.38274742
0.028453851
0.016567992
0.0068558871
0.0013917585
0.0013905308
0.0068368168
0.016518534
0.028370089
0.38185058
0.38099509
0.028293019
0.016471481
0.0068181526
0.0013893205
0.0013881894
0.0068007899
0.016426261
0.028216114
0.38018661
0.37940759
0.028144776
0.016382745
0.0067835643
0.00138706
0.0013860032
0.0067675976
0.016340966
0.028073416
0.37864207
0.37791593
0.028007599
0.016300754
0.006751681
0.0013849393
0.0013839375
0.0067368783
0.016261797
0.027940716
0.37718794
0.37650643
0.027880366
0.016224721
0.0067221653
0.0013829214
0.0013819614
0.0067085344
0.016188718
0.027818491
0.37581177
0.3751141
0.027763485
0.016154531
0.0066949106
0.0013809726
0.0013800575
0.0066830513
0.016123775
0.027712322
0.37436509
0.37352986
0.027677206
0.016098976
0.0066724381
0.0013791352
0.0013782858
0.0066646383
0.01608167
0.027655863
0.3724617
0.37094165
0.027645633
0.01606575
0.0066556109
0.0013769844
0.0013739594
0.0066317777
0.016013769
0.027575806
0.36840544
0.36421208
0.027320302
0.015852917
0.006564101
0.0013653168
0.0013471237
0.0064270771
0.015511058
0.026732559
0.35818788
0.35118766
0.025842303
0.01500033
0.0062197954
0.0013184733
0.0012744883
0.0058334011
0.014029495
0.024217786
0.33773043
0.35300599
0.027805185
0.016035076
0.0065726552
0.001347414
0.0013210726
0.0063555259
0.015328772
0.026386116
0.35264787
0.35667885
0.027138372
0.015705302
0.0064945526
0.0013602429
0.0013762256
0.0066774838
0.016172864
0.027912796
0.36449289
0.36865305
0.028154684
0.016322628
0.0067420977
0.001384697
0.0013873141
0.0067660249
0.016375913
0.02822557
0.37127549
0.37285032
0.028237762
0.016390584
0.006774025
0.0013885251
0.0013894062
0.0067830361
0.016410295
0.028260912
0.37394829
0.37481472
0.028299221
0.016434945
0.0067930644
0.0013902843
0.0013912519
0.0068059149
0.016467071
0.028349814
0.37556129
0.37627412
0.028407335
0.01650085
0.0068188975
0.0013921977
0.0013932147
0.0068335115
0.016538147
0.028468487
0.37697794
0.37769295
0.028531679
0.016575129
0.0068477246
0.0013941971
0.001395262
0.006863593
0.016615722
0.028598652
0.37840054
0.37913682
0.028666607
0.01665564
0.0068789878
0.0013962955
0.0013974195
0.0068960527
0.016699189
0.028738471
0.37989378
0.38070069
0.028812229
0.016742649
0.0069128761
0.0013985275
0.0013997326
0.006931447
0.016790011
0.02889047
0.38151958
0.38238037
0.028970504
0.016837384
0.0069498571
0.0014009306
0.0014022315
0.0069700997
0.016888913
0.029055653
0.38327378
0.38421665
0.029143195
0.016940871
0.006990339
0.001403536
0.0014049487
0.0070124338
0.016997062
0.029236119
0.38519606
0.38622755
0.02933189
0.017054022
0.0070346676
0.0014063762
0.0014079148
0.0070587229
0.01711507
0.029432853
0.38730327
0.38844116
0.029537508
0.017177459
0.0070831395
0.001409483
0.0014111693
0.0071094225
0.017244075
0.029647684
0.38962485
0.3908789
0.029762306
0.017312492
0.0071362515
0.0014128971
0.0014147428
0.0071649265
0.017385059
0.029882366
0.39219288
0.39357129
0.030007042
0.017459693
0.0071942759
0.0014166401
0.001418663
0.007225571
0.017538771
0.030137842
0.39500831
0.39651799
0.030274167
0.017620524
0.0072577815
0.0014207497
0.001422969
0.0072920463
0.017706699
0.030416158
0.39808729
0.39972485
0.030566977
0.017797729
0.0073282215
0.0014252789
0.0014276437
0.0073670845
0.017890556
0.030715892
0.40142477
0.0014142921
0.0072054321
0.017454975
0.029926894
0.39906913
0.39745126
0.029785711
0.017369634
0.0071715015
0.001412083
0.0014099397
0.0071384071
0.017285554
0.02964556
0.39588399
0.39439289
0.029513656
0.017205653
0.0071066898
0.0014078803
0.0014059379
0.0070766222
0.017129041
0.029385678
0.39297331
0.39162124
0.029265074
0.017055885
0.0070475811
0.0014040672
0.0014023063
0.0070201172
0.016985707
0.02914763
0.39032908
0.38909651
0.029036737
0.016918462
0.0069934649
0.0014005998
0.0013989983
0.0069682718
0.016853971
0.028928664
0.38790843
0.38677051
0.028824932
0.016790848
0.0069432049
0.0013974117
0.0013959112
0.0069198125
0.01673065
0.028723826
0.38567749
0.3846482
0.028628922
0.016673037
0.0068970341
0.0013944376
0.0013930822
0.0068762271
0.016619242
0.028538076
0.38366769
0.38273197
0.028453578
0.016567803
0.0068558177
0.0013917636
0.0013905347
0.0068367795
0.016518494
0.028370145
0.38184555
0.38100142
0.028293137
0.016471505
0.0068181465
0.0013893255
0.0013881967
0.0068007901
0.016426305
0.028216262
0.38018336
0.37940119
0.028144322
0.016382512
0.0067834831
0.0013870665
0.001386009
0.0067674482
0.01634058
0.028072794
0.37862939
0.37789741
0.028006112
0.016299928
0.0067513816
0.001384941
0.0013839385
0.0067365396
0.016260949
0.027939385
0.37716909
0.37648078
0.027878116
0.01622343
0.0067216796
0.0013829198
0.0013819608
0.0067079921
0.016187365
0.027816321
0.37577848
0.37507875
0.027760869
0.016152957
0.0066942863
0.0013809744
0.0013800642
0.0066823796
0.016122111
0.027709631
0.37431615
0.37348521
0.0276745
0.016097301
0.0066717522
0.0013791508
0.0013783114
0.0066639403
0.016079942
0.027653053
0.37241024
0.37089255
0.027642051
0.0160636
0.0066547429
0.0013770151
0.0013740027
0.0066310684
0.016011941
0.027572693
0.36837816
0.36422716
0.027319517
0.015852655
0.0065640736
0.0013653993
0.0013473188
0.0064286782
0.015514923
0.026738763
0.3583367
0.35148333
0.025859192
0.01500944
0.0062234272
0.0013189479
0.001275862
0.0058666616
0.01411395
0.024352708
0.33909993
0.37560243
0.021834135
0.012644496
0.0052902563
0.001244132
0.0013176078
0.0062040853
0.014975379
0.025764939
0.34625726
0.35108692
0.025924421
0.015075803
0.0062445376
0.001315601
0.001317396
0.0062315479
0.015019148
0.025843959
0.35277496
0.35884687
0.026722524
0.015510742
0.0064295748
0.0013465964
0.0013648392
0.006565508
0.015853689
0.027316354
0.36451126
0.36858823