/*--------------------------------*- C++ -*----------------------------------*\
  =========                 |
  \\      /  F ield         | OpenFOAM: The Open Source CFD Toolbox
   \\    /   O peration     | Website:  https://openfoam.org
    \\  /    A nd           | Version:  7
     \\/     M anipulation  |
\*---------------------------------------------------------------------------*/
FoamFile
{
    version     2.0;
    format      ascii;
    class       volScalarField;
    location    "280";
    object      nut;
}
// * * * * * * * * * * * * * * * * * * * * * * * * * * * * * * * * * * * * * //

dimensions      [0 2 -1 0 0 0 0];

internalField   nonuniform List<scalar> 
25201
(
6.8148884
6.8050036
6.8149063
6.8050408
6.7020905
6.7774425
6.7935217
6.8301544
6.8177051
6.757455
6.8176837
6.777418
6.741752
6.240546
6.1389862
6.6295936
6.5488172
6.4744242
6.4406718
6.2251996
6.3783232
6.3790191
6.4438896
6.3342968
6.3260026
6.1834803
6.2764772
6.4740139
6.4180714
6.2122301
6.2565117
6.3155783
5.968971
6.0377885
6.1250601
6.1390691
6.3125153
6.2515273
6.0533728
5.9831779
6.204867
6.1788994
6.1862269
5.931873
5.9470908
5.9809813
6.1923061
6.4658849
6.692538
6.7417782
6.7883688
6.7450359
6.5980189
6.6583274
6.7188277
6.6871712
6.6618478
6.5879652
6.6200455
6.4052311
6.4362636
6.5184673
6.5471229
6.5958519
6.6240004
6.7451661
6.6857205
6.4903698
6.4464931
6.2823389
6.2392374
6.2931879
6.5174763
6.5562586
6.506742
6.126592
6.180001
6.2452832
6.2671084
6.3227851
6.3956756
6.4568339
6.358127
6.3662448
6.2977541
6.3871304
6.2686928
6.2402709
6.1379815
6.1953503
6.1207867
6.0758644
6.0695989
6.0779076
6.0698937
6.1320247
6.1317406
6.0703601
5.9568007
6.034045
6.0362082
5.963552
5.973672
6.046547
6.0481319
5.9879202
5.8528002
5.9397335
5.991942
5.9849094
5.923707
5.9289101
5.8362368
5.8277655
5.6843166
5.7943761
5.7980948
5.6935063
5.7036503
5.8440833
5.9365777
5.8110396
5.8144449
5.7125297
5.5551597
5.6868991
5.7835122
5.991599
6.1952469
6.0533213
5.9831728
5.9469887
5.9811837
6.0142965
6.0861934
6.1648225
6.2689106
6.3582539
6.5185006
6.6618888
6.6872084
6.5471011
6.4052346
6.4362447
6.5880155
6.6200692
6.6582913
6.7188079
6.7883311
6.7451625
6.6239812
6.5957097
6.4465723
6.4901983
6.6856201
6.6280733
6.7449751
6.6924554
6.5175716
6.556333
6.2393297
6.2931172
6.3871892
6.3956848
6.4568732
6.3227711
6.2670913
6.2452451
6.1182087
6.1846093
6.2977457
6.3662878
6.2411005
6.3238525
6.3684844
6.2641981
6.2408197
6.224139
6.0260549
6.0423465
5.8559411
5.9181065
5.9416946
5.8527104
5.8444309
5.7440381
5.8299968
5.8293312
5.7248955
5.5678566
5.7020533
5.8116506
6.0257622
6.2241931
6.0759666
6.1205104
6.1372871
5.7032109
5.8106859
5.9364297
6.0461956
6.0482236
5.9880651
6.0695703
6.0774123
5.9729175
5.843999
5.8527536
5.9396418
5.8144824
5.7125675
5.5551848
5.6867384
5.6800348
5.66643
5.7674007
6.8049436
6.8147379
6.6926472
6.4741012
6.4180262
6.1864221
6.0379568
6.2564134
6.2122099
6.2051042
6.1787601
5.9470473
5.9314728
5.9687199
5.9831721
6.0534078
6.2514337
6.3126311
6.3154284
6.1250349
6.1389705
6.2403969
6.3789166
6.5487635
0.0011264896
0.0053628859
0.012963618
0.022359676
0.29798239
0.30374335
0.023146273
0.013396683
0.0055363277
0.0011566622
0.0011717255
0.0056864868
0.013773368
0.023774132
0.31036254
0.31409333
0.023989173
0.013907741
0.0057440978
0.0011789227
0.0011813862
0.0057641814
0.013951623
0.024046967
0.316336
0.31769064
0.024057721
0.013964526
0.0057712298
0.0011824985
0.0011833283
0.0057788293
0.013981062
0.024077085
0.31862062
0.31935804
0.024109319
0.014001882
0.0057873328
0.0011841204
0.0011849822
0.0057982982
0.014029369
0.024152844
0.31999226
0.32060503
0.024201096
0.014057782
0.0058092487
0.0011858101
0.0011866984
0.0058217272
0.014089708
0.024253625
0.32118829
0.32178613
0.02430693
0.014120916
0.0058337285
0.0011875458
0.0011884607
0.005847151
0.01415528
0.024363722
0.32238635
0.32301279
0.024421027
0.014188937
0.0058601386
0.0011893455
0.0011903073
0.0058745905
0.014225829
0.024481953
0.32364887
0.32431908
0.024544098
0.014262487
0.0058887928
0.001191253
0.0011922827
0.0059045102
0.014302534
0.024610214
0.32500919
0.32574196
0.024678286
0.014342792
0.0059201424
0.0011933091
0.0011944234
0.0059372823
0.014386384
0.024750277
0.32649941
0.32730206
0.024824956
0.014430649
0.0059545087
0.0011955469
0.001196761
0.0059732305
0.01447815
0.024903364
0.32813603
0.32902067
0.024985081
0.014526748
0.0059922048
0.0011979922
0.0011993135
0.0060126944
0.014578683
0.025070872
0.32994266
0.3309177
0.025160106
0.014631853
0.0060335005
0.0012006571
0.0012020938
0.006055842
0.014688447
0.025253685
0.33193294
0.33300048
0.025350897
0.014746483
0.0060786003
0.0012035598
0.0012051242
0.0061028931
0.014807954
0.025452599
0.33410948
0.33527343
0.025558519
0.014871265
0.0061277636
0.0012067351
0.0012084555
0.0061541912
0.014938066
0.025669062
0.3364869
0.33776344
0.025785032
0.015007432
0.006181443
0.0012102304
0.0012120847
0.006210049
0.015079341
0.025903692
0.3390921
0.34046882
0.026026632
0.015153145
0.0062392437
0.0012140064
0.38181277
0.023480427
0.013799687
0.005746094
0.0011640512
0.0011623347
0.0057197427
0.013733124
0.02337038
0.38028688
0.3787955
0.023262594
0.013667234
0.005693465
0.001160668
0.0011590508
0.0056680012
0.013602452
0.023155389
0.37734885
0.37597244
0.023053786
0.013540535
0.0056435066
0.0011574748
0.0011559909
0.0056203308
0.01348132
0.022955406
0.37466078
0.3734184
0.022862633
0.0134247
0.0055979045
0.0011545576
0.0011532041
0.0055767426
0.013370527
0.022772553
0.37223079
0.37110798
0.022687988
0.013318857
0.0055562872
0.0011518907
0.0011506583
0.0055371662
0.013269763
0.022606151
0.37003828
0.36902704
0.022529879
0.013223118
0.0055186956
0.0011494641
0.0011483433
0.0055013308
0.0131784
0.022455119
0.36805282
0.36712733
0.022385086
0.013135531
0.0054843649
0.0011472469
0.0011462201
0.0054684976
0.0130945
0.02231627
0.36623842
0.36539383
0.022252254
0.013055284
0.005452988
0.0011452119
0.0011442689
0.0054385153
0.013017653
0.022188794
0.3645718
0.36381531
0.022131283
0.012982252
0.0054244738
0.0011433436
0.0011424759
0.0054113472
0.012947945
0.022073122
0.36307045
0.36236536
0.022019789
0.012915172
0.0053983814
0.0011416089
0.0011407911
0.0053862772
0.012883362
0.021965605
0.36166323
0.36098848
0.021915476
0.01285259
0.0053741324
0.0011399592
0.0011391685
0.0053628731
0.012822919
0.021864851
0.36032055
0.35966657
0.021818517
0.012794327
0.0053515656
0.0011383559
0.00113758
0.0053412889
0.012767323
0.021772781
0.35899732
0.35830025
0.021734542
0.012742753
0.005331341
0.0011367853
0.0011360275
0.0053232094
0.012722373
0.021702607
0.35749385
0.35653371
0.021686549
0.012707778
0.0053162143
0.0011352283
0.0011341141
0.0053092634
0.012694075
0.021673095
0.35515036
0.35291878
0.021623572
0.012654885
0.0052905345
0.0011316006
0.0011250453
0.0052396008
0.012534299
0.021432818
0.3491624
0.34338391
0.020979928
0.012263584
0.0051281462
0.0011109858
0.0010905925
0.0049510304
0.011841789
0.02026502
0.33646655
0.31554668
0.018173974
0.010500784
0.0043995888
0.0010512226
0.0010887718
0.0049589599
0.011861957
0.020293683
0.33702766
0.34400082
0.021004362
0.012279261
0.0051343771
0.0011099784
0.0011245847
0.0052462939
0.012550752
0.021458874
0.34968312
0.35332031
0.021641872
0.012666542
0.0052954837
0.0011313162
0.0011339629
0.0053134368
0.012704443
0.02169009
0.35551266
0.35684357
0.021698047
0.012714929
0.0053192698
0.0011351258
0.0011359729
0.0053259585
0.012729407
0.021714626
0.35778021
0.35853539
0.021742584
0.012747509
0.0053333409
0.0011367405
0.0011375552
0.0053430732
0.01277198
0.021781024
0.35920856
0.35986096
0.021823667
0.012797249
0.0053528209
0.0011383299
0.0011391555
0.0053640607
0.012826105
0.021870779
0.36049047
0.36113707
0.021918537
0.01285425
0.0053748906
0.0011399415
0.0011407861
0.0053870694
0.012885506
0.02196975
0.36179236
0.36247764
0.02202151
0.012916119
0.0053988875
0.0011416031
0.0011424877
0.0054120821
0.012949906
0.022076874
0.36317966
0.36391807
0.022133171
0.012983342
0.005425033
0.0011433562
0.0011442985
0.0054393937
0.01302003
0.022193285
0.36468172
0.36548753
0.022254811
0.013056708
0.0054536441
0.0011452351
0.0011462511
0.0054693344
0.013096722
0.02232038
0.36632499
0.36720933
0.022387821
0.013137055
0.0054850448
0.0011472701
0.0011483702
0.0055021875
0.013180689
0.022459313
0.36812982
0.36910223
0.022533228
0.013224975
0.0055194756
0.0011494811
0.0011506747
0.0055381262
0.013272338
0.022610829
0.37012185
0.37119314
0.022691394
0.013320758
0.0055570785
0.0011518941
0.0011532064
0.0055775753
0.013372801
0.022776762
0.37231879
0.37350948
0.022865515
0.013426258
0.0055985413
0.0011545511
0.0011559893
0.0056210133
0.013483206
0.022958959
0.37475692
0.37607307
0.023056342
0.013541904
0.0056440668
0.0011574743
0.0011590647
0.0056686714
0.013604225
0.023158623
0.37745148
0.3789004
0.023265596
0.013669045
0.0056942481
0.0011606999
0.0011624029
0.0057210859
0.013736374
0.023375499
0.38039595
0.38194639
0.023489098
0.013805015
0.0057481586
0.0011641588
0.0011659934
0.0057758838
0.013874899
0.02360417
0.38357409
0.0012069657
0.006170808
0.014951907
0.025630927
0.34156015
0.34010529
0.025505724
0.014876537
0.006140901
0.0012049885
0.0012030776
0.0061114045
0.014801864
0.025381438
0.33869532
0.33734814
0.025263101
0.014730155
0.0060828892
0.0012012361
0.0011994698
0.0060555088
0.01466055
0.025147103
0.33604908
0.3348167
0.025037197
0.014593979
0.0060291132
0.0011977494
0.0011961258
0.006004143
0.014530279
0.024930725
0.333637
0.33251914
0.024830452
0.014469479
0.0059800225
0.0011945588
0.001193082
0.0059572566
0.014411215
0.024732829
0.33144256
0.33044016
0.024642139
0.014356114
0.005935387
0.0011916594
0.0011903255
0.0059147691
0.014303158
0.024553143
0.32947057
0.32855575
0.024470049
0.014252692
0.0058947691
0.0011890322
0.0011878209
0.0058759972
0.014204336
0.024388616
0.32767449
0.32684082
0.02431258
0.014158128
0.0058576962
0.001186637
0.0011855286
0.0058405882
0.014113882
0.02423783
0.3260388
0.32528535
0.024168694
0.01407179
0.0058239078
0.001184441
0.0011834239
0.005808357
0.014031395
0.024100179
0.324555
0.3238653
0.024036905
0.013992852
0.0057930921
0.0011824165
0.001181474
0.0057789205
0.013955877
0.023973936
0.32319611
0.32256162
0.023915959
0.013920526
0.0057649249
0.0011805318
0.0011796469
0.0057519703
0.01388655
0.023857822
0.32194187
0.32134893
0.023804399
0.013853955
0.0057390768
0.0011787512
0.0011779031
0.0057271846
0.013822606
0.023750535
0.32076353
0.32019767
0.023701954
0.013792795
0.0057153638
0.0011770343
0.0011762078
0.0057047089
0.013764722
0.023653992
0.31961331
0.3190103
0.023615216
0.013739838
0.0056945939
0.0011753645
0.0011745712
0.0056866859
0.013720064
0.023584361
0.31830041
0.31744529
0.023572838
0.013707696
0.0056804416
0.0011737444
0.0011725703
0.0056744886
0.013696898
0.023565355
0.3161843
0.31408584
0.023513305
0.013655838
0.0056551042
0.0011697257
0.0011620164
0.0056010581
0.01352538
0.023301819
0.31061828
0.30547082
0.022791011
0.013227857
0.0054818888
0.0011451778
0.0011182954
0.0053132032
0.012805343
0.022035378
0.29967039
0.29905868
0.022415005
0.013016005
0.0053944383
0.0011225882
0.0011567075
0.0055275034
0.013369299
0.023105477
0.30347603
0.31046325
0.023786776
0.013781117
0.0056894377
0.0011716162
0.0011789842
0.0057461324
0.013911884
0.023994531
0.31409254
0.31636234
0.02405153
0.013954074
0.0057651538
0.0011813402
0.0011824961
0.0057726824
0.013967708
0.024061507
0.31770218
0.31864518
0.024079283
0.01398192
0.0057791029
0.001183266
0.0011841149
0.0057883916
0.014004178
0.024111808
0.31937588
0.32001047
0.024154046
0.01402963
0.0057983277
0.0011849292
0.0011858134
0.0058101314
0.014059663
0.024202927
0.3206012
0.32118909
0.024254355
0.014089686
0.005821638
0.0011866542
0.0011875556
0.0058344803
0.014122496
0.024308358
0.32177614
0.32238374
0.024364089
0.014155055
0.0058469893
0.0011884245
0.0011893614
0.0058608381
0.014190413
0.024422409
0.32300727
0.32365068
0.024482201
0.014225567
0.005874419
0.0011902787
0.0011912754
0.0058894724
0.014263923
0.024545474
0.32431428
0.32501099
0.02461074
0.014302454
0.0059044097
0.001192264
0.0011933374
0.0059208543
0.014344286
0.02467976
0.32573638
0.32650252
0.024751486
0.01438671
0.0059373329
0.0011944132
0.0011955773
0.0059552947
0.014432335
0.024826802
0.32730379
0.32814487
0.024905198
0.014478872
0.0059734296
0.0011967544
0.0011980262
0.0059931043
0.014528818
0.024987758
0.32902244
0.3299472
0.025073753
0.014579952
0.0060130762
0.0011993219
0.0012007154
0.006034565
0.014634396
0.025163741
0.33091275
0.33192828
0.02525767
0.01469039
0.0060565
0.0012021436
0.0012036729
0.0060799926
0.014749841
0.025356005
0.33299212
0.33411286
0.025458451
0.014811083
0.0061040576
0.0012052434
0.0012069133
0.0061297222
0.014875977
0.025565861
0.33528869
0.33653076
0.025677368
0.014942686
0.0061559661
0.0012086233
0.0012104272
0.0061837353
0.015012839
0.025793526
0.33783008
0.33918871
0.025914604
0.015085314
0.0062122577
0.001212278
0.0012142211
0.0062421062
0.015160376
0.026038612
0.34059972
0.34206058
0.026167271
0.015237683
0.0062727166
0.0012162294
0.001206935
0.0061704594
0.014951006
0.02562937
0.34154481
0.34010127
0.025504608
0.014875834
0.0061406069
0.0012049554
0.0012030429
0.0061111364
0.01480124
0.025380452
0.33869721
0.33735469
0.025262189
0.014729568
0.006082631
0.0012012018
0.0011994372
0.0060552599
0.014659975
0.025146186
0.33605604
0.3348232
0.025036102
0.014593307
0.0060288356
0.0011977191
0.0011960999
0.00600387
0.014529624
0.024929663
0.33364072
0.33252302
0.024829303
0.014468781
0.0059797423
0.0011945373
0.0011930679
0.0059570366
0.014410709
0.024732083
0.3314513
0.33044058
0.024640711
0.014355282
0.005935073
0.0011916449
0.0011903135
0.0059144952
0.014302472
0.024552058
0.32946936
0.32855521
0.024468968
0.014252021
0.0058945048
0.0011890217
0.0011878127
0.005875784
0.014203823
0.024387841
0.32767425
0.32684341
0.02431201
0.014157722
0.0058575207
0.0011866305
0.0011855242
0.0058404657
0.014113618
0.024237475
0.32603975
0.32529416
0.024168749
0.014071726
0.0058238538
0.00118444
0.0011834274
0.0058083794
0.014031528
0.024100533
0.32456586
0.3238793
0.024037418
0.013993062
0.0057931439
0.0011824229
0.0011814839
0.0057790288
0.013956209
0.023974591
0.32320642
0.32257947
0.023917139
0.013921109
0.0057651144
0.0011805471
0.0011796662
0.0057522008
0.013887199
0.023859005
0.32195799
0.32136093
0.023805777
0.01385468
0.0057393286
0.0011787732
0.0011779277
0.0057274523
0.013823345
0.023751846
0.32077777
0.32020882
0.023702975
0.013793352
0.0057155712
0.0011770582
0.0011762316
0.0057048909
0.013765214
0.023654866
0.31962185
0.31901445
0.023615597
0.013740046
0.0056946789
0.0011753846
0.0011745913
0.0056868136
0.013720423
0.023585063
0.31831359
0.31745717
0.023572999
0.013707771
0.0056804756
0.0011737574
0.0011725752
0.0056746375
0.01369724
0.023565884
0.31619946
0.31411633
0.023513907
0.013656226
0.0056552533
0.0011697177
0.001161929
0.0056006878
0.01352466
0.02330057
0.31065296
0.30553139
0.022788076
0.013226455
0.00548135
0.0011450578
0.0011175654
0.0053105722
0.012800605
0.022026873
0.2998585
0.3379541
0.02034519
0.011912797
0.0049867134
0.0010850203
0.0011098563
0.0051300329
0.01226268
0.020976995
0.34374693
0.34973438
0.021463932
0.01255332
0.0052470877
0.0011245965
0.0011315349
0.0052969369
0.012669449
0.021645595
0.35335072
0.35551529
0.021691151
0.012704381
0.0053133282
0.0011340399
0.0011352186
0.005319791
0.012716045
0.021698967
0.3568209
0.35775523
0.021713988
0.012728339
0.0053254365
0.001135993
0.0011367996
0.0053336874
0.012748189
0.021742736
0.35851175
0.35918622
0.021780199
0.012770937
0.0053425942
0.0011375633
0.001138385
0.0053533169
0.012798308
0.021824399
0.35982382
0.36046615
0.021870772
0.012825547
0.0053637561
0.0011391619
0.00113999
0.0053754334
0.012855462
0.021919622
0.36111404
0.36177956
0.021969905
0.012885038
0.0053867953
0.0011407863
0.0011416415
0.0053993761
0.012917201
0.022022442
0.36245954
0.36316875
0.022076842
0.012949329
0.0054117612
0.0011424782
0.0011433811
0.0054253903
0.012984097
0.022133639
0.36390354
0.36467324
0.022192732
0.013019164
0.0054389627
0.0011442774
0.0011452453
0.0054538367
0.013057048
0.022254658
0.36547336
0.36631594
0.022319162
0.013095476
0.005468756
0.0011462157
0.0011472639
0.0054850267
0.01313688
0.022386946
0.36720019
0.36812529
0.022457123
0.013178913
0.0055014208
0.001148323
0.0011494682
0.0055192843
0.013224321
0.022531536
0.3690909
0.37011055
0.022608443
0.013270501
0.0055373477
0.0011506338
0.0011518959
0.0055569138
0.013320214
0.022690008
0.37117875
0.37230972
0.022774882
0.013371284
0.0055769254
0.0011531934
0.0011545856
0.0055985232
0.013426068
0.022864781
0.37349606
0.37474742
0.02295805
0.013482292
0.0056206063
0.0011560133
0.0011575361
0.0056442013
0.013542051
0.023056154
0.37605658
0.37743251
0.023158172
0.013603619
0.005668388
0.0011591033
0.001160748
0.0056942047
0.01366877
0.023264773
0.37886691
0.38035447
0.023374356
0.013735202
0.0057204984
0.0011624089
0.0011641469
0.0057472894
0.013802492
0.023484577
0.38188931
0.38350206
0.023600902
0.013872874
0.0057751049
0.0011659774
0.34198323
0.026160352
0.015233624
0.0062711391
0.0012161295
0.0012141056
0.0062405049
0.015156272
0.026031556
0.34051883
0.33912812
0.02590913
0.015082239
0.0062110351
0.0012121745
0.0012103261
0.0061823411
0.015009338
0.025787332
0.337768
0.33647099
0.025671772
0.014939494
0.0061546441
0.0012085184
0.0012067955
0.0061282799
0.014872203
0.025559003
0.33523798
0.33406912
0.025453016
0.01480806
0.0061028168
0.001205131
0.001203559
0.0060786762
0.014746335
0.025349452
0.33295029
0.3318901
0.0252526
0.014687644
0.0060553827
0.0012020413
0.001200614
0.0060333762
0.014631207
0.025157726
0.33087499
0.32991447
0.025069836
0.014577852
0.0060121933
0.0011992388
0.0011979522
0.0059922219
0.014526444
0.024983185
0.32899276
0.32811535
0.024903213
0.014477825
0.0059729216
0.001196705
0.0011955355
0.0059547627
0.014430883
0.024823816
0.3272755
0.32647803
0.024750758
0.014386422
0.0059371178
0.0011943916
0.001193319
0.0059205639
0.014343442
0.024677783
0.32570966
0.324981
0.024610691
0.014302592
0.0059043614
0.00119226
0.0011912679
0.0058892544
0.014263216
0.024543616
0.32427757
0.32361143
0.024482283
0.014225822
0.0058744185
0.0011902826
0.0011893579
0.0058606189
0.014189683
0.024420455
0.32296418
0.32234664
0.024364083
0.014155287
0.0058469787
0.00118843
0.0011875541
0.0058342868
0.014121857
0.024306606
0.32173962
0.32115289
0.024254399
0.014089954
0.0058216402
0.0011866619
0.0011858135
0.0058099416
0.014059014
0.024201106
0.3205635
0.3199672
0.024154962
0.014030346
0.0057984734
0.0011849433
0.0011841226
0.0057883703
0.014003955
0.024110633
0.3193385
0.31861897
0.024080639
0.013982974
0.0057794004
0.0011832863
0.0011825122
0.0057729958
0.013968303
0.024061665
0.31768384
0.31635135
0.024054478
0.013956097
0.0057658491
0.0011813682
0.0011789898
0.0057474314
0.013914914
0.023998627
0.31410349
0.310459
0.023789975
0.013782433
0.0056896622
0.0011715339
0.0011561473
0.0055317573
0.013379088
0.023118722
0.30353237
0.29881444
0.022408855
0.013013492
0.0053935008
0.0011217362
0.0011263637
0.0053743916
0.012988798
0.022395981
0.29833358
0.30393706
0.023156483
0.013403994
0.0055397278
0.0011561841
0.0011713268
0.0056884915
0.013777407
0.023779227
0.31048902
0.31417571
0.023995562
0.01391204
0.0057459049
0.0011786888
0.0011812423
0.0057658071
0.013955243
0.024051925
0.31639673
0.3177268
0.024063666
0.013968438
0.0057728188
0.0011824155
0.0011832652
0.0057799902
0.013983668
0.024080612
0.31864812
0.31937721
0.024113191
0.014004515
0.0057884148
0.0011840787
0.0011849443
0.0057990369
0.01403098
0.024154848
0.3199976
0.32058822
0.02420369
0.014059589
0.0058099799
0.0011857824
0.0011866663
0.0058220992
0.014090388
0.024254084
0.32116457
0.32175545
0.024308456
0.014122054
0.0058341899
0.0011875245
0.001188437
0.0058473415
0.014155486
0.024363415
0.32235363
0.32298312
0.024422048
0.014189775
0.0058604963
0.0011893341
0.0011902961
0.0058747871
0.014226092
0.024481819
0.32362121
0.32429324
0.02454532
0.014263415
0.005889178
0.0011912542
0.0011922842
0.0059047776
0.014302993
0.024610465
0.32498752
0.32572217
0.024679913
0.014343936
0.0059206102
0.0011933207
0.0011944325
0.0059376506
0.014387124
0.024751074
0.32648939
0.32730449
0.024826877
0.014431977
0.0059550595
0.0011955602
0.0011967671
0.0059737387
0.014479325
0.024905019
0.32814933
0.32904211
0.024987732
0.014528377
0.0059928229
0.0011979943
0.001199302
0.0060131382
0.014579779
0.025072569
0.32997058
0.33094942
0.025162404
0.014633218
0.0060340005
0.0012006423
0.0012020705
0.0060561926
0.01468933
0.025255073
0.33196868
0.3330422
0.025352904
0.014747714
0.0060790627
0.001203541
0.0012051095
0.0061033551
0.014809086
0.025454324
0.33415781
0.33533226
0.025561188
0.014873004
0.0061284661
0.0012067356
0.0012084711
0.0061551171
0.014940322
0.025672569
0.33656167
0.33786024
0.02578983
0.015010522
0.0061827241
0.0012102692
0.0012121589
0.0062119012
0.0150839
0.025910992
0.33921198
0.34061082
0.026037341
0.01515949
0.0062416418
0.0012141142
0.0012161489
0.0062721693
0.015236256
0.026164595
0.34206491
6.8854994
6.8827955
6.8854819
6.8827601
6.836163
6.8575234
6.8650695
6.9027279
6.8984027
6.8575383
6.8122614
6.8661816
6.8983905
6.8830978
6.8353191
6.8042996
6.7768667
6.6717601
6.7035586
6.5872804
6.7548685
6.7248401
6.5384889
6.3865316
6.672493
6.8037049
6.8581884
6.7505323
6.7935702
6.8254606
6.8632054
6.7853236
6.7509884
6.639021
6.6902976
6.5675238
6.7868733
6.7547316
6.7162748
6.6667441
6.7062145
6.4439915
6.3440873
6.2817868
6.6320504
6.5827354
6.552748
6.5978664
6.2821053
6.3313738
6.222853
6.1707265
6.126233
6.1800427
6.4657974
6.5065722
6.5066998
6.6924805
6.8049188
6.8147181
6.7773316
6.7416733
0.30057914
0.022019027
0.012797526
0.0053096046
0.0011226519
0.001146662
0.0054728961
0.013203386
0.022746967
0.30551584
0.31038978
0.023259427
0.013498808
0.0055903599
0.0011623902
0.0011699025
0.0056475464
0.013636529
0.023481638
0.31380407
0.31594713
0.02354283
0.013681636
0.0056681807
0.0011726056
0.0011737917
0.0056763173
0.013696919
0.023555184
0.31723932
0.31816368
0.023571913
0.013711046
0.0056829062
0.0011745564
0.0011753839
0.0056922988
0.013733597
0.023604794
0.31887999
0.3195227
0.023646632
0.013758948
0.0057022421
0.0011761786
0.0011770452
0.0057140444
0.013789014
0.023695507
0.32012495
0.32071669
0.02374602
0.013818679
0.0057254596
0.0011778696
0.0011787575
0.0057382844
0.01385154
0.023800196
0.32130706
0.32191549
0.023854621
0.013883539
0.0057506288
0.0011796104
0.0011805348
0.0057644064
0.013918797
0.023912832
0.32253409
0.32318476
0.023971563
0.013953457
0.005777826
0.001181437
0.0011824196
0.0057927696
0.013991634
0.024034589
0.32384673
0.32454309
0.024098582
0.014029508
0.0058074699
0.0011833896
0.0011844441
0.0058236851
0.014070823
0.024166751
0.32526545
0.32602892
0.024236671
0.014112361
0.0058398642
0.0011855004
0.0011866468
0.0058576427
0.014157614
0.024311399
0.32682162
0.32765798
0.024388272
0.014203346
0.0058754789
0.0011878018
0.0011890486
0.0058948541
0.014252556
0.024469499
0.32852947
0.32944815
0.024553683
0.014302732
0.0059144699
0.001190316
0.0011916784
0.005935628
0.014356379
0.024642249
0.33040672
0.33141548
0.024734212
0.014411335
0.0059571731
0.0011930719
0.001194565
0.0059803082
0.014469922
0.024831009
0.3324742
0.33358677
0.024931291
0.014530011
0.0060039312
0.0011960968
0.0011977316
0.0060291905
0.014593903
0.025036888
0.33475208
0.33598084
0.025146422
0.014659583
0.0060550495
0.0011994118
0.0012011938
0.0060824713
0.0147288
0.025260735
0.3372686
0.33861855
0.025380028
0.014800406
0.0061106949
0.0012030308
0.0012049599
0.0061401933
0.014874652
0.025502585
0.34002703
0.34149762
0.02562997
0.014951271
0.0061705136
0.0012069519
0.0012048756
0.0061389061
0.014871182
0.025496628
0.33997446
0.3386006
0.02537758
0.014799225
0.0061102497
0.0012029976
0.0012011738
0.006082059
0.014727746
0.025258562
0.33726415
0.33598039
0.025144136
0.01465828
0.0060544211
0.0011993898
0.0011976875
0.0060282646
0.014591584
0.025032739
0.33475295
0.33358731
0.024927928
0.014528032
0.0060030474
0.0011960465
0.0011945004
0.0059791989
0.014467085
0.024825888
0.33247771
0.33142201
0.02473008
0.014408947
0.0059561444
0.0011930062
0.0011916057
0.0059344831
0.014353369
0.024636748
0.3304034
0.32944884
0.024550344
0.014300888
0.0059136846
0.0011902578
0.0011889993
0.0058942184
0.014250763
0.0244659
0.32853083
0.32765964
0.024387049
0.014202786
0.0058751913
0.0011877719
0.001186622
0.0058572795
0.01415658
0.024309124
0.32681818
0.32602302
0.02423687
0.014112548
0.0058398187
0.0011854958
0.0011844424
0.0058235384
0.014070333
0.024165373
0.32525702
0.3245262
0.024099577
0.014030167
0.0058076039
0.0011834037
0.0011824327
0.0057927782
0.013991562
0.024033919
0.32383541
0.32316962
0.023972998
0.013954404
0.0057780676
0.0011814627
0.0011805542
0.0057644276
0.013918722
0.023912047
0.32251517
0.32189401
0.023855804
0.013884364
0.0057508258
0.0011796386
0.0011787751
0.0057381681
0.013851062
0.023798628
0.32127095
0.320687
0.023746983
0.013819343
0.0057255778
0.0011778974
0.0011770653
0.0057138989
0.013788511
0.023693993
0.32009121
0.31949213
0.023646808
0.013759199
0.0057022142
0.0011762063
0.0011754052
0.0056920093
0.013732752
0.023602798
0.31884804
0.3181298
0.023572417
0.013711355
0.0056828553
0.0011745956
0.001173834
0.0056760293
0.013696176
0.023553484
0.31720983
0.31590653
0.023544155
0.013682257
0.0056681898
0.0011726937
0.0011700351
0.0056474981
0.013637041
0.023483064
0.31372614
0.3101503
0.023265084
0.013499818
0.0055897534
0.0011626476
0.0011469356
0.0054720409
0.013206283
0.022760465
0.30496481
0.29902798
0.022003354
0.01277171
0.0052955478
0.0011225304
0.0010856546
0.0049691755
0.011949825
0.020624447
0.28752924
0.29951042
0.023547542
0.013578197
0.0055651247
0.0011408159
0.0011261207
0.0054175636
0.013065811
0.022489578
0.30046622
0.30364672
0.023102927
0.013370084
0.0055289436
0.0011580024
0.001172037
0.005686741
0.01377326
0.023771264
0.31040538
0.31393641
0.023975889
0.01389998
0.005741412
0.0011791715
0.0011815049
0.0057622878
0.013946559
0.024038315
0.31619419
0.31754242
0.024049167
0.013959325
0.0057692144
0.0011825594
0.0011833497
0.0057770803
0.013976574
0.024069674
0.3184879
0.31923217
0.024102745
0.013997825
0.0057857279
0.0011841195
0.0011849648
0.0057967754
0.014025435
0.024146263
0.31987397
0.32048562
0.024195576
0.01405439
0.0058079096
0.0011857862
0.0011866662
0.005820424
0.01408632
0.024247942
0.32108904
0.32170132
0.024301998
0.014117954
0.0058325856
0.0011875145
0.0011884315
0.0058461501
0.014152645
0.024359245
0.32230689
0.32293656
0.024417308
0.014186751
0.0058593061
0.0011893208
0.0011902863
0.0058738806
0.014223939
0.024478684
0.32358364
0.3242731
0.024541663
0.014261046
0.0058882475
0.0011912378
0.0011922715
0.0059041011
0.014301473
0.024608455
0.32497269
0.32570792
0.024676774
0.01434191
0.0059198181
0.0011932994
0.0011944148
0.0059370958
0.014385887
0.024749449
0.32647096
0.32727618
0.024824172
0.014430234
0.0059543733
0.0011955338
0.0011967453
0.0059732327
0.014478192
0.024903486
0.32811262
0.32899357
0.024985239
0.014526813
0.0059922146
0.0011979701
0.0011992902
0.006012751
0.014578923
0.025071428
0.32991236
0.3308843
0.025160782
0.014632188
0.0060336004
0.0012006366
0.0012020843
0.0060560437
0.014689064
0.025254855
0.33189547
0.33296683
0.025352739
0.014747488
0.0060789584
0.0012035686
0.0012051542
0.0061034504
0.014809458
0.025455276
0.3340895
0.33526735
0.025561773
0.014873208
0.0061285242
0.0012067854
0.0012085246
0.0061552619
0.014940758
0.025673514
0.33649546
0.33778579
0.025789991
0.015010604
0.0061827874
0.0012103198
0.0012122292
0.00621207
0.015084237
0.025911326
0.33912731
0.34052772
0.026040245
0.015162043
0.0062429959
0.0012142186
0.0012162581
0.0062762293
0.015241423
0.026167617
0.3419819
0.0012048631
0.0061384114
0.014870099
0.02549504
0.33996979
0.33858598
0.025374311
0.014797128
0.0061093928
0.0012029582
0.0012011134
0.0060811069
0.014725281
0.025254544
0.33724612
0.33597174
0.025141846
0.014657018
0.0060540042
0.0011993418
0.0011976704
0.0060283092
0.014591563
0.025032501
0.33475834
0.3336029
0.024929478
0.014529076
0.0060034987
0.001196062
0.0011945485
0.0059800386
0.014469141
0.024829172
0.33249885
0.33144583
0.024734471
0.014411718
0.0059572755
0.0011930824
0.0011917073
0.0059357622
0.014356657
0.024642196
0.33043101
0.32945973
0.024553705
0.014302816
0.0059143825
0.0011903503
0.0011890619
0.0058944076
0.014251421
0.02446738
0.32852628
0.32764684
0.024386338
0.014202227
0.0058749546
0.0011877961
0.0011866298
0.0058571752
0.014156276
0.024308741
0.32680889
0.3260099
0.024236646
0.014112391
0.0058397613
0.0011855005
0.0011844465
0.0058235103
0.014070308
0.024165436
0.32525289
0.32453181
0.024099695
0.014030197
0.0058076029
0.0011834089
0.00118244
0.0057927838
0.013991613
0.024034068
0.32383293
0.32316452
0.023972639
0.013954222
0.0057780053
0.0011814695
0.0011805608
0.0057643089
0.013918414
0.023911553
0.32250481
0.32187877
0.023854579
0.013883685
0.0057505813
0.0011796422
0.0011787785
0.005737892
0.01385037
0.023797544
0.32125552
0.32066592
0.02374513
0.013818281
0.00572518
0.0011778993
0.0011770689
0.0057134565
0.013787405
0.023692223
0.32006381
0.31946323
0.023644678
0.013757916
0.0057017071
0.001176213
0.0011754171
0.005691467
0.013731405
0.023600626
0.31880785
0.31809365
0.023570261
0.013710016
0.005682308
0.0011746166
0.0011738654
0.0056754808
0.013694814
0.023551278
0.3171684
0.31586772
0.023541334
0.013680561
0.0056675066
0.0011727316
0.0011700868
0.0056469658
0.013635657
0.023480711
0.31370678
0.31016789
0.023264782
0.013499807
0.0055898175
0.0011627361
0.0011471201
0.0054734964
0.013209809
0.022766165
0.3050976
0.29928364
0.022018016
0.012779641
0.0052987127
0.0011229515
0.0010868471
0.0049976347
0.012021716
0.020739617
0.28869779
0.31976928
0.018607692
0.010777631
0.0045094696
0.0010606177
0.0011191335
0.0052692001
0.012720476
0.02188935
0.29433256
0.29820529
0.021992977
0.012787529
0.0052966963
0.0011159066
0.0011214597
0.0053048891
0.012786241
0.022002265
0.30035007
0.30548754
0.022748968
0.013204258
0.005473411
0.0011463212
0.0011621758
0.0055906489
0.013499767
0.023260525
0.31038974
0.31386895
0.0234843