/*--------------------------------*- C++ -*----------------------------------*\
  =========                 |
  \\      /  F ield         | OpenFOAM: The Open Source CFD Toolbox
   \\    /   O peration     | Website:  https://openfoam.org
    \\  /    A nd           | Version:  7
     \\/     M anipulation  |
\*---------------------------------------------------------------------------*/
FoamFile
{
    version     2.0;
    format      ascii;
    class       volScalarField;
    location    "280";
    object      omega;
}
// * * * * * * * * * * * * * * * * * * * * * * * * * * * * * * * * * * * * * //

dimensions      [0 0 -1 0 0 0 0];

internalField   nonuniform List<scalar> 
25201
(
162.8785
163.09877
162.8785
163.09882
163.58668
161.79959
161.47277
165.85022
166.00609
167.2021
166.00623
161.79982
162.66441
173.67049
176.55887
162.17905
164.20907
166.1414
166.66452
173.19285
168.45396
169.47657
167.69228
170.87382
170.08042
174.52188
171.79092
166.01964
167.34033
172.83114
171.6926
170.14174
180.54219
178.62281
176.14335
176.50982
171.22691
172.7993
178.87955
180.79552
173.98812
174.64561
173.50039
181.56816
181.77511
181.52289
175.20521
168.23507
163.67893
162.66406
166.7557
167.63811
169.82638
168.46665
167.0405
165.50467
163.55285
165.38666
167.08071
172.40291
170.11675
167.17538
168.8098
169.97995
171.86093
169.09572
170.44239
175.16581
173.75463
177.88035
176.63046
173.84059
167.04911
168.56175
169.67529
179.48913
176.70838
175.05134
173.32382
171.91341
170.03497
168.36982
171.2025
172.11045
173.98082
171.43732
173.7585
173.63331
176.83092
175.08251
177.72405
179.67397
179.37202
178.79109
178.73012
176.65524
176.2884
178.38536
182.37217
179.66687
179.9367
182.42998
182.37927
179.92864
180.20232
182.19017
186.83266
183.87064
181.62457
181.03659
183.44174
183.58871
186.85848
186.88917
191.97519
187.93558
188.123
191.9054
191.81904
186.85666
183.63866
187.98513
188.22171
191.79554
197.48878
192.74248
188.79457
181.66197
175.1214
178.93196
180.8521
181.83961
181.54662
180.6662
178.74232
176.62657
173.76985
171.22126
167.18065
163.55541
165.5042
168.81065
172.40476
170.12123
165.39208
167.08139
168.4678
167.04087
166.75606
169.09571
171.86134
169.98285
173.75394
175.17035
170.44483
171.73933
167.63924
163.68108
167.0555
168.56218
176.63145
173.8506
171.44126
170.05566
168.38642
171.93857
173.35138
175.06177
178.74932
177.00243
173.98705
172.11461
175.71108
172.49184
173.64692
176.07009
175.71479
175.12241
181.39045
181.83985
187.83561
185.22091
184.11441
187.10234
187.67724
191.2928
188.36078
188.04429
191.65899
197.35705
192.55416
188.64544
181.40905
175.13639
179.68928
177.76764
176.91002
191.91535
188.06573
183.70979
180.00165
180.23567
182.22548
179.41131
178.86927
182.469
186.93437
186.8765
183.90893
188.2538
191.83685
197.52184
192.76998
192.66489
192.87155
188.59508
163.08222
162.82879
159.3986
166.00461
167.33681
173.49306
178.61304
171.68627
172.8274
173.97571
174.64775
181.7747
181.57906
180.54479
180.79258
178.87226
172.79221
171.20936
170.13383
176.13401
176.50249
173.61305
169.46108
164.18762
96987.692
30596.439
17074.587
12425.764
2028.6891
2000.5869
12193.948
16781.612
30113.572
95874.666
95009.382
29679.776
16547.021
12027.495
1968.9979
1953.4874
11967.71
16456.528
29511.817
94702.186
94612.856
29456.948
16432.196
11957.847
1946.2447
1943.982
11964.886
16434.421
29452.529
94626.882
94675.088
29463.621
16445.122
11977.227
1944.2131
1945.6759
11988.501
16457.263
29479.376
94732.778
94799.15
29496.691
16470.548
12000.759
1947.866
1950.3648
12011.821
16483.718
29514.687
94863.362
94932.628
29533.229
16497.861
12024.371
1953.1914
1956.1528
12036.131
16511.954
29552.184
94998.404
95069.572
29571.828
16527.151
12049.574
1959.3296
1962.6108
12062.404
16542.422
29592.031
95138.002
95212.522
29613.141
16558.928
12076.989
1966.1039
1969.7097
12091.116
16575.646
29634.998
95285.444
95365.042
29657.971
16593.697
12107.026
1973.5277
1977.4633
12122.622
16612.082
29681.852
95443.891
95529.646
29706.975
16631.866
12139.993
1981.6123
1985.8875
12157.197
16652.099
29733.172
95615.534
95708.798
29760.785
16673.82
12176.18
1990.3718
1994.986
12195.198
16696.188
29789.748
95803.435
95905.845
29820.367
16720.182
12216.058
1999.8245
2004.8155
12237.114
16744.984
29852.594
96010.46
96123.35
29886.601
16771.463
12260.005
2010.0378
2015.442
12283.238
16798.876
29922.35
96238.99
96362.811
29960.083
16828.059
12308.318
2021.0895
2026.9171
12333.82
16858.227
29999.651
96489.938
96625.313
30041.151
16890.107
12361.073
2032.9648
2039.1736
12388.874
16922.987
30084.259
96764.474
96910.077
30129.265
16957.761
12418.585
2045.6103
2052.2852
12449.805
16994.855
30178.473
97060.655
1860.1807
12651.511
17059.284
30125.286
96435.266
96295.995
30079.687
17023.287
12620.391
1854.0914
1848.2391
12591.005
16990.109
30039.246
96160.47
96028.445
30001.209
16959.374
12564.071
1842.6508
1837.2151
12537.513
16929.298
29963.809
95899.683
95778.189
29927.705
16900.597
12512.586
1831.9579
1826.8401
12487.951
16872.794
29893.384
95660.636
95550.139
29860.72
16846.616
12465.145
1821.9108
1817.119
12442.552
16821.277
29829.661
95443.315
95344.047
29799.938
16797.377
12421.709
1812.5032
1808.029
12400.983
16774.285
29771.898
95248.49
95159.48
29745.545
16752.875
12382.222
1803.7628
1799.6434
12363.509
16732.222
29720.699
95072.431
94991.168
29696.934
16712.948
12346.628
1795.7132
1791.9098
12329.528
16694.14
29674.287
94911.042
94836.008
29652.486
16676.574
12314.208
1788.3188
1784.8424
12298.601
16659.463
29631.831
94762.046
94692.692
29611.924
16643.547
12284.77
1781.5603
1778.3731
12270.465
16627.921
29592.962
94623.149
94557.5
29574.497
16613.365
12257.894
1775.3603
1772.452
12244.652
16598.929
29556.772
94490.425
94426.831
29539.364
16585.453
12233.097
1769.7288
1767.1341
12220.717
16572.014
29522.602
94361.306
94299.313
29506.165
16559.501
12209.922
1764.7915
1762.7344
12198.061
16547.146
29490.891
94237.035
94182.483
29477.194
16536.158
12187.591
1761.2908
1760.8136
12176.907
16527.793
29470.004
94140.994
94138.36
29479.507
16528.872
12172.53
1762.338
1767.8141
12186.392
16558.681
29543.111
94241.816
94595.385
29720.892
16653.264
12248.774
1780.1635
1801.5744
12392.283
16854.211
30086.01
95421.421
97000.171
30613.497
17130.066
12599.693
1827.8394
1925.7846
13315.663
18199.577
32585.14
98447.97
96924.313
30590.673
17114.874
12590.906
1826.3454
1799.3825
12387.703
16846.318
30066.307
95362.781
94568.761
29706.92
16646.891
12244.574
1778.2931
1766.3265
12183.248
16554.04
29532.561
94223.552
94128.026
29471.765
16525.195
12169.851
1761.0027
1759.6562
12174.719
16524.84
29463.794
94133.164
94178.172
29472.429
16533.764
12185.728
1760.2677
1761.86
12196.513
16545.165
29486.927
94233.299
94297.145
29502.989
16557.779
12208.473
1763.9945
1766.3893
12219.47
16570.557
29519.872
94359.072
94425.694
29537.169
16584.175
12231.93
1769.0504
1771.8383
12243.665
16597.851
29554.828
94488.891
94557.039
29573.026
16612.47
12257.01
1774.8066
1777.8823
12269.8
16627.263
29591.738
94622.585
94693.763
29611.19
16643.114
12284.261
1781.1346
1784.4978
12298.308
16659.258
29631.342
94763.307
94839.077
29652.427
16676.575
12314.064
1788.0383
1791.6974
12329.556
16694.312
29674.398
94914.148
94995.888
29697.485
16713.323
12346.786
1795.5394
1799.511
12363.896
16732.867
29721.604
95077.808
95166.715
29747.013
16753.789
12382.773
1803.669
1807.9603
12401.701
16775.393
29773.644
95256.524
95353.561
29801.896
16798.536
12422.428
1812.4277
1817.0461
12443.364
16822.515
29831.675
95452.821
95560.177
29862.984
16847.969
12466.032
1821.8375
1826.7649
12488.957
16874.24
29895.677
95670.041
95787.602
29930.146
16902.125
12513.651
1831.8737
1837.1239
12538.702
16930.918
29966.255
95908.353
96037.371
30003.85
16961.104
12565.325
1842.5531
1848.1382
12592.349
16991.94
30041.989
96169.614
96306.854
30082.496
17025.05
12621.623
1853.9856
1860.0739
12652.309
17060.522
30127.232
96448.064
96595.778
30174.553
17097.703
12684.544
1866.3202
97115.519
30200.557
17028.239
12497.944
2046.3485
2039.4346
12465.298
16989.718
30149.963
96959.071
96807.737
30102.814
16953.643
12434.783
2032.7818
2026.3196
12404.997
16918.896
30057.96
96662.044
96522.817
30015.88
16886.453
12377.414
2020.1451
2014.1351
12350.323
16854.979
29975.281
96387.52
96260.245
29936.318
16825.1
12324.986
2008.343
2002.7051
12299.987
16796.193
29899.305
96137.46
96022.13
29864.086
16768.997
12276.858
1997.3111
1992.0545
12253.983
16742.704
29830.661
95910.991
95806.941
29798.851
16718.045
12232.968
1987.0193
1982.1221
12212.029
16694.131
29768.652
95705.938
95611.559
29739.947
16671.809
12192.985
1977.454
1972.922
12173.891
16650.125
29712.681
95519.134
95432.797
29686.619
16629.905
12156.661
1968.6194
1964.438
12139.22
16610.18
29661.829
95347.945
95268.739
29638.076
16591.833
12123.627
1960.4766
1956.6248
12107.659
16573.843
29615.43
95190.211
95116.884
29593.642
16557.138
12093.521
1952.9902
1949.4556
12078.855
16540.662
29572.794
95043.335
94974.376
29552.581
16525.363
12065.991
1946.1322
1942.9043
12052.442
16510.155
29533.113
94904.233
94837.948
29514.061
16496.007
12040.635
1939.8971
1937.0007
12027.948
16481.81
29495.59
94769.822
94705.168
29477.346
16468.523
12016.798
1934.4007
1932.0946
12004.318
16455.091
29459.91
94639.74
94581.408
29443.582
16442.704
11992.867
1930.5227
1930.0813
11980.495
16432.198
29432.81
94534.284
94523.888
29438.668
16430.912
11974.006
1932.0381
1938.8292
11987.006
16460.008
29500.827
94616.956
94971.428
29681.322
16557.428
12051.94
1953.4418
1977.6014
12205.883
16769.651
30060.338
95848.158
97541.06
30619.789
17065.438
12431.84
2005.4996
2024.4571
12428.879
17068.739
30527.779
96547.707
95787.653
30139.38
16795.368
12202.473
2002.2344
1968.3928
12022.607
16540.024
29664.456
94951.98
94683.124
29506.144
16453.898
11966.331
1953.3498
1945.9781
11955.534
16429.399
29451.869
94598.16
94622.644
29449.447
16433.077
11964.425
1943.8219
1944.0127
11975.75
16443.577
29461.172
94668.731
94732.011
29477.455
16456.473
11988.388
1945.5303
1947.7145
11999.541
16469.369
29494.976
94794.658
94863.623
29513.259
16483.194
12011.907
1950.3303
1953.1314
12023.332
16496.888
29531.889
94928.928
94999.086
29551.096
16511.598
12036.315
1956.1371
1959.2788
12048.67
16526.356
29570.801
95066.421
95139.224
29591.251
16542.24
12062.685
1962.603
1966.0722
12076.24
16558.325
29612.42
95210.041
95287.321
29634.59
16575.689
12091.546
1969.7443
1973.5439
12106.505
16593.356
29657.643
95363.633
95446.825
29681.862
16612.381
12123.219
1977.5486
1981.6792
12139.714
16631.815
29707.115
95529.873
95619.879
29733.647
16652.665
12157.949
1986.0025
1990.4858
12176.122
16674.053
29761.372
95710.545
95808.512
29790.541
16696.94
12196.057
1995.1819
2000.0246
12216.039
16720.451
29821.001
95907.747
96014.532
29853.083
16745.552
12237.794
2005.0759
2010.3002
12259.806
16771.488
29886.757
96123.645
96240.834
29922.324
16799.159
12283.651
2015.7338
2021.338
12307.908
16827.808
29959.683
96361.34
96490.662
29999.164
16858.298
12334.043
2027.1476
2033.101
12360.726
16889.905
30040.638
96624.001
96766.069
30084.327
16923.409
12389.292
2039.2642
2045.6117
12418.543
16958.111
30130.094
96912.702
97067.272
30177.825
16994.627
12449.603
2052.1884
2058.9995
12482.047
17033.168
30229.013
97227.092
97114.705
30200.24
17027.999
12497.756
2046.3008
2039.376
12465.144
16989.516
30149.703
96958.707
96807.878
30102.688
16953.517
12434.681
2032.7161
2026.2515
12404.967
16918.874
30058.031
96662.691
96523.81
30016.102
16886.522
12377.451
2020.073
2014.0669
12350.4
16855.112
29975.616
96388.532
96261.213
29936.739
16825.284
12325.099
2008.284
2002.6552
12300.098
16796.376
29899.714
96138.218
96022.813
29864.509
16769.191
12276.975
1997.2547
1991.9982
12254.043
16742.833
29830.974
95911.059
95806.74
29799.022
16718.103
12232.984
1986.9656
1982.07
12211.991
16694.117
29768.702
95705.462
95611.049
29739.935
16671.76
12192.923
1977.4031
1972.8759
12173.819
16650.063
29712.648
95518.65
95432.498
29686.599
16629.854
12156.604
1968.5918
1964.4197
12139.195
16610.171
29661.866
95347.911
95269.082
29638.205
16591.884
12123.648
1960.4626
1956.6204
12107.728
16573.958
29615.663
95190.775
95117.736
29593.93
16557.309
12093.642
1953.014
1949.4976
12079.048
16540.912
29573.194
95044.588
94975.97
29553.091
16525.695
12066.247
1946.1865
1942.9916
12052.771
16510.557
29533.72
94906.074
94840.017
29514.752
16496.468
12041.008
1939.9986
1937.1081
12028.334
16482.289
29496.301
94771.773
94707.13
29478.088
16469.014
12017.189
1934.5004
1932.1874
12004.679
16455.545
29460.605
94641.437
94583.317
29444.247
16443.138
11993.21
1930.5917
1930.1324
11980.816
16432.621
29433.515
94536.328
94526.886
29439.15
16431.262
11974.32
1932.0845
1938.8316
11987.388
16460.466
29501.742
94622.442
94977.51
29683.542
16558.761
12052.988
1953.4284
1977.4431
12207.121
16771.409
30065.931
95866.608
97517.937
30626.036
17071.694
12437.094
2005.1487
1823.9585
12602.616
17121.225
30552.556
96763.216
95370.185
30098.094
16861.519
12397.61
1800.8316
1778.2815
12243.269
16645.315
29702.604
94542.192
94218.808
29530.459
16553.057
12183.081
1766.3801
1761.155
12169.218
16524.757
29471.081
94122.671
94136.427
29464.402
16525.44
12175.696
1759.9029
1760.5139
12185.728
16534.265
29473.553
94178.357
94237.995
29488.153
16546.128
12197.712
1762.1195
1764.2327
12208.566
16558.393
29504.237
94297.851
94363.881
29521.061
16571.554
12220.721
1766.6895
1769.3011
12232.009
16584.708
29538.233
94426.362
94493.156
29555.793
16598.699
12244.771
1772.0818
1774.9868
12256.949
16612.817
29573.801
94557.093
94625.979
29592.402
16627.897
12270.701
1778.0513
1781.2399
12284.032
16643.242
29611.658
94693.058
94765.672
29631.709
16659.665
12298.982
1784.587
1788.0682
12313.663
16676.485
29652.602
94837.465
94915.454
29674.484
16694.504
12330.018
1791.7161
1795.5038
12346.241
16713.041
29697.404
94993.429
95077.96
29721.451
16732.872
12364.167
1799.4641
1803.5807
12382.109
16753.348
29746.689
95163.164
95255.367
29773.278
16775.266
12401.84
1807.8914
1812.3422
12421.698
16797.957
29801.284
95348.77
95449.71
29830.879
16822.142
12443.305
1816.9751
1821.7361
12465.036
16847.005
29861.678
95552.909
95663.898
29893.97
16873.34
12488.475
1826.6743
1831.7533
12512.235
16900.566
29927.819
95777.589
95899.536
29963.496
16929.377
12537.713
1837.0162
1842.4269
12563.551
16959.019
30000.652
96025.646
96159.41
30038.695
16990.035
12591.074
1848.0361
1853.8763
12619.81
17022.858
30079.181
96294.884
96437.242
30124.024
17058.64
12651.033
1859.9818
1866.2366
12683.435
17096.204
30172.173
96587.509
2059.0331
12481.435
17032.379
30228.02
97221.982
97062.142
30176.992
16993.986
12449.196
2052.2359
2045.6101
12417.909
16957.123
30128.667
96909.328
96763.683
30083.604
16922.76
12388.901
2039.2655
2033.0942
12360.592
16889.605
30040.469
96622.498
96489.041
29999.128
16858.183
12334.105
2027.1229
2021.2892
12308.037
16827.783
29959.784
96360.596
96239.853
29922.376
16799.155
12283.836
2015.6798
2010.2245
12259.962
16771.5
29886.899
96123.182
96013.475
29853.137
16745.543
12237.961
2005.0076
1999.9413
12216.11
16720.37
29820.999
95907.193
95807.375
29790.386
16696.803
12196.109
1995.1156
1990.452
12176.148
16673.931
29761.311
95710.127
95618.966
29733.545
16652.581
12158.036
1986.0161
1981.707
12139.795
16631.785
29707.166
95529.761
95446.355
29681.892
16612.41
12123.395
1977.6157
1973.637
12106.688
16593.447
29657.857
95364.037
95287.181
29634.75
16575.83
12091.827
1969.8757
1966.2186
12076.517
16558.505
29612.735
95210.692
95139.181
29591.491
16542.451
12063.042
1962.7795
1959.4361
12048.972
16526.562
29571.15
95067.12
94999.237
29551.376
16511.84
12036.701
1956.3108
1953.2823
12023.655
16497.126
29532.294
94929.767
94863.776
29513.542
16483.441
12012.307
1950.5033
1947.928
11999.954
16469.664
29495.425
94795.96
94732.819
29477.816
16456.807
11988.899
1945.7808
1944.2334
11976.198
16443.919
29461.675
94670.678
94624.524
29449.648
16433.35
11964.902
1944.0447
1946.1935
11955.987
16429.789
29452.516
94601.919
94687.987
29505.523
16453.763
11966.502
1953.5119
1968.7058
12024.284
16542.654
29669.864
94963.189
95815.83
30137.25
16795.42
12203.212
2002.2718
2026.4952
12439.776
17084.599
30560.993
96705.868
96886.626
30558.993
17059.61
12417.138
2027.4345
1999.903
12192.612
16778.614
30103.286
95824.822
94983.889
29672.625
16544.642
12026.417
1968.4462
1953.0395
11966.626
16454.53
29506.92
94688.127
94603.115
29452.041
16429.912
11956.438
1945.8528
1943.6972
11963.734
16432.538
29448.65
94620.662
94669.941
29460.13
16443.346
11976.079
1943.9803
1945.4827
11987.577
16455.801
29476.537
94729.201
94795.796
29494.195
16469.243
11999.922
1947.7353
1950.3203
12011.18
16482.626
29512.566
94860.925
94929.966
29531.322
16496.851
12023.743
1953.1778
1956.1494
12035.673
16511.133
29550.604
94996.632
95067.529
29570.403
16526.412
12049.132
1959.3441
1962.6348
12062.15
16541.903
29590.956
95137.032
95211.658
29612.281
16558.531
12076.799
1966.1536
1969.7902
12091.125
16575.473
29634.476
95285.658
95365.527
29657.677
16593.662
12107.108
1973.6258
1977.5817
12122.907
16612.288
29681.94
95445.69
95532.009
29707.354
16632.233
12140.357
1981.7237
1985.9793
12157.775
16652.753
29734.015
95619.547
95713.759
29762.014
16674.701
12176.906
1990.4591
1995.0798
12196.129
16697.324
29791.388
95809.694
95912.508
29822.301
16721.48
12217.082
1999.9096
2004.8945
12238.31
16746.495
29854.867
96018.135
96131.287
29889.074
16773.084
12261.264
2010.1129
2015.5021
12284.614
16800.632
29925.037
96247.808
96371.913
29962.881
16829.88
12309.734
2021.1381
2026.948
12335.294
16860.112
30002.53
96499.824
96635.665
30043.983
16891.957
12362.51
2032.9647
2039.129
12390.216
16924.734
30086.976
96775.422
96922.372
30131.868
16959.373
12419.794
2045.5377
2052.204
12450.531
16995.954
30180.292
97074.032
97231.322
30230.666
17034.087
12482.738
2059.0384
171.2796
171.39525
171.27954
171.39505
170.47625
169.88051
169.69581
174.55166
174.58219
169.88051
171.07046
175.24276
174.58219
175.09259
174.77822
172.93599
170.73785
173.2463
175.20901
178.04075
174.05983
171.95762
176.56187
180.31514
173.12999
171.14143
175.61938
176.75142
175.77774
177.9769
177.10668
178.83031
176.7655
179.53664
181.14002
184.13803
178.86342
179.59034
177.52167
176.03532
175.15788
181.55779
184.02814
182.91737
174.02736
172.74618
170.83905
169.83121
177.88766
179.12608
181.83842
180.69218
179.50374
176.71871
168.24773
169.68263
169.67404
163.66995
163.08154
162.82765
161.75187
162.63729
1998.741
12408.721
17030.059
30560.903
97459.015
95853.734
30058.796
16767.055
12205.428
1976.3066
1953.937
12055.249
16562.676
29693.264
94979.105
94628.154
29512.307
16465.78
11991.266
1939.7615
1932.8468
11975.898
16434.766
29447.169
94526.189
94537.92
29439.223
16435.601
11983.004
1930.8227
1931.0619
11993.617
16444.861
29448.453
94579.943
94641.208
29463.655
16457.276
12006.075
1932.6404
1934.8047
12017.04
16469.796
29480.319
94702.59
94770.616
29497.912
16483.294
12029.238
1937.3687
1940.1662
12040.528
16496.722
29515.92
94835.045
94904.647
29534.542
16511.163
12053.401
1943.1793
1946.3021
12065.634
16525.678
29553.676
94971.128
95043.435
29573.649
16541.353
12079.579
1949.6466
1953.0942
12093.026
16557.221
29594.306
95113.634
95190.343
29615.965
16574.351
12108.244
1956.7724
1960.5763
12123.084
16591.772
29638.455
95265.753
95348.057
29662.126
16610.541
12139.684
1964.5769
1968.703
12156.081
16629.76
29686.839
95430.128
95519.626
29712.88
16650.41
12174.27
1973.0541
1977.5479
12192.364
16671.584
29740.071
95609.521
95706.838
29768.731
16694.262
12212.234
1982.2462
1987.1118
12232.198
16717.63
29798.747
95805.479
95911.901
29830.412
16742.592
12253.954
1992.186
1997.4386
12275.974
16768.402
29863.657
96020.582
96137.415
29898.74
16795.91
12299.818
2002.9013
2008.5457
12324.071
16824.394
29935.584
96257.274
96385.714
29974.44
16854.659
12350.175
2014.403
2020.4226
12376.797
16885.986
30015.15
96517.795
96658.43
30057.981
16919.146
12405.256
2026.644
2033.0523
12434.426
16953.515
30102.809
96803.56
96956.266
30149.894
16989.835
12465.476
2039.6819
2046.5226
12497.809
17028.039
30200.184
97113.976
96950.167
30148.889
16989.086
12464.92
2039.5522
2032.8503
12433.572
16952.306
30101.083
96801.865
96658.048
30056.358
16917.904
12404.397
2026.4024
2020.1794
12376.314
16885.376
30014.757
96517.74
96384.428
29974.498
16854.501
12350.107
2014.1876
2008.3589
12324.258
16824.511
29935.906
96256.046
96135.507
29899.203
16796.229
12300.231
2002.7556
1997.309
12276.496
16768.881
29864.355
96018.932
95909.693
29831.052
16743.127
12254.583
1992.1106
1987.0422
12232.71
16718.029
29799.192
95804.205
95705.704
29768.777
16694.442
12212.624
1982.1863
1977.4824
12192.641
16671.715
29740.203
95609.404
95519.304
29713.161
16650.64
12174.623
1973.0238
1968.6946
12156.445
16630.076
29687.363
95431.001
95348.705
29662.667
16610.931
12140.132
1964.5952
1960.6403
12123.564
16592.238
29639.202
95267.481
95191.841
29616.729
16574.906
12108.84
1956.8917
1953.2379
12093.641
16557.842
29595.263
95116.095
95045.376
29574.593
16542.046
12080.302
1949.8054
1946.4675
12066.337
16526.403
29554.78
94973.789
94906.336
29535.564
16511.921
12054.19
1943.3814
1940.3798
12041.292
16497.499
29517.082
94837.547
94772.392
29499.054
16484.142
12030.111
1937.6169
1935.0197
12017.845
16470.652
29481.616
94705.013
94643.105
29464.954
16458.205
12006.995
1932.8716
1931.3086
11994.553
16445.876
29450.042
94583.423
94541.964
29440.957
16436.75
11984.069
1931.0804
1933.1692
11976.909
16436.012
29449.379
94534.384
94640.812
29515.046
16467.118
11992.148
1940.2869
1955.2631
12056.945
16566.414
29701.804
95007.532
95916.936
30075.723
16773.766
12207.548
1979.2716
2006.8842
12430.675
17072.472
30637.635
97615.227
99653.923
31740.225
17674.448
12865.697
2068.3158
2012.3219
12143.718
16806.456
30460.488
100582.09
96446.298
30455.682
17031.532
12402.48
2015.6066
2000.4349
12195.264
16785.234
30126.624
95790.625
94967.612
29667.087
16540.474
12023.48
1968.1758
1953.7736
11967.514
16456.464
29513.345
94696.595
94611.988
29457.537
16431.945
11957.574
1946.5611
1944.4051
11965.057
16434.841
29454.276
94627.947
94675.537
29464.883
16445.424
11977.364
1944.6248
1946.0669
11988.613
16457.491
29480.366
94732.275
94797.491
29497.298
16470.621
12000.766
1948.1927
1950.6676
12011.81
16483.718
29515.049
94861.192
94929.846
29533.357
16497.745
12024.25
1953.4282
1956.3503
12036.022
16511.839
29552.243
94995.655
95067.005
29571.846
16527.062
12049.505
1959.5226
1962.8102
12062.394
16542.388
29592.079
95135.868
95210.824
29613.246
16558.943
12077.015
1966.2957
1969.8722
12091.202
16575.75
29635.225
95284.419
95364.694
29658.331
16593.897
12107.189
1973.6874
1977.636
12122.861
16612.391
29682.372
95444.249
95531.099
29707.726
16632.324
12140.347
1981.7988
1986.0986
12157.662
16652.734
29734.219
95618.092
95712.584
29762.157
16674.652
12176.801
1990.6177
1995.2803
12195.893
16697.136
29791.32
95807.781
95910.583
29822.051
16721.191
12216.789
2000.1541
2005.1624
12237.803
16745.953
29854.207
96015.068
96127.402
29888.108
16772.374
12260.647
2010.3975
2015.7794
12283.752
16799.626
29923.576
96242.266
96365.393
29960.943
16828.602
12308.67
2021.371
2027.1402
12334.035
16858.584
30000.149
96491.98
96627.483
30041.464
16890.389
12361.251
2033.1316
2039.291
12388.987
16923.243
30084.706
96767.677
96917.4
30129.88
16957.739
12418.411
2045.678
2052.2535
12448.325
16992.759
30175.471
97073.569
97233.797
30216.042
17027.938
12479.904
2059.0628
96950.231
30150.086
16989.736
12465.354
2039.5733
2032.9307
12434.325
16953.315
30102.624
96800.085
96654.499
30057.542
16918.863
12405.186
2026.5024
2020.2307
12376.608
16885.52
30014.41
96514.602
96382.827
29973.521
16854.094
12349.943
2014.1837
2008.3167
12323.811
16823.83
29934.76
96255.847
96136.536
29897.989
16795.405
12299.607
2002.6856
1997.2172
12275.703
16767.895
29862.985
96020.979
95913.131
29829.852
16742.136
12253.725
1992.0002
1986.9937
12232.262
16717.731
29799.32
95806.926
95706.573
29769.736
16694.784
12212.67
1982.2138
1977.5558
12192.962
16672.328
29741.271
95608.057
95517.634
29713.209
16650.813
12174.748
1973.0687
1968.7388
12156.444
16630.033
29687.125
95429.863
95348.1
29662.525
16610.869
12140.094
1964.6378
1960.6786
12123.549
16592.233
29639.213
95267.393
95192.147
29616.896
16574.975
12108.877
1956.9316
1953.2788
12093.715
16557.967
29595.538
95116.499
95045.77
29574.928
16542.2
12080.39
1949.8419
1946.5063
12066.415
16526.555
29555.142
94973.937
94906.57
29535.937
16512.064
12054.256
1943.4151
1940.4185
12041.337
16497.635
29517.499
94837.685
94772.69
29499.536
16484.286
12030.157
1937.6688
1935.0912
12017.903
16470.828
29482.219
94705.533
94644.038
29465.656
16458.414
12007.08
1932.9855
1931.4474
11994.696
16446.173
29450.964
94585.164
94544.768
29441.998
16437.081
11984.236
1931.2229
1933.2899
11977.141
16436.462
29450.8
94538.443
94647.016
29515.979
16467.243
11992.175
1940.2816
1955.006
12056.329
16565.538
29701.168
95016.035
95923.033
30070.925
16770.326
12205.043
1978.4365
2005.4505
12425.204
17065.402
30626.024
97594.497
99617.51
31655.408
17622.964
12829.194
2061.0785
1901.9949
13141.384
17943.998
32177.745
98519.901
99973.358
30889.503
17158.431
12506.45
2040.3155
2019.1412
12494.267
17147.075
30902.352
100289.16
97410.911
30583.092
17046.669
12420.726
2000.8241
1976.6113
12205.529
16767.665
30060.114
95857.622
94976.928
29694.459
16564.294
12056.913
1954.0432
1939.4681
11990.166
16464.514
29509.465
94622.315
94524.142
29445.306
16434.401
11976.231
1932.6484
1930.6312
11982.094
16434.73
29437.487
94532.257
94579.372
29447.171
16444.629
11994
1930.996
1932.5488
12005.272
16456.608
29462.549
94636.865
94702.816
29479.454
16469.683
12017.436
1934.7679
1937.3005
12028.525
16482.774
29497.182
94767.165
94836.051
29515.374
16496.751
12041.001
1940.144
1943.1352
12052.787
16510.766
29534.056
94901.904
94972.632
29553.363
16525.811
12066.169
1946.3324
1949.6441
12079.029
16541.004
29573.281
95041.112
95114.937
29593.996
16557.327
12093.52
1953.1477
1956.7626
12107.684
16573.987
29615.601
95187.884
95266.976
29638.241
16591.914
12123.561
1960.6066
1964.5839
12139.22
16610.262
29661.889
95345.936
95431.434
29686.728
16629.952
12156.577
1968.7601
1973.0609
12173.877
16650.215
29712.784
95517.742
95611.097
29740.198
16671.922
12192.936
1977.5944
1982.2758
12212.036
16694.276
29768.93
95705.728
95807.669
29799.176
16718.145
12232.882
1987.1714
1992.2211
12253.927
16742.794
29830.914
95911.844
96023.552
29864.347
16769.049
12276.728
1997.4809
2002.914
12299.897
16796.227
29899.451
96138.295
96260.81
29936.372
16825.075
12324.824
2008.554
2014.3756
12350.271
16854.99
29975.156
96387.065
96521.583
30015.964
16886.688
12377.539
2020.41
2026.6156
12405.436
16919.541
30058.733
96660.347
96807.606
30103.696
16954.248
12435.148
2033.0383
2039.6509
12465.659
16990.245
30150.772
96960.043
97116.609
30200.637
17028.312
12498.001
2046.4974
1866.4411
12683.955
17096.771
30172.813
96592.537
96442.886
30125.932
17059.856
12652.02
1860.2758
1854.2874
12621.276
17024.804
30082.207
96297.382
96158.598
30040.389
16991.582
12592.441
1848.4811
1842.8195
12564.246
16959.551
30000.586
96024.656
95898.397
29962.769
16929.337
12537.955
1837.3585
1832.0567
12512.205
16900.271
29926.99
95777.067
95663.049
29892.977
16872.909
12488.332
1826.9636
1822.0091
12464.825
16846.526
29860.759
95553.201
95449.806
29830.043
16821.718
12443.146
1817.2432
1812.6142
12421.624
16797.698
29800.866
95349.283
95254.905
29772.984
16775.143
12401.903
1808.1764
1803.8704
12382.188
16753.251
29746.48
95162.807
95076.495
29721.108
16732.751
12364.271
1799.7564
1795.7775
12346.254
16712.844
29697.06
94992.088
94913.183
29674.008
16694.271
12330.042
1791.9869
1788.3426
12313.638
16676.213
29652.181
94835.558
94762.948
29631.186
16659.392
12298.986
1784.8694
1781.5277
12283.983
16642.949
29611.242
94690.783
94623.048
29591.965
16627.655
12270.729
1778.3576
1775.2828
12256.903
16612.553
29573.483
94554.56
94489.63
29555.412
16598.46
12244.787
1772.3912
1769.6066
12231.935
16584.437
29537.991
94423.111
94359.771
29520.835
16571.339
12220.732
1767.0341
1764.6637
12208.641
16558.287
29504.361
94294.8
94234.424
29488.545
16546.227
12197.958
1762.637
1761.0959
12186.038
16534.562
29474.571
94175.967
94134.751
29466.101
16526.102
12176.296
1760.6145
1761.9899
12170.079
16525.887
29473.992
94123.079
94221.521
29535.467
16555.156
12184.663
1767.3894
1778.9419
12244.226
16646.345
29705.473
94535.198
95360.521
30093.892
16857.325
12394.914
1801.0122
1822.0988
12584.857
17095.221
30505.949
96612.463
1903.9111
13257.665
18099.328
32354.877
97788.052
96832.521
30557.189
17097.695
12579.482
1819.9869
1798.2233
12386.851
16844.146
30066.02
95364.793
94586.394
29718.386
16651.676
12248.016
1779.1337
1767.5379
12186.711
16559.21
29544.155
94238.907
94137.441
29480.624
16529.244
12172.512
1762.2024
1760.7288
12176.826
16528.011
29470.611
94139.064
94180.781
29477.594
16536.191
12187.319
1761.1859
1762.6775
12197.838
16547.128
29490.985
94234.408
94297.191
29506.199
16559.381
12209.591
1764.7409
1767.0941
12220.455
16571.887
29522.437
94358.669
94424.643
29539.164
16585.228
12232.717
1769.6909
1772.4198
12244.357
16598.717
29556.435
94487.756
94555.228
29574.212
16613.108
12257.508
1775.3111
1778.3367
12270.238
16627.779
29592.686
94620.886
94691.527
29611.835
16643.449
12284.528
1781.5226
1784.8552
12298.534
16659.51
29631.818
94761.184
94836.675
29652.696
16676.697
12314.178
1788.3664
1791.997
12329.617
16694.345
29674.522
94911.823
94993.021
29697.379
16713.205
12346.694
1795.793
1799.7287
12363.738
16732.658
29721.362
95074.93
95163.323
29746.557
16753.42
12382.449
1803.8419
1808.1161
12401.272
16774.904
29773.049
95253.109
95350.009
29800.954
16797.826
12421.828
1812.5824
1817.1942
12442.611
16821.565
29830.302
95449.034
95555.295
29861.244
16846.834
12465.135
1821.9935
1826.9332
12488.04
16873.054
29893.776
95664.341
95780.92
29928.048
16900.889
12512.725
1832.0763
1837.3716
12537.905
16929.766
29964.046
95900.806
96028.541
30001.922
16960.332
12564.867
1842.8542
1848.4906
12592.45
16992.034
30041.639
96160.39
96300.188
30083.333
17025.476
12621.806
1854.3113
1860.2909
12651.961
17060.198
30127.024
96444.642
96592.772
30173.316
17096.887