/*--------------------------------*- C++ -*----------------------------------*\
  =========                 |
  \\      /  F ield         | OpenFOAM: The Open Source CFD Toolbox
   \\    /   O peration     | Website:  https://openfoam.org
    \\  /    A nd           | Version:  7
     \\/     M anipulation  |
\*---------------------------------------------------------------------------*/
FoamFile
{
    version     2.0;
    format      ascii;
    class       volScalarField;
    location    "140";
    object      T;
}
// * * * * * * * * * * * * * * * * * * * * * * * * * * * * * * * * * * * * * //

dimensions      [0 0 0 1 0 0 0];

internalField   nonuniform List<scalar> 
25278
(
299.99507
299.99508
299.99621
299.99615
299.99827
299.99499
299.99362
299.99501
299.99383
299.99078
299.99244
299.99406
299.99437
299.99594
300.01407
299.99626
299.9951
300.0048
300.00996
299.99746
299.99349
299.99427
299.99498
299.99236
299.98824
299.9923
299.99501
299.99414
299.99621
299.99151
299.99102
299.99704
300.0007
299.99862
299.99115
299.99362
299.98867
299.98852
299.99425
299.99626
299.99535
299.98885
299.98886
299.98217
299.98401
299.98572
299.99029
299.98798
299.98395
299.99045
299.98973
299.99737
300.0037
300.0032
299.99456
299.98818
299.98762
299.99462
299.99749
299.99705
299.9889
299.98848
299.98776
299.987
299.99436
299.99399
299.98641
299.987
299.9968
299.99728
300.00385
300.00368
300.00216
299.99991
299.99781
299.99233
299.99147
299.9918
299.99449
299.99877
300.00333
300.01518
300.00571
300.01332
300.00026
300.00637
300.02642
300.06788
300.05149
300.03247
300.02637
300.04302
300.04979
300.08014
300.0728
300.04474
300.03506
300.01899
300.01199
300.02452
300.03336
300.06229
300.05033
300.0261
300.04129
300.05059
300.06107
300.11161
300.1157
300.14285
300.08146
300.07532
300.14246
300.13458
300.10267
300.09054
300.12075
300.0529
300.06326
300.06367
300.01433
300.00056
299.99835
300.0535
300.08306
300.11631
300.14142
300.08142
300.02704
300.00664
300.00396
299.99935
300.00745
300.01678
300.05361
300.06896
300.06268
300.07545
300.14106
300.11276
300.10491
300.13367
300.12126
300.05393
300.04429
300.05267
300.03812
300.04741
300.07639
300.04732
300.01683
300.03508
300.02938
300.02213
300.00749
300.0156
300.02998
300.05591
300.09443
300.19
300.29879
300.30472
300.18682
300.08514
300.03665
300.04594
300.05414
300.04351
300.10421
300.11872
300.09722
300.18584
300.25712
300.27376
300.77185
300.46961
300.28407
300.27554
300.44528
300.73704
300.27657
300.25895
300.1871
300.10343
300.06672
300.03799
300.02985
300.04369
300.09279
300.11459
300.12791
300.06221
300.0145
300.05211
300.05257
300.03396
300.09068
300.27956
301.10855
301.15655
300.27702
300.07936
300.0248
300.02147
300.01119
300.00297
299.99902
299.99661
299.99804
299.99182
299.9945
300.00206
299.99629
299.98963
299.98941
299.98971
299.99567
299.99787
299.99015
299.98326
299.98418
299.98378
299.98811
299.9902
299.98446
299.97662
299.97651
299.98075
299.98622
299.9857
299.97979
299.97609
299.97442
299.97799
299.985
299.98439
299.98485
299.98797
299.99426
299.99917
299.99187
299.99651
300.00604
299.99942
299.99094
299.98987
299.99004
299.99742
300.00105
299.99148
299.99192
299.99015
299.99211
300.0002
300.0088
299.99794
300.00204
300.00296
299.9985
299.99045
299.99242
299.98192
299.98183
299.98223
299.98282
299.97231
299.97643
299.97478
299.98385
299.98346
299.98397
299.9757
299.97785
299.97144
299.97379
299.97005
299.97351
299.96627
299.9709
299.96688
299.9618
299.9569
299.9671
299.96405
299.96905
299.95967
299.96307
299.9592
299.96151
299.96401
299.96382
299.96642
299.97658
299.98449
299.98795
299.98357
299.98509
299.97936
299.97725
299.97361
299.97562
299.98354
299.98195
299.97862
299.97107
299.9738
299.97862
299.98472
299.9907
299.98944
299.9915
300.0028
300.00698
299.99442
300.0012
299.99505
299.99199
299.99016
299.99869
300.01252
300.0034
300.00851
300.00158
299.99206
299.99563
300.002
300.01804
300.009
300.03398
300.01693
300.0334
300.01238
299.99062
299.98826
299.98711
299.98587
299.98549
299.9849
299.97781
299.9777
299.97844
299.98499
299.98535
299.98596
299.97667
299.97673
299.98098
299.96458
299.96897
299.97165
299.96376
299.96724
299.96554
299.97281
299.97018
299.96203
299.95731
299.95959
299.95436
299.96601
299.97529
299.97521
299.98648
299.98792
299.97414
299.97403
299.98021
299.98137
299.98253
299.97148
299.96483
299.96964
299.97242
299.97462
299.97953
299.98579
299.98595
299.97871
299.97892
299.97969
299.98643
299.98678
299.98732
299.98647
299.97754
299.97593
299.98669
299.98767
299.97615
299.97779
299.96812
299.9712
299.97388
299.9664
299.9679
299.96437
299.96284
299.95797
299.9601
299.95472
299.96651
299.96457
299.95227
299.94142
299.94659
299.95297
299.94347
299.95754
299.95599
299.95856
299.95248
299.95897
299.95567
299.94898
299.95535
299.95222
299.94904
299.95315
299.94558
299.94887
299.94424
299.94097
299.93132
299.93755
299.94133
299.94583
299.95342
299.94906
299.94101
299.93171
299.93719
299.93184
299.92728
299.92014
299.92468
299.93515
299.92954
299.93984
299.94896
299.95256
299.94521
299.95261
299.96078
299.96483
299.97305
299.97934
299.98684
299.99447
300.0049
300.02566
300.01443
300.00083
300.005
299.99624
300.00801
300.02087
300.04061
300.02901
300.07273
300.05319
300.0299
300.01165
300.02076
300.05059
300.0802
300.09149
300.04609
300.02432
300.01002
300.03376
300.01158
299.99864
299.99757
300.00804
300.01008
300.02688
300.04828
300.09524
300.08963
300.06851
300.06733
300.02766
300.03099
300.00045
299.9994
299.99746
299.99591
299.99423
299.99233
299.99102
299.9889
299.98771
299.97451
299.97323
299.98859
299.98999
299.97334
299.97485
299.9607
299.96329
299.95859
299.96296
299.94932
299.94569
299.9518
299.96386
299.96723
299.96557
299.96876
299.9717
299.97106
299.9754
299.98298
299.98182
299.97324
299.96841
299.97969
299.9811
299.98501
299.99215
299.99258
300.00076
299.99842
300.01152
300.01563
300.01617
300.00111
299.99212
299.99121
300.00344
300.01548
299.9999
300.0169
300.01922
300.01641
300.00954
300.02614
300.06791
300.03462
300.07474
300.0513
300.02864
300.04716
300.05864
300.07922
300.03486
300.0324
300.06566
300.04811
300.01266
299.99915
299.99013
299.98546
299.98338
299.98189
299.98156
299.97714
299.97995
299.98233
299.97515
299.97762
299.98065
299.97624
299.97344
299.96987
299.97332
299.96635
299.97059
299.96615
299.96156
299.95653
299.96683
299.97077
299.96802
299.96361
299.95201
299.95845
299.96226
299.95833
299.96082
299.96347
299.96354
299.95744
299.95573
299.95816
299.95483
299.94853
299.95213
299.95849
299.95506
299.94859
299.95304
299.95282
299.94343
299.94117
299.94864
299.94547
299.95301
299.94885
299.95186
299.94395
299.94084
299.93129
299.9375
299.9273
299.93179
299.93706
299.94556
299.9407
299.93159
299.94115
299.94636
299.93947
299.94107
299.92888
299.92247
299.92872
299.92132
299.93276
299.92355
299.93131
299.94339
299.95973
299.973
299.9729
299.98933
299.99231
299.97277
299.97287
299.97295
299.99264
299.9958
299.97292
299.9495
299.95283
299.9565
299.96024
299.95799
299.9619
299.97484
299.97622
299.97718
299.97778
299.9769
299.98466
299.98532
299.98552
299.98642
299.98652
299.97535
299.97627
299.96714
299.9703
299.96157
299.96376
299.95976
299.95737
299.95503
299.95973
299.96892
299.97593
299.98433
299.98365
299.9748
299.97408
299.97526
299.98497
299.98428
299.98589
299.98644
299.97438
299.97324
299.97222
299.97317
299.97396
299.9876
299.98733
299.98955
299.974
299.97341
299.99027
299.99346
299.99153
299.97305
299.97301
299.95195
299.95585
299.95984
299.96374
299.95171
299.95454
299.94846
299.94516
299.9422
299.94904
299.96188
299.96546
299.96382
299.96743
299.95769
299.95287
299.94666
299.96014
299.95626
299.95792
299.95412
299.97313
299.9913
299.98782
299.98768
299.98716
299.98521
299.98355
299.983
299.97825
299.98078
299.97172
299.97061
299.96469
299.96616
299.95552
299.96617
299.96158
299.96025
299.96488
299.9538
299.94689
299.9487
299.93695
299.93911
299.942
299.94498
299.94854
299.95192
299.94863
299.95573
299.9487
299.95184
299.94467
299.9409
299.93525
299.93951
299.9361
299.9453
299.9414
299.93154
299.92742
299.93828
299.93521
299.92387
299.92802
299.93137
299.93744
299.94596
299.95334
299.95108
299.94324
299.9344
299.94312
299.94574
299.93733
299.9408
299.94461
299.93586
299.93126
299.92008
299.92566
299.93628
299.93172
299.92774
299.91522
299.92711
299.92363
299.93436
299.92456
299.93978
299.938
299.9447
299.95101
299.95623
299.96612
299.97386
299.9728
299.98222
299.98268
299.97185
299.97296
299.9623
299.96099
299.96492
299.95474
299.94949
299.94832
299.9538
299.96397
299.97209
299.97143
299.98099
299.98119
299.97019
299.97091
299.95991
299.95915
299.96331
299.95306
299.94753
299.94117
299.94199
299.94317
299.95725
299.95856
299.97212
299.97102
299.98432
299.98654
299.97043
299.97135
299.9549
299.95386
299.93681
299.93589
299.95287
299.95611
299.96997
299.96916
299.98257
299.98456
299.96856
299.96942
299.9716
299.97241
299.97265
299.97285
299.99184
299.99823
299.99566
299.97375
299.97488
299.95096
299.95298
299.93281
299.9349
299.93795
299.94169
299.93435
299.93904
299.9322
299.93801
299.94345
299.94952
299.94593
299.93906
299.95672
299.95988
299.95647
299.95287
299.93211
299.92529
299.9031
299.91354
299.92299
299.9313
299.93957
299.92875
299.91842
299.90962
299.92125
299.93281
299.92341
299.91335
299.89715
299.90861
299.91847
299.90985
299.89997
299.91304
299.92467
299.93498
299.9294
299.9253
299.91966
299.92415
299.91132
299.91776
299.91286
299.92024
299.90784
299.91739
299.90488
299.9108
299.89915
299.91073
299.92244
299.91732
299.90478
299.89352
299.9076
299.91288
299.8997
299.88532
299.87818
299.8927
299.87845
299.89384
299.88256
299.89865
299.90449
299.91402
299.92685
299.9215
299.90732
299.89296
299.90097
299.91644
299.91023
299.93026
299.92742
299.95086
299.94921
299.94891
299.95033
299.95398
299.97359
299.99602
299.99946
299.97475
299.97818
299.97494
300.00125
300.00825
300.01654
300.00398
299.97748
299.98139
300.00915
300.02835
299.99323
299.98434
299.9501
299.94724
299.94744
299.91941
299.92682
299.9226
299.9154
299.9148
299.92051
299.92148
299.92631
299.90309
299.91402
299.9171
299.90174
299.8977
299.91135
299.90114
299.91548
299.91944
299.9146
299.91035
299.89473
299.89976
299.90591
299.8901
299.89663
299.8799
299.88949
299.8728
299.88556
299.89739
299.88408
299.87002
299.86169
299.84463
299.86456
299.85143
299.87199
299.86285
299.88265
299.88995
299.90568
299.88489
299.87677
299.85585
299.8664
299.87197
299.88663
299.90558
299.8935
299.89815
299.90519
299.88662
299.87706
299.85965
299.87116
299.89343
299.88554
299.88116
299.85145
299.86992
299.86644
299.88268
299.88202
299.89562
299.90873
299.92096
299.93196
299.94127
299.9492
299.94765
299.9395
299.93009
299.93923
299.94093
299.93202
299.9303
299.91906
299.90717
299.921
299.92234
299.91247
299.93174
299.95232
299.95216
299.93163
299.92948
299.927
299.95204
299.9763
299.99933
299.99172
299.99152
300.00081
299.97762
299.954
299.95499
299.95171
299.93151
299.93137
299.9352
299.95209
299.95528
299.95474
299.95873
299.96299
299.96433
299.97044
299.98219
299.988
299.99339
300.00407
300.00941
300.03416
300.01812
300.03219
300.04503
300.05384
300.04273
300.03522
300.08341
300.10326
300.11889
300.0962
300.06088
300.04823
300.02278
300.01079
300.00529
300.02479
300.0403
300.0883
300.18471
300.27475
300.25979
300.185
300.28415
300.47448
300.76933
300.30452
300.11936
300.13377
300.10108
300.04994
300.01346
300.0634
300.05304
300.10463
300.18929
300.28234
300.47674
300.76664
300.30562
300.19276
300.2789
300.26152
300.12823
300.11507
300.09481
300.04502
300.01501
300.0624
300.05286
300.03472
300.0924
300.28311
301.11963
301.13445
300.27449
300.07722
300.02379
300.00311
299.99713
299.98952
299.98992
299.99685
300.00197
299.99363
299.99363
299.99376
299.98618
299.98628
299.98664
299.98657
299.99645
299.99617
299.99597
299.98692
299.98663
299.98707
299.99339
299.99531
299.9872
299.97952
299.98202
299.9836
299.97765
299.97515
299.96478
299.96024
299.96156
299.96587
299.97121
299.98012
299.97974
299.97673
299.97714
299.96522
299.95489
299.95355
299.9468
299.94851
299.95185
299.96363
299.96766
299.97258
299.98093
299.97819
299.96718
299.96984
299.97474
299.97044
299.96692
299.95647
299.96157
299.95769
299.94963
299.94786
299.94658
299.94582
299.94561
299.94584
299.94655
299.93843
299.93769
299.92804
299.92882
299.93798
299.9372
299.9283
299.92909
299.91786
299.91712
299.90608
299.9065
299.92016
299.91961
299.91275
299.91248
299.91226
299.89515
299.88414
299.90578
299.90318
299.89579
299.89238
299.88255
299.91951
299.95727
299.95183
299.95648
299.98608
300.01232
300.0158
299.99077
300.0161
300.00436
300.03674
300.04709
300.04236
300.02027
299.99203
299.97751
299.97692
299.97081
299.98914
299.99818
300.01082
299.99185
300.01945
300.03611
300.05464
300.0802
300.09168
300.07231
300.05589
300.03592
300.02143
300.01027
300.00162
299.99677
299.99264
299.97373
299.97502
299.97614
299.97773
299.97878
299.98737
299.98772
299.987
299.97893
299.97831
299.96881
299.97007
299.96674
299.95538
299.94903
299.96282
299.96103
299.96524
299.9773
299.98892
299.98823
299.98898
299.98985
299.97569
299.9755
299.97693
299.97786
299.97839
299.9872
299.98798
299.98814
299.9872
299.97791
299.97736
299.96649
299.96757
299.97104
299.97199
299.96292
299.95864
299.95276
299.94582
299.94304
299.95036
299.95664
299.96138
299.97028
299.96888
299.97379
299.97342
299.98345
299.98386
299.98433
299.98807
299.995
299.9961
299.99494
299.99357
299.99592
299.99519
299.99488
299.99449
300.00058
299.99251
299.99885
300.00969
300.0035
299.99313
299.99087
299.99147
299.99915
300.00389
299.99392
299.99436
299.99193
299.99302
300.00032
300.00836
299.99915
300.00368
300.00259
299.99867
299.99216
299.99431
299.98623
299.98521
299.9839
299.98267
299.96925
299.96848
299.95648
299.95733
299.96756
299.96221
299.94959
299.95258
299.94262
299.9455
299.94941
299.9568
299.94963
299.94153
299.93562
299.93166
299.93623
299.94552
299.94166
299.93859
299.92753
299.9318
299.93819
299.94691
299.95465
299.94689
299.94457
299.9527
299.9598
299.97005
299.96935
299.97757
299.98729
299.98831
299.97707
299.97695
299.97741
299.98736
299.98855
299.99091
299.99043
299.98998
299.98949
299.99084
299.99176
299.97537
299.97657
299.96267
299.96382
299.9595
299.95843
299.94095
299.9484
299.95491
299.95363
299.95879
299.95799
299.96885
299.96526
299.96569
299.96192
299.97646
299.97567
299.99258
299.99372
299.97625
299.97657
299.96168
299.94644
299.94706
299.93978
299.95797
299.9582
299.93963
299.94024
299.94647
299.95266
299.95287
299.94174
299.94282
299.95123
299.94275
299.94442
299.93535
299.92855
299.9399
299.9356
299.92398
299.90992
299.91431
299.91951
299.92526
299.91259
299.91765
299.9257
299.93619
299.94517
299.93655
299.93194
299.94145
299.9316
299.91997
299.91099
299.92423
299.91945
299.92746
299.9381
299.92792
299.91492
299.91091
299.92404
299.93537
299.92482
299.91322
299.91649
299.92117
299.92677
299.94191
299.95859
299.95423
299.93421
299.92985
299.93812
299.95661
299.9748
299.97393
299.99506
300.00063
299.97518
299.97392
299.97501
299.97813
300.00881
300.0176
300.00593
299.99808
299.97515
299.97511
299.97566
299.977
300.00175
300.01209
299.98256
299.97817
299.98416
299.99291
300.02981
300.03999
300.01736
300.00472
299.97987
299.97683
299.9784
299.9833
300.00879
300.02386
299.99564
299.98863
300.0048
300.01834
300.05316
300.05498
300.02538
300.01044
299.98645
299.98007
299.97709
299.97697
299.97712
299.97745
299.98758
299.98885
299.98943
299.98794
299.97782
299.97758
299.96562
299.96523
299.96873
299.95773
299.95794
299.96896
299.96955
299.9783
299.98846
299.99978
300.01236
300.03525
300.02808
300.01201
300.01303
300.00067
300.01258
300.02832
300.05136
300.05008
300.09857
300.09353
300.07597
300.03455
300.03596
300.08211
300.1017
300.09111
300.04788
300.02629
300.01162
300.02949
300.00915
299.99938
300.00059
300.01159
300.00796
300.02054
300.03679
300.07856
300.06337
300.04341
300.0656
300.03079
300.02172
300.00292
300.00476
300.00596
300.00658
300.00657
300.00539
300.00381
300.00229
299.99577
299.99445
299.99137
299.99217
299.97769
299.97826
299.96015
299.95894
299.96188
299.96258
299.94712
299.953
299.94161
299.94134
299.94979
299.95023
299.94145
299.93183
299.9332
299.92605
299.93796
299.93351
299.92123
299.91936
299.93187
299.9365
299.92441
299.91072
299.91252
299.91547
299.90027
299.90508
299.89888
299.90538
299.8891
299.89812
299.90407
299.91372
299.90037
299.91601
299.9093
299.89172
299.90667
299.8958
299.87856
299.88882
299.88181
299.87053
299.8496
299.86373
299.87201
299.88584
299.90454
299.92643
299.95028
299.94725
299.919
299.91416
299.92168
299.94863
299.95219
299.95118
299.95516
299.93506
299.92673
299.92547
299.93314
299.95453
299.95158
299.95127
299.9487
299.91891
299.91231
299.94871
299.94657
299.94758
299.94625
299.97923
299.986
299.9977
299.98571
300.02151
300.06264
300.0858
300.18364
300.13738
300.11173
300.23323
300.11296
300.14101
300.28328
300.42693
300.15594
300.15727
300.09577
300.09852
300.36723
300.35047
300.41808
301.03284
300.40925
300.16189
300.1681
300.30615
300.43038
300.39932
300.13565
300.12654
300.35802
301.65071
301.40938
300.88736
301.35101
301.62557
302.48082
302.15789
302.12775
301.40105
300.37034
300.09529
300.06369
300.03136
300.01475
300.00293
299.99051
299.99035
300.00234
300.01407
299.99843
299.99876
300.01499
300.0153
300.0325
300.07515
300.05255
300.04439
300.00943
299.99719
299.98838
299.98396
299.98208
299.9808
299.98066
299.97116
299.97112
299.9806
299.98063
299.96969
299.96976
299.96861
299.96841
299.98183
299.98346
299.96744
299.96786
299.95139
299.9345
299.94064
299.94715
299.95281
299.95295
299.96306
299.95871
299.94719
299.94777
299.95349
299.96354
299.97137
299.98075
299.98111
299.97198
299.97054
299.96996
299.9808
299.98109
299.98219
299.98201
299.96859
299.96904
299.96749
299.96736
299.98359
299.98333
299.98336
299.98246
299.98147
299.98149
299.99015
300.00161
300.01951
299.99984
299.98957
299.99474
299.99718
300.01267
300.00829
300.02218
300.03087
300.06504
300.0694
300.04039
300.01138
300.00464
300.02266
300.04644
300.02914
300.01325
300.0039
299.99766
299.99455
299.99308
299.9905
299.99416
299.99041
299.98545
299.98078
299.98475
299.98848
299.9879
299.99123
299.99401
299.99578
299.99638
299.99939
299.99262
299.99038
299.98781
299.98746
299.98726
299.98752
299.99391
299.99598
299.99109
299.98766
299.98838
299.99121
299.98906
300.00039
300.00916
300.00173
299.99774
300.01101
300.03123
300.0062
299.99213
299.99711
300.00762
299.99862
300.01494
300.00631
300.0014
299.98999
299.98902
299.9974
300.0003
299.99086
299.99346
299.98438
299.97963
299.97797
299.9804
299.98276
299.98077
299.98313
299.97669
299.979
299.98323
299.98441
299.98243
299.97494
299.97261
299.96588
299.97309
299.97004
299.97372
299.97687
299.97617
299.97035
299.96642
299.96167
299.95162
299.94818
299.94448
299.94142
299.93846
299.93631
299.93457
299.93358
299.93313
299.93326
299.93398
299.93513
299.93111
299.93299
299.92103
299.92533
299.9233
299.91891
299.91752
299.92996
299.92929
299.91674
299.92115
299.92195
299.90898
299.9103
299.91246
299.90706
299.90471
299.88866
299.89105
299.89796
299.89595
299.89506
299.88737
299.90324
299.90234
299.90811
299.89426
299.88635
299.86933
299.87032
299.87078
299.87286
299.88192
299.88062
299.86441
299.86415
299.85171
299.85028
299.85201
299.86837
299.8811
299.89594
299.89657
299.89246
299.88863
299.90866
299.93143
299.93288
299.95547
299.95125
299.95035
299.96993
299.96912
299.98769
299.99597
299.97439
299.97581
299.95426
299.93163
299.93043
299.92887
299.93387
299.94047
299.95454
299.95085
299.95078
299.95484
299.95915
299.95998
299.96436
299.95464
299.94889
299.94189
299.94088
299.9338
299.93436
299.95109
299.95556
299.95681
299.96122
299.96546
299.97266
299.97366
299.98199
299.98196
299.97236
299.97132
299.96977
299.97075
299.98274
299.98331
299.96873
299.96791
299.9521
299.93592
299.94363
299.95053
299.95595
299.95794
299.96684
299.96277
299.95266
299.9551
299.95983
299.96826
299.9746
299.9823
299.9827
299.97561
299.97446
299.97338
299.98228
299.98263
299.98299
299.98286
299.97178
299.97289
299.97086
299.96965
299.98312
299.98317
299.98477
299.98509
299.98602
299.98672
299.98715
299.98796
299.96857
299.9679
299.97055
299.97286
299.99622
299.99365
300.00553
300.01001
300.00843
299.98774
299.99003
300.01525
300.03342
300.03565
300.01322
299.98985
299.96302
299.95177
299.94915
299.94827
299.92773
299.92712
299.94758
299.9463
299.94918
299.92464
299.92812
299.93644
299.94427
299.9463
299.94072
299.93394
299.92576
299.93073
299.96883
299.98534
299.96309
299.9673
299.9701
300.00546
299.99698
299.97011
299.95139
299.91457
299.90443
299.87571
299.8685
299.85593
299.84872
299.82094
299.84548
299.8516
299.86108
299.83998
299.85451
299.83522
299.8539
299.87051
299.89286
299.88383
299.8967
299.87534
299.85775
299.8382
299.85935
299.84844
299.86966
299.88854
299.90059
299.88449
299.904
299.90088
299.87953
299.89605
299.88281
299.87421
299.88097
299.8603
299.85175
299.86289
299.84045
299.86166
299.86681
299.89093
299.87769
299.84757
299.84223
299.87685
299.88861
299.91925
299.91551
299.95506
299.96648
299.95663
299.9536
299.95486
299.93265
299.92656
299.93016
299.93369
299.95622
299.9572
299.96484
299.9327
299.92362
299.92573
299.94542
299.98343
299.99919
299.97283
299.96108
299.95803
299.93561
299.93471
299.93922
299.93799
299.94148
299.92393
299.92269
299.92227
299.9229
299.93343
299.92158
299.90829
299.90715
299.92018
299.93241
299.93224
299.91981
299.93126
299.9409
299.94096
299.94992
299.95051
299.95722
299.96722
299.96685
299.96122
299.94836
299.93581
299.93107
299.91841
299.92365
299.9237
299.93576
299.93093
299.91832
299.90342
299.90338
299.90436
299.90656
299.88938
299.89343
299.89134
299.89703
299.9037
299.91109
299.9189
299.92674
299.94275
299.96635
299.97729
299.98537
299.98877
299.99234
299.9936
299.9941
299.99369
299.99311
299.99327
299.99051
299.98523
299.98799
299.98268
299.97721
299.97413
299.98104
299.985
299.97884
299.97566
299.96859
299.96631
299.96092
299.97025
299.972
299.96352
299.96895
299.97298
299.97885
299.98289
299.98069
299.9758
299.97354
299.98299
299.98858
299.99327
299.98913
299.98982
299.99118
299.9944
299.99492
299.98927
299.98657
299.99061
299.98964
299.98415
299.98259
299.98526
299.99001
299.98873
299.99351
299.99341
299.99337
299.99448
299.99618
299.99688
299.99648
299.99335
299.9935
299.99484
299.99693
299.9938
299.98833
299.98975
299.9844
299.97914
299.97313
299.97574
299.96982
299.9747
299.97615
299.98288
299.98824
299.98548
299.98126
299.97421
299.97593
299.97236
299.97033
299.96098
299.96634
299.96884
299.96388
299.96953
299.97635
299.97921
299.98334
299.98136
299.97645
299.97929
299.97333
299.96695
299.96067
299.95724
299.95324
299.95343
299.94899
299.94873
299.94007
299.94528
299.94577
299.94078
299.94347
299.95135
299.95566
299.95836
299.95447
299.9474
299.95177
299.94822
299.94095
299.94791
299.94279
299.93723
299.93793
299.93135
299.9303
299.9191
299.92683
299.92803
299.92062
299.92489
299.9347
299.93965
299.94522
299.93719
299.9317
299.92301
299.93482
299.94775
299.96044
299.95722
299.95326
299.9533
299.94563
299.94528
299.94005
299.94876
299.94883
299.94058
299.9431
299.94795
299.9554
299.95796
299.95137
299.94686
299.95396
299.95102
299.94765
299.95866
299.96918
299.97796
299.96714
299.95556
299.95097
299.96395
299.96629
299.95454
299.96188
299.96506
299.95522
299.95794
299.96155
299.96665
299.95703
299.96879
299.96232
299.96584
299.96073
299.96563
299.96253
299.9573
299.95181
299.95567
299.95007
299.94481
299.94068
299.93777
299.93719
299.9302
299.93109
299.92029
299.92782
299.93142
299.93679
299.9305
299.93906
299.93428
299.92442
299.91372
299.92275
299.91824
299.92741
299.91687
299.91844
299.90876
299.9066
299.89255
299.90411
299.90641
299.89554
299.9025
299.91421
299.92203
299.93111
299.93881
299.94591
299.9525
299.95858
299.96202
299.96621
299.9633
299.95811
299.96133
299.95615
299.95055
299.95726
299.96908
299.97511
299.97044
299.97513
299.97329
299.96806
299.96412
299.96647
299.97209
299.9701
299.96718
299.96949
299.96294
299.95672
299.95279
299.94723
299.95132
299.94359
299.93738
299.9478
299.96338
299.95511
299.95865
299.96663
299.96442
299.95594
299.96005
299.95782
299.96211
299.96647
299.97424
299.98008
299.9838
299.98913
299.99379
299.99352
299.9914
299.99029
299.98699
299.98946
299.99101
299.99062
299.98592
299.9833
299.98457
299.99004
299.98936
299.98759
299.98231
299.9894
299.98677
299.98342
299.97905
299.97779
299.98254
299.98106
299.98195
299.97688
299.97578
299.97389
299.97513
299.97931
299.98884
299.98562
299.98599
299.99007
299.99041
299.99014
299.98627
299.98572
299.98989
299.99015
299.99019
299.99062
299.98537
299.98006
299.98091
299.98003
299.97941
299.97227
299.97317
299.97185
299.97703
299.97904
299.98194
299.98905
299.98859
299.98508
299.98543
299.98619
299.98278
299.97842
299.97446
299.97141
299.96918
299.97241
299.96723
299.96323
299.95912
299.95193
299.95612
299.95076
299.94313
299.93804
299.94517
299.9409
299.94823
299.94274
299.95086
299.94754
299.9439
299.9413
299.94519
299.94511
299.93507
299.93572
299.93112
299.93035
299.94113
299.93801
299.93823
299.927
299.92611
299.92246
299.9349
299.93523
299.92344
299.92713
299.93042
299.93422
299.93851
299.92857
299.92496
299.92387
299.91796
299.91924
299.90571
299.91278
299.91755
299.92457
299.93403
299.92947
299.93893
299.9356
299.945
299.94108
299.93818
299.9425
299.93274
299.92207
299.92546
299.91863
299.92332
299.91117
299.91918
299.91444
299.90543
299.8993
299.91409
299.91263
299.90808
299.90967
299.89375
299.90048
299.91461
299.91142
299.92453
299.93622
299.95171
299.96455
299.97555
299.98138
299.9698
299.97119
299.97764
299.97113
299.96978
299.97673
299.97608
299.96885
299.96344
299.96088
299.96201
299.94774
299.94631
299.95029
299.95848
299.95966
299.94643
299.9479
299.95009
299.95228
299.95787
299.96024
299.95436
299.95175
299.94499
299.93711
299.94557
299.94851
299.94257
299.94635
299.95499
299.95808
299.966
299.96881
299.96622
299.96345
299.96111
299.96374
299.95463
299.94602
299.93699
299.92934
299.92021
299.91186
299.90623
299.904
299.91674
299.9063
299.90835
299.89514
299.8922
299.87684
299.89167
299.89473
299.88119
299.87711
299.86033
299.86579
299.88089
299.88972
299.90168
299.91205
299.92045
299.92968
299.9123
299.90222
299.91174
299.90185
299.91174
299.9214
299.93071
299.94083
299.93541
299.94053
299.92956
299.92314
299.91579
299.92304
299.92982
299.94085
299.9465
299.94168
299.93146
299.92381
299.93615
299.94839
299.95204
299.96203
299.96427
299.96178
299.95102
299.94774
299.95071
299.96144
299.95929
299.94761
299.95114
299.94843
299.95227
299.95652
299.96093
299.9654
299.97102
299.96748
299.96611
299.96967
299.96348
299.95895
299.95441
299.96305
299.9644
299.96169
299.96055
299.95018
299.93939
299.92885
299.93315
299.92517
299.91443
299.90542
299.89913
299.89659
299.8803
299.88396
299.87319
299.89039
299.88737
299.8688
299.84787
299.86225
299.86739
299.84963
299.84256
299.844
299.82616
299.80934
299.83665
299.82571
299.79454
299.81475
299.82453
299.79808
299.81564
299.83973
299.8552
299.88193
299.91301
299.90972
299.94827
299.95307
299.90674
299.90864
299.90858
299.95327
299.99688
300.03624
300.06459
300.04073
300.06475
300.01784
299.99777
300.01508
300.0479
300.10215
300.16049
300.10227
300.04919
300.01677
300.04451
300.01313
300.05593
300.10022
300.15783
300.0948
300.16985
300.09799
300.02538
299.99141
299.96984
299.95522
299.9115
299.92214
299.93038
299.91183
299.96608
299.98596
299.96434
299.90949
299.92397
299.91653
299.96602
299.98651
300.02156
299.94144
299.9191
299.94613
299.97672
300.07914
300.1788
300.09307
300.03385
299.99357
300.03787
300.06367
300.13927
300.08985
300.13722
300.18011
300.15594
300.14516
300.07242
300.06099
300.05732
300.04319
300.0562
300.28412
300.30561
300.22309
300.17025
300.26591
300.46002
300.28618
300.3717
300.25595
300.36451
300.21675
300.13416
300.07363
300.03537
300.08344
300.1294
300.06133
300.09486
300.17545
300.29125
300.2459
300.16117
300.27695
300.42608
300.53204
300.60524
300.27834
300.16352
300.09265
300.07733
300.02804
300.00126
300.00601
299.98951
299.98197
299.96018
299.96487
299.9796
299.95197
299.94299
299.96714
299.98412
300.01089
300.03378
300.058
300.02916
300.01348
300.0157
299.99223
299.98384
299.97959
299.97867
299.97831
299.99006
299.99096
299.98912
299.97918
299.97931
299.96753
299.96642
299.95382
299.95849
299.95961
299.97046
299.9716
299.97102
299.97512
299.97383
299.98476
299.98569
299.98584
299.97845
299.97595
299.96151
299.94899
299.95131
299.96312
299.96875
299.95939
299.96253
299.97067
299.97665
299.97332
299.97571
299.97857
299.98659
299.98724
299.98725
299.99025
299.98126
299.97553
299.97326
299.9684
299.96526
299.95491
299.95933
299.96617
299.96976
299.97773
299.98011
299.98161
299.98561
299.98777
299.9917
299.99211
299.99313
299.99939
300.00477
299.99796
300.00118
299.99364
299.99294
299.99382
299.99675
299.99945
300.00275
300.00599
300.01693
300.01468
300.00262
299.99701
299.99463
299.99632
300.00891
299.99824
300.003
300.01128
300.02578
300.04059
300.04328
300.02414
300.01113
300.02551
300.01582
300.00887
300.01688
300.0067
300.00137
299.99498
299.99777
299.99287
299.98881
299.98833
299.98463
299.97749
299.97797
299.97437
299.97121
299.96392
299.9679
299.97331
299.97903
299.98733
299.9867
299.99102
299.99145
299.99149
299.99144
299.99099
299.99051
299.98983
299.98001
299.98039
299.99175
299.99258
299.98158
299.98112
299.97292
299.96258
299.96081
299.95667
299.95507
299.94971
299.94823
299.96363
299.96159
299.94299
299.94465
299.96313
299.96497
299.97985
299.99406
299.99299
299.99687
299.99822
299.98102
299.98231
299.9811
299.99497
299.99924
299.99978
299.99577
299.98231
299.98341
299.96629
299.96474
299.96653
299.9689
299.97042
299.95857
299.95364
299.95155
299.94653
299.94858
299.93195
299.92937
299.92721
299.92548
299.93397
299.93283
299.92031
299.93144
299.93227
299.9415
299.94274
299.95161
299.94379
299.94245
299.93369
299.92597
299.92449
299.93629
299.9314
299.91904
299.92052
299.9326
299.9375
299.9391
299.94422
299.95307
299.94561
299.93565
299.93814
299.94644
299.95495