/*--------------------------------*- C++ -*----------------------------------*\
  =========                 |
  \\      /  F ield         | OpenFOAM: The Open Source CFD Toolbox
   \\    /   O peration     | Website:  https://openfoam.org
    \\  /    A nd           | Version:  7
     \\/     M anipulation  |
\*---------------------------------------------------------------------------*/
FoamFile
{
    version     2.0;
    format      ascii;
    class       volScalarField;
    location    "490";
    object      alphat;
}
// * * * * * * * * * * * * * * * * * * * * * * * * * * * * * * * * * * * * * //

dimensions      [1 -1 -1 0 0 0 0];

internalField   nonuniform List<scalar> 
25278
(
7.9155232
7.7846711
7.8334296
7.8334097
7.6814706
7.7846433
7.8851643
7.9154997
7.8852238
7.7628751
7.8400819
7.8834529
7.8398319
7.7955485
6.9270391
7.8333056
7.7845805
7.0687264
6.5842257
7.1444227
7.514937
7.6283387
7.7296206
7.7831956
7.6006942
7.7831729
7.7296205
7.5207668
7.425058
7.4693699
7.3258076
7.2835257
6.8696052
7.1455601
7.1759366
7.1105301
7.144661
7.0353533
7.0043246
6.7101494
6.8839503
6.9162693
6.7581026
6.7954039
7.0818035
7.3918295
7.691456
7.582543
7.2726799
7.1985258
7.1075976
7.0522031
6.3618904
6.5850586
6.900374
6.9364773
6.8369773
6.8004836
6.3848122
6.5465885
6.5946617
6.4455165
6.3246629
6.7673208
6.7239993
6.6788724
6.7234038
6.2560022
6.1823412
6.2576445
5.6858933
5.9007211
6.1446457
6.3872042
6.6318923
6.81385
7.1762737
7.4695238
7.6284935
7.5529328
7.4945804
6.9313228
7.071439
6.6005831
7.4122127
7.3484164
6.3755289
5.4385958
6.0154507
6.5840514
6.6113759
6.0176167
6.0033918
4.9329255
5.0128607
6.029354
6.1475004
6.6977875
6.7002425
6.135862
6.1368307
5.1128528
5.2114691
6.1452277
5.547282
5.5703267
5.4472349
3.8740705
3.8093145
2.8904969
4.925999
4.8875432
2.8530206
2.8316855
3.957608
4.0470503
2.8105493
4.9550571
5.0205896
5.0154254
6.5983487
7.4120218
7.6813578
5.9870448
4.9100053
3.7934524
2.881849
4.9207733
6.3726523
7.348146
7.4943274
7.5527701
7.0698409
6.9283512
6.0057746
5.4295564
5.4379277
4.8813502
2.842565
3.8558245
3.9378611
2.818879
2.7949776
4.9478961
5.5377965
5.5611624
6.1394307
6.0194356
4.9896012
6.001041
6.9208988
6.5772737
6.6053458
6.6930543
7.0648433
6.6962365
6.1378497
5.1904818
4.025178
2.3394688
0.99963842
1.0062228
2.3617149
3.9908629
5.5108136
5.5356963
4.9573667
4.8860208
2.6821541
2.718589
3.9058048
2.3139072
1.0338914
0.94330786
0.33148907
0.36415751
1.0963238
1.0903107
0.37626418
0.34355322
0.93831779
1.0257941
2.2947069
3.8584774
5.0896617
6.1227788
6.1225462
5.4775353
3.9401352
2.5862898
2.6325324
4.8882163
6.5652234
5.50184
4.8127685
4.9819365
2.5579806
0.85685418
0.31548837
0.30347207
0.85850538
2.6652846
5.0521858
5.644234
6.2596486
6.7799306
7.1461819
7.4254416
7.2850628
7.326388
7.1119034
6.8735201
6.8862954
6.9179511
7.1454021
7.0369943
7.0068479
6.715004
6.7616292
6.7977831
6.9670457
7.251921
7.5255275
7.6914547
7.5595103
7.2866746
7.2372452
7.4252373
7.3919952
7.1861561
7.2060181
6.991243
6.8337717
7.1003057
7.0827973
6.9876659
7.2732955
7.5825627
7.5155574
7.1479416
7.200061
6.9046839
6.596568
6.5556595
6.6015805
6.9392
6.8414165
6.8067776
6.3989985
6.4565722
6.3393796
6.7730446
7.1097886
7.0569571
6.3805407
6.7319978
6.2764469
6.2019063
6.6867956
6.7289415
6.2709252
6.3263002
6.3900596
6.5004294
6.6397987
6.6812489
7.007518
6.9156855
6.8962744
6.8313029
7.1922521
7.2280079
7.3095043
7.0480345
7.1394277
7.1571502
7.2585204
7.0528639
7.0315255
6.8697088
6.9006772
6.7546656
7.0673612
6.9798749
6.9618602
6.5913908
6.7200052
6.5155552
6.6057754
6.7037827
6.7922874
6.9499742
7.2866593
7.5594935
7.5254399
7.251709
7.1856821
7.2058561
7.0996907
6.8323881
6.9907069
6.9659066
6.716713
6.8926462
6.7500117
6.6624741
6.6369183
6.6148647
6.4359278
6.6697706
6.3306453
6.2996863
5.9633958
6.035375
5.5701827
5.9988318
6.3331775
6.672288
6.6349015
6.2676895
6.3030184
5.975531
6.3952731
6.4423617
6.045103
5.5803689
5.5055723
5.9503645
5.3435665
5.4932432
4.9247875
5.0354142
5.3943907
5.6226175
5.8598117
6.0620137
6.2678219
6.4462125
6.4671353
6.3428605
6.5306562
6.509277
6.3108851
6.1088525
6.1368306
6.2924979
6.3930539
6.419022
6.3190418
6.4958694
6.5122689
6.6780484
6.5763023
6.5608463
6.3698789
6.3925478
6.1916169
6.3404219
6.1397342
6.1200581
6.086478
5.914544
5.8746796
5.6399903
5.6755011
5.888543
6.0535009
6.394995
6.7180475
6.7507018
6.4202525
6.3227446
6.4988076
6.6644739
6.6395589
6.6182025
6.4507031
6.4705242
6.3488414
6.5350012
6.5145991
6.3181525
6.1183033
6.2730051
6.2968163
6.0920048
6.0680467
5.8866637
5.9246186
6.1447775
6.1721444
6.3746609
6.5643358
6.5788034
6.6794904
6.5144633
6.3964504
6.1969174
6.3432804
6.1433603
6.1244136
5.9547373
5.9818328
6.0090968
6.1766034
6.4799629
6.5005779
6.8200456
6.738136
6.7168083
6.5546698
6.5417765
6.4197526
6.438971
6.6179386
6.6429557
6.6548092
6.7511705
6.5919729
6.5786393
6.4604246
6.4788527
6.2865467
6.426036
6.4083308
6.3873541
6.3701049
6.2213588
6.2433101
6.0327252
6.1909833
6.2181883
6.2332748
6.0795891
6.0569706
6.2652976
6.132001
6.3485795
6.5547356
6.5298428
6.3260615
6.3045036
6.280178
6.4884984
6.471618
6.441346
6.418011
6.2113669
6.1612215
5.6790204
5.6400247
5.7069098
5.3607286
5.9908681
5.9287247
5.2663493
4.4926333
5.0322423
4.1721161
4.3177752
4.4206853
5.1065726
4.58195
3.6926742
3.5641425
2.7182076
3.9114203
4.9224331
5.7252323
5.1193816
5.5987277
5.6766239
5.7977881
5.0215577
4.7762106
4.6634722
3.4436923
2.813217
1.882858
1.8787739
2.7764874
3.9913422
3.4895159
4.0581446
4.267648
4.5147616
4.7612333
5.0051635
5.2281829
5.4491498
5.6529732
5.865713
5.8938345
5.6540734
5.6266855
5.3845455
5.4316909
5.6868995
5.7208291
5.9280212
6.0981002
5.9236723
5.9471089
5.7425415
5.9746578
5.9459952
6.1651079
6.0184865
6.2483593
6.4665833
6.6782559
7.0063145
6.9855484
6.8934761
6.9138772
6.5423796
6.4923517
6.6348021
6.4103557
6.197343
5.9665534
5.3108703
5.6815738
5.6111628
5.2116661
4.8424525
4.9450268
5.7631821
5.6406636
5.5573534
4.5781844
4.6935497
3.3322092
3.8503217
4.4981224
5.0698964
4.993155
4.1100246
4.4082768
3.4683489
4.2843057
4.3860303
3.5909668
2.5927914
2.5564428
3.7783671
3.2981987
1.7142217
1.6868963
2.3041839
3.1258713
3.9164859
4.552876
5.1076805
5.5381627
5.9170039
6.3155172
6.7869278
7.1913435
7.2278561
7.309407
7.4252123
7.2371141
7.2585407
7.1570653
7.1390515
6.8690063
7.031342
7.052834
6.9004156
6.7540059
7.0671532
7.0473104
6.9609363
6.9794628
6.6276884
6.5881352
6.7183752
6.5125255
6.6037447
6.7026076
6.791786
6.8199668
6.7375758
6.7160095
6.616612
6.4369147
6.5534024
6.5401119
6.4166652
6.2173575
6.367967
6.4791923
6.5001444
6.4072819
6.5779079
6.5915495
6.7508625
6.6542687
6.6418723
6.4589742
6.4779585
6.2851017
6.4253003
6.2322548
6.2164814
6.1888033
6.3855472
6.2402631
6.0286118
6.0032753
6.1735818
5.979873
6.1537284
6.1894574
6.0271888
5.9991399
5.8016498
5.773512
5.5283771
5.7553383
5.7146041
5.6940912
5.6499403
5.4203155
5.3713579
5.1056231
5.1507428
5.4302068
5.1588675
5.1144241
4.8034475
4.8638704
4.9095307
5.1932674
5.4590501
5.7104782
5.5020544
5.7700107
5.7344636
5.9860684
6.2186334
6.4349129
6.3308678
6.3044753
6.0569372
6.1875203
5.958344
5.7999518
5.8359032
6.096449
6.1294938
6.3670178
6.3855181
6.4844635
6.2741737
6.1583157
6.0459288
6.3009386
6.2792904
6.2409868
6.2106403
6.1150139
6.147024
5.8610296
5.9761786
5.9360134
5.8116408
5.4875765
5.6456872
5.6834392
5.532953
5.1607849
5.3579756
5.5500796
5.4974244
5.6955575
5.4257485
5.4614314
5.2380203
5.1893817
4.8380166
5.1235523
5.1708845
4.9034008
4.9540956
5.284281
5.5908085
5.8718515
5.9060171
6.0479645
5.8034603
5.629809
5.4517178
5.7643999
5.7250695
6.0129377
5.9022249
6.1904071
6.2132138
5.9387809
5.6252064
5.5798842
5.2150582
5.4053376
5.0517677
4.9964351
4.946515
5.3046412
5.0924632
4.8939636
5.3398324
5.7039027
6.035492
6.3792556
6.8273691
6.8508699
6.810959
6.3767295
6.4361742
6.4877923
6.8992337
6.9200461
6.8830417
6.8620874
6.4320242
6.478947
6.5316491
6.2417591
6.3044766
6.3824905
6.4620523
6.5532685
6.5276993
6.4326494
6.4174333
6.1871191
6.2998677
6.3227869
6.2124169
6.2383583
6.3461586
6.3673541
6.5675458
6.4758014
6.261356
6.1615093
6.3985343
6.3210789
6.0693597
6.0403944
6.135486
6.1067808
6.3521682
6.3343161
6.2513173
6.2699653
6.0077234
5.975221
6.0779432
5.8018719
5.9380423
6.0762455
6.1028058
5.9683771
5.7020637
5.8648973
5.8349658
5.666582
5.4956537
5.5377813
5.8369025
5.709969
5.6683598
5.3212692
5.2684133
5.0849778
5.4923184
5.8409402
6.1439928
6.1180109
6.0719767
6.0022107
5.9637555
5.6057066
5.6635519
5.7541063
5.7998179
5.7131391
6.0523516
6.0797738
5.7577768
5.69701
6.0391671
6.0097846
5.9577467
5.9330003
5.8913415
5.5022903
5.5635775
5.5966362
5.6490255
5.6173788
5.9862969
6.01612
5.6661701
5.2390194
5.2846191
5.3744588
5.3178375
5.4409756
5.3877754
5.2600341
5.2064232
4.697859
4.7781309
4.9617925
5.0231259
4.8443541
4.9122287
4.7735403
4.701132
5.2238225
5.1625052
5.1136569
5.0568371
4.4735651
4.5563825
4.6314599
3.9759121
4.1990209
4.4651281
4.7385296
4.6771181
4.1915554
4.5427724
4.6061461
4.273854
4.3401744
4.8008542
4.8632501
5.1043095
5.3285014
5.5391692
5.2560733
5.4933159
5.2316605
5.5018043
5.717684
5.9505793
5.7507168
5.5022491
5.4690267
5.6973157
5.472349
5.2004877
5.237951
4.9519132
4.9922778
5.2684721
5.5383437
5.7577775
5.9826136
6.0016001
5.7741343
5.5642985
5.8065959
5.7801136
5.534984
5.2739636
5.3071364
5.5635153
5.772077
5.5586257
5.5895722
5.8294426
6.0540804
6.2630944
6.1282371
6.1524208
6.0245677
5.9970831
5.7352085
5.8933994
5.9205688
6.0774295
5.8550444
6.0458391
5.8233328
5.8076416
5.5963973
5.8093371
6.0287718
6.0470206
5.8242839
5.6200599
5.8575868
5.8331207
5.5935416
5.3393826
5.3690045
5.6187352
5.3664444
5.6168838
5.401845
5.6701643
5.6399219
5.6080982
5.5746884
5.3708722
5.4112181
5.0966582
5.3325401
5.2951578
5.050375
5.0028838
4.7241888
4.6650368
4.2573964
4.6054903
4.9113911
5.2141147
4.8627496
4.8186905
4.4913461
4.5501319
4.1891938
4.5422771
4.4860367
4.1137458
3.7156225
4.1368772
4.1934853
3.7811276
3.7133453
3.2161868
3.2968461
3.7809027
3.8441534
4.2460573
4.5936454
4.6423964
4.95634
4.658665
4.3020795
3.9075921
4.3196104
3.9187334
4.4084393
4.4797306
4.925481
5.1557237
5.2058569
4.9879863
5.3722655
5.4215969
5.7491795
5.8704483
5.901926
5.7860229
5.467794
5.6157116
5.7665202
5.4859171
5.4494193
5.1404348
5.3679058
5.0798757
5.3355009
5.3024194
5.0302647
5.0665657
5.1006906
4.8174509
5.1167094
4.857284
5.181899
4.9518207
5.2993943
5.2537978
5.5775237
5.0490932
5.107765
4.7004895
4.6271328
4.8969838
4.8404236
4.7822963
4.3832797
4.7104977
4.9994352
5.0403661
4.7612032
4.4117853
4.7336216
4.6886478
4.3569501
3.9728101
4.0398815
4.4473151
4.0748991
4.5526946
4.2225712
4.7554591
5.2075689
5.590218
5.9185014
6.2056061
6.1839564
6.1238585
6.1469323
5.8434269
5.8025454
5.8815496
5.5420345
5.4303771
5.4847715
5.0526856
4.9816085
5.146025
4.6791771
4.6055544
4.5347441
4.2712483
4.3477467
3.6668821
4.0506606
3.975121
3.9049453
3.8326572
4.4039485
4.1343747
3.4425798
3.5250401
3.591123
3.2472319
4.0483181
4.126503
4.0064275
4.7009277
4.6267953
5.1762167
5.1854881
5.6217848
5.9884056
6.3783466
6.8113682
7.1915727
7.5825444
7.5150673
7.0704914
6.5901754
6.1494477
6.6999555
6.1467488
5.557237
4.9760598
4.9082944
5.5341836
4.0368551
2.7337214
2.7611409
3.9468699
5.1268408
5.224816
6.1449627
6.7022333
7.071335
6.1468124
5.543626
4.0507735
2.3987672
0.9776329
1.0662808
2.3471881
1.1159333
0.38986123
0.35708825
1.0253937
2.8056051
2.8306136
3.9640731
5.5683655
6.5983373
5.0163661
5.4972116
3.8449267
2.2880852
1.1004514
0.38154118
0.34831871
1.0085747
2.3310332
0.91277246
1.0021021
2.6087135
2.557455
3.9252045
5.4716141
6.5633149
4.8790022
4.8027489
4.9726039
2.5238912
0.82987487
0.31975415
0.32922306
0.89414546
2.7281277
5.0754132
6.3669305
7.0533515
7.107983
7.1993907
7.1458642
6.5915211
6.8039371
6.7272043
6.6800313
6.7242086
6.769787
6.3313241
6.2587105
6.1857473
6.2655503
6.3928139
6.4521547
6.839297
6.9384019
6.9028075
6.5526846
6.5995025
6.6386384
6.9869547
7.2729839
7.3094902
7.2279113
6.8625031
6.8832048
6.9204746
6.8999402
6.8519324
6.8290976
6.7874089
6.3174697
6.3845341
6.4399683
6.4902967
6.4330987
6.4796133
6.5331484
6.6290093
6.9798072
6.961558
6.9149411
6.8951431
6.4975382
6.5458765
6.6805575
7.0071752
7.0478776
7.0674005
6.754718
6.7198355
6.5903482
6.2575448
6.1907887
6.1301548
6.0895848
6.0646223
6.0630392
6.0846919
6.1098047
6.088576
5.7607912
5.7883942
5.7445655
5.7153302
5.3012461
5.3447816
5.404292
5.3628229
4.8602443
4.9264525
4.8484153
4.778587
4.0940982
4.2127363
4.4300258
4.5183796
3.852994
3.7531096
4.1327129
3.5201666
3.993679
3.4996315
3.4260607
3.359088
3.8477772
3.3676967
3.3024636
3.2517622
2.7485623
2.7879838
2.079657
2.7198848
2.6730209
2.0408398
1.4922754
1.4750174
2.3109154
3.1896796
3.0005731
3.8562157
3.7989412
2.9362265
2.0381626
2.0255091
1.0983245
1.1277261
0.57063942
0.91847441
1.515849
2.1962603
2.7916022
3.3232316
3.7547911
4.1529398
4.5021773
4.8431239
5.1491479
5.1947925
5.4826874
5.7514968
5.9991544
6.2279663
6.1985361
6.0728739
6.3154438
6.3398521
6.1100091
6.1407798
6.2556812
6.0291592
6.0569198
5.8156586
5.7843829
5.6144727
5.8884254
5.8549782
5.8218965
5.9730104
5.714641
5.5279562
5.5766965
5.3984646
5.7113453
5.9949733
6.2529689
6.2247942
5.9576549
5.840391
6.132977
6.1623692
5.8854713
5.9233446
6.0290072
6.2892923
6.3743469
6.3914042
6.1674396
5.9197587
5.6498232
5.4828879
5.785035
6.0589222
6.3089364
6.5473272
6.443398
6.8532411
6.8133097
6.7905358
6.7904887
7.1921163
7.5825073
7.7845294
7.8332682
7.9153163
7.8850495
7.7955544
7.7295163
7.6283383
7.5154755
7.0566974
7.1094582
6.6864111
6.3786105
6.2005747
6.2698377
6.7283577
6.7721552
6.7308733
6.2739113
6.3369548
6.4542681
6.84045
7.1998269
7.1472808
6.5939803
6.8056365
6.395783
6.5533048
6.9035724
6.9386109
6.5997084
6.6384628
6.4985724
6.3880926
6.3252742
6.3830726
6.383692
6.4362532
6.4920074
6.9006442
6.9206029
6.5337638
6.6290772
6.3860349
6.464334
6.4359788
6.4220003
6.1943016
6.2178746
6.2422181
6.2640227
6.3687946
6.5684455
6.4772169
6.4009325
6.1655332
6.1415414
6.114917
6.3568829
6.34061
6.0885941
5.9899309
6.2596986
6.2235838
6.2031371
6.1335582
6.0902226
6.0568373
5.7383237
5.7844304
5.6977889
6.0224247
5.9875991
5.6441889
5.2669068
5.3922283
5.5294124
5.6767923
5.34885
5.1544789
5.2173435
5.5709452
5.613902
5.7491959
5.4413249
5.2665867
5.3143802
5.6540656
5.956243
5.8634992
6.1567147
6.0940176
6.0694267
5.7430406
5.8259625
5.4846417
5.4359133
5.035981
4.9720058
4.7907742
4.8662756
5.3160176
5.3688343
5.4196197
5.5301701
5.1472092
5.0918233
4.9275011
4.988997
4.8565084
5.3319282
5.7234046
5.7832494
5.8241647
5.9001445
6.1942655
6.2138214
6.2764878
6.0191599
6.0490244
6.309115
6.3241888
6.0752882
5.7966685
5.9089227
6.0288678
6.1547927
5.9244554
5.898935
5.8725132
6.1077476
6.08315
5.8448283
5.683442
5.9491908
5.9769726
5.7150507
5.7451521
6.0032696
5.8803402
5.8502537
5.8185966
5.5218947
5.5591195
5.4049194
5.7291023
5.6925595
5.3602381
4.9865881
5.1943466
5.3937505
5.5876184
5.5547241
5.5201649
5.2359733
5.2744417
5.0376891
5.3553272
5.3154661
5.2727756
4.9455899
4.8832416
4.5394965
4.5957671
4.885569
4.5580081
4.2294917
4.1558724
3.7929962
4.2175498
4.6148989
4.6757345
5.0514114
4.8185889
4.3791832
4.2995217
3.839078
3.9070517
4.2729268
3.8591073
3.4264555
3.34235
2.8512148
3.425376
3.978949
4.0530691
4.5733876
4.3318681
3.7116706
3.6240052
2.9663141
3.0217615
3.4843505
2.9110368
2.3238397
2.263004
1.7221585
2.5375701
3.3215475
3.3947428
4.1192339
4.7251071
5.2207859
5.6317689
5.978611
5.9409305
5.5775446
5.5386623
5.9136199
5.9515999
5.5954772
5.645213
5.6797276
6.0273748
6.0537046
6.028834
6.0016826
6.0012519
5.9506278
5.9127419
5.6736433
5.5954249
5.1119177
4.6574232
4.7688814
5.0071055
5.7916231
5.7184716
4.9077537
3.8866837
3.430279
2.7936376
1.8634049
1.8541308
3.4733224
3.9626219
2.7348536
2.683578
3.5336271
4.4696409
5.2532645
5.9227036
5.6696056
6.156424
6.2069469
5.9849246
5.3475727
5.6976423
5.6293312
5.015035
4.1486069
4.2913683
4.3946651
3.6582236
4.5576275
5.0897945
5.2135697
4.9865315
4.7383339
4.4888643
4.2417736
4.0377019
3.9196632
3.9272165
4.5621176
4.6498557
5.1695161
5.1140296
5.1666203
4.6410714
4.7072898
4.7898496
5.2769799
5.2244517
5.281198
5.6896674
5.7349045
5.7666554
6.0964102
6.1351552
6.1557233
5.8602837
5.9330339
5.9662979
6.2474203
6.2646994
5.9955955
5.929443
6.2107696
6.1927448
5.8967285
5.5625436
5.6564566
5.7636609
5.446961
5.5942798
5.6276457
5.7736519
5.4965723
5.6756773
5.6477444
5.6183425
5.3453847
5.3107311
5.0804506
5.1214348
5.42978
5.463945
5.1602297
5.3779805
5.4088752
5.1966837
4.8756522
5.1245287
5.0901029
5.0536795
5.0153715
4.9748032
4.9319901
4.608287
4.6555988
4.3387074
4.6972612
4.6476119
4.9922134
4.7307807
5.1016082
5.1486614
4.7838391
4.5050565
4.931238
4.8757317
4.4415945
3.9735692
4.3334044
4.3916363
3.9820601
3.9206851
4.2845632
3.9063039
4.2612551
4.2050597
3.8214182
3.4445316
3.8463954
3.7811508
3.6506385
3.5483173
2.4572968
2.6406298
2.74496
1.9905819
2.8102149
2.7022861
1.8784764
1.0439248
1.5881361
1.5913736
0.62629001
0.70775059
0.37336364
0.33635644
1.0620827
0.54192792
1.10046
1.7127823
1.6980896
0.92118792
1.0787433
0.41143751
0.79232689
0.70677324
0.3722262
0.20941774
0.22862666
0.56573063
0.21966657
0.20156633
0.20357284
0.20775525
0.21610874
0.23674092
0.38885964
0.73922403
1.7714244
3.3405919
4.5987962
5.5663539
5.6488121
5.7804627
5.7034105
4.8843306
4.9876208
4.7156722
3.3824797
3.9382835
3.8550253
2.6659742
2.7234797
1.7579492
2.0854441
2.973139
3.8236091
4.4883367
5.0659206
5.5070584
5.894171
5.935016
5.9653061
5.924696
5.5522177
5.6099305
5.5679034
5.1222594
5.1859882
5.1307764
4.5932977
4.6724312
4.5721053
4.6433388
4.7173804
5.2469875
5.6703114
6.0175674
6.0447853
6.0161974
5.6614457
5.7080278
5.7725179
6.0869149
6.0609732
6.0118052
5.9747939
6.0475749
6.0828764
5.7729967
5.6809064
5.6244101
5.7240131
5.3725287
5.2379307
5.2908162
5.4189569
5.0122669
4.8293125
4.7491905
4.9451689
5.1378191
5.5164709
5.8305663
6.1262502
5.9821283
5.9177548
5.6671175
6.1567004
6.2077409
5.7023069
5.3456263
5.2484734
5.6336828
5.028484
4.4704778
4.1620319
3.5511813
3.6808257
4.5628811
5.1034936
4.426477
4.3241298
4.9393153
5.509105
5.9747101
6.3938319
6.7135982
7.0061442
7.3261051
7.6282803
7.6913303
7.3918951
7.4251577
7.5593701
7.600537
7.5253725
7.4693594
7.520696
7.425244
7.2842978
6.8722391
7.1114642
7.1762725
7.1451424
7.0364419
6.7607027
6.9175547
6.8856622
6.6350997
6.8146184
6.6722887
6.4411587
6.0445499
6.3340966
6.3043423
6.2673073
6.7813888
7.1460908
6.2682617
5.3551593
5.9558742
6.002706
5.5829682
5.0473178
5.5814691
5.5077834
5.9742751
6.3044527
6.3338416
6.671992
6.6347001
6.3937901
6.4407348
6.0434352
6.0676723
6.3952756
6.8929512
6.7180679
6.6177331
6.7971318
7.0825347
7.1001354
7.2059128
7.2517803
7.1858933
6.9667617
6.9911632
6.8334055
6.8695532
7.1393039
7.1571026
7.2584508
7.2865395
7.2370342
7.0315186
7.0527964
6.9005616
6.6428878
6.5547059
6.4642856
6.3855939
6.3083957
6.2460939
6.1906328
6.1538253
6.1317559
6.1306172
6.1504462
6.1863137
6.2065222
6.2607088
5.987908
5.9550778
5.8841881
5.9203485
5.8716265
6.172249
6.1530091
5.8467286
5.8059012
5.8321083
5.4624685
5.5375003
5.6362127
5.6794808
5.5873534
5.1922765
5.3244919
5.2671581
5.1231191
5.0058388
5.0844321
5.5176539
5.4818589
5.4233929
4.9435282
5.0269497
4.41844
4.5216315
4.7057395
4.908288
4.8323257
4.6110012
3.9657119
4.3171721
4.4149161
4.0885401
3.7448652
3.6065677
4.4112915
4.3077813
4.1921178
3.281215
3.4902967
3.3940376
3.3137928
3.1121768
3.0505323
3.9275707
3.9569865
3.8831598
4.0435609
3.978852
3.2226162
3.2964191
3.0431528
3.0990604
3.1662751
4.0366096
4.2008593
4.813823
5.3058414
5.2464271
4.7419294
4.8951723
5.3470447
5.7288959
5.8170037
6.127349
6.1519492
5.8559618
5.5190793
5.4014961
4.9612488
5.130261
5.0714039
5.4699596
5.6053035
5.9171646
6.1990494
6.1568394
6.2495995
6.2203296
5.9518869
5.9902294
5.8773672
5.5600234
5.7051591
5.6690905
5.3398252
5.3904054
5.2027873
5.2547408
5.3050081
5.6473458
5.9518777
6.2203313
6.3071292
6.2864232
6.0253784
6.0562876
6.1657398
6.3900311
6.372639
6.3374256
6.3124709
6.4162305
6.4400508
6.2264059
6.1068736
6.0687928
6.1963176
5.9709431
5.8175443
5.8516289
5.9970288
5.749884
5.5728111
5.5227628
5.7125152
5.4477061
5.223231
4.9943359
4.7408194
4.4803434
4.2132542
4.2816534
4.542415
4.0166444
3.6490504
3.5577324
3.9393333
3.3863725
2.8966831
2.4291402
2.4570765
2.0821235
1.1490846
1.1694284
1.6295822
1.6360189
1.6432702
2.5023085
3.3645485
4.1194618
4.3559181
4.4327109
4.6802818
4.6113212
4.0896191
3.7236867
3.8056846
3.4427866
2.5573163
2.1223893
2.0434727
2.3608115
2.8923705
3.4382571
2.8275309
2.7700592
2.0979898
2.8351141
2.3328045
2.0311336
1.0566064
1.4516059
1.424972
2.1220395
2.1538203
2.9630054
3.0515264
3.6129849
2.9747457
3.5795303
3.6664599
4.1592905
4.5115803
4.8099215
4.4647693
4.776297
4.4608593
4.7846759
4.7435567
4.7005035
4.3905391
4.7448549
4.7906131
4.4408245
4.4892435
4.8339508
4.5609688
4.9343096
5.2793976
5.2377538
4.8857989
4.8354617
4.5682274
4.6314128
5.0398028
5.0914348
5.1401545
5.3183092
4.9799679
4.752582
4.6929696
4.2540171
4.1820472
4.5053992
4.4489857
4.0431792
4.1043037
3.7060062
3.6305495
4.110499
4.0408449
3.559061
3.4912451
2.9726601
3.5549828
4.1225757
4.6389747
4.7035525
4.1946813
3.8595919
4.4731156
4.40135
3.7821794
3.0848317
3.1564888
3.6291347
3.0403688
2.4185747
2.3661518
1.740915
2.613235
3.4608189
4.1912848
4.266307
3.5351014
3.3062154
4.1306999
4.7749663
4.8453508
4.9236044
5.0505086
5.2010198
5.5742466
5.6161236
5.2535943
5.1116441
5.5162261
5.4686275
5.385663
5.4381314
5.8058843
6.1187372
6.0961995
6.0728946
6.0726822
6.4355854
6.863331
6.8633905
6.8835285
6.4808416
6.1571944
6.1768723
5.8808765
5.8454024
5.8174562
6.1360618
6.1564748
5.8543901
5.498063
5.537299
5.6055857
5.6941197
5.3524612
5.4864307
5.5238112
5.6587885
5.8009269
5.9488229
6.1030154
6.2633093
6.557311
7.0226541
7.3568446
7.6092251
7.6793675
7.8400517
7.8914748
7.9279197
7.8914977
7.7568887
7.8251393
7.7628149
7.6091976
7.6420005
7.3912805
7.3567613
7.2942306
7.4848309
7.5163934
7.3411243
7.3118154
7.1125498
7.0944935
6.9344765
7.1967828
7.2116882
6.9636803
6.9966616
7.1501504
7.1714221
7.3621711
7.2652021
7.2477838
7.1612512
7.4080304
7.6713947
7.7401494
7.4706658
7.5743733
7.690435
7.7254484
7.4969544
7.460359
7.3969602
7.4135116
7.2315232
7.2125967
7.0603073
7.3032419
7.3170659
7.0900398
7.1245235
7.2693475
7.4408896
7.6089511
7.4538837
7.2910555
7.3622407
7.3506742
7.2654445
7.5077225
7.2740471
6.9887093
6.9538311
7.2323548
7.2179348
7.1795387
6.8880905
7.0265856
6.874064
6.9534029
7.0776714
7.3912967
7.642031
7.5165081
7.4848911
7.2942802
7.3119427
7.2118677
7.1968295
6.9345163
7.0945792
7.1126044
6.9638529
6.9969107
7.2480243
7.3412227
7.3622822
7.2653821
7.0269064
7.1715011
7.1502313
6.9257473
6.8868404
6.8608787
6.7737155
6.7860684
6.6904475
6.6790152
6.4993025
6.6172075
6.6289965
6.5169644
6.5372268
6.713993
6.8061316
6.8188446
6.7255153
6.5547985
6.6645114
6.651737
6.4859213
6.5758521
6.5569945
6.4501956
6.4659691
6.3273064
6.3071053
6.101783
6.2625811
6.2754068
6.1229674
6.1452298
6.3477673
6.3676951
6.5027519
6.3147245
6.300459
6.1159748
6.2724791
6.5758069
6.8868147
6.8608298
6.7738574
6.7860789
6.629131
6.6173858
6.4997953
6.6792947
6.6903846
6.5171353
6.5371536
6.6517825
6.8060372
6.8187131
6.6644433
6.5545848
6.7252227
6.7137413
6.6285741
6.8219753
7.1244022
7.3746411
7.1079293
6.7897937
6.6672688
7.0251027
7.0394066
6.7011766
6.7370055
6.8559379
6.6648797
6.749272
6.8408792
6.925536
6.6304206
6.650225
6.5622894
6.7242209
6.7011022
6.8532641
6.7604873
6.5921763
6.5748259
6.6892599
6.5266803
6.5026921
6.485867
6.4662584
6.4505257
6.3080297
6.327689
6.1236812
6.2757868
6.3009331
6.3149035
6.1660859
6.367481
6.3478397
6.1454193
5.9281129
6.1161421
6.0912739
6.2393706
6.0743324
6.090764
5.9039535
5.8806606
5.6452293
5.8582044
5.8715166
5.6697185
5.6952578
5.9274514
5.9495415
6.1658315
6.1881877
6.3884719
6.5751251
6.7495348
6.8410548
6.8535459
6.760689
6.5923885
6.7012512
6.6893811
6.526777
6.6304215
6.6502811
6.9534398
6.8742056
6.8871127
6.7957497
6.7842376
6.6123526
6.7243749
6.7372437
6.6298033
6.4472412
6.5793082
6.5622935
6.5423224
6.4075897
6.2079866
6.3560287
6.3437121
6.1595521
6.3205146
6.353101
6.1997442
6.3811716
6.3950682
6.2494271
6.2291861
6.4275566
6.3031094
6.5074295
6.7008162
6.8883613
7.1797533
7.4081799
7.6715088
7.7402591
7.8251939
7.6904856
7.5744843
7.3970601
7.4603969
7.4135556
7.317189
7.3034149
7.0604786
7.2127076
7.2315463
7.0901855
7.1512958
6.9944395
7.0213742
6.9424267
6.9219615
6.9097921
6.8197832
6.8306302
6.6671578
6.7739698
6.7623773
6.6499999
6.4678703
6.603585
6.7063064
6.726277
6.6391651
6.7968625
6.8094014
6.9545404
6.8646133
6.8538204
6.6868769
6.7042526
6.5263911
6.6559141
6.475434
6.4616214
6.4363612
6.619002
6.4868336
6.2909962
6.2711998
6.4242595
6.2429287
6.4012839
6.7062574
6.9943295
7.0213345
6.7262751
6.6390297
6.7967518
6.9422506
6.9218367
6.9096441
6.8869253
6.7371422
6.6297079
6.795519
6.7840048
6.6120707
6.4275845
6.4073888
6.542166
6.3561214
6.3437858
6.1880708
6.388164
6.2619168
6.4686148
6.4483114
6.6413392
6.5539434
6.5420807
6.5162888
6.6053155
6.592513
6.3900628
6.4091745
6.3069696
6.286544
6.5042984
6.4282291
6.4417721
6.2118359
6.1898592
6.1022019
6.3545769
6.3678652
6.1256638
6.150155
6.2345728
6.3284261
6.4294082
6.2201135
6.1987233
6.1771611
6.0532177
6.0765142
5.8267359
5.9721003
5.9949893
6.0171782
6.2407709
6.1213781
6.3479436
6.255165
6.4806017
6.4673917
6.3962434
6.4086167
6.171718
5.9084906
6.0096031
5.9860113
6.0990181
5.8514267
5.8752447
5.7416692
5.7154568
5.6879297
5.9614025
5.935859
5.8272534
5.8559158
5.5578627
5.5894471
5.8827211
5.7924594
6.0770819
6.3395494
6.6108618
6.9822922
7.299607
7.3309884
7.0231536
7.080265
7.0962966
6.7700853
6.6822699
7.0400919
7.0054015
6.9891196
6.9466876
6.9318077
6.9667838
6.5746897
6.5242874
6.5618028
6.6001212
6.6479701
6.3811154
6.4363869
6.5061583
6.5796753
6.5910803
6.677522
6.4872279
6.3881765
6.3689842
6.1430499
6.164372
6.2822573
6.0608583
6.2078164
6.2292205
6.3811513
6.3950984
6.5792065
6.4469986
6.2492855
6.0363594
6.2159555
6.1996584
6.1750993
6.1595793
6.1327764
5.9159721
5.9032784
5.8717954
5.8588471
6.0749183
5.8824905
5.9047234
5.6708567
5.646905
5.3980266
5.6492777
5.6695558
5.4233056
5.3960181
5.1329531
5.1629901
5.4243872
5.4507721
5.6975382
5.9030609
5.915872
6.1323316
5.7179312
5.4745714
5.7162734
5.4748795
5.7181316
5.9496355
5.9724914
5.9933225
5.7635274
5.9597222
5.9482465
5.7419935
5.4991717
5.7435216
5.9482718
5.9597252
6.1748739
5.9934357
5.9722755
5.7421579
5.7635685
5.7867325
6.0154539
6.0364501
6.215826
6.0020693
5.9902573
5.7877163
5.9904247
6.002071
5.8076663
5.7864985
6.0152593
5.8439679
6.0823346
6.3028527
6.5072374
6.7005608
6.7134083
6.5257702
6.4277834
6.6276737
6.616382
6.4087505
6.1855588
6.2065086
6.3231828
6.1037556
5.9655447
5.9433346
5.9210308
5.8983654
6.0390236
5.7989024
5.7756505
5.7520634
5.7276797
5.7022843
5.4381621
5.4656243
5.262978
5.5555315
5.5267437
5.2307578
4.9141019
5.15688
5.1872198
4.8935391
4.8596177
4.8233037
4.5352282
4.2235299
4.6132738
4.3240271
3.86113
3.7830826
4.1644114
3.7572878
4.1273808
4.0738336
4.4132238
4.3644384
4.3136506
3.9395463
3.8809903
3.5054732
3.5658232
3.9629475
3.5677783
3.5055596
3.4422956
3.3840951
2.9641649
3.3632726
2.9321214
2.998139
3.3803074
2.8568453
2.4804414
2.4057369
2.0695224
2.5491006
2.6047534
3.0314238
2.5500956
2.9653712
2.8974615
2.4734875
2.1003476
2.1617357
1.7547417
2.131228
2.1862386
2.5367652
2.9157356
3.4438981
3.5068637
2.9778668
2.5962923
3.1224623
3.0598536
2.6659154
3.0935669
3.1554751
2.6674396
3.0913573
3.0270831
2.6070898
2.2166803
2.2734295
2.7269073
2.2431404
1.8542307
1.8028088
1.3289081
1.6265602
1.9082118
2.2686586
2.2265763
1.526581
1.1976112
1.8674192
1.8307323
1.1735824
0.64298966
0.61578648
0.87730219
0.51520824
0.28656613
0.3201648
0.22559005
0.52584723
0.97675785
1.5510538
1.58478
0.99984727
0.81060264
1.2922519
1.2536864
1.6900991
1.2740444
1.6029299
1.9273417
2.3449277
2.3855787
1.9687174
1.3081257
1.716769
1.692715
1.27879
1.033647
1.0576228
1.6372277
1.3129157
0.8410442
0.81510426
0.46123267
0.56593594
0.71803481
1.0766597
1.0456644
1.7314944
2.5666188
2.2427041
3.1816868
3.9855306
4.0555755
3.2388932
2.2661654
2.2983687
2.6678804
1.7566556
1.2417888
1.2625525
1.2878749
1.3003767
2.2381738
3.1097045
3.0984621
3.1682117
3.9770292
4.6358136
5.1634375
5.5936144
5.5365247
5.5730872
5.9382954
5.9759988
5.6273645
5.6758614
5.6433216
5.6882403
6.0278144
6.0515197
6.0246176
6.0665515
6.4416868
6.8526636
6.8128477
6.8303708
6.8957774
7.2730747
7.3093783
7.2278992
6.8834068
6.4804347
6.5329445
6.9202447
6.9001181
6.4906482
6.5902986
6.9615259
6.9151005
6.5459105
6.680144
7.0071047
6.9869054
7.0824571
7.3918401
7.6912749
7.4250317
7.1391523
7.0476489
7.0671301
6.9795131
6.6282979
6.7539739
6.7192298
6.8690527
6.8327798
7.0998134
7.2058511
7.2515329
7.1858147
7.1450271
7.0362581
7.3260575
7.2845712
6.8716699
7.0060606
6.7130416
6.7601558
6.9168827
7.1755714
7.1111594
6.8847745
6.6328299
6.3915757
6.2616982
5.967853
6.0388321
6.4391531
6.6704859
6.8118642
6.298122
6.3290069
5.9912841
5.568719
5.4922149
5.3241907
4.901567
5.0147118
5.5549668
5.4754149
5.9410785
6.2932033
6.249241
6.7770095
7.1452132
7.5205151
7.4252094
7.4693328
7.5253343
7.6004498
7.5593015
7.2863313
7.2369407
7.2582897
7.1568183
6.9000564
7.0524222
7.0310043
6.990567
6.966252
6.7964815
6.5126443
6.4153875
6.3122226
6.2212404
6.1288837
6.0526456
5.9838903
6.0187604
5.6912353
5.6373986
5.7309624
5.7777283
6.0864252
6.1300199
6.1536108
6.0909495
5.7781114
5.7192166
5.3244528
5.2781531
5.221265
4.7018123
4.7696609
4.8424256
4.7762394
5.2690648
5.2127512
5.1618705
5.1107399
4.5567719
4.6370444
4.7115165
4.8487343
5.305208
5.2557331
4.7729226
4.9545362
5.3807436
5.4248354
5.0182981
5.0749186
4.9098066
5.358206
5.736611
5.8200547
5.8575749
5.520445
5.409399
4.9716215
5.1303634
5.1854207
5.0337531
4.909671
4.839604
5.3344849
5.3370729
5.3924636
5.7755315
5.7747908
6.0955458
6.1169399
6.094192
5.7631357
5.7329717
5.8027416
5.842828
5.8162029
6.135656
6.1560913
5.8534268