/*--------------------------------*- C++ -*----------------------------------*\
  =========                 |
  \\      /  F ield         | OpenFOAM: The Open Source CFD Toolbox
   \\    /   O peration     | Website:  https://openfoam.org
    \\  /    A nd           | Version:  7
     \\/     M anipulation  |
\*---------------------------------------------------------------------------*/
FoamFile
{
    version     2.0;
    format      ascii;
    class       volScalarField;
    location    "490";
    object      p;
}
// * * * * * * * * * * * * * * * * * * * * * * * * * * * * * * * * * * * * * //

dimensions      [1 -1 -2 0 0 0 0];

internalField   nonuniform List<scalar> 
25278
(
101315.29
101314.83
101316.15
101316.07
101319.97
101314.51
101314.06
101315.22
101314.36
101309.87
101311.6
101313.43
101314.57
101316.86
101325.63
101316.05
101314.79
101323.22
101326.97
101320.26
101315.12
101315.47
101315.5
101312.19
101308.72
101312.01
101315.35
101314.05
101319.86
101312.97
101310.72
101317.1
101312.72
101315.46
101309.05
101315.76
101311
101307.4
101311.88
101306.74
101309.77
101304.58
101305.15
101298.85
101302.99
101305.3
101310.5
101308.08
101304.32
101311.09
101310.54
101319.96
101316.03
101314.42
101315.66
101308.85
101306.69
101313.18
101305.81
101309.79
101304.14
101303.56
101303.39
101308.11
101317.33
101316
101307.19
101303.14
101307.84
101310.06
101323.42
101313.92
101317.02
101311.98
101317.32
101309.34
101309.09
101312.94
101315.31
101319.88
101323.47
101325.53
101323.17
101327.45
101319.76
101324.01
101328.93
101331.94
101331.65
101330.45
101325.11
101325.74
101331.71
101335.87
101337.29
101325.87
101331.64
101329.72
101322.79
101324.12
101331.64
101342.05
101338.63
101324.22
101323.17
101331.11
101324.89
101334.99
101333.25
101341.86
101336.21
101328.73
101348.77
101363.18
101340.97
101337.46
101367.31
101330.95
101339.01
101338.14
101326.33
101319.32
101319.66
101331.08
101335.64
101331.75
101341.45
101336.03
101328.28
101323.76
101323.25
101319.46
101322.44
101325.04
101331.14
101331.32
101323.79
101328.11
101347.95
101333.38
101339.19
101361.97
101365.97
101329.48
101322.08
101330.28
101330.39
101324.45
101336.93
101324.46
101324.95
101330.54
101324.56
101329.63
101322.19
101322.11
101322.41
101337.66
101336.43
101310.23
101338.53
101347.1
101312.69
101337.31
101323.15
101331.52
101338.67
101329.98
101363.46
101361.74
101341.22
101328.8
101347.06
101346.57
101440.72
101392.07
101347.22
101341.19
101395.09
101453.03
101343.81
101343.91
101325.11
101338.45
101341.41
101330.9
101322.84
101321.34
101334.17
101370.6
101365.08
101338.8
101326.64
101330.24
101330.34
101327.66
101352.97
101317.47
101473.17
101433.94
101315.36
101348.47
101327.18
101319.11
101320.89
101319.67
101315.48
101319.82
101316.82
101310.3
101315.83
101312.81
101309.82
101304.61
101311.12
101307.09
101311.67
101306.93
101305.2
101298.78
101299.21
101302.59
101308.49
101310.21
101306.85
101300.49
101298.86
101302.78
101304.73
101306.46
101304.14
101296.57
101294.32
101299.81
101302.6
101304.03
101304
101307.39
101314.8
101320.07
101310.99
101315.69
101314.6
101310.07
101304.37
101309
101306.26
101312.79
101306.21
101303.81
101303.56
101308.25
101310.01
101319.53
101316.44
101317.17
101310.38
101308.13
101315.42
101306.66
101303.24
101293.82
101294.83
101295.69
101297.49
101291.38
101300.07
101296.61
101301.01
101302.74
101301.9
101298.16
101300.86
101294.13
101294.86
101295.94
101300.01
101294.67
101291.92
101290.62
101289.79
101285.51
101294.44
101290.99
101290.15
101283.24
101286.89
101283.44
101281.71
101288.26
101289.08
101293.21
101300.59
101307.01
101308.6
101302.65
101306.38
101304.13
101300.36
101294.48
101296.73
101299.28
101301.05
101299.52
101295.68
101296.63
101303.07
101305.38
101303.85
101307.79
101301.39
101309.32
101302.71
101302.06
101300.61
101303.83
101301.53
101307.92
101317.31
101320.93
101309.41
101303.3
101312.22
101304.09
101302.45
101300.93
101314.19
101319.46
101327.01
101313.68
101300.62
101298.61
101290.28
101284.98
101298.18
101288.54
101299.78
101294.3
101291.9
101292.26
101294.97
101297.01
101291.92
101293.19
101289.21
101295.89
101293.02
101286.63
101289.75
101286.63
101286.16
101296.56
101289.2
101289.13
101286.5
101284.1
101279.54
101287.11
101277.26
101278.63
101285.26
101285.91
101284.75
101288.81
101282.13
101290.07
101293.54
101293.11
101301.1
101295.69
101286.72
101290.31
101286.91
101297.08
101303.42
101305.68
101294.6
101292.15
101292.53
101294.79
101296.99
101292.34
101293.71
101300.17
101296.37
101285.63
101288.92
101285.47
101286.43
101289.65
101283.72
101286.75
101288.97
101288.78
101296.84
101286.24
101284.25
101279.87
101287.54
101277.53
101279.05
101278.44
101274.47
101268.82
101269.22
101278.22
101282.18
101290.11
101283.27
101291.72
101283.1
101279.94
101279.96
101278.86
101285.13
101278.2
101284.61
101288.79
101283.23
101277.06
101276.78
101277.56
101271.28
101278.18
101274.85
101280.96
101280.06
101274.96
101273.03
101266.55
101273.21
101265.55
101274.09
101264.97
101264.08
101270.69
101266.26
101273.09
101277.76
101285.7
101275.44
101277.24
101281.78
101291.41
101292.6
101298.98
101303.14
101303.89
101316.96
101319.31
101310.7
101302.02
101301.58
101302.9
101314.39
101302.26
101321.62
101327.32
101323.88
101319.67
101297.71
101300.86
101300.83
101296.5
101296.86
101333.92
101351.63
101314.5
101323.13
101328.67
101321.62
101303.34
101303.73
101303.59
101303.37
101308.61
101345.61
101352.86
101297.29
101292.89
101304.41
101306.15
101305.21
101298.25
101293.7
101296.63
101287.66
101291.5
101288.6
101292.43
101289.52
101298.49
101290.5
101278.65
101285.21
101278.6
101278.99
101282.74
101274.62
101283.04
101281.89
101282.55
101278.25
101268.02
101273.99
101277.91
101283.32
101281.47
101284.81
101292
101291.39
101300.14
101303.94
101301.55
101297.35
101288.77
101295.58
101297.36
101302.72
101303.33
101302.12
101300.12
101301.1
101310.09
101300.41
101313.22
101301.66
101302.77
101302.22
101321.05
101305.82
101300.6
101299.04
101302.74
101298.58
101299.62
101327.4
101323.23
101319.77
101293.12
101319.56
101296.13
101293.06
101298.73
101331.61
101352.53
101341.73
101288.96
101282.65
101298.26
101272.23
101295.66
101278.98
101294.5
101287.7
101301.59
101294.1
101301.82
101302.88
101299.62
101301.57
101303.53
101298.91
101300.2
101296.85
101295.52
101291.05
101292.21
101295.1
101290.48
101286.37
101295.06
101294.36
101291.14
101292.46
101282.53
101283.79
101287.26
101282.94
101282.13
101287.91
101289.22
101290.33
101283.08
101291.53
101285.91
101279.01
101283.24
101279.89
101279.96
101274.79
101279.61
101278.22
101282.22
101274.59
101277.29
101283.73
101288.86
101285.84
101279.03
101277.18
101278.21
101271.82
101278.14
101274.31
101265.52
101273.13
101280.65
101273.01
101266.35
101268.49
101268.95
101269.04
101272.96
101271.36
101261.26
101269.53
101258.37
101261.66
101253.11
101256.07
101266.21
101269.62
101278.29
101278.43
101277.91
101281.89
101272.97
101279.28
101273.33
101282.49
101269.1
101269.81
101254.74
101261.9
101267.21
101274.01
101270.76
101275.17
101282.72
101287.3
101290.28
101298.42
101292.21
101296.17
101289.18
101294.48
101294.67
101291.67
101285.09
101289.22
101282.14
101285.72
101284.99
101290.96
101281.34
101278.7
101275.95
101287.08
101288.96
101295.73
101301.69
101295.76
101290.28
101286.7
101287.2
101291.58
101286.06
101289.93
101293.02
101282.9
101281.67
101277.71
101278.08
101281.41
101280.61
101288.66
101291.78
101278.6
101276.03
101286.97
101272.35
101284.35
101273.58
101271.73
101257.32
101265.97
101271.26
101278.01
101272.66
101276.39
101269.55
101265.38
101260.67
101269.25
101276.08
101280.46
101278.17
101283.47
101281.41
101273.74
101266.23
101273.31
101265.15
101268.43
101262.18
101271.93
101290.12
101284.5
101275.45
101282.35
101294.68
101290.03
101302.49
101294.83
101302.77
101297.52
101296.34
101285.41
101286.55
101280.77
101290.58
101291.23
101290.14
101289.28
101279.12
101277.36
101279.17
101266.52
101266.95
101271.78
101272.72
101277.65
101285.53
101280.87
101277.03
101273.86
101276.96
101275.4
101271.95
101269.85
101273.38
101274.29
101283.37
101280.83
101270.71
101266.66
101278.62
101275.72
101263.13
101262.43
101265.93
101268.19
101280.81
101278.23
101272.72
101276.07
101264.99
101267.81
101270.67
101263.01
101267.01
101271.21
101268.83
101264.09
101254.6
101260.57
101263.62
101258.56
101253.02
101248.07
101259.34
101254.83
101259.14
101248.37
101257.29
101252.26
101262.94
101271.28
101283.65
101286.8
101293.62
101289.96
101298.33
101285.86
101285.28
101285.16
101276.98
101275.69
101283.12
101279.56
101270.09
101268.46
101280.89
101285.08
101291.83
101290.53
101300.26
101286.45
101284.36
101284.25
101274.86
101274.5
101283.79
101279.41
101268.14
101258.45
101258.86
101261.33
101270.47
101271.96
101279.9
101279.68
101292.49
101275.19
101275.57
101274.86
101262.69
101261.19
101250.97
101246.87
101259.15
101269.38
101278.37
101278.44
101293.96
101276.6
101273.83
101273.4
101264.45
101267.83
101267.07
101270.95
101284.7
101264.64
101279.39
101266.26
101266.03
101247.8
101258.56
101246.37
101250.57
101257.06
101262.56
101253.87
101260.99
101252.87
101262.72
101266.62
101278.65
101268.63
101261.59
101267.8
101270.04
101270.68
101262.36
101253.33
101244.58
101233.64
101244.01
101254.19
101256.56
101269.52
101269.85
101259.99
101249.84
101258.72
101262.12
101253.61
101244.45
101238.93
101250.87
101259.53
101249.4
101246.22
101255.91
101264.2
101270.96
101266.33
101267.29
101262.53
101261.62
101252.01
101258.17
101259.28
101265.35
101256.98
101266.83
101260.92
101250.12
101245.81
101250.58
101261.54
101266.93
101261.32
101247.91
101256.71
101255.91
101246.35
101235.49
101236.97
101248.87
101237.05
101247.97
101238.25
101249.67
101248.4
101251.19
101255.49
101248.86
101243.38
101230.01
101239.88
101245.22
101237.06
101247.46
101238.88
101252.18
101243.4
101250.25
101256.97
101262.98
101268.02
101286.66
101279.44
101264.79
101260.32
101263.28
101278.26
101261.76
101271.61
101284.99
101258.21
101257.3
101275.4
101249.32
101251.42
101251.93
101231.17
101240.29
101248.39
101233.96
101244.38
101236.24
101224.29
101208.94
101224.53
101219.02
101234.22
101219.79
101235.17
101241.14
101234.33
101226.63
101242.34
101238.68
101251.71
101256.62
101257.46
101252.44
101238.95
101245.94
101252.83
101241.46
101240.38
101226.09
101236.63
101223.12
101235.33
101238.55
101226.4
101222.15
101223.68
101208.62
101225.22
101211.28
101227.24
101214.87
101232.38
101231.09
101245.21
101222.06
101222.64
101201.51
101202.18
101213.53
101217.78
101226.62
101208.78
101223.48
101234.03
101226.79
101214.05
101195.63
101211.54
101220.96
101208
101188.24
101172.42
101196.77
101184.79
101208.62
101188.55
101213.72
101234.69
101249.82
101261.43
101276.48
101274.17
101270.26
101272.75
101259.31
101263.06
101264.81
101255
101252.66
101246.77
101231.6
101239.84
101242
101224.72
101238.47
101254.85
101253.51
101237.3
101222.44
101222.36
101241.66
101260.41
101277.84
101294.69
101290.21
101263.61
101262.04
101240.39
101233.75
101249.89
101229.81
101229.68
101246.8
101258.85
101268.98
101269.51
101274.84
101283.85
101285.62
101296.44
101303.01
101308.13
101315.19
101323.07
101327.11
101330.31
101329.45
101332.42
101330.4
101340.42
101332.42
101321.95
101333.31
101367.96
101364.74
101337.49
101342.54
101339.37
101324.93
101322.56
101323.21
101323.13
101322.85
101339.88
101309.88
101354.62
101351.63
101325.56
101338.64
101394.54
101447.62
101334.86
101369.37
101363.89
101342.8
101330.42
101327.54
101336.95
101330.4
101337.52
101325.23
101336.05
101397.44
101457.87
101331.61
101312.68
101335.38
101338.74
101363.17
101367.75
101333.9
101321.96
101325.89
101337.91
101328.98
101324.59
101344.06
101306.03
101495.69
101462.51
101332.54
101355.13
101329.91
101316.92
101320.26
101310.67
101311.02
101320.11
101313.94
101313.1
101317.38
101316.28
101307.35
101308.12
101303.54
101303.52
101308.26
101310.01
101305.77
101303.63
101306.75
101308.77
101315.5
101309.64
101304.13
101297.5
101303.94
101304.32
101301.54
101299.73
101289.42
101290.28
101291.33
101290.74
101297.59
101302.81
101301.92
101294.27
101295.01
101286.88
101281.19
101279.35
101277.57
101279.57
101282.89
101292.67
101291.42
101297.52
101301.68
101295.79
101289.11
101291.63
101300.16
101294.5
101295.1
101286.58
101287.55
101284.21
101273.58
101274.72
101270.88
101271.52
101269.97
101269.8
101271.16
101273.03
101271.69
101256.1
101256.7
101260.93
101260.42
101248.5
101249.24
101242.3
101241.34
101223.01
101223.67
101234.04
101233.57
101209.92
101211.06
101222.43
101209.84
101188.33
101203.54
101203.66
101173.5
101200.42
101179.51
101203.17
101225.65
101238.73
101229.44
101249.67
101293.57
101282.01
101251.45
101241.98
101240.4
101269.92
101239.34
101259.26
101228.97
101243.19
101256.66
101257.07
101264.85
101293.91
101265.32
101287.77
101241.86
101226.32
101232.77
101286.44
101338.02
101277.69
101311.39
101273.24
101288.64
101276.99
101287.55
101278.37
101287.27
101285.13
101274.75
101279.8
101283.66
101288.14
101290.85
101295.12
101290.04
101296.29
101292.19
101289.82
101282.76
101285.35
101282.22
101277.1
101270.41
101276.09
101272.55
101278.98
101286.06
101292.66
101295.23
101289.56
101282.23
101282.57
101279.9
101284.45
101288.15
101296.55
101302.23
101292.68
101287.43
101295.88
101290.36
101287.64
101279.17
101281.4
101289.81
101285.73
101284.67
101279.16
101273.54
101266.55
101262.52
101270.71
101276.76
101287.76
101288.73
101286.37
101297.35
101295.38
101301.01
101301.28
101301.63
101306.95
101314.08
101315.61
101314.86
101313.78
101316.22
101314.58
101314.6
101314.46
101319.21
101309.87
101315.61
101314.87
101307.88
101302.4
101306.85
101307.07
101316.1
101308.7
101302.04
101301.72
101305.55
101309.96
101319.11
101312.97
101312.34
101304.57
101307.8
101314.44
101307.58
101301.93
101294.65
101293.38
101293.22
101293.22
101284.14
101284.88
101277.75
101279.94
101290.09
101290.09
101277.34
101281.28
101271.9
101271.74
101279.99
101276.73
101274.15
101271.93
101269.4
101269.78
101273.62
101283.01
101279.19
101278.01
101265.61
101265.54
101268.39
101281.05
101278.97
101271.25
101268.38
101272.43
101281.13
101283.54
101287.97
101294.83
101303.15
101291.56
101286.46
101286.44
101290.05
101298.15
101287.3
101294.08
101295.83
101291.5
101293.95
101286.34
101278.35
101279.72
101283.35
101275.01
101277.52
101270.31
101267.42
101259.39
101267.91
101274.56
101272.5
101284.7
101279.26
101283.13
101276.87
101278.31
101274.31
101282.3
101277.72
101285.28
101278.79
101278.43
101282.05
101272.87
101263.88
101265.5
101255.49
101265.81
101264.34
101253.92
101250.72
101262.1
101269.57
101271.11
101263.74
101265.75
101275.22
101276.9
101275.04
101265.15
101261.86
101265.71
101273.53
101261.79
101251.53
101256.71
101261.79
101266.78
101258.85
101258.21
101261.03
101269.13
101271.77
101264.34
101259.59
101267.74
101264.47
101255.3
101252.12
101261.5
101256.75
101260.19
101264.28
101254.7
101249.3
101243.91
101255.93
101260.68
101250.35
101239.2
101244.18
101250.6
101256.57
101263.74
101271.88
101264.1
101255.03
101249.21
101258.84
101267.72
101277.65
101273.35
101274.37
101281.6
101266.69
101269.2
101264.08
101261.87
101263.54
101273.67
101286.8
101281.61
101269.08
101274.63
101274.12
101269.29
101268.95
101279.99
101261.77
101261.87
101255.27
101255.55
101254.28
101274.76
101296.53
101282.04
101265.61
101271.87
101272.96
101267.53
101269.98
101288.61
101259.54
101257.12
101247.9
101250.31
101248.36
101267.97
101302.19
101278.7
101263.73
101270.82
101276.69
101281.14
101285.43
101293.07
101302.27
101289.35
101287.58
101299.74
101290.3
101285.37
101275.39
101276.11
101286.24
101281.92
101278.75
101283.43
101284.36
101291.21
101300.65
101302.1
101321.01
101325.05
101307.95
101301.05
101300.23
101301.5
101321.56
101311.23
101348.43
101344.01
101344.75
101293.59
101283.27
101300.55
101300.94
101296.57
101327.25
101290.26
101319.41
101299
101313.12
101317.75
101315.11
101300.99
101300.27
101297.99
101298.34
101307.16
101324.77
101322.63
101314.66
101292.29
101290.38
101296.07
101296.29
101284.1
101286.78
101283.8
101292.42
101290.92
101296.21
101296.75
101298.01
101280.25
101282.69
101295.77
101295.53
101281.05
101277.23
101262.5
101262.93
101272.24
101271.64
101261.41
101268.87
101260.71
101261.71
101272.14
101269.92
101271.58
101259.5
101261.87
101258.13
101266.63
101273.33
101257.72
101254.46
101268.82
101261.2
101255.21
101243.49
101247.19
101251.92
101239.16
101245.53
101245.23
101252.25
101241.3
101249.47
101248.76
101252.03
101240.75
101246.3
101238.79
101231.49
101244.84
101241.12
101226.78
101237.03
101238.14
101227.06
101211.68
101225.29
101223.78
101227.95
101235.33
101245.68
101258.14
101249.01
101234.67
101225.9
101238.57
101252.44
101259.12
101255.12
101264.88
101253.58
101241.99
101237.62
101250.12
101262.03
101251.39
101243.86
101247.35
101229.19
101212.83
101234.62
101241.93
101234.09
101241.77
101257.37
101253.51
101251.19
101254.5
101278.99
101296.03
101354.51
101282.68
101334.67
101293.55
101288.8
101294.02
101337.83
101278.85
101378.91
101443.01
101306.97
101307.24
101379.46
101253.78
101287.92
101288.03
101395.96
101306.08
101308.79
101438.09
101316.69
101373.94
101259.98
101392.12
101320.12
101297.91
101458.6
101519.59
101674.38
101480.82
101443.42
101457.62
101204.48
101233.98
101522.92
101269.08
101391.67
101297.68
101345.31
101307.66
101321.95
101303.04
101302.99
101323.33
101312.53
101301.84
101302.51
101303.5
101302.62
101351.26
101328.02
101297.52
101293.42
101291.97
101267.2
101295.02
101277.14
101294.32
101286.67
101300.31
101290.61
101292.03
101301.73
101287.96
101284.49
101284.73
101279
101278.76
101294.72
101279.47
101273.94
101274.82
101259.81
101248.08
101259.17
101268.59
101279.52
101281.16
101285.29
101275.19
101268.88
101270.94
101280.03
101283.43
101290.25
101298.25
101302.52
101293.84
101285.59
101285.74
101286.1
101290.42
101294.84
101292.32
101280.38
101280.52
101275.68
101276.55
101275.72
101282.99
101276.47
101290.13
101286.57
101295.97
101302.23
101313.62
101318.29
101316.7
101303.31
101300.99
101300.24
101300.5
101309.68
101326.4
101319.42
101320.62
101293.62
101293.8
101298.75
101299.44
101295.92
101317.92
101300.46
101313.81
101302.86
101312.09
101306.77
101311.97
101310.75
101315.41
101310.42
101305.35
101303.52
101306.83
101308.44
101308.5
101312.84
101313.86
101319.75
101317.12
101312.69
101315.63
101308.77
101310.84
101307.44
101305.13
101304.48
101309.6
101317.21
101309.15
101307.69
101303.91
101302.07
101301.19
101309
101321.18
101319.46
101315.12
101320.37
101327.26
101319.13
101303.69
101300.68
101298.71
101300.75
101313.53
101302.61
101309.2
101301.3
101307.64
101317.03
101311.61
101303.57
101302.07
101288.76
101292.97
101299.41
101301.09
101305.28
101298.97
101303.12
101300.45
101304.02
101302.43
101306.31
101299.27
101296.64
101294.62
101291.2
101295.71
101296.91
101300.05
101300.25
101298.89
101292.2
101294.86
101290.53
101279.61
101278.18
101273.57
101272.52
101267.96
101267.26
101263.65
101263.11
101261.77
101261.45
101262.66
101262.78
101271.61
101274.27
101259.34
101258.69
101256.18
101256.59
101254.16
101270.98
101270.01
101253.5
101252.99
101253.54
101238.26
101242.84
101246.49
101247.32
101243.12
101226
101231.57
101230.93
101226.82
101218.69
101220.17
101239.33
101238.64
101237.62
101219.54
101221.6
101192.28
101187.62
101202.16
101211.22
101209.08
101203.18
101181.87
101182.71
101185.59
101177.76
101157.22
101143.94
101182.99
101192.51
101189.86
101153.72
101156.66
101184.03
101209.77
101210.59
101233.03
101249.42
101251.24
101266.66
101265.35
101296.2
101273.08
101258.01
101260.21
101236.35
101214.69
101232.02
101231.71
101248.01
101259.51
101269.83
101259.92
101262.55
101271.29
101276.32
101277.59
101287.07
101284.01
101272.05
101263.98
101262.55
101252.95
101253.9
101263.88
101272.7
101274.18
101278.88
101284.02
101290.75
101295.88
101301.65
101291.86
101287.62
101287.15
101282.34
101283.46
101293.15
101284.94
101278.81
101278.54
101266.47
101259.04
101267.41
101274.6
101282.08
101287.39
101289.24
101281.05
101276.68
101279.34
101285.59
101286.31
101292.67
101296.51
101302.63
101298.47
101290.57
101289.56
101289.63
101294.58
101294.68
101291.89
101285.57
101287.64
101283.16
101281.95
101281.38
101288.78
101291.68
101287.34
101290.24
101285.22
101294.92
101290.14
101269.33
101268.27
101262.01
101264.24
101264.95
101278.75
101294.07
101283.09
101299.98
101245.6
101248.21
101235.95
101239.55
101260.44
101231.86
101193.83
101221.48
101235.86
101251.12
101255.42
101240.06
101240.64
101256.37
101244.09
101243.46
101226.88
101213.24
101186.32
101186.54
101177.35
101179.26
101201.61
101200.45
101175.4
101210.62
101209.43
101228.58
101217.42
101213.7
101183.64
101188.93
101140.33
101178.76
101144.22
101175.39
101152.35
101148.83
101101.32
101159.53
101146.31
101175.13
101191.49
101209.21
101188.58
101206.57
101187.33
101206.89
101212.16
101221.65
101209.75
101226.01
101216.54
101197.44
101189.56
101210.83
101194.89
101214.65
101232.59
101237.04
101220.5
101229.77
101223.23
101211.89
101230.65
101224.79
101223.38
101232.37
101214.31
101200.87
101203.61
101181.79
101192.62
101202.12
101214.07
101192.69
101176.89
101164.32
101183.23
101207.03
101224.63
101206.8
101229.88
101219.45
101238.41
101247.51
101260.06
101244.77
101228.88
101227.73
101243.91
101259.27
101246.33
101238.29
101212.82
101212.12
101185.89
101185.45
101218.32
101204.68
101231.77
101242.29
101257.46
101239.45
101219.03
101219.48
101240.04
101250.22
101236.99
101238.13
101242.63
101245.24
101257.5
101251.84
101237.47
101233.9
101248.89
101255.17
101252.7
101245.61
101256.96
101273.28
101270.08
101269.05
101269.92
101276.91
101288
101287.86
101288.07
101274.72
101262.33
101269.24
101251.24
101252.28
101250.87
101259.11
101266.28
101249.51
101235.31
101237.57
101241.83
101246.34
101230.22
101238.11
101240.34
101247.46
101254.16
101260.12
101265.72
101267.02
101278.61
101293.95
101299.81
101304.78
101308.8
101311.41
101313
101314.12
101313.11
101311.49
101311.9
101309.46
101304.46
101308.26
101305.48
101299.56
101295.14
101301.61
101306.44
101298.62
101300.01
101298.73
101291.83
101290.41
101292.5
101297.7
101293.91
101298.21
101299.18
101305.85
101304.07
101303.64
101297.71
101295.56
101304.92
101306.95
101310.97
101307.64
101308.6
101308.84
101311.42
101311.77
101308.89
101304.66
101307.9
101311.01
101307.79
101307.15
101305.37
101308.68
101310.35
101312.92
101313.25
101309.73
101311.69
101310.74
101313.56
101311.71
101311
101310.32
101311.25
101311.07
101313.46
101310.65
101307.64
101304.01
101301.93
101301.98
101303.05
101293.79
101302.08
101301.07
101305.71
101308.5
101307.24
101302.59
101295.59
101300.44
101298.92
101293.66
101291.45
101292.55
101299.37
101295.11
101299.5
101299.08
101299.32
101304.55
101304.75
101304.23
101306.44
101300.08
101295.45
101293.93
101287.34
101280.27
101288.78
101288.59
101279.26
101278.23
101278.24
101287.39
101281.61
101283.94
101284.34
101283.19
101291.43
101293.71
101288.4
101293.33
101284.05
101278.04
101290.85
101278.88
101272.84
101279.86
101276.07
101272.27
101266.49
101267.5
101280.12
101271.14
101275.32
101279.19
101284.43
101285.56
101289.14
101276.45
101268.43
101281.54
101290.59
101293.51
101286.79
101280
101288.48
101286.63
101277.49
101277.27
101277.89
101286.99
101280.46
101282.54
101282.95
101282.55
101290.84
101292.36
101286.88
101291.92
101282.57
101279.1
101290.71
101295.53
101299.19
101290.34
101286.52
101282.5
101286.69
101293.5
101287.34
101293.99
101296.11
101285.35
101289.24
101286.75
101294.64
101293.12
101303.82
101293.66
101298.81
101298.87
101294.73
101297.74
101294.7
101289.85
101290.26
101284.29
101285.05
101277.31
101279.63
101272.57
101271.36
101274.92
101270.12
101279.62
101275.57
101288.43
101280.18
101282.87
101277.77
101273.97
101268.64
101267.8
101270.41
101272.47
101260.8
101270.52
101264.42
101259.07
101250.65
101253.89
101269.76
101257.81
101264.6
101269.95
101277.34
101281.69
101286.94
101288.52
101291.51
101291.24
101287.82
101295.43
101299.45
101296.3
101299.82
101291.68
101285.45
101293.6
101304.13
101302.51
101294.94
101300.29
101305.07
101299.37
101299.9
101300.2
101305.95
101303.95
101303.32
101300.33
101294.93
101292.63
101294.12
101293.53
101298.39
101287.9
101280.2
101289.78
101300.06
101293.26
101299.75
101306.84
101304.35
101298.88
101298.57
101297.98
101299.25
101295.62
101303.73
101303.25
101306.04
101307.99
101311.56
101312.16
101309.17
101309.35
101305.4
101309.16
101308.31
101309.45
101306.54
101308.19
101308.58
101311.4
101311.14
101307.73
101305.79
101309.42
101307.11
101304.44
101301.5
101306.34
101309.26
101309.8
101310.41
101307.47
101306.97
101306.95
101303.39
101308.85
101312.78
101309.74
101312.8
101313.52
101307.92
101312.16
101311.65
101312.2
101313.86
101314.78
101310.94
101316.31
101316.13
101312.6
101306.35
101310.24
101312.21
101308.59
101309.66
101304.67
101307.62
101308.42
101305.08
101309.16
101312.58
101308.77
101311.83
101306.17
101303.77
101300.33
101299.55
101305.09
101302.52
101303.62
101297.51
101298.31
101296.93
101292.48
101292.04
101297.68
101286.67
101285.28
101286.81
101284.37
101287.73
101284.06
101287.74
101288.49
101276.88
101282.27
101283.77
101275.72
101273.64
101276.87
101273.47
101270.1
101271.38
101269.56
101279.24
101269.58
101266.09
101262.24
101264.64
101277
101266.04
101269.95
101273.1
101276.47
101279.33
101273.96
101270.91
101266.97
101262.55
101266.71
101259.16
101264.91
101269.51
101276.5
101279.8
101277.03
101281.62
101278.65
101284.38
101273.66
101270.82
101284.47
101276.07
101270.23
101273.55
101266.54
101270.64
101264.91
101272.5
101268.1
101259.67
101252.96
101262.04
101257.59
101252.47
101257.35
101246.4
101254.06
101262.49
101257.98
101266.46
101268.31
101284.24
101291.73
101296.58
101303.86
101292.04
101293.7
101301.66
101300.9
101300.14
101300.3
101300.11
101290.85
101290.42
101282.88
101285.1
101278.72
101275.97
101281.93
101290.7
101292.18
101277.96
101281.16
101281.65
101285.44
101295.9
101293.44
101293.05
101291.9
101286.06
101282.69
101289.84
101290.84
101290.26
101291.92
101297.3
101298.52
101306.21
101299.73
101301.87
101302.94
101303.15
101299.88
101292.18
101289.42
101279.22
101279.03
101282.92
101266.98
101270.01
101254.14
101260.64
101258.36
101263.43
101257.11
101250.23
101241.42
101249.03
101257.83
101250.28
101241.8
101230.02
101240.16
101249.63
101258.58
101262.32
101267.04
101282.91
101279.34
101273.93
101270.09
101272.96
101269.14
101272.73
101275.85
101282.5
101290.13
101290.07
101296.02
101283.11
101280.82
101279.38
101279.51
101283.47
101296.16
101289.75
101291.67
101284.1
101282.09
101291.33
101299.09
101298.24
101304.43
101300.19
101307.65
101299.79
101296.7
101299.28
101307.44
101305.22
101297.88
101296.74
101296.4
101296.48
101295.8
101297.19
101293.79
101299.76
101301.85
101301.77
101303.08
101295.68
101296.68
101295.67
101301.8
101301.39
101302.87
101303.09
101296.02
101288.61
101280.17
101282.7
101279.98
101272.11
101263.76
101257.61
101251.71
101241.88
101249.61
101240.44
101250.94
101244.48
101231.89
101219.9
101231.62
101241.71
101231.11
101218.07
101208.7
101190.27
101166.96
101195.41
101178.42
101141.89
101148.89
101166.72
101134.02
101165.11
101175.61
101193.76
101205.94
101221.91
101210.12
101232.73
101224.34
101198.42
101211.48
101194.87
101225.43
101247.61
101290.02
101276.11
101259.03
101277
101242.39
101244.68
101244.79
101244.83
101251.3
101281.32
101294.46
101236.69
101243.46
101246
101248.67
101278.37
101253.08
101284.32
101245.01
101257.59
101243.75
101206.38
101210.92
101217.54
101222
101190.63
101185.44
101174.07
101176.08
101212.89
101202.99
101213.84
101177.58
101172.53
101189.44
101221.9
101211.15
101207.25
101154.21
101152.93
101154.53
101157.84
101215.97
101198.34
101185.33
101187.57
101199.19
101232.29
101234.21
101233.53
101231.98
101292.21
101229.52
101281.45
101222.04
101222.69
101215.97
101221.75
101195.48
101255.19
101392.33
101281.41
101338.44
101235.36
101245.78
101279.89
101256.35
101340.88
101269.72
101335.24
101337.81
101290.28
101313.69
101239.28
101233.7
101235.5
101241.28
101286.05
101234.07
101288.64
101251.52
101236.97
101254.42
101278.47
101279.26
101389.36
101391.59
101279.16
101338.44
101228.95
101240.11
101253.63
101255.53
101265.64
101271.95
101257.81
101242.73
101231.8
101200.7
101199.24
101158.01
101159.4
101204.74
101242.45
101247.41
101296.39
101273.54
101272.61
101263.25
101270.34
101276.07
101280.33
101284.72
101287.57
101287.61
101300.61
101291.16
101284.22
101274.62
101274.88
101268.25
101279.72
101279.77
101284.26
101282.59
101284.49
101296.07
101295.62
101301.47
101300.09
101302.46
101299.29
101297.81
101288.12
101273.76
101274.89
101288.56
101288.49
101277.73
101280.07
101288.72
101295.62
101285.99
101288.1
101298.32
101302.3
101300.8
101303.1
101309.24
101301.03
101292.44
101291.82
101292.19
101289.48
101277.79
101281.47
101283.14
101286.77
101290.92
101297.94
101302.36
101299.76
101304.8
101309.85
101305.59
101309.21
101315.9
101310.85
101310.36
101304.44
101302.74
101301.42
101306.81
101314.84
101307.24
101316.07
101310.2
101319.29
101299.18
101298.99
101301.17
101305.65
101307.17
101306.08
101297.47
101300.48
101296.81
101311.23
101325.17
101294.71
101294.03
101296.31
101310.45
101317.63
101306.07
101319.31
101318.62
101313.83
101312.67
101319.06
101311.77
101306.88
101306.86
101305.13
101297.43
101296.55
101297.7
101293.53
101285.68
101290.3
101287.53
101292.56
101295.59
101295.78
101294.06
101301
101293.95
101300.06
101294.62
101300.93
101298
101289.57
101284.27
101285.6
101288.4
101283.79
101292.33
101285.31
101281.81
101278.58
101268.57
101268.04
101260.18
101260.67
101271.04
101261.52
101249.03
101248.38
101260.76
101270.49
101279.51
101294.52
101294.96
101280.03
101280.12
101274.82
101275.05
101279.43
101292.29
101276.13
101280.65
101293.02
101278.96
101273.76
101261.28
101260.73
101270.2
101274.53
101275.18
101269.23
101261.53
101260.8
101249.82
101250.55
101239.67
101238
101235.51
101235.65
101250.84
101251.69
101244.36
101255.82
101255.03
101270.97
101270.94
101269.87
101259.96
101260.02
101255.11
101250.14
101249.93
101259.85
101266.96
101248.45
101248.93
101266.75
101259.72
101259.69
101270.55
101268.95
101260.85