/*--------------------------------*- C++ -*----------------------------------*\
  =========                 |
  \\      /  F ield         | OpenFOAM: The Open Source CFD Toolbox
   \\    /   O peration     | Website:  https://openfoam.org
    \\  /    A nd           | Version:  7
     \\/     M anipulation  |
\*---------------------------------------------------------------------------*/
FoamFile
{
    version     2.0;
    format      ascii;
    class       volScalarField;
    location    "430";
    object      k;
}
// * * * * * * * * * * * * * * * * * * * * * * * * * * * * * * * * * * * * * //

dimensions      [0 2 -2 0 0 0 0];

internalField   nonuniform List<scalar> 
24866
(
3468.0716
3534.7255
3544.0125
4134.4706
4720.524
4709.4527
4668.8072
4720.9908
4726.3621
4663.2359
4689.341
4689.6802
4664.0806
4726.9139
4720.4741
4670.7035
4704.973
4722.0256
4706.6942
4690.9979
4624.2181
4736.622
4869.5676
4808.5672
4680.6341
4596.4656
4694.8287
4817.7237
4804.8803
4641.1204
4711.5849
4709.6308
4709.6239
4711.5907
4641.3287
4804.9688
4818.2783
4695.362
4595.9064
4679.9611
4808.3829
4869.5517
4736.6734
4624.23
4691.5315
4706.4067
4722.7643
4704.3668
4671.1589
4719.2837
4727.8535
4663.819
4689.3483
4689.6093
4664.4657
4725.9339
4721.481
4667.8367
4710.6898
4719.4646
4752.6095
4724.5008
4753.0993
4755.0713
4682.0332
4715.4451
4776.2415
4764.5617
4682.553
4685.1263
4685.3531
4682.9456
4764.7573
4776.2907
4715.6651
4681.198
4751.0707
4750.6709
4715.2507
4735.338
4728.979
4629.0706
4642.9317
4701.2064
4720.518
4783.7916
4715.4508
4654.9224
4727.1819
4792.218
4720.744
4663.0079
4703.5674
4707.454
4700.5278
4683.5391
4671.6705
4691.7127
4686.4663
4696.1157
4692.3833
4695.6369
4691.4889
4697.8623
4702.1257
4702.1822
4700.0026
4704.9691
4698.6879
4691.2084
4642.1998
4744.1189
4740.8901
4714.0631
4679.3661
4693.9758
4695.7227
4698.2189
4701.9709
4704.2193
4703.7522
4700.451
4703.6657
4698.5236
4692.9095
4689.9201
4676.2491
4682.5732
4685.4607
4692.5693
4699.8322
4705.2312
4708.1929
4706.7163
4707.2819
4705.4069
4701.9911
4700.0326
4695.7361
4698.7155
4679.3956
4642.2406
4744.1121
4740.8761
4537.8759
4539.0649
4169.738
4112.9493
4124.4618
4124.4619
4112.9424
4052.9214
4066.3551
4590.7973
4589.6348
4084.2934
4101.8255
4012.0461
4082.5028
4063.0193
3947.5412
3918.9623
4025.9223
4095.7859
4121.6582
4133.4637
4110.7663
4071.3109
4118.4849
4120.6354
4047.9965
4047.7702
4047.3146
4046.9549
4119.8231
4118.5369
4070.4435
4113.8099
4179.8772
4190.8575
4548.8809
4550.8813
4166.1736
4015.2354
4177.9443
4123.9044
4074.2234
4688.6134
4695.4124
4688.625
4696.1381
4689.4322
4675.7271
4682.3904
4685.2391
4692.2843
4699.4325
4704.6922
4707.5579
4708.2216
4708.8532
4707.3087
4704.264
4702.2345
4703.6157
4705.0003
4720.7917
4691.2309
4098.8535
4124.8145
4452.3975
4590.9325
4066.1361
4052.9417
3518.2731
3530.8437
3536.3008
3536.2978
3530.827
3518.2336
3493.7386
3503.8445
3512.1926
3489.5317
3505.7535
3492.8271
3448.8667
3432.1632
3498.1959
3522.121
3535.9747
3542.1279
3533.1014
3534.1089
3532.6759
3535.4451
3517.4518
3513.4024
3513.3153
3516.811
3534.596
3532.2238
3533.4407
3078.4711
3076.3699
3077.8635
3077.7891
3076.6066
3535.0929
4114.5066
4070.2285
4119.001
4119.5316
4048.28
4047.68
4047.3626
4047.6224
4120.5075
4117.6884
4071.8466
4110.4544
4133.9952
4121.6109
4096.1864
4026.0486
3919.0985
4440.055
4637.0918
4568.4657
4063.332
4082.8208
4012.2051
4101.5898
4083.8193
4590.0403
4466.3001
4161.619
4120.7696
3992.2156
4156.5013
4190.0296
4199.5847
4577.7959
4792.4052
4727.2991
4654.8918
4663.0402
4720.4956
4707.5183
4702.2033
4703.8242
4706.7697
4703.7403
4705.2796
4704.7134
4702.0686
4697.4915
4692.2845
4692.3446
4694.5192
4697.5095
4699.4735
4699.8944
4698.6107
4695.7478
4700.5457
4697.9636
4700.6202
4701.2252
4643.0318
4683.6783
4691.6169
4691.8656
4692.5064
4693.0002
4692.6378
4692.3482
4692.321
4692.3538
4696.1416
4689.4956
4685.3326
4685.535
4690.0025
4696.2477
4686.6463
4715.412
4671.8541
4629.246
4729.331
4735.3114
4531.8343
4176.6935
4155.7616
4525.8575
4137.9168
4159.4152
3994.0054
3453.582
3522.4193
3498.3462
3432.2663
3449.029
3948.0411
3957.0313
4094.1064
4122.3339
4456.5218
4438.2341
4123.1091
3973.8328
4138.0449
3423.2534
3492.9242
3505.7417
3489.4931
3512.2914
3503.926
3493.7475
3045.9133
3065.4757
3071.4356
3072.1794
3072.1774
3071.4241
3065.4533
3045.9129
3047.9515
3054.1482
3046.6603
3051.5877
3041.4057
3020.7007
3015.5109
3053.6899
3066.3162
3072.5521
3076.3982
3075.6999
3079.0812
3075.2105
3076.9183
3071.7894
3070.6198
3070.2665
3071.0117
3076.1879
3074.6672
2706.1144
2709.6709
2707.3641
2706.8897
2706.8777
2707.5318
2709.8231
3078.5792
3533.4133
3532.6264
3534.8729
3517.5497
3513.3853
3513.4412
3517.3679
3535.2275
3532.1568
3534.2808
3532.9939
3542.4464
3536.0667
3072.6516
3066.5208
3053.8245
3015.6119
3020.8348
3041.4971
3051.6141
3046.6563
3054.1855
3047.9663
2685.1288
2684.9998
2698.9278
2702.4257
2702.4762
2702.4758
2702.4175
2698.9129
2684.9953
2685.1166
2689.2475
2687.2434
2688.3785
2680.8076
2669.6178
2668.2968
2691.3224
2699.4777
2703.1929
2705.8156
2707.1417
2710.2142
2706.6552
2707.7125
2706.6859
2706.3203
2706.0825
2706.1112
2707.0942
2406.9758
2406.3935
2409.1741
2407.1479
2406.1498
2406.1631
2407.2755
2409.3307
2406.6521
2407.2767
2707.4375
3076.5275
3071.7916
3070.6265
3070.4021
3071.4305
3076.6628
3074.8363
3079.0876
3075.6396
3076.5672
2705.8979
2703.2705
2699.6152
2691.43
2668.3834
2669.7184
2680.8792
2688.4056
2687.2488
2689.2728
2393.0307
2390.0877
2390.7522
2400.4878
2402.625
2402.5881
2402.5874
2402.6188
2400.477
2390.7462
2390.0775
2393.0124
2393.2162
2392.795
2386.989
2380.4892
2380.8529
2395.3114
2400.8198
2403.3993
2405.313
2407.1032
2409.6399
2406.8816
2407.4808
2407.9221
2407.9246
2407.7482
2407.4841
2162.3357
2161.3396
2161.0345
2163.106
2161.4122
2160.3845
2160.4056
2161.5131
2163.25
2161.25
2161.592
2162.6314
2407.8828
2706.6579
2706.3436
2706.2083
2706.4227
2707.4564
2706.3554
2710.1412
2707.0875
2407.0488
2405.3477
2403.4531
2400.9124
2395.3947
2380.9242
2380.5658
2387.0457
2392.8207
2393.2259
2151.323
2150.3571
2148.1982
2149.2035
2156.0796
2157.4175
2157.4214
2157.4202
2157.4125
2156.0711
2149.1972
2148.1896
2150.3434
2151.3119
2150.2703
2145.7586
2141.7867
2142.895
2152.3913
2156.2102
2158.1778
2159.6663
2161.4092
2163.4885
2161.4547
2161.7507
2162.6746
2162.8967
2162.7633
1959.8928
1959.4073
1958.3526
1958.2152
1959.7292
1958.3668
1957.4781
1957.5
1958.4483
1959.855
1958.3931
1958.5601
1959.6305
1960.0077
2162.9131
2407.9484
2407.8536
2407.7204
2407.2591
2406.6416
2409.5398
2163.3867
2161.357
2159.6767
2158.2139
2156.2742
2152.4557
2142.9532
2141.846
2145.804
2150.2938
1949.4104
1950.6263
1949.536
1947.9569
1949.057
1953.9942
1954.8848
1954.9542
1954.9529
1954.8805
1953.9873
1949.051
1947.9494
1949.5251
1950.615
1949.3893
1945.8679
1943.3505
1944.726
1951.241
1953.99
1955.5937
1956.8108
1958.3448
1960.0295
1958.5659
1958.6873
1959.6737
1959.9956
1789.857
1789.7751
1789.3028
1788.3639
1788.3142
1789.4072
1788.3516
1787.641
1787.661
1788.4184
1789.5145
1788.4607
1788.5333
1789.4751
1789.8665
1789.8359
1959.9627
2162.8475
2162.5197
2161.5669
2161.2642
1958.4152
1959.9372
1958.2973
1956.8099
1955.6181
1954.0357
1951.2914
1944.7736
1943.3974
1945.9048
1778.1733
1780.9127
1782.1142
1781.1554
1780.0216
1781.081
1784.6812
1785.3313
1785.4572
1785.456
1785.3276
1784.6753
1781.0754
1780.0151
1781.1463
1782.1031
1780.8939
1778.1429
1776.5104
1777.9039
1782.5419
1784.6095
1785.97
1786.9962
1788.2905
1789.6333
1788.6003
1788.6367
1789.5166
1644.895
1645.2122
1645.1467
1644.7229
1643.9486
1643.9351
1644.716
1643.921
1643.3767
1643.3942
1643.9764
1644.8067
1644.0559
1644.0866
1644.8573
1645.2198
1645.1991
1644.8233
1789.424
1959.5546
1958.5384
1788.5173
1788.4811
1789.5538
1788.249
1786.9905
1785.9869
1784.6435
1782.5823
1777.9432
1776.5484
1634.4217
1635.4875
1637.6279
1638.729
1637.9759
1637.1799
1638.1313
1640.7906
1641.307
1641.4707
1641.4695
1641.3038
1640.7856
1638.1262
1637.1742
1637.9681
1638.7186
1637.6112
1635.462
1634.3904
1635.68
1639.0796
1640.6951
1641.8707
1642.749
1643.8208
1644.8792
1644.1645
1644.1705
1519.8081
1520.3828
1520.6595
1520.6067
1520.2434
1519.6277
1519.6219
1520.175
1519.5852
1519.1795
1519.1945
1519.6316
1520.2514
1519.7218
1519.7402
1520.3495
1520.6656
1520.6518
1520.3272
1519.7325
1644.0754
1644.07
1644.8124
1643.7852
1642.7418
1641.8829
1640.7214
1639.1125
1635.7129
1512.9759
1511.8384
1512.5417
1514.2147
1515.1858
1514.6353
1514.0886
1514.907
1516.8936
1517.3248
1517.5079
1517.5068
1517.3219
1516.8891
1514.9024
1514.0835
1514.6285
1515.1762
1514.1998
1512.5199
1511.8122
1512.9482
1515.498
1516.7945
1517.8164
1518.5728
1519.4535
1520.2871
1519.8035
1411.5336
1411.5493
1411.9993
1412.2322
1412.1894
1411.8858
1411.4026
1411.3914
1411.781
1411.3441
1411.0475
1411.0603
1411.3831
1411.8454
1411.4744
1411.4947
1411.9705
1412.2372
1412.2282
1411.9562
1411.4891
1411.4734
1519.7282
1520.2316
1519.4233
1518.5654
1517.8255
1516.8154
1515.5251
1407.8903
1405.9419
1404.9685
1405.4343
1406.7439
1407.5826
1407.2038
1406.8363
1407.5215
1409.0217
1409.388
1409.5764
1409.5755
1409.3855
1409.0178
1407.5175
1406.8318
1407.1977
1407.5738
1406.7305
1405.4157
1404.9462
1405.9184
1407.8677
1408.9251
1409.8141
1410.4672
1411.1898
1411.8528
1316.6141
1316.41
1316.4398
1316.793
1316.9855
1316.9506
1316.7003
1316.3206
1316.3
1316.5739
1316.2465
1316.0332
1316.0441
1316.2796
1316.6284
1316.3693
1316.3963
1316.7685
1316.9897
1316.984
1316.7596
1316.3918
1316.3615
1316.576
1411.8068
1411.1642
1410.4602
1409.8209
1408.9419
1314.1593
1313.2946
1311.7802
1310.9609
1311.2709
1312.2983
1313.0146
1312.771
1312.5295
1313.0942
1314.2401
1314.5505
1314.7345
1314.7337
1314.5482
1314.2367
1313.0905
1312.5254
1312.7656
1313.0065
1312.2864
1311.2548
1310.9419
1311.7602
1313.2757
1314.1456
1314.9183
1315.4833
1316.0777
1231.884
1232.3275
1232.2023
1232.2447
1232.5257
1232.6834
1232.6548
1232.4496
1232.1481
1232.1185
1232.3118
1232.0612
1231.9101
1231.9194
1232.0894
1232.3581
1232.1767
1232.2107
1232.5051
1232.6871
1232.6836
1232.4998
1232.2064
1232.163
1232.2959
1231.8654
1316.0559
1315.4768
1314.9235
1230.907
1230.2432
1229.529
1228.3334
1227.6499
1227.8576
1228.6663
1229.2743
1229.1326
1228.9783
1229.4399
1230.3262
1230.5863
1230.7601
1230.7593
1230.5843
1230.3232
1229.4368
1228.9748
1229.1279
1229.2671
1228.6558
1227.8437
1227.6338
1228.3164
1229.5131
1230.2321
1230.9032
1231.3927
1156.4647
1156.8734
1157.2483
1157.1762
1157.2279
1157.4557
1157.5848
1157.5613
1157.3932
1157.1498
1157.1136
1157.2514
1157.0542
1156.9489
1156.9567
1157.0783
1157.2909
1157.1628
1157.202
1157.4388
1157.5882
1157.5862
1157.4356
1157.1973
1157.1442
1157.2219
1156.8573
1156.459
1231.3867
1232.4351
1233.4909
1231.6014
1232.0731
1233.0671
1229.5175
1230.3065
1231.3616
1231.8982
1231.4026
1230.6514
1155.9526
1154.481
1154.8576
1155.5522
1155.7671
1155.9276
1155.9268
1155.7655
1155.5499
1154.8553
1154.4784
1154.5721
1154.6372
1154.1194
1153.4776
1153.3353
1153.9027
1154.8615
1155.4571
1156.0399
1088.9523
1089.3215
1089.6641
1089.9876
1089.9506
1090.0083
1090.1969
1090.3028
1090.2831
1090.1449
1089.9448
1089.9046
1090.0046
1089.8444
1089.7723
1089.7794
1089.8655
1090.0388
1089.9466
1089.9886
1090.1828
1090.3057
1090.3048
1090.1812
1089.9835
1089.9242
1089.9653
1089.6501
1089.316
1088.9537
1156.0425
1155.466
1154.8746
1153.9168
1153.3487
1153.4891
1154.1281
1154.643
1154.5756
1087.7367
1087.6825
1087.9905
1088.5426
1088.7175
1088.8632
1088.8629
1088.7168
1088.5416
1087.99
1087.6822
1087.7357
1087.7485
1087.3099
1086.8003
1086.7024
1087.1738
1087.9523
1088.4462
1028.0833
1028.5226
1028.8439
1029.1331
1029.4176
1029.403
1029.4634
1029.6232
1029.7106
1029.694
1029.5795
1029.4114
1029.3699
1029.4446
1029.31
1029.2619
1029.2681
1029.3286
1029.4744
1029.4062
1029.4488
1029.6114
1029.7132
1029.713
1029.6107
1029.443
1029.3807
1029.3982
1029.1203
1028.838
1028.522
1028.0867
1088.453
1087.9624
1087.1845
1086.7123
1086.8084
1087.3154
1087.7514
1027.4865
1027.5079
1027.4806
1027.7342
1028.1798
1028.3199
1028.451
1028.4514
1028.3211
1028.1821
1027.7384
1027.486
1027.5132
1027.4903
1027.1184
1026.7115
1026.6422
1027.0343
1027.6741
973.10792
973.44451
973.82542
974.105
974.35042
974.60525
974.60388
974.66403
974.80302
974.87622
974.86191
974.76564
974.62082
974.58021
974.63857
974.52099
974.49022
974.49582
974.53773
974.66512
974.61219
974.65329
974.793
974.87843
974.87865
974.79273
974.64665
974.58441
974.58765
974.33768
974.09725
973.82108
973.44196
973.10508
1027.6798
1027.0395
1026.6457
1026.7127
1027.1169
972.6126
972.92645
972.97118
972.96112
973.17265
973.53872
973.6484
973.76636
973.76837
973.65445
973.54896
973.18809
972.9806
972.99214
972.94674
972.63046
972.30271
972.25053
972.577
923.03663
923.47946
923.75001
924.07854
924.32064
924.52908
924.76257
924.76728
924.82433
924.94964
925.01274
925.00009
924.91677
924.78729
924.74997
924.7988
924.69029
924.67209
924.67727
924.70573
924.82303
924.77884
924.81625
924.94083
925.01455
925.015
924.94071
924.80887
924.74948
924.74547
924.5148
924.30864
924.06643
923.73525
923.45913
923.00619
972.5708
972.24006
972.28843
922.76272
923.02475
923.29166
923.34973
923.34876
923.52928
923.83702
923.91932
924.02707
924.03272
923.93651
923.8654
923.57071
923.40099
923.40677
923.34965
923.07973
922.81149
922.76591
877.53808
877.75763
878.12451
878.32767
878.60629
878.81271
878.98806
879.20935
879.21407
879.26511
879.38472
879.44234
879.43083
879.35493
879.23216
879.20043
879.2452
879.13632
879.12739
879.13231
879.15099
879.26791
879.22723
879.25875
879.37668
879.44375
879.44436
879.37662
879.25084
879.19707
879.19138
878.96989
878.79208
878.57876
878.28813
878.06834
877.67679
877.43259
922.72489
923.76479
924.214
924.68481
924.91249
924.72435
924.31338
878.89461
877.97184
878.13157
878.39861
878.45414
878.55656
878.56986
878.49529
878.46586
878.22853
878.09442
878.10629
878.04776
877.81624
877.58947
836.08501
836.01018
836.175
836.46814
836.59139
836.81694
836.986
837.12906
837.34981
837.34907
837.3914
837.51579
837.5738
837.56312
837.48819
837.36112
837.33706
837.38219
837.25992
837.25768
837.26245
837.2742
837.40397
837.36249
837.38616
837.50834
837.57492
837.57565
837.50836
837.37803
837.33238
837.32953
837.10355
836.94925
836.76039
836.50411
836.34235
835.99571
835.77762
835.81899
877.46759
877.68218
877.90919
877.97194
836.25018
836.24063
836.38895
836.63071
836.65644
836.76083
836.78902
836.74499
836.7746
836.5953
836.50232
836.53717
836.48898
836.28897
798.0448
797.84259
797.71886
797.81327
798.02189
798.0383
798.19909
798.32444
798.43281
798.66811
798.65719
798.68921
798.8326
798.89791
798.88749
798.80623
798.66089
798.64575
798.69457
798.54121
798.54315
798.54781
798.55521
798.71563
798.67006
798.68484
798.8255
798.89912
798.89999
798.82572
798.67681
798.64071
798.64407
798.39531
798.26022
798.09205
797.86564
797.77052
797.45571
797.25487
797.31457
797.47173
835.99895
836.19137
797.63335
797.67882
797.64613
797.79063
798.02041
798.0089
798.12509
798.17972
798.18306
798.30264
798.19458
798.15998
798.24233
798.21923
762.90064
762.74674
762.52307
762.31709
762.3086
762.40471
762.2719
762.34503
762.41531
762.48419
762.75146
762.72771
762.75036
762.92929
763.01014
763.0002
762.90475
762.72496
762.71764
762.77164
762.56666
762.56959
762.57406
762.58017
762.79168
762.74046
762.74754
762.92302
763.01178
763.01279
762.92347
762.7397
762.71206
762.72298
762.4301
762.30951
762.15915
761.96053
761.94602
761.65491
761.46624
761.55836
761.7037
761.83721
761.85968
761.78769
761.93209
762.15937
762.09956
762.2384
762.3352
762.41299
762.66799
762.66117
762.71863
762.88093
730.27242
730.35259
730.21528
729.94829
729.62461
729.46013
729.39141
729.05629
729.00805
729.00879
729.03452
729.34794
729.31494
729.33485
729.56301
729.66691
729.65807
729.54232
729.31567
729.31032
729.36657
729.09466
729.0942
729.09829
729.10702
729.38463
729.33056
729.33572
729.55863
729.66835
729.66946
729.55909
729.32746
729.30201
729.31686
728.9629
728.85067
728.71594
728.54597
728.62478
728.35866
728.18412
728.31942
728.46028
728.56758
728.56024
728.43633
728.57703
728.80259
728.68471
728.85327
729.00957
729.19789
729.64345
729.7917
729.99524
700.04824
700.46469
700.61213
700.48874
700.16904
699.70383
699.30033
698.97415
698.38503
698.17782
698.09942
698.08628
698.44394
698.42201
698.45706
698.73252
698.85886
698.85237
698.71913
698.44974
698.43158
698.47437
698.14268
698.13469
698.13808
698.15293
698.48896
698.4474
698.46538
698.73184
698.85997
698.86099
698.73164
698.45527
698.41595
698.41724
698.00641
697.89467
697.77308
697.6357
697.80539
697.58707
697.44473
697.61426
697.74276
697.82307
697.78918
697.61842
697.73953
697.9442
697.77136
697.96556
698.19147
698.5286
699.21731
699.61425
672.41817
673.23353
673.78664
673.9712
673.85784
673.51456
672.91692
672.12456
671.35721
670.46691
670.08098
669.93371
669.8945
670.26289
670.31139
670.39817
670.68741
670.82349
670.82017
670.68553
670.41044
670.34768
670.32704
669.98435
669.97557
669.97804
669.99123
670.33647
670.35693
670.41837
670.69251
670.8251
670.82531
670.69117
670.40602
670.31921
670.25469
669.83225
669.72223
669.6112
669.50272
669.73318
669.64618
669.58593
669.72666
669.79184
669.83759
669.80214
669.62747
669.69182
669.81242
669.61469
669.81928
670.10236
670.60842
671.58963
646.94282
648.63026
650.09141
650.73292
650.8608
650.7541
650.48166
649.80245
648.36377
646.73124
645.44141
644.92601
644.76012
644.68754
644.96467
645.24571
645.42492
645.64538
645.84651
645.86205
645.67184
645.46087
645.31798
645.08438
644.85397
644.89882
644.89961
644.85622
645.08702
645.32008
645.4596
645.65735
645.84904
645.86323
645.66944
645.44486
645.27416
644.99368
644.6817
644.6256
644.52248
644.39751
644.60776
644.9128
645.03033
644.96041
644.83713
644.88082
644.86725
644.78304
644.71208
644.56232
644.4395
644.65664
644.94375
645.57031
622.80547
624.69508
628.77259
631.54975
631.79258
631.64216
631.55275
631.57504
631.29032
628.53549
624.50952
622.69491
621.90145
621.79764
622.10161
621.59422
623.07308
623.17387
623.16847
624.11206
624.11543
623.19807
623.23459
623.18176
621.77805
622.36516
622.12123
622.12054
622.3626
621.77467
623.17524
623.21792
623.18482
624.11427
624.11251
623.18741
623.20661
623.12616
621.6771
622.19399
621.8528
621.75764
621.94068
621.63623
623.65236
623.2039
622.61964
622.43188
623.25436
622.55156
622.6242
622.58057
621.24709
621.88289
621.70093
621.91467
604.68231
604.93603
606.79593
613.59369
618.99002
617.85826
617.44057
617.3474
617.66724
618.77053
613.38647
606.65254
604.82505
604.71462
604.59068
604.68951
604.5437
605.1988
605.35987
605.39545
605.39207
605.40742
605.44847
605.44099
605.32722
604.7707
605.0074
605.07457
605.07722
604.99525
604.75172
605.30821
605.42614
605.4071
605.3948
605.40504
605.42924
605.42264
605.2779
604.65086
604.86749
604.79401
604.85236
604.61565
605.09753
608.78548
608.65798
605.82339
605.00391
604.87679
604.92877
604.93072
604.75027
604.25775
604.44422
604.51911
588.79717
588.73691
589.27804
591.08174
590.44595
589.61071
589.62302
589.38622
589.58913
590.17747
591.1202
589.05121
588.96617
588.71126
589.35867
589.93142
589.24965
589.17261
590.62655
589.92052
589.94476
590.69742
589.25192
589.39796
590.21927
589.67958
589.44105
589.46798
589.63111
590.21901
589.35326
589.23231
590.62602
589.91791
589.944
590.67042
589.20161
589.39969
590.03159
589.72954
589.00924
589.68315
589.19625
590.92427
588.22078
587.71718
590.45631
590.69274
589.64375
590.31616
588.95109
588.75607
589.8222
588.88534
588.3216
588.4921
589.87729
589.97489
590.16678
590.63471
590.60863
590.31199
590.21482
590.18546
590.34799
590.19402
588.77185
588.84919
590.42585
590.25958
589.80363
589.42225
589.26555
588.06075
588.20304
589.50356
589.50038
589.71189
590.26608
590.81215
588.67801
588.57249
603.45665
603.27288
607.0435
607.5588
617.43057
608.14604
607.52968
605.82437
607.68614
616.91506
607.27374
602.98067
603.16009
607.11554
606.86195
604.9304
590.09476
589.74387
590.49323
590.40476
590.43154
589.7054
590.37397
591.00536
588.81399
589.08926
603.38809
603.20582
606.97716
616.97171
607.33525
607.90581
607.47868
605.32827
606.07568
610.48077
618.67364
609.98623
609.96892
610.47951
607.7854
603.32126
603.34218
607.61867
609.84874
609.38803
618.47437
607.98622
608.20297
604.55082
589.8041
590.584
590.02559
590.39095
588.41194
587.91268
603.55166
607.71126
608.32986
618.20321
607.92384
603.5833
607.54664
605.70175
623.43684
624.72927
623.75058
621.89956
623.26957
622.78317
623.89561
646.10922
671.63028
672.57602
671.10083
645.43851
646.51175
647.57832
645.87623
671.84408
672.91148
671.17087
645.87636
646.26241
671.73575
671.97314
646.40844
624.06487
605.3832
605.82083
605.19822
605.7503
605.5428
604.4455
623.14977
625.17183
626.03695
623.99843
625.07429
626.16559
606.13981
606.06976
603.68791
603.9082
604.44613
605.00529
606.32114
624.37443
623.91035
626.30714
627.1859
629.51165
614.35213
606.89059
604.67122
604.26544
604.12598
604.53044
606.67921
614.14681
613.78524
613.65767
613.74094
613.96242
630.15774
630.21023
628.29313
628.11107
607.59509
590.51424
590.43359
589.3342
582.4859
579.3883
578.74016
578.71816
579.35945
582.41202
583.30806
584.87372
585.70824
585.81612
585.0034
583.62997
582.77764
579.81788
579.19807
579.19508
579.8124
582.78521
583.6481
585.09532
585.92122
585.92076
589.6517
590.48615
590.17251
588.37156
588.75546
590.75553
590.35666
590.36912
590.77505
588.74245
588.38311
590.14661
590.46097
589.63053
585.8713
585.78085
584.92287
583.35432
582.4178
579.3169
578.6543
578.71417
579.39199
582.55958
583.49737
584.95817
585.81144
585.75252
584.91112
583.39747
582.97791
580.7531
574.92348
566.08845
556.70836
550.85667
550.89645
556.79052
566.17256
574.96169
580.82104
583.08193
583.69654
589.72291
590.97017
590.90452
590.88471
591.07767
588.57498
579.89521
582.83613
581.58782
577.77194
566.34032
558.76418
552.48123
545.17455
539.5458
534.48639
532.13662
532.11714
534.43546
539.46328
545.06296
552.34315
558.65978
566.17962
552.39706
544.87041
536.03569
529.3932
523.02366
520.19757
520.21898
523.0786
529.49034
536.17549
545.05115
552.53636
545.33862
557.18177
571.35537
576.48307
575.47973
579.28254
579.28091
588.56393
591.06965
590.87883
590.89706
590.95987
589.69832
582.81973
579.89113
576.48622
575.4765
569.44394
569.44338
551.49207
534.84976
539.82379
529.74899
536.31417
526.72966
517.97427
510.59341
506.66269
506.63714
510.52901
517.86014
526.55346
536.09065
545.1702
556.94549
539.61077
529.48036
517.89319
506.59886
497.41112
492.30269
492.33492
497.49995
506.74859
518.1108
510.8344
523.44855
520.63897
532.5599
532.54763
551.49949
534.82993
523.40618
520.61841
506.92026
506.94904
492.47375
497.60103
486.59082
480.30317
480.26495
486.47802
497.41444
510.57665
523.12812
534.59902
551.15923
532.28112
520.29604
506.66997
492.27835
480.21883
473.30152
473.34487
480.33872
480.29018
492.43574
497.50336
510.77197
518.0463
529.71187
539.80494
557.20856
571.36929
577.77044
581.56293
583.05196
583.66813
585.10093
585.79733
584.30895
580.80729
575.01402
566.41125
552.60278
545.35169
536.31501
526.71361
517.95277
506.66578
497.39115
486.4831
480.17795
473.29633
473.25761
480.18198
492.24498
506.65017
520.27743
532.27012
551.16273
534.58091
523.09859
510.53068
497.34514
486.38808
480.15324
492.19431
492.22053
506.63836
510.5723
523.15709
529.56038
536.23843
545.13094
552.55975
558.82078
566.35895
557.05663
545.23955
539.62888
534.57642
532.2474
520.31232
520.29934
506.62763
510.52009
497.32562
506.53419
517.85263
529.45704
539.59705
556.97052
545.18567
536.10783
526.5641
517.8638
529.49354
523.12651
534.55284
532.24354
551.25823
551.26672
569.28284
571.22882
577.71634
580.77854
583.02235
585.79155
586.684
593.27285
592.16318
588.97356
587.83006
581.45858
580.69352
580.70348
581.46824
587.87917
589.03539
592.10254
585.04655
585.73348
586.61725
585.69765
582.88176
581.31306
576.05667
574.98798
574.98708
576.04819
581.36886
582.9358
585.68655
586.60043
585.70051
584.1916
580.6746
577.48485
570.83984
568.81855
568.8472
570.88761
577.48063
580.65443
584.22017
590.19511
592.09013
588.87346
587.68812
581.16276
580.36447
580.34826
581.13948
587.73379
588.92639
592.07846
593.22357
599.95031
592.10546
590.1808
586.8034
595.927
584.15657
576.94568
587.33833
575.39808
557.25834
562.99778
572.2071
581.2479
586.88357
589.01296
596.00843
587.85038
581.44861
577.63961
571.20712
576.29922
575.26928
569.24158
569.23349
575.25305
576.28165
571.20887
577.61286
566.24633
558.72575
552.44265
545.15959
539.58122
557.02265
566.29583
574.96896
580.70736
582.9001
581.38163
587.76015
581.43624
580.66956
580.69099
581.46304
587.68616
577.31007
584.29623
572.32202
562.12066
562.93459
564.55436
558.53704
556.38051
548.57974
556.43262
558.56112
553.54415
542.59614
547.80216
547.87599
543.08223
543.68177
547.76251
537.68677
532.87685
538.96901
529.48504
539.02725
547.98984
563.26328
547.88374
547.85872
542.66747
537.77167
543.78926
543.23555
532.96581
526.02543
537.38502
557.59543
575.80203
575.78553
587.65565
577.29296
584.23486
595.89238
588.90797
586.79144
581.20707
572.3151
563.24197
557.58499
535.39128
535.40704
534.45947
536.1615
536.03664
529.62316
527.56303
523.44185
509.49877
513.41901
520.85316
524.8827
533.54759
524.84183
520.81997
509.19143
512.63119
502.87894
517.28592
529.5044
536.03622
537.21327
535.2302
534.33981
535.89236
527.45865
523.33727
525.91711
513.36991
509.46315
513.32855
497.51023
494.56718
499.786
488.53602
499.78619
502.88586
517.34302
513.36397
497.48218
494.54275
482.09968
484.48493
491.16724
484.52715
482.15124
474.96649
477.06019
479.33149
487.13853
500.75163
517.55463
521.594
529.29633
538.05245
542.51153
533.24547
520.29224
533.29724
529.34664
516.44411
506.31617
509.83766
525.60783
521.22713
504.04755
507.58481
526.33745
544.86489
577.59144
583.41953
591.8966
600.10753
589.86759
581.99936
573.50297
568.11051
568.13683
587.36079
575.42571
576.98181
584.13046
595.86266
586.75102
581.22471
572.25393
563.05842
557.29482
535.25375
534.36069
535.92265
536.07858
537.25706
525.96198
523.35824
527.48049
529.54651
537.73861
543.73441
543.15696
547.95657
547.85646
547.81337
542.66217
539.06979
532.95426
520.90818
513.42313
509.48902
513.35011
517.33179
502.94714
497.54347
494.59926
499.86559
509.31311
512.72104
524.91445
533.63625
529.62238
521.01837
524.99491
517.48215
503.00234
491.24636
484.5656
482.18832
488.6425
482.20739
475.01097
477.10291
484.58118
497.61077
494.70657
499.94377
513.6236
509.7149
513.51669
527.78163
529.82693
537.93544
542.80206
553.64721
558.62311
556.49176
562.20907
572.33193
562.99665
564.62207
558.63023
556.55296
548.72142
539.20399
548.13995
563.27942
547.98735
547.97109
543.90725
543.42048
533.17986
526.2846
537.61038
557.64353
536.32219
536.20481
534.63842
535.65495
523.71924
523.68787
509.68679
494.65794
482.15789
474.95546
474.92007
482.05976
494.50121
509.47668
523.41481
527.52358
534.42935
535.98419
536.11738
537.36095
525.9844
529.56543
537.68081
543.70453
543.20307
532.9131
538.9935
547.96673
547.79867
547.75794
542.57616
533.43923
524.76867
517.25768
513.33562
497.44323
502.77414
499.70397
513.36237
520.78243
509.0898
512.48292
524.71725
520.7635
529.445
538.99611
536.13185
544.96962
552.47238
556.47472
558.55459
564.53506
553.54413
548.63
556.45866
572.2558
562.16914
562.91705
558.51656
547.74514
542.56783
547.70069
537.66311
532.91443
543.17371
563.0952
547.94803
543.63055
535.96154
529.46522
517.13402
502.7014
491.01871
484.43745
477.00644
484.36531
482.01789
488.43163
499.65778
494.41343
497.31318
513.16472
509.38624
513.29612
525.94767
523.3651
527.41591
535.81533
534.27117
557.39243
537.30328
535.32984
535.33454
523.37543
509.39509
494.43639
482.04203
484.39603
477.03844
484.51819
491.09429
488.51653
499.8287
502.87221
497.56566
513.48445
517.38402
513.54465
520.92524
509.19596
499.71454
502.75297
497.3339
513.17813
517.16824
513.33836
520.82913
524.76462
512.56359
524.86826
533.50678
529.55299
539.15474
533.11072
526.23144
529.76375
527.74835
536.15037
534.60474
557.63733
535.64014
537.58193
536.27532
543.81391
537.83883
547.85587
542.70243
547.89823
563.26044
543.38273
548.11146
556.58684
548.75125
539.0721
532.9594
525.97098
529.48352
527.42484
535.82331
534.27708
557.39411
537.31857
535.98136
543.64555
537.68922
547.71721
542.60679
547.77607
563.10445
543.21162
547.99504
556.54738
572.27816
558.58839
553.63571
564.58842
558.6207
572.33428
562.24536
562.96897
581.1954
589.79443
582.0755
573.69901
568.42523
568.43897
573.74597
582.11616
589.83248
582.01875
573.54407
583.45578
577.61995
544.90027
557.4895
568.02678
594.75619
609.54228
623.86456
625.79708
623.77758
623.30787
605.65004
604.96035
605.3215
623.14773
624.62284
624.69881
622.95303
621.87071
622.98075
624.75795
625.48955
605.61787
605.7328
602.04259
602.1626
623.95607
625.51814
625.76518
625.17275
626.01436
604.05522
589.4741
590.49657
591.19043
608.05286
606.32306
606.64413
627.22163
627.25454
606.45289
590.0837
588.00711
587.96239
590.02646
590.17602
590.27038
607.44449
607.37381
628.22267
630.12745
629.96013
627.94272
607.44359
590.4066
590.31992
589.22742
589.38974
590.38848
591.0384
590.76673
590.23961
589.72022
589.55414
589.65322
588.5139
588.51741
589.68286
589.6509
589.90971
590.33472
590.52327
588.89498
589.02951
590.2682
590.33834
590.49034
590.95933
591.05226
591.03895
590.90366
590.35112
590.09634
589.94728
588.67916
588.58067
603.21147
603.42842
607.48854
608.10591
607.50443
617.36024
606.9738
623.82789
624.23106
626.9911
629.28052
649.4676
650.35268
650.763
650.8536
650.57195
649.7257
673.77135
700.96354
730.9753
732.47301
731.29076
730.26384
699.69382
700.87979
699.30325
729.99905
731.4809
733.35571
730.77881
700.12192
701.21979
699.23696
729.86932
730.4187
699.83221
700.08818
730.65071
733.64014
733.10831
731.82883
735.10304
704.39722
702.71327
674.16584
675.71521
649.01364
646.93969
647.93355
674.10171
674.57491
648.29792
650.29341
650.09016
676.90499
677.24523
706.167
703.02873
702.50321
705.71641
736.52514
737.06592
737.74313
738.73718
737.87343
736.00273
733.54036
703.003
700.90268
672.97456
647.49301
648.23145
674.60653
676.41766
674.46988
649.28606
650.05049
651.26008