/*--------------------------------*- C++ -*----------------------------------*\
  =========                 |
  \\      /  F ield         | OpenFOAM: The Open Source CFD Toolbox
   \\    /   O peration     | Website:  https://openfoam.org
    \\  /    A nd           | Version:  7
     \\/     M anipulation  |
\*---------------------------------------------------------------------------*/
FoamFile
{
    version     2.0;
    format      ascii;
    class       volScalarField;
    location    "430";
    object      nut;
}
// * * * * * * * * * * * * * * * * * * * * * * * * * * * * * * * * * * * * * //

dimensions      [0 2 -1 0 0 0 0];

internalField   nonuniform List<scalar> 
24866
(
7.9871354
7.993963
7.9907857
8.1778771
8.34244
8.3402624
8.3362009
8.3404646
8.3397338
8.3348703
8.3351306
8.3351673
8.3348938
8.3397677
8.3405475
8.3361861
8.3400876
8.3413815
8.3405199
8.335994
8.3259471
8.340359
8.3708344
8.3582262
8.3324997
8.3285498
8.3363989
8.3604137
8.3556675
8.3291457
8.3383246
8.3413921
8.3413931
8.3383329
8.3291933
8.355715
8.3605212
8.3364912
8.3284418
8.3323263
8.358159
8.3707893
8.3403493
8.3259496
8.3360188
8.3405698
8.3414015
8.3401627
8.3361954
8.3404709
8.3398509
8.3349902
8.335128
8.3351426
8.3349533
8.3397322
8.3403457
8.3360846
8.3402264
8.3424874
8.3463461
8.3431123
8.3463375
8.3430537
8.3368247
8.339565
8.3453971
8.3420151
8.334427
8.3344147
8.3344391
8.3344307
8.3420667
8.3454462
8.3395725
8.3366941
8.3425454
8.3453011
8.3417844
8.342912
8.3376679
8.3299889
8.3283386
8.33909
8.3427738
8.3480367
8.3326385
8.328703
8.3364108
8.3485094
8.3426931
8.3379986
8.3369822
8.3377791
8.3361347
8.3335112
8.3360501
8.3350034
8.3385973
8.3361764
8.3339798
8.3336445
8.3336961
8.3343288
8.3350399
8.3350421
8.3348628
8.3377238
8.336793
8.3364936
8.3331122
8.3401472
8.3441446
8.3419295
8.3378152
8.3354802
8.3346241
8.3341175
8.3344671
8.3347831
8.3347132
8.3341972
8.3345921
8.3338336
8.3333659
8.3340015
8.3360048
8.3335509
8.332843
8.3330735
8.3339658
8.3348381
8.3353571
8.3351047
8.3351934
8.3348855
8.3344705
8.3348677
8.3346264
8.3367968
8.3378182
8.3331203
8.3401504
8.3441464
8.2387928
8.2354673
8.1650566
8.1703746
8.1771267
8.1771236
8.1703663
8.1680425
8.1366846
8.2614392
8.2641287
8.1430927
8.1679657
8.1698922
8.1639898
8.1380044
8.0966436
8.1118257
8.157695
8.1688359
8.1759798
8.1755516
8.174724
8.172708
8.1718563
8.1691773
8.1670743
8.1591506
8.159111
8.1670622
8.169082
8.1715923
8.1731114
8.1744522
8.1675744
8.1752216
8.2404414
8.238721
8.1677431
8.103295
8.1763665
8.1780563
8.1699247
8.3391132
8.3357885
8.3391203
8.336225
8.3339466
8.3359588
8.3335279
8.3328141
8.3330321
8.333902
8.334748
8.3352506
8.3353618
8.3354649
8.3351981
8.334791
8.335051
8.33699
8.3377288
8.3427039
8.336504
8.1702161
8.1797998
8.2019914
8.2614965
8.1366383
8.1680223
8.0008545
7.988646
7.9903556
7.9903518
7.9886381
8.000864
7.9665347
7.9658603
7.9851511
8.0061589
7.9844736
7.9615815
7.9478301
7.9643313
7.9899558
7.9881484
7.9893654
7.9881994
7.994196
8.005631
7.9885321
7.9860219
8.0009507
7.9921027
7.9921616
8.0010426
7.9859978
7.9882799
8.0060849
7.8414165
7.8316426
7.8254412
7.8256753
7.8313786
7.9936715
8.1741974
8.1732223
8.1714279
8.1691631
8.1670555
8.1591278
8.1591318
8.1671939
8.168937
8.1719934
8.1727216
8.1749448
8.1754873
8.1761251
8.1688123
8.1577347
8.1118734
8.2303159
8.2760796
8.2633094
8.1381029
8.1641246
8.1699918
8.1678301
8.1428758
8.2641617
8.2086385
8.1431593
8.1401221
8.1017471
8.1681591
8.1637738
8.19572
8.2344889
8.3485552
8.3364455
8.3286825
8.3380038
8.3427634
8.337788
8.3350531
8.3347259
8.3351142
8.3346056
8.3348465
8.3347517
8.3343156
8.333669
8.3332815
8.3340404
8.333503
8.3336716
8.3339088
8.3339768
8.3338497
8.3336654
8.3342145
8.3343471
8.3361492
8.3390853
8.3283483
8.3335361
8.3337204
8.335032
8.3340041
8.3333832
8.3330863
8.3330418
8.3332864
8.3340402
8.3362193
8.3339545
8.3328266
8.3328582
8.3340185
8.3362044
8.3386353
8.3418123
8.3360815
8.3300213
8.3377099
8.3429501
8.2372554
8.1723979
8.1621116
8.2333943
8.16403
8.1730705
8.0994355
7.9851883
7.9881125
7.9900028
7.9643728
7.9478595
8.0967939
8.1228754
8.1330299
8.1837903
8.1918783
8.2021103
8.1662844
8.0995572
8.1359747
7.9686187
7.9616075
7.9844898
8.0061797
7.9851342
7.9658566
7.966553
7.812359
7.8362576
7.8261056
7.8251503
7.8251471
7.8261007
7.8362682
7.8123482
7.8073365
7.8213867
7.843942
7.8209392
7.801734
7.7997497
7.8185986
7.8287091
7.8253443
7.823942
7.823155
7.8317994
7.8409836
7.8266017
7.8238702
7.8402485
7.8349075
7.8348738
7.8402673
7.8239004
7.8264246
7.6804905
7.6913914
7.6851705
7.6789083
7.6790874
7.6849518
7.6915052
7.8415515
8.0062138
7.988128
7.9861447
8.0008612
7.9921124
7.9922197
8.0011116
7.9859165
7.9887352
8.0055498
7.9944494
7.9881208
7.9895321
7.8240786
7.8253022
7.8287507
7.8186433
7.7997687
7.8017597
7.8209728
7.843975
7.821352
7.8073113
7.6656858
7.6713633
7.6867355
7.6799575
7.6785362
7.6785332
7.679954
7.6867443
7.6713545
7.6657075
7.6753451
7.6955551
7.6744094
7.6588498
7.6621459
7.6796598
7.6816201
7.6790449
7.6772072
7.6768551
7.6851402
7.6909638
7.6805897
7.6782799
7.691981
7.6886767
7.6886984
7.6920762
7.6783481
7.5459956
7.5475965
7.5548581
7.5515294
7.5460849
7.5462141
7.5513576
7.5549433
7.547483
7.5460067
7.6784073
7.8240039
7.8401367
7.8349277
7.8349403
7.840285
7.8238248
7.8268321
7.8408865
7.8320261
7.8230822
7.6767962
7.677308
7.6790027
7.6816512
7.6797004
7.6621543
7.6588691
7.6744437
7.6955891
7.6753129
7.5430168
7.5364756
7.5417791
7.5509674
7.5469086
7.5455845
7.5455811
7.5469058
7.5509739
7.5417727
7.5364947
7.5430451
7.559819
7.5414259
7.5289903
7.5346252
7.5498877
7.5477603
7.5459213
7.5442367
7.5441867
7.5512965
7.5544258
7.5476164
7.5458871
7.5563423
7.5543956
7.5544445
7.5564813
7.4331721
7.4255224
7.4266067
7.4311111
7.4297445
7.4253976
7.425487
7.4296124
7.4311684
7.4265018
7.4254879
7.4329219
7.5562453
7.6918764
7.6887018
7.6887615
7.6920581
7.6782803
7.680819
7.6908762
7.6853234
7.5514378
7.5441418
7.5443057
7.5458817
7.5477811
7.5499217
7.5346279
7.5290049
7.5414594
7.5598521
7.4362387
7.4229305
7.4185052
7.4230267
7.4280215
7.4258162
7.4247974
7.4247939
7.4258136
7.4280254
7.4230224
7.4185219
7.4229547
7.4362078
7.4206997
7.410934
7.4173035
7.4301546
7.4262447
7.4248486
7.4234795
7.4236082
7.4293333
7.4306647
7.4265529
7.425382
7.4330059
7.4319452
7.4320113
7.3205075
7.3211457
7.3157097
7.3163621
7.3189328
7.3187839
7.3155257
7.3155858
7.3186823
7.3189658
7.3162622
7.3156375
7.3208935
7.3204401
7.4319596
7.5544176
7.554496
7.5564465
7.5459285
7.547834
7.5543634
7.4306294
7.4294409
7.4235748
7.4235236
7.4248125
7.4262566
7.4301814
7.4173031
7.4109453
7.4207313
7.3109781
7.3238274
7.3136702
7.3106939
7.3143165
7.3165762
7.3155371
7.3148687
7.3148653
7.3155343
7.316578
7.3143139
7.3107086
7.3136902
7.3237992
7.3109487
7.3033939
7.3096972
7.3202935
7.3158118
7.3146475
7.3135997
7.3138181
7.3182267
7.3184647
7.3162413
7.3155433
7.3209631
7.3204314
7.2184985
7.2185795
7.2189354
7.2151386
7.2154507
7.2167277
7.2172835
7.2149783
7.2150175
7.2172042
7.2167408
7.2153529
7.2150378
7.218688
7.2185031
7.2185982
7.3205343
7.4320488
7.4331281
7.4254572
7.4267565
7.3164315
7.3184541
7.3183092
7.3137939
7.3136258
7.3146148
7.3158167
7.3203133
7.3096951
7.3034028
7.2049097
7.2106943
7.2212479
7.2137109
7.2117287
7.2144808
7.2150067
7.2146565
7.2143045
7.2143012
7.2146535
7.2150067
7.2144793
7.2117416
7.2137272
7.2212224
7.2106674
7.2049026
7.210779
7.2193959
7.214932
7.2138749
7.2130923
7.213339
7.2166117
7.2162338
7.2152697
7.2149504
7.2187433
7.1248388
7.1247324
7.1248163
7.125038
7.122418
7.1224702
7.1229133
7.1238372
7.1223102
7.1223348
7.1237737
7.1229104
7.1223724
7.1222958
7.1247977
7.1247339
7.1248269
7.1249821
7.2188827
7.3210961
7.3156455
7.2150723
7.2154484
7.2162438
7.2166768
7.2133217
7.2131057
7.2138452
7.2149313
7.2194096
7.210776
7.1193596
7.1140591
7.1184132
7.1270457
7.1216003
7.1202982
7.1222726
7.1217316
7.1217541
7.1216533
7.1216502
7.1217509
7.1217303
7.1222718
7.1203093
7.1216134
7.1270228
7.1183887
7.1140533
7.1193633
7.1262984
7.1221154
7.1210943
7.1205029
7.1207359
7.12308
7.1223926
7.1222361
7.1222095
7.036138
7.0379555
7.0379031
7.0379885
7.03816
7.0363652
7.0362251
7.0361534
7.0372287
7.0363076
7.0363221
7.0371761
7.0361376
7.036126
7.0362277
7.0379279
7.0379026
7.0379917
7.0381008
7.0362837
7.1223456
7.1224054
7.1224192
7.1231335
7.1207239
7.1205076
7.1210671
7.1221104
7.1263068
7.0399111
7.0343699
7.0296688
7.0328913
7.0399414
7.0361215
7.0352796
7.0365928
7.035424
7.0356142
7.035694
7.0356911
7.0356107
7.0354217
7.0365925
7.0352891
7.0361319
7.0399209
7.0328693
7.0296639
7.0343741
7.0399071
7.0361053
7.0350789
7.0346089
7.0348013
7.0364116
7.0356074
7.0359449
6.9554515
6.9558037
6.9570687
6.9570272
6.9571133
6.9572771
6.956048
6.9557713
6.9554014
6.9564917
6.9560243
6.9560318
6.9564464
6.9553753
6.9556701
6.9559
6.9570539
6.9570255
6.9571096
6.9572144
6.9559554
6.9556069
7.0361065
7.0356469
7.0364575
7.0347931
7.0346078
7.0350536
7.0360971
6.9559041
6.9593145
6.9549301
6.9508116
6.9531473
6.9589042
6.956322
6.9557851
6.9565568
6.9550476
6.9552759
6.9554725
6.9554697
6.9552722
6.9550446
6.9565568
6.9557933
6.9563301
6.9588858
6.9531275
6.9508076
6.9549347
6.9593142
6.9559149
6.95486
6.9544546
6.9545905
6.9556358
6.9548331
6.8792678
6.8800251
6.8804872
6.8813865
6.881338
6.881424
6.8815978
6.8807471
6.8803783
6.8798549
6.8808774
6.8807373
6.8807399
6.8808369
6.8798203
6.8802748
6.8805923
6.8813836
6.8813357
6.8814142
6.8815312
6.880642
6.8801752
6.8793247
6.9548826
6.9556769
6.9545852
6.9544495
6.954836
6.8796678
6.8807728
6.8837952
6.8803527
6.8767768
6.8784239
6.8831281
6.8814714
6.8811303
6.8814726
6.8798095
6.8799976
6.8802586
6.880256
6.8799938
6.8798061
6.8814726
6.8811372
6.8814777
6.8831117
6.8784061
6.8767736
6.880358
6.8837982
6.8807858
6.8796908
6.8793081
6.8793801
6.8799996
6.8089117
6.8082875
6.8090916
6.8096245
6.8102902
6.8102306
6.8103162
6.8105038
6.8098987
6.8094729
6.8088898
6.8097982
6.8098846
6.8098839
6.8097605
6.8088484
6.8093672
6.8097399
6.8102985
6.8102283
6.8103009
6.8104328
6.8097805
6.809237
6.8083501
6.8089482
6.8800379
6.8793769
6.8793003
6.8085904
6.8089662
6.8101125
6.8127786
6.8100966
6.8070134
6.8081307
6.8119794
6.8110025
6.8107809
6.810793
6.8090952
6.8091992
6.8094849
6.8094825
6.8091954
6.8090915
6.8107931
6.8107868
6.8110074
6.811965
6.8081151
6.8070112
6.8101026
6.8127843
6.8101275
6.8089887
6.8086001
6.8086066
6.7418149
6.7418922
6.7413914
6.7421843
6.7427581
6.7432812
6.7432133
6.7432983
6.7434964
6.7430449
6.7425889
6.7420053
6.7427771
6.7430126
6.7430094
6.7427411
6.7419584
6.7424813
6.7428843
6.7432999
6.7432116
6.7432781
6.7434208
6.7429136
6.7423256
6.7414581
6.7419277
6.7418143
6.8086049
6.8121362
6.8152413
6.8122231
6.813057
6.8147598
6.8137285
6.8142656
6.8147159
6.8154294
6.8155016
6.8141411
6.7470973
6.7443049
6.7440709
6.7424125
6.7424117
6.7426936
6.7426913
6.742408
6.7424089
6.7440714
6.7443105
6.7444635
6.7449346
6.7417801
6.7410785
6.7437299
6.7458032
6.743465
6.7422839
6.7418716
6.6787375
6.6786223
6.6785378
6.6781632
6.6789103
6.6795025
6.6799442
6.6798735
6.6799576
6.6801604
6.6798
6.6793336
6.6787849
6.679413
6.6797396
6.6797347
6.6793781
6.6787335
6.6792245
6.6796394
6.6799723
6.6798725
6.6799331
6.6800801
6.6796562
6.6790476
6.6782327
6.6785728
6.6786223
6.6787252
6.7418605
6.7422615
6.7434483
6.7457948
6.7437228
6.7410794
6.7417932
6.7449467
6.7444593
6.6814611
6.6813392
6.6809282
6.6793528
6.6792413
6.6795005
6.6794987
6.6792384
6.6793503
6.6809301
6.6813458
6.6814665
6.6815957
6.6790073
6.6786084
6.6808716
6.6824593
6.6804026
6.6791832
6.6193469
6.6188638
6.6186955
6.6184988
6.6182452
6.6189274
6.6195217
6.6199222
6.6198549
6.6199378
6.6201387
6.6198279
6.6193652
6.6188711
6.6193577
6.6197332
6.6197271
6.6193234
6.6188163
6.6192554
6.6196687
6.619959
6.6198548
6.6199095
6.6200537
6.6196724
6.6190606
6.6183161
6.6185329
6.6186954
6.6188496
6.619322
6.6791604
6.6803836
6.6824475
6.6808621
6.6786065
6.6790165
6.6816042
6.6215864
6.6216784
6.6215662
6.6210335
6.6195654
6.6193461
6.6195715
6.6195704
6.6193453
6.6195662
6.6210398
6.6215779
6.6216894
6.621586
6.6194593
6.6192851
6.6212084
6.6224096
6.6205992
6.5637513
6.5624704
6.5619493
6.5617337
6.5614609
6.5613195
6.5619275
6.562512
6.5628976
6.5628394
6.5629211
6.5631137
6.5628249
6.5623759
6.5619459
6.5622979
6.5626926
6.5626855
6.5622639
6.5618886
6.5622659
6.5626683
6.5629421
6.5628404
6.5628894
6.5630241
6.5626585
6.5620562
6.5613905
6.5614933
6.5617319
6.5619312
6.5624401
6.5637194
6.6205761
6.6223919
6.6211928
6.6192763
6.6194603
6.5628208
6.5645693
6.5648145
6.5646972
6.5640867
6.562738
6.5624186
6.5626051
6.5626057
6.5624229
6.5627472
6.5641048
6.5647235
6.564842
6.5645878
6.5628386
6.5628279
6.5644539
6.5653477
6.51099
6.5095777
6.5082691
6.5077106
6.5074525
6.5071288
6.5070907
6.5076204
6.5081864
6.5085747
6.5085312
6.5086115
6.5087899
6.508504
6.5080756
6.5077138
6.5079386
6.508332
6.5083244
6.5079049
6.5076548
6.5079662
6.5083509
6.5086263
6.5085333
6.5085768
6.5086958
6.508328
6.5077441
6.5071602
6.5071579
6.5074459
6.5076838
6.5082257
6.5095263
6.5109323
6.5653176
6.5644235
6.5628024
6.5089137
6.5088138
6.5102516
6.5105893
6.5104565
6.509803
6.508579
6.5081686
6.5083163
6.5083211
6.5081855
6.5086087
6.5098501
6.5105192
6.5106572
6.510314
6.5088746
6.5089784
6.5103422
6.4586197
6.459066
6.4578079
6.4564651
6.4558682
6.4555701
6.4552121
6.4552704
6.4557206
6.4562611
6.4566659
6.4566428
6.4567215
6.4568795
6.4565816
6.4561789
6.4558861
6.4559888
6.4563675
6.4563595
6.4559555
6.4558261
6.4560709
6.4564328
6.4567238
6.456646
6.4566842
6.4567814
6.4563973
6.4558388
6.4553368
6.455235
6.455553
6.4558233
6.4563932
6.4577144
6.4589486
6.458478
6.5102772
6.5127434
6.5133873
6.5137168
6.5142258
6.514011
6.5125185
6.4606842
6.458568
6.4578998
6.4568031
6.4563097
6.4564234
6.4564371
6.4563544
6.4568784
6.458012
6.4587131
6.4588843
6.4584998
6.4573153
6.4574929
6.4081443
6.4090456
6.4093168
6.4081792
6.4067832
6.4061412
6.4058013
6.4054183
6.4055711
6.4059408
6.4064505
6.4068858
6.4068896
6.4069668
6.4070975
6.4067724
6.4063992
6.406175
6.4061548
6.4065094
6.4065013
6.406122
6.4061147
6.4062931
6.4066284
6.4069495
6.4068943
6.4069276
6.4069959
6.4065811
6.4060532
6.4056322
6.4054303
6.4057637
6.4060606
6.4066534
6.4080005
6.4090781
6.4087469
6.4078152
6.4573415
6.4571602
6.4583412
6.4587253
6.4089441
6.4087513
6.4080913
6.4071244
6.4065523
6.406641
6.4066731
6.4066541
6.407293
6.4083373
6.4090663
6.4092906
6.4089047
6.4079304
6.3605287
6.3607414
6.3614114
6.3615113
6.3604504
6.358963
6.3582586
6.3578687
6.3574635
6.3577156
6.3580035
6.358479
6.3589627
6.3590018
6.3590771
6.3591719
6.3588014
6.3584599
6.3583038
6.3581517
6.358475
6.3584667
6.3581192
6.3582433
6.3583559
6.3586626
6.3590318
6.3590085
6.3590372
6.3590675
6.3586043
6.3581101
6.3577691
6.3574579
6.3577949
6.3581132
6.3587254
6.3601119
6.3610442
6.3608155
6.3600763
6.3598187
6.4075829
6.4085495
6.3606044
6.3609793
6.3607348
6.3601013
6.3592675
6.3586152
6.3586919
6.3587584
6.358824
6.3596115
6.3605996
6.3613712
6.3616797
6.3613298
6.3156606
6.3150025
6.3151738
6.3155878
6.3154923
6.3144451
6.3128048
6.3120052
6.311548
6.3111191
6.3114812
6.3116866
6.3121276
6.3126817
6.3127673
6.3128414
6.3128898
6.3124516
6.3121412
6.3120522
6.3117516
6.3120363
6.3120278
6.3117191
6.3119912
6.312039
6.3123176
6.3127569
6.3127765
6.3128007
6.3127823
6.3122486
6.3117881
6.3115256
6.3110879
6.3114173
6.3117532
6.3123847
6.3138324
6.3146296
6.3144747
6.3139246
6.3136645
6.3142959
6.3146242
6.3143069
6.3137114
6.3130131
6.3122733
6.3123529
6.3124781
6.312664
6.3136571
6.314645
6.3154988
6.3159369
6.2721147
6.2719495
6.2714093
6.2714987
6.2716179
6.2712691
6.2701387
6.2682633
6.2673189
6.2667683
6.2663131
6.2667955
6.266924
6.2673371
6.2679832
6.268127
6.2682011
6.2681936
6.2676671
6.2673819
6.2673538
6.2668901
6.2671276
6.2671188
6.2668567
6.2672913
6.2672804
6.2675363
6.2680659
6.2681379
6.2681577
6.2680811
6.267456
6.2670232
6.266832
6.2662516
6.2665612
6.2669125
6.2675679
6.2691001
6.2697797
6.2696817
6.2693192
6.2690731
6.2695704
6.2698312
6.2694205
6.2688645
6.2682961
6.2674606
6.2675547
6.2677695
6.2681262
6.2694036
6.2704834
6.271491
6.2296998
6.2305622
6.2305321
6.2300887
6.2300697
6.229857
6.2291452
6.2277743
6.2255733
6.224423
6.2237537
6.2232746
6.2238703
6.2239516
6.2243578
6.2251006
6.2253059
6.2253822
6.2253191
6.224702
6.2244251
6.2244324
6.2238151
6.223999
6.2239894
6.2237796
6.2243667
6.2243221
6.2245721
6.2251937
6.225319
6.2253343
6.225198
6.2244787
6.224055
6.2239071
6.2231905
6.2234685
6.2238325
6.2245213
6.2261461
6.2267545
6.2267214
6.2265243
6.2262857
6.2266621
6.226848
6.2263431
6.2258104
6.2253382
6.2244118
6.2245222
6.2248529
6.2254395
6.2270889
6.2284153
6.1891115
6.1909004
6.192036
6.1921236
6.1917567
6.1916451
6.1910863
6.189798
6.1878941
6.1852781
6.1838726
6.1830806
6.1825832
6.1832343
6.1833671
6.1838119
6.1846111
6.1848756
6.184958
6.1848469
6.1841832
6.1838754
6.1838298
6.1831329
6.1832729
6.1832622
6.1830939
6.1837589
6.1837682
6.1840494
6.1847187
6.1848928
6.1849049
6.1847133
6.1839424
6.1834864
6.1832908
6.1825075
6.1827581
6.1831327
6.1838561
6.1855366
6.1862212
6.1863053
6.186182
6.1858789
6.1861407
6.1862709
6.1857254
6.1851661
6.1846765
6.1837081
6.1838273
6.1842752
6.1851367
6.1872473
6.1504269
6.1534931
6.1562046
6.157581
6.1576899
6.1573852
6.1572784
6.1564183
6.1541523
6.1510594
6.1479348
6.1462843
6.145406
6.144877
6.1453571
6.145879
6.1464201
6.1471116
6.147538
6.1476432
6.1473878
6.1468294
6.1464382
6.1460193
6.1454959
6.1456485
6.1456361
6.1454522
6.1459414
6.1463256
6.1466876
6.1472374
6.147561
6.1475846
6.1472395
6.1465686
6.1460276
6.1454632
6.144867
6.1451461
6.1455307
6.1462588
6.1478222
6.1490619
6.1493436
6.1490335
6.1484679
6.1487057
6.1487661
6.1483533
6.1476612
6.1467814
6.1459856
6.1461214
6.1466441
6.1477633
6.1135028
6.116605
6.1226147
6.1272075
6.1283295
6.1281936
6.1279547
6.1281263
6.1274655
6.1232571
6.1172422
6.1137005
6.1120327
6.1111504
6.110504
6.1102084
6.1120623
6.1127193
6.1129226
6.1139093
6.1139974
6.1132036
6.1131669
6.1126707
6.1109523
6.1112101
6.1115229
6.1115094
6.111162
6.1108664
6.1125504
6.1130173
6.1130677
6.1139372
6.1139347
6.1130381
6.1128884
6.1122489
6.1103942
6.1106163
6.1110762
6.111495
6.1120981
6.1131645
6.1164041
6.1166455
6.1153518
6.1143843
6.1150858
6.1146343
6.1146166
6.1137748
6.1116363
6.1115883
6.1118361
6.1123389
6.0860535
6.0862598
6.08862
6.0976614
6.1054917
6.1053716
6.1050305
6.1048124
6.1052616
6.1058125
6.0983032
6.0893128
6.0865193
6.0858766
6.084964
6.0838193
6.0835591
6.0845325
6.0852159
6.0851164
6.084782
6.084892
6.0854335
6.0856954
6.0851738
6.0843643
6.0845915
6.0854302
6.0854173
6.0845325
6.0842596
6.0850346
6.0855528
6.085266
6.0848172
6.0848319
6.0852552
6.0854279
6.084761
6.0837922
6.0840506
6.0850434
6.0856898
6.0857415
6.0874388
6.0929887
6.0942063
6.0896152
6.087189
6.0864355
6.0869286
6.0871348
6.0862249
6.0850025
6.0848301
6.0856221
6.0643008
6.0645671
6.0652336
6.0670008
6.0653916
6.0656084
6.0659433
6.0657431
6.0658628
6.0658517
6.06776
6.0655425
6.0644838
6.0636609
6.0630697
6.0640935
6.0630896
6.0636419
6.0650205
6.0645352
6.0646544
6.0653471
6.0641197
6.0637623
6.0649269
6.0639307
6.0642537
6.0642364
6.063864
6.0648295
6.0636146
6.0639582
6.0651767
6.0645683
6.0645907
6.0651624
6.0638359
6.0633657
6.0643802
6.0634287
6.0639744
6.0647177
6.0655057
6.0675907
6.0639713
6.0636107
6.067898
6.0677406
6.0665988
6.0669739
6.0656487
6.0647821
6.0655361
6.0640457
6.0615416
6.0607271
6.067517
6.0750721
6.0797363
6.0817852
6.0785575
6.0786268
6.0811296
6.0797722
6.0757527
6.0676619
6.0606084
6.0613974
6.0675611
6.0754721
6.0829442
6.085949
6.0747977
6.050221
6.0495155
6.0744365
6.0857963
6.0824079
6.07527
6.069122
6.0631456
6.0610047
6.0727633
6.0740128
6.0850062
6.0855495
6.0975161
6.0844778
6.0836582
6.089375
6.0841457
6.0966543
6.0839311
6.0723846
6.0724857
6.0833218
6.0832543
6.0880511
6.0677974
6.0701304
6.074579
6.0744889
6.0747324
6.0724601
6.0707937
6.06934
6.0629529
6.0614292
6.0728305
6.0732074
6.0840368
6.0967218
6.0836063
6.084276
6.0845032
6.08918
6.0922754
6.0904724
6.1020095
6.0935263
6.0939039
6.0902261
6.0850266
6.0795667
6.0790235
6.0850533
6.0904042
6.0886676
6.102391
6.0910172
6.088296
6.0797131
6.0654738
6.0693418
6.0692894
6.0683565
6.062493
6.0621761
6.0736198
6.0847744
6.0858777
6.0995385
6.0855635
6.0739185
6.085181
6.0894128
6.1180263
6.118114
6.1210423
6.1156186
6.1147222
6.1178024
6.1157907
6.1504007
6.1884314
6.1934266
6.1876615
6.1493839
6.154398
6.1631886
6.1521121
6.190925
6.1960528
6.1894822
6.1516779
6.153252
6.1914307
6.1920467
6.1538192
6.1191711
6.0898481
6.0960586
6.0949279
6.0917744
6.1020579
6.094714
6.1248816
6.1346219
6.1390806
6.1250145
6.1271544
6.1369782
6.1023957
6.1051167
6.0950414
6.1087648
6.1043072
6.0954061
6.09038
6.1191137
6.1259354
6.1359807
6.1261483
6.1260462
6.1005399
6.0850144
6.0839597
6.083865
6.0836551
6.0840504
6.0854636
6.1009634
6.1013334
6.1011643
6.1012846
6.1012949
6.1281158
6.1284872
6.1315533
6.1305886
6.0966692
6.0728782
6.0802483
6.0746137
6.0163448
5.9556769
5.9455561
5.9459007
5.9563528
6.0171411
6.0319441
6.0705066
6.0770176
6.0776384
6.0714724
6.0338835
6.019605
5.9582843
5.9483263
5.9483713
5.9583435
6.0196996
6.0341395
6.0720653
6.078392
6.0783979
6.0872833
6.0811538
6.07078
6.0615922
6.0617385
6.0679412
6.0691214
6.0691256
6.0678897
6.0616066
6.0614226
6.0705627
6.0809419
6.0870127
6.0775164
6.0770303
6.0703384
6.0309169
6.0154084
5.9514335
5.9404211
5.9394758
5.9502467
6.0145414
6.0300845
6.0696644
6.0763263
6.0760163
6.0693616
6.0311327
5.9926101
5.9602666
5.8740381
5.7073484
5.5136119
5.3933017
5.3946784
5.5169634
5.7112522
5.8765764
5.9618342
5.9943812
6.0341375
6.0772879
6.0844282
6.0761052
6.0769932
6.0824617
6.0540245
5.9598675
6.0200149
5.9699471
5.911625
5.7150244
5.5614631
5.4397729
5.275739
5.1651442
5.0540033
5.0096049
5.0089113
5.0523047
5.1623476
5.2715592
5.4347468
5.5570428
5.7096638
5.4358404
5.2943566
5.1070723
4.9813101
4.8483931
4.7961442
4.7968309
4.8502306
4.9844258
5.1115144
5.3000889
5.4409204
5.2798632
5.5262104
5.7831661
5.8664372
5.8500278
5.9502529
5.950442
6.0541052
6.082476
6.0770015
6.0761728
6.0844915
6.0774099
6.0204408
5.960296
5.8670593
5.8501527
5.7492572
5.7490024
5.4093916
5.0633777
5.1719121
4.9906334
5.1149019
4.9398513
4.7744102
4.6296982
4.5548824
4.5543023
4.6275891
4.7707826
4.9350985
5.1084181
5.2740299
5.5192919
5.1653324
4.9832348
4.7717888
4.5552096
4.3792899
4.2837305
4.2842886
4.3813738
4.5592287
4.7775021
4.63506
4.8589753
4.8068728
5.0198495
5.0194842
5.4095382
5.0625818
4.8582142
4.8063883
4.5609913
4.5616616
4.287952
4.3838281
4.1775635
4.0626183
4.061994
4.1754349
4.3797216
4.6290203
4.8508777
5.055994
5.400498
5.01245
4.7984115
4.5552206
4.2834878
4.0614211
3.9376045
3.938253
4.0637324
4.0628755
4.2872635
4.382128
4.6336408
4.7759985
4.9897625
5.171325
5.5271123
5.7839951
5.9126117
5.9704628
5.9950939
6.0346283
6.0721537
6.0613638
6.0410129
5.962843
5.878506
5.7172908
5.4428916
5.2799906
5.1149295
4.9392195
4.7734942
4.5570931
4.3791221
4.1752307
4.0602177
3.9372639
3.9365542
4.0605163
4.2829278
4.5547751
4.7983827
5.0124684
5.4011742
5.0559835
4.8506519
4.6279185
4.3780142
4.1732123
4.0595414
4.2814979
4.2819501
4.5538607
4.6283615
4.8515695
4.9858088
5.112787
5.3021354
5.4419156
5.5630348
5.7159915
5.5232183
5.2770526
5.1668078
5.0557609
5.0116805
4.798438
4.7981841
4.5533547
4.6271614
4.3773251
4.5539143
4.7709889
4.9832799
5.1657392
5.5210163
5.2754539
5.10956
4.9353231
4.7707748
4.9837122
4.8504244
5.0549737
5.0113323
5.4029376
5.4033061
5.7450153
5.7802712
5.9113145
5.9620909
5.9942726
6.0612415
6.0716204
6.0766107
6.0688607
5.9862048
5.9672061
5.8387132
5.8260796
5.8260375
5.8384085
5.9670294
5.9860736
6.0674325
6.0712255
6.0598846
6.0703469
6.0596066
5.9918611
5.965961
5.8585272
5.8404023
5.8389667
5.8564848
5.9644502
5.9902579
6.0583774
6.0691596
6.0584097
6.0373545
5.9575635
5.9045658
5.771284
5.7347895
5.7364521
5.7738
5.9068547
5.959595
6.039004
6.0517494
6.0673956
5.9838032
5.9641176
5.8321241
5.8188535
5.8171896
5.8300433
5.9626296
5.9823479
6.0660803
6.0743266
6.0899884
6.0662088
6.050239
5.9657294
5.9857265
5.9237929
5.7807953
5.8209377
5.7531637
5.4181869
5.5348611
5.7225062
5.8888498
5.9685589
5.98515
5.9888155
5.9659083
5.9676298
5.9087816
5.7807798
5.8646772
5.8478354
5.7455589
5.7463245
5.8482993
5.8656106
5.7821016
5.9106232
5.7131593
5.5600923
5.4383295
5.2744496
5.1652552
5.5216876
5.7138538
5.8772402
5.9619233
5.9937161
5.9687185
5.9666933
5.8396429
5.8269361
5.826493
5.83896
5.8306657
5.790269
5.9277248
5.7251621
5.5478788
5.4728012
5.423355
5.3952358
5.4414484
5.2989611
5.44253
5.3956094
5.3131072
5.0759601
5.154634
5.2511738
5.1610908
5.0808879
5.0717057
4.9898804
4.9816177
5.0938186
4.9286028
5.095271
5.2539438
5.5410722
5.1563804
5.0737695
5.077213
4.9917097
5.0826465
5.1641104
4.9835447
4.8382678
5.0367902
5.4260639
5.7635878
5.7643071
5.8310981
5.7911711
5.9290104
5.9892575
5.9856926
5.9693538
5.8906521
5.7272723
5.5418586
5.4265026
5.0009143
5.0009026
4.8903806
4.9194797
4.8390794
4.8220435
4.7865027
4.7915762
4.5473307
4.621064
4.7661245
4.7633927
4.9262364
4.7625432
4.7650309
4.541926
4.5280017
4.3428983
4.6150398
4.8198426
4.9169271
5.032743
4.9971025
4.8878706
4.8361546
4.784167
4.7892132
4.8356879
4.6195433
4.5463802
4.5412111
4.2437607
4.2648311
4.362035
4.1532489
4.3625007
4.3431027
4.6163308
4.5420798
4.243352
4.264544
4.0367289
4.0072037
4.1267234
4.0080324
4.037306
3.9099913
3.8770075
3.8411854
3.9761617
4.220181
4.5385669
4.6130843
4.7633714
4.930257
4.9197765
4.7440354
4.4949775
4.7453431
4.7642755
4.512391
4.3217294
4.2993355
4.5954651
4.5154076
4.1948159
4.1730755
4.5259342
4.8192972
5.4784316
5.5956726
5.7698044
5.9264267
5.9108704
5.7610259
5.5864857
5.4783122
5.4798478
5.8229116
5.75491
5.7830128
5.925747
5.9871315
5.9672191
5.89045
5.7256748
5.5378038
5.4194644
4.9978861
4.8885257
4.8370338
4.9178262
5.0342725
4.8373336
4.7899093
4.7848363
4.8208385
4.9925031
5.0831542
5.1636307
5.2547295
5.1572612
5.0741044
5.0783763
5.097452
4.9843396
4.7683132
4.6215403
4.5468864
4.5416509
4.6166043
4.3444311
4.2440746
4.2653099
4.3639012
4.545497
4.5310685
4.7650851
4.9294371
4.9324383
4.7709805
4.7673382
4.6204273
4.3462373
4.1285298
4.0084771
4.0378835
4.1551509
4.0388225
3.9105742
3.8774693
4.0089374
4.2465451
4.2684158
4.366055
4.6259806
4.5526874
4.5463416
4.7932452
4.8286477
4.9975661
5.0825777
5.3176813
5.3995143
5.4459035
5.5519696
5.7276905
5.4764207
5.4270641
5.3994222
5.4472571
5.3039093
5.1009602
5.259465
5.5436919
5.1610793
5.0786469
5.0876125
5.1702543
4.9899505
4.8453093
5.0437333
5.4292758
4.9252753
4.8449848
4.8958308
5.0077741
4.7988662
4.7983223
4.5518149
4.2677074
4.0378649
3.9095121
3.908825
4.0357184
4.2639525
4.5467825
4.791539
4.7863734
4.8899946
4.838509
4.9187123
5.0365304
4.8378555
4.821401
4.9908198
5.081917
5.1641619
4.9830369
5.095387
5.2544346
5.1553881
5.0723565
5.0760138
4.9244069
4.7614942
4.6147903
4.5414071
4.2423925
4.3407537
4.3604497
4.6196562
4.7647097
4.5399864
4.5252103
4.7600033
4.7638941
4.9277145
5.0953496
5.1094516
5.2976097
5.439061
5.4451618
5.3972773
5.42441
5.3144953
5.3012007
5.4446512
5.7259331
5.5504003
5.4736525
5.3962532
5.1543752
5.0760236
5.0713086
4.9899159
4.982827
5.1635742
5.5386564
5.2535663
5.0801485
4.9156439
4.8191548
4.6119302
4.3391038
4.1238383
4.0060159
3.8756424
4.0046185
4.03448
4.1506623
4.3593111
4.261779
4.2393597
4.537466
4.5440094
4.6178501
4.8363795
4.789932
4.7835807
4.8347255
4.8860806
5.422472
5.0349162
4.9990295
4.9993563
4.7901582
4.5444748
4.2621878
4.0351042
4.0049627
3.8762434
4.0078674
4.1252526
4.1524412
4.3640612
4.3435555
4.2454604
4.5452535
4.6183757
4.6243253
4.7687862
4.5426124
4.3609159
4.3402326
4.2396731
4.5376083
4.6125827
4.6188328
4.766187
4.7615914
4.5271836
4.7643245
4.9265555
4.9307285
5.0998616
4.9885102
4.8442965
4.8271124
4.7921263
4.8434496
4.8948155
5.4291623
5.0072523
5.0426374
4.9235605
5.0857262
4.995216
5.0758875
5.0798333
5.1585259
5.5436732
5.1691818
5.2585267
5.448461
5.3049767
5.0975192
4.9845636
4.8373191
4.8196307
4.7837563
4.8349357
4.8862618
5.4227025
5.0355358
4.9157402
5.0814463
4.9913113
5.0722803
5.0771786
5.155304
5.5396484
5.1647976
5.2554492
5.447635
5.7272495
5.3990947
5.3176839
5.4266168
5.3995507
5.7286363
5.5529968
5.4758901
5.8910496
5.9125194
5.7657831
5.5935505
5.4876418
5.4878948
5.5941487
5.7656637
5.9122104
5.7636329
5.5890587
5.5978757
5.4795809
4.8201976
5.0721294
5.0768646
5.6307219
5.8474145
6.1030948
6.1364983
6.1254658
6.1182351
6.0898668
6.0951213
6.0933923
6.1234628
6.1198486
6.1192274
6.1205169
6.116079
6.1248025
6.1340697
6.1381536
6.1042694
6.1020827
6.0653556
6.0646934
6.1026126
6.1343669
6.146976
6.1388104
6.1471347
6.1085839
6.0852875
6.0793247
6.0717497
6.0951701
6.1025076
6.1048573
6.1402857
6.138246
6.1022788
6.0773721
6.0523172
6.0524253
6.0773679
6.0726781
6.0727548
6.0968039
6.0967383
6.1314801
6.1283633
6.128095
6.1306056
6.0967428
6.0730432
6.0802978
6.0747651
6.0854742
6.0795196
6.0721124
6.0695507
6.0754702
6.0826184
6.0867226
6.0768951
6.0531843
6.0532564
6.0771412
6.0872513
6.08345
6.0758276
6.0679794
6.0618431
6.060892
6.0677732
6.0758516
6.081181
6.0844582
6.0822787
6.0821955
6.0841874
6.0806833
6.0751404
6.0673532
6.0610943
6.0633782
6.074037
6.0727748
6.0836491
6.0844617
6.0855396
6.0974561
6.0850532
6.1157304
6.1194385
6.1264528
6.1264438
6.1577174
6.1596716
6.1602823
6.160428
6.1597353
6.1573389
6.1932312
6.232442
6.2741994
6.2802021
6.2748731
6.2713547
6.2288702
6.2342434
6.2283294
6.2710045
6.2767326
6.287665
6.2741885
6.2316603
6.2368692
6.2300407
6.2727187
6.2746232
6.2320299
6.2326415
6.2751687
6.2880245
6.2856976
6.279323
6.3003826
6.2570253
6.2450112
6.2035576
6.2146262
6.1732178
6.1571369
6.1623263
6.20194
6.2038757
6.1639702
6.177828
6.1790802
6.2218892
6.2217957
6.2669059
6.2453
6.2431189
6.2657101
6.3103712
6.3128349
6.3105383
6.3305639
6.3281717
6.3082808
6.2879214
6.2454312
6.2327526
6.1925798
6.1545724
6.1641524
6.2042143
6.2156883
6.198348
6.1606633
6.1747121