/*--------------------------------*- C++ -*----------------------------------*\
  =========                 |
  \\      /  F ield         | OpenFOAM: The Open Source CFD Toolbox
   \\    /   O peration     | Website:  https://openfoam.org
    \\  /    A nd           | Version:  7
     \\/     M anipulation  |
\*---------------------------------------------------------------------------*/
FoamFile
{
    version     2.0;
    format      ascii;
    class       surfaceScalarField;
    location    "430";
    object      phi;
}
// * * * * * * * * * * * * * * * * * * * * * * * * * * * * * * * * * * * * * //

dimensions      [1 0 -1 0 0 0 0];

internalField   nonuniform List<scalar> 
74922
(
-0.16876474
0.32441495
-16.373933
21.540915
-2.5335949
-2.7890375
0.10482211
-16.282106
-1.2115775
17.022895
-17.608208
17.974534
-0.0031961007
-18.152059
0.22769879
0.29987067
-0.00033956534
0.6209878
0.024481829
-0.4224206
0.68731323
-0.63339391
16.347035
-1.9076403
-2.0910354
29.523053
-0.32731922
-0.83788388
21.547451
1.7765775
-0.62124695
17.640863
-0.49264468
-2.145731
24.773285
-0.083305821
-1.6720108
27.796315
0.35614528
-1.674339
27.854478
-1.844169
-2.1531454
24.915251
0.33653201
-0.61020223
17.77298
1.8325505
-0.82974217
21.69604
-0.4654761
-2.087409
29.812084
-0.74561418
-0.65226612
16.49353
0.46972952
-0.48617985
18.422809
0.40252437
-0.51026051
18.294186
0.26306252
-0.77012454
16.692769
-6.5417542
-0.69843277
29.908355
-7.2597193
1.640288
27.550316
3.6773098
-0.13930514
28.552918
7.1013412
1.5483712
19.842877
4.5901753
-1.9581312
25.434665
-2.6569782
-3.9657697
26.01534
-3.397809
-1.3276817
22.479702
0.85303874
1.3414414
17.491047
7.6448747
2.1682783
24.759294
-0.74003694
-0.22296856
28.386377
0.042649009
-0.68466117
16.417826
0.00042632542
-0.62352118
17.932464
-0.04234972
-0.62371565
17.932491
0.73956357
-0.68541594
16.418477
-7.6300577
-0.22540942
28.378101
-0.85281451
2.1626363
24.751557
3.4072184
17.464033
1.3369432
2.660203
22.440097
-1.3322089
-4.6053954
26.055968
-3.9593577
-7.0968298
25.496087
-1.9438958
-3.6747803
19.859316
1.5667023
7.2698979
28.578255
-0.11172427
6.5568287
27.576065
1.6594189
-0.27134039
29.925943
-0.68726303
-0.37628931
16.706052
-0.76449482
-0.49376357
18.292782
-0.50801814
0.78758716
18.424407
-0.48366132
0.41953018
16.462252
-0.6522035
-1.7985365
29.796024
-2.0810109
-0.41583149
21.628121
-0.83393422
1.7883249
17.687424
-0.60185304
-0.50469662
24.84724
-2.1444355
-0.094062248
27.819769
-1.6635564
0.35358707
27.84611
-1.6708984
-1.8040403
24.900688
-2.1662663
0.25814149
17.679634
-0.61637455
1.9774303
21.628896
-0.80906407
-0.73625606
29.615756
-2.0748639
-0.55142662
16.380476
-0.62592457
-0.42364651
18.147497
-0.39764201
0.80849811
7.5350347
0.3997078
31.277697
-0.18857371
-0.16751218
0.83376654
7.5329242
1.4032951
5.8000625
-3.8802302
-1.1922098
33.054518
-0.51144943
-3.4945826
1.5315054
35.998728
1.3807139
7.97492
2.5994262
5.9189565
-0.18843502
-1.6743275
25.935203
-0.051172946
-3.1562042
29.025156
0.10603337
-3.1558498
29.067949
-2.6457954
-1.688862
26.041612
-1.3989352
5.9494643
0.52601564
8.0248809
3.9653685
-3.5101271
1.548475
36.143813
-1.244468
-1.2742016
33.178539
-0.80323554
5.8261859
-0.37210538
7.5758427
0.66137804
-0.7379059
-0.38744595
30.997376
0.68927868
7.4407956
0.80098416
5.7527497
-5.9261222
-1.0619636
31.555351
-7.1495805
-3.5011828
38.342896
-1.3464341
-5.1812347
40.89096
1.3771068
4.4509582
-6.0318471
44.685783
7.0936712
8.4627561
4.9150472
8.9890408
-3.4711351
-0.56723739
25.330157
-4.6543224
8.2505843
0.55358771
7.8795546
2.8205475
-4.9123792
3.2237172
42.34564
-5.7927303
47.731118
0.020373218
-6.9505856
1.3099394
42.819524
2.0452676
-7.0334062
42.418065
3.9926875
-6.4068092
40.545387
3.9005581
-5.1106584
38.07004
-3.5994497
38.40019
3.6415833
-3.863516
-4.2657503
38.118321
-2.670084
38.873951
-4.8271401
-1.9686151
37.597445
-5.085145
-3.0635083
39.687649
5.0979875
-4.2077386
-3.883953
41.552511
-3.8276034
40.037225
-2.3001198
-5.9552245
41.793637
-0.28920093
-6.3813195
43.064381
1.7036046
-6.3663299
43.263396
6.2877417
3.3789872
-5.9376239
42.279967
2.877097
41.253806
3.3713646
3.6985008
-5.0755936
38.644427
6.8873729
38.19522
-0.80495846
-0.78583909
32.882968
-0.42560677
5.7041267
-0.49241853
7.3715182
-0.75179724
-0.75189884
0.49388658
30.6855
-3.6577402
38.720181
-4.1356175
-4.1385288
3.6571222
38.422165
-5.1476064
40.568451
-3.9445903
-3.9568308
5.1391549
42.298308
-1.9783946
-4.409082
43.72456
0.29374927
-4.6472642
44.431996
2.4825851
-4.6538584
44.244112
-4.4095684
43.204816
4.5446138
-2.2429796
-2.6236758
44.209293
5.6768271
-2.0033659
42.600642
5.6797564
-1.576436
40.477596
4.4140966
-0.9025451
38.126172
-0.34025388
37.382035
-4.9343545
0.044270747
33.5398
-6.0774094
0.053894311
37.833823
-5.959813
0.075644178
40.788372
-4.7009213
0.10517377
43.049226
-2.6794079
0.13864715
44.643875
2.3396921
0.17389644
-0.25202357
45.552525
-0.27317954
45.164042
2.1795032
-2.323066
45.381121
4.3867595
-2.205785
44.863206
5.9209443
-1.9929651
43.730404
3.3840332
-1.7101664
6.2770048
42.288679
5.0710044
40.571867
3.6981645
-2.8778375
3.3716408
38.648403
0.78871137
38.721831
-0.80435887
-6.8833675
32.883555
-0.42616606
5.704322
7.3716674
0.40007406
4.3915907
2.5800026
2.201234
3.9031621
0.13705062
2.4271036
-0.3031524
-0.059767867
-0.13563948
0.52837043
16.270628
-8.9710702e-05
17.656282
0.14032881
0.13513938
17.656595
0.14017739
0.52684185
16.269936
-0.13701257
0.83544725
30.987401
-2.6864553
-16.823538
0.12822037
19.125332
-1.5552625
1.5310529
6.3718015
14.35172
4.6190972
-0.55790294
16.014369
-1.1441548
0.11022339
23.825717
-1.986987
-1.3181544
30.99435
-3.4518161
-0.36995235
27.869492
-2.5637958
2.5540357
23.613196
-22.904219
-2.5093083
-0.24170425
16.019992
-11.401495
-1.7454147
-3.9935074
19.393006
-14.045649
-1.7534615
-1.024527
30.121157
-2.758328
-0.43707198
16.481863
-0.20608262
-0.23828322
17.877496
0.23383752
0.1418475
17.795474
0.21510222
0.34057114
16.429789
-0.048603791
-0.26646986
32.043106
-1.4830565
0.18652289
20.94548
0.24073102
0.63102954
17.271158
-0.030604084
0.01550265
26.823043
-1.378923
0.057880219
29.01116
-1.2232921
0.076019662
28.985868
-1.2224856
-0.58629106
26.738826
-1.3775073
-0.17978886
17.18631
-0.033575074
0.25013293
20.820004
0.24050951
-0.43914823
31.80773
-1.4665542
-0.045772449
-0.081067516
-2.2015903
-0.21242374
2.4493091
-2.5672947
3.0832843
-0.29718642
0.4355243
4.5301051
4.0339965
4.8221343
-0.17014941
-0.83041213
-6.0192053
-1.956436
-2.4892175
32.336055
-2.475612
1.9500364
-38.981639
37.992599
-1.915091
-2.6786463
3.0935594
-3.3902111
-2.5675643
1.1747994
3.417568
-3.6876753
-3.7281186
38.163608
-2.5402568
38.963501
-1.9516631
-4.730425
37.513213
4.4071761
-0.97730061
-5.6435897
38.025281
-0.4081279
37.273278
-4.932592
33.50185
-6.0678565
37.792878
-5.9353832
1.6783208
40.728627
-4.6638434
2.145953
42.946856
-2.6427419
2.434789
44.482609
-0.23027391
2.5893346
45.341009
-0.21004327
2.2858199
2.6398249
45.561197
2.2828705
45.789358
4.6126411
0.24591314
45.389092
6.339457
0.27861357
44.445346
6.9316982
0.28246462
43.278872
1.312009
5.7802243
0.018201366
42.834646
4.9070564
41.262359
3.2223454
-0.55118273
2.8207244
42.350083
38.195225
4.8949862
3.0687358
-3.5502275
38.837592
-5.0558614
-2.7170545
1.0377263
6.2129786
0.3613358
-6.3701375
0.49355354
3.1595294
16.805691
1.5331412
-0.83679956
0.12804377
-1.5512771
19.135408
30.992025
-2.6846114
1.0298913
2.2136034
29.788563
-2.1755142
0.049160442
17.035668
0.029048116
-0.00051483632
18.060039
-0.41811033
-0.049940241
18.060507
-0.41846719
-1.0311407
17.035797
0.029132339
2.2113194
29.788989
-2.1768545
0.03924588
21.753903
-0.57136985
-0.98947947
17.362805
-0.38762114
-1.7505783
25.613
-0.96808762
1.253747
29.468332
-1.4935132
1.20945
29.118925
-1.323219
0.39608044
25.267585
-1.133268
-0.16160928
17.342351
-1.0613795
-1.3170109
21.757914
-1.3286455
0.47174538
29.844912
-1.6453132
-0.25019504
17.020748
-0.041958958
-0.28956306
18.103768
-0.27797511
-0.23165959
18.096638
-0.41508627
-1.3229874
17.133206
0.2012034
1.6659192
30.200092
-1.2819264
0.037293457
22.414716
0.15825326
-0.99916093
18.148084
0.19286647
-0.075798987
26.498952
-0.54904944
0.037617557
29.996491
-1.0812062
0.14051636
29.938118
-1.0824596
1.0231994
26.416082
-0.55393863
-0.037498332
18.092878
0.18755654
-1.7082881
22.328752
0.16099536
30.052677
-1.3006336
0.1341736
0.11790396
30.799412
-0.97800168
0.067821539
17.513348
-0.39479944
-0.0022777697
18.693695
-0.62885032
-0.068810598
18.695428
-17.978676
-0.62989338
-17.033377
17.518264
-0.13049976
-0.39382122
-16.298635
-1.2093184
0.10738326
0.17133488
0.44512374
-0.2176153
-0.042847485
-0.23798798
31.851512
-1.4618026
0.20859002
20.864321
0.25383335
0.63977163
17.2344
-0.033093382
0.021344655
26.790133
-1.3820722
0.075498529
29.007947
-1.2216339
0.10127296
29.00992
-1.2158079
-0.57382611
26.789372
-1.3701531
-0.14618003
17.243536
-0.023600856
0.2802541
20.908693
0.23240012
-0.33158163
31.992931
-1.476658
-0.14539332
16.415725
-0.047630336
0.23856543
17.791288
0.21734334
0.43195928
0.23556276
17.879603
1.0233294
-0.20274016
16.488046
3.9919091
30.131513
-2.7533885
-14.049308
19.394695
0.24151755
-1.7541811
-12.00595
11.417125
14.233554
9.7695322
6.8439064
22.946893
6.3552367
0.3695045
2.5507369
-2.5132299
23.604487
1.3139014
27.843504
-2.5656587
-0.11444772
30.970629
-3.4525859
0.54912013
23.850183
-1.9844548
-14.317335
-1.1403028
16.037513
4.618565
2.7621816
2.3499369
-0.090564833
1.9736158
-0.26117215
2.5554137
-4.5992776
15.341286
-2.149177
-3.1646048
-3.5386035
3.9641948
0.58983645
-4.2171881
6.840703
0.69342354
-6.4815432
-7.8789743
0.12318265
4.658922
3.4720259
8.251778
-0.5584285
25.337499
-4.919302
-4.4527899
47.746417
-6.011924
1.3455588
44.710631
1.3516967
-7.0061659
2.0438899
42.439314
-6.3440828
2.294163
43.086306
-4.6068582
2.4685604
44.264776
2.5980625
45.180141
-2.179091
4.5224166
4.3534036
44.231061
0.20519605
4.6667948
44.659521
2.4984802
4.6176274
44.490611
4.4133264
4.3578537
43.710956
5.588131
3.8423198
42.307634
3.0353308
40.325588
-4.8664702
39.540677
-3.9005147
4.8212254
41.120693
-2.2121835
5.5454114
42.31557
-0.17352963
5.8996663
42.960992
1.9375119
5.9326601
43.068094
3.8254837
5.6580343
42.623018
-4.1954142
5.0507881
5.0735499
41.577008
5.9102457
43.230063
6.3733913
3.8221409
41.819428
5.1570847
3.9917545
40.570146
7.152893
40.919462
-3.4791369
5.9282938
38.369996
-5.0757345
3.8981919
38.094735
4.260086
40.062355
-3.8220048
3.6340212
3.5694466
38.136107
-3.0130161
4.8142377
39.703922
-1.5207934
5.6623568
40.493574
0.13259548
6.0565925
40.805689
1.7350842
6.0441853
40.747177
3.0864635
5.6163279
40.3423
4.7009461
39.551365
-1.9836305
3.4800026
37.539453
-1.0095665
4.3959256
38.054363
-0.083342404
4.9208708
37.815876
0.87287109
4.9178864
37.844933
1.9391538
4.3950961
38.127588
2.6437827
3.4933787
37.596609
0.37083472
1.2607442
38.87635
-0.73679831
0.6540073
31.005598
0.36296887
1.0421964
38.421155
-0.80314269
31.576689
-0.67666246
5.7560431
7.4428948
2.5915457
0.44727197
4.4040771
0.10378643
-0.34027445
3.0635965
-2.2355514
-0.27718534
2.413783
3.9677637
-0.16291657
4.8014153
-0.94792037
6.0490586
-2.1481725
16.327853
0.038896654
0.27723813
-2.7247828
21.509448
-2.7729461
-0.47442991
-0.24797253
17.023795
1.3147544
29.850912
-1.6407986
0.16063876
21.761645
-1.3287039
-16.007275
-0.40226478
17.344874
-1.0623779
-1.7492144
-3.1752365
20.109185
-6.2037896
-3.4264308
-4.0462131
3.8919778
0.40542956
-2.3609567
0.92447051
6.993596
-8.9835406
0.43673664
2.5240149
4.2679585
5.2919572
0.37942884
-2.2229006
-2.539587
18.717118
1.1365572
27.340409
-1.4562916
-8.2228461
-0.080710408
-1.2103325
25.270232
-1.2538851
29.121957
-1.3268736
1.7477629
29.469411
-1.4951531
0.99253986
25.609573
-0.96651059
-0.040680531
17.359284
-0.38562363
21.752426
-0.56875092
-0.35672768
0.032117244
22.831895
-0.75176246
0.004459501
30.723831
-1.2884486
0.01104808
17.535007
-0.47525404
-0.00060680975
18.752341
-0.65877497
-0.011826691
18.752724
-0.65912121
-0.0056312497
17.53517
-0.47493069
0.35515323
30.724094
-1.2880812
0.031054685
22.832121
-0.75177497
-0.34783454
18.467575
-0.69324301
-0.34610142
26.818173
-1.1639135
0.18338919
30.32438
-1.3479243
0.47202628
30.293679
-1.4116545
0.25551522
26.788292
-1.233749
-0.13286727
18.469242
-0.69435362
-0.59776532
22.841216
-0.61866907
-0.24866757
30.712752
-1.2020698
-0.19166952
17.512211
-0.50976997
-0.24298012
18.746727
-0.56496095
-0.17708782
18.748648
-0.69491112
-0.22761139
17.572968
-0.35886417
0.064548104
30.883567
-0.95428536
0.0020240403
23.043143
-0.60038181
-0.17446317
18.668109
-0.4148405
-0.12936757
27.03872
-0.62722217
0.019984867
30.489698
-0.64776757
0.15607457
30.482594
-0.64711724
0.18595285
27.010369
-0.62746746
-0.0099652916
18.632179
-0.41823822
22.989291
-0.59187389
-0.042392266
0.014010192
23.235556
-0.21789557
0.020930669
31.089928
-0.35068496
0.0033562814
17.685045
-0.15321719
-0.0012817717
18.910139
-0.21231494
-0.0043205092
18.910824
-0.21284286
-0.018564996
17.686346
-0.15280054
-30.812986
31.09402
-0.35036796
0.054321389
-30.081238
-0.97684519
0.13536395
1.7288721
-1.2975014
0.063583491
0.17507292
22.355048
-0.97503714
18.114261
0.18528012
-0.054711585
26.471566
-0.55438206
0.061055875
29.990002
-1.0810028
0.16697672
29.953733
-1.077528
1.0553479
26.449286
-0.54379719
-0.0048978398
18.129726
0.20057106
-1.6339628
22.392781
0.14454699
1.3302822
30.176694
-1.2793224
0.23312756
17.124601
0.20172301
0.28738675
18.093154
-0.41325696
18.10458
0.19026922
-0.24209129
18.747856
-0.56473171
0.24670447
17.514209
-0.5081135
0.59565454
30.71627
-1.1994756
0.13189459
22.843435
-0.61856582
-0.25665822
18.470398
-0.69353225
-0.47321547
26.789122
-1.2330179
-0.18444344
30.293955
-1.4107782
0.3451093
30.324336
-1.3474318
0.34655955
26.817946
-1.164695
18.46732
-0.69449614
-0.0092698795
-0.095865928
18.802006
-0.22709102
-0.11691325
23.204242
-0.2627853
-0.040441672
31.086328
-0.43540762
-0.026557617
17.703172
-0.18076522
-0.00062809348
18.943612
-0.21619404
0.025933643
18.943665
-0.21648075
0.039623733
17.703279
-0.18051213
0.11592272
31.0865
-0.43514123
0.0086909555
23.204358
-0.26307327
-0.096504868
18.802153
-0.22690528
-0.099244962
27.218415
-0.39476878
0.019555761
30.672542
-0.46063979
0.10863141
30.682045
-0.46832906
0.059700699
27.240021
-0.39836664
-0.06595254
18.817778
-0.22282075
-0.25186163
23.212728
-0.18677859
-0.17585328
31.064196
-0.4241897
-0.13355768
17.678804
-0.2076943
-0.14780455
18.928795
-0.16651645
-0.076902787
18.928727
-0.25006
-0.087622836
17.712543
-0.12677741
-0.0022134681
31.133833
-0.33172218
0.0020782673
23.266507
-0.22650437
-0.033742164
18.857624
-0.15168305
-0.028441569
27.274075
-0.23472725
0.006676813
30.701571
-0.23978623
0.038003883
30.693886
-0.23911174
0.032199728
27.253908
-0.23518554
18.835772
-0.1555357
-0.025922187
0.018212169
18.878702
-0.036605716
-0.044359007
23.286654
-0.033564524
-0.018072019
31.142231
-0.078500781
-0.0094640287
17.710839
-0.034457274
-0.0014590078
18.941428
-0.039463996
0.0079723782
18.94127
-0.040023236
0.01817999
17.710176
-0.034011899
0.049574893
31.141116
-0.07822927
0.032833032
23.28688
-23.241261
-0.029590534
-18.838778
18.877859
0.031476731
-0.038202901
-18.643725
-0.0061458184
-0.028228454
-0.15930284
-0.14625368
-0.4234167
-0.031056576
-0.10211541
27.017914
-0.63292169
0.048055204
30.483037
-0.6490784
0.18603697
30.492893
-0.64400579
0.21810544
27.034788
-0.61986747
0.022817733
18.658722
-0.40797184
-0.040390724
23.029959
-0.61239014
0.23608264
30.872652
-0.95160507
0.17904076
17.569386
-0.35761582
18.747366
-0.69430658
0.14703829
-0.078126054
18.929368
-0.25006686
0.13241175
18.930339
-0.16658142
0.17426426
17.680386
-0.20683503
0.25018614
31.066551
-0.42293803
0.065295141
23.214111
-0.18694189
-0.06030617
18.818561
-0.22247702
-0.10920727
27.240625
-0.39813595
-0.020140813
30.682282
-0.46825227
0.09862747
30.672531
-0.46064388
27.218277
-0.3948704
0.014136526
-0.032685182
27.316032
-0.080814383
-0.017339167
18.878764
-0.047267537
-0.060126006
23.290602
-0.045342211
-0.038193115
31.158488
-0.094203344
-0.020179833
17.72627
-0.040959376
-0.00035632743
18.962441
-0.038296126
0.01977635
18.962377
-0.038482343
0.03770294
17.726304
-0.040802361
0.059572251
31.158569
-0.094055796
0.0170278
23.290643
-0.045511112
-0.014474213
18.878826
-0.047161804
-0.033013858
27.316093
-0.080748339
-0.025114265
30.757832
-0.093819703
-0.013447656
30.763606
-0.093148021
-0.024122472
27.328629
-0.078778362
-0.047302741
18.887035
-0.047780396
-0.11493876
23.292572
-0.014674755
-0.093628976
31.137831
-0.09515181
-0.066664982
17.706873
-0.055115772
-0.069892738
18.947337
-0.015039167
-0.030157445
18.94766
-0.058374924
-0.022174921
17.724469
-0.01950725
0.01126004
31.168187
-0.067471842
0.012399043
23.307361
-0.042278284
0.0075959573
18.895012
-0.032525446
0.0026830253
27.330841
-0.051362989
-0.0028061401
30.761016
-0.054298062
-0.0096720878
30.753857
-0.055116484
27.313945
-0.053968197
-0.029737645
0.022342665
27.345204
-0.026859925
-0.029482904
18.896899
-0.020353177
-0.046426499
23.304363
-0.0022171214
-0.024492192
31.152666
-0.03291002
-0.011052116
17.713107
-0.016374612
-0.0015705826
18.942472
-0.011117347
0.0090677562
18.941953
-0.011908445
0.022648445
17.711711
-0.015751694
0.046196203
31.149534
-0.032447044
0.030860338
23.30219
-0.0012930568
0.0334051
18.894626
-0.020566072
-27.312524
27.342713
0.028319667
-0.026764859
-27.255926
0.029099336
-0.055047763
7.3726264e-05
-0.23970688
0.03618551
30.693171
-0.24132943
0.067898216
30.700967
-0.23730453
0.06204701
27.273915
-0.22948935
0.014428559
18.855822
-0.14699541
0.01837382
23.262086
-0.23523967
0.093311514
31.131723
-0.33045985
17.712546
-0.12603623
0.030270012
-0.024496981
17.726389
-0.019289673
0.068814602
18.949442
-0.058356511
0.065633268
18.949096
-0.015305692
0.092344556
17.708251
-0.05464573
0.11372394
31.139581
-0.094600361
0.046818777
23.293467
-0.014888807
0.023730359
18.887534
-0.047578594
0.013132639
27.329017
-0.078633474
0.02481322
30.763768
-0.093084612
30.757853
-0.093820521
0.012510721
-0.027546873
30.799476
-0.028711911
-0.0059921307
27.358745
-0.026370343
-0.018967087
18.908367
-0.018606019
-0.041708333
23.32028
-0.0087693069
-0.026683337
31.176957
-0.034262066
-0.012739234
17.728927
-0.017260682
-0.000159687
18.960428
-0.011036228
0.012517736
18.96037
-0.011140522
0.026413044
17.728925
-0.017175613
0.041426271
31.176976
-0.034190614
0.018810955
23.320299
-0.0088693648
0.0058258264
18.908396
-0.018563693
-0.012662579
27.358764
-0.026347766
-0.027702061
30.799458
-0.028719056
-0.035261716
30.797405
-0.02780249
-0.03754967
27.35436
-0.025006746
-0.036079195
18.903471
-0.019345074
-0.062677974
23.310804
0.0066093188
-0.045073566
31.153079
-0.033542635
-0.028909709
17.712075
-0.022152908
-0.02642583
18.945902
-0.0016450422
-0.007522908
18.947781
-0.019590254
0.0019480493
17.723504
-0.0091080768
0.022323379
31.174553
-0.027332858
0.016044071
23.322961
-0.010458548
0.014313665
18.91258
-0.016668405
0.0058664588
27.362887
-0.024298221
-0.0084578706
30.799473
-0.027108798
30.791513
-0.027962681
-0.022157564
0.010488545
30.83416
-0.034771824
-0.026943981
27.379703
-0.032683482
-0.026305924
18.918394
-0.024254441
-0.040901416
23.325132
-0.0080486228
-0.020065284
31.169108
-0.038388453
-0.0093264789
17.721401
-0.020270293
-0.001558608
18.949222
-0.015669525
0.007199562
18.948628
-0.016587075
0.017215417
17.720014
-0.019555445
0.037600902
31.165843
-0.037819536
0.024542918
23.322429
-0.0089961729
0.025081443
18.916052
-0.02378519
0.020408129
27.377416
-0.032176093
-30.789959
30.833429
0.0088993442
-0.034307953
-30.751492
0.015563736
-0.027599355
0.025064321
-0.05537965
0.017509544
30.760796
-0.053827023
0.0069033821
27.333217
-0.049961598
-0.0041706166
18.896554
-0.030500467
-0.0035104619
23.307956
-0.046970999
31.17089
-0.067032011
-0.0023051417
0.021035703
31.178905
-0.027384682
0.0067560566
17.72598
-0.0092687361
0.025050921
18.949861
-0.019275216
0.027986247
18.947553
-0.0019768
0.044045402
17.713216
-0.021800343
0.06179198
31.15438
-0.033228977
0.035730567
23.311379
0.0064132809
0.037282188
18.90378
-0.019220544
0.035074094
27.354594
-0.024921114
30.797501
-0.027763278
0.018517415
-0.02750307
30.836472
-0.032177384
0.0042230357
30.843841
-0.032630415
-0.0084725572
27.399241
-0.030212738
-0.016185165
18.935608
-0.021674797
-0.031072859
23.34704
-0.01387574
-0.016397596
31.199018
-0.038033008
-0.0079471183
17.739105
-0.019924008
-8.1984777e-05
18.967818
-0.016423054
0.007837187
18.967756
-0.016472496
0.016254353
17.739093
-0.019882301
0.030926486
31.199007
-0.038004313
0.016107734
23.347037
-0.013927614
0.0083925389
18.935614
-0.021655377
-0.0043000339
27.399246
-0.030206662
-0.018599552
30.843829
-0.032637813
-0.027617036
30.83642
-0.032200529
-0.028600186
27.382935
-0.029622889
-0.025636499
18.920825
-0.022080541
-0.039226744
23.327875
-0.0053269001
-0.021443171
31.170174
-0.036091491
-0.012355077
17.722407
-0.020765092
-0.0082001765
18.953503
-0.012996144
0.00092119331
18.956717
-0.019291295
0.0071888153
17.732804
-0.016878205
0.023069699
31.192974
-0.035573004
0.014201804
23.345362
-0.015294714
0.010585891
18.935714
-0.021180324
0.0025248903
27.399876
-0.03054995
30.843534
-0.03407042
-0.0099057111
0.00046763938
30.882724
-0.032786908
-0.017866289
30.872549
-0.033276331
-0.020373246
27.410691
-0.031186327
-0.020018481
18.938395
-0.022813222
-0.030943433
23.344456
-0.010794511
-0.013995426
31.186863
-0.036532012
-0.0067843967
17.731747
-0.019494722
-0.0013483745
18.958328
-0.016389426
0.0048592139
18.957814
-0.017245551
0.011063406
17.730674
-0.018813208
0.02672611
31.184291
-0.035976062
0.017104528
23.342134
-0.012458115
0.016310038
18.936504
-0.022129391
0.012933471
27.408756
-0.030675586
0.00470531
30.871795
-0.033004788
-30.844713
30.883595
-0.0043258891
-0.032786044
-30.80043
-0.003981958
-0.033880207
0.00060188288
-0.026791872
-0.0099486957
27.365929
-0.023992305
-0.013914364
18.915256
-0.016192735
23.325658
-0.011826369
-0.025438134
0.015525618
23.348384
-0.014617533
-0.0090313603
31.197095
-0.035844548
-0.0021198584
17.735006
-0.017231453
0.006742819
18.958547
-0.01876556
0.01157134
18.95481
-0.01330985
0.020658622
17.723263
-0.020456694
0.038605841
31.171089
-0.035848829
0.02539837
23.328232
-0.0054722622
0.028423348
18.921005
-0.022001901
27.383067
-0.029572068
0.016612958
-0.017566747
27.410855
-0.029456561
0.0098672625
30.872525
-0.032091102
0.00025896198
30.882747
-0.032267126
-0.0071173115
27.433497
-0.029704056
-0.012049821
18.958873
-0.02094576
-0.022034801
23.370073
-0.015493477
-0.0096954588
31.220845
-0.036129702
-0.0049412858
17.751314
-0.01895456
-4.3233011e-05
18.9783
-0.017260082
0.0048817783
18.978238
-0.01728836
0.0096336844
17.751279
-0.018933467
0.021975158
31.220812
-0.036112311
0.012019618
23.37006
-0.015516122
0.0070837342
18.958869
-0.020941082
-0.00029161014
27.4335
-0.029707312
-0.0099076279
30.882749
-0.032279391
-0.016676767
30.872505
-0.032107956
-0.017673595
27.41079
-0.029490921
-0.01670272
18.938577
-0.021138811
-0.025125746
23.345055
-0.011103489
-0.010706788
31.188386
-0.034540914
-0.0057364177
17.734128
-0.018706331
-0.0021254977
18.964051
-0.01609046
0.0026523407
18.96806
-0.018052724
0.0061208655
17.745104
-0.01779791
0.017819967
31.21426
-0.034978908
0.010072061
23.367394
-0.016676923
0.0058230344
18.957816
-0.020427242
27.432933
-0.029603407
-0.0019742726
-0.0022487536
27.456852
-0.02318182
-0.0079027721
30.91061
-0.025581843
-0.012541251
30.899622
-0.025924622
-0.013523606
27.432625
-0.024319419
-0.013452701
18.952829
-0.017708642
-0.020724903
23.358199
-0.0095317355
-0.0086447628
31.200325
-0.028192355
-0.0043809206
17.739934
-0.015186611
-0.0010384051
18.965598
-0.013242589
0.0028704062
18.965204
-0.013936643
0.0062029461
17.739221
-0.014632306
0.016920298
31.198592
-0.027712414
0.010621332
23.356541
-0.011166362
0.009383244
18.95156
-0.017059091
0.0073318174
27.431295
-0.023890196
0.0022968286
30.899072
-0.02577308
-0.003175505
30.911174
-0.025668375
-27.434981
27.458213
-0.0062831914
-0.023546886
-27.402459
-0.0096718966
-0.029935143
-0.012050289
-0.030705035
18.938269
-0.021474706
-0.012743681
18.959805
-0.021000151
-0.021480705
23.369893
-0.015160257
-0.0083745305
31.217373
-0.035323178
-0.0038886415
17.74672
-0.018197858
0.00083153376
18.969416
-0.017491525
0.0051224276
18.964966
-0.016353176
0.01013946
17.734709
-0.018458327
0.024712034
31.188975
-0.034355978
0.016554458
23.34526
-0.011197035
18.938678
-0.02108471
0.0095682366
-0.009955316
18.952471
-0.016607332
0.0087123874
27.431897
-0.023534962
0.0044693675
30.898934
-0.025649273
-0.0010934925
30.910469
-0.025724512
-0.0049158061
27.457527
-0.023647677
-0.0080671491
18.975307
-0.016579661
-0.01445616
23.386226
-0.012846966
-0.0054212566
31.236998
-0.02792426
-0.0029413241
17.760821
-0.014759724
-2.0618407e-05
18.986676
-0.013950464
0.002921025
18.986603
-0.013959841
0.0053973216
17.760785
-0.014757207
0.014437001
31.23696
-0.027928646
0.0080574988
23.386212
-0.012856912
0.0049077457
18.975303
-0.016585903
0.0010852622
27.457531
-0.023658627
-0.0044829026
30.910475
-0.025735853
-0.0087408903
30.89893
-0.025666695
-0.0096242469
27.431867
-0.023562029
-0.010043121
18.952423
-0.016643717
-0.01547149
23.358293
-0.010849765
-0.0054147374
31.202609
-0.027005239
-0.0029139072
17.74328
-0.014443075
-0.0005159259
18.972525
-0.013554609
0.0020640232
18.976949
-0.014158291
0.0036103117
17.754984
-0.014235177
0.011456399
31.230876
-0.0272466
0.0060073293
23.383656
-0.01390209
18.974198
-0.01596053
9.3491579e-05
-0.0030847129
18.984497
-0.01147194
-0.002356594
27.47171
-0.016664457
-0.0055195177
30.927749
-0.018354613
-0.0077466023
30.916146
-0.018590343
-0.0078631047
27.446007
-0.017450864
-0.0081362295
18.961707
-0.012675469
-0.012568074
23.36641
-0.0076146319
-0.0046046468
31.208664
-0.019824898
-0.0025181019
17.74511
-0.01084773
-0.00071542532
18.970154
-0.0098148649
0.0014635231
18.969871
-0.010307742
0.0028536811
17.744679
-0.010442623
0.0097258797
31.207642
-0.019471328
0.0059522603
23.365364
-0.0088831472
0.0046100918
18.960962
-0.012158117
0.0035968907
27.445222
-0.017115035
0.0010228358
30.915811
-0.018481927
-0.0017689574
30.928064
-0.01843096
-0.0032982787
27.472492
-0.016962701
-18.975507
18.985246
-0.0052011395
-0.011949745
-0.008704109
-0.016552646
-0.014930608
23.385399
-0.012347252
-0.0056201573
31.232902
-0.027565467
-0.0030981347
17.756014
-0.01458928
-0.00049218946
18.977831
-0.013678548
0.0024754491
18.973086
-0.013745257
0.0050361797
17.743637
-0.01425368
0.01521318
31.202956
-0.026863731
23.358399
-0.010905218
0.0055333446
-0.0087983209
23.366793
-0.0089374082
0.0045060279
18.961463
-0.012040964
0.0039821371
27.445386
-0.017143985
0.0017574094
30.915539
-0.018673032
-0.0010061135
30.927617
-0.018710231
-0.0027356243
27.472254
-0.01721001
-0.0048809243
18.985398
-0.012060392
-0.0087321454
23.395943
-0.0097038181
-0.0025852691
31.246981
-0.019692254
-0.0015915224
17.766807
-0.010575748
-3.8722156e-06
18.991927
-0.010300281
0.0015869434
18.991852
-0.010299416
0.0025871855
17.766764
-0.010575648
0.0087438441
31.246939
-0.01969939
0.0048895424
23.395928
-0.0097061563
0.0027424787
18.985396
-0.012073286
0.0010130588
27.472257
-0.017223081
-0.0017533022
30.927626
-0.018724509
-0.0039869645
30.91555
-0.018694521
-0.0045281288
27.445384
-0.017169747
-0.0055765134
18.961444
-0.012066756
-0.0089481665
23.366752
-0.0089180268
-0.0024185946
31.211765
-0.019252824
-0.0014765649
17.749112
-0.010388456
-0.00018346263
18.977901
-0.010158975
0.0011204907
18.982545
-0.010392559
0.0014203042
17.761327
-0.010276969
0.0064506369
31.241465
-0.019230837
23.393727
-0.010563555
0.0013825008
-0.0033487873
23.399159
-0.0080927198
-0.0009567493
18.990158
-0.0083014821
-0.0021230488
27.479844
-0.01200178
-0.0034149176
30.937074
-0.013180189
-0.004117774
30.925086
-0.013333745
-0.0038220763
27.45322
-0.012504886
-0.004471929
18.966486
-0.0090563528
-0.0070253894
23.370646
-0.0062952932
-0.0018771715
31.213116
-0.013927569
-0.0012513158
17.747885
-0.0077796407
-0.00043987076
18.972575
-0.0074661402
0.00059677671
18.972375
-0.0077778641
0.00076259161
17.747648
-0.0075188696
0.0051912989
31.212556
-0.013685769
0.0030331559
23.370044
-0.0071288555
0.0016637913
18.966098
-0.0087044254
0.0013459343
27.452808
-0.012270224
0.00040131957
30.924901
-0.013250315
-0.00064082026
30.937226
-0.01323012
-0.0011833637
27.480238
-0.012206654
-0.0027851332
18.990534
-0.0086252002
-23.394793
23.399748
-0.00507481
-0.0072684115
-0.0091030674
-0.0093289225
-0.0029100698
31.242624
-0.019469794
-0.0018603466
17.761906
-0.010536339
-0.00050725311
18.983056
-0.010040419
0.001190621
18.978207
-0.010283287
0.0021858737
17.749306
-0.010256445
31.21195
-0.019153853
0.0047836939
-0.00046845376
31.216899
-0.013595486
0.0028248565
23.371384
-0.0072215265
0.0015547394
18.966515
-0.0087036507
0.0014096344
27.452932
-0.012385871
0.00059460843
30.924733
-0.013469421
-0.00041707725
30.937015
-0.013484932
-0.0009975271
27.480265
-0.012426995
-0.0026706455
18.990877
-0.0087417346
-0.0048962468
23.401053
-0.0074824656
-0.00073685937
31.25234
-0.013854956
-0.00071449054
17.770029
-0.0076199417
3.1958545e-06
18.994735
-0.0077537314
0.00072694342
18.994648
-0.0077467483
0.00075476291
17.769985
-0.0076280146
0.0049232209
31.252294
-0.013869012
0.0026832693
23.401039
-0.0074781451
0.0010146403
18.990875
-0.0087541284
0.00043582396
27.480277
-0.012448644
-0.0005779625
30.937033
-0.013508688
-0.0013991927
30.924753
-0.013491215
-0.0015554798
27.452947
-0.012409355
-0.0028447928
18.966524
-0.0087274765
-0.0048597407
23.37138
-0.0072211822
-0.00059792909
31.216819
-0.013668933
-0.00064736882
17.752303
-0.0075359878
-0.00011301074
18.980812
-0.0076985349
0.00042819437
18.985569
-0.0078233234
-1.6732972e-05
17.764804
-0.0074419484
31.247271
-0.013553395
0.0017426134
0.00079110737
31.249957
-0.010190281
0.00056393674
23.401644
-0.0065450297
-0.001319662
18.99282
-0.0063939573
-0.0016635297
27.48367
-0.0091129491
-0.0018441922
30.941436
-0.0099011478
-0.001704985
30.929247
-0.0099881851
-0.0012560906
27.456559
-0.0093935737
-0.0022252966
18.968682
-0.0068101567
-0.0037025451