/*--------------------------------*- C++ -*----------------------------------*\
  =========                 |
  \\      /  F ield         | OpenFOAM: The Open Source CFD Toolbox
   \\    /   O peration     | Website:  https://openfoam.org
    \\  /    A nd           | Version:  7
     \\/     M anipulation  |
\*---------------------------------------------------------------------------*/
FoamFile
{
    version     2.0;
    format      ascii;
    class       volScalarField;
    location    "430";
    object      rho;
}
// * * * * * * * * * * * * * * * * * * * * * * * * * * * * * * * * * * * * * //

dimensions      [1 -3 0 0 0 0 0];

internalField   nonuniform List<scalar> 
24866
(
1.173907
1.1739063
1.1739064
1.1739067
1.1739068
1.1739067
1.1739068
1.1739068
1.1739067
1.1739068
1.1739068
1.1739068
1.1739068
1.1739067
1.1739068
1.1739068
1.1739067
1.1739068
1.1739067
1.1739067
1.1739067
1.1739068
1.1739068
1.1739068
1.1739067
1.1739068
1.1739067
1.1739068
1.1739069
1.1739068
1.1739068
1.1739068
1.1739068
1.1739068
1.1739068
1.1739069
1.1739069
1.1739068
1.1739068
1.1739067
1.1739068
1.1739069
1.1739068
1.1739068
1.1739067
1.1739068
1.1739068
1.1739068
1.1739069
1.1739068
1.1739068
1.1739068
1.1739069
1.1739068
1.1739068
1.1739068
1.1739068
1.1739068
1.1739067
1.1739068
1.1739071
1.1739074
1.1739071
1.1739071
1.1739073
1.1739076
1.1739072
1.1739071
1.1739073
1.1739074
1.1739074
1.1739073
1.1739072
1.1739072
1.1739076
1.1739073
1.1739071
1.1739071
1.1739074
1.1739071
1.1739071
1.1739073
1.1739075
1.1739077
1.1739078
1.1739073
1.1739072
1.1739073
1.1739072
1.1739073
1.1739077
1.1739079
1.1739089
1.1739089
1.1739086
1.1739083
1.1739078
1.1739085
1.1739078
1.1739084
1.1739092
1.17391
1.1739091
1.1739097
1.17391
1.17391
1.1739097
1.1739087
1.1739083
1.1739075
1.1739073
1.1739071
1.1739072
1.1739074
1.1739079
1.1739086
1.1739092
1.1739101
1.1739107
1.1739111
1.1739111
1.1739107
1.1739115
1.1739107
1.1739097
1.1739088
1.1739079
1.1739081
1.173909
1.17391
1.1739111
1.173912
1.1739125
1.173912
1.173912
1.1739116
1.1739107
1.1739097
1.1739092
1.1739083
1.1739079
1.1739074
1.1739072
1.1739072
1.173907
1.173907
1.1739071
1.1739067
1.1739067
1.1739067
1.1739067
1.1739067
1.1739066
1.1739066
1.1739066
1.1739066
1.1739067
1.1739067
1.1739066
1.1739065
1.1739064
1.1739065
1.1739067
1.1739066
1.1739067
1.1739067
1.1739066
1.1739068
1.1739067
1.1739066
1.1739067
1.1739067
1.1739067
1.1739067
1.1739066
1.1739067
1.1739068
1.1739066
1.173907
1.1739071
1.173907
1.1739069
1.1739073
1.173907
1.1739073
1.1739073
1.1739079
1.1739079
1.1739085
1.1739078
1.1739084
1.1739088
1.1739079
1.1739081
1.173909
1.17391
1.1739111
1.173912
1.1739125
1.1739125
1.1739126
1.173912
1.1739111
1.17391
1.1739089
1.1739087
1.1739077
1.1739076
1.1739075
1.1739074
1.1739073
1.1739067
1.1739066
1.1739068
1.1739066
1.1739064
1.1739065
1.1739065
1.1739064
1.1739066
1.1739064
1.1739064
1.1739065
1.1739066
1.1739065
1.1739065
1.1739063
1.1739063
1.1739065
1.1739063
1.1739064
1.1739064
1.1739063
1.1739066
1.1739064
1.1739064
1.1739065
1.1739065
1.1739065
1.1739065
1.1739064
1.1739064
1.1739066
1.1739061
1.1739058
1.1739059
1.1739059
1.1739058
1.1739063
1.1739066
1.1739068
1.1739067
1.1739067
1.1739067
1.1739068
1.1739068
1.1739068
1.1739067
1.1739068
1.1739068
1.1739067
1.1739067
1.1739067
1.1739066
1.1739067
1.1739065
1.1739066
1.1739067
1.1739066
1.1739066
1.1739067
1.1739068
1.1739067
1.1739066
1.1739066
1.173907
1.1739071
1.1739071
1.1739071
1.1739073
1.1739073
1.1739076
1.1739074
1.1739073
1.1739072
1.1739073
1.1739079
1.1739078
1.1739089
1.17391
1.1739111
1.173912
1.1739116
1.173912
1.173912
1.1739115
1.1739107
1.1739097
1.1739092
1.17391
1.1739107
1.1739111
1.1739111
1.1739107
1.17391
1.1739107
1.1739097
1.1739087
1.1739077
1.1739075
1.1739083
1.1739092
1.1739086
1.1739092
1.1739098
1.1739101
1.1739101
1.1739097
1.1739092
1.1739084
1.1739088
1.173909
1.173909
1.1739088
1.1739084
1.1739079
1.1739074
1.1739078
1.1739073
1.1739071
1.1739071
1.173907
1.1739071
1.1739071
1.1739069
1.1739073
1.1739073
1.1739071
1.173907
1.1739063
1.1739065
1.1739064
1.1739063
1.1739065
1.1739073
1.1739072
1.1739075
1.1739076
1.1739071
1.1739073
1.1739072
1.1739072
1.1739072
1.1739065
1.1739066
1.1739066
1.1739066
1.1739065
1.1739065
1.1739061
1.1739062
1.1739059
1.173906
1.173906
1.1739059
1.1739062
1.173906
1.1739059
1.1739061
1.1739061
1.1739061
1.173906
1.1739058
1.173906
1.1739061
1.1739058
1.1739059
1.1739059
1.1739058
1.1739061
1.173906
1.1739059
1.173906
1.1739061
1.1739061
1.173906
1.1739058
1.173906
1.1739054
1.1739055
1.1739051
1.1739053
1.1739053
1.1739051
1.1739055
1.1739061
1.1739066
1.1739064
1.1739064
1.1739065
1.1739065
1.1739065
1.1739065
1.1739064
1.1739065
1.1739066
1.1739064
1.1739065
1.1739065
1.173906
1.1739058
1.1739061
1.173906
1.1739059
1.1739061
1.1739061
1.1739061
1.1739061
1.173906
1.1739053
1.1739055
1.1739057
1.1739052
1.1739054
1.1739054
1.1739052
1.1739056
1.1739055
1.1739053
1.1739055
1.1739056
1.1739056
1.1739055
1.1739052
1.1739054
1.1739056
1.1739051
1.1739053
1.1739053
1.1739051
1.1739056
1.1739054
1.1739052
1.1739055
1.1739055
1.1739055
1.1739054
1.1739052
1.1739043
1.1739045
1.1739048
1.1739042
1.1739044
1.1739044
1.1739042
1.1739048
1.1739045
1.1739044
1.1739052
1.1739059
1.173906
1.1739061
1.1739061
1.1739061
1.1739059
1.173906
1.1739062
1.1739058
1.173906
1.1739054
1.1739054
1.1739052
1.1739056
1.1739055
1.1739053
1.1739056
1.1739056
1.1739056
1.1739056
1.1739048
1.1739045
1.1739047
1.1739049
1.1739043
1.1739046
1.1739046
1.1739043
1.1739049
1.1739047
1.1739045
1.1739048
1.1739048
1.1739048
1.1739047
1.1739044
1.1739046
1.1739048
1.1739042
1.1739045
1.1739045
1.1739042
1.1739048
1.1739046
1.1739043
1.1739047
1.1739047
1.1739047
1.1739047
1.1739035
1.1739031
1.1739033
1.1739037
1.1739028
1.1739032
1.1739032
1.1739029
1.1739037
1.1739034
1.1739031
1.1739036
1.1739047
1.1739055
1.1739055
1.1739056
1.1739055
1.1739053
1.1739054
1.1739056
1.1739052
1.1739043
1.1739045
1.1739046
1.1739043
1.1739049
1.1739047
1.1739045
1.1739048
1.1739049
1.1739049
1.1739038
1.1739037
1.1739033
1.1739036
1.1739039
1.1739031
1.1739034
1.1739034
1.173903
1.1739039
1.1739035
1.1739032
1.1739037
1.1739038
1.1739038
1.1739037
1.1739032
1.1739034
1.1739038
1.1739029
1.1739033
1.1739033
1.1739029
1.1739037
1.1739034
1.1739031
1.1739035
1.1739036
1.1739036
1.1739021
1.173902
1.1739013
1.1739017
1.1739022
1.1739011
1.1739016
1.1739016
1.1739011
1.1739022
1.1739017
1.1739014
1.173902
1.1739022
1.1739037
1.1739048
1.1739048
1.1739047
1.1739044
1.1739046
1.1739049
1.1739038
1.173903
1.1739034
1.1739034
1.173903
1.1739038
1.1739035
1.1739033
1.1739037
1.1739038
1.1739023
1.1739023
1.1739022
1.1739016
1.173902
1.1739024
1.1739013
1.1739018
1.1739018
1.1739013
1.1739024
1.1739019
1.1739015
1.1739022
1.1739023
1.1739023
1.1739021
1.1739015
1.1739018
1.1739023
1.1739011
1.1739016
1.1739016
1.1739011
1.1739022
1.1739018
1.1739014
1.173902
1.1739021
1.1739001
1.1739001
1.1738999
1.1738991
1.1738996
1.1739002
1.1738988
1.1738994
1.1738994
1.1738988
1.1739002
1.1738996
1.1738991
1.1739
1.1739001
1.1739002
1.1739022
1.1739037
1.1739036
1.1739032
1.1739035
1.1739018
1.1739023
1.1739012
1.1739017
1.1739017
1.1739012
1.1739024
1.1739019
1.1739016
1.1739022
1.1739002
1.1739004
1.1739004
1.1739002
1.1738994
1.1738999
1.1739005
1.1738991
1.1738997
1.1738997
1.173899
1.1739004
1.1738998
1.1738993
1.1739001
1.1739003
1.1739003
1.1739001
1.1738993
1.1738997
1.1739003
1.1738989
1.1738995
1.1738995
1.1738988
1.1739002
1.1738996
1.1738991
1.1738999
1.1738974
1.1738976
1.1738976
1.1738973
1.1738964
1.173897
1.1738977
1.173896
1.1738968
1.1738968
1.173896
1.1738977
1.173897
1.1738964
1.1738974
1.1738976
1.1738977
1.1738975
1.1739
1.1739021
1.1739014
1.1738992
1.1738997
1.1739003
1.1738989
1.1738996
1.1738996
1.173899
1.1739004
1.1738998
1.1738994
1.1738967
1.1738977
1.1738979
1.1738979
1.1738977
1.1738967
1.1738973
1.173898
1.1738964
1.1738972
1.1738971
1.1738963
1.173898
1.1738973
1.1738966
1.1738976
1.1738978
1.1738978
1.1738975
1.1738965
1.1738971
1.1738978
1.1738961
1.1738969
1.1738969
1.1738961
1.1738978
1.173897
1.1738964
1.1738934
1.1738945
1.1738947
1.1738947
1.1738944
1.1738934
1.1738941
1.1738949
1.1738931
1.173894
1.173894
1.1738931
1.1738949
1.1738941
1.1738934
1.1738945
1.1738948
1.1738948
1.1738946
1.1738935
1.1738965
1.1738972
1.1738979
1.1738962
1.173897
1.1738971
1.1738963
1.173898
1.1738973
1.1738944
1.1738937
1.1738948
1.1738951
1.1738951
1.1738948
1.1738938
1.1738945
1.1738953
1.1738935
1.1738944
1.1738944
1.1738934
1.1738952
1.1738944
1.1738937
1.1738947
1.1738949
1.1738949
1.1738947
1.1738936
1.1738943
1.1738951
1.1738932
1.1738941
1.1738941
1.1738932
1.173895
1.1738942
1.1738915
1.1738907
1.1738917
1.1738919
1.1738919
1.1738917
1.1738906
1.1738914
1.1738922
1.1738905
1.1738914
1.1738915
1.1738905
1.1738923
1.1738915
1.1738907
1.1738918
1.173892
1.173892
1.1738919
1.1738908
1.1738917
1.1738943
1.1738951
1.1738933
1.1738943
1.1738943
1.1738934
1.1738952
1.1738926
1.1738918
1.1738911
1.1738921
1.1738923
1.1738923
1.1738921
1.1738911
1.1738919
1.1738927
1.1738909
1.1738919
1.1738919
1.1738909
1.1738926
1.1738918
1.173891
1.173892
1.1738922
1.1738922
1.1738919
1.1738909
1.1738916
1.1738924
1.1738907
1.1738916
1.1738916
1.1738906
1.1738923
1.1738906
1.1738899
1.1738892
1.1738899
1.1738899
1.1738899
1.1738898
1.1738891
1.1738898
1.1738905
1.1738891
1.17389
1.17389
1.1738892
1.1738905
1.1738899
1.1738892
1.1738899
1.17389
1.17389
1.17389
1.1738893
1.1738901
1.1738908
1.1738925
1.1738908
1.1738918
1.1738918
1.1738908
1.1738895
1.1738909
1.1738903
1.1738895
1.1738903
1.1738904
1.1738904
1.1738903
1.1738896
1.1738903
1.173891
1.1738896
1.1738905
1.1738904
1.1738896
1.1738909
1.1738902
1.1738895
1.1738902
1.1738902
1.1738902
1.1738901
1.1738893
1.17389
1.1738907
1.1738893
1.1738901
1.1738901
1.1738893
1.17389
1.1738908
1.1738904
1.1738898
1.1738902
1.1738901
1.1738901
1.1738902
1.1738897
1.1738903
1.1738907
1.1738899
1.1738906
1.1738906
1.17389
1.1738907
1.1738903
1.1738898
1.1738903
1.1738902
1.1738902
1.1738904
1.17389
1.1738906
1.173891
1.1738903
1.1738895
1.1738903
1.1738904
1.173891
1.1738903
1.1738911
1.1738908
1.1738902
1.1738907
1.1738906
1.1738906
1.1738907
1.1738903
1.1738908
1.1738912
1.1738904
1.173891
1.173891
1.1738904
1.1738911
1.1738907
1.1738901
1.1738905
1.1738904
1.1738904
1.1738904
1.17389
1.1738905
1.1738909
1.1738901
1.1738907
1.1738907
1.1738937
1.1738934
1.1738936
1.1738934
1.1738932
1.1738933
1.1738932
1.1738932
1.1738933
1.1738932
1.1738934
1.1738935
1.1738933
1.1738936
1.1738936
1.1738933
1.1738936
1.1738934
1.1738933
1.1738934
1.1738933
1.1738933
1.1738935
1.1738934
1.1738937
1.1738939
1.1738936
1.173894
1.1738909
1.1738921
1.1738909
1.1738922
1.173892
1.1738904
1.1738922
1.1738914
1.1738911
1.1738911
1.1738914
1.1738923
1.1738939
1.1738937
1.1738939
1.173894
1.1738938
1.1738941
1.1738941
1.1738937
1.173894
1.1738938
1.1738936
1.1738936
1.1738935
1.1738935
1.1738935
1.1738934
1.1738936
1.1738937
1.1738934
1.1738938
1.1738987
1.1738987
1.1738986
1.1738984
1.1738984
1.1738985
1.1738983
1.1738982
1.1738982
1.1738983
1.1738984
1.1738984
1.1738983
1.1738986
1.1738986
1.1738986
1.1738986
1.1738983
1.1738985
1.1738985
1.1738984
1.1738983
1.1738984
1.1738985
1.1738987
1.1738987
1.1738986
1.1738989
1.1738989
1.173899
1.173894
1.1738937
1.173894
1.1738939
1.1738937
1.1738938
1.1738937
1.1738937
1.1738938
1.1738988
1.1738989
1.1738988
1.1738988
1.1738989
1.173899
1.173899
1.1738989
1.1738987
1.1738987
1.1738988
1.1738986
1.1738985
1.1738984
1.1738985
1.1738986
1.1738986
1.1738985
1.1738987
1.1739049
1.1739047
1.1739047
1.1739049
1.1739043
1.1739045
1.1739048
1.1739044
1.1739043
1.1739043
1.1739044
1.1739048
1.1739045
1.1739042
1.1739049
1.1739047
1.1739047
1.173905
1.1739043
1.1739046
1.1739049
1.1739045
1.1739044
1.1739045
1.1739046
1.173905
1.1739047
1.1739045
1.1739051
1.1739049
1.173905
1.1739051
1.1738989
1.1738987
1.1738988
1.1738989
1.1738988
1.1738987
1.1738987
1.1739046
1.1739048
1.1739051
1.1739048
1.1739046
1.1739051
1.1739049
1.1739049
1.1739051
1.1739045
1.1739047
1.173905
1.1739046
1.1739045
1.1739044
1.1739045
1.1739049
1.1739046
1.1739043
1.1739108
1.1739117
1.1739114
1.1739113
1.1739118
1.1739108
1.1739112
1.1739117
1.1739111
1.1739109
1.1739109
1.1739111
1.1739117
1.1739113
1.1739109
1.1739119
1.1739114
1.1739114
1.1739119
1.1739109
1.1739113
1.1739118
1.1739112
1.1739111
1.1739111
1.1739113
1.1739119
1.1739113
1.173911
1.1739119
1.1739115
1.1739115
1.1739118
1.173911
1.1739046
1.1739048
1.1739051
1.1739048
1.1739046
1.1739111
1.1739111
1.1739112
1.1739117
1.1739113
1.173911
1.1739117
1.1739114
1.1739114
1.1739117
1.1739109
1.1739112
1.1739117
1.1739112
1.173911
1.173911
1.1739111
1.1739117
1.1739112
1.1739182
1.1739178
1.1739188
1.1739183
1.1739183
1.1739189
1.1739178
1.1739182
1.173919
1.1739183
1.1739182
1.1739182
1.1739183
1.173919
1.1739184
1.1739179
1.1739191
1.1739185
1.1739185
1.1739191
1.173918
1.1739185
1.1739191
1.1739184
1.1739183
1.1739183
1.1739184
1.173919
1.1739183
1.1739179
1.1739189
1.1739183
1.1739183
1.1739187
1.1739178
1.1739182
1.1739114
1.1739118
1.1739113
1.1739181
1.173918
1.173918
1.1739181
1.1739186
1.1739181
1.1739177
1.1739186
1.1739182
1.1739181
1.1739186
1.1739177
1.173918
1.1739187
1.1739181
1.173918
1.173918
1.1739182
1.1739188
1.1739255
1.1739249
1.1739245
1.1739255
1.173925
1.173925
1.1739256
1.1739246
1.173925
1.1739258
1.1739252
1.1739252
1.1739252
1.1739253
1.1739259
1.1739252
1.1739248
1.1739259
1.1739253
1.1739253
1.1739259
1.1739248
1.1739253
1.1739259
1.1739253
1.1739252
1.1739252
1.1739251
1.1739257
1.1739248
1.1739246
1.1739254
1.1739248
1.1739248
1.1739252
1.1739243
1.1739247
1.1739252
1.1739187
1.1739156
1.1739152
1.1739148
1.1739148
1.1739152
1.1739155
1.1739223
1.1739251
1.1739245
1.1739242
1.173925
1.1739246
1.1739245
1.1739251
1.1739243
1.1739245
1.1739253
1.1739248
1.1739248
1.1739248
1.1739249
1.1739306
1.1739312
1.1739306
1.1739303
1.1739312
1.1739307
1.1739307
1.1739313
1.1739305
1.1739308
1.1739316
1.173931
1.173931
1.1739311
1.1739311
1.1739318
1.1739311
1.1739307
1.1739317
1.1739311
1.1739311
1.1739317
1.1739307
1.1739311
1.1739317
1.1739311
1.173931
1.1739309
1.1739308
1.1739314
1.1739305
1.1739302
1.173931
1.1739304
1.1739304
1.1739307
1.1739299
1.1739302
1.1739307
1.1739302
1.1739247
1.1739246
1.1739246
1.1739246
1.1739301
1.1739306
1.17393
1.1739297
1.1739305
1.1739301
1.1739301
1.1739306
1.1739299
1.1739301
1.1739309
1.1739304
1.1739305
1.1739305
1.1739352
1.1739354
1.1739359
1.1739354
1.1739351
1.173936
1.1739356
1.1739356
1.1739361
1.1739354
1.1739356
1.1739364
1.1739359
1.1739359
1.1739359
1.173936
1.1739366
1.1739359
1.1739357
1.1739365
1.173936
1.173936
1.1739365
1.1739356
1.1739359
1.1739365
1.1739359
1.1739358
1.1739357
1.1739356
1.1739361
1.1739352
1.1739351
1.1739357
1.1739351
1.1739352
1.1739354
1.1739347
1.1739349
1.1739353
1.1739349
1.1739348
1.1739301
1.1739301
1.1739348
1.1739348
1.1739352
1.1739346
1.1739345
1.1739351
1.1739348
1.1739348
1.1739353
1.1739346
1.1739348
1.1739356
1.1739351
1.1739352
1.1739394
1.1739394
1.1739396
1.1739401
1.1739396
1.1739394
1.1739402
1.1739399
1.1739398
1.1739403
1.1739397
1.1739399
1.1739406
1.1739401
1.1739402
1.1739402
1.1739403
1.1739408
1.1739402
1.17394
1.1739408
1.1739403
1.1739403
1.1739407
1.1739399
1.1739402
1.1739407
1.1739402
1.17394
1.17394
1.1739398
1.1739403
1.1739394
1.1739393
1.1739398
1.1739393
1.1739393
1.1739395
1.1739388
1.173939
1.1739394
1.173939
1.1739389
1.1739389
1.1739389
1.1739393
1.1739388
1.1739386
1.1739392
1.173939
1.173939
1.1739394
1.1739388
1.173939
1.1739397
1.1739393
1.173943
1.1739431
1.1739431
1.1739433
1.1739437
1.1739433
1.1739431
1.1739439
1.1739436
1.1739436
1.1739441
1.1739434
1.1739436
1.1739444
1.1739439
1.1739439
1.173944
1.173944
1.1739445
1.173944
1.1739438
1.1739445
1.1739441
1.1739441
1.1739444
1.1739437
1.1739439
1.1739444
1.1739439
1.1739438
1.1739437
1.1739435
1.173944
1.1739431
1.173943
1.1739435
1.173943
1.1739431
1.1739432
1.1739425
1.1739427
1.1739431
1.1739427
1.1739426
1.1739426
1.1739426
1.173943
1.1739425
1.1739423
1.1739429
1.1739427
1.1739427
1.1739431
1.1739426
1.1739427
1.1739434
1.1739466
1.1739462
1.1739463
1.1739464
1.1739465
1.1739469
1.1739466
1.1739464
1.1739471
1.173947
1.1739469
1.1739474
1.1739468
1.1739469
1.1739476
1.1739472
1.1739472
1.1739472
1.1739473
1.1739478
1.1739473
1.1739471
1.1739477
1.1739474
1.1739474
1.1739477
1.173947
1.1739472
1.1739476
1.1739472
1.173947
1.1739469
1.1739468
1.1739472
1.1739464
1.1739463
1.1739468
1.1739463
1.1739464
1.1739465
1.1739459
1.173946
1.1739463
1.173946
1.1739459
1.1739459
1.1739459
1.1739462
1.1739458
1.1739457
1.1739462
1.173946
1.173946
1.1739463
1.1739459
1.1739459
1.1739488
1.1739494
1.173949
1.1739491
1.1739492
1.1739493
1.1739498
1.1739494
1.1739493
1.17395
1.1739499
1.1739499
1.1739502
1.1739497
1.1739498
1.1739504
1.17395
1.17395
1.1739501
1.1739501
1.1739506
1.1739501
1.1739499
1.1739506
1.1739503
1.1739503
1.1739506
1.1739499
1.1739501
1.1739505
1.17395
1.1739499
1.1739498
1.1739497
1.1739501
1.1739493
1.1739492
1.1739497
1.1739493
1.1739493
1.1739494
1.1739488
1.1739489
1.1739493
1.1739489
1.1739488
1.1739488
1.1739488
1.1739491
1.1739488
1.1739486
1.1739492
1.173949
1.173949
1.1739493
1.1739488
1.1739514
1.1739513
1.1739519
1.1739514
1.1739515
1.1739516
1.1739517
1.1739521
1.1739519
1.1739519
1.1739526
1.1739525
1.1739525
1.1739529
1.1739523
1.1739524
1.173953
1.1739525
1.1739525
1.1739525
1.1739526
1.1739531
1.1739527
1.1739525
1.1739532
1.1739529
1.1739529
1.1739532
1.1739525
1.1739527
1.173953
1.1739525
1.1739523
1.1739523
1.1739522
1.1739527
1.173952
1.1739519
1.1739524
1.173952
1.1739521
1.1739521
1.1739515
1.1739517
1.173952
1.1739516
1.1739515
1.1739514
1.1739514
1.1739518
1.1739515
1.1739514
1.1739519
1.1739518
1.1739517
1.173952
1.1739543
1.1739536
1.1739535
1.1739539
1.1739535
1.1739536
1.1739537
1.1739537
1.1739541
1.173954
1.173954
1.1739549
1.1739548
1.1739547
1.1739551
1.1739544
1.1739546
1.1739551
1.1739545
1.1739544
1.1739544
1.1739546
1.1739552
1.1739548
1.1739546
1.1739554
1.1739551
1.1739551
1.1739554
1.1739546
1.1739548
1.1739551
1.1739545
1.1739543
1.1739542
1.1739542
1.1739548
1.1739542
1.1739541
1.1739547
1.1739543
1.1739544
1.1739545
1.1739538
1.173954
1.1739544
1.1739539
1.1739536
1.1739535
1.1739536
1.1739541
1.1739538
1.1739536
1.1739543
1.1739541
1.1739541
1.173956
1.1739562
1.1739557
1.1739547
1.1739552
1.1739548
1.1739549
1.173955
1.173955
1.1739553
1.1739552
1.1739559
1.1739567
1.1739564
1.1739564
1.1739568
1.1739562
1.1739564
1.1739567
1.1739561
1.173956
1.173956
1.1739562
1.1739568
1.1739566
1.1739563
1.173957
1.1739567
1.1739567
1.173957
1.1739563
1.1739565
1.1739568
1.1739561
1.1739559
1.1739559
1.173956
1.1739565
1.1739563
1.173956
1.1739565
1.1739562
1.1739561
1.1739564
1.1739557
1.1739558
1.173956
1.1739558
1.1739556
1.1739554
1.1739556
1.1739561
1.1739559
1.1739557
1.1739563
1.173956
1.1739563
1.1739563
1.1739564
1.1739559
1.173956
1.1739558
1.1739559
1.1739559
1.173956
1.1739562
1.1739562
1.1739568
1.1739567
1.1739567
1.1739569
1.1739564
1.1739566
1.1739568
1.1739565
1.1739565
1.1739565
1.1739565
1.1739569
1.1739567
1.1739565
1.1739571
1.1739569
1.1739569
1.1739571
1.1739565
1.1739567
1.1739568
1.1739565
1.1739565
1.1739564
1.1739563
1.1739566
1.1739563
1.1739562
1.1739566
1.1739564
1.1739564
1.1739565
1.173956
1.173956
1.173956
1.173956
1.1739559
1.1739559
1.1739559
1.1739562
1.1739561
1.1739559
1.1739564
1.1739557
1.1739556
1.173955
1.1739537
1.1739519
1.1739503
1.1739489
1.1739491
1.1739506
1.1739522
1.1739539
1.1739552
1.1739559
1.1739559
1.1739551
1.1739539
1.1739518
1.1739479
1.1739448
1.1739418
1.1739416
1.1739443
1.1739476
1.1739517
1.1739538
1.1739549
1.1739557
1.1739557
1.1739559
1.1739559
1.1739545
1.1739545
1.1739552
1.1739546
1.1739546
1.1739547
1.1739544
1.1739552
1.1739547
1.1739559
1.1739558
1.1739545
1.1739546
1.1739544
1.1739549
1.1739546
1.1739537
1.1739532
1.1739534
1.1739543
1.1739547
1.1739551
1.1739559
1.1739557
1.1739558
1.173956
1.1739547
1.1739553
1.1739547
1.1739544
1.173955
1.1739545
1.1739542
1.1739539
1.1739549
1.1739535
1.1739542
1.1739541
1.1739559
1.1739569
1.1739567
1.1739556
1.1739541
1.1739536
1.1739544
1.1739538
1.1739538
1.173955
1.1739551
1.1739547
1.1739545
1.1739548
1.1739554
1.1739552
1.1739554
1.1739538
1.1739538
1.1739547
1.1739542
1.1739557
1.1739544
1.1739542
1.1739519
1.1739522
1.1739517
1.1739521
1.1739527
1.1739523
1.1739528
1.1739504
1.1739476
1.173947
1.1739475
1.1739504
1.1739499
1.1739483
1.1739498
1.173947
1.1739466
1.1739471
1.1739499
1.1739496
1.1739468
1.1739465
1.1739492
1.1739515
1.1739537
1.173952
1.1739528
1.173954
1.1739507
1.1739529
1.1739506
1.1739483
1.1739459
1.1739505
1.1739498
1.1739437
1.1739457
1.173948
1.1739352
1.1739439
1.1739501
1.1739529
1.1739543
1.173952
1.1739506
1.1739484
1.1739516
1.173952
1.1739534
1.1739566
1.1739564
1.1739565
1.1739566
1.1739566
1.1739569
1.1739535
1.1739535
1.1739531
1.1739531
1.1739533
1.1739518
1.1739516
1.1739501
1.1739506
1.1739531
1.1739543
1.173951
1.1739452
1.1739238
1.1739187
1.1739164
1.1739166
1.1739185
1.1739236
1.1739293
1.1739343
1.1739407
1.1739409
1.1739344
1.1739294
1.1739236
1.1739186
1.1739166
1.1739168
1.1739186
1.1739236
1.1739292
1.1739343
1.1739409
1.1739409
1.1739476
1.1739523
1.173955
1.1739557
1.1739559
1.1739552
1.1739549
1.1739549
1.1739551
1.1739558
1.1739556
1.1739548
1.1739522
1.1739477
1.1739411
1.1739405
1.1739349
1.1739295
1.1739239
1.1739183
1.1739164
1.1739163
1.1739181
1.1739235
1.1739291
1.1739345
1.1739403
1.1739407
1.1739345
1.1739297
1.1739223
1.1739044
1.1738898
1.1738806
1.1738827
1.1738871
1.1738869
1.1738825
1.1738806
1.1738902
1.1739049
1.1739227
1.17393
1.1739446
1.1739505
1.173954
1.1739535
1.1739492
1.173942
1.1739192
1.1739242
1.173916
1.1738971
1.1738803
1.1738855
1.173889
1.1738996
1.1739083
1.1739182
1.1739234
1.1739236
1.1739184
1.1739088
1.1739001
1.1738895
1.1738856
1.1738801
1.173889
1.1739072
1.1739246
1.1739429
1.1739582
1.173967
1.1739668
1.1739578
1.1739422
1.1739239
1.1739065
1.1738886
1.1738989
1.1738815
1.1738906
1.1739109
1.1739087
1.173917
1.1739171
1.1739419
1.1739492
1.1739535
1.1739541
1.1739505
1.1739446
1.1739238
1.1739189
1.1739107
1.1739087
1.1738889
1.1738891
1.1738852
1.1739164
1.1739069
1.1739412
1.1739234
1.1739495
1.173977
1.174
1.1740136
1.1740138
1.1740007
1.1739779
1.1739506
1.1739245
1.1738996
1.1738818
1.173908
1.1739427
1.1739779
1.1740156
1.1740461
1.1740644
1.1740641
1.1740453
1.1740143
1.1739764
1.1739991
1.1739563
1.1739651
1.1739214
1.1739214
1.1738851
1.1739165
1.1739565
1.1739652
1.1740126
1.1740124
1.1740635
1.1740449
1.1740837
1.1741073
1.1741076
1.1740847
1.1740463
1.1740009
1.1739581
1.1739177
1.1738858
1.1739229
1.1739671
1.1740144
1.1740651
1.1741082
1.1741344
1.1741341
1.1741071
1.1741075
1.1740638
1.1740455
1.1739995
1.1739768
1.1739413
1.1739067
1.1738811
1.1738902
1.1738964
1.1739157
1.1739221
1.1739293
1.1739342
1.1739295
1.1739175
1.1739041
1.1738892
1.1738795
1.1738879
1.1738986
1.1739233
1.1739496
1.1739773
1.174015
1.1740462
1.1740846
1.1741083
1.1741345
1.1741348
1.1741085
1.1740654
1.1740145
1.1739671
1.1739228
1.1738857
1.1739178
1.1739583
1.1740013
1.174047
1.1740856
1.1741086
1.1740654
1.1740651
1.1740142
1.1740005
1.1739576
1.173942
1.1739235
1.173906
1.173888
1.173885
1.1738794
1.1738812
1.1738989
1.1739073
1.1739174
1.1739226
1.1739667
1.1739669
1.1740144
1.1740011
1.174047
1.1740163
1.1739783
1.1739428
1.1739077
1.1738814
1.1738993
1.1739243
1.1739507
1.1739782
1.1739427
1.1739581
1.1739176
1.1739227
1.1738855
1.1738855
1.1738887
1.17389
1.1738963
1.173904
1.173922
1.1739294
1.1739368
1.1739281
1.1739221
1.1738992
1.173894
1.1738736
1.1738725
1.1738731
1.1738739
1.1738948
1.1739009
1.1739232
1.1739348
1.1739298
1.173937
1.1739299
1.1739225
1.1739157
1.1739104
1.1739083
1.1739082
1.1739102
1.1739153
1.173922
1.1739295
1.1739367
1.1739295
1.1739177
1.1739043
1.1738964
1.1738905
1.1738893
1.1738893
1.1738905
1.1738967
1.1739047
1.1739181
1.1739223
1.1739236
1.1739015
1.1738955
1.1738752
1.173874
1.1738738
1.1738751
1.1738953
1.1739012
1.1739235
1.1739296
1.1739325
1.1739231
1.1739222
1.1739044
1.173908
1.1739026
1.173892
1.173892
1.173894
1.1738861
1.1738818
1.1738786
1.1738881
1.1739046
1.1739012
1.1739082
1.173895
1.1739157
1.1738965
1.1738901
1.1739104
1.1739083
1.1738886
1.1738884
1.1739082
1.1739103
1.1738897
1.173896
1.1738794
1.173885
1.1738884
1.1738993
1.1739077
1.1738813
1.1738795
1.1738891
1.1739039
1.1739221
1.1739154
1.1738942
1.1738741
1.1738728
1.1738733
1.1738745
1.1738918
1.1738917
1.1739027
1.1738784
1.1738852
1.1738356
1.1738746
1.1738631
1.1738948
1.1739046
1.1738946
1.1738626
1.1739136
1.1739103
1.1738463
1.1738976
1.1739109
1.1738708
1.1738886
1.1739449
1.1739336
1.1739139
1.1739331
1.1739137
1.1738973
1.1738811
1.1738454
1.1738882
1.1739099
1.173945
1.1738699
1.1739104
1.1739333
1.1739455
1.1739156
1.1738851
1.1738939
1.1738934
1.1738914
1.1738915
1.173902
1.1739073
1.1738999
1.1739038
1.1738868
1.1738772
1.1738807
1.173885
1.1739229
1.1739231
1.173875
1.1738633
1.1739074
1.1739504
1.1739656
1.173955
1.1739934
1.1739807
1.1739592
1.1739557
1.1739253
1.1739556
1.1739591
1.1739966
1.1739979
1.1740283
1.1739772
1.1739505
1.1738649
1.1739162
1.1739235
1.1738761
1.173908
1.1739649
1.1739549
1.1739455
1.1739805
1.173993
1.1739909
1.1740474
1.1740432
1.1740253
1.1740629
1.1740255
1.1740285
1.1739774
1.1739915
1.1740482
1.174044
1.1740862
1.1740939
1.1740691
1.1740933
1.1740857
1.1741121
1.1741216
1.1741186
1.1740891
1.1740416
1.1739951
1.1739811
1.1739585
1.1739322
1.1739106
1.1739331
1.17398
1.1739328
1.1739582
1.1739908
1.1740222
1.174015
1.1739586
1.1739709
1.1740355
1.1740362
1.173988
1.1738968
1.1738576
1.1738595
1.17386
1.17388
1.1738942
1.1738821
1.1738855
1.1738896
1.1738895
1.1738922
1.1738941
1.173892
1.1739027
1.1739083
1.1739047
1.1738881
1.1738785
1.1738816
1.173886
1.1739233
1.173876
1.1739077
1.1738645
1.1739159
1.1739451
1.1739547
1.1739647
1.17395
1.1739442
1.1738703
1.1739104
1.173897
1.1738458
1.173888
1.1739094
1.173913
1.1739329
1.1739582
1.1739799
1.1739927
1.1739906
1.1739766
1.1740274
1.1740471
1.174043
1.1740244
1.1739954
1.1739967
1.1739547
1.1739244
1.173932
1.1739577
1.1739543
1.1739758
1.174027
1.1740681
1.174093
1.1740853
1.1740619
1.1740851
1.1741118
1.1741212
1.1740928
1.1740466
1.1740423
1.174024
1.1739789
1.1739915
1.1739896
1.173964
1.1739489
1.1739438
1.1739089
1.1739129
1.1738626
1.1738943
1.1738849
1.1738781
1.1738354
1.1738742
1.1738622
1.1738939
1.1739037
1.1739124
1.1738964
1.1738803
1.1738448
1.1738874
1.1738688
1.173909
1.1739317
1.1739436
1.1739141
1.173884
1.173862
1.1739063
1.1738735
1.1739214
1.173953
1.1739529
1.1739916
1.1740426
1.1740854
1.1741121
1.1741125
1.1740865
1.1740442
1.1739936
1.173955
1.1739652
1.1738744
1.1739074
1.1738633
1.1739158
1.1739456
1.173951
1.173945
1.1738689
1.1739101
1.1739333
1.1739134
1.173897
1.1738445
1.1738877
1.1739102
1.1739256
1.173956
1.1739778
1.1739915
1.1740485
1.1740292
1.1740261
1.173981
1.1739593
1.1739972
1.1739986
1.1739561
1.1739592
1.1739329
1.1739131
1.1739243
1.1739067
1.1738883
1.1738937
1.1738611
1.1738734
1.1739132
1.1739038
1.1738937
1.173877
1.1738844
1.1738337
1.1738616
1.1738446
1.1739098
1.1738878
1.1739452
1.173933
1.1739097
1.17388
1.1738966
1.1738692
1.1738631
1.1739509
1.1739779
1.1740292
1.17407
1.1740943
1.174122
1.1740944
1.1740865
1.1740636
1.174026
1.1740442
1.1740486
1.1739917
1.1739933
1.1739807
1.1739451
1.1739544
1.1739656
1.1739075
1.1738745
1.1738841
1.1739151
1.1739224
1.1739223
1.1739543
1.1739931
1.1740439
1.1740862
1.174094
1.1741216
1.1740932
1.174069
1.1740626
1.1740245
1.1740278
1.1740468
1.1739898
1.1739762
1.1739791
1.1739578
1.1739959
1.1740251
1.1740284
1.1740483
1.1739915
1.1739772
1.1739801
1.1739583
1.1739553
1.1739974
1.1739547
1.1739246
1.1739318
1.1739121
1.1739317
1.1739436
1.1739495
1.1739637
1.1739062
1.173873
1.1738839
1.1739212
1.1739141
1.173862
1.1738678
1.1739438
1.1738869
1.1739093
1.1738438
1.1738799
1.1739087
1.173896
1.1738929
1.1739029
1.1739122
1.1739322
1.1739445
1.1739504
1.1739655
1.1739072
1.1738745
1.1738841
1.1739148
1.1738628
1.1738689
1.1739446
1.1738872
1.1739091
1.1738441
1.1738798
1.1739093
1.1738961
1.1738931
1.1738767
1.1738612
1.1739125
1.1738729
1.1738605
1.1738767
1.1738841
1.1738335
1.1738865
1.1738936
1.1738804
1.1738841
1.1738875
1.1738876
1.1738844
1.1738814
1.1738944
1.1738821
1.1738855
1.1738595
1.1738575
1.1738965
1.1738762
1.1738687
1.173874
1.1738825
1.1739291
1.1739439
1.17395
1.1739517
1.173954
1.1739523
1.1739534
1.1739509
1.1739522
1.1739524
1.1739519
1.1739523
1.1739508
1.1739485
1.1739461
1.1739484
1.1739459
1.1739283
1.173928
1.1739289
1.1739354
1.1739426
1.1739483
1.1739428
1.1739441
1.1739478
1.1739523
1.1739546
1.173954
1.1739508
1.1739485
1.1739461
1.1739441
1.1739465
1.1739499
1.173943
1.1739429
1.17395
1.1739542
1.1739541
1.1739527
1.1739527
1.1739501
1.1739516
1.173952
1.1739507
1.1739532
1.1739544
1.173951
1.1739452
1.1739479
1.1739524
1.1739548
1.1739551
1.173954
1.1739518
1.1739476
1.1739444
1.1739417
1.1739417
1.1739445
1.1739476
1.1739519
1.1739541
1.1739553
1.1739563
1.1739562
1.1739554
1.1739541
1.1739523
1.1739505
1.1739491
1.1739491
1.1739504
1.1739522
1.173954
1.1739553
1.1739559
1.173956
1.1739562
1.173956
1.1739549
1.1739547
1.1739551
1.1739555
1.1739548
1.1739532
1.1739524
1.1739519
1.1739523
1.17395
1.1739497
1.1739492
1.1739492
1.1739494
1.1739497
1.1739472
1.1739443
1.173941
1.1739407
1.1739408
1.1739412
1.1739446
1.1739441
1.1739445
1.1739411
1.1739408
1.1739396
1.1739407
1.173944
1.1739437
1.1739441
1.1739408
1.1739406
1.1739439
1.1739436
1.1739403
1.1739396
1.1739398
1.1739405
1.1739384
1.1739413
1.1739428
1.1739456
1.1739438
1.1739463
1.1739494
1.1739483
1.1739457
1.1739452
1.1739477
1.1739418
1.1739439
1.1739417
1.1739398
1.1739379
1.1739426
1.1739429
1.1739396
1.1739372
1.1739358
1.1739276
1.1739325
1.1739361
1.1739389
1.1739396
1.1739428
1.1739441
1.1739471
1.1739498
1.1739483
1.1739456
1.1739439
1.1739468
1.1739494
1.1739463
1.1739439
1.1739483