/*--------------------------------*- C++ -*----------------------------------*\
  =========                 |
  \\      /  F ield         | OpenFOAM: The Open Source CFD Toolbox
   \\    /   O peration     | Website:  https://openfoam.org
    \\  /    A nd           | Version:  7
     \\/     M anipulation  |
\*---------------------------------------------------------------------------*/
FoamFile
{
    version     2.0;
    format      ascii;
    class       volScalarField;
    location    "430";
    object      T;
}
// * * * * * * * * * * * * * * * * * * * * * * * * * * * * * * * * * * * * * //

dimensions      [0 0 0 1 0 0 0];

internalField   nonuniform List<scalar> 
24866
(
299.99997
299.99996
299.99996
299.99998
300
300
300
300
300
300
300
300
300
300
300
300
300
300
300
300
300
300
300
300
300
300
300
300
300
300
300
300
300
300
300
300
300
300
300
300
300
300
300
300
300
300
300
300
300
300
300
300
300
300
300
300
300
300
300
300
300
300
300
300
300
300
300
300
300
300
300
300
300
300
300
300
300
300
300
300
300
300
300
300
300
300
300
300
300
300
300
300
300
300
300
300
300
300
300
300
300
300
300
300
300
300
300
300
300
300
300
300
300
300
300
300
300
300
300
300
300
300
300
300
300
300
300
300
300
300
300
300.00001
300.00001
300.00001
300.00001
300
300
300
300
300
300
300
300
300
299.99999
300
299.99999
299.99998
299.99998
299.99998
299.99998
299.99999
299.99998
299.99999
299.99999
299.99998
299.99998
299.99999
299.99998
299.99999
299.99998
299.99998
299.99998
299.99998
299.99998
299.99998
299.99998
299.99998
299.99998
299.99998
299.99998
299.99998
299.99998
299.99998
299.99998
299.99998
299.99998
299.99998
299.99999
299.99999
299.99999
299.99999
299.99999
299.99998
299.99999
299.99999
300
300
300
300
300
300
300
300
300
300
300
300.00001
300.00001
300.00001
300.00001
300.00001
300
300
300
300
300
300
299.99999
299.99999
299.99999
299.99999
299.99998
299.99999
299.99996
299.99996
299.99996
299.99996
299.99996
299.99996
299.99996
299.99996
299.99996
299.99996
299.99996
299.99997
299.99996
299.99996
299.99996
299.99996
299.99996
299.99996
299.99996
299.99996
299.99996
299.99996
299.99996
299.99996
299.99996
299.99996
299.99996
299.99996
299.99996
299.99993
299.99992
299.99992
299.99992
299.99992
299.99996
299.99998
299.99998
299.99998
299.99998
299.99998
299.99998
299.99998
299.99998
299.99998
299.99998
299.99998
299.99998
299.99998
299.99998
299.99998
299.99998
299.99998
299.99999
300
300
299.99999
299.99998
299.99999
299.99998
299.99998
299.99999
299.99999
299.99999
299.99999
299.99998
299.99999
299.99999
299.99999
299.99999
300
300
300
300
300
300
300
300
300.00001
300
300.00001
300.00001
300
300
300
300
300
300
300
300
300
300
300
300
300
300
300
300
300
300
300
300
300
300
300
300
300
300
300
300
300
300
300
300
300
300
300
300
299.99999
299.99999
299.99999
300
299.99999
299.99999
299.99998
299.99997
299.99996
299.99996
299.99996
299.99996
299.99998
299.99999
299.99999
299.99999
299.99999
299.99999
299.99999
299.99998
299.99999
299.99998
299.99997
299.99997
299.99996
299.99996
299.99996
299.99996
299.99993
299.99993
299.99993
299.99993
299.99993
299.99993
299.99993
299.99993
299.99993
299.99993
299.99993
299.99993
299.99993
299.99993
299.99993
299.99993
299.99993
299.99992
299.99992
299.99992
299.99993
299.99993
299.99992
299.99993
299.99993
299.99993
299.99993
299.99992
299.99992
299.99988
299.99988
299.99988
299.99988
299.99988
299.99988
299.99988
299.99993
299.99996
299.99996
299.99996
299.99996
299.99996
299.99996
299.99996
299.99996
299.99996
299.99996
299.99996
299.99996
299.99996
299.99993
299.99993
299.99993
299.99993
299.99993
299.99993
299.99993
299.99993
299.99993
299.99993
299.99989
299.99989
299.99989
299.99988
299.99989
299.99989
299.99988
299.99989
299.99989
299.99989
299.99989
299.9999
299.9999
299.99989
299.99989
299.99989
299.99989
299.99988
299.99988
299.99988
299.99988
299.99989
299.99988
299.99988
299.99989
299.99989
299.99989
299.99989
299.99988
299.99982
299.99982
299.99983
299.99982
299.99982
299.99982
299.99982
299.99983
299.99982
299.99983
299.99988
299.99992
299.99993
299.99993
299.99993
299.99993
299.99993
299.99993
299.99993
299.99992
299.99993
299.99988
299.99988
299.99988
299.99989
299.99989
299.99989
299.9999
299.9999
299.9999
299.9999
299.99984
299.99984
299.99984
299.99984
299.99983
299.99983
299.99983
299.99983
299.99984
299.99984
299.99984
299.99984
299.99985
299.99985
299.99984
299.99983
299.99983
299.99984
299.99982
299.99982
299.99982
299.99982
299.99983
299.99983
299.99983
299.99983
299.99984
299.99983
299.99983
299.99976
299.99974
299.99974
299.99975
299.99973
299.99973
299.99973
299.99973
299.99975
299.99974
299.99975
299.99976
299.99983
299.99989
299.99989
299.99989
299.99989
299.99988
299.99988
299.99989
299.99988
299.99982
299.99982
299.99983
299.99983
299.99984
299.99984
299.99984
299.99984
299.99985
299.99985
299.99978
299.99977
299.99976
299.99976
299.99976
299.99975
299.99975
299.99975
299.99975
299.99976
299.99976
299.99976
299.99977
299.99977
299.99977
299.99977
299.99976
299.99975
299.99976
299.99974
299.99974
299.99974
299.99974
299.99975
299.99975
299.99975
299.99976
299.99976
299.99976
299.99966
299.99965
299.99964
299.99963
299.99964
299.99962
299.99962
299.99962
299.99962
299.99964
299.99963
299.99964
299.99965
299.99966
299.99976
299.99984
299.99984
299.99983
299.99983
299.99983
299.99983
299.99975
299.99974
299.99974
299.99974
299.99974
299.99976
299.99976
299.99976
299.99977
299.99978
299.99968
299.99968
299.99967
299.99966
299.99965
299.99966
299.99964
299.99964
299.99964
299.99964
299.99965
299.99965
299.99965
299.99967
299.99967
299.99967
299.99967
299.99965
299.99965
299.99965
299.99963
299.99963
299.99963
299.99962
299.99964
299.99964
299.99964
299.99965
299.99966
299.99952
299.99952
299.99951
299.99949
299.99949
299.99949
299.99947
299.99947
299.99947
299.99947
299.99949
299.99949
299.99949
299.99951
299.99952
299.99952
299.99966
299.99976
299.99976
299.99975
299.99975
299.99964
299.99965
299.99963
299.99963
299.99963
299.99963
299.99965
299.99965
299.99965
299.99967
299.99953
299.99954
299.99954
299.99954
299.99952
299.99951
299.99952
299.9995
299.9995
299.99949
299.99949
299.99951
299.99951
299.99951
299.99953
299.99954
299.99954
299.99953
299.99951
299.9995
299.99951
299.99948
299.99948
299.99948
299.99948
299.9995
299.99949
299.9995
299.99951
299.99934
299.99935
299.99935
299.99933
299.99932
299.99931
299.99931
299.99929
299.99929
299.99929
299.99929
299.99931
299.99931
299.99932
299.99934
299.99935
299.99935
299.99934
299.99952
299.99965
299.99964
299.9995
299.9995
299.9995
299.99948
299.99949
299.99949
299.99949
299.99951
299.99951
299.99952
299.99934
299.99936
299.99937
299.99937
299.99936
299.99935
299.99934
299.99934
299.99932
299.99932
299.99932
299.99932
299.99934
299.99934
299.99934
299.99936
299.99937
299.99937
299.99935
299.99933
299.99933
299.99933
299.99931
299.99931
299.9993
299.9993
299.99932
299.99932
299.99932
299.99912
299.99914
299.99914
299.99914
299.99913
299.99912
299.99911
299.99911
299.9991
299.9991
299.9991
299.9991
299.99911
299.99911
299.99912
299.99914
299.99915
299.99915
299.99914
299.99913
299.99933
299.99932
299.99933
299.99931
299.99931
299.99931
299.99932
299.99934
299.99934
299.99914
299.99915
299.99916
299.99917
299.99918
299.99917
299.99915
299.99914
299.99915
299.99913
299.99913
299.99913
299.99913
299.99914
299.99914
299.99915
299.99916
299.99917
299.99917
299.99915
299.99914
299.99913
299.99913
299.99912
299.99911
299.99911
299.99911
299.99912
299.99912
299.99893
299.99894
299.99894
299.99894
299.99894
299.99894
299.99894
299.99893
299.99892
299.99893
299.99892
299.99892
299.99893
299.99893
299.99893
299.99894
299.99894
299.99894
299.99894
299.99895
299.99895
299.99894
299.99913
299.99913
299.99912
299.99912
299.99912
299.99913
299.99914
299.99896
299.99896
299.99897
299.99897
299.99897
299.99898
299.99897
299.99897
299.99897
299.99896
299.99897
299.99896
299.99896
299.99897
299.99896
299.99896
299.99897
299.99897
299.99897
299.99896
299.99896
299.99896
299.99895
299.99894
299.99895
299.99894
299.99894
299.99894
299.99893
299.99883
299.99883
299.99884
299.99882
299.99881
299.99881
299.99882
299.99883
299.99882
299.99882
299.99885
299.99884
299.99884
299.99885
299.99882
299.99883
299.99884
299.99882
299.99881
299.99882
299.99883
299.99885
299.99885
299.99884
299.99894
299.99895
299.99895
299.99895
299.99896
299.99888
299.99886
299.99886
299.99887
299.99886
299.99885
299.99885
299.99886
299.99888
299.99887
299.99886
299.99889
299.99888
299.99888
299.99889
299.99886
299.99886
299.99887
299.99885
299.99884
299.99884
299.99884
299.99886
299.99885
299.99884
299.99887
299.99886
299.99885
299.99886
299.99893
299.99889
299.9989
299.99891
299.99887
299.99886
299.99885
299.99887
299.9989
299.99889
299.99888
299.99892
299.99891
299.99891
299.99892
299.99888
299.99889
299.9989
299.99887
299.99886
299.99886
299.99888
299.99892
299.99891
299.99891
299.99895
299.99887
299.99887
299.99887
299.99895
299.99896
299.99892
299.99893
299.99894
299.99892
299.9989
299.9989
299.99892
299.99895
299.99894
299.99893
299.99897
299.99896
299.99895
299.99896
299.99892
299.99893
299.99894
299.99891
299.99889
299.99888
299.9989
299.99892
299.99891
299.9989
299.99894
299.99893
299.99893
299.99918
299.99919
299.99914
299.99915
299.99916
299.99912
299.9991
299.9991
299.99912
299.99915
299.99914
299.99913
299.99917
299.99917
299.99917
299.99917
299.99913
299.99915
299.99915
299.99912
299.99911
299.99911
299.99914
299.99917
299.99917
299.99916
299.9992
299.9992
299.99894
299.99881
299.99866
299.99881
299.99869
299.99855
299.99876
299.99866
299.9986
299.9986
299.99867
299.99877
299.99899
299.9992
299.99919
299.99918
299.99922
299.99921
299.99921
299.99922
299.99918
299.99918
299.99919
299.99916
299.99914
299.99913
299.99915
299.99917
299.99917
299.99915
299.99919
299.99918
299.99958
299.99958
299.99959
299.99955
299.99955
299.99955
299.99952
299.99951
299.9995
299.99952
299.99955
299.99954
299.99954
299.99957
299.99957
299.99957
299.99957
299.99954
299.99955
299.99955
299.99953
299.99951
299.99952
299.99954
299.99957
299.99957
299.99957
299.9996
299.9996
299.99961
299.9992
299.99921
299.99918
299.99919
299.9992
299.99917
299.99915
299.99915
299.99917
299.99957
299.9996
299.99959
299.99958
299.99962
299.99961
299.99961
299.99961
299.99958
299.99958
299.99958
299.99956
299.99954
299.99953
299.99955
299.99957
299.99957
299.99956
299.99959
300.00009
300.00008
300.00008
300.00008
300.00005
300.00005
300.00005
300.00002
300.00001
300.00001
300.00002
300.00005
300.00005
300.00004
300.00007
300.00007
300.00007
300.00007
300.00004
300.00005
300.00005
300.00003
300.00001
300.00002
300.00004
300.00007
300.00007
300.00007
300.0001
300.0001
300.0001
300.00011
299.99961
299.99958
299.99959
299.99959
299.99957
299.99956
299.99956
300.00005
300.00007
300.00009
300.00009
300.00008
300.00011
300.00011
300.00011
300.00011
300.00008
300.00008
300.00008
300.00005
300.00004
300.00003
300.00004
300.00007
300.00007
300.00006
300.00063
300.00065
300.00065
300.00065
300.00064
300.00062
300.00063
300.00062
300.0006
300.00058
300.00058
300.00059
300.00061
300.00062
300.00062
300.00064
300.00064
300.00064
300.00064
300.00062
300.00063
300.00062
300.0006
300.00059
300.0006
300.00061
300.00063
300.00064
300.00064
300.00066
300.00066
300.00066
300.00066
300.00064
300.00008
300.00009
300.00009
300.00006
300.00005
300.00062
300.00062
300.00063
300.00064
300.00065
300.00064
300.00066
300.00066
300.00066
300.00066
300.00064
300.00064
300.00064
300.00062
300.0006
300.0006
300.00061
300.00063
300.00063
300.00123
300.00123
300.00124
300.00124
300.00124
300.00124
300.00123
300.00123
300.00122
300.00121
300.00121
300.00121
300.00121
300.00122
300.00123
300.00123
300.00124
300.00125
300.00125
300.00124
300.00123
300.00123
300.00123
300.00122
300.00121
300.00121
300.00122
300.00123
300.00124
300.00124
300.00124
300.00125
300.00125
300.00124
300.00123
300.00124
300.00065
300.00064
300.00063
300.00122
300.00122
300.00122
300.00122
300.00123
300.00123
300.00123
300.00124
300.00124
300.00124
300.00124
300.00123
300.00123
300.00123
300.00122
300.00121
300.00121
300.00121
300.00122
300.0018
300.00181
300.00181
300.00181
300.00182
300.00182
300.00181
300.00181
300.00182
300.00181
300.00181
300.00181
300.00181
300.00181
300.00181
300.00182
300.00182
300.00182
300.00183
300.00183
300.00182
300.00182
300.00182
300.00181
300.00181
300.00181
300.00181
300.0018
300.0018
300.00181
300.00181
300.00181
300.00181
300.00181
300.0018
300.0018
300.0018
300.00179
300.00123
300.00115
300.00109
300.00107
300.00107
300.00109
300.00114
300.00175
300.00179
300.0018
300.0018
300.0018
300.0018
300.0018
300.0018
300.0018
300.0018
300.00179
300.00179
300.0018
300.0018
300.0018
300.00232
300.00232
300.00233
300.00233
300.00233
300.00234
300.00234
300.00233
300.00234
300.00234
300.00233
300.00233
300.00234
300.00234
300.00234
300.00234
300.00235
300.00235
300.00234
300.00235
300.00235
300.00234
300.00234
300.00234
300.00233
300.00233
300.00233
300.00233
300.00232
300.00232
300.00233
300.00232
300.00232
300.00232
300.00232
300.00231
300.00231
300.00231
300.0023
300.0023
300.00179
300.00179
300.00179
300.00179
300.0023
300.00229
300.0023
300.0023
300.0023
300.00231
300.00231
300.0023
300.00231
300.00231
300.0023
300.00231
300.00231
300.00232
300.00277
300.00277
300.00277
300.00278
300.00278
300.00278
300.00279
300.00279
300.00279
300.00279
300.0028
300.00279
300.0028
300.0028
300.0028
300.0028
300.0028
300.00281
300.00281
300.0028
300.00281
300.00281
300.0028
300.0028
300.0028
300.00279
300.00279
300.00279
300.00279
300.00278
300.00277
300.00278
300.00277
300.00277
300.00277
300.00276
300.00276
300.00276
300.00275
300.00275
300.00275
300.00275
300.0023
300.0023
300.00275
300.00274
300.00274
300.00275
300.00275
300.00274
300.00275
300.00275
300.00275
300.00276
300.00276
300.00275
300.00276
300.00277
300.00317
300.00318
300.00317
300.00318
300.00319
300.00319
300.00319
300.0032
300.0032
300.0032
300.0032
300.0032
300.0032
300.00321
300.00321
300.00321
300.00321
300.00321
300.00322
300.00321
300.00321
300.00321
300.00321
300.00321
300.00321
300.00321
300.0032
300.0032
300.0032
300.00319
300.00319
300.00318
300.00318
300.00317
300.00317
300.00317
300.00316
300.00316
300.00316
300.00315
300.00315
300.00315
300.00315
300.00315
300.00314
300.00314
300.00315
300.00315
300.00315
300.00315
300.00315
300.00315
300.00316
300.00316
300.00316
300.00316
300.00352
300.00353
300.00354
300.00354
300.00354
300.00355
300.00355
300.00355
300.00356
300.00356
300.00356
300.00357
300.00357
300.00357
300.00357
300.00358
300.00358
300.00358
300.00357
300.00358
300.00358
300.00358
300.00358
300.00358
300.00357
300.00357
300.00357
300.00356
300.00356
300.00356
300.00356
300.00355
300.00354
300.00354
300.00354
300.00353
300.00353
300.00353
300.00352
300.00352
300.00352
300.00351
300.00351
300.00351
300.00351
300.00351
300.00351
300.00351
300.00351
300.00351
300.00351
300.00352
300.00352
300.00352
300.00352
300.00352
300.00384
300.00385
300.00385
300.00386
300.00386
300.00386
300.00387
300.00388
300.00388
300.00389
300.00389
300.00389
300.00389
300.00389
300.00389
300.0039
300.0039
300.0039
300.0039
300.0039
300.0039
300.0039
300.0039
300.0039
300.0039
300.0039
300.0039
300.00389
300.00389
300.00389
300.00389
300.00388
300.00387
300.00387
300.00387
300.00386
300.00386
300.00386
300.00385
300.00385
300.00385
300.00385
300.00384
300.00384
300.00384
300.00384
300.00384
300.00384
300.00384
300.00384
300.00384
300.00384
300.00384
300.00384
300.00384
300.00384
300.00413
300.00413
300.00413
300.00414
300.00414
300.00414
300.00415
300.00416
300.00417
300.00418
300.00418
300.00419
300.00419
300.00419
300.00419
300.00419
300.00419
300.00419
300.00419
300.00419
300.00419
300.00419
300.00419
300.00419
300.00419
300.00419
300.00419
300.00419
300.00419
300.00418
300.00418
300.00418
300.00417
300.00417
300.00417
300.00417
300.00416
300.00416
300.00416
300.00416
300.00415
300.00415
300.00415
300.00415
300.00415
300.00414
300.00414
300.00414
300.00414
300.00414
300.00414
300.00415
300.00415
300.00415
300.00414
300.00414
300.0044
300.00439
300.00438
300.00438
300.00439
300.00439
300.00439
300.0044
300.00441
300.00442
300.00444
300.00444
300.00444
300.00445
300.00444
300.00444
300.00444
300.00444
300.00444
300.00444
300.00444
300.00444
300.00445
300.00445
300.00445
300.00445
300.00445
300.00445
300.00444
300.00444
300.00444
300.00443
300.00443
300.00442
300.00442
300.00442
300.00443
300.00442
300.00442
300.00442
300.00442
300.00442
300.00442
300.00442
300.00442
300.00442
300.00441
300.00441
300.00441
300.00441
300.00441
300.00441
300.00442
300.00442
300.00441
300.00441
300.00466
300.00463
300.0046
300.00458
300.00458
300.00458
300.00459
300.00459
300.00459
300.00461
300.00464
300.00467
300.00467
300.00468
300.00468
300.00467
300.00468
300.00467
300.00466
300.00465
300.00465
300.00466
300.00467
300.00467
300.00467
300.00468
300.00468
300.00468
300.00468
300.00467
300.00467
300.00466
300.00465
300.00464
300.00464
300.00465
300.00466
300.00467
300.00466
300.00467
300.00467
300.00467
300.00467
300.00466
300.00467
300.00467
300.00467
300.00466
300.00464
300.00465
300.00466
300.00466
300.00466
300.00467
300.00467
300.00466
300.00481
300.0048
300.00479
300.00478
300.00474
300.00474
300.00474
300.00474
300.00474
300.00474
300.00478
300.00479
300.0048
300.00481
300.00481
300.00481
300.00481
300.00481
300.0048
300.0048
300.0048
300.00479
300.00479
300.0048
300.0048
300.0048
300.0048
300.00481
300.00481
300.0048
300.0048
300.0048
300.00479
300.00479
300.00479
300.00479
300.00479
300.0048
300.00481
300.0048
300.0048
300.00481
300.00481
300.00481
300.00481
300.00482
300.00482
300.00481
300.00481
300.0048
300.0048
300.00481
300.00481
300.00481
300.00481
300.00481
300.00494
300.00494
300.00493
300.00494
300.00496
300.00498
300.00498
300.00498
300.00497
300.00494
300.00492
300.0049
300.00491
300.00491
300.0049
300.00492
300.00492
300.00491
300.00492
300.00493
300.00492
300.00491
300.0049
300.0049
300.0049
300.00488
300.00489
300.00489
300.00488
300.0049
300.0049
300.0049
300.00491
300.00492
300.00493
300.00492
300.00491
300.00492
300.00493
300.00491
300.00493
300.00493
300.00492
300.00494
300.00497
300.00497
300.00496
300.00496
300.00497
300.00496
300.00495
300.00496
300.00495
300.00493
300.005
300.00501
300.0051
300.00531
300.00569
300.00616
300.00654
300.00649
300.00608
300.00564
300.00529
300.00509
300.00499
300.00498
300.00505
300.00529
300.00583
300.00681
300.00817
300.00931
300.00938
300.00828
300.00686
300.00583
300.00529
300.00506
300.00499
300.005
300.00491
300.0049
300.00484
300.00486
300.0048
300.00487
300.00485
300.00491
300.00488
300.00481
300.00488
300.00491
300.00492
300.00485
300.00485
300.00489
300.00507
300.00519
300.00535
300.00549
300.00544
300.00529
300.00515
300.00505
300.00498
300.00499
300.00491
300.00491
300.00485
300.00481
300.00485
300.00488
300.00487
300.00488
300.00497
300.0049
300.00482
300.00487
300.00487
300.00491
300.00494
300.00491
300.00491
300.00494
300.00492
300.00495
300.00485
300.00488
300.00492
300.00496
300.00506
300.00511
300.00513
300.00509
300.00503
300.00505
300.00495
300.00487
300.0049
300.00482
300.00489
300.00493
300.00486
300.0049
300.00472
300.00469
300.00478
300.00471
300.00469
300.00473
300.00468
300.00442
300.00414
300.00416
300.00414
300.00443
300.00446
300.00457
300.00444
300.00415
300.00419
300.00415
300.00443
300.00445
300.00417
300.00419
300.00447
300.00474
300.00493
300.00529
300.00515
300.00498
300.00547
300.00509
300.00487
300.0052
300.00575
300.00493
300.00506
300.00627
300.00653
300.00604
300.009
300.00697
300.00565
300.00507
300.00487
300.00469
300.00486
300.00518
300.00475
300.00463
300.00482
300.00488
300.00489
300.0049
300.0049
300.00489
300.00487
300.00483
300.00484
300.00486
300.00486
300.00484
300.00466
300.00468
300.00502
300.00489
300.00507
300.00523
300.00598
300.00804
300.01256
300.014
300.01474
300.01477
300.01406
300.01264
300.01109
300.00964
300.00842
300.00842
300.00971
300.01123
300.01286
300.01431
300.01505
300.01504
300.0143
300.01286
300.01125
300.00973
300.00844
300.00844
300.00689
300.00568
300.00516
300.00501
300.00499
300.00506
300.00511
300.00511
300.00506
300.005
300.00502
300.00517
300.00567
300.00683
300.00834
300.00836
300.0096
300.01109
300.01272
300.01422
300.015
300.01504
300.0143
300.01283
300.01119
300.00966
300.00838
300.00836
300.00958
300.011
300.01423
300.01893
300.02353
300.0272
300.02829
300.02794
300.02798
300.02835
300.02721
300.02347
300.01885
300.01423
300.01105
300.00822
300.00615
300.00534
300.00549
300.00655
300.00934
300.01409
300.01264
300.01677
300.02235
300.02731
300.02866
300.02864
300.02773
300.02595
300.02449
300.02336
300.02332
300.02438
300.0258
300.02756
300.02848
300.02857
300.02728
300.02855
300.02725
300.02437
300.02098
300.01776
300.01593
300.01599
300.01793
300.02123
300.02465
300.02751
300.02874
300.028
300.02869
300.02467
300.0188
300.01991
300.01485
300.01487
300.00937
300.00656
300.00549
300.00534
300.00617
300.00829
300.01276
300.01417
300.01891
300.01995
300.02605
300.02598
300.02861
300.02518
300.02645
300.02168
300.02486
300.01988
300.01405
300.00875
300.00556
300.00548
300.00852
300.01371
300.01948
300.02446
300.02771
300.02852
300.02604
300.02114
300.01376
300.0053
299.99779
299.99332
299.99343
299.99809
300.00576
300.0143
300.00923
300.01859
300.01683
300.02423
300.02428
300.02871
300.02535
300.01873
300.01687
300.00625
300.00622
299.99385
299.99833
299.9884
299.98229
299.98216
299.98802
299.99777
300.00856
300.01793
300.02467
300.02832
300.02363
300.01608
300.00547
299.99322
299.98206
299.97521
299.97535
299.98248
299.98247
299.99386
299.99838
300.00933
300.01452
300.02192
300.02672
300.02898
300.02486
300.02262
300.01694
300.01441
300.01119
300.00971
300.01208
300.01537
300.01913
300.02385
300.02771
300.02923
300.02839
300.02524
300.02027
300.01442
300.00593
299.99823
299.98841
299.98228
299.97533
299.97519
299.98204
299.99322
300.00549
300.01611
300.02367
300.02841
300.0248
300.01803
300.00863
299.9978
299.98802
299.98214
299.99342
299.99354
300.00589
300.0091
300.0185
300.02179
300.02519
300.02802
300.02922
300.02917
300.02773
300.029
300.02836
300.02664
300.02521
300.0241
300.01656
300.01649
300.0058
300.00884
299.9979
300.00544
300.01393
300.02133
300.02626
300.02878
300.02805
300.02479
300.01981
300.01403
300.02151
300.01831
300.02508
300.02405
300.02867
300.02871
300.02619
300.02496
300.0227
300.01916
300.01448
300.01211
300.01
300.00948
300.01177
300.01422
300.01693
300.01901
300.0201
300.02004
300.01888
300.01674
300.01399
300.01158
300.00959
300.01193
300.00987
300.01193
300.01427
300.01684
300.01889
300.01999
300.02002
300.01896
300.01695
300.01437
300.012
300.00991
300.01195
300.01522
300.01898
300.02246
300.02464
300.02583
300.02583
300.02461
300.02238
300.01888
300.01515
300.01443
300.01155
300.01398
300.0167
300.01882
300.01997
300.02
300.0189
300.01681
300.01408
300.0116
300.00932
300.01007
300.01156
300.01446
300.01854
300.01634
300.02194
300.02439
300.02081
300.02561
300.02889
300.02894
300.02764
300.02339
300.01848
300.01393
300.01623
300.01664
300.01677
300.02242
300.0247
300.01879
300.0199
300.02599
300.02604
300.01993
300.01889
300.02486
300.02264
300.02763
300.02903
300.02901
300.02814
300.02645
300.0289
300.02766
300.02384
300.01913
300.01436
300.0169
300.01679
300.01885
300.01994
300.01989
300.01874
300.02079
300.02444
300.0219
300.02771
300.02951
300.0302
300.03024
300.02989
300.02925
300.02786
300.02932
300.02997
300.02866
300.02563
300.02915
300.02842
300.02673
300.02738
300.02748
300.02283
300.02169
300.02496
300.02022
300.02506
300.02856
300.02918
300.02929
300.02763
300.02574
300.02303
300.02762
300.02698
300.02187
300.01845
300.02568
300.02931
300.02575
300.02582
300.02091
300.02463
300.02217
300.01649
300.0141
300.01874
300.02376
300.02811
300.02946
300.02939
300.02473
300.02469
300.02529
300.02632
300.0236
300.01922
300.01764
300.01664
300.00589
300.00909
300.01435
300.01507
300.02119
300.01501
300.01429
300.00561
300.00606
299.99805
300.00985
300.01904
300.02599
300.02537
300.02435
300.02494
300.0233
300.01747
300.01648
300.01828
300.00904
300.00589
300.00655
299.9932
299.99321
299.99787
299.98765
299.99785
299.99803
300.0099
300.00655
299.99309
299.9931
299.98136
299.98076
299.98735
299.98087
299.98147
299.97419
299.97319
299.97236
299.9805
299.99346
300.00707
300.01045
300.01572
300.02184
300.02304
300.01671
300.00765
300.01678
300.01579
300.00679
299.9985
299.99903
300.01159
300.00798
299.99376
299.99414
300.00944
300.02583
300.03136
300.03073
300.02882
300.02365
300.02344
300.02796
300.0297
300.02991
300.02994
300.02077
300.0256
300.02436
300.02187
300.01626
300.01846
300.02336
300.02766
300.02899
300.02892
300.02439
300.02498
300.02341
300.02611
300.02548
300.01845
300.01655
300.01755
300.01921
300.02307
300.02755
300.02689
300.02858
300.02933
300.02769
300.02589
300.02523
300.02193
300.01462
300.00928
300.00598
300.00663
300.01009
299.99837
299.99332
299.99332
299.99818
300.00607
300.00652
300.01534
300.02157
300.02061
300.01487
300.01558
300.01053
299.9986
299.98776
299.98102
299.98161
299.98804
299.9818
299.97434
299.97336
299.98121
299.99373
299.99373
299.99841
300.00973
300.00661
300.00726
300.01833
300.01983
300.02352
300.02611
300.0289
300.03005
300.0294
300.02961
300.02777
300.03032
300.0304
300.03016
300.02951
300.02811
300.02544
300.02882
300.02933
300.02955
300.02798
300.028
300.02736
300.02238
300.01908
300.02616
300.02957
300.02677
300.02414
300.02581
300.02523
300.01735
300.01739
300.00664
299.99374
299.98179
299.97432
299.97416
299.98134
299.9931
300.00591
300.01667
300.01767
300.02533
300.02369
300.02645
300.02581
300.01855
300.01932
300.0232
300.02788
300.02722
300.02205
300.02537
300.02891
300.02967
300.02796
300.02604
300.02149
300.01522
300.00997
300.00657
299.99309
299.99805
299.99787
300.00915
300.0145
300.00573
300.00618
300.01529
300.01458
300.02053
300.02544
300.02487
300.02771
300.02898
300.02977
300.03043
300.03076
300.02912
300.02832
300.02979
300.02816
300.03
300.03073
300.03046
300.02972
300.0261
300.02803
300.02332
300.0222
300.02738
300.02959
300.02899
300.028
300.02666
300.01951
300.0101
299.99813
299.98734
299.98074
299.97317
299.98083
299.98144
299.98764
299.99796
299.99328
299.99326
300.0068
300.00617
300.00932
300.01877
300.01699
300.01795
300.02391
300.02562
300.02965
300.02605
300.02506
300.0251
300.01706
300.00626
299.9934
299.98158
299.98098
299.97333
299.9812
299.98776
299.98804
299.99846
299.99865
299.99374
300.00729
300.01063
300.00983
300.01507
300.00622
299.9983
299.99848
299.99338
300.0069
300.01038
300.00959
300.01496
300.01567
300.00667
300.01578
300.02192
300.02098
300.02581
300.02261
300.01922
300.01997
300.01837
300.02425
300.02586
300.02967
300.02529
300.02632
300.02693
300.0283
300.02374
300.02836
300.02647
300.03
300.02965
300.02765
300.02924
300.03002
300.02863
300.02576
300.02248
300.01897
300.0197
300.01804
300.02403
300.02567
300.02969
300.02618
300.0268
300.0282
300.0236
300.0283
300.02641
300.02996
300.02969
300.02757
300.02921
300.03001
300.02826
300.03068
300.02943
300.03099
300.03069
300.02823
300.03016
300.03091
300.02382
300.02392
300.02859
300.03045
300.03069
300.03059
300.03011
300.02811
300.02343
300.02798
300.02976
300.03077
300.0314
300.02593
300.03007
300.03242
300.03132
300.02171
300.01026
300.00625
300.00506
300.00474
300.00492
300.00526
300.00514
300.00492
300.00472
300.00469
300.00479
300.00472
300.00487
300.0052
300.00573
300.00599
300.00649
300.01065
300.0107
300.01029
300.0085
300.00654
300.00533
300.00651
300.00692
300.00678
300.00561
300.00513
300.00494
300.00542
300.00592
300.00571
300.00621
300.00635
300.00627
300.009
300.00902
300.00628
300.00529
300.00529
300.00517
300.00517
300.00503
300.00469
300.00467
300.00491
300.00508
300.00523
300.006
300.00809
300.00682
300.00562
300.00513
300.00504
300.00529
300.00585
300.0069
300.00833
300.00947
300.00947
300.00833
300.00691
300.00586
300.00529
300.00504
300.00495
300.00496
300.00507
300.00529
300.00569
300.00619
300.00661
300.00661
300.00619
300.0057
300.0053
300.00508
300.00498
300.00497
300.00489
300.0049
300.00485
300.00487
300.00486
300.00481
300.00484
300.0047
300.00471
300.00477
300.00464
300.00443
300.00445
300.00447
300.00446
300.00444
300.00441
300.00414
300.00385
300.00352
300.00352
300.00351
300.00351
300.00384
300.00384
300.00384
300.0035
300.0035
300.00351
300.0035
300.00384
300.00386
300.00384
300.0035
300.00352
300.00385
300.00387
300.00353
300.00361
300.00355
300.00351
300.00361
300.00404
300.00388
300.00424
300.00446
300.00485
300.0045
300.00463
300.0043
300.00439
300.00474
300.00585
300.00536
300.0049
300.00533
300.00476
300.00401
300.00393
300.00439
300.00387
300.00419
300.00661
300.00536
300.00422
300.00366
300.00351
300.00389
300.00385
300.00415
300.00443
300.00457
300.00424
300.00446
300.00419
300.00449
300.00484
300.00536
300.00462
300.0043
300.00417
300.00419
300.00389
300.00387
300.00353
300.00355
300.00362
300.00356
300.00394
300.00387
300.00405
300.00362
300.00388
300.0044
300.0049
300.00536
300.0044
300.00474
300.00587
300.00978
300.00791
300.00602
300.00496
300.00455
300.00545
300.00603
300.00918
300.01
300.01638
300.02175
300.03128
300.02868
300.02321
300.01636
300.00843
300.00882
300.01045
300.01021
300.0219
300.03158
300.02878
300.02892
300.02805
300.02996
300.03105
300.03005
300.03192
300.03318
300.03465
300.02977
300.02365
300.0299
300.03315
300.03495
300.03244
300.02861
300.03257
300.03184
300.03035
300.03044
300.03194
300.02628
300.02618
300.01304
300.01834
300.02449
300.02985
300.03221
300.0347
300.03282
300.03385
300.03207
300.02823
300.03109
300.01827
300.02391
300.0301
300.02857
300.02709
300.02569
300.01928
300.01826
300.00859
300.00979
300.01936
300.01411
300.00048
299.99963
299.99901
300.01166
300.01052
299.99848
299.99336
300.00709
300.00801
299.99365
299.99404
300.00951
300.01027
299.9946
299.97909
299.98741
300.00049
300.01399
300.01294
299.99964
299.98726
299.98727
299.98732
299.98038
299.97992
299.97136
299.98004
299.97959