/*--------------------------------*- C++ -*----------------------------------*\
  =========                 |
  \\      /  F ield         | OpenFOAM: The Open Source CFD Toolbox
   \\    /   O peration     | Website:  https://openfoam.org
    \\  /    A nd           | Version:  7
     \\/     M anipulation  |
\*---------------------------------------------------------------------------*/
FoamFile
{
    version     2.0;
    format      ascii;
    class       volVectorField;
    location    "430";
    object      U;
}
// * * * * * * * * * * * * * * * * * * * * * * * * * * * * * * * * * * * * * //

dimensions      [0 1 -1 0 0 0 0];

internalField   nonuniform List<vector> 
24866
(
(120.00024 -0.00061577354 -0.0007466908)
(120.00037 -0.00038888824 -0.000563916)
(120.00035 -0.00045109124 -0.00046987956)
(120.00013 -0.00023975577 -0.00024135794)
(120.00003 -6.7019035e-05 -7.0850387e-05)
(120.00003 -6.1955313e-05 -8.5118379e-05)
(120.00002 -4.9387424e-05 -9.6734259e-05)
(120.00003 -4.9285208e-05 -9.0558972e-05)
(120.00003 -2.9957736e-05 -9.7649766e-05)
(120.00003 -2.0840437e-05 -0.00011033359)
(120.00003 -6.9033215e-06 -0.00010903872)
(120.00003 5.5533071e-06 -0.00010899679)
(120.00003 1.9679254e-05 -0.00011021189)
(120.00003 2.9264219e-05 -9.7477562e-05)
(120.00003 4.8991751e-05 -9.066323e-05)
(120.00002 4.956393e-05 -9.5699143e-05)
(120.00003 6.3673058e-05 -8.4427986e-05)
(120.00003 6.8605913e-05 -6.8598966e-05)
(120.00003 7.4182079e-05 -6.7013031e-05)
(120.00003 9.2439348e-05 -5.763547e-05)
(120.00003 0.00011140246 -5.4764055e-05)
(120.00004 0.00012484958 -4.1157562e-05)
(120.00003 0.00011176371 -2.7229998e-05)
(120.00005 9.8326839e-05 -4.3238225e-05)
(120.00003 0.00012464491 -1.2669364e-05)
(120.00003 0.00013457372 1.3182567e-06)
(120.00003 0.00011637847 1.6020586e-05)
(120.00005 9.0864347e-05 4.6014845e-05)
(120.00005 0.00010596935 2.818637e-05)
(120.00003 0.00010742544 5.539729e-05)
(120.00003 8.6316649e-05 5.5972298e-05)
(120.00003 7.1575632e-05 6.7177316e-05)
(120.00003 6.8835572e-05 7.028318e-05)
(120.00003 5.7730697e-05 8.5081933e-05)
(120.00003 5.7248356e-05 0.00010596639)
(120.00005 2.967324e-05 0.00010471763)
(120.00005 4.7726924e-05 9.0123549e-05)
(120.00003 1.78442e-05 0.00011539453)
(120.00003 3.1208943e-06 0.00013380764)
(120.00003 -1.0691722e-05 0.00012396497)
(120.00005 -4.1724751e-05 9.7879071e-05)
(120.00003 -2.6342473e-05 0.00011135454)
(120.00004 -4.0272745e-05 0.00012427101)
(120.00003 -5.3990293e-05 0.00011081508)
(120.00003 -5.7076864e-05 9.1733978e-05)
(120.00003 -6.667642e-05 7.3658552e-05)
(120.00003 -6.8192157e-05 6.7795613e-05)
(120.00003 -8.4223045e-05 6.2909061e-05)
(120.00002 -9.5370764e-05 4.860831e-05)
(120.00003 -9.0598016e-05 4.8169264e-05)
(120.00003 -9.6985335e-05 2.8259457e-05)
(120.00003 -0.00010988592 1.849715e-05)
(120.00003 -0.00010862241 4.4297187e-06)
(120.00003 -0.00010847564 -8.1635372e-06)
(120.00003 -0.00010938588 -2.2250966e-05)
(120.00003 -9.702948e-05 -3.1463061e-05)
(120.00003 -8.9697669e-05 -5.0761509e-05)
(120.00002 -9.5653402e-05 -5.0969794e-05)
(120.00003 -8.3735848e-05 -6.337814e-05)
(120.00003 -6.9822815e-05 -6.8712816e-05)
(120.00003 -0.00012454576 -9.8146934e-05)
(120.00001 -0.00012595224 -0.00012730497)
(120.00003 -9.6864612e-05 -0.00012591483)
(120.00003 -0.0001005583 -0.00011990272)
(120.00002 -0.00010408455 -0.00016127513)
(120.00002 -7.6830058e-05 -0.00017896431)
(120.00002 -6.5491727e-05 -0.00016279274)
(120.00003 -5.5699658e-05 -0.0001470656)
(120.00001 -4.1797636e-05 -0.00018564051)
(120.00001 -1.490856e-05 -0.00019653338)
(120.00001 1.3494358e-05 -0.00019651701)
(120.00001 4.0686046e-05 -0.00018557831)
(120.00002 5.5090191e-05 -0.00014692414)
(120.00002 6.5231252e-05 -0.00016271035)
(120.00002 7.6569568e-05 -0.00017865867)
(120.00002 0.00010487601 -0.00016053391)
(120.00003 0.00010223465 -0.00011921781)
(120.00003 9.8306142e-05 -0.00012402947)
(120.00001 0.00012886315 -0.00012548787)
(120.00003 0.00012909043 -9.8668e-05)
(120.00004 0.00012740084 -0.000103013)
(120.00001 0.00017795432 -0.0001095397)
(120.00002 0.00020826638 -9.0220198e-05)
(120.00002 0.00021507019 -6.6801535e-05)
(120.00002 0.00021300313 -1.4142111e-05)
(120.00001 0.00019290187 -2.856833e-05)
(120.00003 0.00019190153 -1.3915761e-05)
(120 0.00019905104 9.5189006e-06)
(120.00002 0.00017658592 3.1750795e-05)
(120.00001 0.00017753461 4.880944e-05)
(120.00002 0.00019636804 4.4453442e-05)
(120.00001 0.00022381124 1.505926e-05)
(120.00001 0.0002572158 2.3667951e-05)
(120.00001 0.00025711031 -3.2619338e-05)
(120.00001 0.00024028682 -8.6440845e-05)
(120.00001 0.00021610105 -0.00012445528)
(120.00001 0.00017295998 -0.00013469501)
(120.00001 0.00017940237 -0.00017812761)
(120.00001 0.00013563669 -0.0001685489)
(120.00001 0.00012020037 -0.00021536277)
(120.00001 0.00015442497 -0.00021693959)
(120 0.00018929794 -0.00019089968)
(120.00001 0.00021820725 -0.00015641831)
(120.00001 0.00024697517 -0.00010956484)
(120.00001 0.00026294153 -4.2030303e-05)
(120 0.00026253924 3.3365566e-05)
(120.00001 0.00024542857 0.00010270161)
(120.00001 0.00024125728 7.6958903e-05)
(120.00001 0.00021064576 0.00011841608)
(120.00002 0.0001875956 8.0467044e-05)
(120.00001 0.00017080391 0.00010550628)
(120.00003 0.00012014967 9.8097766e-05)
(120.00003 0.00012528058 9.6772069e-05)
(120.00001 0.00012585173 0.00012434567)
(120.00001 0.00016957725 0.00013184706)
(120.00001 0.00017776858 0.00017608689)
(120.00001 0.00021595137 0.00015149068)
(120 0.00018830592 0.00018651213)
(120 0.0002156884 0.000126752)
(119.99999 0.00023121596 4.2455587e-05)
(119.99999 0.00023166764 -5.0659823e-05)
(120 0.00021620494 -0.0001330853)
(119.99998 0.00014877034 -0.00015199845)
(120 0.00012981071 -0.00021796367)
(120.00001 0.00010627341 -0.00024842958)
(120.00001 8.0979916e-05 -0.00024758)
(120.00001 5.7628852e-05 -0.00021490203)
(120.00002 2.2369331e-05 -0.00023493931)
(120.00001 2.8633768e-05 -0.00026596396)
(120 3.7272238e-05 -0.0002659031)
(119.99999 4.5861266e-05 -0.00023355367)
(119.99997 5.2636795e-05 -0.00016299361)
(119.99996 5.6530173e-05 -6.1272795e-05)
(119.99997 0.00015968817 -5.731111e-05)
(119.99997 0.00015931641 4.9810199e-05)
(119.99998 0.00014799429 0.00014611789)
(120 0.00012858272 0.00021386462)
(120.00001 0.00010447645 0.00024372379)
(120.00001 0.00015325275 0.0002142526)
(120.00001 0.00012012718 0.0002090958)
(120.00001 0.00013354368 0.00016796098)
(120.00002 0.00010733216 0.00016943506)
(120.00003 9.9790507e-05 0.00011890362)
(120.00003 9.8063931e-05 0.00012375797)
(120.00003 0.00018795222 0.00025526537)
(120.00003 0.00021046761 0.00023965178)
(120.00007 0.00029660943 0.00035892985)
(120.00014 0.00019163405 0.00028981582)
(120.00012 0.00024079735 0.00023781515)
(120.00012 0.00024201478 0.00023611126)
(120.00014 0.000293476 0.00018619509)
(120.00012 0.00032939399 0.00014821295)
(120.00012 0.00038749843 0.00016187196)
(120.00004 0.00022829132 6.9988836e-05)
(120.00005 0.00019468983 8.9406663e-05)
(120.00012 0.00039888448 0.00011958755)
(120.00012 0.00038980909 7.3091506e-05)
(120.00012 0.00040006974 6.7381439e-06)
(120.00013 0.00041581366 -5.7398715e-05)
(120.00011 0.00043848632 -0.00011909849)
(120.00015 0.00052695072 -0.00013251104)
(120.00014 0.00044544007 -0.00019563306)
(120.00013 0.00034438427 -0.00014725989)
(120.00015 0.00030697264 -0.00019196861)
(120.00013 0.00025106979 -0.00023834284)
(120.00013 0.00024643378 -0.00023548716)
(120.00014 0.00020816044 -0.00028364103)
(120.00012 0.0001590268 -0.00029629482)
(120.00014 0.0001704602 -0.00031678131)
(120.00014 9.213169e-05 -0.00034594616)
(120.00013 6.7422122e-05 -0.00035719839)
(120.00014 1.9420187e-05 -0.0003756218)
(120.00014 -2.3504745e-05 -0.00037573162)
(120.00013 -7.0748797e-05 -0.00035731104)
(120.00014 -9.4332344e-05 -0.00034651859)
(120.00014 -0.00017156321 -0.00031710156)
(120.00012 -0.00015802546 -0.00029788227)
(120.00014 -0.00020376575 -0.00028654083)
(120.00007 -0.00030144004 -0.00036042385)
(120.00007 -0.00027609806 -0.00034126149)
(120.00003 -0.00018715846 -0.00026105007)
(120.00003 -0.00021216415 -0.00024249796)
(120.00007 -0.00036279972 -0.00038907268)
(120.00013 -0.00035594557 -0.00042863959)
(120.00007 -0.00030076021 -0.00039757367)
(120.00005 -0.00036442509 -0.00036823943)
(120.00001 -0.0005242648 -0.00042974828)
(120.00001 -0.00016812666 -0.00013596143)
(120.00001 -0.00017679989 -0.00017840607)
(120.00001 -0.00013437177 -0.00016959176)
(120.00001 -0.00012023284 -0.00021584617)
(120.00001 -8.1769064e-05 -0.00024777179)
(120.00001 -5.8574321e-05 -0.00021500989)
(120.00002 -2.3738187e-05 -0.00023494075)
(120.00001 -2.9932537e-05 -0.00026600104)
(120 -3.8545934e-05 -0.00026591259)
(119.99999 -4.7290012e-05 -0.0002334771)
(119.99997 -5.4472294e-05 -0.00016280517)
(119.99996 -5.8960367e-05 -6.0991221e-05)
(119.99996 -5.9356082e-05 5.4475662e-05)
(119.99996 5.6147933e-05 5.4185278e-05)
(119.99997 5.1677742e-05 0.00015737272)
(119.99999 4.4255679e-05 0.00022935924)
(120 3.5104559e-05 0.00026083472)
(120.00001 2.5322576e-05 0.00025571503)
(120.00001 7.8690461e-05 0.00023973916)
(120.00002 4.6167965e-05 0.00019498529)
(120.00002 8.2194884e-05 0.00018627723)
(120.00005 0.00022915163 0.00053912469)
(120.00011 0.00018361155 0.00052190915)
(120.00005 0.00010216958 0.00033561389)
(120.00004 7.3302063e-05 0.00022595059)
(120.00012 0.00016729862 0.00038386724)
(120.00012 0.00015328235 0.00032540207)
(120.00029 0.00031936419 0.00064532794)
(120.00035 0.00037927294 0.00056793066)
(120.00033 0.00045403683 0.00046366884)
(120.00033 0.00047097261 0.00044534248)
(120.00035 0.00057508219 0.00037007261)
(120.0003 0.00065243629 0.00031051589)
(120.0003 0.00067144037 0.000303651)
(120.00031 0.00072922443 0.00020093228)
(120.00031 0.00073361614 0.00013379052)
(120.0003 0.00076866392 2.0893519e-05)
(120.0003 0.0007713277 -9.1011113e-05)
(120.00028 0.00078785685 -0.00019574943)
(120.00032 0.00084758107 -0.00023778771)
(120.00032 0.00074085847 -0.00035078048)
(120.00031 0.00068149032 -0.0003193906)
(120.00036 0.00059472115 -0.00037506301)
(120.00033 0.00048302846 -0.00044905916)
(120.00034 0.00046241251 -0.0004638855)
(120.00036 0.00039552182 -0.00056003431)
(120.00032 0.00032772793 -0.00061676815)
(120.00035 0.00030808267 -0.00061362121)
(120.00036 0.00018595342 -0.0006816841)
(120.00034 0.00013473802 -0.00072227685)
(120.00035 3.6009341e-05 -0.00076321832)
(120.00035 -4.3095791e-05 -0.00076319559)
(120.00034 -0.00014090083 -0.00072223651)
(120.00036 -0.00019029403 -0.00068195532)
(120.00035 -0.00031008141 -0.0006142522)
(120.00033 -0.00032666075 -0.00061861546)
(120.00065 -0.00059531025 -0.0011078324)
(120.00072 -0.00070849054 -0.0010355486)
(120.00069 -0.00083259017 -0.00086409203)
(120.00069 -0.00085400075 -0.0008446664)
(120.00072 -0.001025051 -0.00072055702)
(120.00037 -0.00055732262 -0.00039703942)
(120.00014 -0.00028302236 -0.00020853171)
(120.00012 -0.00029420289 -0.00016237164)
(120.00014 -0.00031424714 -0.00017591769)
(120.00014 -0.00034440319 -9.8952805e-05)
(120.00013 -0.00035488975 -7.5035388e-05)
(120.00014 -0.00037390561 -2.7557569e-05)
(120.00014 -0.0003741538 1.5679546e-05)
(120.00013 -0.0003558504 6.380917e-05)
(120.00013 -0.00034462247 8.8909545e-05)
(120.00013 -0.00031573453 0.00016728747)
(120.00011 -0.00029532358 0.00015622557)
(120.00014 -0.00028241483 0.00020550809)
(120.00013 -0.00023423523 0.00024390686)
(120.00013 -0.0002367966 0.0002490427)
(120.00015 -0.00019014182 0.00030475438)
(120.00012 -0.00014523659 0.00034246205)
(120.00014 -0.00019221367 0.00044298247)
(120.00006 -7.8064555e-05 0.00026105115)
(120.00002 -6.4160908e-05 0.00026790806)
(120.00004 -7.2820682e-05 0.00022833677)
(120.00011 -0.00011506035 0.00043596609)
(120.00013 -5.317938e-05 0.00041279922)
(120.00011 1.1730775e-05 0.00039759854)
(120.00012 7.8234786e-05 0.00038743491)
(120.00012 0.00012494294 0.00039593915)
(120.00005 9.2816348e-05 0.0001929448)
(120.00004 0.00010620756 0.00030572627)
(120.00009 0.00015156272 0.00048404569)
(120.00011 0.00020851075 0.00050031085)
(120.00015 0.00019883912 0.00059126059)
(120.0001 0.00014070945 0.00052622956)
(120.0001 0.00010846436 0.00055914176)
(120.00009 8.7885498e-05 0.00061721205)
(120.00003 4.9172972e-05 0.00042155578)
(120.00001 5.0584039e-05 0.00017622243)
(120.00002 3.3917048e-05 0.00017524509)
(120 1.1190204e-05 0.00019794975)
(120.00001 1.6686326e-05 0.000222523)
(120.00002 -1.2768491e-05 0.00021196633)
(120.00001 -3.107619e-05 0.00025566435)
(120.00001 -4.038878e-05 0.00026126557)
(119.99999 -4.8943223e-05 0.00022979286)
(119.99997 -5.5508856e-05 0.00015768656)
(119.99998 -0.00015030617 0.00014675388)
(119.99997 -0.00016118543 5.0542932e-05)
(119.99997 -0.0001608778 -5.6564009e-05)
(119.99998 -0.00014954765 -0.00015154733)
(120 -0.00013033018 -0.00021782533)
(120.00001 -0.00010687017 -0.00024854146)
(120.00001 -0.0001540251 -0.0002172856)
(120 -0.00018884934 -0.00019068081)
(119.99999 -0.00021598919 -0.00013232235)
(119.99999 -0.00023171595 -4.9353351e-05)
(119.99999 -0.0002319094 4.3812738e-05)
(119.99999 -0.000216431 0.00012786094)
(120 -0.00018947176 0.00018751322)
(120 -0.00013149753 0.00021434341)
(120.00001 -0.00010805182 0.00024532373)
(120.00001 -8.5006754e-05 0.00023890456)
(120.00002 -6.5415374e-05 0.00021392161)
(120.00002 -8.8999738e-05 0.00020706915)
(120.00001 -0.0001231921 0.00021476786)
(120.00001 -0.0001550743 0.00021662616)
(120.00001 -0.00017698784 0.00017794299)
(120.00001 -0.00021570561 0.0001527754)
(120.00001 -0.00024707456 0.00010448141)
(120 -0.00026444728 3.5375367e-05)
(120 -0.00026434769 -4.0471657e-05)
(120.00001 -0.0002469112 -0.00010873689)
(120.00001 -0.00021563848 -0.00015579297)
(120.00001 -0.00021442993 -0.00012189869)
(120.00001 -0.00024636302 -8.3477981e-05)
(120.00001 -0.00026463057 -3.1644298e-05)
(120.00001 -0.0002646895 2.6964068e-05)
(120.00001 -0.00024640992 7.9406657e-05)
(120.00001 -0.00021431472 0.00011872409)
(120.00001 -0.00016765817 0.00013434298)
(120.00001 -0.0001247348 0.00012784256)
(120.00001 -0.00013370091 0.00017176685)
(120.00001 -0.00010851857 0.00017684066)
(120.00004 -0.00010222966 0.00012646301)
(120.00003 -9.8030997e-05 0.00012818485)
(120.00003 -0.00018657799 0.00026251662)
(120.00006 -0.00027395903 0.0003437673)
(120.00007 -0.00030202755 0.00037795196)
(120.00003 -0.00021426304 0.00025255945)
(120.00006 -0.00036539024 0.00040762394)
(120.00007 -0.00030018701 0.00039708283)
(120.00012 -0.00035744511 0.00043979787)
(120.00023 -0.00061301778 0.00076130067)
(120.00036 -0.00037180912 0.00059079029)
(120.00031 -0.00031548514 0.00067770058)
(120.00032 -0.00034519266 0.00073686155)
(120.00032 -0.00023195463 0.00084360196)
(120.00015 -0.00012880684 0.00052422983)
(120.00008 -0.00022330596 0.00063844424)
(120.00014 -0.00016888721 0.00057141358)
(120.00013 -0.00013584245 0.00058691879)
(120.00005 -7.6552328e-05 0.0004173318)
(120.00003 -7.5361789e-05 0.00038241739)
(120.0001 -9.0820155e-05 0.00059429782)
(120.00015 -0.000149052 0.0006572684)
(120.00008 -0.00011715629 0.00054706251)
(120.00019 -0.0002435426 0.001080147)
(120.00028 -0.00018902034 0.00078372459)
(120.0003 -8.3565814e-05 0.00076706751)
(120.0003 2.9296075e-05 0.00076454072)
(120.0003 0.00014248506 0.00072890552)
(120.00031 0.00020975405 0.00072340031)
(120.0003 0.000312919 0.00066556043)
(120.0006 0.00055500811 0.0011300432)
(120.0006 0.00058775333 0.0011279669)
(120.00068 0.00070285185 0.0010347219)
(120.00065 0.00083548999 0.0008516362)
(120.00065 0.00086291174 0.00082199793)
(120.00068 0.0010463681 0.0006892207)
(120.0006 0.0011388524 0.00057436558)
(120.00061 0.001138892 0.00054101576)
(120.00064 0.0012841311 0.00034179926)
(120.00061 0.0012961553 0.00023038445)
(120.0006 0.0013431944 4.8996113e-05)
(120.0006 0.0013454244 -0.00012630621)
(120.00059 0.0013426613 -0.00030743179)
(120.00063 0.001368686 -0.00039566758)
(120.00061 0.0011904592 -0.00058544539)
(120.00061 0.0011640698 -0.0005966614)
(120.00069 0.0010662812 -0.00070528953)
(120.00067 0.0008754685 -0.00083375112)
(120.00068 0.00084542489 -0.00085915986)
(120.00071 0.00071501583 -0.0010311294)
(120.00064 0.00059445501 -0.0011060203)
(120.00067 0.00055424424 -0.0010917396)
(120.00069 0.00033923576 -0.0012379969)
(120.00065 0.00024061525 -0.0012729502)
(120.00064 7.0158296e-05 -0.0013164656)
(120.00065 -8.1740976e-05 -0.0013169699)
(120.00066 -0.00025089262 -0.0012733828)
(120.0007 -0.00034692433 -0.0012377591)
(120.00067 -0.00055895864 -0.0010924011)
(120.00109 -0.00090397178 -0.0017650931)
(120.00106 -0.0009718612 -0.0017738574)
(120.00117 -0.0011652733 -0.0016846541)
(120.00113 -0.0013633234 -0.0014170335)
(120.00113 -0.0014029007 -0.0013799095)
(120.00117 -0.0016698586 -0.001181764)
(120.00106 -0.0017604131 -0.00098815622)
(120.00065 -0.001098126 -0.00060713595)
(120.00032 -0.00061222941 -0.00033446932)
(120.00035 -0.00060934071 -0.00031811048)
(120.00036 -0.00067744284 -0.00019818997)
(120.00034 -0.00071822933 -0.00014855507)
(120.00035 -0.0007597442 -5.0591387e-05)
(120.00035 -0.00075989955 2.8961796e-05)
(120.00034 -0.00071929879 0.0001282334)
(120.00035 -0.00067913171 0.00018009679)
(120.00035 -0.00061146366 0.0003022815)
(120.00032 -0.00061474815 0.00032267733)
(120.00036 -0.0005578043 0.00039076711)
(120.00034 -0.00046154134 0.0004579917)
(120.00033 -0.0004463418 0.00047926777)
(120.00066 -0.00082884614 0.0008689679)
(120.00068 -0.00069975024 0.0010595744)
(120.0006 -0.00059013978 0.0011577185)
(120.0006 -0.00057701442 0.0011842716)
(120.00062 -0.00038673553 0.0013622934)
(120.00058 -0.00029709135 0.0013359136)
(120.00059 -0.00011487047 0.0013385436)
(120.0006 6.144034e-05 0.0013362026)
(120.0006 0.00024340664 0.001288514)
(120.00063 0.00035534203 0.0012748583)
(120.00103 0.00057008496 0.0020318953)
(120.001 0.00089295712 0.0017893118)
(120.00098 0.00096309625 0.0017851085)
(120.0011 0.0011602023 0.0016769774)
(120.00106 0.0013652894 0.0013962894)
(120.00106 0.0014122893 0.0013464692)
(120.0011 0.0016937257 0.0011414642)
(120.00099 0.0018004053 0.00094459529)
(120.00101 0.0018019646 0.00087357228)
(120.00104 0.0020453419 0.00055126146)
(120.00099 0.0020632629 0.00037718422)
(120.00097 0.0021225806 9.1969065e-05)
(120.00097 0.0021252003 -0.0001778476)
(120.00097 0.0020980575 -0.00046358596)
(120.00103 0.0021037497 -0.00061834074)
(120.00101 0.0018384631 -0.00092818178)
(120.001 0.0018191417 -0.00098533728)
(120.00112 0.0017083111 -0.0011729052)
(120.0011 0.0014219994 -0.0013713514)
(120.00111 0.001373972 -0.0014140454)
(120.00115 0.0011687593 -0.0016813896)
(120.00105 0.00096689888 -0.0017729593)
(120.00108 0.00089448433 -0.0017650558)
(120.00111 0.0005628264 -0.0020075499)
(120.00105 0.00039725771 -0.0020364621)
(120.00103 0.00011970928 -0.0020912933)
(120.00104 -0.00013734041 -0.0020914439)
(120.00106 -0.00041313659 -0.0020363772)
(120.00112 -0.00057568611 -0.0020063217)
(120.0017 -0.00089634713 -0.003052447)
(120.00167 -0.0013723612 -0.0026916723)
(120.00162 -0.0014901263 -0.002682607)
(120.00178 -0.0017931745 -0.0025618679)
(120.00173 -0.0020843642 -0.0021747689)
(120.00173 -0.0021560211 -0.0021059544)
(120.00178 -0.0025423219 -0.001814672)
(120.00162 -0.0026648689 -0.0015114717)
(120.00166 -0.0026765725 -0.0013947676)
(120.00169 -0.0030370381 -0.00091878488)
(120.00112 -0.0019949563 -0.0005926812)
(120.00069 -0.0012300666 -0.00035910161)
(120.00065 -0.0012664444 -0.00026252895)
(120.00064 -0.001310685 -9.2936146e-05)
(120.00064 -0.0013115227 5.9509281e-05)
(120.00065 -0.001268426 0.000230457)
(120.00068 -0.0012336224 0.00032977346)
(120.00066 -0.0010878869 0.00054479687)
(120.00064 -0.0011021845 0.00058620705)
(120.0007 -0.0010270437 0.00070719965)
(120.00067 -0.00085488645 0.00083792924)
(120.00109 -0.0014072695 0.0013626639)
(120.00108 -0.001363644 0.0014120401)
(120.00111 -0.0011644607 0.0016981365)
(120.00098 -0.00097564179 0.0018096091)
(120.001 -0.00091623313 0.0018293525)
(120.00102 -0.00060574521 0.0020942082)
(120.00096 -0.00044912683 0.0020880865)
(120.00095 -0.00016195234 0.0021150173)
(120.00096 0.00010911866 0.0021121138)
(120.00098 0.00039516741 0.0020519928)
(120.00149 0.00061234042 0.003089411)
(120.00158 0.00087907907 0.0030624818)
(120.00155 0.00135575 0.0027005919)
(120.00151 0.0014792745 0.0026806756)
(120.00167 0.0017872755 0.0025437165)
(120.00163 0.0020853127 0.0021433818)
(120.00163 0.0021649992 0.0020603363)
(120.00168 0.0025663277 0.0017625118)
(120.00152 0.0027012171 0.001454813)
(120.00156 0.0027179087 0.0013301599)
(120.00159 0.0030808467 0.00085420228)
(120.00151 0.0031050462 0.00058863656)
(120.00148 0.0031823684 0.00015432116)
(120.00147 0.0031850577 -0.00025363374)
(120.0015 0.0031301886 -0.00068724296)
(120.00159 0.0031188831 -0.00093744415)
(120.00157 0.0027417943 -0.0014022158)
(120.00154 0.0027124126 -0.001514644)
(120.00171 0.0025740118 -0.0018113097)
(120.00168 0.0021696984 -0.0021015624)
(120.00169 0.0020894095 -0.0021744242)
(120.00175 0.0017908218 -0.0025612502)
(120.0016 0.0014788442 -0.0026836832)
(120.00165 0.0013558655 -0.0026931312)
(120.00169 0.0008760456 -0.0030552735)
(120.0016 0.00061614569 -0.0030841149)
(120.00157 0.00018758655 -0.003158283)
(120.00157 -0.00021323285 -0.0031581189)
(120.00161 -0.00063984154 -0.0030833066)
(120.00238 -0.00095038244 -0.0045022136)
(120.00251 -0.0013341888 -0.0044618668)
(120.00247 -0.0020041996 -0.0039459693)
(120.00241 -0.002191124 -0.0039064297)
(120.00262 -0.0026374816 -0.0037355709)
(120.00256 -0.0030507106 -0.0031933744)
(120.00256 -0.0031694679 -0.0030778834)
(120.00262 -0.0037107058 -0.0026645759)
(120.0024 -0.0038837752 -0.0022180959)
(120.00246 -0.0039263361 -0.002032633)
(120.0025 -0.0044416864 -0.0013627892)
(120.00236 -0.0044848865 -0.00097849864)
(120.0016 -0.0030702007 -0.00066174306)
(120.00105 -0.0020266516 -0.00042957371)
(120.00103 -0.0020825655 -0.00015314809)
(120.00103 -0.0020833925 0.00010452193)
(120.00104 -0.0020291118 0.00038244193)
(120.0011 -0.002000762 0.00054897478)
(120.00107 -0.0017591184 0.00088065643)
(120.00104 -0.0017668101 0.00095472616)
(120.00114 -0.0016748731 0.0011570647)
(120.00173 -0.0025516909 0.0017743942)
(120.00167 -0.0021645317 0.0020734688)
(120.00166 -0.0020904636 0.0021554804)
(120.00169 -0.0017993378 0.0025595903)
(120.00152 -0.0015011788 0.0026989261)
(120.00155 -0.0013860509 0.0027289359)
(120.00157 -0.00092048104 0.0031053678)
(120.00148 -0.00066798292 0.0031161935)
(120.00146 -0.00023260623 0.0031707678)
(120.00146 0.00017694611 0.0031676827)
(120.00218 0.00027130328 0.004600644)
(120.00223 0.00091284538 0.0044933952)
(120.00236 0.0013068821 0.0044542991)
(120.00232 0.0019817305 0.0039387287)
(120.00226 0.0021770406 0.0038889488)
(120.00249 0.0026300586 0.0037037164)
(120.00243 0.0030504901 0.0031490737)
(120.00243 0.0031772692 0.0030183389)
(120.00249 0.0037331481 0.0025982145)
(120.00227 0.0039157088 0.0021456459)
(120.00233 0.0039616394 0.0019489734)
(120.00238 0.0044785294 0.0012750111)
(120.00225 0.0045143067 0.00088255175)
(120.0022 0.0046204756 0.00024236187)
(120.0022 0.0046227335 -0.00036080471)
(120.00225 0.0045313885 -0.00099897616)
(120.00238 0.0045004965 -0.0013787663)
(120.00236 0.0039747167 -0.0020423368)
(120.00231 0.0039186695 -0.0022259653)
(120.00254 0.0037327196 -0.0026667195)
(120.00249 0.0031755503 -0.0030788429)
(120.0025 0.0030475499 -0.0031964122)
(120.00258 0.0026269302 -0.0037388613)
(120.00238 0.0021713711 -0.003910565)
(120.00245 0.0019783702 -0.0039498094)
(120.00249 0.0013039693 -0.0044668597)
(120.00237 0.0009163735 -0.0045040071)
(120.00232 0.00028111627 -0.0046081222)
(120.00233 -0.00031730213 -0.0046075818)
(120.00335 -0.00045709094 -0.0065192956)
(120.00343 -0.0013644785 -0.0063684776)
(120.00361 -0.0019144381 -0.0063116247)
(120.00356 -0.0028305451 -0.0055963182)
(120.00348 -0.0031107775 -0.0055043628)
(120.00376 -0.0037414641 -0.0052649329)
(120.00368 -0.0043097198 -0.0045245019)
(120.00368 -0.0044948496 -0.004343124)
(120.00376 -0.0052340692 -0.0037747796)
(120.00348 -0.0054760927 -0.0031439721)
(120.00355 -0.0055714925 -0.0028657185)
(120.0036 -0.0062857528 -0.0019499178)
(120.00341 -0.0063459279 -0.0013995282)
(120.00333 -0.0064979471 -0.00049230946)
(120.00231 -0.0045913475 -0.00034528466)
(120.00156 -0.0031459604 -0.00023473749)
(120.00156 -0.0031469553 0.00016674105)
(120.00159 -0.0030733454 0.0005957746)
(120.00167 -0.0030453458 0.00085683256)
(120.00163 -0.0026843093 0.0013367995)
(120.00158 -0.0026746196 0.0014618692)
(120.00235 -0.0038978865 0.0021485596)
(120.00255 -0.003725584 0.0026047414)
(120.00248 -0.0031827146 0.0030259261)
(120.00246 -0.0030636835 0.0031561017)
(120.00251 -0.0026505353 0.003713047)
(120.00228 -0.0022080546 0.0039002336)
(120.00233 -0.0020211802 0.0039571251)
(120.00235 -0.0013566541 0.0044820064)
(120.00222 -0.00097410002 0.004512375)
(120.00218 -0.00033383449 0.0046033594)
(120.00317 -0.00047185296 0.0064960635)
(120.00318 0.00039900018 0.006494175)
(120.00325 0.0013153658 0.0063428608)
(120.00343 0.0018771312 0.0062861615)
(120.00338 0.0028012992 0.0055727332)
(120.0033 0.0030923304 0.0054705969)
(120.00359 0.003731767 0.0052175205)
(120.00351 0.0043081228 0.0044653722)
(120.00352 0.00450127 0.0042675252)
(120.0036 0.0052549542 0.0036915888)
(120.00332 0.0055047062 0.003052845)
(120.0034 0.0056022925 0.0027602035)
(120.00345 0.0063174086 0.0018371388)
(120.00327 0.0063701486 0.0012774548)
(120.00321 0.0065202977 0.00036275607)
(120.00321 0.0065217433 -0.00050573557)
(120.00328 0.0063802643 -0.0014172548)
(120.00347 0.0063261523 -0.0019657525)
(120.00343 0.0056054043 -0.0028785913)
(120.00337 0.0054986389 -0.0031565044)
(120.00366 0.005245099 -0.0037827847)
(120.0036 0.0044918126 -0.0043503243)
(120.00361 0.0042963488 -0.0045320083)
(120.00371 0.0037206932 -0.0052734389)
(120.00344 0.0030804462 -0.0055126919)
(120.00353 0.0027930105 -0.0056034832)
(120.00359 0.0018716683 -0.0063194641)
(120.00342 0.0013173774 -0.006371598)
(120.00335 0.00040748593 -0.0065202942)
(120.00471 0.00057250986 -0.0089542501)
(120.00471 -0.00063877089 -0.00895267)
(120.00481 -0.001897681 -0.0087359976)
(120.00504 -0.0026574733 -0.0086544468)
(120.00498 -0.003866081 -0.0076930528)
(120.00489 -0.0042721425 -0.0075103642)
(120.00522 -0.005133067 -0.0071839465)
(120.00512 -0.0058869766 -0.0062030111)
(120.00512 -0.0061669523 -0.0059273063)
(120.00521 -0.0071462856 -0.0051732917)
(120.00488 -0.0074756503 -0.004312205)
(120.00497 -0.0076622216 -0.0039087349)
(120.00502 -0.0086217959 -0.0027006178)
(120.00479 -0.0087070645 -0.0019404714)
(120.00468 -0.0089249384 -0.0006821623)
(120.00467 -0.0089270934 0.00052899926)
(120.00333 -0.0064996147 0.00037258833)
(120.0023 -0.0045926223 0.00025370487)
(120.00235 -0.0044890813 0.00088948009)
(120.00247 -0.0044530677 0.0012783873)
(120.00242 -0.0039373038 0.0019529147)
(120.0035 -0.0055863638 0.0027597587)
(120.00341 -0.0054955572 0.0030505377)
(120.00367 -0.005255655 0.0036914621)
(120.00357 -0.0045137387 0.004267719)
(120.00356 -0.0043303375 0.0044659195)
(120.00362 -0.0037616026 0.0052189)
(120.00333 -0.0031333499 0.0054740037)
(120.00339 -0.0028515429 0.0055818854)
(120.00343 -0.0019375942 0.006301439)
(120.00324 -0.0013857949 0.0063549975)
(120.00459 -0.0019181316 0.008698883)
(120.00449 -0.00065231744 0.0089095244)
(120.0045 0.00056596186 0.0089088724)
(120.00459 0.0018352783 0.0086931822)
(120.00482 0.0026095135 0.0086114981)
(120.00476 0.0038294178 0.0076532384)
(120.00467 0.004248756 0.0074602787)
(120.00501 0.0051208731 0.0071201113)
(120.00492 0.0058843384 0.0061276434)
(120.00492 0.0061725674 0.0058338446)
(120.00502 0.0071670151 0.0050708832)
(120.00468 0.0075031465 0.0041997663)
(120.00478 0.0076906991 0.0037784934)
(120.00485 0.008651149 0.0025599629)
(120.00463 0.0087281328 0.0017884468)
(120.00454 0.0089426545 0.00052119571)
(120.00454 0.0089429837 -0.00069429392)
(120.00464 0.0087318972 -0.0019573207)
(120.00488 0.0086481942 -0.0027182103)
(120.00483 0.0076842373 -0.0039261362)
(120.00475 0.0074870532 -0.0043302774)
(120.00511 0.0071462539 -0.005187955)
(120.00503 0.0061538747 -0.0059418184)
(120.00505 0.0058620715 -0.0062164795)
(120.00516 0.0051004081 -0.0071991814)
(120.00483 0.0042291405 -0.007524353)
(120.00494 0.0038143837 -0.0077046987)
(120.00501 0.0025993454 -0.0086660829)
(120.00479 0.0018344059 -0.0087409907)
(120.00651 0.0024602886 -0.011572425)
(120.0064 0.00077478233 -0.011869327)
(120.00641 -0.00086103703 -0.011866917)
(120.00653 -0.0025428397 -0.011564701)
(120.00678 -0.0035572909 -0.011456118)
(120.00671 -0.0050759185 -0.010217444)
(120.00661 -0.0056546726 -0.0098818743)
(120.00696 -0.0067918588 -0.009456004)
(120.00686 -0.0077483092 -0.008209927)
(120.00686 -0.0081666296 -0.0077964943)
(120.00695 -0.0094106404 -0.0068398587)
(120.0066 -0.0098397824 -0.0057024233)
(120.0067 -0.010179637 -0.0051269791)
(120.00675 -0.01141551 -0.00360903)
(120.0065 -0.011528119 -0.0025943501)
(120.00638 -0.011831355 -0.00091384153)
(120.00636 -0.011834133 0.00072112338)
(120.00646 -0.011538561 0.0024058483)
(120.00476 -0.0087148375 0.001790837)
(120.00339 -0.0063516554 0.0012828352)
(120.00356 -0.0063009528 0.0018385127)
(120.00497 -0.0086417085 0.0025571218)
(120.0049 -0.0076818388 0.0037716228)
(120.00479 -0.0075017767 0.0041905474)
(120.0051 -0.007175951 0.0050625198)
(120.00499 -0.0061927278 0.0058248003)
(120.00498 -0.0059161084 0.0061200111)
(120.00505 -0.0051608693 0.0071119402)
(120.0047 -0.0043009675 0.0074547148)
(120.00478 -0.0038921536 0.0076533244)
(120.00482 -0.0026829623 0.0086157355)
(120.00652 -0.0035864215 0.011390526)
(120.00627 -0.0025636466 0.011504613)
(120.00615 -0.00087367261 0.011803893)
(120.00615 0.00077083324 0.011804939)
(120.00627 0.0024655467 0.011505518)
(120.00651 0.0034980336 0.011397)
(120.00645 0.0050318815 0.010162166)
(120.00635 0.0056266868 0.0098162661)
(120.0067 0.0067781699 0.0093759473)
(120.00661 0.0077463859 0.0081175463)
(120.00662 0.0081732214 0.0076838032)
(120.00672 0.0094339199 0.0067163329)
(120.00637 0.0098692386 0.0055662266)
(120.00648 0.010208839 0.0049691293)
(120.00655 0.011446468 0.0034371685)
(120.00631 0.011549477 0.0024081866)
(120.00621 0.011847828 0.00071601537)
(120.00621 0.011846714 -0.00092522216)
(120.00633 0.011546929 -0.0026119937)