/*--------------------------------*- C++ -*----------------------------------*\
  =========                 |
  \\      /  F ield         | OpenFOAM: The Open Source CFD Toolbox
   \\    /   O peration     | Website:  https://openfoam.org
    \\  /    A nd           | Version:  7
     \\/     M anipulation  |
\*---------------------------------------------------------------------------*/
FoamFile
{
    version     2.0;
    format      ascii;
    class       volScalarField;
    location    "100";
    object      k;
}
// * * * * * * * * * * * * * * * * * * * * * * * * * * * * * * * * * * * * * //

dimensions      [0 2 -2 0 0 0 0];

internalField   nonuniform List<scalar> 
24866
(
3468.0719
3534.7259
3544.0129
4134.4708
4720.5241
4709.4528
4668.8073
4720.9909
4726.3622
4663.236
4689.3411
4689.6803
4664.0807
4726.9141
4720.4742
4670.7036
4704.9732
4722.0257
4706.6943
4690.998
4624.2182
4736.6221
4869.5677
4808.5674
4680.6342
4596.4657
4694.8288
4817.7239
4804.8804
4641.1206
4711.585
4709.6309
4709.624
4711.5908
4641.3288
4804.9689
4818.2785
4695.3621
4595.9066
4679.9612
4808.383
4869.5518
4736.6735
4624.2301
4691.5316
4706.4068
4722.7644
4704.3669
4671.159
4719.2838
4727.8536
4663.8191
4689.3484
4689.6094
4664.4659
4725.9341
4721.4811
4667.8368
4710.6899
4719.4647
4752.6096
4724.5009
4753.0995
4755.0714
4682.0333
4715.4452
4776.2416
4764.5618
4682.5531
4685.1264
4685.3532
4682.9457
4764.7575
4776.2908
4715.6652
4681.1981
4751.0708
4750.6711
4715.2508
4735.3381
4728.9792
4629.0707
4642.9318
4701.2065
4720.5181
4783.7917
4715.4509
4654.9225
4727.182
4792.2181
4720.7441
4663.008
4703.5675
4707.4542
4700.5279
4683.5392
4671.6706
4691.7128
4686.4664
4696.1158
4692.3834
4695.637
4691.4891
4697.8625
4702.1258
4702.1823
4700.0027
4704.9692
4698.6881
4691.2085
4642.1999
4744.1191
4740.8902
4714.0632
4679.3662
4693.9759
4695.7228
4698.2191
4701.9711
4704.2195
4703.7523
4700.4511
4703.6659
4698.5237
4692.9097
4689.9203
4676.2492
4682.5733
4685.4608
4692.5695
4699.8323
4705.2313
4708.193
4706.7164
4707.282
4705.407
4701.9912
4700.0327
4695.7362
4698.7156
4679.3957
4642.2407
4744.1123
4740.8763
4537.876
4539.065
4169.7382
4112.9495
4124.462
4124.4621
4112.9426
4052.9216
4066.3553
4590.7974
4589.6349
4084.2937
4101.8257
4012.0463
4082.503
4063.0195
3947.5414
3918.9625
4025.9225
4095.7861
4121.6584
4133.4639
4110.7665
4071.3111
4118.4851
4120.6356
4047.9967
4047.7705
4047.3149
4046.9551
4119.8233
4118.5371
4070.4437
4113.8101
4179.8773
4190.8576
4548.881
4550.8814
4166.1738
4015.2356
4177.9445
4123.9047
4074.2236
4688.6135
4695.4125
4688.6251
4696.1382
4689.4324
4675.7272
4682.3905
4685.2393
4692.2844
4699.4326
4704.6923
4707.558
4708.2217
4708.8533
4707.3088
4704.2641
4702.2346
4703.6158
4705.0005
4720.7918
4691.231
4098.8537
4124.8147
4452.3976
4590.9326
4066.1363
4052.9419
3518.2734
3530.8441
3536.3012
3536.2982
3530.8273
3518.234
3493.7389
3503.8449
3512.1929
3489.532
3505.7538
3492.8275
3448.867
3432.1635
3498.1962
3522.1214
3535.9751
3542.1283
3533.1017
3534.1092
3532.6763
3535.4454
3517.4521
3513.4027
3513.3156
3516.8113
3534.5964
3532.2241
3533.4411
3078.4715
3076.3704
3077.8639
3077.7895
3076.6071
3535.0933
4114.5068
4070.2287
4119.0012
4119.5318
4048.2802
4047.6803
4047.3629
4047.6227
4120.5077
4117.6887
4071.8468
4110.4546
4133.9954
4121.6111
4096.1866
4026.0488
3919.0987
4440.0551
4637.0919
4568.4659
4063.3322
4082.821
4012.2053
4101.59
4083.8195
4590.0405
4466.3002
4161.6191
4120.7698
3992.2158
4156.5015
4190.0298
4199.585
4577.796
4792.4053
4727.2992
4654.8919
4663.0404
4720.4958
4707.5184
4702.2034
4703.8243
4706.7698
4703.7404
4705.2797
4704.7135
4702.0687
4697.4916
4692.2846
4692.3447
4694.5194
4697.5096
4699.4736
4699.8945
4698.6109
4695.7479
4700.5459
4697.9638
4700.6203
4701.2253
4643.0319
4683.6784
4691.617
4691.8658
4692.5065
4693.0004
4692.6379
4692.3483
4692.3212
4692.3539
4696.1417
4689.4957
4685.3327
4685.5351
4690.0026
4696.2478
4686.6465
4715.4121
4671.8542
4629.2461
4729.3311
4735.3115
4531.8344
4176.6936
4155.7617
4525.8576
4137.917
4159.4154
3994.0056
3453.5822
3522.4196
3498.3466
3432.2666
3449.0294
3948.0413
3957.0315
4094.1067
4122.3342
4456.522
4438.2342
4123.1093
3973.8331
4138.045
3423.2536
3492.9245
3505.742
3489.4935
3512.2918
3503.9264
3493.7478
3045.9137
3065.4761
3071.4361
3072.1799
3072.1778
3071.4245
3065.4537
3045.9133
3047.9519
3054.1486
3046.6607
3051.5881
3041.4061
3020.7011
3015.5113
3053.6902
3066.3167
3072.5526
3076.3987
3075.7003
3079.0816
3075.2109
3076.9187
3071.7898
3070.6202
3070.2669
3071.0121
3076.1883
3074.6676
2706.1148
2709.6712
2707.3645
2706.8901
2706.8781
2707.5323
2709.8235
3078.5796
3533.4136
3532.6267
3534.8733
3517.5501
3513.3857
3513.4416
3517.3683
3535.2279
3532.1571
3534.2811
3532.9943
3542.4468
3536.0671
3072.6521
3066.5213
3053.8249
3015.6123
3020.8352
3041.4975
3051.6145
3046.6567
3054.1859
3047.9668
2685.1293
2685.0002
2698.9283
2702.4262
2702.4767
2702.4763
2702.418
2698.9133
2684.9957
2685.1171
2689.248
2687.2438
2688.3789
2680.8081
2669.6182
2668.2972
2691.3227
2699.4782
2703.1934
2705.816
2707.1422
2710.2146
2706.6556
2707.7129
2706.6863
2706.3207
2706.0829
2706.1115
2707.0946
2406.9762
2406.3938
2409.1744
2407.1483
2406.1501
2406.1635
2407.2759
2409.3311
2406.6525
2407.2771
2707.4379
3076.5279
3071.792
3070.6269
3070.4025
3071.4309
3076.6632
3074.8367
3079.0881
3075.6401
3076.5676
2705.8984
2703.2709
2699.6157
2691.4304
2668.3838
2669.7188
2680.8797
2688.406
2687.2492
2689.2733
2393.0312
2390.0882
2390.7526
2400.4883
2402.6255
2402.5886
2402.5879
2402.6194
2400.4774
2390.7467
2390.078
2393.0129
2393.2166
2392.7954
2386.9894
2380.4896
2380.8533
2395.3118
2400.8202
2403.3997
2405.3134
2407.1036
2409.6403
2406.882
2407.4812
2407.9224
2407.9249
2407.7485
2407.4845
2162.336
2161.34
2161.0348
2163.1063
2161.4126
2160.3848
2160.406
2161.5135
2163.2503
2161.2504
2161.5924
2162.6317
2407.8831
2706.6583
2706.344
2706.2087
2706.4231
2707.4568
2706.3559
2710.1416
2707.088
2407.0493
2405.3482
2403.4536
2400.9129
2395.3951
2380.9247
2380.5662
2387.0461
2392.8211
2393.2263
2151.3235
2150.3575
2148.1987
2149.204
2156.08
2157.418
2157.4219
2157.4207
2157.413
2156.0716
2149.1977
2148.1901
2150.3439
2151.3123
2150.2707
2145.759
2141.7871
2142.8954
2152.3916
2156.2107
2158.1782
2159.6667
2161.4096
2163.4888
2161.4551
2161.7511
2162.6749
2162.897
2162.7636
1959.893
1959.4076
1958.3529
1958.2155
1959.7294
1958.3671
1957.4784
1957.5003
1958.4486
1959.8552
1958.3934
1958.5604
1959.6308
1960.008
2162.9135
2407.9488
2407.854
2407.7208
2407.2595
2406.642
2409.5402
2163.3871
2161.3574
2159.6772
2158.2143
2156.2747
2152.4561
2142.9537
2141.8464
2145.8044
2150.2942
1949.4108
1950.6268
1949.5365
1947.9574
1949.0575
1953.9947
1954.8854
1954.9547
1954.9534
1954.8811
1953.9878
1949.0515
1947.9499
1949.5255
1950.6154
1949.3897
1945.8683
1943.3509
1944.7264
1951.2413
1953.9904
1955.5941
1956.8112
1958.3452
1960.0298
1958.5663
1958.6876
1959.674
1959.9959
1789.8572
1789.7753
1789.3031
1788.3641
1788.3144
1789.4074
1788.3519
1787.6412
1787.6612
1788.4187
1789.5147
1788.461
1788.5336
1789.4754
1789.8668
1789.8362
1959.963
2162.8479
2162.5201
2161.5673
2161.2646
1958.4156
1959.9376
1958.2978
1956.8104
1955.6185
1954.0362
1951.2918
1944.7741
1943.3979
1945.9052
1778.1738
1780.9131
1782.1146
1781.1559
1780.0221
1781.0815
1784.6816
1785.3319
1785.4577
1785.4565
1785.3282
1784.6758
1781.0759
1780.0156
1781.1468
1782.1035
1780.8943
1778.1432
1776.5108
1777.9043
1782.5422
1784.6099
1785.9703
1786.9965
1788.2909
1789.6335
1788.6006
1788.637
1789.5168
1644.8951
1645.2123
1645.1468
1644.7229
1643.9487
1643.9352
1644.716
1643.9211
1643.3767
1643.3942
1643.9765
1644.8067
1644.056
1644.0868
1644.8575
1645.2199
1645.1993
1644.8235
1789.4243
1959.555
1958.5388
1788.5177
1788.4814
1789.5541
1788.2494
1786.9909
1785.9873
1784.644
1782.5827
1777.9437
1776.5488
1634.422
1635.4878
1637.6283
1638.7294
1637.9763
1637.1804
1638.1317
1640.791
1641.3075
1641.4711
1641.47
1641.3042
1640.7859
1638.1266
1637.1746
1637.9685
1638.7189
1637.6114
1635.4622
1634.3907
1635.6802
1639.0798
1640.6954
1641.8709
1642.7491
1643.821
1644.8793
1644.1646
1644.1707
1519.8079
1520.3826
1520.6593
1520.6066
1520.2432
1519.6274
1519.6216
1520.1746
1519.5849
1519.1792
1519.1942
1519.6313
1520.2511
1519.7215
1519.74
1520.3494
1520.6655
1520.6517
1520.3272
1519.7324
1644.0757
1644.0702
1644.8126
1643.7855
1642.742
1641.8832
1640.7217
1639.1127
1635.7132
1512.9759
1511.8385
1512.5418
1514.2149
1515.186
1514.6354
1514.0888
1514.9071
1516.8937
1517.325
1517.508
1517.507
1517.3221
1516.8892
1514.9026
1514.0837
1514.6286
1515.1763
1514.1998
1512.5199
1511.8122
1512.9481
1515.4979
1516.7945
1517.8163
1518.5726
1519.4534
1520.2869
1519.8033
1411.5329
1411.5486
1411.9986
1412.2315
1412.1887
1411.8851
1411.4018
1411.3906
1411.7801
1411.3432
1411.0466
1411.0594
1411.3822
1411.8446
1411.4737
1411.494
1411.9699
1412.2366
1412.2277
1411.9557
1411.4886
1411.4728
1519.7282
1520.2315
1519.4233
1518.5654
1517.8255
1516.8154
1515.5251
1407.8899
1405.9415
1404.968
1405.434
1406.7435
1407.5824
1407.2035
1406.836
1407.5212
1409.0214
1409.3877
1409.576
1409.5751
1409.3851
1409.0175
1407.5171
1406.8314
1407.1974
1407.5734
1406.7301
1405.4152
1404.9457
1405.9178
1407.8671
1408.9244
1409.8133
1410.4664
1411.1891
1411.8521
1316.6126
1316.4084
1316.4382
1316.7915
1316.984
1316.9491
1316.6987
1316.3189
1316.2983
1316.5722
1316.2446
1316.0314
1316.0423
1316.2778
1316.6268
1316.3676
1316.3947
1316.7671
1316.9884
1316.9827
1316.7583
1316.3904
1316.3601
1316.5747
1411.8063
1411.1636
1410.4596
1409.8203
1408.9414
1314.1579
1313.2934
1311.7789
1310.9597
1311.2698
1312.2973
1313.0136
1312.7699
1312.5283
1313.0931
1314.239
1314.5493
1314.7334
1314.7325
1314.547
1314.2355
1313.0894
1312.5242
1312.7645
1313.0054
1312.2853
1311.2535
1310.9405
1311.7588
1313.2743
1314.1441
1314.9167
1315.4816
1316.076
1231.8813
1232.325
1232.1996
1232.242
1232.5232
1232.6811
1232.6524
1232.447
1232.1453
1232.1157
1232.309
1232.0582
1231.9071
1231.9164
1232.0864
1232.3554
1232.174
1232.208
1232.5027
1232.6849
1232.6815
1232.4975
1232.2039
1232.1606
1232.2936
1231.8629
1316.0544
1315.4754
1314.9221
1230.9046
1230.2408
1229.5268
1228.3312
1227.6477
1227.8556
1228.6645
1229.2725
1229.1307
1228.9762
1229.4379
1230.3242
1230.584
1230.7579
1230.7571
1230.582
1230.3211
1229.4347
1228.9726
1229.1259
1229.2652
1228.6539
1227.8415
1227.6313
1228.3139
1229.5107
1230.2294
1230.9006
1231.39
1156.461
1156.8696
1157.2448
1157.1726
1157.2244
1157.4526
1157.5821
1157.5585
1157.3899
1157.1461
1157.1099
1157.2477
1157.0501
1156.9448
1156.9526
1157.0743
1157.2873
1157.1592
1157.1984
1157.4357
1157.5856
1157.5837
1157.4327
1157.194
1157.1409
1157.2186
1156.8538
1156.4555
1231.3842
1232.4335
1233.491
1231.5998
1232.0727
1233.07
1229.5165
1230.307
1231.3638
1231.9005
1231.4032
1230.6505
1155.9522
1154.478
1154.8547
1155.5493
1155.7639
1155.9244
1155.9236
1155.7622
1155.5469
1154.8523
1154.4754
1154.5694
1154.6349
1154.117
1153.4748
1153.332
1153.8993
1154.8581
1155.4534
1156.0362
1088.9479
1089.3171
1089.6596
1089.9838
1089.9467
1090.0044
1090.1939
1090.3006
1090.2809
1090.1419
1089.9408
1089.9005
1090.0006
1089.8397
1089.7676
1089.7746
1089.8608
1090.0348
1089.9426
1089.9848
1090.1799
1090.3037
1090.3029
1090.1785
1089.9799
1089.9205
1089.9617
1089.6459
1089.3119
1088.9496
1156.039
1155.4626
1154.8715
1153.9137
1153.3456
1153.4865
1154.1259
1154.6408
1154.5731
1087.7345
1087.6794
1087.9873
1088.5395
1088.7138
1088.8594
1088.8592
1088.713
1088.5384
1087.9867
1087.6789
1087.7333
1087.7468
1087.3082
1086.7977
1086.6989
1087.1701
1087.9486
1088.4419
1028.079
1028.5183
1028.8396
1029.1287
1029.4144
1029.3997
1029.4603
1029.6219
1029.7108
1029.6942
1029.5781
1029.4082
1029.3663
1029.4411
1029.3053
1029.2572
1029.2634
1029.324
1029.471
1029.4027
1029.4457
1029.6102
1029.7136
1029.7135
1029.6097
1029.4402
1029.3777
1029.3953
1029.1163
1028.834
1028.5181
1028.0828
1088.4489
1087.959
1087.1811
1086.709
1086.806
1087.3139
1087.75
1027.4875
1027.5074
1027.4784
1027.7317
1028.1774
1028.3163
1028.4473
1028.4477
1028.3175
1028.1796
1027.7357
1027.4836
1027.5125
1027.4911
1027.1191
1026.7106
1026.6395
1027.0313
1027.6711
973.10702
973.44143
973.82224
974.10177
974.34724
974.60421
974.60264
974.66339
974.80559
974.88141
974.86708
974.7681
974.62001
974.57871
974.63724
974.51748
974.48662
974.49224
974.53426
974.66388
974.61081
974.65263
974.79565
974.88384
974.88413
974.7956
974.64634
974.58351
974.58697
974.33487
974.0944
973.81827
973.43928
973.10458
1027.6771
1027.0367
1026.6432
1026.712
1027.1179
972.61858
972.93249
972.9746
972.96135
973.17224
973.53848
973.646
973.76387
973.76585
973.65197
973.54857
973.18752
972.9806
972.99528
972.95245
972.63609
972.30561
972.25019
972.57601
923.0398
923.48286
923.74969
924.078
924.32005
924.52866
924.76582
924.77021
924.82842
924.9591
925.02648
925.0138
924.92612
924.7912
924.75262
924.80175
924.68953
924.67114
924.67634
924.70502
924.82607
924.78164
924.82032
924.95037
925.0285
925.02904
924.95049
924.81331
924.75278
924.74909
924.51477
924.30846
924.0663
923.73535
923.46296
923.00977
972.57018
972.24011
972.29171
922.77292
923.0393
923.30625
923.36005
923.35374
923.53306
923.84108
923.91969
924.02722
924.03284
923.93679
923.86931
923.57431
923.40571
923.41678
923.36386
923.09386
922.82125
922.77029
877.55031
877.76783
878.13513
878.3323
878.61052
878.81691
878.99259
879.21983
879.22408
879.27712
879.40518
879.46935
879.4578
879.37529
879.244
879.2102
879.25541
879.14055
879.13125
879.13619
879.15527
879.27821
879.23713
879.27074
879.39723
879.47099
879.47168
879.39741
879.2632
879.20746
879.20225
878.97483
878.79669
878.58341
878.29321
878.0794
877.68744
877.44529
922.7297
923.79788
924.28564
924.79563
925.02334
924.7961
924.34666
878.95231
877.98467
878.14238
878.40986
878.45943
878.56145
878.57472
878.50048
878.47695
878.23913
878.10696
878.12718
878.07512
877.84351
877.61014
836.12175
836.03438
836.19606
836.48987
836.60398
836.82888
836.99791
837.14158
837.37148
837.37005
837.41554
837.55256
837.62005
837.60934
837.5249
837.38514
837.35784
837.40363
837.2722
837.26933
837.27411
837.28652
837.4255
837.38339
837.41031
837.54522
837.62144
837.62223
837.54547
837.40251
837.35372
837.35157
837.11646
836.96157
836.77274
836.51713
836.36455
836.01726
835.80238
835.85634
877.48874
877.70993
877.93695
877.99318
836.2876
836.26547
836.41061
836.65303
836.66959
836.77332
836.80148
836.75803
836.79673
836.61668
836.52678
836.5741
836.53526
836.33518
798.11692
797.90175
797.76026
797.85004
798.05971
798.06276
798.22259
798.34794
798.45728
798.706
798.69409
798.73087
798.89225
798.97062
798.96019
798.86586
798.7025
798.68254
798.73231
798.56553
798.56648
798.57115
798.57956
798.75346
798.70693
798.72655
798.88532
798.97214
798.97302
798.88567
798.7188
798.67797
798.68234
798.42014
798.28411
798.11595
797.89057
797.80889
797.49309
797.29704
797.37463
797.5448
836.04579
836.23822
797.7064
797.73888
797.6883
797.82805
798.05881
798.03385
798.14902
798.20361
798.20785
798.34073
798.23157
798.20156
798.30163
798.29143
763.00668
762.85278
762.61209
762.38207
762.36708
762.46479
762.31328
762.38504
762.45536
762.52571
762.81184
762.78674
762.81621
763.01965
763.11775
763.10784
762.99515
762.79085
762.77666
762.832
762.60815
762.60962
762.61411
762.62168
762.85211
762.79956
762.81354
763.01363
763.11974
763.12071
763.01411
762.80586
762.77142
762.78373
762.47196
762.34996
762.1996
762.00249
762.00684
761.71424
761.5325
761.64893
761.81142
761.94486
761.9502
761.85382
761.99141
762.22006
762.14136
762.2787
762.37541
762.45452
762.72816
762.71974
762.78367
762.97
730.39951
730.50123
730.36394
730.0754
729.72059
729.54742
729.48105
729.12089
729.0707
729.07158
729.0994
729.43835
729.40352
729.43283
729.69312
729.81893
729.81019
729.67255
729.41379
729.399
729.45714
729.15967
729.15717
729.16127
729.17206
729.47526
729.41928
729.43395
729.68909
729.82081
729.82179
729.68947
729.42571
729.39089
729.40762
729.02811
728.91387
728.77906
728.61132
728.71559
728.44753
728.28247
728.44959
728.61216
728.71933
728.69019
728.53433
728.66568
728.89307
728.74955
728.9161
729.07221
729.26246
729.73299
729.87892
730.09116
700.18295
700.63844
700.81211
700.68879
700.34291
699.83873
699.4243
699.10144
698.48015
698.27031
698.19208
698.18178
698.5727
698.54842
698.5959
698.91203
699.06531
699.05897
698.89881
698.5888
698.55822
698.60349
698.23853
698.22781
698.23121
698.24881
698.61818
698.57411
698.60461
698.91191
699.06705
699.06779
698.91139
698.59436
698.54266
698.54641
698.10226
697.98782
697.86624
697.73185
697.93463
697.71372
697.58396
697.7937
697.9488
698.02888
697.9681
697.75698
697.86574
698.0728
697.8665
698.05803
698.28377
698.62349
699.34426
699.73798
672.58568
673.41438
674.0146
674.23011
674.11687
673.7427
673.09809
672.29247
671.52994
670.60017
670.21066
670.06355
670.028
670.43818
670.48375
670.58625
670.92536
671.09375
671.09055
670.92366
670.59887
670.52045
670.50293
670.11836
670.10607
670.10855
670.12529
670.51246
670.52978
670.60699
670.93116
671.09606
671.09583
670.92925
670.59436
670.49187
670.43039
669.96613
669.85261
669.74164
669.63713
669.90911
669.81881
669.77435
669.96432
670.06134
670.10681
670.0391
669.81496
669.86371
669.98729
669.74765
669.94871
670.23173
670.74136
671.7619
647.16722
648.84774
650.32378
651.02044
651.18417
651.07762
650.76934
650.03527
648.58179
646.9562
645.62036
645.09982
644.93387
644.86593
645.19348
645.47117
645.66953
645.94888
646.18792
646.20354
645.97553
645.70591
645.54401
645.31411
645.03299
645.07329
645.0741
645.03531
645.31692
645.5463
645.70496
645.96184
646.19124
646.20508
645.97316
645.68974
645.49998
645.22317
644.86046
644.79982
644.69689
644.5771
644.83756
645.13858
645.27499
645.26351
645.17763
645.22113
645.16935
645.0267
644.93674
644.79036
644.61715
644.82975
645.11705
645.74881
623.03701
624.97933
629.04461
631.83567
632.1429
632.03422
631.94486
631.9255
631.57664
628.80809
624.79451
622.92697
622.12815
622.02355
622.33344
621.88559
623.36007
623.48448
623.54454
624.5295
624.5329
623.57442
623.54562
623.46938
622.07073
622.59723
622.34788
622.34723
622.59477
622.06766
623.46346
623.52947
623.56223
624.53262
624.5305
623.56379
623.51765
623.41347
621.96941
622.42578
622.07898
621.98411
622.17208
621.92806
623.93719
623.51456
622.99785
622.85169
623.67056
622.92603
622.93408
622.86623
621.53724
622.11416
621.92601
622.14064
604.96228
605.22322
607.13922
613.92545
619.32853
618.27452
617.90947
617.81633
618.08376
619.10945
613.71881
606.9967
605.113
604.99519
604.86853
604.97191
604.89053
605.55075
605.73643
605.84252
605.88819
605.90334
605.89579
605.81787
605.67989
605.11918
605.29098
605.35386
605.35643
605.27893
605.10059
605.66182
605.80404
605.8558
605.892
605.90159
605.87652
605.79945
605.6301
604.99877
605.15001
605.07204
605.13061
604.89932
605.44396
609.12786
609.02948
606.27038
605.49944
605.37089
605.37398
605.30529
605.10002
604.60306
604.72587
604.79591
589.1253
589.06941
589.62195
591.48889
591.00895
590.34486
590.51083
590.27005
590.32549
590.73995
591.52828
589.39656
589.29892
589.04086
589.69562
590.33465
589.66823
589.6174
591.14035
590.48826
590.51216
591.21121
589.69686
589.81723
590.62435
590.01926
589.77142
589.79861
589.97114
590.62483
589.77332
589.67873
591.14135
590.48691
590.51241
591.18443
589.64642
589.81899
590.43563
590.06695
589.33817
590.01314
589.53516
591.33603
588.79529
588.30856
590.98597
591.26099
590.20859
590.82673
589.39364
589.17106
590.22423
589.2221
588.95549
589.13083
591.01804
592.57758
595.71927
600.43123
603.91862
603.22528
599.44915
595.4623
592.90196
591.32129
589.40609
589.47841
591.42139
592.857
596.43351
603.7365
615.01037
623.43764
624.03087
615.89308
604.09316
596.34072
592.80784
591.78769
589.3138
589.20861
604.02007
603.82554
607.50703
608.14037
617.91803
608.74687
608.00482
606.86951
608.28899
617.40158
607.85503
603.53403
603.72556
607.58967
607.32834
605.86594
591.09127
591.58633
593.70828
594.82606
594.51717
592.55996
591.98387
591.97892
589.43282
589.715
603.94935
603.75302
607.43959
617.45815
607.80876
608.50574
608.05465
606.23102
607.65389
611.26362
619.34173
610.58282
610.56592
611.2486
608.44118
603.78089
603.79683
608.28634
610.75175
610.61296
619.4668
608.81661
609.26692
605.53362
590.87055
591.98297
591.46896
591.5576
589.25598
588.85753
604.36644
608.38752
609.20608
618.89026
608.71439
604.33652
608.18489
606.80028
624.4356
625.39253
625.36559
622.74162
623.73942
623.74893
624.36709
646.49957
671.94329
673.31344
671.41385
645.82893
647.38599
649.98486
646.61195
672.45644
674.19297
671.63219
646.43747
647.14526
672.48172
672.94549
647.54429
625.33976
606.7703
610.31123
608.34074
607.479
611.2765
606.95425
625.62263
630.9055
636.78729
627.10609
629.50417
641.35218
620.53687
616.48451
634.31688
620.45076
611.46529
607.47808
607.22948
625.20478
626.36625
631.91599
628.7825
630.13868
615.03735
607.36853
605.32739
605.05018
604.90957
605.18731
607.15736
614.8321
614.74925
614.8466
614.93048
614.9266
631.10381
631.3962
632.4261
631.16443
610.2219
593.11957
599.12661
614.15987
630.5927
639.08519
640.67732
640.53243
638.80984
630.17032
626.27775
613.27675
610.86185
610.94997
613.42868
626.9238
630.84616
639.90347
641.59962
641.61704
639.95105
631.02524
627.13794
613.79998
611.35897
611.37311
604.08253
596.00582
592.02286
589.31364
589.60531
591.93361
591.83425
591.84509
591.95081
589.59077
589.32492
591.99437
595.98982
604.1394
611.60691
611.64353
614.11934
627.53037
631.58965
640.88768
642.71386
642.98985
641.26263
632.13304
628.04565
614.29949
611.70175
611.51033
613.94549
626.8004
644.00145
653.88799
667.7668
682.55937
695.94245
701.95545
701.84853
695.77318
682.3312
667.71176
654.25376
644.43958
627.473
615.84452
600.73896
594.13159
595.40891
604.51486
624.14608
640.31657
631.32151
649.90986
661.8271
682.11378
692.79549
700.84296
709.11058
714.47929
718.29364
719.95382
719.96929
718.32181
714.64195
709.24685
701.07155
692.961
682.20482
700.93466
709.55277
718.35565
723.91043
728.04582
729.77697
729.778
728.03664
723.85349
718.24918
709.38736
700.818
709.00284
695.32203
675.02713
661.99213
664.29466
641.97352
641.93926
624.10578
604.50025
595.40235
594.12654
600.72665
615.73588
631.12923
640.19253
661.86456
664.26135
678.12375
678.16616
701.22004
718.02761
714.27262
723.6941
718.16169
726.43368
732.66613
736.95058
738.96284
738.95054
736.91882
732.66216
726.48494
718.28355
709.05778
695.30383
714.34612
723.83329
732.62821
739.61329
744.24916
746.48496
746.57504
744.34017
739.6479
732.60366
736.8772
727.82914
729.55695
719.62385
719.62076
701.17291
717.94812
727.76729
729.55369
738.82163
738.87628
746.4653
744.27125
749.24003
751.5862
751.50729
749.15652
744.21642
736.88303
727.95199
718.06659
701.20059
719.63108
729.62719
738.85104
746.36026
751.44819
753.8919
753.94909
751.58314
751.5113
746.45645
744.17039
736.72395
732.41333
723.54625
714.14957
695.12709
674.87878
661.55103
649.70334
644.12706
627.2022
613.80725
625.2205
633.88671
653.87227
667.27281
681.71413
700.47835
708.74751
717.90925
726.10667
732.33512
739.40256
744.10288
749.07936
751.45689
753.89476
753.83345
751.39118
746.39469
738.78669
729.56286
719.55291
701.05795
717.85102
727.75455
736.75842
744.13473
748.9835
751.37181
746.29853
746.31441
738.58927
736.57637
727.52807
723.37945
717.80837
708.9863
700.38665
692.38363
681.60322
694.84586
708.5574
713.91014
717.65481
719.24558
729.2213
729.19595
738.52257
736.53588
744.0393
739.42704
732.40033
723.54702
714.07894
694.92791
708.6696
717.91507
726.13788
732.33308
723.38358
727.44995
717.61002
719.21358
700.76429
700.7447
677.66809
674.51723
661.42402
653.81593
644.06301
625.22556
620.03191
629.606
632.98325
657.1492
661.59507
676.54955
678.40114
678.40703
676.61481
661.72254
657.29314
633.33003
614.11951
625.67892
620.39355
625.65929
644.58844
650.25598
662.56128
665.03255
665.23774
662.88048
650.63232
644.99173
625.73108
620.41566
625.65001
634.47672
654.72102
662.47449
675.8402
679.03424
678.83223
675.51069
662.17005
654.34009
634.42856
638.41582
633.27702
657.39589
661.87759
676.89579
678.77204
678.97215
677.17644
662.19908
657.72084
633.31937
629.8571
639.09208
633.28667
638.43792
661.87517
672.00557
667.92459
683.00963
691.79834
685.43447
709.13836
703.12233
689.63953
674.56916
660.95204
656.72118
670.86532
661.08166
649.42846
661.40944
674.2789
661.13431
663.37868
677.36959
677.25082
663.22924
660.83641
673.94734
660.93368
681.58647
692.29062
700.39374
708.59395
713.9521
694.84757
681.51389
666.98601
653.24411
643.4466
648.97631
660.71139
675.28161
677.11088
677.26371
675.52419
690.02561
681.37475
666.83733
689.27954
699.02033
709.84146
721.3467
715.17802
706.00518
714.45478
705.87803
715.12425
720.22744
731.46838
726.70037
715.45229
720.10485
730.60701
739.77992
735.46172
729.05377
723.95453
731.77924
723.9102
715.26521
702.47732
726.56231
739.65493
731.36863
735.41742
730.43094
719.80662
729.01541
733.439
724.02651
708.36019
683.71078
683.59497
689.82914
681.09496
666.42155
670.51273
656.30908
660.49058
673.97717
688.76795
702.14001
708.22652
725.28227
725.37473
736.52027
735.37701
747.2299
740.53579
741.78522
734.97052
744.24382
742.28579
737.95034
744.99849
738.72063
745.00461
737.94931
745.18665
752.61867
757.49407
749.38475
740.56985
735.54278
724.26829
725.71976
736.70755
747.38852
741.77398
735.06917
733.4668
742.28196
744.3215
751.39111
759.75843
752.1432
749.9038
754.90263
749.91211
757.49012
749.3874
751.34721
759.69318
752.03065
757.24239
764.92388
762.57174
764.98674
757.25172
759.70775
767.39604
776.19124
773.80052
768.49624
759.17015
757.16121
752.72722
745.9687
755.56191
762.59547
770.73453
762.60478
752.71001
761.22384
766.21126
775.67114
766.94789
769.0723
777.94778
787.46938
777.08062
765.9502
736.76894
729.95775
715.4135
698.75685
683.93849
699.29556
713.42469
719.53814
719.41849
691.55485
685.17678
682.67967
667.64547
671.67573
661.55932
674.63404
689.46383
702.98035
709.02028
725.66179
736.67845
747.3781
735.46174
724.22668
733.49049
735.08748
741.79824
740.53371
735.48096
730.54752
719.93614
715.35183
726.64158
739.76813
731.38421
723.87985
729.01906
737.97083
742.35075
744.33618
751.39963
749.42823
757.59232
759.81876
752.27295
750.02176
745.24018
752.69136
744.9987
738.73036
731.77739
737.94539
745.02498
749.42553
757.5668
762.71503
765.04828
757.36412
754.98394
757.39095
759.77462
767.474
765.1088
759.81583
752.15314
749.93459
742.31226
744.27899
751.40562
741.72168
740.46977
735.3805
731.36908
720.16315
715.09855
705.81238
698.89862
689.42144
709.76571
721.2945
715.07097
705.77979
714.31522
723.79569
715.24148
702.78302
726.5712
739.6759
730.4022
719.77802
728.88305
733.31052
724.03097
708.69083
735.39459
747.25702
736.4912
725.38615
734.89599
734.91795
744.24372
752.17407
757.33528
759.75006
759.67781
757.20568
752.08737
744.17727
734.89204
741.6549
736.42436
747.12776
735.17883
723.81325
733.21967
740.29398
735.16904
730.19929
719.52896
728.72033
723.57362
714.92163
726.27544
739.3915
731.09664
738.42739
744.78879
749.22437
751.26649
759.65296
757.37331
749.81836
742.17101
737.7262
745.00142
752.44192
744.73623
737.68335
731.49942
723.50747
717.86194
708.99274
700.37273
705.35347
714.68347
720.85959
719.78262
713.96234
705.37012
688.8514
698.40797
709.33384
714.71935
726.20967
731.02721
739.29629
735.00054
728.58153
719.40218
702.31985
714.83176
730.04435
735.00898
740.08082
749.09214
757.29158
762.51051
764.9067
767.38758
764.92043
757.15398
754.73744
749.69118
752.00377
759.58542
751.09399
743.94149
741.92006
732.91621
734.57261
741.34814
746.87426
736.06941
708.23486
723.5644
724.95609
724.99712
734.61216
744.0196
752.05548
757.26531
764.98837
767.46304
765.04105
762.61713
754.90296
749.88979
757.49577
759.74984
751.38371
749.33497
742.16035
737.77959
745.03697
749.8221
757.43886
759.66167
751.15569
749.20224
742.01784
737.70847
744.82253
752.52011
744.88126
738.50595
731.516
723.61679
728.80028
733.28454
740.40411
741.7029
747.21542
736.50277
708.66615
725.37089
723.94723
735.32458
730.34566
735.26247
739.52989
731.16829
726.39814
702.63371
719.65022
715.03745
705.51294
714.00884
723.50715
728.63163
733.03645
740.1489
741.38305
746.91743
736.1356
708.23478
723.63577
735.00875
730.14691
735.09595
739.37844
731.04867
726.22825
702.35506
719.41467
714.84563
705.4157
689.00931
714.77069
719.8555
720.95113
714.87556
689.11998
698.55001
709.52665
674.36777
683.84005
698.908
713.11069
719.17132
719.17323
713.21071
699.15797
684.04284
699.15194
713.3264
729.81537
736.69577
765.95612
757.61149
776.65919
744.31802
726.82123
670.2743
640.69648
627.94837
624.56039
606.99204
609.04817
608.06076
626.04172
625.59925
625.34805
624.50313
622.69857
625.4326
630.35569
635.89315
615.5074
619.74956
643.78612
644.33659
670.66589
658.68343
643.13286
632.29576
643.16305
620.22365
603.59472
595.70672
592.84174
609.64369
611.77627
616.16607
637.54688
641.65896
619.34227
601.59046
621.31673
621.17062
601.49561
593.53812
593.63903
610.87458
610.79955
632.35279
631.31304
630.90609
630.99318
610.06736
593.00438
598.97002
613.89201
603.32219
595.55277
592.68138
591.74041
592.76649
596.25943
603.86456
615.56104
623.92365
623.94606
615.67296
604.06462
596.56828
592.93955
591.52114
589.53068
589.6665
591.40373
592.9398
596.00233
600.69271
604.43057
604.41746
600.6231
595.83735
592.67364
591.07622
589.31328
589.21669
603.76359
603.99136
607.96383
608.7062
608.08531
617.84754
607.43699
624.29918
625.06087
628.58642
629.90763
650.01704
651.2147
651.86586
651.95641
651.43378
650.27466
674.2262
701.32217
731.24669
733.30416
731.65911
730.43892
699.93313
701.46853
699.54263
730.17436
731.93142
734.80848
731.14803
700.60718
702.27382
699.59958
730.14301
730.88855
700.4352
700.88737
731.28531
736.56316
735.05876
732.66197
738.91522
708.93398
704.52097
676.31774
680.88994
654.58966
648.42116
650.97653
676.85681
678.51467
652.5749
665.87662
660.87702
687.26095
692.56799
720.53968
706.48456
704.86786
715.16547
744.81095
750.06491
789.07917
771.36767
752.39406
740.96821
734.99303
704.81079
701.38678
673.58513
648.22549
650.63543
676.75822
681.59491
675.74564
650.75749
655.60452
661.95913