/*--------------------------------*- C++ -*----------------------------------*\
  =========                 |
  \\      /  F ield         | OpenFOAM: The Open Source CFD Toolbox
   \\    /   O peration     | Website:  https://openfoam.org
    \\  /    A nd           | Version:  7
     \\/     M anipulation  |
\*---------------------------------------------------------------------------*/
FoamFile
{
    version     2.0;
    format      ascii;
    class       volScalarField;
    location    "180";
    object      k;
}
// * * * * * * * * * * * * * * * * * * * * * * * * * * * * * * * * * * * * * //

dimensions      [0 2 -2 0 0 0 0];

internalField   nonuniform List<scalar> 
24789
(
142.3958
260.68783
366.19704
462.66437
994.19249
995.66712
463.50158
366.87097
261.14869
142.55158
142.7557
261.75424
367.7538
464.58593
997.46008
999.23082
465.49051
368.46577
262.2323
142.91342
143.10307
262.7932
369.28387
466.49716
1000.8834
1002.4128
467.29541
369.90817
263.21085
143.2412
143.4108
263.70711
370.62724
468.174
1003.8358
1005.167
468.87322
371.17241
264.0721
143.53203
143.68878
264.52925
371.83292
469.67927
1006.4583
1007.7221
470.31082
372.32593
264.86156
143.79935
143.95331
265.31397
372.97887
471.10995
1008.9532
1010.2451
471.74318
373.47537
265.65158
144.06426
144.22736
266.14068
374.1811
472.61159
1011.6108
1013.1227
473.34653
374.75785
266.53486
144.35326
144.54011
267.11044
375.58611
474.36779
1014.8063
1016.7634
475.33213
376.34537
267.6311
144.70126
144.93197
268.36318
377.40166
476.64089
1019.0382
1021.7393
477.96241
378.44009
269.0713
145.14587
145.43478
270.00359
379.79863
479.66025
1024.9045
1028.6476
481.44327
381.1875
270.93604
145.71944
146.0938
272.10019
382.91629
483.63092
1033.0305
1038.185
486.03225
384.76932
273.31977
146.49961
147.03293
274.81318
387.04146
488.95956
1044.1966
1051.2487
492.1803
389.49396
276.39441
147.6429
148.43866
278.30235
392.45718
496.06541
1059.4728
1069.0668
500.39906
395.71157
280.36689
149.38454
150.59553
282.82341
399.5865
505.55819
1080.1977
1093.1086
511.39035
403.91162
285.5298
152.05548
153.90158
288.67858
409.02992
518.30755
1108.0111
1125.2046
526.38647
414.97348
292.18053
156.17337
159.2332
297.12005
422.71893
536.57038
1145.0095
1166.9177
549.89337
433.42374
305.08729
164.00872
171.37646
313.51084
447.7604
567.63422
1188.731
1215.0239
593.86313
471.11358
331.49984
179.52267
185.09365
347.54576
490.46508
613.26121
1241.7225
1268.7926
655.74677
530.23036
378.72288
197.13018
204.62964
409.76642
574.67971
707.97457
1290.3009
1279.8998
619.94902
503.39133
361.08982
190.82302
182.21405
336.17933
472.2311
589.89946
1254.8941
1227.9539
546.3301
432.73248
304.99256
171.14485
161.84141
287.51576
408.87759
519.99965
1203.2154
1182.0984
503.00016
394.70538
278.29764
154.74661
150.34975
271.25442
385.05403
490.95353
1160.8041
1141.4394
482.00188
378.31571
266.94169
147.54119
145.41002
263.72537
373.07349
474.8099
1124.4863
1109.7093
468.71768
368.61903
260.96194
143.70165
142.34427
258.54992
364.72965
463.40608
1096.7818
1085.5989
458.76903
361.27431
256.36435
141.22239
140.32613
254.45402
358.24065
454.70082
1075.8886
1067.6036
451.18186
355.56385
252.72748
139.58449
139.00457
251.24136
353.23403
448.1025
1060.4352
1054.3287
445.43237
351.16648
249.88177
138.51385
138.13196
248.72427
349.38227
443.10642
1049.0628
1044.5534
441.08783
347.79246
247.6531
137.79154
137.52668
246.76524
346.44993
439.35782
1040.7319
1037.4726
437.82624
345.22586
245.92006
137.27034
137.06727
245.22822
344.19036
436.49757
1034.7036
1032.4766
435.38389
343.28323
244.58666
136.867
136.7126
244.07475
342.51354
434.39114
1030.4998
1028.8466
433.54236
341.81771
243.57869
136.55102
136.42554
243.17759
341.20662
432.74756
1027.2705
1025.8892
432.01953
340.60866
242.75145
136.28138
136.16645
242.39667
340.06375
431.30997
1024.5237
1023.2865
430.64572
339.51378
242.00358
136.0293
135.91608
241.6612
338.98467
429.95601
1022.008
1020.6508
429.26082
338.4113
241.25503
135.77381
135.65207
240.88909
337.84588
428.52569
1019.3344
1017.8506
427.73949
337.20439
240.44028
135.49635
135.35843
240.02424
336.56431
426.91234
1016.2379
1014.5189
426.02254
335.84184
239.52236
135.18601
135.03069
239.05166
335.12055
425.09403
1012.6801
1010.9084
424.16745
334.36327
238.52393
134.84916
134.69076
238.05212
333.64484
423.25039
1009.2016
1011.9021
424.40101
334.51685
238.62058
134.87389
135.03052
239.06449
335.15078
425.15406
1012.9275
1014.477
425.92035
335.7527
239.46821
135.16622
135.33634
239.96766
336.48595
426.82609
1016.0767
1017.6042
427.55323
337.05001
240.34338
135.46248
135.61932
240.80053
337.71964
428.37858
1019.0377
1020.3838
429.01223
338.2141
241.13265
135.73215
135.8824
241.57079
338.85432
429.80164
1021.6777
1022.9546
430.41071
339.32833
241.88974
135.9899
136.13781
242.32476
339.96067
431.18911
1024.2514
1025.6065
431.83365
340.4585
242.65927
136.24749
136.39989
243.11678
341.12051
432.64923
1027.0568
1028.6573
433.37154
341.68472
243.50129
136.52221
136.69941
244.0552
342.48776
434.36745
1030.4305
1032.4655
435.30288
343.22121
244.55676
136.85217
137.06781
245.25638
344.23687
436.56658
1034.833
1037.6103
437.83081
345.22883
245.93125
137.26693
137.5349
246.81822
346.53157
439.46648
1040.8824
1044.7346
441.16663
347.85269
247.70039
137.79948
138.15143
248.80437
349.50404
443.2628
1049.2641
1054.5671
445.56997
351.27854
249.96596
138.53957
139.05281
251.38312
353.44124
448.35955
1060.7652
1067.9917
451.42888
355.77594
252.88936
139.64708
140.41735
254.69621
358.57663
455.10429
1076.3968
1086.1412
459.1634
361.61706
256.63088
141.32356
142.45926
258.88431
365.17196
463.92309
1097.3926
1110.337
469.20624
369.04959
261.30475
143.80364
145.49355
264.10657
373.56374
475.37787
1125.1464
1142.0149
482.50689
378.76134
267.30931
147.59311
150.38289
271.69051
385.55056
491.50431
1161.2212
1182.4824
503.61921
395.32971
278.94922
154.7096
162.09532
290.23547
410.34465
521.18557
1203.3862
1226.8499
547.57305
433.55549
305.21444
171.89243
180.54076
336.56735
472.9463
592.86854
1253.5353
1275.9813
595.60661
483.31106
346.65554
183.43134
203.03509
406.88664
570.60806
702.26122
1285.9817
1262.3217
636.7069
507.51872
358.57601
185.68029
190.97728
366.59972
515.06773
642.31157
1236.8775
1209.0825
596.12012
476.19336
336.71068
182.73409
172.24545
318.74216
449.51587
566.41328
1184.0927
1162.0567
545.44045
431.13191
304.72017
163.73547
158.4655
295.01012
418.52186
530.42472
1139.7884
1119.7927
519.35774
409.79803
289.17443
155.09917
152.65241
285.05004
403.2348
510.69266
1102.3849
1087.1955
503.46817
397.78732
281.5724
150.73948
149.24185
278.62952
393.16258
497.316
1074.0041
1062.5937
491.99144
389.11655
276.01824
148.01166
147.03493
273.78164
385.62965
487.39318
1052.7076
1044.2986
483.44255
382.58844
271.79195
146.22631
145.59111
270.09627
379.96668
480.01467
1036.9989
1030.7652
477.03823
377.64584
268.55431
145.04799
144.62444
267.26026
375.67275
474.48657
1025.4335
1020.8814
472.2725
373.92111
266.07124
144.24517
143.94713
265.08496
372.44088
470.37553
1016.989
1013.6988
468.70278
371.09814
264.15215
143.65884
143.43209
263.39517
369.9718
467.26599
1010.8968
1008.4852
465.99484
368.94121
262.66883
143.20323
143.02993
262.10236
368.09623
464.9156
1006.4356
1004.6205
463.93652
367.2976
261.53553
142.84533
142.70662
261.09439
366.63279
463.08346
1003.0331
1001.5961
462.27559
365.96982
260.62183
142.5476
142.42515
260.24178
365.39091
461.52998
1000.2299
998.91835
460.78144
364.77483
259.80311
142.27452
142.1528
259.43048
364.20366
460.04477
997.58233
996.37206
459.33366
363.61148
259.00627
142.00451
141.87717
258.61716
363.01174
458.55797
994.98066
993.53095
457.72863
362.33113
258.13788
141.71228
141.56915
257.70191
361.665
456.87552
991.97544
990.36129
455.96774
360.92108
257.18011
141.39037
141.23875
256.72092
360.22513
455.08532
988.81873
987.84048
454.39382
359.62593
256.28283
141.08148
142.60158
261.31411
367.12363
463.82698
996.29448
997.51544
464.5494
367.70366
261.71016
142.7359
142.91975
262.24996
368.48563
465.50201
999.07893
1000.6605
466.30957
369.1225
262.6789
143.06215
143.24142
263.20759
369.89292
467.25641
1002.1765
1003.6053
467.98497
370.46656
263.5943
143.37025
143.53768
264.08647
371.18153
468.8615
1004.9631
1006.2464
469.54053
371.7096
264.44001
143.65472
143.80944
264.8922
372.36094
470.33404
1007.5273
1008.7975
470.97684
372.86344
265.23183
143.92139
144.08016
265.70303
373.54215
471.80748
1010.0927
1011.4833
472.51725
374.09284
266.075
144.19968
144.37101
266.59345
374.83487
473.42313
1012.9884
1014.6992
474.29635
375.51514
267.05594
144.5155
144.7222
267.70036
376.43827
475.429
1016.6697
1018.9845
476.59138
377.3508
268.32369
144.91237
145.1739
269.16286
378.56507
478.09881
1021.7315
1024.9593
479.66673
379.79448
269.99674
145.42575
145.76054
271.06739
381.36892
481.64638
1028.7665
1033.2307
483.75161
383.00569
272.15769
146.10617
146.56618
273.52641
385.05997
486.37025
1038.4653
1044.5903
489.23878
387.26654
274.96879
147.07959
147.75199
276.72561
389.95505
492.7192
1051.7521
1060.1044
496.60214
392.90443
278.62334
148.5406
149.55668
280.8921
396.42311
501.21716
1069.8213
1081.0791
506.45703
400.36413
283.40361
150.77871
152.32329
286.37151
405.01617
512.62675
1094.1288
1109.155
519.74396
410.33301
289.69915
154.2195
156.65305
293.67016
416.83391
528.37809
1126.4517
1146.3422
539.16398
425.2226
299.19075
159.90933
165.00822
308.29594
437.20889
553.6611
1168.3284
1189.9568
573.0845
453.48447
318.64486
172.89573
182.35069
338.14871
479.34823
602.08014
1215.2853
1241.8071
628.45929
503.89228
357.91066
188.27228
197.17417
381.01737
532.48181
657.56487
1267.3878
1289.2147
710.6655
577.54953
412.1047
205.54761
1274.2736
807.22338
661.42656
476.01391
232.85008
210.36409
425.44766
595.04226
735.31321
1312.857
1325.3256
651.6527
530.70431
382.08853
198.88731
188.98136
364.72848
514.56706
643.82114
1289.8631
1266.2877
649.90646
518.33123
366.2283
188.68932
187.65043
357.61236
505.22335
631.3135
1238.9531
1209.7345
590.31274
469.94052
331.44188
179.67651
170.35811
314.67969
445.05269
562.33678
1183.9209
1161.6314
542.7685
428.31565
302.25986
162.57701
157.73202
293.49588
416.68351
528.59867
1139.2781
1119.2734
518.07382
408.54997
288.18454
154.62615
152.33291
284.349
402.34805
509.75573
1101.8819
1086.7802
502.78386
397.1516
281.07739
150.52006
149.09002
278.27701
392.70041
496.80627
1073.6315
1062.2705
491.59594
388.76791
275.75989
147.90475
146.96095
273.59762
385.37834
487.10552
1052.4488
1044.0297
483.18277
382.37106
271.63926
146.16963
145.55033
269.98127
379.80301
479.82024
1036.7656
1030.5872
476.87769
377.51294
268.4627
145.01781
144.60308
267.19199
375.57399
474.36751
1025.2787
1020.7628
472.18015
373.84402
266.01801
144.22953
143.93707
265.04965
372.39127
470.31766
1016.9309
1013.6709
468.6541
371.05668
264.12315
143.65099
143.42734
263.37686
369.94679
467.23776
1010.8841
1008.4977
465.99321
368.93495
262.66234
143.20185
143.03163
262.1057
368.10321
464.92743
1006.4964
1004.7134
463.96091
367.31317
261.5445
142.84882
142.71165
261.1079
366.65389
463.11177
1003.1154
1001.7347
462.32881
366.0071
260.64484
142.55524
142.43522
260.27204
365.4375
461.59148
1000.3887
999.12522
460.85375
364.82852
259.83789
142.28605
142.16666
259.47298
364.26886
460.13072
997.80001
996.46142
459.34336
363.6229
259.017
142.00981
141.88057
258.6254
363.02478
458.57635
995.0424
993.58122
457.72757
362.32989
258.13731
141.71284
141.56956
257.7027
361.66747
456.88075
992.01137
990.40991
455.95181
360.90851
257.17204
141.38815
141.23624
256.71347
360.21514
455.0745
988.82084
987.89071
454.371
359.60673
256.26962
141.07721
134.8756
238.60994
334.48315
424.32548
1011.4509
1012.8865
425.05975
335.06729
239.00578
135.01095
135.18771
239.52574
335.83197
426.0063
1014.5536
1016.1814
426.76682
336.42823
239.92538
135.32232
135.4901
240.41786
337.15325
427.66667
1017.7258
1019.1782
428.35144
337.68738
240.77548
135.61105
135.76565
241.22619
338.34756
429.16717
1020.5504
1021.8608
429.78885
338.83143
241.55079
135.87548
136.02208
241.97903
339.45551
430.55787
1023.1318
1024.3918
431.17326
339.92828
242.29474
136.12698
136.27038
242.71657
340.53595
431.91478
1025.6725
1027.0585
432.58344
341.0509
243.06304
136.38226
136.54005
243.54321
341.74315
433.43431
1028.6308
1030.3741
434.23009
342.36655
243.96936
136.67303
136.86549
244.58086
343.25174
435.32809
1032.3817
1034.7164
436.41193
344.10167
245.16071
137.03934
137.27615
245.93824
345.23361
437.82362
1037.4605
1040.6745
439.28933
346.37199
246.70305
137.50095
137.79343
247.65455
347.77683
441.05689
1044.4585
1048.9046
442.98362
349.26352
248.63503
138.10046
138.50877
249.84733
351.09862
445.33429
1054.1329
1060.2505
447.94539
353.08541
251.12921
138.97188
139.57586
252.65872
355.4519
451.03496
1067.3979
1075.7293
454.49327
358.03941
254.29777
140.28701
141.19083
256.2053
361.05301
458.51562
1085.4125
1096.5974
463.01751
364.35166
258.25043
142.26288
143.60072
260.59612
368.15352
468.22581
1109.4912
1124.3144
474.13534
372.38911
263.15702
145.23179
147.31234
266.21506
377.45171
481.15667
1141.2948
1160.7171
489.82165
383.85394
270.2077
150.01002
154.28411
277.0594
393.22466
501.63223
1182.2477
1203.6687
518.08188
406.84222
286.41263
161.26624
170.12887
301.63334
428.57757
542.40979
1228.3443
1255.2197
580.97023
465.09285
331.07531
180.1749
191.72118
364.66998
507.4729
623.38342
1280.5078
1291.3768
727.14193
592.13628
425.0274
209.74337
201.46215
388.39861
542.31519
668.27776
1269.7919
1241.822
609.3734
488.09216
346.21331
185.0326
181.239
335.94884
477.00391
600.98859
1215.1621
1188.7715
570.29164
450.24114
315.50564
172.42212
164.53808
306.21905
434.69155
551.08126
1166.9075
1144.8821
536.9035
423.07912
297.43413
159.44526
156.24768
292.18142
414.98919
526.3922
1125.0119
1107.7835
518.10896
408.82929
288.49048
153.87839
152.03325
285.39166
403.74848
511.2136
1092.8671
1079.9499
505.33486
399.37017
282.63852
150.54281
149.36469
280.28372
395.60757
500.27546
1068.8241
1059.2403
495.91203
392.31224
278.17907
148.3979
147.64063
276.37463
389.4646
492.13039
1051.0207
1043.9622
488.85568
386.94676
274.73228
147.00456
146.50711
273.33053
384.77467
486.01323
1037.9511
1032.82
483.5796
382.86436
272.04947
146.07409
145.7352
270.9724
381.22647
481.46085
1028.4861
1024.7634
479.63927
379.77063
269.96876
145.41961
145.1671
269.12689
378.50768
478.01597
1021.5967
1018.8541
476.60113
377.36307
268.32333
144.91545
144.71975
267.67775
376.39902
475.36682
1016.5447
1014.5414
474.29606
375.5232
267.05439
144.51842
144.36709
266.56729
374.79082
473.35547
1012.8398
1011.3235
472.5253
374.1055
266.0752
144.20235
144.07727
265.68245
373.50727
471.75233
1009.968
1008.6822
471.02985
372.90769
265.25111
143.92899
143.81238
264.89176
372.35575
470.31556
1007.4592
1006.2004
469.63275
371.78467
264.48008
143.66842
143.54655
264.10582
371.20557
468.87982
1004.9667
1003.6383
468.15396
370.59771
263.66962
143.39407
143.25883
263.25413
369.95572
467.32102
1002.2538
1000.7171
466.48238
369.26046
262.7612
143.08865
142.93452
262.28725
368.53259
465.5437
999.09567
997.32636
464.5728
367.73551
261.72806
142.74397
142.57996
261.2291
366.97958
463.61302
995.70095
996.21633
463.80207
367.08617
261.27845
142.58612
142.75414
261.75495
367.75461
464.58619
997.41872
998.9778
465.48229
368.45428
262.21972
142.90609
143.08289
262.73365
369.19117
466.37313
1000.5483
1002.0464
467.20683
369.84018
263.16403
143.22375
143.38926
263.64309
370.52578
468.03565
1003.4488
1004.8069
468.80053
371.11921
264.03604
143.51784
143.67305
264.48393
371.75696
469.56952
1006.0995
1007.3866
470.30372
372.3207
264.8558
143.79366
143.94307
265.28807
372.93183
471.0366
1008.6634
1009.9785
471.77436
373.49999
265.66523
144.06374
144.22046
266.12819
374.15487
472.56587
1011.3815
1012.8956
473.39668
374.79838
266.55956
144.35562
144.53686
267.11208
375.58141
474.34992
1014.6306
1016.6212
475.40353
376.40468
267.66973
144.70754
144.93509
268.38819
377.43172
476.66713
1018.9455
1021.7007
478.0742
378.53269
269.13346
145.15857
145.44663
270.0621
379.87945
479.75204
1024.9392
1028.7479
481.61281
381.3286
271.03209
145.74095
146.11909
272.20926
383.07143
483.8151
1033.2026
1038.4187
486.32025
385.00536
273.48137
146.53831
147.07799
275.00219
387.30473
489.27074
1044.5193
1051.673
492.63627
389.87298
276.66385
147.70516
148.50551
278.62151
392.8851
496.56265
1060.0002
1069.6876
501.06143
396.27975
280.79148
149.46198
150.66571
283.32481
400.23225
506.28729
1080.9037
1093.8857
512.31243
404.73484
286.17624
152.12501
153.97772
289.53465
410.0473
519.40061
1108.8441
1126.0604
527.87596
416.4043
293.44297
156.3139
159.51364
299.02738
424.82285
538.66272
1145.9008
1168.0254
553.13875
436.82483
308.20305
164.50956
172.60595
320.60026
453.70563
572.82967
1189.6576
1214.6409
601.00591
478.54155
337.57468
181.95507
187.75041
359.89783
505.79452
631.66778
1241.3728
1265.6886
644.84853
520.99575
372.23871
192.18876
1395.9253
1458.9128
1426.3728
1279.7601
620.94212
504.46982
361.85859
191.5931
192.30445
372.88647
527.23269
659.76899
1267.2774
225.56706
461.45084
644.18922
789.62909
1271.3834
1230.0836
765.09054
619.80771
440.52108
215.34385
218.08338
446.26596
626.73918
771.65609
1230.4318
1279.9489
741.22477
598.01396
425.75377
207.74218
1368.5864
1405.9532
1473.5882
1453.3878
1260.3461
1345.2902
1333.4113
1260.3355
1265.4307
1299.6241
1295.4268
1255.9854
141.08762
256.29305
359.62172
454.37882
987.91608
988.90825
454.99613
360.13131
256.64867
141.21131
141.39443
257.18837
360.91797
455.96126
990.43899
992.02334
456.73614
361.53185
257.6038
141.53322
141.71084
258.12996
362.30318
457.68969
993.52315
994.94131
458.38905
362.85329
258.50072
141.8347
141.99592
258.97476
363.54563
459.24344
996.28818
997.57139
459.85501
364.02945
259.30408
142.10689
142.26409
259.76884
364.70813
460.69457
998.83565
1000.1094
461.2955
365.18218
260.09253
142.37194
142.53179
260.57051
365.87721
462.15496
1001.4278
1002.8384
462.8235
366.40404
260.93154
142.6492
142.8258
261.4714
367.18574
463.79052
1004.4036
1006.1681
464.63801
367.85225
261.92841
142.96919
143.17886
262.58728
368.80274
465.81351
1008.1976
1010.5715
466.97057
369.71216
263.21005
143.36854
143.62989
264.05353
370.93533
468.49215
1013.3597
1016.6302
470.04309
372.15443
264.8829
143.87916
144.21045
265.95429
373.73251
472.03185
1020.4809
1024.9851
474.10798
375.3473
267.0311
144.54684
144.99441
268.38713
377.38468
476.70969
1030.2578
1036.4433
479.54688
379.56712
269.81504
145.49158
146.14374
271.56443
382.24519
483.01854
1043.6894
1052.1501
486.87592
385.17308
273.44988
146.90359
147.87888
275.7026
388.66915
491.46744
1061.9847
1073.3836
496.64725
392.56303
278.18312
149.04496
150.5281
281.13734
397.19739
502.80649
1086.5672
1101.7448
509.8949
402.50597
284.50045
152.36861
154.76618
288.68726
409.09048
518.57311
1119.1951
1139.2906
529.44963
417.60707
294.33858
157.96047
163.09114
303.59002
429.91491
544.27252
1161.4966
1183.4888
564.34202
446.74619
314.46755
170.92313
179.28908
334.87331
473.41973
594.45544
1210.2581
1238.0094
614.94804
492.06696
348.61324
183.84359
191.41428
370.55355
524.52402
656.9295
1266.5918
660.10478
539.13135
391.09672
201.88263
194.33641
373.86552
516.76684
634.76735
1324.1394
1306.153
693.98604
556.67514
394.6486
199.63719
204.64365
416.59548
588.13476
733.52819
1279.6853
1292.6172
650.23995
519.1023
368.29353
188.13469
191.51647
370.87889
524.94574
657.40094
1267.1396
1238.557
615.30357
492.37732
348.84936
183.9213
179.36798
335.09833
473.72369
594.8087
1210.7193
1183.9093
564.66917
447.02818
314.66869
170.99711
163.1592
303.76395
430.15252
544.54865
1161.9062
1139.7307
529.78811
417.88597
294.52997
158.0347
154.83516
288.85185
409.32285
518.84907
1119.646
1102.2051
510.23588
402.78033
284.684
152.44223
150.59491
281.29667
397.42507
503.08263
1087.064
1073.8864
496.99748
392.83929
278.36282
149.11593
147.94366
275.86199
388.90295
491.75692
1062.5552
1052.7379
487.24127
385.45931
273.63273
146.97322
146.20889
271.73401
382.49875
483.33744
1044.3646
1037.1248
479.96353
379.89032
270.01952
145.56495
145.06221
268.57123
377.65797
477.04964
1030.9566
1025.6274
474.49473
375.65356
267.2275
144.61698
144.27168
266.11996
373.97488
472.32917
1021.1076
1017.2525
470.45622
372.47754
265.08867
143.95085
143.69688
264.23793
371.20469
468.82306
1014.0416
1011.2724
467.4103
370.05882
263.43268
143.44585
143.25193
262.78984
369.09872
466.1778
1008.9432
1006.9072
465.12999
368.23741
262.17552
143.0541
142.9039
261.68986
367.50384
464.18008
1005.1807
1003.5499
463.29443
366.77751
261.17324
142.73283
142.60261
260.76505
366.15698
462.49182
1002.0689
1000.7077
461.72567
365.52268
260.31124
142.44747
142.32729
259.94334
364.95941
460.99681
999.41218
998.16412
460.28207
364.36421
259.51687
142.17872
142.05624
259.14403
363.78926
459.53573
996.84155
995.40323
458.7199
363.11923
258.67182
141.89371
141.75568
258.253
362.47818
457.89557
993.90209
992.30067
456.99269
361.73867
257.73448
141.57798
141.42279
257.26256
361.01906
456.07109
990.60163
988.82366
455.09416
360.2185
256.70226
141.23138
141.06097
256.18216
359.42626
454.08013
986.96827
985.28992
453.12774
358.63527
255.62349
140.86722
995.851
463.52562
366.87897
261.14808
142.54739
142.73251
261.69098
367.66475
464.48014
997.26993
998.89891
465.30465
368.32014
262.1348
142.87994
143.06727
262.69107
369.1342
466.30981
1000.4997
1002.0205
467.06998
369.73395
263.09559
143.20166
143.37345
263.60292
370.47439
467.98222
1003.445
1004.79
468.65219
371.00168
263.95908
143.49223
143.65182
264.42943
371.68601
469.49365
1006.0713
1007.3087
470.11136
372.16936
264.75546
143.75996
143.9117
265.2024
372.81501
470.90285
1008.5221
1009.7503
471.52508
373.30292
265.53396
144.02043
144.18132
266.01538
373.9953
472.37421
1011.0993
1012.6345
473.11725
374.57768
266.41312
144.30823
144.49605
266.99234
375.41239
474.14761
1014.3474
1016.3082
475.10153
376.16611
267.51096
144.65731
144.89079
268.25148
377.23703
476.43168
1018.5966
1021.2815
477.73784
378.26647
268.95606
145.10479
145.39634
269.89667
379.63937
479.45669
1024.4563
1028.1749
481.20841
381.00869
270.81952
145.67887
146.05351
271.98925
382.74875
483.4144
1032.5574
1037.688
485.78069
384.57379
273.18975
146.45319
146.98295
274.67639
386.84014
488.70524
1043.705
1050.7457
491.90397
389.26968
276.23757
147.58516
148.36992
278.11336
392.19334
495.74679
1058.9589
1068.5491
500.0443
395.40886
280.14318
149.30523
150.50787
282.56125
399.23971
505.1599
1079.6792
1092.5858
510.96431
403.53576
285.24076
151.96898
153.8374
288.39963
408.68006
517.91406
1107.5043
1124.7191
526.12631
414.76173
292.02045
156.17981
159.39449
297.31188
422.89225
536.66967
1144.5778
1166.5573
550.76213
434.41518
306.01764
164.46028
172.35504
315.32132
449.97712
569.97116
1188.3663
1214.67
600.57864
476.64228
335.6764
181.14215
184.94285
345.93476
487.71509
608.93012
1241.2204
1269.0875
667.82578
541.90605
388.0529
201.34197
209.60282
424.54773
591.61583
726.56343
1290.6751
1279.8119
622.94651
507.08661
364.35545
191.61448
188.54954
365.91262
517.87501
649.36184
1265.4642
1261.3593
635.79896
506.70991
357.95655
185.45806
183.32169
346.27205
482.84303
595.09387
1275.6311
1265.6383
644.53841
520.69932
371.98869
192.11975
197.14986
380.83059
532.27966
657.36968
1267.5931
1279.9815
620.83974
504.35487
361.74906
191.5973
192.33046
372.91149
527.33868
659.9398
1267.791
1238.9438
609.90862
487.60128
345.01058
182.79953
178.48413
332.69777
471.25424
592.77357
1211.1897
1184.4051
564.20972
446.26344
313.86072
170.67449
162.98951
303.47116
429.94064
544.49623
1162.3589
1140.1162
529.86619
417.8714
294.45107
157.9545
154.80948
288.89259
409.42496
519.02208
1120.0082
1102.5355
510.43122
402.92245
284.76642
152.44192
150.61174
281.40396
397.59031
503.29543
1087.3876
1074.1876
497.19269
392.99883
278.47308
149.14121
147.97313
275.97106
389.05848
491.94627
1062.8151
1052.9623
487.3928
385.58851
273.72638
147.00115
146.23388
271.81439
382.61152
483.47284
1044.5416
1037.2696
480.06759
379.97836
270.0829
145.58524
145.07866
268.62267
377.73161
477.13956
1031.0826
1025.7701
474.59345
375.73136
267.28004
144.63342
144.28796
266.17158
374.05142
472.42583
1021.2819
1017.4372
470.53872
372.54411
265.13449
143.96562
143.7112
264.28305
371.27179
468.90838
1014.207
1011.3875
467.42963
370.08107
263.45167
143.45302
143.25571
262.80036
369.1136
466.19609
1008.967
1006.8939
465.06361
368.19445
262.1517
143.048
142.89438
261.65935
367.4587
464.12375
1005.0618
1003.4508
463.21985
366.72133
261.13663
142.72124
142.59237
260.73517
366.11483
462.44183
1001.9818
1000.5945
461.6862
365.4903
260.28875
142.43951
142.32169
259.92861
364.93952
460.9745
999.3822
998.06725
460.20303
364.30716
259.48161
142.16796
142.04447
259.10773
363.73587
459.46923
996.70608
995.31511
458.65551
363.06926
258.63843
141.8827
141.746
258.22448
362.43709
457.84537
993.80504
992.31828
456.9791
361.72549
257.72394
141.5735
141.42095
257.25923
361.0155
456.06854
990.60857
988.8077
455.04945
360.18773
256.68419
141.226
141.05573
256.16551
359.40225
454.0513
986.92077
985.21082
453.04867
358.57791
255.58752
140.85792
987.93697
454.37176
359.60331
256.27443
141.07866
141.24013
256.72974
360.24199
455.11701
988.91938
990.44478
455.95605
360.90078
257.17082
141.38623
141.56487
257.69293
361.65523
456.8734
992.01338
993.53219
457.68
362.28398
258.11153
141.70285
141.86859
258.59453
362.98198
458.53129
994.97446
996.31739
459.25035
363.54119
258.96698
141.99174
142.14645
259.41555
364.18527
460.03225
997.60431
998.90088
460.7167
364.71622
259.77008
142.26304
142.41641
260.2192
365.36003
461.49939
1000.1926
1001.5272
462.21096
365.90782
260.58458
142.53416
142.69204
261.05411
366.57662
463.02201
1002.9393
1004.4919
463.83207
367.20242
261.47476
142.82423
143.00575
262.03089
367.99422
464.79671
1006.2272
1008.2437
465.83091
368.79897
262.57644
143.17279
143.40007
263.29667
369.83095
467.10022
1010.6163
1013.3863
468.47403
370.90943
264.03086
143.62106
143.91337
264.97714
372.28568
470.19116
1016.6713
1020.5344
472.03085
373.72333
265.94422
144.20667
144.58883
267.14516
375.50384
474.28265
1025.0698
1030.3931
476.79114
377.4426
268.42372
145.00641
145.54607
269.96804
379.77857
479.78934
1036.6232
1043.9094
483.17198
382.35958
271.64014
146.16734
146.96155
273.62028
385.40543
487.13941
1052.3969
1062.2577
491.66041
388.81994
275.8057
147.90684
149.10037
278.37411
392.83163
496.96361
1073.692
1086.9052
503.03742
397.37188
281.24901
150.54603
152.39747
284.66393
402.758
510.21361
1102.1172
1119.6018
518.76777
409.20756
288.7383
154.74296
157.90664
294.34184
417.7051
529.65861
1139.7091
1161.9699
544.23825
429.71428
303.30549
162.91882
170.6243
313.75293
446.09779
564.00153
1183.9986
1210.7736
592.5215
471.02951
332.53428
178.41191
182.74431
344.89315
487.41026
609.66335
1238.5294
1254.8966
569.0236
455.03785
323.67732
177.64669
169.11196
300.22404
426.29154
539.82538
1228.9308
1204.1058
518.13436
406.44781
285.05623
161.32273
154.7289
277.85739
394.44054
503.07414
1183.0976
1161.771
491.68401
385.5416
271.45122
150.52683
147.81139
267.42433
379.03441
482.88051
1142.3305
1125.2876
475.63257
373.74527
264.18009
145.65089
143.9184
261.38382
369.20312
469.39774
1110.3413
1097.2845
463.97488
365.19213
258.86241
142.50178
141.36103
256.64677
361.65718
459.20562
1085.9734
1076.1582
455.04576
358.51662
254.63493
140.41314
139.66218
252.88938
355.77145
451.40267
1067.6933
1060.4553
448.25843
353.35283
251.31123
139.03725
138.5485
249.9546
351.2473
445.50073
1054.2037
1048.8701
443.11517
349.3808
248.71063
138.12715
137.80132
247.67356
347.79913
441.0694
1044.3104
1040.4388
439.30524
346.3954
246.71347
137.50414
137.26723
245.90963
345.18643
437.75066
1037.1798
1034.4181
436.42083
344.11245
245.15847
137.03632
136.85495
244.54974
343.20072
435.24963
1032.0916
1030.1644
434.27774
342.40539
243.98416
136.67451
136.53622
243.5339
341.72442
433.39652
1028.4476
1026.9608
432.63874
341.1002
243.08719
136.38741
136.27033
242.71855
340.53428
431.89979
1025.5628
1024.2594
431.21505
339.97011
242.31594
136.13213
136.01845
241.96681
339.43049
430.51037
1022.9319
1021.6249
429.84566
338.87883
241.57285
135.88051
135.7632
241.21768
338.32844
429.12731
1020.3662
1018.9436
428.37828
337.71567
240.78712
135.61364
135.48369
240.39499
337.11159
427.59705
1017.4627
1015.8969
426.77804
336.4434
239.928
135.32223
135.18177
239.50469
335.79475
425.94505
1014.3237
1012.8072
425.12887
335.12317
239.03327
135.01806
134.89297
238.66878
334.57565
424.44584
1011.779
1011.7068
424.35824
334.48418
238.59823
134.86638
135.02071
239.03451
335.10404
425.09113
1012.7461
1014.2822
425.88503
335.72218
239.44549
135.15762
135.32345
239.92846
336.42548
426.74596
1015.8748
1017.389
427.4925
337.00496
240.31318
135.45171
135.60681
240.76433
337.66246
428.29996
1018.8141
1020.1496
428.97739
338.18157
241.10656
135.72076
135.86113
241.50987
338.7624
429.68169
1021.3853
1022.6247
430.31342
339.24465
241.82881
135.96702
136.1049
242.22848
339.81866
431.01013
1023.8768
1025.167
431.63846
340.30487
242.5553
136.21226
136.36256
243.00459
340.95208
432.43218
1026.5633
1028.1105
433.1752
341.52781
243.39344
136.48559
136.65788
243.92736
342.29519
434.1182
1029.8648
1031.8705
435.08538
343.04692
244.43655
136.81229
137.02135
245.10878
344.01512
436.28131
1034.2099
1036.9672
437.56751
345.01981
245.78933
137.22209
137.484
246.65447
346.28484
439.15065
1040.2093
1044.0173
440.85269
347.60084
247.53015
137.74444
138.08162
248.59325
349.18539
442.85688
1048.4677
1053.6981
445.14152
350.93411
249.73328
138.45747
138.94957
251.10258
353.02483
447.83762
1059.8251
1067.0012
450.88933
355.33296
252.58072
139.52581
140.27034
254.32421
358.04725
454.45776
1075.3583
1085.0629
458.4888
361.05277
256.22146
141.16176
142.28707
258.42365
364.54544
463.17676
1096.3078
1109.2555
468.46487
368.41429
260.82545
143.64104
145.35205
263.59901
372.8951
474.59345
1124.0947
1141.0457
481.76239
378.11659
266.80478
147.48094
150.29276
271.12445
384.86707
490.7271
1160.4216
1181.7211
502.74766
394.49351
278.14923
154.68812
161.77986
287.34747
408.64752
519.73155
1202.8311
1227.5265
546.01726
432.45631
304.78888
171.0749
182.13687
335.93386
471.90215
589.51164
1254.389
1279.3565
619.6233
503.10465
360.84534
190.74998
204.51982
409.36193