/*--------------------------------*- C++ -*----------------------------------*\
  =========                 |
  \\      /  F ield         | OpenFOAM: The Open Source CFD Toolbox
   \\    /   O peration     | Website:  https://openfoam.org
    \\  /    A nd           | Version:  7
     \\/     M anipulation  |
\*---------------------------------------------------------------------------*/
FoamFile
{
    version     2.0;
    format      ascii;
    class       surfaceScalarField;
    location    "180";
    object      phi;
}
// * * * * * * * * * * * * * * * * * * * * * * * * * * * * * * * * * * * * * //

dimensions      [1 0 -1 0 0 0 0];

internalField   nonuniform List<scalar> 
74673
(
3.1958189e-07
-0.0022915859
-1.9177954e-07
5.1864804e-07
-0.0027372425
-2.183738e-07
6.7211023e-07
-0.0031079238
-2.3795142e-07
8.054501e-07
-0.0034877294
-2.5712105e-07
-0.056596895
-3.9505471e-06
7.5395781e-07
-9.186875e-07
-0.056595574
-3.5061763e-06
2.1863973e-06
9.1744864e-07
-7.5793373e-07
-0.0034879023
-2.2698433e-07
2.3926501e-07
-5.7024208e-07
-0.0031081203
-2.1069402e-07
2.1976424e-07
-3.3379396e-07
-0.0027374836
-1.9352118e-07
1.9864829e-07
-0.0022919206
-1.688558e-07
1.6978829e-07
3.3125638e-07
-0.0022922556
-1.1852477e-07
1.2288647e-07
5.6249729e-07
-0.0027377247
-1.3528048e-07
1.4543114e-07
7.4845811e-07
-0.0031083213
-1.4678166e-07
1.6200476e-07
9.0552686e-07
-0.0034880783
-1.5793565e-07
1.7694129e-07
-0.056594458
-2.480108e-06
1.6430061e-06
6.2654656e-07
-9.0849147e-07
-0.056593444
-1.4192558e-06
1.0240297e-06
2.896924e-07
-7.4431915e-07
-0.0034882585
-9.3481058e-08
1.097043e-07
-5.5626591e-07
-0.0031085212
-8.8337205e-08
1.0051593e-07
-3.2336871e-07
-0.0027379641
-8.2919519e-08
9.0116204e-08
-0.0022925806
-7.3988233e-08
7.5560604e-08
3.1206761e-07
-0.0022928923
-3.5924107e-08
3.6375159e-08
5.4077322e-07
-0.0027381984
-3.8318894e-08
4.4288348e-08
7.2956333e-07
-0.003108721
-3.8769392e-08
4.9984452e-08
8.9261528e-07
-0.003488437
-3.9336198e-08
5.4853743e-08
-0.056592497
-5.507452e-07
5.2141117e-07
-2.4299655e-08
-8.6964269e-07
-0.056591584
2.3538267e-08
1.9416105e-07
-2.6116608e-07
-7.0982011e-07
-0.0034886125
-4.4854072e-09
2.0439677e-08
-5.2230961e-07
-0.0031089197
-7.0552781e-09
1.8528178e-08
-2.9696988e-07
-0.0027384295
-9.6355373e-09
1.6056562e-08
-0.0022931901
-1.1264135e-08
1.2116733e-08
2.8068964e-07
-0.0022934719
2.6688479e-09
-7.293756e-10
4.9952448e-07
-0.0027386552
6.3271951e-09
9.2573277e-10
6.820502e-07
-0.0031091142
1.052776e-08
1.7472619e-09
8.4079219e-07
-0.0034887877
1.4708939e-08
1.838028e-09
-0.056590648
3.4458489e-07
5.6739379e-09
-4.4547349e-07
-8.0355228e-07
-0.056589681
5.0899504e-07
-7.8539581e-08
-5.9305993e-07
-6.4919502e-07
-0.0034889599
2.4299889e-08
-6.1898732e-09
-4.728003e-07
-0.003109304
1.9246857e-08
-5.5504473e-09
-2.6502045e-07
-0.0027388711
1.437371e-08
-5.5586043e-09
-0.0022937405
9.8718505e-09
-6.2359667e-09
2.4620833e-07
-0.0022940058
1.5792987e-08
4.0245217e-09
4.3900878e-07
-0.0027390896
2.0687466e-08
5.3559659e-09
6.0903467e-07
-0.0031095053
2.5970162e-08
5.4827322e-09
7.5150574e-07
-0.0034891386
3.1461743e-08
4.8084946e-09
-0.056588822
6.2127315e-07
-4.6087319e-08
-6.8245295e-07
-6.8562863e-07
-0.056587895
7.1876694e-07
-1.6770197e-07
-7.9235287e-07
-5.5375991e-07
-0.0034892945
3.8277517e-08
-1.4046879e-08
-4.0106889e-07
-0.0031096774
3.2220925e-08
-1.253317e-08
-2.2337678e-07
-0.0027392818
2.6847458e-08
-1.185487e-08
-0.0022942395
2.2040839e-08
-1.1728628e-08
1.9566262e-07
-0.0022944506
2.8801461e-08
-1.2949294e-08
3.5195838e-07
-0.0027394583
3.3560461e-08
-1.3155364e-08
4.8553619e-07
-0.0031098358
3.8946978e-08
-1.3971789e-08
5.962767e-07
-0.0034894345
4.5155095e-08
-1.5855629e-08
-0.056586953
7.9755882e-07
-1.9695056e-07
-9.462029e-07
-4.8628165e-07
-0.056585962
8.4458006e-07
-2.1940708e-07
-1.1299835e-06
-3.9711819e-07
-0.0034895565
5.1025539e-08
-1.8103824e-08
-2.8983868e-07
-0.0031099718
4.4907979e-08
-1.6024014e-08
-1.6490499e-07
-0.0027396077
3.9899105e-08
-1.5047217e-08
-0.002294636
3.5441947e-08
-1.4930898e-08
1.2866876e-07
-0.002294789
4.2351944e-08
-1.7927063e-08
2.1687882e-07
-0.0027397241
4.6088938e-08
-1.7943042e-08
2.9260626e-07
-0.0031100795
5.092136e-08
-1.9006716e-08
3.4694678e-07
-0.0034896463
5.6742296e-08
-2.1252939e-08
-0.056584978
8.6407993e-07
-2.4275419e-07
-1.2585035e-06
-1.7691799e-07
-0.056584195
9.1175101e-07
-2.6912782e-07
-1.2492602e-06
-1.5791909e-07
-0.0034897036
6.3786242e-08
-2.5717997e-08
-1.2739246e-07
-0.0031101455
5.8629797e-08
-2.3281343e-08
-8.4253848e-08
-0.0027397997
5.4415521e-08
-2.2352532e-08
-0.0022949013
5.0792787e-08
-2.2752472e-08
3.2833761e-08
-0.0022949671
5.9706995e-08
-2.7506718e-08
2.0434574e-08
-0.002739824
6.3796518e-08
-2.7462153e-08
8.7619448e-10
-0.0031101659
6.7924999e-08
-2.834121e-08
-2.6986201e-08
-0.0034897178
7.2682833e-08
-3.0691823e-08
-0.056583814
1.0176222e-06
-2.877511e-07
-1.1383585e-06
2.5760914e-07
-0.056584047
1.1446997e-06
-3.07561e-07
-8.6169402e-07
1.8252776e-07
-0.0034896867
7.9912306e-08
-3.6314701e-08
1.0161252e-07
-0.0031101267
7.5368758e-08
-3.4046367e-08
2.6236607e-08
-0.0027397884
7.2087452e-08
-3.3293975e-08
-0.0022949762
6.8866866e-08
-3.3622265e-08
-8.7234853e-08
-0.0022949269
8.0554434e-08
-4.4231557e-08
-2.3696907e-07
-0.0027396776
8.1332242e-08
-4.3074562e-08
-3.8067251e-07
-0.0031100231
8.3075477e-08
-4.3466316e-08
-5.1022985e-07
-0.0034895981
8.6409226e-08
-4.5569708e-08
-0.056585303
1.2703471e-06
-3.4531867e-07
-1.8003278e-07
7.3385477e-07
-0.056588203
1.4953878e-06
-4.7225525e-07
1.1429845e-06
5.6152079e-07
-0.0034894477
9.7092005e-08
-7.5024674e-08
3.5118337e-07
-0.0031098348
9.5022952e-08
-7.2782141e-08
1.3439454e-07
-0.0027394835
9.5614185e-08
-7.2485668e-08
-0.002294817
9.8169739e-08
-7.3727245e-08
-1.389782e-07
-0.0022947195
1.194198e-07
-7.7943694e-08
-3.9557734e-07
-0.0027392671
1.1402097e-07
-7.3793142e-08
-6.4005633e-07
-0.003109629
1.1091839e-07
-7.2238818e-08
-8.2235742e-07
-0.0034893046
1.1226863e-07
-7.3109039e-08
-0.056593823
1.8488103e-06
-3.9254764e-07
3.3410829e-06
5.9767974e-07
-0.056603121
2.4020401e-06
-3.8403033e-07
6.6824363e-06
4.7909183e-07
-0.0034892303
1.3352353e-07
-8.9581686e-08
2.7750858e-07
-0.0031094698
1.3219396e-07
-9.0169081e-08
6.0168724e-08
-0.0027390942
1.3637598e-07
-9.2597224e-08
-0.0022947048
1.4219533e-07
-9.6775114e-08
1.8282228e-07
-0.0022949342
1.6351453e-07
-1.1790912e-07
1.6073277e-07
-0.0027391204
1.6197631e-07
-1.1404085e-07
1.4986744e-07
-0.0031095079
1.5944311e-07
-1.1073962e-07
2.5649202e-07
-0.0034893915
1.6254989e-07
-1.0807884e-07
-0.056617468
3.2253613e-06
-3.6346617e-07
1.1741111e-05
-2.0953213e-06
-0.056638604
4.476341e-06
-3.4099868e-07
1.9094812e-05
-1.5198799e-06
-0.0034900374
2.0378563e-07
-1.3376864e-07
-1.0937932e-06
-0.0031099918
1.9500418e-07
-1.3765536e-07
-6.6924405e-07
-0.0027395949
1.9136645e-07
-1.4241173e-07
-0.0022956417
1.8414642e-07
-1.458571e-07
1.489381e-06
-0.0022971483
2.0874221e-07
-1.9295609e-07
2.7037368e-06
-0.0027408536
2.315682e-07
-1.877938e-07
3.9148844e-06
-0.0031112697
2.4585999e-07
-1.7955093e-07
5.2963961e-06
-0.003491512
2.6437127e-07
-1.713857e-07
-0.05666861
6.2529506e-06
-2.8046557e-07
2.9329821e-05
-1.0207684e-05
-0.056709937
8.6964922e-06
-2.1047129e-07
4.304766e-05
-7.5943823e-06
-0.0034942547
3.4541581e-07
-2.1675853e-07
-5.1633454e-06
-0.0031137829
3.1091599e-07
-2.29516e-07
-2.7157468e-06
-0.002743339
2.7581331e-07
-2.3978101e-07
-0.0022998441
2.2610999e-07
-2.4613029e-07
4.4455545e-06
-0.002304217
2.0767795e-07
-2.8274567e-07
8.6545991e-06
-0.0027475716
3.1087463e-07
-2.8847776e-07
1.2849174e-05
-0.0031180793
3.8202701e-07
-2.810368e-07
1.7230943e-05
-0.0034988141
4.4198553e-07
-2.6449567e-07
-0.056765605
1.2070834e-05
-1.8746498e-07
6.1015355e-05
-2.6694326e-05
-0.056839827
1.6913357e-05
-3.5170975e-07
8.4354227e-05
-1.9934315e-05
-0.0035058156
5.5914807e-07
-3.1860613e-07
-1.3345835e-05
-0.0031247944
4.6176635e-07
-3.3617604e-07
-6.7524481e-06
-0.0027541713
3.411108e-07
-3.3723084e-07
-0.0023108311
1.7271658e-07
-3.1110915e-07
9.7020511e-06
-0.0023203409
1.7480491e-07
-3.7136394e-07
1.9390146e-05
-0.0027638565
4.0606876e-07
-4.1123481e-07
2.9090886e-05
-0.0031346624
5.8459085e-07
-4.1882217e-07
3.894599e-05
-0.0035160008
7.3283841e-07
-4.0288378e-07
-0.056938389
2.3593454e-05
-8.6910699e-07
0.00011478214
-5.4404215e-05
-0.057068611
3.1886638e-05
-2.0474057e-06
0.00015478581
-4.0605893e-05
-0.0035302854
1.0254184e-06
-5.4119832e-07
-2.6946494e-05
-0.0031485949
8.1716213e-07
-5.4641966e-07
-1.3350094e-05
-0.0027775148
5.7590106e-07
-5.1915488e-07
-0.0023335295
2.8295734e-07
-4.4445925e-07
1.794568e-05
-0.0023514296
4.1389274e-07
-4.6609741e-07
3.6165623e-05
-0.0027958838
7.4670762e-07
-6.0142678e-07
5.453653e-05
-0.0031673506
1.0466228e-06
-6.6410844e-07
7.3060971e-05
-0.0035494484
1.318945e-06
-6.80615e-07
-0.057241928
4.1309355e-05
-3.7315062e-06
0.00020879991
-9.6766636e-05
-0.057481783
5.1772635e-05
-5.7864855e-06
0.00029063363
-7.1966386e-05
-0.0035749999
1.483929e-06
-7.3562517e-07
-4.7555959e-05
-0.0031922299
1.1454348e-06
-6.7999687e-07
-2.3572838e-05
-0.0028201331
8.2360929e-07
-5.6510497e-07
-0.0023751282
5.1938375e-07
-3.9374153e-07
3.2165073e-05
-0.0024073988
6.3791202e-07
-5.4589592e-07
6.9086437e-05
-0.0028572707
7.6830178e-07
-5.5900977e-07
0.00010724301
-0.0032307241
1.0707423e-06
-7.3726973e-07
0.00014605773
-0.003614521
1.5986301e-06
-8.9264985e-07
-0.057811744
7.4492629e-05
-1.1305987e-05
0.00041283125
-0.00022481563
-0.058126568
9.7355246e-05
-1.3607066e-05
0.00045589056
-0.00016455502
-0.0036746759
4.598827e-07
-5.6932182e-07
-0.00010333698
-0.0032911307
-4.1556683e-07
-4.0028752e-07
-4.569992e-05
-0.0029136793
-9.5189113e-07
-2.8653467e-07
-0.0024510016
-1.1691766e-06
-9.2808358e-07
9.5478224e-05
-0.0025331605
-1.4740468e-05
1.3868713e-06
0.0001756191
-0.00298535
-8.8483862e-06
3.6359474e-07
0.00024991348
-0.0033607182
-5.488279e-06
7.7293997e-07
0.00032622842
-0.0037473933
-4.9281864e-06
1.3306179e-06
-0.058240362
6.8599088e-05
6.5629158e-06
0.00036486281
0.00010910961
-0.0596305
3.8040412e-05
-2.8559123e-05
0.0012715516
7.6901213e-05
-0.003719732
1.0598087e-05
-6.0422128e-06
5.0003276e-05
-0.0033374809
9.4916267e-06
-5.8210823e-06
2.5348927e-05
-0.002965862
1.1617345e-05
-6.4285136e-06
-0.0025197516
2.1404444e-05
-9.4643196e-06
-2.6432906e-05
-0.0024018673
-0.00010163246
1.0224465e-05
-5.6191863e-05
-0.0028264233
-0.00011422705
4.5655835e-06
-9.255297e-05
-0.003182023
-0.00012218645
3.1034879e-06
-0.00013581569
-0.0035489513
-0.00013080866
3.2923834e-06
-0.059691736
-0.0018835323
3.1107187e-05
0.0017778517
0.00056254424
-0.056431284
-0.0031062478
6.9234644e-05
-0.0007859773
0.00039092377
-0.003190424
-0.00020069142
1.3786167e-05
0.00024158122
-0.0028580521
-0.00018772675
1.3099867e-05
0.00011074596
-0.0025374488
-0.00017181776
1.3681969e-05
-0.0021622925
-0.00014506429
1.6235504e-05
-2.087249e-05
0.0020324425
-0.0021316484
-0.0020422134
-5.0093879e-05
0.0024124104
-0.0025158151
-0.0024048228
-8.1150433e-05
0.0027527436
-0.0028524378
-0.0027273017
-0.00011266563
0.0031175493
-0.0032062247
-0.0030702332
0.071609349
-0.027733398
-0.034747351
-0.065672551
0.0002899553
0.087035626
-0.014441098
-0.0043813802
0.00019076993
0.0038312358
-0.00081519107
0.00010068825
0.0033784205
-0.00072332035
2.9212951e-05
0.0029530574
-0.00064098603
0.0024709832
-0.00055439189
-9.9705371e-05
0.0024767025
-7.6000625e-06
-0.00019918966
0.0029630796
-2.4747035e-05
-0.000301425
0.0033948422
-3.6357881e-05
-0.00041323402
0.0038585773
-4.634016e-05
0.085400698
-0.0015915635
0.0009297297
-0.00024476647
0.084989002
-0.00054916463
0.0012436705
-0.00019612695
0.0038647113
-4.4172622e-05
-0.00014938743
0.0033982765
-4.0679227e-05
-9.203672e-05
0.0029595315
-4.2178759e-05
0.0024566029
-5.0532724e-05
6.0706465e-05
0.0023888292
-7.6749715e-06
0.00013279224
0.0028915381
-1.2940146e-05
0.00021199732
0.0033282994
-1.4715525e-05
0.00029569056
0.0037906781
-1.4587625e-05
0.084769037
-0.00012122526
0.0007054815
-0.00021834944
0.084324596
-2.6511783e-05
0.00078665895
-0.00015520064
0.0037303546
-2.3649019e-06
-9.5150141e-05
0.0032700027
-2.1689834e-06
-4.1076166e-05
0.0028381152
-1.6021819e-06
0.0023467768
-1.930057e-07
3.0305073e-05
0.0023172346
-1.2672776e-07
6.5626084e-05
0.0028036606
-9.7738422e-08
0.00010355623
0.0032332207
-7.7350103e-08
0.00014402831
0.0036915546
-7.3301867e-08
0.083894481
7.6113957e-07
0.00064787492
-9.7972163e-05
0.083578773
1.2529917e-05
0.00045292271
-7.1280482e-05
0.0036653652
9.8148511e-07
-4.6133957e-05
0.003208306
9.1347739e-07
-2.2391468e-05
0.0027799195
8.218115e-07
0.0022946876
6.7486212e-07
1.6647267e-05
0.002277429
1.0244335e-06
3.4562358e-05
0.0027616173
1.1341579e-06
5.3582844e-05
0.003189138
1.1941145e-06
7.3732657e-05
0.0036453037
1.2306353e-06
0.083345646
1.148362e-05
0.00033668584
-5.4325376e-05
0.083167174
7.7119679e-06
0.00025697151
-3.934148e-05
0.0036302525
1.0925488e-06
-2.5293539e-05
0.0031748237
1.0833132e-06
-1.2102269e-05
0.0027479521
1.0493614e-06
0.002264635
9.7476563e-07
8.6493499e-06
0.0022553408
8.1884419e-07
1.7946914e-05
0.0027382143
8.4641014e-07
2.7858046e-05
0.0031646479
8.4910719e-07
3.8519376e-05
0.0036194839
8.4016058e-07
0.083030029
4.7248787e-06
0.00019453306
-2.6517524e-05
0.082925357
2.8930344e-06
0.00014520958
-1.9162609e-05
0.0036120557
6.3217138e-07
-1.239657e-05
0.0031576939
6.4958427e-07
-6.037558e-06
0.0027315304
6.6550804e-07
0.0022488062
6.6980563e-07
4.0542221e-06
0.0022444315
5.276296e-07
8.1781862e-06
0.0027272122
5.0505701e-07
1.2547808e-05
0.0031532236
4.8247465e-07
1.7368793e-05
0.0036072099
4.6671902e-07
0.082846014
1.9999306e-06
0.00010678259
-1.0447159e-05
0.082786616
1.747199e-06
7.6793307e-05
-7.5499597e-06
0.0036043201
3.3779178e-07
-4.988387e-06
0.0031506248
3.4787156e-07
-2.5471649e-06
0.0027246772
3.6913438e-07
0.002241714
3.9635607e-07
1.4402369e-06
0.0022402011
2.8120002e-07
2.671255e-06
0.0027234243
2.5329692e-07
3.9499197e-06
0.0031493559
2.3586605e-07
5.4708748e-06
0.0036028302
2.3323855e-07
0.082743098
1.6535528e-06
5.3587955e-05
-2.2228734e-06
0.082712186
1.566614e-06
3.6044866e-05
-1.5984989e-06
0.0036022635
1.459133e-07
-1.1429099e-06
0.003148953
1.421421e-07
-6.9078458e-07
0.002723011
1.5218884e-07
0.002239516
1.7842807e-07
2.4691425e-07
0.0022393331
9.9377389e-08
2.5498547e-07
0.0027230788
8.5901541e-08
2.4818851e-07
0.0031490352
8.3809148e-08
3.5137204e-07
0.0036022313
9.154723e-08
0.082691039
1.4859913e-06
2.3236518e-05
5.2148273e-07
0.08267724
1.4261377e-06
1.4253379e-05
3.7920732e-07
0.0036024393
6.7599944e-08
1.6795596e-07
0.0031493211
5.7468215e-08
-1.9141781e-08
0.002723351
5.0941677e-08
0.0022394068
4.9337821e-08
-7.2283374e-08
0.0022395619
3.6480134e-08
-3.1313506e-07
0.0027236577
4.804368e-08
-5.6984504e-07
0.0031496303
5.8221172e-08
-7.8773299e-07
0.0036027011
6.8278808e-08
0.082668807
1.321507e-06
8.1725189e-06
6.800855e-07
0.082664211
1.192145e-06
4.2181767e-06
4.9222865e-07
0.0036029156
7.0309102e-08
2.7959566e-07
0.0031498759
6.1935745e-08
8.363838e-08
0.0027238968
5.2345934e-08
0.0022397037
4.0046725e-08
-4.0875871e-08
0.0022397801
4.3226025e-08
-1.6417664e-07
0.0027240452
5.545476e-08
-2.9134862e-07
0.003150021
6.460669e-08
-4.0866011e-07
0.0036030476
7.1712962e-08
0.082662178
1.0683475e-06
1.8268662e-06
1.1721439e-07
0.082661742
9.9695777e-07
4.6557259e-07
7.1849528e-08
0.0036030966
7.6105657e-08
2.4190636e-08
0.0031500738
7.0072855e-08
-1.8818738e-08
0.0027240981
6.1903896e-08
0.002239781
4.9113669e-08
6.3973894e-08
0.0022397173
5.9157395e-08
8.6480296e-08
0.0027240699
6.9462152e-08
1.0097593e-07
0.0031500511
7.5950589e-08
1.1315102e-07
0.003603076
8.1058223e-08
0.0826623
9.4977505e-07
-3.7694471e-07
-3.1711987e-07
0.082663445
8.7598447e-07
-7.9211442e-07
-2.5377757e-07
0.0036029967
7.9637156e-08
-1.8553041e-07
0.003149966
7.5451461e-08
-1.1369414e-07
0.0027239815
7.0712098e-08
0.0022395911
6.3347124e-08
1.4912992e-07
0.0022394196
6.4597762e-08
2.6911215e-07
0.0027238376
6.9877949e-08
3.8426325e-07
0.0031498281
7.357108e-08
4.8913438e-07
0.0036028712
7.7406092e-08
0.082664869
8.3035485e-07
-9.0154956e-07
-6.3185159e-07
0.082666329
7.8452874e-07
-7.6733627e-07
-4.8876824e-07
0.0036027044
7.4695498e-08
-3.4058182e-07
0.0031496535
7.1275348e-08
-1.8626003e-07
0.0027236551
6.8133947e-08
0.002239205
6.3827079e-08
2.1405824e-07
0.0022389587
6.1085883e-08
3.9791058e-07
0.0027234412
6.3526103e-08
5.7397575e-07
0.0031494509
6.5468704e-08
7.4167536e-07
0.0036025135
6.8339837e-08
0.082667748
7.0507584e-07
-5.8504858e-07
-8.2241069e-07
0.082669162
5.9084618e-07
-4.6413094e-07
-6.3464157e-07
0.0036023047
5.9291054e-08
-4.3905049e-07
0.0031492304
5.713587e-08
-2.3460746e-07
0.0027232076
5.6043907e-08
0.0022386912
5.4930885e-08
2.5835727e-07
0.0022383995
4.921372e-08
4.7782993e-07
0.0027229599
4.8925728e-08
6.8856769e-07
0.0031489967
4.9028019e-08
8.8780893e-07
0.0036020865
5.0459685e-08
0.082670616
4.7376528e-07
-4.1878981e-07
-9.3704355e-07
0.082672073
3.7139962e-07
-3.8201138e-07
-7.252605e-07
0.0036018561
4.2898862e-08
-5.0768205e-07
0.0031487562
4.2150034e-08
-2.7307787e-07
0.0027226973
4.2467853e-08
0.0022380932
4.3132943e-08
2.9174404e-07
0.0022377675
3.6768955e-08
5.3330029e-07
0.002722427
3.5062357e-08
7.5648521e-07
0.0031485097
3.4010038e-08
9.7239899e-07
0.0036016209
3.40167e-08
0.082673483
2.4614861e-07
-3.3846096e-07
-9.9654791e-07
0.08267488
-1.2708678e-08
-3.6476015e-07
-7.8171867e-07
0.0036013865
1.5151707e-08
-5.5410603e-07
0.0031482584
1.6633767e-08
-3.0587394e-07
0.0027221498
1.9458056e-08
0.0022374267
2.3662212e-08
3.2091129e-07
0.0022370714
-1.413038e-09
5.7292194e-07
0.0027218695
-1.0022938e-08
8.0195595e-07
0.0031480069
-1.618159e-08
1.0182196e-06
0.0036011517
-2.0745908e-08
0.082676291
-5.0633399e-07
-4.3722084e-07
-1.0415755e-06
0.082677739
-1.2550933e-06
-5.7016614e-07
-8.2196164e-07
0.0036009147
-7.609265e-08
-5.9223318e-07
0.0031477558
-6.6918136e-08
-3.3404257e-07
0.0027215842
-5.5733029e-08
0.0022367037
-4.0296755e-08
3.4269081e-07
0.0022363304
-8.7766447e-08
6.0513228e-07
0.0027212979
-1.1135342e-07
8.3184356e-07
0.0031475108
-1.2850111e-07
1.0477456e-06
0.0036006844
-1.4346658e-07
0.082679228
-2.1636822e-06
-7.5716214e-07
-1.1137137e-06
0.082680781
-2.944174e-06
-1.0009e-06
-8.8092146e-07
0.0036004296
-2.0489176e-07
-6.3500468e-07
0.0031472397
-1.8541619e-07
-3.5870999e-07
0.0027209913
-1.6313166e-07
0.0022359351
-1.322861e-07
3.2273066e-07
-1.4165695e-07
5.4045446e-07
-1.7330789e-07
7.2484104e-07
-1.9667031e-07
9.0472816e-07
-2.174499e-07
-3.1083247e-06
-1.5140737e-06
-8.8021282e-07
-0.082677758
-7.5973989e-06
1.0201517e-05
-6.9924839e-07
-0.0036005659
-5.432617e-07
6.2541524e-07
-5.1481663e-07
-0.0031474024
-4.9553238e-07
5.7392788e-07
-2.9987083e-07
-0.0027212045
-4.4419768e-07
5.2090876e-07
-0.0022362553
-3.752675e-07
4.5029806e-07
3.2102459e-07
-0.0022366379
-2.5434925e-07
3.1692546e-07
5.714516e-07
-0.0027215154
-3.0370329e-07
3.646485e-07
7.9699915e-07
-0.003147687
-3.4033238e-07
3.9981111e-07
1.008812e-06
-0.0036008381
-3.7384445e-07
4.3429543e-07
-0.082676635
-5.3134903e-06
7.087e-06
-1.8875111e-06
-9.8369008e-07
-0.082675316
-3.2718083e-06
4.3543512e-06
-1.4174161e-06
-7.7678567e-07
-0.0036010879
-2.2430701e-07
2.6754082e-07
-5.5896619e-07
-0.0031479486
-2.0346544e-07
2.4754579e-07
-3.1505677e-07
-0.0027218056
-1.8027827e-07
2.2733518e-07
-0.0022370035
-1.4895416e-07
1.9950065e-07
3.0587086e-07
-0.002237351
-7.136636e-08
1.1376707e-07
5.4972883e-07
-0.0027220867
-8.9620506e-08
1.2729007e-07
7.6747427e-07
-0.0031481995
-1.0303843e-07
1.3653657e-07
9.7442339e-07
-0.003601326
-1.1462546e-07
1.4589979e-07
-0.082673874
-1.7678166e-06
2.365821e-06
-1.0655209e-06
-9.499074e-07
-0.082672376
-8.2010489e-07
1.1270389e-06
-8.5439291e-07
-7.4602186e-07
-0.0036015549
-4.6080081e-08
7.1294699e-08
-5.3047932e-07
-0.0031484428
-4.0252562e-08
6.8344919e-08
-2.9211947e-07
-0.0027223571
-3.3059979e-08
6.5772572e-08
-0.0022376809
-2.3148866e-08
6.0971374e-08
2.8038526e-07
-0.0022379962
3.829912e-09
3.1792492e-08
5.1134044e-07
-0.0027226183
-1.4731606e-09
3.2105785e-08
7.237235e-07
-0.0031486806
-5.3781736e-09
3.1065393e-08
9.2705575e-07
-0.0036017805
-7.9638097e-09
3.0314398e-08
-0.082670834
-2.8439146e-07
4.3858793e-07
-7.6950929e-07
-8.9696673e-07
-0.082669256
4.6806603e-09
8.1155749e-08
-7.6583836e-07
-6.9819509e-07
-0.0036020016
1.2775107e-08
9.7752283e-09
-4.9013156e-07
-0.0031489144
1.3533813e-08
1.2477985e-08
-2.6757823e-07
-0.0027228712
1.5534541e-08
1.5331939e-08
-0.0022382997
1.861474e-08
1.7274519e-08
2.4981429e-07
-0.0022385854
2.6126878e-08
1.0281994e-08
4.6042564e-07
-0.0027231136
2.4198029e-08
7.8478051e-09
6.5778764e-07
-0.003149139
2.3093395e-08
4.3904995e-09
8.4484066e-07
-0.0036022127
2.3371694e-08
7.3517937e-10
-0.082667673
1.6936893e-07
-1.0419581e-07
-8.0390587e-07
-7.8861551e-07
-0.082666057
2.6161235e-07
-2.0720239e-07
-8.8156707e-07
-6.1258927e-07
-0.0036024128
2.7679787e-08
-3.468534e-09
-4.2689839e-07
-0.003149352
2.6843448e-08
5.7168968e-10
-2.3039691e-07
-0.0027233415
2.7388255e-08
4.2557223e-09
-0.0022388514
2.879698e-08
6.8295484e-09
2.0752102e-07
-0.0022390926
3.2645014e-08
1.1751192e-09
3.8330154e-07
-0.0027235477
3.1635651e-08
-1.1167884e-09
5.479053e-07
-0.0031495432
3.1498403e-08
-4.7213071e-09
7.0466546e-07
-0.0036025936
3.3138226e-08
-9.1651625e-09
-0.082664381
3.6628757e-07
-3.1409663e-07
-1.0227102e-06
-5.8654938e-07
-0.082662733
5.2274278e-07
-4.5384492e-07
-1.1306879e-06
-4.5953998e-07
-0.0036027458
4.2516098e-08
-1.7334393e-08
-3.2126824e-07
-0.0031497092
3.9976549e-08
-1.2352814e-08
-1.7722264e-07
-0.0027237221
3.9034632e-08
-8.8412689e-09
-0.0022393011
3.8515952e-08
-7.2203389e-09
1.4387349e-07
-0.0022394726
4.3463617e-08
-1.6213917e-08
2.5269572e-07
-0.002723859
4.506429e-08
-1.7121325e-08
3.5617204e-07
-0.0031498397
4.724958e-08
-2.0343775e-08
4.5032756e-07
-0.0036028654
5.1015694e-08
-2.5592207e-08
-0.082661211
6.7121399e-07
-5.7648644e-07
-1.1667997e-06
-2.7437745e-07
-0.082659876
7.9333933e-07
-7.0389407e-07
-1.1503467e-06
-2.2725828e-07
-0.0036029336
5.662463e-08
-3.5930443e-08
-1.7124522e-07
-0.0031499175
5.2203024e-08
-3.0819466e-08
-1.0652796e-07
-0.0027239456
4.9183304e-08
-2.8152599e-08
-0.0022395972
4.6156403e-08
-2.8140048e-08
5.898405e-08
-0.0022396639
5.0842058e-08
-4.4420199e-08
6.8260733e-08
-0.0027239671
5.6575636e-08
-4.49117e-08
6.8122817e-08
-0.0031499318
6.1458539e-08
-4.7512323e-08
6.3634331e-08
-0.003602944
6.7331864e-08
-5.2579767e-08
-0.082658979
9.7220551e-07
-9.2665249e-07
-8.7896455e-07
1.7540579e-07
-0.08265913
1.2002239e-06
-1.2166411e-06
-8.0199824e-09
1.1126028e-07
-0.0036028867
7.9109178e-08
-7.2930793e-08
4.6374297e-08
-0.0031498715
7.1455071e-08
-6.7602286e-08
-1.1034446e-08
-0.0027239101
6.3812774e-08
-6.5016837e-08
-0.0022396645
5.3506983e-08
-6.3913239e-08
-4.6708581e-08
-0.0022395882
5.1886526e-08
-8.3966739e-08
-1.8281917e-07
-0.0027237567
6.5508182e-08
-8.3897307e-08
-3.2739846e-07
-0.0031497172
7.5200862e-08
-8.5738404e-08
-4.6352732e-07
-0.0036027446
8.4231577e-08
-9.0417387e-08
-0.082660884
1.352161e-06
-1.4748797e-06
1.4122772e-06
7.3749318e-07
-0.082665018
1.4323535e-06
-1.7449085e-06
3.708353e-06
5.2709792e-07
-0.0036025094
8.0115252e-08
-1.0495914e-07
3.0023594e-07
-0.0031494591
7.0049193e-08
-1.014291e-07
8.7808286e-08
-0.002723503
5.9345121e-08
-1.0092418e-07
-0.0022394447
4.5859981e-08
-1.0161951e-07
-7.9074944e-08
-0.0022392909
4.1060343e-08
-1.1586741e-07
-3.3013542e-07
-0.0027231886
5.3607432e-08
-1.1710482e-07
-6.0415816e-07
-0.0031491321
6.4363696e-08
-1.1750285e-07
-8.3853114e-07
-0.0036022293
7.5052907e-08
-1.2094964e-07
-0.082672789
1.5265303e-06
-2.1266236e-06
7.5326857e-06
5.8120821e-07
-0.08268592
1.7213477e-06
-2.7398859e-06
1.3568426e-05
4.1884687e-07
-0.0036020096
8.2150289e-08
-1.3913828e-07
1.8968843e-07
-0.0031488377
6.9732533e-08
-1.3449179e-07
-9.5035173e-09
-0.0027229189
6.2155062e-08
-1.3168902e-07
-0.0022392384
6.2447083e-08
-1.2447842e-07
2.1658271e-07
-0.0022394656
1.2868675e-07
-1.1764447e-07
1.9604258e-07
-0.0027228773
1.1403151e-07
-1.3496424e-07
1.6148479e-07
-0.0031487716
1.1199592e-07
-1.4357163e-07
2.3467968e-07
-0.0036020519
1.2164684e-07
-1.5256663e-07
-0.082706372
1.9393206e-06
-3.6266387e-06
2.2372969e-05
-2.0000892e-06
-0.082736386
2.1652858e-06
-4.8793981e-06
3.4727333e-05
-1.4269326e-06
-0.0036026604
1.938122e-07
-1.5898247e-07
-1.0230922e-06
-0.0031492226
1.8808896e-07
-1.4134289e-07
-6.278884e-07
-0.0027233506
2.0000008e-07
-1.2302256e-07
-0.0022402303
2.3529749e-07
-9.8492796e-08
1.2713066e-06
-0.0022418508
3.9289887e-07
-4.5562143e-08
2.3754045e-06
-0.0027247028
3.3504783e-07
-8.7713795e-08
3.5410633e-06
-0.0031505772
3.087062e-07
-1.205189e-07
4.9533603e-06
-0.0036042275
3.0734188e-07
-1.5271943e-07
-0.082778731
2.4086935e-06
-6.5831773e-06
5.1472406e-05
-9.3808338e-06
-0.082836626
2.7276482e-06
-8.8928803e-06
7.3440527e-05
-6.7194224e-06
-0.0036072203
4.6515065e-07
-1.3471749e-07
-4.3993444e-06
-0.0031532925
4.7623843e-07
-8.1986635e-08
-2.2284288e-06
-0.0027273596
5.1095726e-07
-2.726561e-08
-0.002244688
5.6768754e-07
4.1160399e-08
3.5618258e-06
-0.002249148
7.5775996e-07
1.3728989e-07
7.2339506e-06
-0.0027317885
7.1103657e-07
4.4288492e-08
1.1181946e-05
-0.0031578781
6.7237164e-07
-3.607554e-08
1.5587101e-05
-0.0036121603
6.5169827e-07
-1.1704696e-07
-0.082914012
3.1348772e-06
-1.2002693e-05
0.00010183923
-2.3938132e-05
-0.083016019
3.7411081e-06
-1.6262989e-05
0.00013846653
-1.7203317e-05
-0.003619622
8.5968985e-07
-1.3419132e-07
-1.1075352e-05
-0.0031648785
8.8830181e-07
-1.7261717e-08
-5.3751416e-06
-0.0027385103
9.2565028e-07
9.2689995e-08
-0.0022556836
9.5316874e-07
2.0733336e-07
7.7822189e-06
-0.0022648458
1.1493781e-06
2.2535278e-07
1.6197369e-05
-0.0027481461
1.1488442e-06
6.9237006e-08
2.5236388e-05
-0.0031749597
1.1196993e-06
-7.9629077e-08
3.5046813e-05
-0.0036302816
1.0879311e-06
-2.3897121e-07
-0.08314972
4.7845755e-06
-2.196116e-05
0.0001859223
-4.9997343e-05
-0.083324331
6.1553657e-06
-2.8163228e-05
0.00024661454
-3.6081981e-05
-0.0036450669
1.2849994e-06
-4.1700006e-07
-2.3127015e-05
-0.003189015
1.3153391e-06
-2.1709283e-07
-1.1040908e-05
-0.0027615379
1.3280328e-06
-2.6936675e-08
-0.0022773497
1.2996164e-06
1.6338998e-07
1.5409355e-05
-0.002294188
1.373565e-06
4.9107154e-08
3.2143772e-05
-0.0027795165
1.3645881e-06
-1.2350823e-07
5.0011226e-05
-0.0032079037
1.3542869e-06
-3.3561777e-07
6.9036863e-05
-0.0036648589
1.3419504e-06
-5.7584144e-07
-0.083552804
8.0394032e-06
-3.4579441e-05
0.00032404898
-9.2599498e-05
-0.08386263
8.9055921e-06
-4.0163549e-05
0.0004336814
-6.7174986e-05
-0.0036907967
1.0832008e-06
-5.7251432e-07
-4.3325368e-05
-0.0032325267
1.0877914e-06
-3.1738879e-07
-2.0992562e-05
-0.0028028568
1.1455168e-06
-1.4454958e-07
-0.0023163614
1.2996541e-06
-1.1887321e-07
2.8300926e-05
-0.002345271
8.1950471e-07
-2.2265311e-07
6.1106968e-05
-0.0028361124
2.337018e-07
2.1022216e-07
9.6806114e-05
-0.0032684083
5.3232769e-09
1.727815e-07
0.00013510574
-0.0037289255
-5.3889171e-08
-1.1719206e-07
-0.084301329
9.7006655e-07
-4.5971952e-05
0.00061880596
-0.00022513583
-0.084777053
-2.1846988e-05
-5.7598829e-05
0.00078030389
-0.00016046785
-0.0037914448
-2.4895834e-06
3.3801911e-07
-9.8972497e-05
-0.0033283169
-2.3790495e-06
7.8897002e-07
-4.2936467e-05
-0.002891237
-1.8186767e-06
8.9987175e-07
-0.0023879188
-1.1569217e-07
-1.7305936e-07
6.5026428e-05
-0.0024511872
-2.9088416e-06
1.1363817e-06
0.00014285352
-0.0029627556
-7.3799522e-06
1.0654921e-06
0.0002274411
-0.0034038291
-8.4905872e-06
-5.8876207e-07
0.00031461185
-0.0038690736
-8.8155607e-06
-7.2606076e-07
-0.084964908
-7.018508e-05
-7.2319486e-05
0.00064497323
-0.00023051929
-0.085445004
-0.00035603289
0.0001252076
0.00094144414
-0.00018566358
-0.0038865359
-6.8487486e-06
-2.0536187e-05
-0.00014498623
-0.0034183727
-3.7468662e-06
-2.2377764e-05
-9.3444475e-05
-0.0029880416
-1.6516647e-06
-2.4583992e-05
-0.0025110918
-3.4169275e-06
-3.0122769e-05
-0.00016612794
-0.0024079724
-4.269681e-05
0.00010580406
-0.00032434836
-0.002892118
-5.4049742e-05
0.00011638879
-0.00048870281
-0.0033163561
-6.3680536e-05
0.00012604858
-0.00067294957
-0.0037639001
-7.3804934e-05
0.00013541736
-0.088063334
-0.0017359101
0.0020336495
0.0016476458
-2.0769254e-05
-0.071759426
-0.014726102
0.0029223523
-0.0044793851
-3.9722567e-05
-0.0031115931
-0.00080476512
0.00017141333
-5.2237945e-05
-0.0027474011
-0.00071376658
0.00015732911
-4.6271478e-05
-0.0024079941
-0.00063146898
0.00014138329
-0.002026772
-0.00054203752
0.00011456562
1.6049611e-05
0.002121854
3.0093477e-05
0.0024985953
4.4849256e-05
0.0028199816
5.7201087e-05
0.0031549898
0.056188597
0.00059148638
0.070380116
-0.00014371169
-0.0084391645
0.0004170856
0.0037711787
-2.2679689e-05
0.00026002072
0.0033426964
-2.2616431e-05
0.00012015435
0.0029357288
-2.3855533e-05
0.0024687528
-2.8004956e-05
-0.00021966863
0.0025710154
7.4714905e-05
-0.00043698306
0.0030321112
6.6886478e-05
-0.00065986238
0.0034380802
6.3819313e-05
-0.00089775192
0.0038721402
6.3123791e-05
0.067597832
0.00033921535
-0.00019059282
-3.6962058e-05
0.066837217
8.1886382e-05
0.00035965813
-3.9917348e-05
0.003848888
1.9358592e-05
-4.3543686e-05
0.003417554
2.0405533e-05
-3.6868135e-05
0.0030037139
2.0069833e-05
0.0025135815
1.7148796e-05
5.7269331e-05
0.0024423158
1.1086383e-05
0.00011550971
0.0029264196
1.1673188e-05
0.00017592518
0.0033374091
1.1238622e-05
0.00023880878
0.0037666354
1.0553621e-05
0.066688615
1.1688922e-05
0.0003055364
-0.0001867762
0.066304395
1.5098533e-05
0.0005340507
-0.00013432051
0.003703786
7.9037849e-06
-8.3634854e-05
0.0032760222
8.3217242e-06
-3.6633791e-05
0.002868944
8.6548903e-06
0.0023968773
8.6889527e-06
2.5819289e-05
0.0023660422
5.8347222e-06
5.4752602e-05
0.0028345242
5.7195023e-06
8.5548187e-05
0.0032397679
5.4632635e-06
0.00011807194
0.0036660553
5.1529554e-06
0.065953946
7.5938609e-06
0.0004618974
-8.4973197e-05
0.065713336
3.9158366e-06
0.00033057254
-6.25461e-05
0.0036413557
3.3553788e-06
-4.1094737e-05
0.0032158302
3.573712e-06
-2.0443997e-05
0.002811252
3.7662707e-06
0.0023430212
3.8766672e-06
1.5714418e-05
0.0023260254
2.6550097e-06