/*--------------------------------*- C++ -*----------------------------------*\
  =========                 |
  \\      /  F ield         | OpenFOAM: The Open Source CFD Toolbox
   \\    /   O peration     | Website:  https://openfoam.org
    \\  /    A nd           | Version:  7
     \\/     M anipulation  |
\*---------------------------------------------------------------------------*/
FoamFile
{
    version     2.0;
    format      ascii;
    class       volScalarField;
    location    "180";
    object      rho;
}
// * * * * * * * * * * * * * * * * * * * * * * * * * * * * * * * * * * * * * //

dimensions      [1 -3 0 0 0 0 0];

internalField   nonuniform List<scalar> 
24789
(
1.1737106
1.1737093
1.1737096
1.1737114
1.1737217
1.1737194
1.17371
1.1737083
1.1737081
1.1737098
1.1737081
1.1737063
1.1737062
1.1737078
1.1737166
1.1737135
1.1737053
1.1737037
1.173704
1.1737061
1.1737036
1.1737013
1.1737009
1.1737023
1.1737098
1.1737054
1.1736985
1.1736972
1.1736977
1.1737003
1.173696
1.1736933
1.1736927
1.1736939
1.1737
1.1736935
1.1736879
1.1736869
1.1736876
1.1736904
1.1736833
1.1736805
1.1736797
1.1736806
1.1736855
1.1736758
1.1736713
1.1736704
1.1736712
1.1736741
1.1736625
1.1736599
1.1736591
1.1736599
1.173664
1.1736497
1.1736458
1.173645
1.1736456
1.1736481
1.1736302
1.1736282
1.1736276
1.1736285
1.1736324
1.1736116
1.1736071
1.1736062
1.1736065
1.1736081
1.1735808
1.1735799
1.17358
1.1735812
1.1735865
1.1735563
1.1735494
1.1735479
1.1735472
1.1735471
1.1735059
1.1735074
1.1735089
1.1735108
1.1735203
1.173477
1.173463
1.1734603
1.1734576
1.1734543
1.1733903
1.1733965
1.1734009
1.1734049
1.1734255
1.1733639
1.1733329
1.1733271
1.1733201
1.1733099
1.1732086
1.1732247
1.1732355
1.1732441
1.1732904
1.1732028
1.173134
1.1731212
1.1731051
1.1730808
1.1729207
1.1729562
1.1729796
1.1729982
1.1730988
1.172976
1.1728318
1.1728051
1.1727717
1.1727216
1.1724769
1.1725455
1.1725918
1.1726292
1.1728309
1.1726578
1.1723835
1.1723325
1.1722703
1.1721793
1.1718275
1.1719443
1.1720254
1.1720927
1.1724542
1.1722162
1.1717593
1.1716736
1.1715715
1.1714259
1.1709472
1.1711204
1.1712436
1.1713483
1.1718976
1.1715532
1.1709063
1.1707835
1.1706455
1.1704642
1.1703779
1.1705243
1.170668
1.1708102
1.171567
1.1708865
1.1702428
1.1701139
1.1699909
1.1698998
1.1645879
1.1649542
1.1652412
1.1655268
1.1677126
1.1722565
1.1720942
1.1719377
1.17178
1.1715486
1.1733608
1.173588
1.1737127
1.1738455
1.1744675
1.1762465
1.1758504
1.1757352
1.1756024
1.1753911
1.1792359
1.1795796
1.1798197
1.1800033
1.1800635
1.1755725
1.1733546
1.1731089
1.1728966
1.1725123
1.1739647
1.174111
1.1741718
1.174215
1.1745677
1.1712357
1.1691855
1.1688208
1.1684608
1.1679846
1.1661991
1.1664402
1.1666172
1.1667996
1.1683652
1.1709871
1.1701748
1.1700462
1.1699238
1.1698232
1.1703001
1.1704444
1.1705829
1.1707189
1.1715697
1.1715788
1.1708493
1.17073
1.1705972
1.1704265
1.1709165
1.1710772
1.171196
1.1712985
1.1719251
1.1722414
1.1717121
1.171627
1.1715267
1.1713864
1.1717818
1.1718973
1.1719785
1.1720463
1.1724722
1.1726717
1.1723413
1.1722889
1.1722251
1.172133
1.1724341
1.1725055
1.172554
1.1725933
1.1728406
1.1729841
1.1728036
1.172775
1.1727391
1.1726856
1.1728923
1.1729312
1.1729569
1.1729772
1.1731046
1.1732075
1.1731195
1.1731054
1.1730875
1.1730603
1.1731946
1.173213
1.1732251
1.1732346
1.1732934
1.1733663
1.1733274
1.1733211
1.1733132
1.1733015
1.1733855
1.1733927
1.1733976
1.1734018
1.1734269
1.1734781
1.1734618
1.1734591
1.1734562
1.1734525
1.1735052
1.1735068
1.1735084
1.1735102
1.1735207
1.1735565
1.1735494
1.1735481
1.1735476
1.1735477
1.1735814
1.1735804
1.1735804
1.1735814
1.1735862
1.1736111
1.1736074
1.1736067
1.1736073
1.1736092
1.1736308
1.1736285
1.1736278
1.1736285
1.1736317
1.1736488
1.1736456
1.173645
1.173646
1.1736488
1.1736625
1.1736597
1.1736588
1.1736595
1.1736629
1.1736746
1.1736706
1.1736699
1.1736709
1.173674
1.1736825
1.1736796
1.1736787
1.1736796
1.1736842
1.1736921
1.1736867
1.1736858
1.1736867
1.1736897
1.1736947
1.1736919
1.1736912
1.1736924
1.1736986
1.173704
1.1736968
1.1736957
1.1736963
1.1736991
1.1737017
1.1736994
1.173699
1.1737004
1.1737084
1.1737121
1.1737032
1.1737018
1.1737021
1.1737044
1.1737057
1.1737039
1.1737039
1.1737055
1.1737153
1.1737182
1.1737078
1.1737061
1.173706
1.1737078
1.1737082
1.1737068
1.173707
1.1737088
1.1737207
1.1737207
1.1737108
1.1737093
1.1737095
1.1737115
1.1737112
1.1737091
1.1737087
1.1737101
1.1737185
1.1737154
1.1737077
1.1737064
1.1737069
1.1737094
1.1737074
1.1737048
1.1737042
1.1737053
1.173712
1.1737077
1.1737019
1.173701
1.1737018
1.1737047
1.173701
1.1736979
1.173697
1.1736978
1.1737026
1.1736963
1.1736925
1.1736918
1.1736929
1.1736961
1.1736896
1.1736864
1.1736852
1.1736857
1.1736886
1.1736793
1.1736772
1.1736767
1.173678
1.1736813
1.1736707
1.1736675
1.1736662
1.1736665
1.1736678
1.1736541
1.1736532
1.1736529
1.1736542
1.1736573
1.1736403
1.1736375
1.1736364
1.1736366
1.1736372
1.1736171
1.1736162
1.1736159
1.1736168
1.1736192
1.1735927
1.1735911
1.1735905
1.1735909
1.1735927
1.1735637
1.1735599
1.1735591
1.1735591
1.1735597
1.1735185
1.1735194
1.1735203
1.1735216
1.1735285
1.1734868
1.1734741
1.1734719
1.1734697
1.1734666
1.1734011
1.1734074
1.1734117
1.1734152
1.1734365
1.1733771
1.1733419
1.1733362
1.173329
1.1733181
1.1732127
1.1732303
1.1732417
1.1732506
1.1733054
1.173221
1.1731371
1.1731237
1.1731064
1.17308
1.1729143
1.1729523
1.1729773
1.1729968
1.1731196
1.1730012
1.172826
1.1727982
1.1727632
1.1727108
1.1724643
1.1725339
1.1725812
1.1726194
1.1728599
1.1726944
1.1723725
1.1723216
1.1722597
1.1721701
1.171828
1.1719394
1.1720178
1.1720834
1.1724972
1.1722706
1.1717573
1.1716755
1.1715794
1.1714453
1.1709994
1.1711515
1.1712644
1.171362
1.1719648
1.1715961
1.1709061
1.1707943
1.1706701
1.1705093
1.1703634
1.1704882
1.1706118
1.1707369
1.171539
1.1712654
1.1704604
1.1703354
1.1702238
1.1701601
1.1671941
1.1673881
1.1675125
1.1676408
1.1686869
1.1693502
1.1656121
1.1651067
1.1646366
1.1640059
1.1810435
1.1809694
1.1808519
1.180668
1.1786276
1.1747956
1.1726865
1.1724134
1.1721716
1.1717522
1.1788846
1.1792768
1.1795262
1.179723
1.179502
1.1762606
1.1760919
1.1760281
1.1759278
1.1756958
1.1799389
1.1799289
1.1798379
1.1796746
1.1782626
1.1692781
1.1664258
1.1659393
1.165466
1.1648588
1.1666612
1.1668667
1.1669874
1.1671216
1.1682378
1.1710508
1.1703392
1.17021
1.1700955
1.1700195
1.1703292
1.1704709
1.170606
1.1707377
1.1714486
1.1715441
1.1709295
1.1708135
1.1706813
1.170506
1.1710285
1.1711931
1.17131
1.1714086
1.1719311
1.1722442
1.171812
1.1717321
1.1716364
1.171499
1.1718935
1.1720023
1.1720772
1.1721391
1.1724771
1.17268
1.1724242
1.1723778
1.1723209
1.1722372
1.1725258
1.1725882
1.1726301
1.1726638
1.1728502
1.1729948
1.1728622
1.1728384
1.1728085
1.1727633
1.1729559
1.1729875
1.1730083
1.1730246
1.1731153
1.1732182
1.1731574
1.1731466
1.1731328
1.1731115
1.1732351
1.1732487
1.1732576
1.1732647
1.1733036
1.173376
1.1733514
1.1733469
1.1733415
1.1733334
1.1734107
1.1734151
1.1734182
1.173421
1.1734359
1.1734866
1.1734776
1.1734759
1.1734744
1.1734727
1.1735217
1.1735218
1.1735223
1.1735234
1.1735284
1.1735638
1.1735608
1.1735602
1.1735605
1.1735617
1.1735932
1.1735913
1.1735906
1.1735911
1.1735928
1.1736173
1.173616
1.1736157
1.1736168
1.1736195
1.1736399
1.173637
1.1736359
1.1736362
1.1736373
1.1736541
1.1736527
1.1736524
1.1736537
1.1736571
1.1736699
1.1736666
1.1736654
1.1736659
1.1736678
1.1736792
1.1736767
1.1736762
1.1736775
1.1736811
1.1736889
1.1736857
1.1736845
1.1736852
1.1736885
1.1736962
1.1736921
1.1736913
1.1736925
1.1736958
1.1737005
1.1736974
1.1736965
1.1736975
1.1737023
1.1737074
1.1737017
1.1737006
1.1737015
1.1737045
1.173707
1.1737044
1.1737038
1.173705
1.1737116
1.173715
1.1737075
1.1737062
1.1737067
1.1737093
1.1737108
1.1737087
1.1737084
1.1737099
1.173718
1.1737201
1.1737109
1.1737094
1.1737096
1.1737117
1.1737133
1.1737115
1.1737113
1.1737129
1.173722
1.1737197
1.1737116
1.1737101
1.1737104
1.1737125
1.1737103
1.1737081
1.1737077
1.1737091
1.1737166
1.1737132
1.1737064
1.1737051
1.1737056
1.1737081
1.173705
1.1737023
1.1737017
1.1737028
1.1737089
1.1737037
1.1736983
1.1736973
1.173698
1.1737009
1.1736956
1.1736927
1.1736918
1.1736927
1.1736974
1.1736895
1.1736854
1.1736846
1.1736855
1.1736886
1.1736799
1.1736769
1.1736759
1.1736766
1.17368
1.1736684
1.1736653
1.1736647
1.1736657
1.1736686
1.1736545
1.1736518
1.1736509
1.1736516
1.1736543
1.1736373
1.1736345
1.1736339
1.1736346
1.173637
1.1736153
1.1736134
1.1736129
1.1736137
1.1736167
1.1735919
1.1735879
1.1735871
1.1735872
1.1735884
1.1735555
1.1735553
1.1735557
1.1735568
1.1735622
1.1735265
1.1735184
1.1735167
1.1735155
1.1735145
1.1734641
1.1734671
1.1734694
1.1734718
1.1734839
1.1734329
1.1734143
1.1734106
1.1734065
1.1734008
1.1733215
1.1733313
1.173338
1.1733434
1.1733721
1.1732994
1.1732555
1.1732473
1.1732369
1.1732213
1.1730952
1.173119
1.1731346
1.1731469
1.1732128
1.1731098
1.1730127
1.1729946
1.1729717
1.1729369
1.1727407
1.1727898
1.1728225
1.1728485
1.1729882
1.1728442
1.1726483
1.1726117
1.1725665
1.1724991
1.1722061
1.1722952
1.1723561
1.172406
1.1726726
1.1724698
1.1721185
1.1720527
1.1719736
1.1718594
1.171465
1.1716069
1.1717065
1.1717901
1.1722333
1.1719176
1.171386
1.1712844
1.1711646
1.1709961
1.1705124
1.1706878
1.1708218
1.1709407
1.1715623
1.171553
1.1708234
1.1706876
1.1705494
1.170413
1.1700489
1.1701376
1.170248
1.1703683
1.1709936
1.1678772
1.1661104
1.1658862
1.1656728
1.1653746
1.1689661
1.1693466
1.1696129
1.1698937
1.1713488
1.1767036
1.1774561
1.1774534
1.1774098
1.1772927
1.1734881
1.1737623
1.1739075
1.1740475
1.1751234
1.1803439
1.1803365
1.1801482
1.1798989
1.1795059
1.1834299
1.1852121
1.1854782
1.1856673
1.1857412
1.1855712
1.185623
1.1856465
1.1855171
1.1827232
1.1808049
1.180733
1.1806081
1.1804672
1.1802016
1.1785936
1.1788076
1.1789488
1.179046
1.1790086
1.1771931
1.1775367
1.177544
1.1774958
1.1773741
1.175919
1.1761339
1.1762669
1.1763401
1.176524
1.1697589
1.1680345
1.167692
1.1673745
1.1668834
1.1665783
1.1667747
1.1669098
1.1670651
1.1682948
1.1710147
1.1703465
1.1702237
1.1701124
1.1700398
1.1703872
1.1705192
1.1706478
1.1707745
1.1714538
1.1715397
1.1709458
1.1708337
1.1707072
1.1705411
1.1710479
1.1712058
1.1713185
1.1714142
1.1719222
1.1722361
1.1718138
1.171736
1.1716434
1.1715115
1.1719001
1.172005
1.1720778
1.1721382
1.1724698
1.1726736
1.1724217
1.1723763
1.1723208
1.1722397
1.1725256
1.1725865
1.1726275
1.1726606
1.1728448
1.1729898
1.1728583
1.1728348
1.1728054
1.1727611
1.172953
1.1729841
1.1730046
1.1730207
1.1731111
1.1732143
1.1731534
1.1731425
1.1731288
1.1731077
1.1732309
1.1732446
1.1732536
1.1732607
1.1733003
1.1733731
1.1733477
1.1733432
1.1733376
1.1733294
1.1734069
1.1734115
1.1734147
1.1734177
1.1734334
1.1734844
1.1734746
1.1734728
1.1734712
1.1734693
1.1735184
1.1735187
1.1735194
1.1735206
1.1735265
1.173562
1.1735582
1.1735575
1.1735576
1.1735586
1.1735907
1.1735889
1.1735884
1.173589
1.1735913
1.1736159
1.1736141
1.1736137
1.1736146
1.1736171
1.1736378
1.173635
1.173634
1.1736344
1.173636
1.1736529
1.1736511
1.1736507
1.173652
1.1736552
1.1736685
1.1736652
1.1736641
1.1736645
1.1736668
1.1736782
1.1736754
1.1736748
1.1736761
1.1736795
1.1736876
1.1736844
1.1736833
1.173684
1.1736875
1.1736953
1.173691
1.1736902
1.1736913
1.1736946
1.1736993
1.1736963
1.1736954
1.1736964
1.1737015
1.1737067
1.1737008
1.1736997
1.1737005
1.1737035
1.1737061
1.1737035
1.1737029
1.1737042
1.1737109
1.1737144
1.1737069
1.1737056
1.1737061
1.1737086
1.1737105
1.1737083
1.173708
1.1737094
1.1737175
1.1737197
1.1737105
1.1737091
1.1737095
1.1737117
1.1737086
1.1737069
1.1737069
1.1737085
1.173719
1.1737167
1.1737077
1.1737062
1.1737064
1.1737085
1.1737065
1.1737043
1.1737039
1.1737053
1.1737135
1.1737099
1.1737026
1.1737014
1.1737019
1.1737044
1.1737015
1.1736988
1.1736981
1.1736993
1.1737056
1.1737003
1.1736948
1.1736939
1.1736947
1.1736976
1.1736925
1.1736895
1.1736886
1.1736894
1.1736939
1.1736861
1.1736823
1.1736816
1.1736826
1.1736857
1.173677
1.173674
1.1736729
1.1736735
1.1736765
1.173665
1.1736624
1.1736618
1.1736629
1.1736659
1.1736519
1.1736492
1.1736482
1.1736487
1.1736508
1.1736339
1.1736315
1.173631
1.1736319
1.1736343
1.1736124
1.1736105
1.17361
1.1736106
1.1736133
1.1735886
1.1735846
1.1735838
1.1735839
1.1735849
1.1735509
1.173551
1.1735515
1.1735527
1.1735589
1.1735235
1.1735133
1.1735115
1.17351
1.1735083
1.1734551
1.1734591
1.173462
1.1734648
1.1734808
1.1734301
1.1734045
1.1734003
1.1733952
1.1733879
1.1733028
1.173315
1.1733232
1.1733297
1.1733692
1.173297
1.1732364
1.1732266
1.1732141
1.1731951
1.1730595
1.1730876
1.1731061
1.1731206
1.1732105
1.1731086
1.1729777
1.1729568
1.1729302
1.1728902
1.1726822
1.1727371
1.1727739
1.1728033
1.1729875
1.1728456
1.1725926
1.1725524
1.1725028
1.1724299
1.1721287
1.1722223
1.1722871
1.1723404
1.1726761
1.1724786
1.1720457
1.1719769
1.1718948
1.1717785
1.1713876
1.1715274
1.171628
1.1717136
1.1722475
1.1719393
1.1713099
1.1712074
1.1710892
1.1709307
1.170444
1.1706104
1.1707408
1.1708586
1.1715774
1.1715572
1.1707224
1.170589
1.1704562
1.1703218
1.1700077
1.1700906
1.1702094
1.1703397
1.1711269
1.1685157
1.1670759
1.1668961
1.1667139
1.1664764
1.1673965
1.1678567
1.1681832
1.1685351
1.1707153
1.175258
1.1753673
1.1753168
1.1752438
1.1750267
1.1720585
1.1725052
1.1728555
1.1731831
1.1758511
1.1806641
1.1841742
1.1845572
1.1848511
1.1850776
1.1750471
1.1752749
1.1754444
1.1755832
1.1763448
1.173797
1.1726995
1.1725034
1.1723252
1.1719756
1.1728932
1.1730146
1.1730828
1.1731431
1.1727088
1.1677109
1.1651937
1.1648583
1.1645281
1.1641256
1.1699616
1.1700608
1.1701872
1.1703143
1.1709201
1.1715678
1.1708218
1.1706797
1.1705364
1.1703938
1.1704647
1.1706435
1.1707813
1.1709047
1.1715526
1.1719021
1.1713492
1.1712438
1.1711201
1.1709468
1.1714225
1.1715692
1.1716722
1.1717588
1.1722198
1.172457
1.1720919
1.1720238
1.1719419
1.1718238
1.1721763
1.1722684
1.1723314
1.1723829
1.1726603
1.1728328
1.1726289
1.172591
1.1725442
1.1724746
1.17272
1.1727709
1.1728048
1.1728318
1.1729777
1.1731003
1.1729984
1.1729796
1.1729558
1.1729199
1.1730804
1.1731052
1.1731215
1.1731344
1.1732042
1.1732917
1.1732447
1.173236
1.1732251
1.1732087
1.1733103
1.1733208
1.1733279
1.1733338
1.1733652
1.1734267
1.1734058
1.1734018
1.1733974
1.1733912
1.1734554
1.1734588
1.1734615
1.1734643
1.1734783
1.1735214
1.1735117
1.1735098
1.1735084
1.173507
1.1735482
1.1735483
1.173549
1.1735505
1.1735574
1.1735875
1.1735822
1.1735811
1.1735811
1.1735821
1.1736091
1.1736075
1.1736073
1.1736082
1.1736126
1.1736333
1.1736294
1.1736286
1.1736293
1.1736316
1.1736492
1.1736467
1.173646
1.1736468
1.1736506
1.1736649
1.1736609
1.1736601
1.173661
1.1736639
1.1736751
1.1736722
1.1736714
1.1736723
1.1736766
1.1736863
1.1736814
1.1736805
1.1736814
1.1736845
1.1736914
1.1736885
1.1736878
1.1736889
1.1736943
1.1737008
1.1736946
1.1736935
1.1736943
1.1736972
1.1737012
1.1736986
1.173698
1.1736993
1.1737061
1.1737105
1.173703
1.1737017
1.1737022
1.1737048
1.1737069
1.1737047
1.1737045
1.173706
1.1737141
1.1737173
1.1737086
1.173707
1.1737072
1.1737094
1.1737095
1.1737079
1.173708
1.1737097
1.1737196
1.1737219
1.1737127
1.1737111
1.1737112
1.1737132
1.1737126
1.1737105
1.1737103
1.1737117
1.1737197
1.1737167
1.1737091
1.1737077
1.1737081
1.1737105
1.1737083
1.1737058
1.1737052
1.1737065
1.1737132
1.173709
1.1737029
1.1737017
1.1737024
1.1737052
1.1737012
1.1736984
1.1736976
1.1736986
1.1737039
1.1736975
1.1736928
1.173692
1.1736929
1.173696
1.1736892
1.1736862
1.1736851
1.1736859
1.1736898
1.1736802
1.1736768
1.1736762
1.1736772
1.1736804
1.1736694
1.1736664
1.1736653
1.1736659
1.1736687
1.1736547
1.1736522
1.1736517
1.1736528
1.1736557
1.1736383
1.1736357
1.1736349
1.1736354
1.1736377
1.1736173
1.1736147
1.1736141
1.1736148
1.1736169
1.1735905
1.173589
1.1735887
1.1735894
1.1735926
1.173563
1.1735584
1.1735574
1.1735573
1.173558
1.173518
1.1735186
1.1735194
1.1735208
1.1735276
1.1734851
1.1734745
1.1734724
1.1734705
1.1734683
1.1734064
1.1734112
1.1734147
1.1734178
1.1734344
1.1733738
1.1733479
1.1733431
1.1733373
1.1733288
1.173231
1.173245
1.1732542
1.1732616
1.1733015
1.1732154
1.1731547
1.1731436
1.1731295
1.1731081
1.1729544
1.172986
1.1730068
1.1730233
1.1731131
1.1729923
1.1728626
1.1728387
1.172809
1.1727642
1.1725309
1.1725922
1.1726336
1.1726672
1.1728494
1.1726792
1.1724308
1.172385
1.1723293
1.1722481
1.1719136
1.1720176
1.17209
1.1721506
1.1724779
1.1722434
1.1718295
1.1717523
1.1716611
1.1715319
1.1710771
1.1712314
1.1713415
1.1714356
1.1719321
1.1715682
1.1709891
1.1708792
1.1707556
1.1705926
1.1704619
1.1705921
1.1707205
1.1708483
1.1715375
1.1711129
1.1705007
1.1703837
1.1702783
1.1702059
1.1660132
1.1662821
1.1664693
1.1666553
1.1680709
1.1701119
1.1678536
1.1674654
1.1671207
1.1666386
1.1801701
1.1801362
1.1800664
1.1799355
1.1783636
1.1741145
1.1724326
1.1722232
1.1720568
1.1717614
1.1767001
1.1750662
1.1763303
1.1756354
1.173718
1.1734877
1.173267
1.17293
1.1778959
1.1780145
1.1780452
1.1780215
1.1776808
1.1820994
1.1822387
1.182288
1.1822389
1.1819301
1.1789951
1.1796366
1.1795741
1.1794604
1.1791519
1.1743352
1.1747791
1.1750339
1.1753001
1.1765181
1.1790218
1.1790353
1.1789634
1.1788156
1.1785637
1.1797605
1.182788
1.1788351
1.1800098
1.173861
1.173884
1.1738376
1.173861
1.1738413
1.1738369
1.173845
1.1738391
1.1737117
1.1737098
1.1737098
1.1737113
1.1737203
1.1737184
1.1737105
1.173709
1.1737092
1.1737113
1.1737096
1.1737072
1.1737068
1.1737082
1.1737153
1.173712
1.1737057
1.1737044
1.173705
1.1737077
1.173705
1.1737021
1.1737013
1.1737024
1.1737079
1.1737028
1.173698
1.1736971
1.173698
1.1737011
1.1736961
1.1736929
1.1736919
1.1736926
1.1736965
1.1736887
1.1736855
1.1736849
1.173686
1.1736893
1.1736809
1.1736776
1.1736764
1.1736769
1.1736793
1.1736678
1.1736659
1.1736655
1.1736668
1.17367
1.1736564
1.1736533
1.1736521
1.1736524
1.1736538
1.1736369
1.1736357
1.1736353
1.1736364
1.1736392
1.1736183
1.1736159
1.1736149
1.1736153
1.1736166
1.1735921
1.1735901
1.1735896
1.1735902
1.1735921
1.1735599
1.1735589
1.1735588
1.1735595
1.1735626
1.1735273
1.1735217
1.1735206
1.17352
1.1735198
1.1734705
1.1734725
1.173474
1.1734758
1.1734848
1.1734344
1.1734192
1.1734164
1.1734132
1.1734088
1.1733316
1.1733397
1.1733451
1.1733495
1.1733738
1.1733018
1.1732631
1.1732562
1.1732475
1.1732341
1.1731118
1.1731324
1.1731458
1.1731563
1.1732153
1.173113
1.1730244
1.1730086
1.1729886
1.1729582
1.1727685
1.1728116
1.1728403
1.1728632
1.1729912
1.1728474
1.1726672
1.1726348
1.1725949
1.1725355
1.1722535
1.1723322
1.1723861
1.1724302
1.1726747
1.1724738
1.1721503
1.1720915
1.1720209
1.1719191
1.1715375
1.1716651
1.1717547
1.1718299
1.1722376
1.1719191
1.1714277
1.1713354
1.171227
1.1710755
1.1706051
1.1707584
1.1708786
1.1709867
1.1715594
1.1715542
1.1709086
1.1707856
1.1706632
1.1705501
1.1699325
1.1700093
1.170112
1.1702234
1.1707803
1.1677934
1.1656416
1.1653992
1.1651837
1.1649031
1.1726928
1.1728719
1.1729441
1.173019
1.1726638
1.1729318
1.1710938
1.1708259
1.1705726
1.17011
1.1768937
1.1770889
1.1772358
1.1773103
1.1777542
1.1794581
1.1793975
1.1793416
1.1791568
1.1767138
1.1771395
1.1773338
1.1775468
1.1780604
1.1781232
1.1781632
1.1779507
1.1777547
1.1773592
1.1874382
1.1871926
1.1869478
1.1865677
1.1833442
1.1823064
1.183965
1.1840561
1.1840729
1.1840581
1.1768673
1.1770663
1.1772177
1.1772955
1.1777484
1.1729231
1.1710872
1.1708204
1.1705676
1.1701037
1.1726864
1.1728658
1.1729368
1.1730108
1.1726513
1.1677721
1.1656275
1.1653861
1.1651722
1.164894
1.1699231
1.1699984
1.1701
1.1702104
1.1707607
1.171536
1.1708972
1.1707749
1.1706533
1.1705415
1.1705929
1.1707453
1.1708649
1.1709726
1.1715423
1.1719034
1.1714136
1.1713214
1.1712133
1.1710626
1.1715235
1.1716507
1.1717402
1.1718155
1.1722233
1.1724608
1.1721363
1.1720774
1.1720067
1.1719051
1.1722388
1.1723177
1.1723718
1.1724163
1.1726629
1.1728367
1.1726541
1.1726214
1.1725811
1.1725216
1.172755
1.1727986
1.1728277
1.1728509
1.1729815
1.1731044
1.1730133
1.1729971
1.1729767
1.1729459
1.1730998
1.1731209
1.1731348
1.1731457
1.1732074
1.1732945
1.1732535
1.1732462
1.1732371
1.1732234
1.1733213
1.1733299
1.1733357
1.1733405
1.1733671
1.1734284
1.1734109
1.1734078
1.1734043
1.1733996
1.1734616
1.173464
1.1734659
1.173468
1.1734793
1.173522
1.1735144
1.173513
1.1735121
1.1735116
1.1735517
1.1735511
1.1735513
1.1735524
1.1735574
1.1735872
1.1735834
1.1735826
1.173583
1.1735846
1.1736107
1.1736087
1.1736081
1.1736087
1.1736118
1.1736323
1.1736294
1.1736288
1.1736297
1.1736324
1.1736493
1.1736466
1.1736456
1.1736463
1.1736493
1.1736633
1.1736599
1.1736592
1.1736603
1.1736634
1.1736741
1.1736711
1.1736701
1.1736709
1.1736748
1.1736844
1.1736798
1.173679
1.17368
1.1736831
1.1736897
1.1736868
1.173686
1.173687
1.1736922
1.1736986
1.1736926
1.1736916
1.1736924
1.1736953
1.173699
1.1736964
1.1736959
1.1736971
1.1737039
1.1737082
1.1737007
1.1736993
1.1736998
1.1737024
1.1737044
1.1737022
1.173702
1.1737036
1.1737118
1.1737149
1.1737059
1.1737043
1.1737044
1.1737064
1.173708
1.1737064
1.1737066
1.1737084
1.1737178
1.1737202
1.1737094
1.1737077
1.1737077
1.1737094
1.173721
1.1737118
1.1737102
1.1737103
1.1737121
1.1737117
1.1737096
1.1737094
1.1737109
1.1737189
1.1737159
1.1737084
1.173707
1.1737074
1.1737097
1.1737076
1.1737051
1.1737045
1.1737058
1.1737124
1.1737082
1.1737022
1.173701
1.1737017
1.1737045
1.1737005
1.1736976
1.1736968
1.1736978
1.1737029
1.1736966
1.173692
1.1736911
1.173692
1.173695
1.1736881
1.1736851
1.1736841
1.1736848
1.1736886
1.173679
1.1736756
1.1736749
1.1736759
1.173679
1.1736676
1.1736647
1.1736637
1.1736643
1.1736672
1.1736531
1.1736503
1.1736497
1.1736506
1.1736534
1.1736357
1.1736334
1.1736326
1.1736332
1.1736359
1.1736152
1.1736121
1.1736114
1.1736119
1.1736138
1.1735868
1.1735857
1.1735856
1.1735864
1.1735902
1.1735604
1.1735548
1.1735536
1.1735531
1.1735533
1.1735124
1.1735135
1.1735148
1.1735164
1.1735244
1.1734818
1.1734692
1.1734667
1.1734643
1.1734612
1.1733979
1.1734038
1.173408
1.1734117
1.1734305
1.1733699
1.1733403
1.1733347
1.1733279
1.1733179
1.1732172
1.1732332
1.1732437
1.1732521
1.1732968
1.1732105
1.1731427
1.1731301
1.1731142
1.17309
1.1729306
1.1729661
1.1729895
1.1730079
1.1731072
1.1729862
1.172842
1.1728154
1.1727819
1.1727314
1.1724869
1.1725562
1.1726028
1.1726403
1.172842
1.1726716
1.1723948
1.1723434
1.1722806
1.1721885
1.1718365
1.1719548
1.1720367
1.1721047
1.1724689
1.1722343
1.1717712
1.1716844
1.1715811
1.1714339
1.1709577
1.1711318
1.171256
1.1713616
1.1719159
1.17157
1.1709158
1.1707919
1.1706535
1.1704739
1.1704004
1.1705446
1.1706889
1.1708317
1.1715818
1.1709359
1.1703189
1.1701905
1.1700628
1.1699616
1.1641322
1.1645366
1.1648682
1.1652046
1.1677243
1.1727216
1.1731471
1.1730851
1.1730151
1.1728917
1.1719745
1.1723255
1.172505
1.1727022
1.1738076
1.1763364
1.1755807
1.1754417
1.1752721
1.1750454
1.1850647
1.1848377
1.1845442
1.1841619
1.1806565
1.175839
1.1731765
1.1728496
1.1725002
1.1720557
1.1773427
1.1774658
1.1775144
1.1775089
1.1771938
1.1762682
1.1760796
1.1760135
1.1759112
1.1756789
1.1717393
1.1721609
1.1724045
1.1726796
1.1748091
1.1740998
1.1724032
1.1721928
1.172025
1.1717248
1.1734313
1.173714
1.1738641
1.1740083
1.175103
1.1756153
1.1736801
1.1734448
1.1732191
1.172876
1.1778421
1.1779663
1.1780031
1.1779853
1.1776714
1.1731403
1.1713763
1.1710762
1.1707549
1.1702526
1.1724305
1.1726331
1.1727281
1.1728233
1.1726677
1.1676837
1.1655253
1.1652804
1.1650605
1.1647529
1.1699194
1.1700028
1.1701115
1.1702247
1.170775
1.171541
1.1708945
1.1707698
1.1706452
1.1705298
1.1705854
1.1707396
1.1708605
1.1709689
1.1715388
1.1719038
1.1714157
1.1713235
1.1712153
1.1710643
1.1715274
1.1716541
1.1717434
1.1718184
1.1722238
1.1724615
1.1721389
1.1720803
1.17201
1.171909
1.1722422
1.1723206
1.1723743
1.1724185
1.1726633
1.1728374
1.1726559
1.1726234
1.1725835
1.1725244
1.1727571
1.1728003
1.1728292
1.1728523
1.172982
1.1731052
1.1730143
1.1729982
1.172978
1.1729474
1.1731009
1.1731219
1.1731357
1.1731466
1.173208
1.1732953
1.1732542
1.1732469
1.1732379
1.1732242
1.173322
1.1733305
1.1733363
1.1733411
1.1733678
1.173429
1.1734115
1.1734084
1.1734049
1.1734002
1.173462
1.1734643
1.1734663
1.1734685
1.1734797
1.1735225
1.173515
1.1735136
1.1735128
1.1735123
1.1735521
1.1735514
1.1735517
1.1735527
1.1735578
1.1735875
1.1735838
1.173583
1.1735834
1.1735849
1.173611
1.1736089
1.1736083
1.173609
1.173612
1.1736325
1.1736297
1.1736291
1.17363
1.1736326
1.1736494
1.1736466
1.1736457
1.1736464
1.1736494
1.1736635
1.1736601
1.1736595
1.1736605
1.1736636
1.1736743
1.1736713
1.1736703
1.1736711
1.173675
1.1736845
1.1736801
1.1736793
1.1736803
1.1736835
1.1736898
1.1736869
1.1736861
1.1736871
1.1736923
1.1736987
1.1736928
1.1736917
1.1736925
1.1736955
1.1736992
1.1736965
1.173696
1.1736972
1.1737039
1.1737083
1.1737008
1.1736995
1.1737
1.1737026
1.1737048
1.1737026
1.1737023
1.1737038
1.1737119
1.173715
1.1737062
1.1737046
1.1737048
1.1737069
1.1737086
1.1737069
1.1737069
1.1737086
1.1737179
1.1737199
1.1737091
1.1737074
1.1737074
1.1737089
1.1737207
1.1737117
1.1737103
1.1737105
1.1737125
1.1737118
1.1737096
1.1737093
1.1737108
1.1737186
1.1737156
1.1737082
1.1737068
1.1737073
1.1737097
1.1737076
1.173705
1.1737045
1.1737057
1.1737122
1.173708
1.1737022
1.1737011
1.1737019
1.1737048
1.1737009
1.1736979
1.173697
1.1736979
1.1737029
1.1736966
1.1736923
1.1736916
1.1736926
1.1736957
1.1736891
1.1736859
1.1736848
1.1736855
1.1736889
1.1736795
1.1736767
1.1736761
1.1736773
1.1736806
1.1736696
1.1736664
1.1736652
1.1736657
1.1736679
1.173654
1.1736522
1.1736518
1.1736529
1.173656
1.1736389
1.1736362
1.1736351
1.1736355
1.1736371
1.1736168
1.173615
1.1736145
1.1736154
1.1736178
1.1735913
1.1735896
1.1735891
1.1735897
1.1735921
1.1735627
1.173559
1.1735582
1.1735582
1.1735591
1.1735189
1.1735193
1.1735199
1.1735212
1.1735271
1.1734849
1.173475
1.1734732
1.1734714
1.1734694
1.1734075
1.1734121
1.1734154
1.1734183
1.173434
1.1733737
1.1733485
1.1733439
1.1733383
1.17333
1.1732323
1.1732458
1.1732547
1.1732618
1.173301
1.1732149
1.173155
1.1731443
1.1731307
1.17311
1.1729567
1.172987
1.1730071
1.1730229
1.1731117
1.1729902
1.172862
1.1728391
1.1728105
1.1727676
1.1725352
1.172594
1.1726337
1.1726658
1.1728449
1.1726731
1.1724296
1.1723857
1.1723322
1.1722541
1.1719213
1.172022
1.172092
1.1721502
1.1724702
1.1722356
1.1718309
1.1717562
1.1716673
1.171541
1.1710787
1.1712291
1.1713368
1.1714284
1.1719137
1.1715526
1.170983
1.1708753
1.1707553
1.1706021
1.1705475
1.1706614
1.1707849
1.1709086
1.1715508
1.1707902
1.170244
1.170132
1.170025
1.1699433
1.164781
1.1650865
1.1653049
1.165548
1.1676955
1.1726887
1.172854
1.1727613
1.1726693
1.1724712
1.1702975
1.1707899
1.1711056
1.1714019
1.173157
1.1744562
1.173374
1.1732182
1.173051
1.1727857
1.1700085
1.170343
1.1705585
1.1707932
1.1718028
1.1683266
1.1663506
1.166134
1.1659282
1.1656469
1.1698487
1.1699571
1.1700827
1.1702145
1.1710224
1.1715865
1.1707565
1.1706216
1.1704842
1.1703472
1.1704329
1.1706023
1.1707353
1.1708547
1.171579
1.1719341
1.1713023
1.1711988
1.1710786
1.1709161
1.1713817
1.1715249
1.1716271
1.1717135
1.1722489
1.1724822
1.1720477
1.1719782
1.171895
1.1717763
1.1721284
1.1722236
1.1722893
1.1723432
1.1726801
1.1728497
1.1725957
1.1725552
1.1725049
1.1724309
1.1726842
1.17274
1.1727773
1.1728069
1.1729918
1.1731128
1.1729813
1.1729602
1.1729333
1.1728928
1.1730623
1.1730909
1.1731096
1.1731242
1.1732146
1.1733007
1.1732399
1.17323
1.1732173
1.1731981
1.1733057
1.1733183
1.1733265
1.1733331
1.1733728
1.1734334
1.1734077
1.1734034
1.1733984
1.1733909
1.1734579
1.173462
1.173465
1.1734678
1.1734839
1.1735264
1.1735162
1.1735144
1.173513
1.1735114
1.1735537
1.1735538
1.1735544
1.1735557
1.1735618
1.1735915
1.1735875
1.1735867
1.1735869
1.1735881
1.1736152
1.1736134
1.1736128
1.1736135
1.1736161
1.1736365
1.1736344
1.1736339
1.1736349
1.1736375
1.1736548
1.173652
1.173651
1.1736515
1.1736535
1.1736675
1.1736651
1.1736647
1.1736659
1.173669
1.1736797
1.1736767
1.1736756
1.1736762
1.173679
1.1736886
1.1736849
1.1736843
1.1736854
1.1736887
1.173695
1.173692
1.1736911
1.1736919
1.1736963
1.1737027
1.1736974
1.1736965
1.1736974
1.1737005
1.1737039
1.1737012
1.1737006
1.1737017
1.1737079
1.1737121
1.173705
1.1737038
1.1737044
1.173707
1.1737086
1.1737064
1.1737061
1.1737075
1.1737155
1.1737187
1.1737099
1.1737084
1.1737087
1.173711
1.173711
1.1737092
1.1737091
1.1737106
1.1737209
1.1737204
1.1737106
1.1737091
1.1737092
1.1737111
1.1737109
1.1737088
1.1737086
1.17371
1.1737183
1.1737153
1.1737075
1.1737063
1.1737067
1.1737091
1.1737072
1.1737047
1.1737041
1.1737052
1.1737119
1.1737076
1.1737018
1.1737008
1.1737016
1.1737045
1.1737007
1.1736978
1.1736968
1.1736977
1.1737024
1.1736961
1.1736921
1.1736914
1.1736925
1.1736957
1.1736889
1.1736858
1.1736846
1.1736852
1.1736882
1.1736787
1.1736763
1.1736759
1.1736771
1.1736804
1.1736693
1.1736662
1.173665
1.1736654
1.173667
1.1736531
1.1736517
1.1736513
1.1736525
1.1736554
1.173638
1.1736355
1.1736345
1.1736348
1.173636
1.1736156
1.1736139
1.1736135
1.1736142
1.1736163
1.1735893
1.173588
1.1735877
1.1735883
1.1735909
1.1735614
1.1735566
1.1735557
1.1735554
1.1735557
1.1735137
1.173515
1.1735162
1.1735177
1.1735258
1.1734837
1.1734697
1.1734673
1.1734648
1.1734614
1.1733954
1.1734021
1.1734067
1.1734104
1.1734331
1.1733731
1.1733366
1.1733307
1.1733232
1.1733119
1.1732059
1.1732238
1.1732355
1.1732446
1.1733009
1.1732157
1.1731303
1.1731166
1.1730991
1.1730723
1.1729052
1.1729436
1.172969
1.1729889
1.1731136
1.1729941
1.172816
1.1727878
1.1727522
1.172699
1.1724479
1.1725191
1.1725675
1.1726064
1.1728516
1.172684
1.1723548
1.1723025
1.1722388
1.1721465
1.1717948
1.1719107
1.1719921
1.17206
1.1724861
1.1722567
1.1717251
1.1716397
1.1715389
1.1713978
1.1709262
1.1710881
1.1712077
1.1713108
1.1719419
1.1715971
1.1708603
1.1707402
1.1706063
1.1704339
1.1703042
1.1704505
1.1705905
1.1707278
1.1715875
1.171002
1.170177
1.1700468
1.1699227
1.1698196
1.1661985
1.1664426
1.1666218
1.166806
1.168383
1.1712476
1.1691886
1.1688218
1.1684594
1.1679807
1.1739468
1.1740988
1.1741627
1.1742082
1.174573
1.175571
1.1733451
1.1730967
1.1728809
1.1724924
1.1791895
1.1795421
1.1797874