/*--------------------------------*- C++ -*----------------------------------*\
  =========                 |
  \\      /  F ield         | OpenFOAM: The Open Source CFD Toolbox
   \\    /   O peration     | Website:  https://openfoam.org
    \\  /    A nd           | Version:  7
     \\/     M anipulation  |
\*---------------------------------------------------------------------------*/
FoamFile
{
    version     2.0;
    format      ascii;
    class       volScalarField;
    location    "180";
    object      T;
}
// * * * * * * * * * * * * * * * * * * * * * * * * * * * * * * * * * * * * * //

dimensions      [0 0 0 1 0 0 0];

internalField   nonuniform List<scalar> 
24789
(
299.88722
299.88958
299.89116
299.89221
299.898
299.8926
299.88625
299.8851
299.88352
299.88127
299.876
299.87812
299.8797
299.88093
299.88784
299.88369
299.87629
299.87497
299.87343
299.87146
299.86773
299.8695
299.871
299.87237
299.88019
299.87741
299.8693
299.86788
299.86647
299.86494
299.86312
299.86438
299.86568
299.86712
299.87542
299.87429
299.86594
299.86452
299.86336
299.86244
299.8629
299.86344
299.86443
299.86583
299.87407
299.87482
299.86687
299.86555
299.86479
299.8647
299.86788
299.86746
299.86795
299.86915
299.87651
299.87959
299.87293
299.87189
299.87174
299.87277
299.87938
299.87768
299.87743
299.87826
299.88382
299.88936
299.88531
299.8848
299.88555
299.8881
299.89909
299.89555
299.89418
299.89431
299.89631
299.90474
299.90553
299.90597
299.90814
299.91296
299.93011
299.92367
299.92046
299.91928
299.91467
299.92609
299.93594
299.93818
299.94281
299.95146
299.97776
299.96624
299.95974
299.95608
299.93899
299.9532
299.98002
299.98564
299.99464
300.00989
300.04809
300.0283
300.01619
300.00805
299.96842
299.98425
300.03998
300.0513
300.06726
300.09248
300.1422
300.11083
300.09038
300.07524
299.99986
300.01456
300.11283
300.13243
300.15798
300.19612
300.25173
300.20673
300.17579
300.15139
300.02796
300.03921
300.18854
300.21789
300.25421
300.30582
300.3535
300.29622
300.255
300.22102
300.04714
300.05057
300.24492
300.28278
300.32797
300.38952
300.40562
300.34321
300.29614
300.25581
300.04693
300.03234
300.24858
300.28918
300.33402
300.38883
300.32995
300.29598
300.25868
300.22111
300.01199
299.95705
300.12327
300.15313
300.18121
300.19293
299.87353
299.86123
299.8499
299.84038
299.79977
299.72784
299.75913
299.76616
299.7776
299.79911
299.85272
299.83383
299.81954
299.8082
299.75136
299.72925
299.74387
299.74879
299.75659
299.76913
299.76848
299.74236
299.73507
299.73443
299.70128
299.72431
299.75655
299.76169
299.77279
299.80323
299.86363
299.83425
299.8195
299.81103
299.75732
299.74147
299.79499
299.80535
299.82067
299.8474
299.99164
299.96885
299.94654
299.92707
299.82111
299.95597
300.16912
300.20227
300.23454
300.25737
300.37304
300.33486
300.29538
300.25661
300.00832
300.02937
300.28397
300.32526
300.371
300.42762
300.43862
300.37931
300.33247
300.29166
300.04415
300.04808
300.27981
300.3183
300.36352
300.42347
300.38821
300.33126
300.28939
300.25446
300.04497
300.03758
300.22044
300.25114
300.2887
300.34099
300.28645
300.23989
300.20725
300.18119
300.02661
300.01334
300.13969
300.16116
300.18881
300.22923
300.17227
300.13814
300.11542
300.09836
299.99844
299.98284
300.059
300.07215
300.09038
300.11855
300.0695
300.04691
300.03278
300.02306
299.96721
299.95218
299.9914
299.99833
300.00907
300.02678
299.99042
299.97688
299.96901
299.96432
299.93809
299.92533
299.94169
299.94472
299.95043
299.96067
299.93652
299.92887
299.92486
299.9231
299.91402
299.90421
299.90788
299.90876
299.91154
299.91727
299.90182
299.8976
299.8958
299.89562
299.8959
299.88907
299.88586
299.88557
299.88665
299.8897
299.88017
299.87809
299.87762
299.87829
299.88366
299.87957
299.87261
299.87168
299.87171
299.87301
299.86776
299.86712
299.86748
299.86862
299.8767
299.875
299.86613
299.86485
299.86419
299.86426
299.86225
299.86272
299.86365
299.86502
299.87436
299.87469
299.86513
299.86373
299.86263
299.86188
299.86244
299.8636
299.86487
299.8663
299.87591
299.87799
299.86849
299.86707
299.86568
299.86421
299.86703
299.86874
299.87022
299.87161
299.88083
299.88438
299.87558
299.87425
299.8727
299.87078
299.8754
299.87748
299.87905
299.8803
299.88858
299.89338
299.8857
299.88452
299.88292
299.88069
299.88684
299.88918
299.89074
299.8918
299.89878
299.893
299.88487
299.88363
299.88196
299.87963
299.87431
299.87647
299.87811
299.87942
299.88808
299.88384
299.8747
299.87332
299.87172
299.86972
299.86593
299.86772
299.86926
299.87071
299.88027
299.87742
299.86758
299.8661
299.86465
299.86311
299.86127
299.86252
299.86386
299.86535
299.87533
299.87408
299.86413
299.86266
299.8615
299.8607
299.86082
299.86146
299.86248
299.86393
299.87372
299.87432
299.86495
299.86359
299.86283
299.86277
299.86612
299.86563
299.8661
299.86732
299.87594
299.87873
299.87119
299.87016
299.87007
299.87121
299.87816
299.87627
299.87592
299.8767
299.88273
299.88801
299.88408
299.88367
299.8846
299.88744
299.89926
299.89528
299.89363
299.89357
299.89466
299.90278
299.90561
299.90634
299.90894
299.91442
299.93332
299.92594
299.92211
299.9205
299.91235
299.92341
299.93879
299.94165
299.94715
299.95712
299.98649
299.97324
299.96556
299.96104
299.93589
299.94966
299.98768
299.99442
300.0049
300.02229
300.06422
300.04205
300.0282
300.01872
299.96433
299.97957
300.05377
300.06658
300.08436
300.1119
300.16359
300.13042
300.10834
300.09176
299.99468
300.00904
300.13124
300.15195
300.17863
300.21758
300.27111
300.22661
300.19532
300.17033
300.02173
300.03226
300.20694
300.23614
300.27185
300.32145
300.36453
300.31084
300.27125
300.2382
300.03925
300.04202
300.2611
300.29734
300.33993
300.39625
300.40987
300.35351
300.30945
300.27116
300.03795
300.02275
300.26262
300.30108
300.34331
300.39482
300.34055
300.3072
300.27166
300.23559
299.99914
299.94874
300.15521
300.18654
300.21588
300.23009
299.98307
299.96024
299.93797
299.91938
299.82378
299.68879
299.69549
299.70005
299.7132
299.74829
299.97529
299.93018
299.90385
299.88501
299.76429
299.80811
299.94917
299.97007
299.99678
300.03818
299.76174
299.73318
299.72487
299.72538
299.74122
299.83758
300.02629
300.06055
300.10216
300.1585
299.95281
299.89889
299.87126
299.85346
299.75561
299.68984
299.6809
299.68262
299.69224
299.72413
299.94027
299.92351
299.90604
299.89198
299.83414
299.96467
300.14304
300.17363
300.20211
300.21477
300.33708
300.29969
300.26098
300.22314
300.01046
300.03152
300.24549
300.28561
300.33148
300.39165
300.39464
300.33387
300.28792
300.24907
300.04545
300.04879
300.23538
300.27115
300.3142
300.37322
300.33531
300.28097
300.24222
300.21053
300.04542
300.03782
300.17876
300.20592
300.23976
300.28815
300.23621
300.19432
300.16563
300.14312
300.0266
300.01292
300.10608
300.1242
300.14795
300.18346
300.13209
300.10272
300.08363
300.06959
299.99773
299.98197
300.03516
300.04569
300.06069
300.08448
300.04149
300.02273
300.01134
300.00381
299.96617
299.95101
299.97623
299.98139
299.98985
300.00437
299.9729
299.96193
299.95586
299.95257
299.93682
299.92401
299.9327
299.93465
299.93897
299.9472
299.92621
299.92009
299.91715
299.91622
299.91266
299.90289
299.90267
299.90291
299.90487
299.90943
299.8958
299.89249
299.89133
299.89164
299.8946
299.88782
299.88284
299.88216
299.88274
299.88508
299.87659
299.87507
299.875
299.87599
299.88244
299.87834
299.87084
299.86967
299.86937
299.87022
299.86556
299.8653
299.86593
299.86727
299.87549
299.87384
299.86512
299.86368
299.86279
299.86253
299.86092
299.86164
299.86275
299.86425
299.8732
299.87353
299.86454
299.86302
299.86178
299.8608
299.86156
299.86294
299.86434
299.86586
299.87478
299.87687
299.86817
299.86668
299.86517
299.86353
299.86649
299.86835
299.86992
299.87137
299.87973
299.88332
299.8754
299.87402
299.87239
299.87032
299.87499
299.8772
299.87884
299.88014
299.88757
299.89251
299.88559
299.88437
299.88268
299.8803
299.88046
299.88278
299.88441
299.8856
299.89222
299.88738
299.88028
299.879
299.87739
299.87522
299.87068
299.87269
299.87427
299.87562
299.8832
299.8797
299.87172
299.87031
299.86879
299.86698
299.86413
299.86571
299.86716
299.86861
299.87692
299.87491
299.86641
299.86494
299.86361
299.86232
299.86151
299.86249
299.8637
299.86518
299.87375
299.8735
299.86499
299.86355
299.86252
299.86191
299.86356
299.86374
299.86456
299.86594
299.87419
299.87581
299.86813
299.86688
299.86634
299.86669
299.87137
299.87045
299.87068
299.87179
299.87881
299.88295
299.87699
299.8761
299.87628
299.8779
299.88635
299.88394
299.88329
299.88389
299.88838
299.8952
299.89268
299.89249
299.89377
299.8972
299.91072
299.90608
299.90404
299.90371
299.90349
299.91323
299.91716
299.91824
299.92133
299.92761
299.94852
299.94009
299.93563
299.93354
299.92446
299.93714
299.95329
299.95681
299.96316
299.97447
300.00599
299.99104
299.98227
299.97685
299.95112
299.96608
300.00433
300.01227
300.02415
300.04362
300.08703
300.06231
300.0467
300.03568
299.98165
299.99706
300.07013
300.08491
300.10492
300.1357
300.18815
300.15085
300.12589
300.10681
300.01152
300.02476
300.14432
300.16811
300.19833
300.2424
300.29494
300.24447
300.20904
300.18049
300.03595
300.04384
300.212
300.24507
300.28532
300.34148
300.37677
300.31635
300.27221
300.23536
300.04728
300.04382
300.24593
300.28524
300.33138
300.39293
300.37679
300.3223
300.2781
300.23848
300.02944
300.00816
300.21087
300.24761
300.28482
300.31862
300.18222
300.16892
300.1429
300.11479
299.95614
299.80181
299.84197
299.8519
299.86441
299.87837
299.74305
299.71899
299.70896
299.70521
299.69907
299.75818
299.83582
299.84991
299.86806
299.89428
299.84745
299.83026
299.81937
299.81227
299.76011
299.70076
299.69338
299.69264
299.7026
299.7444
299.76863
299.70894
299.69206
299.67595
299.65944
299.95651
299.93408
299.90844
299.88801
299.80373
299.83331
299.88729
299.89435
299.89911
299.8893
300.02341
300.00087
299.97683
299.95521
299.82934
299.82567
299.97042
299.99487
300.02492
300.07208
299.88225
299.84067
299.82126
299.80983
299.75019
299.70598
299.71423
299.71895
299.73062
299.75871
299.92484
299.91341
299.89983
299.8878
299.83363
299.96728
300.13229
300.16031
300.18559
300.19478
300.31701
300.28478
300.2498
300.21465
300.01357
300.03387
300.23826
300.27596
300.31783
300.36936
300.38246
300.32466
300.2811
300.24393
300.04754
300.05064
300.23208
300.26667
300.3081
300.36468
300.32912
300.27684
300.23933
300.2085
300.04713
300.0394
300.17765
300.20418
300.2371
300.28393
300.23342
300.19263
300.16461
300.14255
300.02798
300.01418
300.10592
300.12371
300.14699
300.18173
300.13114
300.10232
300.08356
300.06974
299.99889
299.983
300.03557
300.04595
300.06072
300.08412
300.04161
300.02311
300.01187
300.00442
299.96711
299.95184
299.97697
299.98209
299.99048
300.00484
299.97363
299.96273
299.95667
299.95338
299.93754
299.92463
299.93351
299.93549
299.93983
299.94806
299.92709
299.92094
299.91797
299.91699
299.9132
299.90336
299.90337
299.90366
299.90566
299.91028
299.89658
299.89321
299.892
299.89226
299.89499
299.88816
299.88339
299.88274
299.88337
299.88577
299.87719
299.87563
299.87551
299.87646
299.88273
299.87859
299.87126
299.87011
299.86985
299.87074
299.86601
299.86572
299.86632
299.86763
299.87569
299.87401
299.86543
299.86402
299.86316
299.86295
299.8613
299.86196
299.86304
299.86452
299.87336
299.87369
299.86478
299.86328
299.86204
299.86103
299.86186
299.8632
299.86458
299.86609
299.87492
299.87701
299.86839
299.86691
299.86543
299.86381
299.86675
299.86859
299.87015
299.87158
299.87986
299.88344
299.87559
299.87422
299.87262
299.87058
299.87523
299.87741
299.87904
299.88032
299.88768
299.89262
299.88576
299.88454
299.88288
299.88052
299.8802
299.88246
299.88409
299.8853
299.89323
299.88837
299.87991
299.87862
299.87702
299.8749
299.87032
299.87226
299.87383
299.87519
299.88416
299.88061
299.87125
299.86984
299.86834
299.8666
299.86377
299.86526
299.86668
299.86813
299.87777
299.87571
299.86596
299.86451
299.86322
299.86204
299.86139
299.86222
299.86335
299.86479
299.87449
299.87417
299.86473
299.86335
299.86243
299.862
299.86395
299.8639
299.86459
299.86588
299.87482
299.87652
299.86839
299.86726
299.8669
299.86752
299.87279
299.87151
299.87149
299.87243
299.87941
299.88353
299.87817
299.87751
299.87802
299.88011
299.88966
299.8866
299.88551
299.8858
299.88893
299.89574
299.89562
299.89585
299.89772
299.902
299.91751
299.91172
299.9089
299.90799
299.90403
299.91381
299.92329
299.92515
299.92926
299.93703
299.96127
299.95093
299.94513
299.94202
299.92509
299.93787
299.96478
299.96961
299.97765
299.99138
300.02781
300.00994
299.99907
299.99201
299.95194
299.96699
300.02372
300.03364
300.04798
300.07081
300.11965
300.09134
300.07298
300.05968
299.98256
299.99809
300.0988
300.11604
300.1389
300.17315
300.22915
300.18889
300.16125
300.13972
300.01279
300.02592
300.18048
300.20653
300.23906
300.28524
300.33796
300.28648
300.24932
300.21884
300.03665
300.04393
300.25167
300.28624
300.32751
300.38328
300.41633
300.35801
300.31364
300.27574
300.0467
300.04279
300.28616
300.32614
300.37189
300.43035
300.41108
300.35974
300.31643
300.27656
300.02751
300.00574
300.24749
300.28465
300.32153
300.35532
300.23819
300.22137
300.1917
300.16029
299.9557
299.81983
299.91642
299.93394
299.95384
299.97422
299.812
299.77753
299.76207
299.75392
299.72204
299.74842
299.80749
299.81957
299.84003
299.87995
299.87139
299.83482
299.82024
299.81248
299.75778
299.77318
299.88783
299.90722
299.93019
299.96237
299.70351
299.69864
299.70151
299.70776
299.74022
299.7495
299.79442
299.804
299.81613
299.83276
299.80929
299.78721
299.77395
299.76559
299.72304
299.78991
299.83539
299.8458
299.85777
299.87034
300.19092
300.1775
300.14856
300.1189
299.95511
300.01065
300.21838
300.25594
300.2933
300.32796
300.388
300.33314
300.28836
300.24783
300.03164
300.04641
300.256
300.29644
300.34362
300.40606
300.39062
300.32889
300.28352
300.24548
300.05004
300.04668
300.22158
300.25578
300.29729
300.35497
300.30699
300.25505
300.21852
300.18902
300.03882
300.02766
300.15175
300.17632
300.20748
300.25282
300.19686
300.15852
300.13285
300.11317
300.01434
299.99971
300.07549
300.09074
300.11135
300.14295
300.09299
300.06764
300.05161
300.04025
299.98418
299.96836
300.00823
300.01645
300.02868
300.04865
300.01026
299.99491
299.98587
299.98022
299.95313
299.93891
299.95618
299.95991
299.96651
299.97818
299.95168
299.94294
299.93828
299.93603
299.92601
299.9146
299.91929
299.92051
299.92378
299.93034
299.91303
299.90815
299.90597
299.90553
299.90468
299.89627
299.89428
299.89418
299.89559
299.89921
299.88809
299.8855
299.88475
299.88528
299.88932
299.88378
299.8782
299.87739
299.87766
299.87942
299.87271
299.87166
299.87181
299.87286
299.87954
299.87645
299.86907
299.86787
299.8674
299.86786
299.86459
299.86468
299.86544
299.86678
299.87476
299.874
299.86572
299.86432
299.86334
299.86281
299.86231
299.86323
299.86439
299.86583
299.87421
299.87534
299.867
299.86556
299.86425
299.863
299.86479
299.86633
299.86775
299.86918
299.87733
299.88011
299.87226
299.87087
299.86937
299.86758
299.87131
299.87329
299.87484
299.87616
299.8836
299.88776
299.88081
299.87956
299.87797
299.87583
299.88114
299.8834
299.88498
299.88613
299.89253
299.89221
299.88557
299.88436
299.88271
299.88037
299.87511
299.87729
299.87891
299.8802
299.88736
299.88317
299.87555
299.87419
299.8726
299.87057
299.86683
299.86866
299.8702
299.87162
299.87966
299.87687
299.86851
299.86704
299.86558
299.86399
299.8621
299.86343
299.86479
299.86628
299.87486
299.87369
299.86502
299.86353
299.8623
299.8613
299.86162
299.86227
299.86334
299.86481
299.87342
299.8741
299.8657
299.8643
299.86345
299.86323
299.86623
299.86596
299.86656
299.86785
299.8757
299.87867
299.87143
299.87028
299.87001
299.87086
299.8772
299.8757
299.87561
299.87657
299.8828
299.8882
299.88332
299.88265
299.88322
299.88551
299.89602
299.89281
299.89168
299.89199
299.89497
299.9032
299.90276
299.90296
299.90484
299.90925
299.92562
299.9197
299.91686
299.91598
299.91288
299.92404
299.93195
299.93381
299.93797
299.94595
299.97094
299.9603
299.95442
299.95124
299.93662
299.95045
299.97408
299.97907
299.98726
300.00136
300.03733
300.01909
300.00803
300.00072
299.96524
299.98057
300.03084
300.04106
300.05561
300.07876
300.12473
300.09613
300.07756
300.06391
299.99585
300.01004
300.09872
300.11637
300.13949
300.17405
300.22454
300.18397
300.1561
300.13417
300.02294
300.03378
300.16807
300.1944
300.22705
300.27347
300.31682
300.26526
300.22822
300.19773
300.04134
300.04453
300.21963
300.25368
300.29442
300.3501
300.36623
300.30893
300.2661
300.22965
300.0409
300.02608
300.22273
300.25981
300.30133
300.35354
300.30315
300.26885
300.23306
300.19789
300.00315
299.94815
300.11131
300.14069
300.1688
300.18287
299.90099
299.88394
299.86847
299.85572
299.80369
299.68008
299.68531
299.68892
299.69974
299.7261
299.94156
299.91135
299.88928
299.87036
299.75899
299.80372
299.90687
299.92287
299.93935
299.95251
299.81466
299.8296
299.80127
299.73297
299.71825
299.71673
299.72108
299.73978
299.94595
299.89599
299.87143
299.85588
299.7651
299.754
299.74524
299.74552
299.75157
299.77668
299.8181
299.83811
299.84408
299.85057
299.85532
299.8705
299.88033
299.87616
299.8681
299.83042
299.81239
299.93748
299.96942
300.01231
300.07737
299.83488
299.83257
299.87344
299.8689
299.99405
299.99651
299.99073
299.99405
299.98611
299.98632
299.98871
299.98848
299.88037
299.88272
299.8844
299.88562
299.89254
299.88766
299.88026
299.87896
299.87732
299.87512
299.87053
299.87258
299.87419
299.87556
299.88345
299.87992
299.87163
299.87019
299.86864
299.86679
299.86391
299.86553
299.86702
299.8685
299.8771
299.87507
299.86629
299.86479
299.86343
299.86208
299.86139
299.86234
299.86356
299.86506
299.87388
299.87362
299.86487
299.86341
299.86235
299.86168
299.86336
299.86357
299.86443
299.86584
299.87432
299.87606
299.86812
299.86684
299.86627
299.86659
299.87129
299.8704
299.87065
299.87179
299.87899
299.88315
299.87705
299.87613
299.87628
299.87786
299.88636
299.88398
299.88336
299.88399
299.8886
299.89546
299.89288
299.89265
299.89389
299.89727
299.91082
299.90626
299.90427
299.90399
299.90383
299.9137
299.91756
299.91856
299.92155
299.92766
299.94837
299.94026
299.93598
299.93402
299.92512
299.93805
299.9538
299.95709
299.96311
299.9739
300.00469
299.99056
299.98229
299.97724
299.95235
299.96772
300.00453
300.0119
300.023
300.04123
300.08303
300.06011
300.04563
300.03544
299.98371
299.99976
300.06925
300.08281
300.10121
300.12943
300.17881
300.14498
300.12227
300.10491
300.01516
300.02917
300.14087
300.16237
300.18965
300.2293
300.27777
300.23254
300.20069
300.17499
300.04071
300.04865
300.20445
300.23418
300.27028
300.3205
300.35255
300.2987
300.25921
300.22613
300.05219
300.04916
300.23557
300.27073
300.31172
300.36588
300.34753
300.3011
300.26249
300.22731
300.03517
300.01623
300.20141
300.23382
300.2658
300.2925
300.16597
300.15769
300.13551
300.11051
299.96326
299.81126
299.85664
299.86658
299.87852
299.8908
299.85313
299.82914
299.81381
299.80331
299.74957
299.75745
299.81178
299.82372
299.84182
299.87587
299.90874
299.85074
299.82933
299.81895
299.74961
299.9602
299.97853
299.99615
299.98764
300.22103
300.20404
300.15486
300.11292
299.85214
299.83294
299.87816
299.88897
299.89911
299.89929
300.13917
300.09295
300.05068
300.01198
299.84581
299.86158
300.10025
300.13906
300.17609
300.21224
299.92237
299.86579
299.84199
299.82906
299.74936
299.75665
299.8121
299.82385
299.84262
299.88187
299.85318
299.8274
299.81186
299.80151
299.74887
299.81058
299.85469
299.86445
299.87635
299.88906
300.16347
300.15565
300.13377
300.10903
299.96314
300.01609
300.19994
300.23209
300.26377
300.29008
300.34535
300.29923
300.26088
300.22594
300.03498
300.04902
300.23442
300.26939
300.31017
300.36408
300.35112
300.2975
300.25819
300.22527
300.0521
300.0486
300.20385
300.23348
300.26947
300.31953
300.2771
300.23199
300.20024
300.17462
300.04066
300.02918
300.14074
300.16222
300.18947
300.22906
300.17885
300.14503
300.12235
300.10499
300.01517
299.9998
300.06943
300.08303
300.10147
300.12973
300.08337
300.06037
300.04587
300.03566
299.98375
299.96779
300.00477
300.01217
300.02334
300.04167
300.00504
299.99081
299.9825
299.97744
299.95241
299.93808
299.9539
299.95723
299.96331
299.9742
299.94854
299.94033
299.93602
299.93405
299.92507
299.9136
299.9175
299.91852
299.92155
299.92774
299.91079
299.90618
299.90418
299.90389
299.90369
299.89532
299.89277
299.89256
299.89382
299.89724
299.88631
299.8839
299.88326
299.88389
299.88844
299.88302
299.87697
299.87607
299.87624
299.87786
299.87134
299.87042
299.87065
299.87178
299.8789
299.87602
299.86816
299.86689
299.86635
299.8667
299.86354
299.86372
299.86456
299.86595
299.87432
299.87367
299.86504
299.8636
299.86256
299.8619
299.86176
299.86265
299.86384
299.86531
299.87401
299.87526
299.86662
299.86515
299.8638
299.86248
299.86442
299.86601
299.86746
299.86891
299.87735
299.88022
299.87211
299.87071
299.86918
299.86737
299.87122
299.87322
299.87479
299.87612
299.88379
299.88802
299.88089
299.87963
299.87803
299.87586
299.88126
299.88354
299.88513
299.88628
299.89284
299.89827
299.89239
299.89135
299.88976
299.88737
299.89239
299.88584
299.88466
299.88304
299.88075
299.87551
299.87767
299.87927
299.88054
299.88762
299.8835
299.87595
299.87461
299.87305
299.87106
299.86736
299.86916
299.87068
299.87209
299.88003
299.87729
299.86905
299.86761
299.86618
299.86462
299.86283
299.86411
299.86544
299.86691
299.87533
299.87422
299.86576
299.86431
299.86313
299.86219
299.86267
299.86324
299.86425
299.86567
299.87403
299.87479
299.86674
299.8654
299.86463
299.86451
299.86773
299.86733
299.86783
299.86905
299.87647
299.87956
299.87284
299.87179
299.87164
299.87265
299.87928
299.87758
299.87735
299.87818
299.88377
299.88926
299.8852
299.88468
299.88543
299.88798
299.89896
299.89541
299.89404
299.89416
299.89614
299.90448
299.90533
299.90577
299.90795
299.91277
299.92983
299.92339
299.92018
299.91899
299.9143
299.92563
299.93555
299.9378
299.94242
299.95105
299.97718
299.96569
299.9592
299.95553
299.93839
299.95252
299.97937
299.98498
299.99396
300.00919
300.04731
300.02754
300.01542
300.00728
299.96764
299.98338
300.03912
300.05045
300.06642
300.09168
300.14154
300.11007
300.08956
300.07436
299.99878
300.01337
300.11204
300.13172
300.15739
300.19572
300.25177
300.20646
300.17532
300.15077
300.02659
300.03776
300.18814
300.2177
300.25431
300.30635
300.35456
300.29679
300.25522
300.22094
300.04554
300.049
300.24505
300.28321
300.32872
300.39064
300.40628
300.34366
300.29634
300.25576
300.04524
300.03066
300.24778
300.28848
300.33345
300.38855
300.32843
300.29362
300.25609
300.21834
300.0094
299.95393
300.1186
300.1484
300.17748
300.19102
299.87015
299.85762
299.84558
299.83501
299.78837
299.72128
299.7649
299.77342
299.78648
299.80827
299.82985
299.81364
299.8017
299.79252
299.74887
299.73716
299.70522
299.69884
299.69515
299.69818
299.94879
299.91933
299.89708
299.8782
299.76659
299.75349
299.80275
299.80971
299.82319
299.85786
300.04511
300.00167
299.97384
299.95168
299.81856
299.83122
300.01229
300.04465
300.08398
300.13741
300.03786
299.99652
299.96943
299.94811
299.8055
299.80223
299.90822
299.92464
299.94172
299.95593
299.86859
299.84773
299.83409
299.82435
299.76214
299.73541
299.73316
299.73434
299.74137
299.76313
299.97195
299.91715
299.88905
299.87058
299.76638
299.76399
299.83907
299.85552
299.88058
299.92826
299.87526
299.84046
299.8207
299.80796
299.74773
299.81079
299.86495
299.87706
299.89237
299.91132
300.1814
300.16957
300.14497
300.11825
299.96322
300.01588
300.20661
300.2402
300.27362
300.30244
300.35347
300.30555
300.26601
300.23014
300.03479
300.0489
300.2368
300.27231
300.31381
300.36887
300.35348
300.29926
300.25956
300.22636
300.05186
300.04833
300.20418
300.23393
300.27009
300.32041
300.27713
300.23193
300.20012
300.17446
300.0403
300.02876
300.14033
300.1618
300.18905
300.22865
300.17825
300.14447
300.12181
300.10447
300.01471
299.99934
300.06889
300.08247
300.10087
300.1291
300.08274
300.05978
300.04531
300.03512
299.98328
299.96733
300.00425
300.01163
300.02277
300.04107
300.00447
299.99028
299.98199
299.97693
299.95194
299.93763
299.95343
299.95675
299.96282
299.97368
299.94805
299.93986
299.93557
299.9336
299.92464
299.91323
299.91712
299.91814
299.92116
299.92733
299.91042
299.90582
299.90383
299.90354
299.90337
299.89505
299.8925
299.89228
299.89354
299.89694
299.88607
299.88366
299.88303
299.88366
299.88822
299.88283
299.87678
299.87588
299.87605
299.87766
299.87116
299.87024
299.87048
299.87161
299.87873
299.87588
299.86801
299.86674
299.8662
299.86655
299.86336
299.86356
299.86441
299.8658
299.8742
299.87357
299.86493
299.86348
299.86243
299.86176
299.86166
299.86254
299.86374
299.86521
299.87393
299.87519
299.86654
299.86507
299.86372
299.86239
299.86434
299.86593
299.86738
299.86884
299.87729
299.88016
299.87204
299.87063
299.8691
299.86728
299.87113
299.87314
299.87471
299.87605
299.88375
299.88799
299.88082
299.87956
299.87796
299.87579
299.88119
299.88346
299.88506
299.88621
299.8928
299.89821
299.89225
299.89118
299.88958
299.88719
299.89251
299.88562
299.8844
299.88273
299.88038
299.87508
299.87728
299.87892
299.88021
299.88761
299.88339
299.87552
299.87415
299.87255
299.87051
299.86671
299.86856
299.87011
299.87155
299.87984
299.87701
299.86841
299.86694
299.86546
299.86384
299.86195
299.86329
299.86466
299.86616
299.87495
299.87375
299.86491
299.86342
299.86221
299.8613
299.86139
299.86212
299.8632
299.86468
299.87346
299.87414
299.86561
299.86421
299.86335
299.86314
299.86627
299.86597
299.86656
299.86785
299.87585
299.87876
299.87152
299.87039
299.87014
299.87103
299.87753
299.87597
299.87583
299.87676
299.8829
299.88835
299.8837
299.88309
299.88372
299.88612
299.89696
299.8936
299.89237
299.89261
299.89521
299.90358
299.90371
299.90402
299.90603
299.91062
299.92741
299.9213
299.91832
299.91732
299.91344
299.92487
299.93378
299.93576
299.94007
299.94822
299.97361
299.96285
299.95683
299.95355
299.9378
299.95211
299.97695
299.98201
299.99027
300.0044
300.04065
300.02251
300.01146
300.00414
299.96744
299.98342
300.03489
300.04504
300.05947
300.0823
300.12832
300.1003
300.08203
300.06856
299.99944
300.01487
300.10407
300.12134
300.14392
300.17756
300.22766
300.18831
300.16122
300.13988
300.02884
300.04045
300.17391
300.19947
300.23114
300.27614
300.31898
300.26897
300.23303
300.20345
300.04834
300.05196
300.22543
300.25845
300.2979
300.35174
300.36619
300.31173
300.27061
300.23539
300.04876
300.03473
300.22812
300.2636
300.30262
300.34975
300.29686
300.26917
300.23648
300.20343
300.01528
299.96247
300.11367
300.13963
300.16324
300.17359
299.90021
299.88347
299.86958
299.85852
299.80931
299.74594
299.80036
299.81181
299.82977
299.86165
299.90859
299.86478
299.84232
299.82786
299.76205
299.77091
299.82984
299.83925
299.8502
299.86694
299.86614
299.83709
299.81936
299.80646
299.73704
299.81554
299.90314
299.91992
299.94018
299.96351
300.24131
300.22094
300.1905
300.15873
299.95325
300.00697
300.25313
300.29145
300.33006
300.36531
300.42283
300.36909
300.32416
300.2831
300.0284
300.04331
300.29231
300.33342
300.38068
300.44135
300.42675
300.36608
300.32027
300.28132
300.04693
300.04383
300.25629
300.2918
300.33438
300.39227
300.34503
300.29176
300.25353
300.2223
300.03622
300.02524
300.18285
300.20949
300.24288
300.29049
300.23273
300.19139
300.16313
300.14117
300.01191
299.99717
300.09951
300.11706
300.1404
300.17544
300.12096
300.09209
300.07342
300.05991
299.98159
299.96603
300.02363
300.0337
300.0483
300.07154
300.02808
300.0099
299.99887
299.99172
299.95104
299.93705
299.96433
299.96923
299.97741
299.99138
299.96104
299.95053
299.94466
299.94152
299.92436
299.91316
299.92273
299.92461
299.92879
299.93667
299.91707
299.91122
299.90837
299.90746
299.90344
299.8952
299.89508
299.89532
299.8972
299.90152
299.88918
299.8861
299.88501
299.88531
299.88845
299.88309
299.87769
299.87703
299.87753
299.87964
299.87235
299.87106
299.87105
299.87201
299.87903
299.87619
299.86799
299.86684
299.86648
299.86711
299.86352
299.86347
299.86418
299.86549
299.87452
299.8739
299.86438
299.86298
299.86202
299.86145
299.86124
299.86195
299.86307
299.8645
299.87423
299.87546
299.86568
299.86423
299.86294
299.86175
299.8635
299.86499
299.86641
299.86786
299.87753
299.88037
299.87097
299.86955
299.86804
299.8663
299.87003
299.87197
299.87354
299.8749
299.88391
299.88814
299.87961
299.8783
299.87668
299.87454
299.87984
299.88212
299.88376
299.88498
299.89303
299.89314
299.88506
299.88383
299.88217
299.87987
299.87462
299.87676
299.87839
299.87969
299.88828
299.8841
299.87505
299.87367
299.87209
299.87012
299.86644
299.86819
299.86971
299.87113
299.88059
299.8778
299.86809
299.86663
299.86521
299.86371
299.86201
299.8632
299.8645
299.86596
299.87577
299.8746
299.86486
299.86343
299.86231
299.86154
299.86195
299.86247
299.86343
299.86483
299.87433
299.87502
299.86601
299.86472
299.86403
299.86408
299.86763
299.86703
299.86741
299.86857
299.87676
299.87967
299.8726
299.87165
299.87166
299.87292
299.8801
299.87806
299.8776
299.87829
299.88378
299.88917
299.88585
299.88554
299.8866
299.88961
299.9017
299.89753
299.89574
299.89557
299.89594
299.90419
299.90779
299.90865
299.9114
299.91707
299.93621
299.92865
299.92467
299.92292
299.91391
299.92516
299.9414
299.9444
299.95006
299.96018
299.98981
299.9764
299.96857
299.96391
299.93784
299.95189
299.99089
299.99779
300.00844
300.02603
300.06882
300.04634
300.03224
300.02254
299.96692
299.98255
300.05849
300.07163
300.08981
300.11791
300.17193
300.13779
300.11506
300.09798
299.99814
300.01304
300.13952
300.16103
300.18873
300.22924
300.28704
300.24031
300.20753
300.18137
300.02631
300.03733
300.22103
300.25187
300.2896
300.34215
300.39007
300.33276
300.29064
300.25548
300.0448
300.04802
300.28131
300.32006
300.36557
300.42591
300.44152
300.38207
300.33489
300.29375
300.04421
300.02961
300.28676
300.32851
300.37485
300.43259
300.37803
300.3392
300.29916
300.2599
300.00871
299.95651
300.17316
300.2069
300.23977
300.26328
299.99861
299.97554
299.9526
299.93246
299.82224
299.74218
299.80179
299.81305
299.8293
299.85597
299.8796
299.84476
299.8279
299.81808
299.75893
299.72533
299.76359
299.77001
299.78259
299.81437
299.78617
299.75624
299.74603
299.74344