/*--------------------------------*- C++ -*----------------------------------*\
  =========                 |
  \\      /  F ield         | OpenFOAM: The Open Source CFD Toolbox
   \\    /   O peration     | Website:  https://openfoam.org
    \\  /    A nd           | Version:  7
     \\/     M anipulation  |
\*---------------------------------------------------------------------------*/
FoamFile
{
    version     2.0;
    format      ascii;
    class       volScalarField;
    location    "120";
    object      alphat;
}
// * * * * * * * * * * * * * * * * * * * * * * * * * * * * * * * * * * * * * //

dimensions      [1 -1 -1 0 0 0 0];

internalField   nonuniform List<scalar> 
25278
(
8.0753878
8.2630866
8.0662052
8.0660888
8.2629721
8.2634522
8.2377879
8.075495
8.2374698
8.5889233
8.403487
8.1837811
8.2070646
8.2111071
8.3913278
8.0664346
8.2636357
8.6733517
8.2094243
8.8582463
8.7358058
8.6705324
8.4714297
8.4572917
8.7939688
8.4571375
8.4715917
8.8123217
8.9104932
8.9673915
9.0440586
8.9397271
8.7970988
8.9308116
9.0377638
9.0597829
9.1338469
9.113709
9.0279453
8.8472975
8.9666158
9.0608713
8.9712037
9.0648632
9.1696994
9.0622902
8.6571699
8.745235
9.057244
9.0101952
8.9539461
8.7885757
8.2562068
8.5194489
8.9481033
9.054165
8.9658293
8.8533427
8.5022922
8.6872303
8.827017
8.6623275
8.510278
8.8937221
8.7688104
8.7169239
8.8426757
8.4186955
8.2449986
8.3435831
7.7302994
8.003156
8.2998565
8.5687653
8.7823614
8.9041606
9.0405734
8.9693665
8.6712127
8.6518116
8.5646029
8.3984808
8.6800901
8.237703
8.6563603
8.5197702
7.8242687
6.8203699
7.4466812
8.0892672
8.2190391
7.5518213
7.4332625
6.2873154
6.4623648
7.5658119
7.7978973
8.3985875
8.5385692
7.9450828
7.7826146
6.6730558
6.9234983
7.9614634
7.2844381
7.1540541
6.9264595
5.2796167
5.1533595
4.3121459
6.296776
6.3446695
4.3226349
4.3534935
5.4391589
5.6310125
4.3970664
6.6314572
6.5629769
6.5570132
8.2335114
8.655691
8.2629808
7.4200512
6.2730612
5.1427379
4.305881
6.2925395
7.8202207
8.519062
8.5636496
8.6513491
8.6756754
8.3934172
7.4370873
6.8118433
6.9162911
6.3397033
4.3142867
5.2668155
5.4233512
4.3427758
4.3831878
6.6238341
7.2709545
7.1428752
7.7868579
7.5552203
6.4463992
7.5375092
8.3841436
8.0809091
8.2105021
8.3905075
8.6676589
8.5304111
7.9493262
6.9041128
5.6114551
3.7064201
2.1447413
2.1547092
3.7162836
5.5741942
7.2352665
7.1116522
6.4904043
6.547716
4.2674117
4.2438318
5.3906603
3.6496824
2.2366106
2.0697315
0.90729826
1.0528813
2.3115942
2.304314
1.069532
0.92449911
2.097601
2.2574553
3.6429085
5.3694354
6.6554305
7.7682885
7.9300958
7.2106495
5.5492526
4.2373745
4.2195302
6.45448
8.1927999
7.0893646
6.5056983
6.8082516
4.2743416
1.9329043
0.79581643
0.77828698
1.897396
4.3124729
6.8546427
7.5374156
8.242989
8.725424
8.9338116
8.9127749
8.9467458
9.0497313
9.0673058
8.8098183
8.9759503
9.0691433
9.140177
9.1246114
9.040312
8.8640549
8.9860312
9.0775481
9.1374656
9.0890285
8.9592354
8.6577797
8.9293555
9.061743
9.1730244
9.0367459
9.0663753
9.1718819
9.1753327
9.1626888
9.1306272
9.1919096
9.1789898
9.1373338
9.064628
8.7477194
8.7388753
8.8707895
9.0203055
8.9655483
8.5472361
8.7131834
8.8506776
9.0695498
8.9862524
8.8761362
8.538419
8.6953094
8.5501365
8.9171761
8.9665078
8.8043772
8.2956122
8.7950795
8.387077
8.2896761
8.7434336
8.8661661
8.4593523
8.6025985
8.6883261
8.8231838
8.9641532
9.036683
9.1609299
9.0990243
9.0688333
9.0070344
9.0310664
9.0149056
9.0423909
9.1758139
9.2011518
9.1755356
9.1501456
9.1566786
9.177228
9.1498708
9.1437701
9.0732373
9.1547758
9.1071098
9.1255427
8.957327
9.0692939
9.0308146
9.0923423
9.1304174
9.1058909
9.0398234
9.0602893
8.9281816
8.957519
9.0867741
9.1664095
9.1707878
9.1842521
9.1203706
9.1569749
9.1304726
9.0176301
9.0285596
9.0741893
9.0763364
9.0341513
8.9716344
8.7382636
8.9159811
8.62768
8.4802959
8.1369678
8.3533512
7.8375103
8.3134712
8.6351779
8.9248015
8.7921282
8.2591137
8.4882452
8.1606241
8.5896618
8.7574498
8.3751477
7.8556242
7.627827
8.1254791
7.2365699
7.608402
6.9226731
7.1910444
7.7537905
8.0162034
8.2848072
8.4947419
8.6963
8.8529215
8.9217094
8.8307911
8.9693691
8.900863
8.7461558
8.5552447
8.6438557
8.7779119
8.779013
8.852261
8.8348996
8.9755603
9.005317
9.100337
9.0508978
9.0234318
8.8897777
8.9306131
8.7598347
8.8754278
8.6919394
8.649343
8.5795938
8.4153122
8.3097741
8.0459621
8.1490908
8.3795489
8.4860453
8.7856038
9.024928
9.0801066
8.8575802
8.8480652
8.9880793
9.087488
9.0464788
8.9853087
8.8681771
8.9355081
8.8509583
8.9869333
8.9199395
8.7682475
8.5796328
8.7122157
8.7924317
8.5943795
8.5105568
8.3360717
8.4395517
8.6663474
8.7311637
8.9079354
9.0391954
9.0648301
9.1102152
9.0164194
8.9468829
8.7781021
8.8870174
8.7038059
8.6624497
8.5116617
8.5653801
8.6071842
8.7466174
8.9186146
8.9140334
9.0972401
9.1376978
9.1320096
9.0501359
9.0448163
8.9752935
8.9917548
9.0965866
9.1088806
9.1003778
9.1287669
9.0558934
9.0620038
9.0031141
9.0056835
8.8609833
8.9455615
8.9437
8.9323748
8.9183824
8.8126375
8.8361409
8.6368298
8.7617236
8.7836085
8.7862599
8.6737397
8.6594793
8.8522257
8.7367919
8.9204531
9.0548106
9.0406415
8.9045876
8.8820241
8.8484307
9.0004098
8.9684481
8.9112565
8.8339889
8.525232
8.3356876
7.5895507
7.7702473
7.9902885
7.5461778
8.2578064
8.0564832
7.302878
6.3872376
7.054939
5.8812253
6.1713273
6.4011405
7.2732391
6.5936596
5.4617775
5.2385133
4.2868532
5.7154659
6.8785088
7.7980693
6.9427508
7.6345328
7.8356272
8.0010544
7.1000318
6.789261
6.5692906
5.2090509
4.4652204
3.4289131
3.4158444
4.3698829
5.8573424
5.2902439
5.9851671
6.24367
6.5706581
6.9017422
7.2385423
7.5394938
7.8257255
8.0717326
8.2984366
8.3924125
8.1192266
8.0249069
7.7475197
7.8672521
8.1730528
8.2527465
8.4665216
8.5997915
8.4550604
8.5055599
8.2929227
8.5454855
8.4895224
8.7105678
8.559713
8.7779283
8.9476735
9.0199939
9.1500234
9.1239124
9.051358
9.0847698
8.8873412
8.794155
8.9434108
8.8090555
8.4910711
8.2062119
7.4684576
7.9441543
7.7236034
7.2247416
6.7733994
6.9925274
7.9349324
7.7666834
7.5637878
6.455408
6.6728863
5.1120998
5.7005805
6.4905641
7.220528
7.0035411
5.8154979
6.2892903
5.1390686
6.1336588
6.3595321
5.3537721
4.1870137
4.1251437
5.5716254
5.0468955
3.2336511
3.1985994
3.8918041
4.8651495
5.8140835
6.5765144
7.2508015
7.7590768
8.1770483
8.5670787
8.9417431
9.0220558
9.0094204
9.0376924
9.0338182
9.1690642
9.1470249
9.1706291
9.1946751
9.1418369
9.1726284
9.152988
9.1374915
9.0636791
9.1481081
9.1670377
9.114262
9.0988495
8.9594482
8.9390379
9.0562484
9.0145975
9.080069
9.1215588
9.1009832
9.0936946
9.1309524
9.1243608
9.0860255
8.9794281
9.0416173
9.0350989
8.9609064
8.79669
8.9082433
8.9144812
8.9110232
8.9362708
9.0549476
9.0497516
9.1229523
9.0924564
9.099452
8.9925781
8.9968203
8.851132
8.9393084
8.780012
8.77616
8.7528427
8.9236072
8.8222046
8.6215943
8.5894477
8.7361331
8.5523422
8.6729479
8.6951147
8.6041317
8.5775989
8.3825877
8.3435329
8.0588285
8.3097907
8.2499626
8.1999379
8.1106503
7.8461033
7.7250657
7.3968337
7.5114704
7.860418
7.5250338
7.4112444
7.0044847
7.1385038
7.233228
7.603524
7.9332401
8.2305684
7.9779635
8.2918831
8.2099367
8.4844709
8.711363
8.888302
8.7773721
8.6943532
8.4697114
8.6214382
8.3903735
8.1983272
8.3020137
8.5721616
8.6452418
8.8454113
8.8834879
8.982017
8.8258701
8.6998292
8.5594553
8.7883578
8.7440245
8.6718263
8.5815727
8.4550674
8.5465571
8.2609683
8.4193374
8.3165005
8.1472662
7.7792514
7.9962251
8.0999665
7.8891349
7.435858
7.7137666
7.9749956
7.8503635
8.1023653
7.7847231
7.8890062
7.593925
7.4779599
7.0317444
7.4124195
7.5287527
7.1674967
7.2644641
7.6883325
8.063236
8.3835022
8.4477352
8.6163964
8.3561014
8.1355417
7.8878561
8.2595365
8.1880273
8.4984785
8.345228
8.6259162
8.673238
8.4119062
8.0596365
7.9816899
7.53381
7.808029
7.361556
7.2620336
7.1534637
7.5942373
7.3022277
7.0327216
7.5749449
7.9969715
8.3471332
8.653175
8.9868752
9.0275935
8.9855931
8.679606
8.7588555
8.8237351
9.062625
9.0532333
9.0196859
9.0262555
8.7520211
8.7928065
8.8565821
8.7061925
8.7873183
8.8822303
8.9634601
9.0426962
9.0266903
8.9396952
8.9241578
8.7429375
8.8622098
8.887441
8.7747545
8.7997617
8.9057494
8.91555
9.0404631
8.9641085
8.8157641
8.7040464
8.8888069
8.7982029
8.5866092
8.5555478
8.6807393
8.648533
8.8548176
8.8329245
8.7259174
8.7517931
8.5153893
8.4688602
8.6094316
8.3195604
8.499493
8.660277
8.6939728
8.5413971
8.2475861
8.4491973
8.4076271
8.1958792
7.9577061
8.0201695
8.3704977
8.1883817
8.1277981
7.699113
7.6200548
7.3459541
7.8609343
8.2688689
8.5785805
8.5264191
8.4437618
8.3410295
8.2442339
7.8556961
7.9749761
8.1084429
8.1969834
8.0664276
8.4285482
8.4826413
8.1420656
8.0478506
8.4223441
8.3656648
8.2763428
8.2380864
8.1388827
7.7056316
7.8253394
7.8759825
7.9694217
7.9196746
8.3291182
8.386406
7.9992197
7.471628
7.5433172
7.6809399
7.5939246
7.7774698
7.6810373
7.4960245
7.3874824
6.7668121
6.8982564
7.1554829
7.2551035
6.9967685
7.0894714
6.886374
6.7937618
7.4540392
7.3552459
7.2825955
7.1779326
6.4679856
6.5914514
6.6974685
5.8871214
6.1743479
6.5285249
6.9025519
6.7889724
6.1704177
6.6386316
6.7578709
6.3031434
6.3993484
7.0029251
7.0940597
7.4475007
7.7669933
8.0488071
7.6979584
8.0012591
7.6775306
8.013157
8.2571861
8.5158989
8.3130398
8.0193832
7.9528573
8.207678
7.950535
7.6164286
7.6895045
7.3125947
7.3817566
7.7407295
8.072128
8.3161086
8.5614327
8.5854826
8.3418173
8.1186649
8.3980523
8.3613586
8.0749053
7.7517014
7.8037562
8.1115069
8.3362191
8.1044334
8.1440155
8.4145456
8.6466548
8.8404507
8.7192653
8.7368629
8.6008606
8.5750204
8.2911774
8.4826566
8.5079946
8.6631011
8.4373692
8.6145669
8.387313
8.3756055
8.1521839
8.3801617
8.610661
8.6199764
8.3911079
8.1835529
8.4480955
8.427516
8.1558122
7.8489562
7.8854657
8.1753694
7.8786694
8.1737282
7.9130734
8.232479
8.1986733
8.1571854
8.1076801
7.8355732
7.8963234
7.49275
7.8206003
7.7635977
7.4234047
7.3482243
6.9465437
6.8571467
6.3110274
6.8016876
7.2281471
7.6214136
7.1314247
7.0240576
6.5843208
6.7030432
6.2125053
6.7020951
6.5832543
6.0756078
5.5467623
6.114372
6.2130868
5.6595586
5.5609956
4.8978207
5.010352
5.6526004
5.7447032
6.3095704
6.7997482
6.8842118
7.309243
6.8882758
6.3974861
5.8315794
6.4004195
5.8335424
6.4908514
6.5831006
7.1818784
7.525927
7.599476
7.2684134
7.7732134
7.8426852
8.2421627
8.4137201
8.449459
8.288762
7.9065736
8.1248856
8.3270802
7.9970653
7.9502442
7.5566645
7.870661
7.5031895
7.8407269
7.7939004
7.4428883
7.4973851
7.5446594
7.1581964
7.5544989
7.1859456
7.6145693
7.2727126
7.7315363
7.6681884
8.075886
7.3539653
7.4368235
6.8799544
6.7783722
7.1950448
7.1140701
7.0314289
6.4884231
6.9685913
7.3806899
7.4450802
7.0448871
6.5625446
7.0317724
6.9607417
6.4808532
5.9191958
6.0102366
6.5772803
6.0230003
6.6788433
6.1877618
6.9120306
7.5178297
8.0060827
8.385552
8.6666277
8.6349473
8.5451068
8.5800826
8.2700045
8.210429
8.3320017
7.9363416
7.7623194
7.8396444
7.2754775
7.181553
7.4326217
6.8137647
6.7196327
6.6268138
6.2649054
6.354567
5.4768374
5.9894687
5.9029194
5.8164697
5.7158373
6.4315755
6.0824844
5.2341568
5.3357473
5.404005
4.9764171
5.969048
6.0521302
5.8854203
6.7781275
6.6860449
7.381383
7.3904588
7.9252878
8.3323785
8.6831234
8.9869654
9.023075
8.7459161
8.7366874
8.6787115
8.2156943
7.8041681
8.4059469
7.7948378
7.1281349
6.5008067
6.5610267
7.2547481
5.6041765
4.2922929
4.2634046
5.4160643
6.6868828
6.9363242
7.9566254
8.5438199
8.6841741
7.9649666
7.2827891
5.6367874
3.7428412
2.0908987
2.2542901
3.6725998
2.3296409
1.0720735
0.92745903
2.1736416
4.3986265
4.3590084
5.4483293
7.1567715
8.2393116
6.564137
7.0811922
5.3552897
3.6368176
2.317161
1.074615
0.93005788
2.1585383
3.6986139
2.0767972
2.241116
4.2013871
4.2135399
5.5318691
7.2010696
8.1902538
6.4464188
6.4956687
6.7975009
4.2434009
1.9072184
0.80177623
0.79965822
1.9219012
4.3447232
6.8703668
8.2618826
8.7904617
8.9553979
9.0136454
8.8620558
8.5292021
8.8603487
8.7743476
8.7187372
8.8443286
8.8990326
8.5204883
8.422685
8.2489692
8.353968
8.5146612
8.674155
8.9721315
9.0604216
8.9548654
8.6983655
8.8375143
8.9529552
9.1293866
9.0597566
9.039441
9.0100107
9.0275224
9.0204288
9.0554048
9.065763
9.0315622
8.9915377
8.9432225
8.5708522
8.662827
8.7673723
8.830437
8.7548382
8.7947534
8.8613848
8.9644502
9.1012859
9.1177537
9.0893159
9.0568011
8.8051601
8.8966683
9.0278282
9.1543591
9.1705781
9.150556
9.0677515
9.0623386
8.9461783
8.7402017
8.6494517
8.5576979
8.496247
8.4560944
8.453263
8.4869825
8.5253493
8.4925582
8.1386569
8.1833764
8.1196184
8.0727351
7.5583361
7.628269
7.710971
7.6434564
6.9748923
7.0797953
6.980762
6.8734196
5.9753526
6.1446616
6.4503614
6.5556935
5.6653285
5.5620549
6.0831917
5.2684604
5.9243261
5.2463941
5.163067
5.0863649
5.7475418
5.1161465
5.0479164
4.9930582
4.3910597
4.4211446
3.5141589
4.2848345
4.2361678
3.4846908
2.8574936
2.8023468
3.8649139
4.9301417
4.6983918
5.7308244
5.6637479
4.6381095
3.5828333
3.52904
2.3413581
2.4210173
1.5053343
2.0218745
2.7525865
3.5800104
4.3124241
5.0071396
5.5847183
6.1323554
6.6039125
7.0583359
7.4523896
7.5679436
7.9283482
8.246577
8.5169442
8.739206
8.6512689
8.5092411
8.7265645
8.807211
8.6089263
8.6789102
8.803064
8.589441
8.6433781
8.3870258
8.3256579
8.1125753
8.4247609
8.3463083
8.2452189
8.4247976
8.140846
7.9056591
8.0273236
7.7850084
8.1581233
8.465987
8.7082013
8.6207267
8.365933
8.2074855
8.5015733
8.5902215
8.3175852
8.3980017
8.5416345
8.7774106
8.8725731
8.9077065
8.7300707
8.4852322
8.1809183
7.9510833
8.3095642
8.5984513
8.8181619
8.9111196
8.7878065
9.0439956
9.0017766
8.9619718
8.9607994
9.0300934
8.7474845
8.2636225
8.0664789
8.0757784
8.2380896
8.2118741
8.4721428
8.6709719
8.7384686
8.8031143
8.9653546
8.7421046
8.2920108
8.2872024
8.456769
8.864919
8.9133059
8.7911983
8.3804271
8.5435526
8.6865704
8.981128
9.0176739
8.8678883
8.5400198
8.8708485
8.5295987
8.7043368
8.9598895
9.0641543
8.8420383
8.9556985
8.8147183
8.6817313
8.6001662
8.7062473
8.7086724
8.773886
8.8457146
9.0752768
9.0623831
8.8720768
8.9725253
8.9012783
8.9790581
8.9580502
8.9454146
8.769614
8.7978653
8.819279
8.8319557
8.9277174
9.0507146
8.9770334
8.9044989
8.7245875
8.7058592
8.678303
8.8772101
8.8592565
8.6439619
8.5117815
8.7578231
8.7093757
8.6661164
8.5717192
8.4927304
8.3991594
8.0657488
8.174018
8.0464729
8.3937848
8.3002395
7.9306999
7.4855496
7.6632624
7.8545668
8.0568435
7.6675656
7.3968084
7.5278719
7.9619442
8.0507936
8.2425346
7.8757528
7.6224755
7.703912
8.1235556
8.4599752
8.3253721
8.619605
8.5269921
8.4774994
8.1338157
8.2585274
7.860266
7.7674537
7.2677163
7.1457714
6.8955296
7.0262172
7.5922373
7.6866611
7.7682951
7.938243
7.4509915
7.3646779
7.1229152
7.2117728
7.0159004
7.6340419
8.111554
8.2043167
8.2662494
8.3825163
8.6710212
8.6973972
8.7790053
8.552341
8.5867058
8.8100384
8.8166622
8.6119081
8.3239973
8.4765984
8.6211325
8.7512532
8.5247937
8.5030513
8.4734001
8.7145035
8.6839779
8.435314
8.2369873
8.5327977
8.5704609
8.2834743
8.3217335
8.5995806
8.446933
8.4097722
8.3643573
8.0153222
8.0712499
7.8424804
8.2389913
8.185571
7.7763397
7.2833822
7.5981797
7.8841227
8.1385367
8.0828596
8.014747
7.6586906
7.7328575
7.4069131
7.8199506
7.7449099
7.6532216
7.2310393
7.0966722
6.646916
6.7651187
7.1651301
6.7234587
6.2642372
6.126866
5.634322
6.210752
6.7325921
6.8527726
7.3462351
7.0153063
6.4350667
6.3005404
5.6997636
5.803141
6.311887
5.7442992
5.1502667
5.0313237
4.4144662
5.1737606
5.8805914
5.9881236
6.6704424
6.3402969
5.5417999
5.4306279
4.6104842
4.6575915
5.2403658
4.4775304
3.7532812
3.7043668
3.0968163
4.1311659
5.0768642
5.1539504
6.0643778
6.8319461
7.4549217
7.9493485
8.3300028
8.2339538
7.8358177
7.7788972
8.1932171
8.2888574
7.8949534
7.984921
8.0385781
8.4152534
8.4674126
8.4284516
8.3758052
8.3740145
8.2869429
8.191246
7.8310762
7.6302606
6.9338844
6.5623192
6.7810564
7.0807216
7.9896686
7.7872571
6.8606462
5.6898087
5.1977839
4.4475165
3.4129506
3.3960072
5.2762421
5.8272713
4.3308597
4.2542936
5.205021
6.3593153
7.2824363
8.0432412
7.5746146
8.3228686
8.5120151
8.2438323
7.5242883
7.9709454
7.7512747
7.0301995
5.8568479
6.1416562
6.3687732
5.4230187
6.5620775
7.2468051
7.5127322
7.2087245
6.8696747
6.5387365
6.2153867
5.9648771
5.8202283
5.8274084
6.5966088
6.7111056
7.3520354
7.2747731
7.377343
6.7193182
6.8119536
6.9268322
7.5500723
7.4723423
7.5568692
8.059195
8.1261625
8.17693
8.5266732
8.5841731
8.6133218
8.3183313
8.4292096
8.470281
8.7318468
8.7437103
8.5023443
8.4040888
8.6691778
8.6538194
8.3653825
7.9744527
8.1236656
8.2851448
7.9024744
8.1197682
8.160834
8.3522542
8.0275607
8.2512599
8.2216862
8.1842173
7.8489867
7.7953715
7.4780539
7.5419883
7.939369
7.9872493
7.5994054
7.8947474
7.932972
7.6500764
7.2245367
7.5730646
7.5255089
7.4708869
7.4095191
7.3402717
7.2608693
6.8207522
6.9045099
6.4486159
6.9475145
6.862758
7.3259729
6.9509208
7.4431921
7.5250493
7.0375303
6.6226848
7.2014657
7.1139618
6.5322651
5.8954041
6.4104824
6.4989996
5.9259795
5.838239
6.3613967
5.826172
6.3354595
6.2364692
5.6992163
5.1601137
5.730053
5.6158233
5.3893596
5.2066148
3.8396063
4.0713392
4.2156497
3.1335457
4.2845721
4.1364763
2.9988198
1.9023269
2.8537715
2.8212183
1.5722308
1.7632256
0.9743264
0.84724228
1.8859846
1.1069315
1.9464783
2.9608833
2.9830797
1.9920595
1.9575304
1.0594093
1.9096611
1.7239793
0.93289887
0.52313596
0.60456183
1.1819017
0.57514062
0.49658496
0.3795331
0.4218902
0.43115981
0.58536458
0.98625754
1.7819345
3.2613596
5.0691985
6.4691964
7.571308
7.7750519
7.9545296
7.7482891
6.8060869
7.0291743
6.6894244
5.1412536
5.7611492
5.620752
4.1881799
4.266093
3.235247
3.6070088
4.6590437
5.6796953
6.4792117
7.1857269
7.7107815
8.1421828
8.2413145
8.2868743
8.1872446
7.7745275
7.8917114
7.8306703
7.2910587
7.3786825
7.2726794
6.6090296
6.7324532
6.6042581
6.7001479
6.7932621
7.4807128
8.004768
8.3894251
8.4323031
8.3758812
7.9852058
8.063404
8.163858
8.4962692
8.4428742
8.355778
8.2589602
8.3648121
8.4613183
8.1340607
7.9972408
7.8776243
8.0224672
7.6099566
7.4186234
7.5289832
7.7174019
7.206468
6.9458461
6.8112082
7.0812607
7.3486244
7.8135931
8.1730466
8.4732116
8.2273931
8.0233259
7.5590509
8.3167605
8.5079231
7.9701661
7.5045346
7.2584486
7.7486096
7.0355655
6.3363717
5.8516173
5.1955589
5.4198042
6.5447104
7.2549919
6.3961374
6.1668982
6.937705
7.6262795
8.1527464
8.5805835
8.8557274
9.033763
9.0470797
8.6721357
8.6583773
9.0647773
9.0358857
8.9306502
8.7965035
8.9601384
8.9699509
8.8152286
8.9134267
8.9433878
8.8038469
9.0642379
9.0409059
9.1376372
9.1188512
8.9787796
9.0661921
8.9724661
8.7895503
8.9072364
8.922559
8.7494188
8.3683478
8.6352394
8.488401
8.2539467
8.7295219
8.9345243
8.2607625
7.2486505
8.1331062
8.3199931
7.8544341
7.2048531
7.8576896
7.6311029
8.1595347
8.4909477
8.6369326
8.9250735
8.7929997
8.5878589
8.7549967
8.3729513
8.5096357
8.7867129
9.0308755
9.0231768
8.9799163
9.0715693
9.1741435
9.187929
9.1735862
9.0895536
9.1697134
9.1350539
9.1608608
9.1258229
9.1460537
9.1976938
9.1728291
9.1490174
9.0623814
9.1713473
9.1756444
9.15513
9.1402695
9.1047538
9.0492595
8.9714107
8.8915682
8.7976228
8.716865
8.6356164
8.5812297
8.5459238
8.5437228
8.5741203
8.626108
8.6470936
8.722898
8.4726867
8.4334937
8.3249783
8.3714537
8.2955161
8.5988658
8.5698985
8.255843
8.2010082
8.2434152
7.7917811
7.9135443
8.070372
8.1287681
7.9827386
7.4668565
7.6814931
7.6011388
7.3710534
7.1838124
7.2909963
7.8691677
7.8091969
7.727533
7.0826839
7.1954881
6.3484885
6.5102432
6.7958573
7.1188383
7.0142428
6.671415
5.79066
6.3042916
6.4313918
5.9381957
5.4505057
5.2998948
6.3726219
6.2507592
6.0809185
4.9027556
5.1837607
5.0957852
5.0287338
4.769787
4.7303976
5.8065878
5.8281928
5.7497677
5.9377505
5.8583452
4.9256302
5.000336
4.7243506
4.7614469
4.8066997
5.9096217
6.1152758
6.9261257
7.5680036
7.4783697
6.8312564
7.0471797
7.6276573
8.088664
8.2221575
8.5431557
8.5944308
8.2930005
7.896928
7.7147605
7.1417183
7.3991506
7.307674
7.8140964
8.0164029
8.3697265
8.6428816
8.5643299
8.6884435
8.5987268
8.340179
8.4424344
8.2860316
7.9240865
8.1307194
8.0268349
7.6340291
7.7538365
7.4830393
7.5816016
7.6673124
8.0929682
8.4350783
8.6889947
8.8027984
8.7595975
8.520563
8.5800967
8.7169089
8.8960291
8.8590304
8.7920346
8.7096244
8.8218338
8.9004485
8.7274122
8.5917059
8.4900237
8.6380374
8.4107753
8.2240209
8.3273096
8.5042879
8.2339439
8.0066372
7.8827594
8.1268677
7.8127354
7.5163256
7.2021648
6.8475165
6.4950357
6.1423325
6.2415784
6.5978453
5.9065866
5.4261722
5.3131663
5.7969585
5.0874878
4.4847968
3.963594
3.9526819
3.5594554
2.3652172
2.4405489
2.9322618
2.8941278
2.8492549
3.9645911
5.0588302
6.0258654
6.3385888
6.433817
6.7966262
6.7005826
6.0015911
5.5068996
5.5921574
5.1252433
3.9853141
3.5065428
3.4593593
3.8511789
4.4927735
5.186797
4.3778097
4.3293117
3.5072084
4.4540652
3.8565797
3.4922634
2.2311927
2.7330346
2.6585016
3.5031776
3.5068181
4.5460189
4.6205553
5.3665449
4.5135125
5.3403483
5.44647
6.1308378
6.6674355
7.1177264
6.6423477
7.0978825
6.6549623
7.1132877
7.0492688
6.9799006
6.5303029
7.0246098
7.0963622
6.6087766
6.6841351
7.1631113
6.7492862
7.2652425
7.7246401
7.6643832
7.1934159
7.117535
6.7110191
6.7994639
7.361413
7.436032
7.5057882
7.77832
7.3319329
6.9740751
6.8874712
6.2677639
6.1690651
6.6673346
6.5839269
6.0127596
6.1007262
5.4967724
5.4017865
6.0741594
5.9836833
5.3146326
5.232688
4.535736
5.3191208
6.0793748
6.769089
6.8597237
6.1686824
5.7008669
6.5232656
6.4335013
5.6197939
4.7090356
4.7676071
5.3990847
4.5989749
3.7935507
3.7692211
3.0214204
4.1400987
5.2130964
6.1503824
6.2352555
5.2780597
5.0024563
6.0573512
6.8998678
6.9882704
7.1039117
7.2971071
7.5308736
8.0068039
8.0683762
7.6068483
7.3813608
7.9108225
7.8421965
7.7116314
7.7851749
8.2329413
8.5590194
8.5235581
8.4902009
8.4883962
8.7717647
9.0378722
9.0388704
9.0283409
8.807562
8.6021034
8.6209767
8.3283997
8.2846125
8.2389116
8.5691958
8.5895354
8.2853892
7.8550681
7.9205599
8.0324766
8.1722069
7.7459427
7.9559356
8.0021922
8.1941883
8.3749947
8.5390335
8.6821068
8.7977802
8.9226323
9.0016356
9.0179834
8.8804106
8.7290165
8.4039637
8.39451
8.1861888
8.3936939
8.682201
8.5607624
8.5899238
8.8812568
8.8361013
8.9429118
9.0188634
9.1253068
8.9815299
8.9144684
9.0471651
9.0779542
9.0907644
9.1395478
9.1200064
9.1544243
9.1036552
9.0836666
9.0406213
9.0605661
9.0056541
9.0018924
9.0156842
9.0727363
9.0519675
8.909501
8.6701031
8.6270687
8.8492071
8.8616456
8.8003755
8.7744464
8.8301976
8.8928007
8.9698129
8.915388
8.9101073
8.9713237
8.9360061
8.97859
8.9134521
8.8794491
8.8266431
8.8790709
8.8861817
8.8118878
8.8364974
8.8275964
8.8150385
8.8783576
8.833723
8.7828243
8.7568638
8.7411572
8.8052656
8.8779683
8.9496763
8.9915146
8.9279198
8.9897654
9.003531
8.9508973
8.9179322
8.9419892
8.8353696
8.9127195
8.9795292
9.1226047
9.0757196
9.1004206
9.1504947
9.1151471
9.1364197
9.0882443
9.0797189
9.0374756
9.0698475
9.045287
9.0004196
9.0134447
8.9873754
9.0039296
9.0583088
9.0040735
9.0380892
9.0796305
9.1202251
9.1005805
9.0763983
9.0942425
8.9967252
9.0522646
9.0343642
8.9889172
8.9789444
9.0698706
9.0894868
9.0655907
9.0447869
8.9625758
9.0035408
9.0269298
8.9215461
8.8750165
8.9202931
8.9427415
8.9313168
8.8527409
8.8554651
8.6735079
8.7926389
8.7812088
8.6755811
8.6730006
8.8454423
8.8328996
8.9038056
8.7605504
8.7795961
8.6240356
8.6807408
8.8765024
9.0403311
9.0824936
9.1253327
9.1050533
9.0389657
9.0575745
9.0042917
9.1010491
9.0822179
8.995253
8.9843305
9.0310167
9.0935304
9.0692748
9.0071893
8.9672881
9.0493705
9.0750626
9.0310096
9.0243025
9.0855264
8.9891195
9.1357141
9.0563344
8.9649844
9.0955725
9.0437122
8.9388794
8.8987302
8.9810733
8.9934051
9.0362816
9.0546899
9.005765
8.856527
8.789703
8.8423862
8.9441956
8.9624817
9.0229379
9.0034223
8.9237849
8.9484368
8.9947986
8.8933314
8.9069839
8.9251286
8.9356567
8.947983
8.8635076
8.8593537
8.6823147
8.7853243
8.7827652
8.7630578
8.6678345
8.8373235
8.8508142
8.6781333
8.4693017
8.6265817
8.6274443
8.7070623
8.6283439
8.6240745
8.4618581
8.4537915
8.1975071
8.4121168
8.4092701
8.2118325
8.220573
8.4644613
8.4593831
8.6638453
8.6504
8.816312
8.9443632
9.0318816
9.0512564
9.0200729
8.9998095
8.9204302
8.959837
8.9915764
8.8905682
8.8554413
8.7889841
8.9494741
9.0009037
8.9679184
8.9459916
8.9822337
8.8962328
8.9419471
8.907942
8.8675126
8.7437675
8.8107543
8.8405443
8.8628931
8.7945854
8.630658
8.7233623
8.7539159
8.6015906
8.655825
8.6001078
8.5589356
8.7072101
8.6734557
8.582773
8.6085852
8.7705252
8.6826171
8.8329181
8.9392139
8.9246209
8.9884475
8.9068537
8.6683095
8.624779
8.5600885
8.7993963
8.8594405
8.9682446
8.8917467
8.9139851
8.9111027
8.9764991
8.9337726
8.9700692
8.9085583
8.8765391
8.8464559
8.9083442
8.8455644
8.8878961
8.9106091
8.9482231
8.9253335
8.8852109
8.8066818
8.8496658
8.888904
8.8390516
8.7153101
8.789365
8.7574938
8.6810336
8.7262076
8.8273124
8.7880642
8.8504051
8.8198353
8.862493
8.7758098
8.7409332
8.6190328
8.6911561
8.5558034
8.5952467
8.6170214
8.7535198
8.684016
8.5250443
8.5555749
8.6571252
8.5088192
8.5570051
8.758192
8.9093018
8.8472861
8.6823704
8.7275036
8.8284258
8.8892546
8.9118997
8.9499807
8.9700157
8.9096825
8.8697449
8.9484313
8.9852
8.898715
8.7729638
8.7975429
8.8650278
8.7250141
8.7558637
8.6535882
8.820114
8.72953
8.8842908
8.9022245
9.0075582
8.946356
8.9696084
8.9716941
9.0376704
9.0526397
8.9299409
8.9252696
8.8388578
8.839024
8.9849172
8.9148872
8.905741
8.7425127
8.7374172
8.6315332
8.8336354
8.8274771
8.6423874
8.647675
8.7421573
8.8340068
8.9167845
8.7553368
8.7599344
8.7586156
8.6352503
8.6425265
8.3902976
8.546309
8.5470429
8.5413675
8.7450822
8.6369776
8.8223319
8.7341917
8.8850863
8.9049485
8.8323196
8.8139801
8.6441151
8.4002793
8.5196693
8.520122
8.6429021
8.3979003
8.3981447
8.2445432
8.2364093
8.2194217
8.5131121
8.498363
8.3552132
8.3786532
8.0400926
8.0687887
8.3937196
8.2714672
8.5575374
8.7697918
8.8554936
9.0045756
8.9677673
8.8804737
8.9743536
9.0135955
8.9473085
8.84554
8.768106
8.9080712
8.8803006
8.9477423
8.9754573
9.0241064
9.0538493
8.8741859
8.8167683
8.8033998
8.7714809
8.819782
8.7505896
8.8081553
8.8751023
8.9356151
8.9034968
8.9621753
8.8610739
8.784919
8.806353
8.6246837
8.6070637
8.7092453
8.5127742
8.6332068
8.6105604
8.708196
8.6744121
8.8120874
8.7453861
8.5841895
8.3896984
8.5283456
8.5594466
8.5768398
8.6028836
8.6111539
8.4054944
8.420892
8.4116725
8.4150935
8.632731
8.4625156
8.4685954
8.2178043
8.205367
7.9153185
8.2005865
8.2089339
7.9321804
7.9097861
7.5845893
7.616438
7.936275
7.9503609
8.219432
8.4192658
8.4043943
8.6093545
8.2203779
7.9534441
8.2134608
7.9554897
8.2231485
8.4629665
8.4520239
8.434512
8.2029466
8.3777444
8.4048455
8.2168013
7.9540186
8.210866
8.4042492
8.3772896
8.575966
8.4326955
8.4492689
8.214744
8.2015335
8.1850329
8.4131054
8.3886842
8.5278455
8.3332757
8.3673976
8.1799424
8.367662
8.3334901
8.1632516
8.1858488
8.4141409
8.2565544
8.4914941
8.6852684
8.8358587
8.9425794
8.9064075
8.8070446
8.7322972
8.8478
8.8862552
8.7606855
8.5848717
8.5590775
8.6583311
8.4664596
8.3366158
8.3593708
8.3780409
8.3910402
8.5296337
8.2875777
8.2945601
8.2946452
8.28762
8.2731673
7.9636271
7.986287
7.7287009
8.0846854
8.0600125
7.6933926
7.2794414
7.6134323
7.6455398
7.2660263
7.2225475
7.1711117
6.7557129
6.2787121
6.8282167
6.3683326
5.7075853
5.5990787
6.1897573
5.6040429
6.1658255
6.0825652
6.5807808
6.503364
6.4222537
5.882522
5.7947472
5.251102
5.3373309
5.9137047
5.3358119
5.2510764
5.1610083
5.0747977
4.4771742
5.0309926
4.4417644
4.534098
5.0903785
4.3928523
3.8283391
3.7338985
3.2228488
3.8926672
3.9581552
4.5720963
3.9069598
4.5094705
4.4245945
3.809452
3.2604803
3.3288943
2.7342684
3.2915196
3.349833
3.89027
4.46023
5.1783767
5.2618008
4.5284106
3.9547195
4.696109
4.6158696
4.0332371
4.6550321
4.7359251
4.038181
4.655456
4.582223
3.9714279
3.3878905
3.449642
4.1078402
3.4110599
2.8336046
2.7815854
2.1135952
2.5798245
3.0544116
3.6252266
3.5945881
2.7323585
2.1609257
3.0266575
3.0013079
2.1585168
1.4253534
1.34116
1.9130218
1.3548877
0.81573784
0.92985298
0.64571791
1.0995663
1.755981
2.5322466
2.5483069
1.7569457
1.409413
2.0863654
2.0584013
2.6609039
2.088675
2.6007615
3.1117195
3.7338692
3.7581166
3.1422364
2.2995437
2.9316425
2.9411748
2.2938253
1.8471673
1.846881
2.6173864
2.1174069
1.4637201
1.4500548
0.92679829
1.1898025
1.562927
2.2223526
2.1195265
3.0634924
4.1247303
3.7742878
4.9111801
5.8995225
5.9780882
4.9533787
3.7552214
3.7430715
4.1630889
2.9852645
2.3881188
2.4836778
2.5804714
2.6465531
3.8115902
4.840619
4.831146
4.8998345
5.8912997
6.7133324
7.3731215
7.8919193
7.7760458
7.8276953
8.2280212
8.3239282
7.9410998
8.0301923
7.9820378
8.0561433
8.4267536
8.4614888
8.4093762
8.4687442
8.781565
9.0406588
9.000799
9.003511
9.0640738
9.062481
9.0408473
9.0140902
9.0275256
8.8057001
8.8673805
9.0597598
9.0724559
8.8399804
8.9501795
9.1214882
9.0946059
8.9029411
9.0288345
9.156068
9.132147
9.1745421
9.064693
8.6580493
9.0354823
9.1973107
9.1716288
9.1510171
9.1035904
8.966391
9.0670658
9.0621448
9.1439807
9.1239285
9.1877577
9.1721849
9.0865479
9.1685638
9.1363916
9.119692
9.0473218
8.9440261
8.8034513
9.0350962
8.8561522
8.9784203
9.0632004
9.0369931
9.0629428
8.9695088
8.7835874
8.5784978
8.2469442
8.1447849
8.3598964
8.746527
8.9166269
8.8976122
8.4760212
8.6234423
8.2983705
7.8352651
7.6072593
7.2158809
6.8968839
7.1651704
7.8172702
7.5873559
8.1096946
8.4679603
8.2289955
8.7181459
8.9300506
8.8123472
8.9113683
8.9682877
8.9587315
8.7949837
8.929314
9.0599954
9.1700468
9.1476685
9.1722217
9.1383325
9.152684
9.1725884
9.1576294
9.1319773
9.0703785
8.9098773
8.8228268
8.7144836
8.6083219
8.4893446
8.3882512
8.2915058
8.3849326
8.034037
7.9185475
8.0509055
8.159142
8.4814551
8.5606865
8.608662
8.5182678
8.1919287
8.1033354
7.6218509
7.5525201
7.4679331
6.8056393
6.8931139
6.9978385
6.9096738
7.5382537
7.4432624
7.3410229
7.2707552
6.5912099
6.6958109
6.8157098
7.0030821
7.5753356
7.4693454
6.8736308
7.1205077
7.6440299
7.7475835
7.2414669
7.3376996
7.0988018
7.669189
8.1213357
8.2435118
8.310613
7.9180684
7.7507775
7.1867044
7.4234257
7.5033105
7.271557
7.0850982
6.9811965
7.6316228
7.636192
7.7121423
8.1844787
8.1816844
8.5220036
8.5536882
8.5211
8.1686509
8.1232811
8.2252406
8.2774136
8.2362614
8.5674974
8.5881334
8.2828225
8.3216907
8.6163679
8.5970651
8.6469332
8.6056444
8.575836
8.2542487
8.3068751
8.4159332