/*--------------------------------*- C++ -*----------------------------------*\
  =========                 |
  \\      /  F ield         | OpenFOAM: The Open Source CFD Toolbox
   \\    /   O peration     | Website:  https://openfoam.org
    \\  /    A nd           | Version:  7
     \\/     M anipulation  |
\*---------------------------------------------------------------------------*/
FoamFile
{
    version     2.0;
    format      ascii;
    class       volScalarField;
    location    "120";
    object      nut;
}
// * * * * * * * * * * * * * * * * * * * * * * * * * * * * * * * * * * * * * //

dimensions      [0 2 -1 0 0 0 0];

internalField   nonuniform List<scalar> 
25278
(
6.8790853
7.0390965
6.8712668
6.8711701
7.038827
7.0394204
7.0175015
6.8791784
7.0172207
7.3168935
7.1588317
6.9715408
6.9913252
6.994695
7.148783
6.87146
7.0395607
7.3890481
6.9939816
7.5463433
7.4419857
7.3862932
7.2166279
7.2046733
7.4917944
7.2045502
7.2167727
7.5073077
7.5905793
7.6394222
7.705106
7.6159519
7.4953974
7.6087086
7.7000808
7.7181369
7.7815302
7.7649005
7.6915544
7.5386143
7.6397802
7.7203933
7.6439446
7.7238794
7.8125569
7.7207578
7.3750472
7.4502087
7.7164881
7.6762373
7.6284478
7.4871416
7.0347245
7.2588119
7.6232046
7.7140387
7.6390789
7.5427721
7.2448592
7.4020488
7.5212427
7.3810445
7.2515525
7.5775421
7.4705503
7.4264671
7.5341623
7.1735402
7.0255726
7.1094643
6.5863272
6.819089
7.071549
7.3009402
7.4820497
7.5863711
7.7024813
7.6411136
7.386884
7.3702652
7.2958661
7.1548931
7.3948061
7.0181228
7.3742942
7.2577914
6.6659045
5.8108024
6.3443525
6.8913171
7.0022177
6.4343434
6.3329058
5.3569966
5.5062496
6.4462849
6.643616
7.1547641
7.2744369
6.7694318
6.6305754
5.6857159
5.8992181
6.7834153
6.2066468
6.0951393
5.9016123
4.4988423
4.3911123
3.6744903
5.3648799
5.4061598
3.6835614
3.7098135
4.6348038
4.7984069
3.7469989
5.6504342
5.5916881
5.5866096
7.0145562
7.3737248
7.0388358
6.321698
5.3448978
4.3820809
3.6691575
5.3612762
6.6624632
7.2571899
7.2950621
7.3698793
7.3910652
7.1505992
6.3362099
5.8035563
5.892973
5.4019339
3.6764541
4.4879588
4.6213593
3.7006848
3.7351728
5.6439405
6.1951799
6.0856364
6.6342466
6.4372992
5.4927027
6.422211
7.142704
6.8842278
6.9949827
7.1479154
7.3842427
7.2675296
6.7731143
5.8827683
4.7817663
3.1590541
1.8283535
1.8368639
3.1674098
4.7499214
6.1646892
6.058968
5.5297845
5.5789803
3.6364202
3.6162885
4.5934216
3.1104321
1.9064158
1.7643635
0.77350737
0.89735464
1.9703626
1.9641479
0.91152296
0.78814382
1.7881597
1.9242124
3.1047017
4.5754309
5.6707598
6.6184293
6.7567331
6.1438112
4.7287865
3.6109477
3.5956838
5.4992609
6.9798888
6.0400567
5.5432906
5.8011031
3.6427966
1.6480949
0.67895634
0.66404206
1.6177588
3.6751414
5.8405163
6.4222389
7.0231377
7.4336056
7.611268
7.5925252
7.6219619
7.7099754
7.7245496
7.5062695
7.6477423
7.7274642
7.7869339
7.7742345
7.7021312
7.5529402
7.6566169
7.7347279
7.7857167
7.7438473
7.6325891
7.3755831
7.6071375
7.7205535
7.8152522
7.6990499
7.7242768
7.8139791
7.8170142
7.8073925
7.780111
7.8316607
7.8205138
7.784886
7.7228148
7.4523661
7.4446239
7.5570501
7.6848852
7.6380851
7.2825417
7.4242087
7.5414578
7.7271823
7.6565563
7.5622489
7.2757371
7.4092252
7.2856153
7.597591
7.6392068
7.5006518
7.068397
7.4929626
7.146616
7.0637663
7.4491101
7.5542716
7.2082984
7.3305931
7.40357
7.5183685
7.638282
7.7003229
7.8051901
7.7528044
7.7268546
7.6740903
7.6944069
7.6807278
7.7039515
7.8180249
7.8396417
7.8176525
7.7956012
7.8020093
7.8198293
7.7965952
7.7912902
7.7314763
7.7999624
7.75961
7.7755336
7.6330844
7.7282305
7.6953405
7.7481672
7.779565
7.7589979
7.7023157
7.7193059
7.6061245
7.6311192
7.7419201
7.8093146
7.8131288
7.8250798
7.7713251
7.8024949
7.7797432
7.6833402
7.6925536
7.7318118
7.7330888
7.6971052
7.6434394
7.44582
7.5966775
7.3521579
7.2260037
6.9344948
7.1184589
6.6795185
7.0843921
7.3585549
7.6042093
7.4903764
7.0368964
7.2327716
6.954699
7.318788
7.4622031
7.1370643
6.6949795
6.500205
6.9230693
6.1662736
6.4836139
5.900988
6.129317
6.6086593
6.8327153
7.0597555
7.2397846
7.4098251
7.5440606
7.6029673
7.5253794
7.643036
7.5842556
7.4536942
7.2907629
7.3665398
7.4799225
7.4811523
7.5440021
7.5284152
7.6488063
7.6743754
7.7536505
7.7126792
7.6890733
7.575853
7.6107004
7.4655999
7.5631532
7.4084715
7.3718564
7.3125129
7.1723471
7.0830645
6.8577627
6.9460411
7.1414602
7.2315849
7.4867686
7.689561
7.7368685
7.5485372
7.5396252
7.6594848
7.7425834
7.707615
7.6550852
7.5570645
7.6147522
7.5426058
7.6580589
7.6005617
7.4725706
7.3115937
7.4233854
7.4923093
7.3251341
7.2532603
7.1055261
7.1930399
7.3857473
7.4410969
7.5913705
7.7025578
7.7246227
7.7620765
7.6838705
7.6246164
7.481215
7.5730444
7.4186088
7.3830276
7.2548049
7.3006506
7.3362889
7.4551182
7.6006737
7.5961899
7.751407
7.7860227
7.780763
7.7124981
7.7080838
7.6488713
7.6628297
7.7516489
7.7623154
7.7545688
7.7779613
7.7169814
7.7226761
7.6723897
7.6743436
7.5513498
7.6226751
7.6214448
7.6116915
7.5998727
7.5106771
7.5306261
7.3614248
7.4677083
7.486455
7.4878897
7.3922586
7.3804955
7.544177
7.446082
7.6021705
7.715958
7.7036014
7.5887682
7.5696117
7.5409375
7.6692774
7.6418057
7.5931229
7.5266476
7.2645459
7.1021209
6.4667259
6.6216682
6.8094485
6.4312711
7.0369234
6.8646161
6.224175
5.4432043
6.0114966
5.0120012
5.2599612
5.4566853
6.1991206
5.6202876
4.6564594
4.4662671
3.6541722
4.8700675
5.8620838
6.6441502
5.9156826
6.504899
6.6772678
6.8182046
6.0510991
5.7862378
5.5987298
4.4386494
3.8054274
2.9231412
2.9121753
3.7255514
4.9926661
4.5092376
5.1017231
5.3222803
5.6008066
5.8833698
6.1700362
6.4266528
6.6698978
6.8797747
7.071372
7.1524379
6.921223
6.8401185
6.6051754
6.7064704
6.9664955
7.0346191
7.215385
7.3290171
7.205625
7.2490026
7.0689884
7.2836536
7.2358987
7.4235036
7.2951482
7.4807031
7.6240804
7.6860387
7.795852
7.7734232
7.7118988
7.7405588
7.5732085
7.493557
7.6205559
7.5053925
7.2353817
6.992873
6.3649357
6.7700705
6.5818675
6.1574512
5.772371
5.959338
6.7617466
6.6183874
6.4445143
5.5014848
5.6869003
4.3572371
4.8588927
5.5323094
6.1541329
5.9676504
4.955911
5.3596167
4.3813687
5.2278287
5.4211748
4.5642944
3.5694965
3.5161779
4.7473817
4.3003228
2.7564935
2.7268338
3.3178899
4.1483614
4.9557231
5.6062984
6.1794452
6.613012
6.9673674
7.3002133
7.6185237
7.6866678
7.6759559
7.6998903
7.6965044
7.8118689
7.7929232
7.8133993
7.8340656
7.789691
7.8158836
7.7988253
7.7858686
7.7232261
7.7942122
7.8104987
7.7658187
7.7524358
7.6346216
7.6173826
7.7170322
7.6814876
7.737641
7.7720205
7.7548077
7.7483647
7.7802687
7.7742331
7.7425591
7.6522582
7.7051946
7.6997828
7.6365546
7.4970339
7.5912375
7.5971519
7.5936201
7.6151096
7.7166283
7.7116895
7.7729847
7.7477081
7.7541897
7.6633338
7.6667005
7.5428649
7.6173172
7.4825224
7.4800888
7.4601085
7.6042003
7.518686
7.3483851
7.3211264
7.4461759
7.2889032
7.3915159
7.410109
7.3329832
7.310221
7.1452584
7.112122
6.8703351
7.0840157
7.0330105
6.9899177
6.9139095
6.688423
6.5860014
6.3058451
6.4040227
6.7006143
6.4155956
6.3181612
5.9732832
6.0866859
6.1680849
6.4828282
6.7631564
7.0156843
6.8007811
7.0677783
6.9977144
7.2309864
7.423819
7.5735329
7.4797725
7.4084121
7.218486
7.3471242
7.1501132
6.986917
7.0757849
7.3053731
7.3679186
7.5376915
7.5704083
7.6535686
7.5216494
7.4144988
7.2950459
7.4889607
7.4508991
7.3894554
7.3118301
7.2045807
7.2832794
7.0404587
7.1753108
7.0877126
6.9439507
6.6299775
6.8146313
6.9038038
6.7242776
6.3385953
6.5753443
6.7976993
6.6920737
6.9059223
6.6349088
6.7248639
6.4736991
6.374117
5.9957737
6.3189769
6.418537
6.1109289
6.1941829
6.5544471
6.8733096
7.1453785
7.2002768
7.3436363
7.1226433
6.9350305
6.7242326
7.0401147
6.97895
7.242979
7.1125758
7.3508266
7.3914768
7.1694887
6.8699862
6.8033386
6.4225472
6.6560207
6.276215
6.1911586
6.0974283
6.473468
6.2251987
5.995091
6.4556741
6.8156231
7.1121739
7.3735227
7.6568642
7.6917758
7.6560988
7.3964152
7.46388
7.5193106
7.7217959
7.713565
7.6850336
7.6909043
7.458276
7.4928573
7.5471357
7.4195469
7.4888623
7.5692327
7.6386867
7.7055781
7.6916617
7.6181999
7.6051584
7.4512706
7.5526566
7.5740716
7.4782852
7.4994318
7.589541
7.5976077
7.7032035
7.6385653
7.5127501
7.4177009
7.5742291
7.497349
7.3177708
7.2916706
7.3981791
7.3709083
7.5455696
7.5270779
7.436478
7.458303
7.257632
7.2180808
7.3376818
7.0912941
7.2443994
7.3810509
7.4096634
7.2799952
7.0303858
7.2018372
7.1665536
6.9864646
6.7837958
6.8369027
7.1345984
6.9796486
6.9281177
6.5636687
6.4962262
6.2627768
6.7007637
7.0476916
7.3104979
7.265714
7.1953675
7.108141
7.0248046
6.6954728
6.7968449
6.9105541
6.986296
6.8751159
7.1826334
7.2290907
6.9397031
6.8594396
7.1775483
7.1288832
7.0528611
7.0203516
6.9349282
6.5675047
6.6693362
6.7124958
6.7924513
6.7500654
7.0978345
7.1470199
6.8180019
6.3690854
6.4301862
6.5474497
6.4730033
6.6293439
6.5469981
6.3893593
6.2960187
5.7687243
5.8804963
6.0997378
6.1850807
5.9649569
6.0442322
5.8711559
5.7919052
6.3537746
6.2693732
6.2074461
6.1173414
5.5138082
5.6189557
5.7093494
5.0193683
5.2642528
5.5661756
5.8848926
5.7871066
5.2618736
5.6601658
5.7621735
5.3746857
5.4573876
5.9708127
6.0488711
6.3498389
6.6217459
6.8614371
6.5633626
6.8212459
6.5461547
6.8311335
7.0391663
7.2578295
7.0861681
6.8367156
6.7799003
6.9965056
6.7773901
6.4938414
6.5563712
6.2359489
6.2949644
6.6000406
6.8813758
7.0893886
7.2966435
7.316958
7.1109246
6.9211604
7.1584844
7.1273534
6.8840623
6.6094048
6.6535824
6.914745
7.1061586
6.9090039
6.942411
7.1722013
7.3694977
7.5340674
7.4310483
7.4456764
7.3300361
7.3084301
7.0672248
7.2300831
7.2512045
7.3831103
7.1911707
7.3411895
7.1486637
7.1398978
6.9492135
7.1437674
7.3385489
7.3458252
7.1518926
6.9755293
7.2003878
7.1833159
6.952506
6.6916931
6.7221028
6.968243
6.7162723
6.9671059
6.745453
7.0169183
6.9886808
6.9536508
6.9116117
6.6802192
6.731847
6.3888956
6.667736
6.6193306
6.3299498
6.2658031
5.9238975
5.8473258
5.3826929
5.8005523
6.1633964
6.4978729
6.0807081
5.9877963
5.6138412
5.7159647
5.2985409
5.7154378
5.6134709
5.1823385
4.7307487
5.2129835
5.2987426
4.8270102
4.7417635
4.1785486
4.2743284
4.8217289
4.9010442
5.3821398
5.7992368
5.8716596
6.2329477
5.8747945
5.4575314
4.9757841
5.4595224
4.9766203
5.5357694
5.6145947
6.1238369
6.416747
6.4793171
6.1975213
6.6267149
6.6856051
7.0252408
7.1712012
7.2012096
7.0644731
6.7394831
6.9252699
7.0973112
6.8167003
6.7774248
6.4429381
6.7100036
6.3976716
6.6846533
6.6451677
6.3468762
6.3928559
6.4323392
6.1037494
6.4405861
6.127146
6.4915481
6.2007069
6.5907954
6.5374893
6.8840618
6.2700801
6.340008
5.8664637
5.7806319
6.1353037
6.0667191
5.9963825
5.5347763
5.9433826
6.293899
6.3486157
6.0082839
5.598354
5.9974106
5.9370204
5.528819
5.050844
5.1284803
5.6104819
5.1385139
5.6961618
5.2780819
5.8941699
6.4093183
6.8244661
7.1471191
7.3854859
7.3586845
7.28246
7.3120372
7.0487356
6.998048
7.1015698
6.7651008
6.6168918
6.6827372
6.2028588
6.1228398
6.3367529
5.8103805
5.7299441
5.6503175
5.3418741
5.4188082
4.6715725
5.1086131
5.0342885
4.9599229
4.8736689
5.482123
5.1846974
4.4633778
4.5500509
4.6089606
4.244323
5.0896387
5.1610422
5.0188867
5.7788648
5.7000705
6.2918521
6.2995492
6.7548229
7.1006294
7.3993942
7.6572691
7.687532
7.4507833
7.4427334
7.393602
6.9993095
6.6489451
7.1610291
6.6409726
6.0730194
5.5386309
5.59029
6.1812899
4.7754772
3.6575714
3.6329429
4.6150785
5.6974657
5.9101019
6.7792338
7.2788907
7.3982644
6.7863704
6.2052088
4.8032699
3.1900593
1.7823791
1.9214743
3.1299753
1.9857418
0.91370585
0.79067358
1.8529972
3.7482633
3.7144633
4.642577
6.0974375
7.0194603
5.5926532
6.033071
4.5633516
3.0994823
1.9751017
0.91586687
0.79288706
1.8401257
3.1523594
1.7704224
1.9102751
3.580204
3.5906212
4.713942
6.1356218
6.9777141
5.492381
5.5347347
5.7919463
3.6164388
1.6261999
0.68402467
0.68223008
1.6385953
3.702532
5.8538536
7.0395343
7.4887451
7.629682
7.6791659
7.5495805
7.2671029
7.5487474
7.4752568
7.4280163
7.5355704
7.5820486
7.2602277
7.176921
7.0289509
7.1182879
7.2553777
7.3910878
7.6444348
7.7193473
7.6289605
7.4115031
7.5301472
7.6286466
7.7780707
7.7186129
7.7013562
7.6764513
7.6919823
7.6856635
7.7153786
7.7244374
7.6951287
7.660822
7.6197876
7.3034175
7.3817222
7.4710967
7.5249633
7.4606509
7.4944872
7.5511618
7.6387997
7.7544764
7.7687634
7.7444072
7.7165271
7.5028996
7.5811015
7.6926537
7.7995126
7.8134776
7.796255
7.7266089
7.7221426
7.623392
7.4485671
7.3709557
7.293146
7.2406195
7.2065717
7.2041471
7.2327878
7.2652753
7.2374094
6.9368684
6.9749708
6.9207015
6.8807544
6.4431009
6.5027017
6.5731739
6.515643
5.9468093
6.0362329
5.9517745
5.8602546
5.0958743
5.2402332
5.5006911
5.5905483
4.8326839
4.7445311
5.1888248
4.4956795
5.0543375
4.4776765
4.4061878
4.3401035
4.9026579
4.3644353
4.3056059
4.2569557
3.7439411
3.7710938
2.9983582
3.6557398
3.6133504
2.972938
2.4373561
2.3910105
3.29664
4.2041772
4.0065247
4.8860854
4.8275575
3.9547968
3.054487
3.0101316
1.9976748
2.0651104
1.2835957
1.7239733
2.3478218
3.052969
3.6785166
4.270023
4.762924
5.228588
5.6310881
6.0170465
6.3530745
6.4519844
6.7584465
7.0289958
7.2587154
7.447599
7.3725806
7.2522599
7.4359263
7.5052857
7.3367751
7.3966898
7.5021758
7.3205328
7.3666903
7.1490565
7.0966141
6.9154396
7.1806192
7.1136113
7.0269604
7.1794887
6.9387562
6.7393007
6.8423705
6.6361623
6.9534646
7.2151554
7.4205114
7.3452199
7.129914
6.9954045
7.2442966
7.3206109
7.0888189
7.1576728
7.2798489
7.479392
7.5609117
7.5911558
7.44036
7.2323209
6.9737878
6.7782228
7.082853
7.3283838
7.5144285
7.5935603
7.4886661
7.7058368
7.6700194
7.6358379
7.6348366
7.6935792
7.4521728
7.0395692
6.8715072
6.8794211
7.0177597
6.9953559
7.2172516
7.3866866
7.4442786
7.4995738
7.6382242
7.4479727
7.0653262
7.0616541
7.206097
7.5532074
7.5943016
7.4896561
7.1409511
7.2800095
7.4017882
7.6521977
7.6826522
7.5545849
7.276403
7.5577397
7.2682219
7.4166832
7.6332684
7.7226028
7.5341161
7.6311039
7.5111704
7.3979586
7.3285221
7.4192654
7.4213251
7.4771006
7.5381953
7.7326653
7.7214897
7.5605446
7.6459164
7.5855638
7.6521179
7.6339813
7.6233721
7.4741035
7.498098
7.5162026
7.5267097
7.6080942
7.7120136
7.649754
7.5877342
7.4354068
7.4197561
7.396419
7.5647461
7.5495782
7.3672268
7.2548124
7.4638051
7.4224272
7.3851851
7.304376
7.2371824
7.1565382
6.8743497
6.966567
6.8579284
7.1532482
7.0726203
6.7595691
6.3797544
6.5310531
6.6942877
6.8663708
6.5360581
6.3059787
6.4171435
6.786453
6.8623567
7.0254942
6.7138373
6.4982516
6.5678382
6.9245988
7.2105912
7.0959996
7.3455614
7.2670807
7.2244692
6.932716
7.0388807
6.7000422
6.6207897
6.1955474
6.0915956
5.8786708
5.9897444
6.4715301
6.5522143
6.6220955
6.7668004
6.3524592
6.2786227
6.0726767
6.1486922
5.9818026
6.507724
6.9139494
6.9929497
7.0458399
7.1447926
7.3895128
7.4118451
7.4816901
7.2893019
7.3184384
7.5084202
7.51333
7.3395837
7.0947704
7.2245493
7.3474807
7.4580584
7.2656408
7.2475606
7.2225413
7.4272405
7.4013142
7.1902136
7.0215919
7.2728792
7.3048795
7.06108
7.0934031
7.3295005
7.1996756
7.1682036
7.1295835
6.8330121
6.8805672
6.6859229
7.0229534
6.977504
6.6296417
6.2104663
6.4784076
6.7216699
6.9379603
6.8905078
6.8321747
6.5296808
6.5931447
6.3158845
6.666949
6.6027371
6.5243097
6.1651515
6.0512097
5.6672752
5.768928
6.109469
5.7336691
5.342678
5.2261009
4.8054773
5.2952296
5.7403495
5.8431578
6.2630241
5.9811244
5.4872619
5.3729718
4.8601993
4.9495242
5.3830418
4.8999736
4.3937261
4.2925431
3.7655441
4.4111426
5.014276
5.1064036
5.6872932
5.4058913
4.7259032
4.6311305
3.9312002
3.9728705
4.4698195
3.8201974
3.2024676
3.160531
2.6416788
3.5221244
4.3290827
4.3952104
5.1706781
5.8241854
6.3545182
6.7751933
7.0987089
7.0159019
6.6785699
6.6301487
6.9813145
7.0637915
6.7288541
6.8058893
6.851578
7.1712249
7.2161075
7.1830845
7.1377563
7.1362258
7.0621558
6.979623
6.6733868
6.5012504
5.9081276
5.5927771
5.7792419
6.0346367
6.808499
6.6349321
5.8468619
4.8481947
4.4290266
3.7903419
2.9095134
2.8952708
4.497302
4.967027
3.6922812
3.6264336
4.4377187
5.4193972
6.2067505
6.8533253
6.4540112
7.0912006
7.2532969
7.0250168
6.4126154
6.7929825
6.6055181
5.9904177
4.9912448
5.2347113
5.4291278
4.623412
5.5933633
6.1766102
6.4038688
6.1446212
5.8560304
5.5735893
5.2981527
5.0844269
4.961129
4.9672648
5.6237189
5.721229
6.2658648
6.2000464
6.2884117
5.7281767
5.8076519
5.9055526
6.4358117
6.369598
6.4419921
6.8693714
6.926582
6.9697936
7.266739
7.315923
7.3406153
7.0901749
7.1845285
7.219395
7.4415523
7.4509844
7.2463855
7.1628007
7.3877859
7.3754685
7.130152
6.7977196
6.9246859
7.0620888
6.7367878
6.9216353
6.9561314
7.118935
6.8428484
7.0330355
7.0083784
6.9767514
6.6919739
6.6464496
6.3765873
6.430925
6.7686163
6.8090802
6.4794632
6.730597
6.7625011
6.521946
6.1601531
6.4564824
6.4167393
6.3706317
6.3184889
6.259415
6.1913107
5.8171551
5.888975
5.5011422
5.9253187
5.8526483
6.246672
5.9273356
6.3458775
6.4160161
6.0015234
5.6482671
6.1405324
6.0655717
5.5708129
5.0287998
5.4675223
5.543586
5.0562972
4.9808365
5.4263523
4.9708758
5.4041851
5.319313
4.8618407
4.4028495
4.8881429
4.7894757
4.5948583
4.4368697
3.2729984
3.47057
3.5948499
2.6732146
3.6536641
3.5261555
2.5584503
1.6224403
2.4315425
2.4056059
1.3404658
1.502512
0.8312623
0.72274965
1.6090999
0.94502715
1.6608019
2.5248321
2.5418361
1.6985657
1.6696129
0.90397946
1.6274287
1.4699526
0.79591629
0.44686972
0.51594017
1.007284
0.49075951
0.42412277
0.32432058
0.36060619
0.36850241
0.4994782
0.84141191
1.5183938
2.7800406
4.3192872
5.5132112
6.4509122
6.6254864
6.7784118
6.6016396
5.8001921
5.9905244
5.7009346
4.3819812
4.9104618
4.7892309
3.569893
3.6368625
2.757935
3.0750551
3.9726216
4.8411375
5.5233766
6.1239835
6.5718988
6.9377661
7.0231165
7.0617897
6.9760314
6.626129
6.7258623
6.6738554
6.2146247
6.2892963
6.1980568
5.6339366
5.7391053
5.6298186
5.7120297
5.7916791
6.3767743
6.8226947
7.149607
7.185969
7.1375483
6.8058503
6.8726296
6.9581656
7.2406604
7.1948269
7.1206869
7.0373766
7.1272218
7.2102649
6.9323058
6.8157528
6.7141267
6.8372727
6.4854635
6.3225448
6.4173603
6.5778835
6.14306
5.9209415
5.8065041
6.0363437
6.2646164
6.6591957
6.965848
7.2200472
7.0108775
6.8362707
6.4406638
7.0859387
7.2496928
6.7921696
6.395616
6.1861301
6.6031229
5.9949171
5.3997122
4.9866895
4.4294377
4.6204738
5.5783715
6.1834175
5.4522682
5.2560951
5.9136813
6.4987828
6.9478638
7.3109799
7.5457557
7.6965008
7.7076653
7.3876534
7.3760669
7.722858
7.6982407
7.608209
7.4939358
7.6333363
7.6415889
7.5097693
7.5930751
7.6190611
7.5011141
7.7219282
7.7027216
7.7847413
7.7692563
7.6503568
7.7248715
7.6447285
7.4881652
7.5889576
7.6022365
7.4552726
7.131165
7.3585145
7.2328609
7.0324398
7.4370761
7.6118472
7.0382656
6.1765155
6.9295381
7.0898669
6.693844
6.1409652
6.6966353
6.502931
6.953683
7.2350171
7.3599588
7.6043887
7.4910996
7.3172092
7.460047
7.1351066
7.2523559
7.4876237
7.6944796
7.6880251
7.6505032
7.7295495
7.8163238
7.828178
7.8154878
7.7442474
7.812117
7.7835923
7.8057281
7.775912
7.7932111
7.8365996
7.8152313
7.7945907
7.7210389
7.8137872
7.8183722
7.8005653
7.7881561
7.758595
7.7110704
7.6453359
7.5770715
7.4975288
7.4285245
7.3596322
7.3131852
7.2832538
7.2813769
7.3072065
7.3516019
7.3686381
7.4330494
7.2208052
7.1877921
7.0954067
7.1346152
7.0699512
7.3274796
7.3028298
7.0361313
6.9898292
7.0259673
6.641857
6.7454999
6.8790239
6.9282834
6.8039601
6.3651156
6.5478957
6.4800216
6.28405
6.1246948
6.2153779
6.7072622
6.6561177
6.5870995
6.0384515
6.1338184
5.4131905
5.5513712
5.7943694
6.0693816
5.980988
5.6889633
4.9392902
5.3771422
5.4846283
5.0643718
4.6491597
4.5217653
5.4348463
5.3309425
5.1862016
4.1829282
4.4225238
4.347109
4.2895346
4.068657
4.0345005
4.9511148
4.9694405
4.9021577
5.0624526
4.9933999
4.1998324
4.2639402
4.0285543
4.0608454
4.0999532
5.03939
5.2147302
5.9049204
6.4511375
6.3744436
5.8237752
6.0077702
6.5016421
6.8939817
7.0076449
7.2799238
7.3239118
7.0681275
6.7312689
6.5761255
6.0885581
6.3078901
6.2297099
6.6604271
6.8327715
7.1333357
7.3652405
7.2983718
7.4035514
7.3264396
7.1078061
7.1948951
7.0617244
6.7539418
6.9298823
6.8406597
6.5072483
6.6093309
6.3786493
6.4630755
6.5362453
6.8981998
7.1890905
7.4048187
7.5011724
7.4641188
7.2616756
7.3124866
7.4289052
7.5809933
7.549238
7.4921978
7.4214122
7.5162769
7.5838274
7.4373974
7.321928
7.2357038
7.3611904
7.1674433
7.0087453
7.0972119
7.24775
7.0180145
6.8245004
6.7195305
6.9266806
6.6586937
6.4067004
6.1388459
5.8369167
5.5361411
5.235679
5.321418
5.6251044
5.0365629
4.6269709
4.5306425
4.9426759
4.3373663
3.8237922
3.3790335
3.371399
3.0359349
2.0178842
2.0817086
2.5010444
2.4692228
2.4317327
3.3822084
4.3144709
5.1379702
5.4044962
5.4861092
5.7953004
5.7129904
5.1181576
4.696455
4.7695777
4.3716532
3.4007053
2.9921942
2.9521889
3.286477
3.8336677
4.4255224
3.7368761
3.6946088
2.9933426
3.7998712
3.2902159
2.9794446
1.9044326
2.3326885
2.2699197
2.9906921
2.9943788
3.8795785
3.9434382
4.579664
3.8538388
4.5578958
4.64808
5.2301225
5.6868712
6.0698862
5.6658855
6.0532539
5.6768458
6.0664032
6.0123332
5.9533627
5.5709874
5.9911541
6.0521761
5.6377632
5.7015321
6.1086261
5.7567006
6.1952639
6.5857446
6.5347264
6.1344146
6.0698423
5.7237573
5.7990919
6.2768999
6.3401994
6.3990492
6.6308816
6.2513895
5.9469755
5.8738106
5.3469149
5.2630347
5.6872295
5.616192
5.1306186
5.2055935
4.6913018
4.6102682
5.1821219
5.1046893
4.5355189
4.4649655
3.8707563
4.5375764
5.1848473
5.7717128
5.849465
5.2615086
4.8627864
5.5627791
5.4857573
4.7931282
4.0174266
4.0681612
4.6065629
3.9255766
3.2386029
3.2170052
2.5788881
3.532142
4.4463289
5.2443969
5.3173116
4.5023271
4.2673071
5.1656487
5.8829285
5.9584938
6.0570081
6.2215769
6.4206598
6.825312
6.8777394
6.4853686
6.2933772
6.7436406
6.6851818
6.5739788
6.6366602
7.0174979
7.294169
7.2641312
7.23583
7.2342878
7.4753072
7.7009419
7.7017901
7.6925971
7.5056893
7.3312594
7.3466116
7.0984212
7.061434
7.0225592
7.3033915
7.3199729
7.061842
6.6958139
6.7515359
6.8467539
6.9656283
6.6032019
6.7818432
6.8205457
6.9838938
7.1377218
7.2772882
7.3989848
7.4979765
7.6034599
7.6694475
7.6831467
7.5655536
7.4363382
7.1592453
7.1510792
6.9735277
7.1503805
7.3962724
7.2927626
7.3177634
7.5662908
7.5275035
7.6186618
7.6839099
7.7747671
7.6519874
7.5944361
7.707943
7.7339837
7.7451948
7.78744
7.7708296
7.7998025
7.7560716
7.7394766
7.7024115
7.7194025
7.6720266
7.6689292
7.6806763
7.7297643
7.7121096
7.5902467
7.3861648
7.3492668
7.5387637
7.549331
7.4970994
7.4748216
7.5222542
7.5757996
7.6416943
7.5950547
7.5902838
7.6427205
7.6126295
7.6490648
7.5932957
7.5642381
7.5191303
7.5637912
7.570152
7.5067064
7.5277135
7.519881
7.5093124
7.5633531
7.525338
7.4819535
7.4597762
7.4462125
7.5009446
7.5630876
7.6244517
7.6601087
7.6059702
7.6586962
7.6709455
7.6254648
7.5975427
7.6178642
7.5268694
7.5929028
7.6502268
7.7724394
7.7320553
7.7532384
7.7963749
7.766605
7.7847303
7.7430047
7.7360262
7.6996486
7.7272232
7.706308
7.6676522
7.6787091
7.65659
7.6705249
7.7174312
7.6713294
7.7003912
7.7364352
7.7712977
7.7538049
7.7335419
7.7495647
7.6664038
7.7140092
7.6979449
7.6593473
7.6505259
7.7282667
7.7448764
7.7237476
7.7060407
7.636153
7.6709796
7.691753
7.6018323
7.56161
7.6014579
7.6204874
7.6100613
7.5434609
7.5462696
7.3915613
7.4935553
7.4825091
7.3927123
7.3899881
7.5368415
7.5256451
7.586032
7.4638468
7.4813644
7.3485943
7.3964076
7.5628868
7.7023266
7.7388999
7.7756752
7.757645
7.7019315
7.718591
7.672952
7.7554805
7.7386234
7.6648551
7.655229
7.6953061
7.748363
7.7269227
7.6741558
7.6402832
7.7100671
7.7328196
7.6952555
7.6890237
7.740651
7.6585646
7.7838947
7.7167911
7.6391471
7.7499184
7.7050893
7.6163603
7.5815753
7.6517111
7.6627284
7.6992073
7.7150169
7.6728048
7.5456841
7.4877836
7.5331977
7.619943
7.6354498
7.6872047
7.6704122
7.602536
7.6239452
7.6637591
7.5772871
7.5887815
7.6049298
7.6137961
7.6249805
7.5532248
7.5492086
7.3985582
7.4860669
7.4841203
7.4660362
7.3850752
7.5295345
7.5415364
7.3944755
7.2165636
7.350802
7.3513452
7.4198007
7.3531578
7.3484429
7.2107645
7.204612
6.9867104
7.1700768
7.1658738
6.9979858
7.0046669
7.212329
7.2072786
7.3815581
7.3696546
7.51117
7.620362
7.6953299
7.7120346
7.6847266
7.6672294
7.5995749
7.6331395
7.6609348
7.5748739
7.5447424
7.4871597
7.6242326
7.6686501
7.6400282
7.6209865
7.652408
7.5787106
7.6179572
7.5884672
7.5539591
7.4483003
7.5057597
7.5315694
7.5506451
7.4922006
7.352296
7.4313008
7.4584203
7.3285048
7.3744976
7.3262629
7.291269
7.4176466
7.3881917
7.3107982
7.3331454
7.4714131
7.3963369
7.524638
7.6158495
7.6030537
7.6574256
7.5879311
7.3845907
7.3472967
7.29218
7.496251
7.5474171
7.6403255
7.5748903
7.5938428
7.5912602
7.6472261
7.6106711
7.6416153
7.5889467
7.5617213
7.5362702
7.5890879
7.5353404
7.5716656
7.5910181
7.6234102
7.6034882
7.5689774
7.5018213
7.5385547
7.5722839
7.5295732
7.4238975
7.4875069
7.4601851
7.3947271
7.4333622
7.5194849
7.4859508
7.5395817
7.5131626
7.5496286
7.4754404
7.4456605
7.3415615
7.4034244
7.287587
7.3212547
7.3398227
7.4567147
7.3970551
7.2612544
7.2874467
7.3743316
7.2479503
7.2891767
7.4607949
7.5899318
7.5368166
7.3958716
7.4345034
7.5204724
7.5728628
7.5921469
7.6249614
7.6418493
7.5899941
7.5559411
7.6231453
7.6550442
7.5809204
7.4735876
7.4948261
7.5525004
7.4327509
7.4601457
7.3724849
7.5145263
7.4372818
7.5692546
7.5848612
7.6744624
7.6222749
7.6431783
7.644577
7.7005644
7.714074
7.6097422
7.6053224
7.5318055
7.5324247
7.6568646
7.5970496
7.5883131
7.4498248
7.4459927
7.3559293
7.5282565
7.5218135
7.3646227
7.3686073
7.44905
7.5272549
7.5977426
7.4602494
7.4645854
7.4640183
7.3591007
7.3646915
7.150025
7.2828012
7.2828295
7.2772857
7.4509205
7.3587957
7.5167914
7.4417104
7.5701251
7.5880685
7.5263938
7.5094817
7.3649737
7.1571252
7.2588472
7.2599302
7.3644884
7.1557818
7.1552355
7.024362
7.0182492
7.0045967
7.254548
7.242639
7.1208651
7.140121
6.8519778
6.8755079
7.1522927
7.0482051
7.2918709
7.4731186
7.5454086
7.6717801
7.6405203
7.5655446
7.6460698
7.6794601
7.6223633
7.5357452
7.4697175
7.5889696
7.5652514
7.6234056
7.6469943
7.6891623
7.7144011
7.561949
7.5131285
7.5010852
7.4731723
7.5143151
7.4559645
7.5049282
7.5619857
7.6134742
7.5851304
7.6353595
7.5490304
7.4840465
7.5027827
7.3478358
7.3322546
7.4194684
7.2517808
7.3545716
7.3349218
7.4185466
7.3890376
7.5069254
7.4497594
7.3120821
7.1460427
7.2646161
7.2917537
7.3065178
7.3296567
7.3365489
7.1611835
7.1760439
7.1679191
7.1726063
7.3569163
7.2121375
7.2166116
7.0031527
6.9934718
6.7466539
6.9893282
6.9953288
6.7599031
6.7418887
6.4652708
6.4911881
6.763458
6.7744634
7.0037909
7.1746543
7.1602406
7.3349832
7.0035887
6.7760167
6.9976027
6.7778285
7.0060405
7.2104478
7.200559
7.1850323
6.9874392
7.1363942
7.1608764
6.9999822
6.7757559
6.9950032
7.1603521
7.1359987
7.305749
7.1833859
7.1981017
6.9981437
6.9861563
6.9716474
7.166293
7.1451086
7.2641735
7.0977731
7.1276859
6.9674858
7.127932
7.0979644
6.9527076
6.972412
7.1672632
7.0327128
7.2332536
7.39873
7.52727
7.6188276
7.5874615
7.5024012
7.4385604
7.5372026
7.5706466
7.4630826
7.3129786
7.29062
7.3754124
7.211527
7.1006416
7.1204348
7.1368108
7.148531
7.266753
7.0602878
7.0668919
7.0677922
7.0625567
7.0510691
6.7877954
6.8060893
6.5868622
6.889845
6.8697265
6.5578736
6.2056478
6.4897939
6.515931
6.1928604
6.1572493
6.1147852
5.761615
5.3560415
5.8231538
5.4319751
4.8701637
4.778293
5.2811128
4.7833616
5.2610164
5.1904834
5.6141254
5.5482289
5.4788621
5.0196487
4.944081
4.4815335
4.5558339
5.0462251
4.5543319
4.4810968
4.4035455
4.3277568
3.8196961
4.2928092
3.7894626
3.8696467
4.3432802
3.7486902
3.2680165
3.1871776
2.7505562
3.3206761
3.3791135
3.9020922
3.3351461
3.8482098
3.7742523
3.2517197
2.7826759
2.8426785
2.3357463
2.8107789
2.8617012
3.3220401
3.8071161
4.4190939
4.4912319
3.86626
3.3780427
4.0099413
3.9404495
3.4442122
3.9738871
4.0439392
3.4493584
3.9746492
3.9112005
3.3913526
2.8941841
2.9481647
3.5092016
2.9152179
2.4229224
2.3773199
1.8071614
2.2046423
2.6089837
3.0949843
3.0678755
2.332171
1.8452315
2.5841485
2.5610152
1.8426331
1.2161451
1.1450829
1.6327661
1.156362
0.69633731
0.79333124
0.55062827
0.93777906
1.4987823
2.1603136
2.176618
1.5009778
1.2047427
1.7828111
1.7574077
2.2727134
1.7833123
2.2188146
2.6553203
3.184261
3.2074655
2.6828857
1.9636643
2.5023139
2.5087891
1.9582625
1.5766583
1.577822
2.2356516
1.8093916
1.2511744
1.2391368
0.79145885
1.0148663
1.3337043
1.8950595
1.8091465
2.6139653
3.5183925
3.2194423
4.1881675
5.0301108
5.0975146
4.2248501
3.2038241
3.1942409
3.5525813
2.5488827
2.0391441
2.1199618
2.2017994
2.2577118
3.2497033
4.1277405
4.119648
4.1785139
5.0231155
5.7230861
6.2848212
6.7262731
6.6277104
6.6716565
7.0108453
7.09355
6.7681796
6.8444574
6.8034421
6.8667861
7.1816337
7.2111005
7.1662335
7.217018
7.4833688
7.703019
7.6691873
7.6710967
7.7228067
7.7209988
7.7026616
7.6800401
7.6919083
7.5041254
7.5566029
7.7192991
7.7302921
7.5333492
7.6270552
7.7721131
7.749067
7.5866256
7.6936832
7.8010871
7.7804836
7.8167453
7.7228637
7.3758272
7.6980061
7.8364195
7.8145059
7.7968235
7.7566631
7.6407773
7.7263213
7.7222149
7.791659
7.7744603
7.8281657
7.8143768
7.7417885
7.8111782
7.7837375
7.7700641
7.7079367
7.6196544
7.5008678
7.6976934
7.5462255
7.6501616
7.7224484
7.6994732
7.7208479
7.6422849
7.4831247
7.3092899
7.0265667
6.9412318
7.1241092
7.452925
7.5972948
7.5808405
7.2224022
7.3486312
7.0716074
6.6776818
6.482711
6.1487141
5.8790747
6.107338
6.662367
6.465764
6.9096645
7.2155431
7.0112808
7.4274475
7.6080962
7.5073507
7.5913404
7.640216
7.6321863
7.4926947
7.6071391
7.7191439
7.8127624
7.7935504
7.8148955
7.7867624
7.7987312
7.8159762
7.8031697
7.7810939
7.7286547
7.5919901
7.5171361
7.4256213
7.334641
7.2338557
7.1472358
7.0651593
7.1457166
6.8473567
6.7492105
6.8617145
6.9539267
7.227606
7.2950038
7.3363086
7.2596806
6.982462
6.906986
6.4973842
6.4383084
6.3658537
5.8022894
5.8772027
5.9664675
5.8909661
6.4257715
6.3445992
6.2564793
6.1966117
5.6191048
5.7082047
5.8103678
5.9700704
6.4571589
6.3659322
5.8600009
6.0700828
6.51466
6.6039005
6.1732322
6.2557263
6.0521993
6.5373811
6.9221252
7.0261442
7.0835126
6.749725
6.6072575
6.1274425
6.3291127
6.3973684
6.1999613
6.0410538
5.9525068
6.5058756
6.5097389
6.5744892
6.976259
6.9739073
7.2628027
7.2896916
7.2620283
6.9627919
6.9241487
7.0110049
7.0553845
7.0203377
7.3019408
7.3187769
7.0597002
7.0928035
7.3427714
7.3270286
7.3696598
7.334134
7.3088515