/*--------------------------------*- C++ -*----------------------------------*\
  =========                 |
  \\      /  F ield         | OpenFOAM: The Open Source CFD Toolbox
   \\    /   O peration     | Website:  https://openfoam.org
    \\  /    A nd           | Version:  7
     \\/     M anipulation  |
\*---------------------------------------------------------------------------*/
FoamFile
{
    version     2.0;
    format      ascii;
    class       volVectorField;
    location    "120";
    object      U;
}
// * * * * * * * * * * * * * * * * * * * * * * * * * * * * * * * * * * * * * //

dimensions      [0 1 -1 0 0 0 0];

internalField   nonuniform List<vector> 
25278
(
(120.0349 0.0030079778 -0.00035794702)
(120.03099 -0.0041036186 -0.03101939)
(120.02642 -0.010859473 -0.01922986)
(120.02702 -0.019032157 -0.013181719)
(119.99789 -0.038817196 -0.010974832)
(120.03295 -0.033642994 -0.0072525267)
(120.04191 -0.00073686351 0.0020690699)
(120.03544 -0.00013665223 0.0019204728)
(120.03971 0.0030900261 0.00019054832)
(120.05772 0.0016345304 -0.01012088)
(120.04938 -0.0052414969 -0.010707305)
(120.04032 -0.0046584331 -0.0061200257)
(120.0355 -0.018096936 -0.020211685)
(120.02092 -0.028598179 -0.031093794)
(119.83493 -0.081989168 -0.11870611)
(120.02591 0.010489723 -0.018817691)
(120.03049 0.0049599253 -0.030282062)
(119.87414 -0.096756427 -0.14704023)
(119.81123 -0.034202948 -0.18725464)
(119.91642 -0.043738657 -0.18093922)
(120.00392 -0.0097434749 -0.092848998)
(120.01204 -0.032483018 -0.076475642)
(120.0206 -0.037151462 -0.056037483)
(120.04636 -0.024136519 -0.037685274)
(120.06888 -0.048324678 -0.052912734)
(120.04733 -0.036497291 -0.028280184)
(120.02113 -0.05483891 -0.041846618)
(120.00868 -0.080047587 -0.08458283)
(119.96581 -0.07646776 -0.1245745)
(120.0084 -0.07482632 -0.12166027)
(119.99299 -0.071386106 -0.15271047)
(119.9366 -0.071352458 -0.16451364)
(119.87363 -0.13641568 -0.24178695)
(119.91877 -0.13726937 -0.17161993)
(119.98525 -0.12821272 -0.17730255)
(119.95126 -0.11726794 -0.21086747)
(119.98419 -0.11473843 -0.20945858)
(119.96838 -0.10697413 -0.24404616)
(119.92808 -0.10782469 -0.24683476)
(119.88304 -0.15256282 -0.30043623)
(119.91057 -0.16386603 -0.25011954)
(119.956 -0.15962151 -0.25337355)
(119.93359 -0.15052762 -0.29974782)
(119.98994 -0.14444725 -0.28021259)
(120.01362 -0.09683152 -0.22458146)
(120.05404 -0.055532866 -0.12070048)
(120.05441 -0.017259068 -0.051341488)
(120.06153 -0.0048091111 -0.061183657)
(120.05168 -0.035240858 -0.1385718)
(119.97761 -0.045572525 -0.17551503)
(119.97161 -0.012607876 -0.18191464)
(119.90555 -0.011284031 -0.18715443)
(119.81318 -0.023912277 -0.30141206)
(119.83185 -0.09104917 -0.2916523)
(119.91194 -0.089755731 -0.26684748)
(119.95527 -0.090133149 -0.2689437)
(119.94776 -0.065131578 -0.28880811)
(119.89962 -0.063238371 -0.28552735)
(119.84224 -0.093850075 -0.36213549)
(119.85869 -0.13010568 -0.33440788)
(119.91095 -0.1312663 -0.34310429)
(119.90023 -0.097597865 -0.37192988)
(119.89028 -0.058086597 -0.38640321)
(119.94274 -0.039039489 -0.29661593)
(119.89332 -0.037507692 -0.28940433)
(119.89071 -0.007831239 -0.29143468)
(119.94122 -0.0086922686 -0.29920464)
(119.88791 -0.014386967 -0.38890572)
(119.82789 -0.012727075 -0.36971928)
(119.83106 -0.054502032 -0.36885215)
(119.74224 -0.07531528 -0.45133594)
(119.76191 -0.13058035 -0.44336249)
(119.78679 -0.17728548 -0.40092792)
(119.82129 -0.20778418 -0.35414345)
(119.86523 -0.20924202 -0.28429179)
(119.9345 -0.21198749 -0.21715936)
(119.98436 -0.17572222 -0.13629902)
(120.00798 -0.12168439 -0.083511431)
(120.01251 -0.079193742 -0.039761204)
(119.96604 -0.084950011 -0.04467957)
(119.93577 -0.077862292 -0.039232206)
(119.83174 -0.12218613 -0.089410657)
(119.87169 -0.15008177 -0.10517621)
(119.8015 -0.20553568 -0.044690572)
(119.94598 -0.10496115 -0.016988641)
(119.91093 -0.092861882 -0.014394944)
(119.75912 -0.16127706 -0.037787037)
(119.52674 -0.22806839 -0.10694145)
(119.63097 -0.17844488 -0.13400879)
(119.74009 -0.12950158 -0.1319169)
(119.75229 -0.15120822 -0.15436947)
(119.64678 -0.14865252 -0.20032101)
(119.6362 -0.12766241 -0.17504851)
(119.45494 -0.20506192 -0.20745731)
(119.4755 -0.22807043 -0.23129624)
(119.6419 -0.2034031 -0.15630104)
(119.66414 -0.2283062 -0.17409933)
(119.77026 -0.16282065 -0.16634931)
(119.79279 -0.19211869 -0.19631724)
(119.68937 -0.20278007 -0.2697607)
(119.66829 -0.16582557 -0.22545059)
(119.49738 -0.27070407 -0.2745318)
(119.53302 -0.32269853 -0.327491)
(119.68609 -0.27183843 -0.21208082)
(119.5877 -0.35916896 -0.16770585)
(119.56624 -0.29488104 -0.13641532)
(119.5431 -0.25907806 -0.12377461)
(119.21337 -0.35506695 -0.22298049)
(119.18455 -0.31407909 -0.20011159)
(118.90139 -0.38603424 -0.1010763)
(119.4348 -0.25361401 -0.040249642)
(119.45342 -0.27815775 -0.044896628)
(118.92708 -0.42390157 -0.11393316)
(118.95265 -0.50232186 -0.13726912)
(119.24635 -0.42668948 -0.25883163)
(119.30263 -0.51639284 -0.3187021)
(119.00702 -0.60956534 -0.17894742)
(119.50711 -0.37859807 -0.062343718)
(119.48172 -0.30972624 -0.048436411)
(119.47551 -0.31077761 0.036218266)
(119.79914 -0.20718301 0.040446325)
(119.94547 -0.10575954 0.014161167)
(119.99789 -0.03951786 0.0095932393)
(119.62297 -0.13646506 0.17913456)
(119.43699 -0.21484705 0.20810409)
(119.16245 -0.32280423 0.19339818)
(118.88826 -0.38807114 0.08610879)
(119.43071 -0.25463416 0.0321366)
(119.75694 -0.16278688 0.03353791)
(119.91041 -0.093587213 0.011858664)
(119.93476 -0.080111962 0.037557085)
(119.96533 -0.087493856 0.042949027)
(119.86822 -0.15476502 0.10362081)
(119.8282 -0.12616118 0.08778385)
(119.62219 -0.18416404 0.13247871)
(119.51775 -0.23242819 0.10180894)
(119.5332 -0.26404157 0.11730035)
(119.44857 -0.2792346 0.034227943)
(118.91059 -0.42627938 0.092548657)
(119.18877 -0.36527047 0.21363202)
(119.21829 -0.43818441 0.24673276)
(118.93072 -0.50567988 0.10794922)
(118.97673 -0.61532862 0.13948783)
(119.49899 -0.37996532 0.047701799)
(119.57521 -0.36434148 0.15996735)
(119.5556 -0.29995924 0.12926564)
(119.65447 -0.23482113 0.17150178)
(119.63264 -0.20963972 0.15413281)
(119.45678 -0.23901941 0.23089602)
(119.63343 -0.15868799 0.20406017)
(119.82861 -0.08873294 0.12298458)
(119.7328 -0.13583823 0.13275989)
(119.74492 -0.15825261 0.15501394)
(119.76284 -0.17010398 0.16692748)
(119.86863 -0.10421271 0.15154173)
(119.78483 -0.20033981 0.19727689)
(119.67533 -0.2790393 0.20923775)
(119.51167 -0.33526068 0.32499006)
(119.26925 -0.52814739 0.3043758)
(118.5182 -0.69547492 0.66239475)
(116.84694 -0.93489495 0.57977499)
(116.95421 -0.93433711 -0.67153487)
(118.5987 -0.66475241 -0.67380461)
(119.30922 -0.30440773 -0.50749771)
(119.5978 -0.15297696 -0.34501617)
(119.57787 -0.12357255 -0.28075322)
(119.50645 -0.031591853 -0.27966285)
(119.52938 -0.041586193 -0.34653643)
(119.02621 -0.14044047 -0.56863515)
(118.98115 -0.10747244 -0.46321372)
(119.25623 -0.24638181 -0.41651309)
(118.51223 -0.53877247 -0.5443032)
(117.03241 -0.44916323 -0.69588746)
(116.90828 -0.61122578 -0.89546465)
(107.84156 -1.7838757 -1.6734714)
(110.07525 -1.297045 -1.2198188)
(117.03336 -0.73307944 -0.4903465)
(116.9606 -0.73578595 0.43499866)
(110.06415 -1.2923581 1.2761493)
(107.83538 -1.7944621 1.7356306)
(116.80358 -0.6857563 0.90988633)
(116.93118 -0.50533213 0.72040947)
(118.44638 -0.5642497 0.53603872)
(119.21915 -0.26386675 0.42494067)
(119.47759 -0.28269059 0.27327418)
(119.6552 -0.17626497 0.22896402)
(119.6759 -0.21415774 0.27301136)
(119.57662 -0.16794305 0.35612199)
(119.27129 -0.32308259 0.51274096)
(118.97019 -0.17935017 0.59996845)
(118.9259 -0.13779565 0.49402053)
(119.475 -0.047538848 0.30249179)
(119.79926 -0.043234842 0.20121864)
(119.55694 -0.13669641 0.29202389)
(119.49738 -0.061820955 0.37050214)
(119.59259 -0.073101564 0.44760653)
(119.08712 -0.23376291 0.77288786)
(116.74878 -0.91879206 1.2550784)
(105.11991 -2.468286 2.3253557)
(105.1319 -2.4154795 -2.2719819)
(116.85568 -0.83370972 -1.2396579)
(119.13981 -0.1860369 -0.73993363)
(119.62264 -0.05112716 -0.42048532)
(119.67384 -0.17346951 -0.40681672)
(119.75716 -0.22820022 -0.30656628)
(119.85044 -0.19926867 -0.20376173)
(119.91771 -0.17033186 -0.14471519)
(119.96503 -0.12492908 -0.084476672)
(119.93396 -0.17056744 -0.080860262)
(119.99131 -0.15799352 -0.082007523)
(119.94925 -0.21392606 -0.12751835)
(119.87026 -0.24687026 -0.14713851)
(119.90818 -0.25225961 -0.17399419)
(119.95372 -0.25530439 -0.17013878)
(119.98232 -0.21242535 -0.1254554)
(119.96523 -0.25107077 -0.11862717)
(119.92449 -0.25418134 -0.11881787)
(119.87902 -0.30695816 -0.16422397)
(119.92997 -0.30568948 -0.162588)
(119.9864 -0.28576074 -0.15753112)
(120.00757 -0.23585321 -0.15886865)
(120.06175 -0.13948873 -0.10949317)
(120.05373 -0.094921088 -0.065652653)
(120.0565 -0.053298675 -0.023896308)
(120.08182 -0.055302165 -0.039431827)
(120.11642 -0.079866013 -0.065527305)
(120.09688 -0.12874213 -0.078268654)
(120.09962 -0.075578724 -0.042430621)
(120.0539 -0.12529247 -0.066661547)
(120.02252 -0.19290389 -0.11382307)
(120.0647 -0.163929 -0.097372259)
(120.06697 -0.20391632 -0.13824594)
(120.05491 -0.24941018 -0.1403404)
(120.0604 -0.2006841 -0.095828686)
(120.01096 -0.23142924 -0.10922153)
(120.00201 -0.2607966 -0.096619858)
(120.0506 -0.1507254 -0.046990112)
(120.06509 -0.070246121 -0.011255476)
(120.00381 -0.10311244 -0.016349324)
(119.91206 -0.19319639 -0.053364447)
(119.97428 -0.18813325 -0.056369374)
(119.90694 -0.27864116 -0.10126616)
(119.82431 -0.30664167 -0.10372497)
(119.85263 -0.34637306 -0.1429952)
(119.90528 -0.3550919 -0.14466001)
(119.95071 -0.28084046 -0.10239775)
(119.94138 -0.30689465 -0.077545916)
(119.89242 -0.30357236 -0.074792997)
(119.83365 -0.38105262 -0.10771078)
(119.8926 -0.39045279 -0.11195057)
(119.87979 -0.41303043 -0.072108657)
(119.93462 -0.32049766 -0.050347509)
(119.96614 -0.20299005 -0.020899012)
(119.89825 -0.20785858 -0.018635931)
(119.80052 -0.32884071 -0.035597272)
(119.88467 -0.31259611 -0.048002304)
(119.81989 -0.39485077 -0.067899919)
(119.81296 -0.40289272 -0.023694387)
(119.87943 -0.32039715 -0.015692368)
(119.93084 -0.32914063 -0.017520001)
(119.87435 -0.42269863 -0.026232395)
(119.9522 -0.41537016 -0.028003738)
(119.95629 -0.40277891 -0.07516478)
(119.96261 -0.37674639 -0.11318135)
(119.97088 -0.33895903 -0.14325489)
(120.0498 -0.29773636 -0.12994349)
(120.05788 -0.22725123 -0.085327891)
(120.05957 -0.25131582 -0.066588569)
(119.99722 -0.28679371 -0.073729126)
(119.99374 -0.30125595 -0.049484452)
(120.05124 -0.16407266 -0.018979176)
(120.1194 -0.092534501 -0.013629932)
(120.10913 -0.087314122 -0.027757616)
(120.10332 -0.17814855 -0.068332272)
(120.10058 -0.15780672 -0.076425723)
(120.13021 -0.10446907 -0.052720582)
(120.11973 -0.082211789 -0.052233676)
(120.14794 -0.10216918 -0.074847169)
(120.1148 -0.15865635 -0.11037714)
(120.11425 -0.1957451 -0.11209427)
(120.15767 -0.13272963 -0.07889343)
(120.17256 -0.15667572 -0.073249857)
(120.13816 -0.11657304 -0.045929876)
(120.15045 -0.12613415 -0.037205959)
(120.11063 -0.19638664 -0.054472008)
(120.12987 -0.26156788 -0.0878534)
(120.12006 -0.23383621 -0.10589833)
(120.09581 -0.31226435 -0.15894264)
(120.09479 -0.28389608 -0.16121368)
(120.09545 -0.25166498 -0.16136625)
(120.12624 -0.18928031 -0.14140053)
(120.1495 -0.094617417 -0.10216406)
(120.11604 -0.056202014 -0.082710006)
(120.08057 -0.030897014 -0.05611062)
(120.05337 -0.056937436 -0.095366106)
(120.06218 -0.10068252 -0.14173282)
(120.02401 -0.10261086 -0.19028038)
(120.06555 -0.085367572 -0.16147062)
(120.06225 -0.082371595 -0.19386159)
(120.05789 -0.12588902 -0.24410308)
(120.0686 -0.1259792 -0.2027828)
(120.00958 -0.14768945 -0.23445596)
(119.98936 -0.20093376 -0.2822352)
(120.05551 -0.17836567 -0.18461253)
(120.06545 -0.17064996 -0.24425279)
(120.02517 -0.18303094 -0.30343783)
(119.98838 -0.19531832 -0.32253313)
(119.95239 -0.20113204 -0.33236559)
(119.8818 -0.22037257 -0.37143863)
(119.92077 -0.21523428 -0.29411605)
(119.8855 -0.29483011 -0.35469166)
(119.81154 -0.28787306 -0.33614685)
(119.76381 -0.28876694 -0.42728092)
(119.84332 -0.30482596 -0.45057953)
(119.78706 -0.43553626 -0.5362246)
(119.84018 -0.38901818 -0.39455007)
(119.88424 -0.3524771 -0.30304462)
(119.91886 -0.29423436 -0.22480151)
(119.8631 -0.28476642 -0.21857487)
(119.75448 -0.30837891 -0.23794388)
(119.81018 -0.33421537 -0.29581079)
(119.76091 -0.42992492 -0.30027446)
(119.81746 -0.35928828 -0.21950153)
(119.87841 -0.37587121 -0.23226337)
(119.84085 -0.45248953 -0.31627245)
(119.78632 -0.53449229 -0.44516244)
(119.69214 -0.49063584 -0.39692554)
(119.75822 -0.36178886 -0.36706939)
(119.60785 -0.39670662 -0.40196635)
(119.69332 -0.38700905 -0.49165313)
(119.61563 -0.55170678 -0.55778309)
(119.74053 -0.6112392 -0.61737744)
(119.87194 -0.56377987 -0.57003434)
(119.88397 -0.48248258 -0.54178216)
(119.89927 -0.39769187 -0.48740241)
(119.91155 -0.33573659 -0.45011819)
(119.9253 -0.27661993 -0.40679326)
(119.93606 -0.23843588 -0.37291194)
(119.98033 -0.22894929 -0.36294348)
(119.96976 -0.2256358 -0.40458307)
(119.97746 -0.18976278 -0.35733744)
(119.93435 -0.1948002 -0.36911925)
(119.92141 -0.23394681 -0.41749463)
(119.90811 -0.28164998 -0.46141905)
(119.96288 -0.27801346 -0.45375617)
(119.97522 -0.27022428 -0.39830686)
(119.9729 -0.28209773 -0.34581496)
(120.07735 -0.24382148 -0.30682539)
(120.02407 -0.2552008 -0.37966671)
(120.0225 -0.21573986 -0.3420979)
(120.06806 -0.19619596 -0.3158354)
(120.0642 -0.16615215 -0.27817813)
(120.0601 -0.16377782 -0.31112165)
(120.0167 -0.17835649 -0.33813856)
(120.01336 -0.21357045 -0.38400585)
(120.06321 -0.19668977 -0.35618886)
(120.07427 -0.24434684 -0.40541314)
(120.07692 -0.23267214 -0.35099003)
(120.09417 -0.28368475 -0.39298549)
(120.03093 -0.30988917 -0.42324625)
(119.97301 -0.32583306 -0.44335711)
(119.96366 -0.33241118 -0.50889209)
(119.89852 -0.34020173 -0.51788821)
(119.88312 -0.41385757 -0.5688093)
(119.96026 -0.41441163 -0.567154)
(119.96893 -0.3941459 -0.48421075)
(119.95007 -0.39142654 -0.39743267)
(119.97166 -0.34309729 -0.29081976)
(119.9875 -0.28183277 -0.21095397)
(120.06371 -0.24334843 -0.18190641)
(120.07608 -0.30306512 -0.25403098)
(120.02132 -0.38019105 -0.2677737)
(120.01946 -0.34400261 -0.22851563)
(120.02211 -0.3064732 -0.19604603)
(119.98524 -0.32576153 -0.20765121)
(119.94931 -0.3357042 -0.21301005)
(119.93304 -0.37531609 -0.24993176)
(119.97726 -0.36513306 -0.24091421)
(119.96572 -0.40912449 -0.23876676)
(119.9733 -0.36310497 -0.20297889)
(119.93011 -0.37512118 -0.20745886)
(119.91736 -0.42234092 -0.24653336)
(119.90453 -0.46509948 -0.29426347)
(119.92268 -0.40802212 -0.28781249)
(119.97257 -0.39920799 -0.28190773)
(119.97087 -0.44261185 -0.3369679)
(119.90949 -0.44977705 -0.34629569)
(119.89567 -0.51988734 -0.35248764)
(119.96074 -0.51041073 -0.3452927)
(119.95932 -0.45700663 -0.2911655)
(120.01322 -0.43844492 -0.27863926)
(120.00923 -0.38842685 -0.22774526)
(120.01255 -0.34386881 -0.19245215)
(120.0562 -0.31692248 -0.17899816)
(120.06139 -0.28122751 -0.1802065)
(120.06513 -0.31765651 -0.21012075)
(120.05919 -0.36058471 -0.21209439)
(120.07047 -0.40828719 -0.26010235)
(120.07421 -0.35127766 -0.2465469)
(120.09189 -0.3911891 -0.2973133)
(120.02869 -0.42196329 -0.32201911)
(120.02197 -0.49113906 -0.33237171)
(120.09081 -0.45915078 -0.31106417)
(120.15524 -0.41363194 -0.27944247)
(120.14773 -0.35095438 -0.26497902)
(120.16281 -0.23374215 -0.19400354)
(120.22504 -0.14246073 -0.12226629)
(120.17141 -0.11713766 -0.093366361)
(120.15446 -0.17669785 -0.11716996)
(120.12955 -0.21359303 -0.13825225)
(120.14578 -0.24234594 -0.16113557)
(120.1062 -0.28346937 -0.18753475)
(120.10534 -0.32231794 -0.19057406)
(120.14899 -0.27928352 -0.16683986)
(120.13282 -0.24378616 -0.1404798)
(120.16163 -0.20167935 -0.11780514)
(120.18493 -0.15282888 -0.090934527)
(120.17434 -0.13201399 -0.088385904)
(120.1989 -0.14879904 -0.10118244)
(120.17583 -0.19766847 -0.13431274)
(120.18346 -0.22693681 -0.13703665)
(120.21004 -0.17431519 -0.10659256)
(120.24569 -0.19494525 -0.12612665)
(120.22696 -0.16175132 -0.11437529)
(120.20092 -0.2189544 -0.15457597)
(120.16698 -0.26790315 -0.18766856)
(120.12086 -0.31536505 -0.21930256)
(120.12548 -0.36741187 -0.23325342)
(120.17562 -0.31692397 -0.20342576)
(120.21413 -0.35640382 -0.24327468)
(120.2016 -0.29803412 -0.22609667)
(120.2418 -0.24311611 -0.18466251)
(120.2711 -0.17597454 -0.13423225)
(120.29395 -0.21490322 -0.14783515)
(120.26086 -0.2890435 -0.19602527)
(120.21616 -0.25851713 -0.16535886)
(120.23421 -0.29541463 -0.17195637)
(120.19545 -0.2566688 -0.14158193)
(120.16858 -0.22170259 -0.11712198)
(120.13734 -0.26851498 -0.1387195)
(120.15697 -0.31577387 -0.16983339)
(120.1094 -0.36363487 -0.1935687)
(120.05849 -0.4056547 -0.21249248)
(120.05451 -0.34822594 -0.17447286)
(120.00697 -0.37701819 -0.18645733)
(119.96447 -0.39727996 -0.19406661)
(119.9189 -0.40657335 -0.19646959)
(119.84223 -0.44636436 -0.20595407)
(119.78062 -0.41178329 -0.19107373)
(119.6654 -0.42124324 -0.18886232)
(119.71439 -0.50375323 -0.27761222)
(119.79453 -0.55712279 -0.29979553)
(119.76971 -0.64662594 -0.24885906)
(119.82299 -0.50316298 -0.16384449)
(119.75284 -0.46234122 -0.14660406)
(119.67485 -0.58400201 -0.22231862)
(119.55651 -0.72740068 -0.32273251)
(119.62463 -0.59667632 -0.38595033)
(119.41347 -0.64130791 -0.39912057)
(119.51293 -0.69712068 -0.59101309)
(119.65294 -0.82992761 -0.67086457)
(119.72394 -0.68835254 -0.44564209)
(119.67663 -0.83568405 -0.39646712)
(119.56118 -1.0652978 -0.65463716)
(119.37502 -0.9152988 -0.55053483)
(119.15234 -0.97116823 -0.4637862)
(119.46876 -0.76821991 -0.23365455)
(119.63607 -0.60601046 -0.14735092)
(119.72936 -0.47906677 -0.092083837)
(119.60436 -0.45346246 -0.072501569)
(119.71796 -0.49073615 -0.034607137)
(119.7934 -0.55225305 -0.040670199)
(119.8029 -0.53674812 -0.10465147)
(119.73384 -0.69984372 -0.16711693)
(119.71348 -0.72413945 -0.068389801)
(119.61198 -0.62564323 -0.059427743)
(119.4011 -0.81453879 -0.10345586)
(119.13476 -0.77953674 -0.23259658)
(118.9021 -1.0856011 -0.25337158)
(119.04988 -1.352267 -0.29652136)
(119.31269 -1.2388214 -0.55607986)
(119.58365 -0.93012989 -0.29003125)
(119.51423 -0.97931822 -0.13234698)
(119.73224 -0.98070063 -0.15996943)
(119.76123 -0.9591323 -0.23693231)
(119.78917 -0.91311036 -0.30216519)
(119.8196 -0.86660139 -0.3532005)
(119.83748 -0.795166 -0.39183213)
(119.85226 -0.7260591 -0.41582986)
(119.86375 -0.64281074 -0.42240542)
(119.88134 -0.56898273 -0.42550005)
(119.89792 -0.485379 -0.40729342)
(119.9676 -0.48167783 -0.4042674)
(119.96749 -0.53675769 -0.48502144)
(119.88344 -0.53765753 -0.49056876)
(119.87378 -0.63372338 -0.51328498)
(119.96459 -0.63011295 -0.51064886)
(119.95844 -0.56668094 -0.42653579)
(120.03479 -0.54969114 -0.41245745)
(120.03461 -0.46241893 -0.38693465)
(120.08513 -0.34552573 -0.35314162)
(120.03616 -0.37574667 -0.46564645)
(120.10949 -0.34638981 -0.43357711)
(120.11809 -0.37261555 -0.5173673)
(120.09412 -0.29523125 -0.45844968)
(120.02516 -0.31820718 -0.49005952)
(120.01703 -0.26430553 -0.43542702)
(120.01459 -0.26068384 -0.48855481)
(120.00959 -0.21061192 -0.42760035)
(120.01208 -0.17135046 -0.36806012)
(120.05453 -0.11354733 -0.28552209)
(120.06069 -0.070831901 -0.21512378)
(120.00584 -0.083448031 -0.24883827)
(120.0027 -0.060376582 -0.26843488)
(120.06379 -0.051677082 -0.232138)
(120.05743 -0.0876362 -0.31318748)
(119.97013 -0.097512822 -0.35774815)
(119.97623 -0.12867414 -0.32695354)
(119.92404 -0.18297104 -0.39764998)
(119.84805 -0.19187013 -0.43584917)
(119.83113 -0.1475555 -0.48495886)
(119.77489 -0.22961307 -0.63082523)
(119.79886 -0.28497724 -0.54927852)
(119.71931 -0.26275767 -0.49517723)
(119.68158 -0.20239012 -0.56639155)
(119.64636 -0.12351988 -0.57688624)
(119.74155 -0.1429494 -0.67241876)
(119.81466 -0.087101474 -0.50887027)
(119.81034 -0.023670555 -0.51407486)
(119.73688 -0.019165963 -0.45315478)
(119.63187 -0.032327548 -0.58222801)
(119.72912 -0.03958972 -0.68215197)
(119.51452 -0.081833007 -0.93505799)
(119.57435 -0.25809178 -0.90723107)
(119.67283 -0.3753991 -0.82533401)
(119.72425 -0.43154457 -0.68498551)
(119.62642 -0.37155283 -0.5921481)
(119.41524 -0.38289475 -0.63427053)
(119.55641 -0.30009604 -0.71423384)
(119.3615 -0.52708995 -0.90901514)
(119.51144 -0.57980537 -0.698421)
(119.64958 -0.65987719 -0.83174767)
(119.54311 -0.63450256 -1.0622684)
(119.26298 -0.51889462 -1.2249397)
(119.12022 -0.42680466 -0.94606926)
(119.46856 -0.2030347 -0.74110682)
(119.41381 -0.060045904 -0.76771001)
(118.87017 -0.17273971 -1.0334759)
(118.99011 -0.20732579 -1.3087062)
(119.36896 -0.27226853 -1.3526763)
(119.60609 -0.1823458 -1.1399796)
(119.72908 -0.11871296 -0.94404602)
(119.81056 -0.086491969 -0.80735275)
(119.84672 -0.062592037 -0.67949049)
(119.87824 -0.049569318 -0.59009369)
(119.89721 -0.038733346 -0.49738583)
(119.96554 -0.014737294 -0.379581)
(120.00083 -0.0075829767 -0.2800203)
(120.0537 -0.0096219398 -0.1431175)
(120.11631 -0.0036103163 -0.072357598)
(120.10675 -0.015490633 -0.076206307)
(120.09766 -0.031025598 -0.071666961)
(120.09695 -0.065910736 -0.12668668)
(120.11872 -0.039740442 -0.080426386)
(120.12915 -0.038245944 -0.098140694)
(120.1012 -0.062309117 -0.15120116)
(120.1162 -0.096157772 -0.19047056)
(120.11569 -0.097303443 -0.1579775)
(120.14779 -0.061169678 -0.10174078)
(120.15786 -0.062078537 -0.12762735)
(120.17322 -0.053603335 -0.14371372)
(120.13706 -0.030051129 -0.10476567)
(120.10455 -0.052967842 -0.16607214)
(120.1126 -0.038621854 -0.17701475)
(120.14917 -0.020651985 -0.10669568)
(120.19095 -0.040281269 -0.15057675)
(120.13468 -0.067752498 -0.24037797)
(120.12334 -0.087570244 -0.22108842)
(120.10025 -0.14126259 -0.30275844)
(120.09833 -0.14486579 -0.27800977)
(120.09797 -0.14644735 -0.2487871)
(120.12756 -0.12887979 -0.19077113)
(120.1718 -0.079735305 -0.11906578)
(120.15579 -0.10061962 -0.17396221)
(120.13152 -0.12229656 -0.21068272)
(120.1357 -0.1229394 -0.23772768)
(120.15225 -0.14852897 -0.27471654)
(120.14808 -0.14482667 -0.24079155)
(120.10891 -0.17250375 -0.2818787)
(120.10913 -0.17366784 -0.31783446)
(120.12923 -0.21565671 -0.36458054)
(120.12347 -0.2041306 -0.31541646)
(120.16394 -0.18199608 -0.23854608)
(120.22559 -0.10833843 -0.14834177)
(120.2027 -0.13661456 -0.21950781)
(120.17751 -0.11708425 -0.19633105)
(120.19975 -0.083128443 -0.1475016)
(120.17475 -0.071237141 -0.12929543)
(120.18574 -0.071808114 -0.14669207)
(120.16363 -0.099382855 -0.19556282)
(120.18593 -0.11735817 -0.22223691)
(120.21135 -0.08599126 -0.16959946)
(120.24731 -0.10349986 -0.19197436)
(120.22796 -0.095290454 -0.16242698)
(120.27214 -0.11394997 -0.17969076)
(120.24353 -0.16591117 -0.24645845)
(120.20367 -0.20896788 -0.30088595)
(120.16923 -0.17093249 -0.26813271)
(120.17901 -0.18400915 -0.31404911)
(120.21737 -0.22292857 -0.35619498)
(120.15868 -0.26139911 -0.41321864)
(120.15002 -0.24978889 -0.35330251)
(120.17316 -0.30640824 -0.39077624)
(120.19787 -0.26494881 -0.27472756)
(120.27976 -0.15841001 -0.17051503)
(120.27959 -0.20172929 -0.27128934)
(120.23469 -0.25710218 -0.3329239)
(120.26319 -0.2823541 -0.40291161)
(120.19471 -0.3312691 -0.46787085)
(120.23927 -0.40644142 -0.52600373)
(120.21048 -0.3779332 -0.43967013)
(120.13419 -0.42574981 -0.48843286)
(120.04639 -0.45714767 -0.52114815)
(119.96811 -0.47622087 -0.54135134)
(119.96544 -0.49963822 -0.63288105)
(119.87448 -0.50290054 -0.63584474)
(119.86078 -0.60522595 -0.68510608)
(119.96539 -0.61625107 -0.69158408)
(119.96649 -0.56727373 -0.57415143)
(119.96545 -0.68654781 -0.62548722)
(119.86093 -0.68088733 -0.61398839)
(119.85094 -0.73842605 -0.74513947)
(119.97141 -0.74662278 -0.75410491)
(120.0901 -0.73542151 -0.74489291)
(120.0708 -0.60269705 -0.67913593)
(120.0519 -0.48432463 -0.61604701)
(120.03705 -0.39891727 -0.55084001)
(120.04069 -0.40650695 -0.63455822)
(120.02528 -0.3229994 -0.55762813)
(119.95421 -0.33252073 -0.57543906)
(119.95346 -0.2700694 -0.50661093)
(119.96013 -0.21950973 -0.44888034)
(119.96966 -0.17994093 -0.38842484)
(119.96557 -0.16567113 -0.4184245)
(119.91509 -0.16735778 -0.42893541)
(119.9015 -0.20878431 -0.49486663)
(119.90908 -0.22407649 -0.45755577)
(119.89374 -0.2703079 -0.50846497)
(119.88463 -0.25529009 -0.55699414)
(119.94944 -0.25785179 -0.55497731)
(119.95693 -0.20592834 -0.48431109)
(120.00892 -0.19854788 -0.46314383)
(120.01144 -0.15812889 -0.3974939)
(120.06293 -0.14694458 -0.36665756)
(120.05937 -0.15804722 -0.33903388)
(120.06364 -0.19553448 -0.39762416)
(120.06807 -0.18592676 -0.43144334)
(120.07269 -0.17171742 -0.46597228)
(120.06602 -0.1339081 -0.38859159)
(120.01135 -0.14310809 -0.42084537)
(119.96304 -0.14816442 -0.44252905)
(119.91063 -0.14828327 -0.45046717)
(119.90528 -0.12307418 -0.47193235)
(119.96141 -0.12436661 -0.46403821)
(119.95163 -0.15881678 -0.54694937)
(119.95317 -0.18604943 -0.52044041)
(119.89541 -0.18664173 -0.52672799)
(119.89051 -0.15715441 -0.55357908)
(119.86932 -0.19617345 -0.63264643)
(119.87666 -0.22991079 -0.5960894)
(119.94506 -0.2348002 -0.60021072)
(119.94122 -0.20447912 -0.63812787)
(119.93826 -0.26663812 -0.74999298)
(119.94465 -0.30048003 -0.69821274)
(119.95134 -0.3234342 -0.63865028)
(119.87474 -0.32276738 -0.64099018)
(119.88386 -0.33466343 -0.57658131)
(119.86561 -0.40884553 -0.64018459)
(119.95196 -0.41567666 -0.64896396)
(119.94733 -0.41127076 -0.72996191)
(119.8534 -0.39965176 -0.72057606)
(119.84179 -0.51358359 -0.8263185)
(119.85631 -0.51135367 -0.72273963)
(119.95703 -0.51712058 -0.73267427)
(119.95308 -0.52330573 -0.83504954)
(120.06355 -0.51978839 -0.82380955)
(120.04362 -0.40590792 -0.71763191)
(120.02682 -0.31689098 -0.62221101)
(120.01509 -0.25067279 -0.5375694)
(120.08404 -0.23611077 -0.50403311)
(120.07751 -0.24322553 -0.45668277)
(120.10109 -0.30280561 -0.52418321)
(120.11045 -0.30016311 -0.5871156)
(120.11723 -0.28642842 -0.64780672)
(120.08999 -0.22056779 -0.54896137)
(120.01612 -0.23165545 -0.58363859)
(120.00974 -0.18181804 -0.49905068)
(120.01035 -0.15600912 -0.52633542)
(120.01255 -0.12025978 -0.44240509)
(120.07067 -0.11339003 -0.40913589)
(120.07733 -0.14871268 -0.49244134)
(120.09415 -0.19581599 -0.58810195)
(120.01572 -0.20341494 -0.62320904)
(120.0238 -0.26818588 -0.73831964)
(120.02749 -0.29877839 -0.68359043)
(120.04193 -0.39076452 -0.7985324)
(119.93628 -0.38946964 -0.80778571)
(119.83705 -0.37283661 -0.78628337)
(119.86454 -0.29598447 -0.69193426)
(119.85329 -0.25775967 -0.74269294)
(119.83598 -0.20924205 -0.77291714)
(119.85872 -0.15629232 -0.65516143)
(119.88411 -0.12467608 -0.57190315)
(119.90116 -0.09751621 -0.48383501)
(119.96634 -0.059622746 -0.37513706)
(120.00078 -0.037135495 -0.27669478)
(120.06553 -0.031657894 -0.23921294)
(120.06789 -0.0059018338 -0.24199403)
(120.06283 -0.012894364 -0.33421416)
(120.06045 -0.054218778 -0.32962708)
(120.14409 -0.041884047 -0.25103609)
(120.1172 -0.023069988 -0.18033156)
(120.15609 -0.011074383 -0.10447201)
(120.16141 -0.00026993495 -0.10202861)
(120.12136 -0.0036892018 -0.18117157)
(120.1493 -0.0088404921 -0.25344108)
(120.21218 -0.0033360592 -0.14998841)
(120.20499 -0.023477652 -0.15174596)
(120.21546 -0.058141315 -0.25423183)
(120.20779 -0.071411434 -0.24776939)
(120.1948 -0.083418789 -0.23742053)
(120.18479 -0.091224111 -0.22674086)
(120.17118 -0.096986332 -0.2115348)
(120.14099 -0.11961929 -0.25861154)
(120.15173 -0.11216645 -0.27894684)
(120.10757 -0.13211558 -0.32737576)
(120.12269 -0.16739293 -0.3859229)
(120.11427 -0.17490963 -0.35522412)
(120.16129 -0.14940983 -0.30691927)
(120.17391 -0.14378631 -0.33304869)
(120.21456 -0.11511448 -0.26702566)
(120.19873 -0.11952986 -0.24731403)
(120.22677 -0.086502272 -0.18688389)
(120.19566 -0.069390212 -0.15712254)
(120.21124 -0.064795936 -0.16590586)
(120.24493 -0.083332476 -0.19960767)
(120.26247 -0.077857133 -0.21052031)
(120.22288 -0.059043191 -0.17107302)
(120.23743 -0.049948711 -0.17552397)
(120.27886 -0.068333067 -0.21888715)
(120.24442 -0.094865398 -0.30068036)
(120.23004 -0.10810794 -0.28579894)
(120.18631 -0.13441035 -0.35897858)
(120.15998 -0.10297991 -0.29438551)
(120.11293 -0.12093915 -0.34651081)
(120.12065 -0.1029192 -0.36478289)
(120.17068 -0.087850341 -0.30908831)
(120.19791 -0.11791763 -0.37945478)
(120.13933 -0.13586969 -0.44101065)
(120.13135 -0.15595601 -0.41679647)
(120.16175 -0.20127496 -0.49627761)
(120.15048 -0.21341174 -0.45500604)
(120.13853 -0.21785318 -0.41158287)
(120.19337 -0.18599526 -0.35500986)
(120.21053 -0.18331015 -0.39233139)
(120.26156 -0.23399426 -0.45954804)
(120.23854 -0.23212143 -0.40920044)
(120.17358 -0.27197287 -0.47415665)
(120.18985 -0.27231368 -0.53239506)
(120.20359 -0.26259453 -0.58888062)
(120.28192 -0.22756939 -0.50845281)
(120.22676 -0.17404809 -0.42757344)
(120.23999 -0.15740152 -0.45912356)
(120.17038 -0.18046845 -0.53272258)
(120.21134 -0.24186276 -0.64094625)
(120.11931 -0.26048751 -0.70264897)
(120.11356 -0.21986201 -0.75103857)
(120.09421 -0.16151846 -0.62155068)
(120.07962 -0.12155021 -0.51673817)
(120.07313 -0.092532559 -0.42367615)
(120.01269 -0.097545835 -0.45745298)
(119.95944 -0.099532597 -0.47911071)
(119.9585 -0.068934802 -0.49019282)
(119.89843 -0.067205713 -0.49420663)
(119.88083 -0.087129817 -0.58489435)
(119.94585 -0.08984233 -0.58411907)
(119.94756 -0.12696753 -0.57031901)
(120.00994 -0.12655707 -0.55069487)
(120.00921 -0.08937225 -0.56564037)
(120.01335 -0.067031842 -0.46893273)
(120.07575 -0.063725962 -0.43495284)
(120.08103 -0.086334047 -0.53179807)
(120.08105 -0.049800108 -0.54128929)
(120.07697 -0.037502517 -0.44011548)
(120.01364 -0.039482211 -0.47407347)
(119.95807 -0.039916991 -0.49509733)
(119.95852 -0.0064914549 -0.49520724)
(119.89727 -0.0064761613 -0.49712435)
(119.87824 -0.0088267885 -0.5899195)
(119.94397 -0.0094279792 -0.59241851)
(119.94382 -0.050926261 -0.59210071)
(120.00835 -0.051489037 -0.57460021)
(120.00873 -0.0087142566 -0.57517103)
(120.01449 -0.0055753555 -0.47426873)
(120.07823 -0.0046922297 -0.44020144)
(120.08176 -0.0079492334 -0.54182509)
(120.08759 -0.012585586 -0.6605959)
(120.08851 -0.068002381 -0.65900689)
(120.09224 -0.11828913 -0.64492083)
(120.00844 -0.12052632 -0.67844281)
(120.0125 -0.16592017 -0.65590786)
(119.93346 -0.16407703 -0.66837519)
(119.92809 -0.11894669 -0.68874667)