/*--------------------------------*- C++ -*----------------------------------*\
  =========                 |
  \\      /  F ield         | OpenFOAM: The Open Source CFD Toolbox
   \\    /   O peration     | Website:  https://openfoam.org
    \\  /    A nd           | Version:  7
     \\/     M anipulation  |
\*---------------------------------------------------------------------------*/
FoamFile
{
    version     2.0;
    format      ascii;
    class       volScalarField;
    location    "110";
    object      rho;
}
// * * * * * * * * * * * * * * * * * * * * * * * * * * * * * * * * * * * * * //

dimensions      [1 -3 0 0 0 0 0];

internalField   nonuniform List<scalar> 
25278
(
1.1739062
1.1738865
1.1739057
1.1739054
1.1739137
1.1738846
1.1738934
1.1739059
1.1738949
1.1738503
1.1738648
1.1738865
1.1738946
1.1739067
1.1738106
1.1739061
1.173887
1.173808
1.1737775
1.173842
1.1738533
1.1738684
1.1738775
1.1738635
1.1738149
1.1738623
1.1738766
1.1738336
1.1738855
1.173831
1.1737753
1.1738141
1.173667
1.1737607
1.1737238
1.1738286
1.1737841
1.1737055
1.1737482
1.1735991
1.1736766
1.1736292
1.1736342
1.1736184
1.1737138
1.1737582
1.1738474
1.1738244
1.1737532
1.1737771
1.1737555
1.173817
1.1736298
1.1736674
1.1737964
1.1737235
1.1736754
1.173749
1.1735585
1.1736238
1.1736086
1.1735852
1.1735712
1.1736893
1.1737795
1.1737591
1.1736703
1.173565
1.1735603
1.173581
1.1736736
1.1736301
1.173691
1.1736494
1.1737875
1.1737039
1.1737229
1.1738299
1.1738669
1.1738792
1.1738959
1.1738083
1.1738056
1.1737704
1.1738535
1.1738761
1.173774
1.1737446
1.1737524
1.1738349
1.1737761
1.1736746
1.1737544
1.1736722
1.1736438
1.1736716
1.1737369
1.1738391
1.1737722
1.1736642
1.1737396
1.1736463
1.1736187
1.1736606
1.1736445
1.1737251
1.1736584
1.1735579
1.1736029
1.1735539
1.1737088
1.1736032
1.1735022
1.1735009
1.173544
1.173507
1.1734733
1.1736083
1.1736936
1.1736927
1.1737697
1.1738535
1.1739135
1.1737462
1.1736623
1.1735979
1.1735514
1.1737072
1.1737727
1.1738759
1.1738947
1.173878
1.1738027
1.1738052
1.1737467
1.1737409
1.1736538
1.1736017
1.1734994
1.1735516
1.1735379
1.1734985
1.1734719
1.1736077
1.1736408
1.1737212
1.1737306
1.1736648
1.173632
1.1736642
1.1738043
1.1738298
1.1737702
1.1738337
1.1738014
1.1737658
1.1736539
1.1736055
1.1735014
1.1732686
1.1730492
1.1730441
1.173288
1.1735224
1.1736544
1.1737324
1.1737055
1.1736257
1.1734987
1.1735216
1.1735568
1.1733745
1.1732104
1.1730698
1.1730096
1.173334
1.173201
1.1732034
1.1733612
1.1730429
1.1730473
1.1731956
1.1733588
1.1735331
1.1736337
1.1737298
1.173653
1.1736371
1.1734938
1.1734577
1.1734886
1.1736892
1.1737663
1.1737183
1.1736039
1.1735974
1.1733365
1.1728028
1.1722271
1.1721784
1.1728445
1.1733861
1.1736194
1.1736332
1.1736828
1.1737749
1.1737603
1.1738853
1.1738101
1.1737705
1.1738284
1.1736625
1.1736757
1.1736263
1.1737829
1.1736997
1.1737431
1.1735929
1.1736291
1.1736132
1.1736222
1.1737106
1.173815
1.173845
1.1738133
1.1737144
1.1737347
1.1737483
1.173753
1.1737797
1.1737627
1.1735901
1.1735869
1.1736843
1.1737085
1.1737272
1.1737484
1.1738184
1.1738502
1.1738394
1.1737727
1.1737945
1.17366
1.1736178
1.1736013
1.1737189
1.1736653
1.1737419
1.1735455
1.1735746
1.1735574
1.1736807
1.1737482
1.1738108
1.1736164
1.1737762
1.1735686
1.1735431
1.1737524
1.1736577
1.173549
1.1735167
1.17353
1.1735508
1.173585
1.1735456
1.1736937
1.173637
1.1736758
1.173691
1.1737192
1.1737028
1.1737336
1.173672
1.1736694
1.1736908
1.1737559
1.1736243
1.1735826
1.1735708
1.173584
1.1735381
1.1736901
1.1736479
1.173618
1.1734804
1.1735239
1.1735371
1.1734803
1.1736405
1.173587
1.1736457
1.1737157
1.1738151
1.173816
1.1737114
1.1737797
1.1737645
1.173692
1.1735933
1.1735941
1.173624
1.1736597
1.1736743
1.1736132
1.1737011
1.1737038
1.1737706
1.1735784
1.1736652
1.1734854
1.1735793
1.1733994
1.1734699
1.1733499
1.17348
1.1734844
1.173663
1.173787
1.1736802
1.1735803
1.1733929
1.1736436
1.1735738
1.1734655
1.1733462
1.1734624
1.1736755
1.1735597
1.1734685
1.1731195
1.1731963
1.1732669
1.1732059
1.1735214
1.1733451
1.1736181
1.1735023
1.1734504
1.1734611
1.1735348
1.1736053
1.1734018
1.1734347
1.1733828
1.1735195
1.173484
1.1734073
1.17353
1.1734584
1.1734193
1.1736777
1.1735031
1.1735409
1.1734285
1.1734164
1.1733402
1.1734925
1.1732234
1.1732842
1.1732664
1.1732801
1.1731817
1.1732505
1.1731731
1.1733431
1.1734625
1.1734841
1.1736595
1.1736112
1.1734071
1.1735314
1.1734571
1.1737023
1.1737031
1.1737718
1.1735022
1.1734468
1.1734554
1.1735272
1.1735987
1.173395
1.173428
1.1736188
1.1735175
1.1732635
1.173346
1.1731747
1.1732749
1.173377
1.1733567
1.1734222
1.1735339
1.173493
1.1736764
1.1734144
1.1734089
1.1733329
1.1734901
1.1732197
1.1732842
1.1732238
1.1732069
1.1732028
1.1732187
1.1733868
1.173468
1.1736161
1.1736004
1.1736572
1.1734241
1.173413
1.1734001
1.1734077
1.1734933
1.1734679
1.1735378
1.1736633
1.1734854
1.1734163
1.173425
1.1734601
1.1734038
1.1735262
1.173474
1.173487
1.1734763
1.173326
1.1733355
1.1732202
1.173253
1.1732423
1.1733647
1.1733185
1.1732567
1.1733592
1.1733097
1.1733866
1.1735088
1.1735476
1.1733692
1.1733609
1.1733703
1.1735574
1.1736009
1.1735916
1.1736998
1.1735366
1.1736854
1.1736229
1.1734468
1.1734007
1.1733392
1.1734898
1.1736171
1.173294
1.1734075
1.1735557
1.1734146
1.1732339
1.1730468
1.1732478
1.1731578
1.1729004
1.1728778
1.1730847
1.1735481
1.1733666
1.1736624
1.1736043
1.1736446
1.1734633
1.1734724
1.1733201
1.1733154
1.1733281
1.17352
1.1733562
1.1729723
1.1728807
1.1728868
1.1731454
1.1731498
1.1731076
1.1730685
1.173118
1.1730565
1.17315
1.173136
1.173278
1.173243
1.1735215
1.1733408
1.1730689
1.1732086
1.1729251
1.1730469
1.1731681
1.173131
1.1733756
1.1733748
1.1733744
1.1733086
1.1731028
1.1732134
1.1732295
1.1733628
1.1733245
1.1733986
1.173604
1.1735544
1.1737
1.1737307
1.1736844
1.173651
1.1735199
1.1735611
1.1735919
1.1737005
1.1735442
1.173502
1.1733554
1.1734101
1.1734547
1.1733159
1.1733905
1.1733444
1.173489
1.1734827
1.1736602
1.1733627
1.1733435
1.1731875
1.1731795
1.1731778
1.1732584
1.1735638
1.1734315
1.1734305
1.1729067
1.1732393
1.1730554
1.1729216
1.172934
1.1731303
1.1735725
1.1735552
1.1730445
1.1729325
1.1728689
1.1727085
1.1731431
1.1730102
1.1733445
1.173283
1.1736146
1.1735322
1.1736786
1.1737274
1.1737167
1.1737419
1.1737555
1.1737359
1.1737586
1.1737012
1.1736774
1.173579
1.1735862
1.1736299
1.1735943
1.1735536
1.1737001
1.1736788
1.1736326
1.1736676
1.1735181
1.1734974
1.1735356
1.1735421
1.1734899
1.1736399
1.1735881
1.1736191
1.1736014
1.1736591
1.1735064
1.1734179
1.1734307
1.173416
1.1734085
1.1733341
1.1734758
1.1733867
1.1734687
1.173475
1.1734216
1.1734941
1.1736666
1.173554
1.1734811
1.1734368
1.1734738
1.173418
1.1735309
1.1733715
1.1732454
1.1732579
1.1734902
1.1733454
1.1732292
1.1732103
1.1732199
1.1733068
1.1733456
1.1733883
1.1733143
1.1733323
1.1731223
1.1731005
1.1729361
1.1730017
1.1729978
1.1730904
1.1730694
1.1730503
1.1729304
1.1729844
1.1728845
1.1730526
1.1728827
1.1729786
1.1725936
1.1727458
1.1726193
1.172819
1.1729689
1.1731362
1.1730565
1.1731674
1.1732073
1.1733341
1.1734252
1.1735957
1.1734761
1.1735827
1.1733323
1.1734434
1.1734578
1.1733739
1.1732793
1.1733914
1.173348
1.1734876
1.173437
1.1735627
1.1733796
1.1733333
1.1733
1.1734929
1.1735458
1.1735312
1.1736571
1.1735679
1.1734378
1.1733353
1.1733592
1.1733611
1.1732779
1.1733279
1.1733798
1.1732369
1.1732019
1.1730636
1.1730978
1.1731584
1.173064
1.1732368
1.1732844
1.1730782
1.1730021
1.1731505
1.172744
1.1730131
1.1729265
1.1728423
1.1727264
1.1729474
1.1730877
1.1732521
1.173221
1.17329
1.1731391
1.1730654
1.1729999
1.1731751
1.1732172
1.1733213
1.1732833
1.1734534
1.1733922
1.1732639
1.1731255
1.1731676
1.1729768
1.1730359
1.1728737
1.1729212
1.1731648
1.1731077
1.1729794
1.1730417
1.1733563
1.1733139
1.1736374
1.1735429
1.1736974
1.1736599
1.1736414
1.1734795
1.1734921
1.173466
1.1736356
1.173668
1.1736584
1.173619
1.173452
1.1734768
1.1734891
1.1733947
1.1733671
1.1734513
1.1734168
1.1735174
1.1735554
1.1734484
1.173426
1.1733259
1.1733716
1.1733822
1.173339
1.1733643
1.1734021
1.1734455
1.1735844
1.1735138
1.1734138
1.1733861
1.1735402
1.1734843
1.1733587
1.1732984
1.1733319
1.1733041
1.1734932
1.1734749
1.1733793
1.1734063
1.1732683
1.1732536
1.1732909
1.1731693
1.1732169
1.1732849
1.1732985
1.1732334
1.1730853
1.1731585
1.1731374
1.1730621
1.1729935
1.1730156
1.1731853
1.1731339
1.1731176
1.17293
1.172941
1.1728936
1.1730952
1.1732416
1.1734398
1.1735029
1.1734854
1.1734308
1.173584
1.1732656
1.1733071
1.1733175
1.1732682
1.1732493
1.1734487
1.1733801
1.1732235
1.1732149
1.1734045
1.173474
1.1734549
1.1734384
1.1735998
1.1732734
1.1732996
1.1733013
1.1732445
1.1732407
1.1734572
1.173387
1.1732116
1.1730555
1.173059
1.1730704
1.1731257
1.1731496
1.173181
1.1731661
1.1733316
1.1729739
1.1730185
1.1730308
1.1729464
1.1729193
1.1728651
1.1728469
1.1729121
1.1731213
1.1731614
1.1731601
1.1733428
1.1730018
1.1730128
1.1730114
1.1728073
1.1728133
1.1728302
1.172872
1.1730818
1.172611
1.1728212
1.1727357
1.1726725
1.1725212
1.1727959
1.1727184
1.1728006
1.1728964
1.1730028
1.1728077
1.1729412
1.1727674
1.1729824
1.1729979
1.173306
1.1730972
1.1729376
1.1729653
1.1730919
1.1730571
1.1728169
1.1727658
1.1725725
1.1725603
1.1727625
1.1729869
1.1730035
1.1733077
1.1733291
1.1730522
1.1729627
1.1731145
1.173094
1.1729319
1.1727604
1.1727928
1.1730142
1.1730515
1.1729675
1.1730247
1.1731708
1.1732679
1.173371
1.1733254
1.1733834
1.1733361
1.173269
1.1731382
1.1732027
1.1732798
1.1733319
1.1732502
1.1734198
1.1732216
1.1730315
1.1730526
1.1730333
1.1733138
1.1734154
1.1732221
1.173123
1.1732374
1.1731605
1.1730175
1.1728682
1.172995
1.1731749
1.1730019
1.1731319
1.1730311
1.1731796
1.1730818
1.1730251
1.1730009
1.172891
1.172917
1.1726974
1.1728333
1.1728025
1.1726662
1.1726784
1.1725488
1.1726263
1.1723772
1.1725154
1.172689
1.1728586
1.1727405
1.1730329
1.1728261
1.1726209
1.172408
1.1725602
1.1727106
1.1723057
1.1724182
1.1728595
1.1724822
1.1723889
1.1727057
1.1720581
1.1720869
1.1722228
1.1720288
1.1722202
1.1724436
1.1723535
1.1726025
1.1724239
1.1721203
1.171868
1.1722396
1.1720757
1.1724369
1.1724009
1.1726978
1.1727886
1.1728117
1.1727159
1.1729507
1.1730105
1.1731762
1.1732243
1.1732989
1.1732584
1.1731151
1.1731703
1.1732248
1.1730971
1.1729851
1.1727815
1.1729061
1.1727155
1.1728728
1.1727953
1.1725973
1.1726887
1.1728425
1.1726559
1.1728703
1.1727118
1.1729222
1.1728014
1.1730139
1.1728863
1.1730734
1.1727902
1.1729269
1.1726709
1.1725054
1.1726412
1.1725501
1.1725252
1.1721935
1.1724
1.1725918
1.1726238
1.1724304
1.1721072
1.1723641
1.1723296
1.1720774
1.1717908
1.1717998
1.1722107
1.1720076
1.1724186
1.1722498
1.1726083
1.1728885
1.1730953
1.1732414
1.1734434
1.17342
1.173363
1.1733916
1.1732223
1.1732089
1.1732281
1.1730826
1.1730555
1.1730665
1.1728543
1.1728432
1.1728747
1.1726069
1.1726442
1.1727507
1.1727143
1.1726024
1.1722681
1.1723268
1.172453
1.1726124
1.1727326
1.1731425
1.1731066
1.1726202
1.1725889
1.1724019
1.1723851
1.1727025
1.172569
1.172564
1.1728451
1.1729103
1.1731178
1.1731247
1.173245
1.1734547
1.1734821
1.1736413
1.1737279
1.1738252
1.1738538
1.1738095
1.1737793
1.173739
1.1738397
1.1737418
1.1737307
1.1737082
1.173631
1.1736538
1.1735206
1.173512
1.1735278
1.1735543
1.1736515
1.1736259
1.1736686
1.1737748
1.1738085
1.173665
1.1736503
1.1735192
1.1732836
1.1730854
1.1732158
1.1733707
1.1732045
1.1733425
1.1730395
1.1730509
1.1734916
1.1735154
1.1735529
1.1737283
1.1737755
1.1736989
1.1737233
1.1735409
1.1733712
1.1732058
1.1733536
1.1730444
1.1730497
1.173286
1.1730517
1.173203
1.1734951
1.1734634
1.1735033
1.173643
1.1737676
1.1736918
1.1736062
1.1735975
1.1733351
1.1728018
1.1722516
1.1722448
1.1728781
1.1734111
1.1736295
1.1736333
1.1738173
1.1737558
1.1737784
1.173843
1.1736697
1.1737477
1.1737808
1.1737584
1.1736703
1.1736916
1.1735745
1.1735676
1.1735609
1.1735843
1.173561
1.1735897
1.173677
1.1737262
1.1737966
1.173628
1.1736138
1.1735973
1.1737327
1.1737552
1.1737453
1.1737178
1.1736192
1.1736588
1.1736735
1.1736402
1.173664
1.1736993
1.1736781
1.1735338
1.1735463
1.1734979
1.1734745
1.1734558
1.1734812
1.173499
1.1735306
1.1736728
1.1736369
1.1736545
1.1736855
1.1735656
1.1735275
1.1735627
1.1737046
1.1736841
1.1737064
1.1735663
1.1735469
1.1735083
1.1733919
1.1734335
1.1733699
1.1733941
1.1733658
1.1733675
1.1733843
1.1734103
1.1733962
1.1732057
1.173209
1.1731979
1.1731944
1.1730354
1.1730393
1.1730438
1.1730387
1.1728088
1.1728137
1.1728167
1.1728146
1.172495
1.1725043
1.1725578
1.1725521
1.1721849
1.1721975
1.1722621
1.1717698
1.1720068
1.1715295
1.1716363
1.1718218
1.1722304
1.1721245
1.1723086
1.1728345
1.1727581
1.1722707
1.1718992
1.1719662
1.1722687
1.1720486
1.1722631
1.1718999
1.1722666
1.1725821
1.1725866
1.1728102
1.1731466
1.1726996
1.1728671
1.1722703
1.1719033
1.1722367
1.1725981
1.1726372
1.172287
1.1725066
1.1722365
1.1725425
1.1724672
1.1727979
1.1727106
1.1730279
1.1730093
1.1729199
1.1730703
1.1731991
1.1733261
1.1734177
1.1734389
1.1733201
1.173574
1.1734641
1.173381
1.1733364
1.173391
1.1733169
1.1732807
1.1731299
1.1731596
1.1730754
1.1732401
1.1732677
1.1733619
1.1734526
1.1732315
1.1730492
1.173147
1.1730822
1.1732221
1.1733459
1.1735227
1.1736542
1.1733507
1.1732584
1.1735562
1.1734201
1.1733186
1.1732647
1.1733075
1.1735397
1.1734773
1.1734211
1.1733197
1.1732072
1.1730519
1.1729833
1.1731586
1.1732838
1.1734823
1.1735073
1.1734756
1.1736478
1.1736229
1.1736683
1.1736686
1.173719
1.1738174
1.1738841
1.1739047
1.1739057
1.1738933
1.1739055
1.1738752
1.1738658
1.1738501
1.173811
1.1737482
1.1737529
1.1736168
1.1735437
1.1735492
1.1736579
1.1736797
1.1737762
1.1735687
1.1735571
1.1735736
1.1736644
1.1737715
1.1738385
1.1736588
1.1737423
1.1735457
1.1736163
1.1737939
1.1737167
1.1735989
1.1735816
1.1735488
1.173529
1.1735165
1.1734583
1.1734592
1.1734234
1.1734431
1.1736227
1.173649
1.1734582
1.1734957
1.1734358
1.173396
1.1734276
1.1734115
1.1733105
1.1733206
1.1733425
1.1733884
1.1734271
1.173573
1.1734876
1.1735194
1.1733539
1.1733048
1.1732818
1.1734785
1.1734656
1.1732724
1.1732292
1.1733587
1.1733691
1.173439
1.1734942
1.1734727
1.1736339
1.1732974
1.1732978
1.1732833
1.1734086
1.1735717
1.1732391
1.1733061
1.1733394
1.1733089
1.1733685
1.1730939
1.1729529
1.1730435
1.1731826
1.173148
1.1732031
1.1730208
1.1729553
1.1729178
1.1731033
1.1732425
1.173217
1.1734237
1.1733504
1.1734311
1.1732227
1.1732473
1.173128
1.1731584
1.1730057
1.1730175
1.1729336
1.1729867
1.1731381
1.1730969
1.1730375
1.1730705
1.1728673
1.1729219
1.1728851
1.1728273
1.1728032
1.1730221
1.1731793
1.1731924
1.173173
1.1732002
1.1734064
1.1734213
1.1733762
1.1732395
1.1732637
1.1733371
1.1734457
1.1733176
1.1732125
1.1732635
1.1733084
1.1733642
1.1732598
1.1731865
1.1731456
1.1732855
1.1732745
1.1731269
1.1730469
1.1732014
1.1732146
1.173067
1.1731149
1.1732462
1.173196
1.1731629
1.1731509
1.1729748
1.1729932
1.1729205
1.1731046
1.1730927
1.172904
1.1726791
1.1727757
1.1728789
1.1729924
1.172995
1.1730497
1.1728534
1.172802
1.1726699
1.1728856
1.1729367
1.1729911
1.172833
1.1727298
1.1728126
1.1726143
1.1727361
1.1725574
1.1724037
1.172296
1.1724064
1.1728446
1.1728073
1.1727219
1.1729059
1.1728518
1.1726532
1.1725814
1.172679
1.1723744
1.1724725
1.1722154
1.1720745
1.1720293
1.1722343
1.1728044
1.1727037
1.1725872
1.1728053
1.1727805
1.1725529
1.1725672
1.1727088
1.17224
1.1722892
1.1719463
1.1718637
1.17198
1.1721803
1.1728172
1.1726567
1.1725339
1.1727669
1.1729728
1.1731292
1.173274
1.1734368
1.1736094
1.1732592
1.1732421
1.1735886
1.1734125
1.1732693
1.1732058
1.1732144
1.1734615
1.1733805
1.1733511
1.1734372
1.1734375
1.1734129
1.1735899
1.1734641
1.1736458
1.1736047
1.1733302
1.1733169
1.1733225
1.1734736
1.1736635
1.1733678
1.1735514
1.173525
1.1733561
1.1729806
1.1728826
1.173152
1.17315
1.1728928
1.1730845
1.1728791
1.1734105
1.1732954
1.1736184
1.1736212
1.1736851
1.1735351
1.1734902
1.1733405
1.1733986
1.1734445
1.173555
1.1734106
1.1732263
1.1730419
1.1729049
1.1731609
1.1732457
1.1731325
1.1731507
1.1730587
1.1731213
1.1730733
1.1731096
1.1731058
1.1731027
1.1729517
1.1729729
1.1733215
1.1733146
1.173124
1.1729698
1.1728626
1.1728724
1.1730892
1.1730798
1.1730109
1.1731699
1.1731457
1.1731568
1.1733642
1.1733369
1.1733523
1.1731803
1.1732081
1.1732309
1.1733719
1.1734734
1.1732863
1.1732587
1.173421
1.173304
1.1732016
1.1730536
1.1730955
1.1731393
1.1729706
1.1730432
1.173131
1.1731958
1.1730687
1.1731602
1.173067
1.1730143
1.1728257
1.1727964
1.1726572
1.1726869
1.1729026
1.1729643
1.1727641
1.1728945
1.1730148
1.1728968
1.1726895
1.1728566
1.1727074
1.1726206
1.1725894
1.1726001
1.1726861
1.1724423
1.1723523
1.17212
1.1724216
1.1725111
1.1727175
1.1726158
1.1728613
1.1727881
1.1725397
1.1724207
1.1727006
1.1727777
1.1725037
1.1722235
1.172374
1.1722413
1.1718723
1.172028
1.1722181
1.1719445
1.1722267
1.1723377
1.1721354
1.1718746
1.1721355
1.1724603
1.1728615
1.173438
1.1731168
1.1730563
1.1726346
1.1721544
1.1726212
1.1730368
1.172128
1.172471
1.1735291
1.1726894
1.1727905
1.1734049
1.1720904
1.1721812
1.172034
1.1713542
1.171963
1.1726266
1.1734844
1.1727915
1.1724112
1.1719333
1.1733196
1.1727085
1.1720371
1.1707989
1.1718486
1.1732407
1.1720197
1.1709887
1.1705816
1.1704006
1.1704767
1.1720269
1.1721227
1.1734443
1.1730706
1.1735641
1.173367
1.1736615
1.1734876
1.1734938
1.1736754
1.1733961
1.1733516
1.1733542
1.1732121
1.1731902
1.1735737
1.173134
1.1729469
1.1729855
1.1728814
1.1727061
1.1731492
1.1730019
1.1733427
1.1732725
1.1735957
1.1734363
1.1734618
1.1736179
1.173291
1.1733075
1.1733034
1.1731662
1.1731706
1.17335
1.173025
1.1730242
1.1730232
1.1729228
1.1728624
1.1730652
1.1732175
1.1733849
1.1734147
1.1734801
1.1732532
1.1732259
1.1732416
1.173387
1.1734508
1.1734341
1.1735799
1.173639
1.1734947
1.1733301
1.1733177
1.1732708
1.1733258
1.1733636
1.1733333
1.1731815
1.1731991
1.1730557
1.1730411
1.1729857
1.173063
1.1730017
1.173335
1.1732888
1.1735662
1.1735079
1.1736299
1.173634
1.173692
1.1735505
1.1734198
1.1733652
1.1733231
1.1734623
1.1735662
1.1734342
1.1734312
1.1729272
1.1729465
1.1731934
1.1732725
1.1730759
1.1732512
1.17314
1.1734779
1.1734102
1.1736528
1.1736042
1.1737491
1.1737771
1.1738692
1.1738488
1.1737607
1.1737591
1.1738179
1.1738175
1.173818
1.1738329
1.1738356
1.1738858
1.1738152
1.1736711
1.1738287
1.1737286
1.1737864
1.1737087
1.1736396
1.1736365
1.1736811
1.1737881
1.1737083
1.1736711
1.1735851
1.17348
1.1734973
1.1735856
1.1736873
1.1737776
1.1737638
1.1736852
1.1735678
1.173679
1.173492
1.1733644
1.1732165
1.1733622
1.1734724
1.1734058
1.1735879
1.1734973
1.1736702
1.1737892
1.1736493
1.1735828
1.1734779
1.1733627
1.1734966
1.1736808
1.173665
1.1737687
1.173624
1.1737162
1.1736967
1.173768
1.1737171
1.1737812
1.1736312
1.1736049
1.1736012
1.1735893
1.1736827
1.1737073
1.173763
1.173723
1.1737396
1.1735977
1.1736423
1.1736057
1.1734975
1.1735323
1.1734355
1.1734692
1.1733847
1.1734128
1.1733545
1.1733698
1.1733435
1.1733436
1.1733573
1.1733431
1.1734726
1.1735053
1.1733366
1.1732722
1.1732532
1.1733207
1.1733106
1.1734827
1.1734759
1.1733112
1.1732371
1.1732391
1.1730812
1.1731081
1.1731376
1.1732267
1.1732004
1.173028
1.1730639
1.1729481
1.1729112
1.1728586
1.1729939
1.1731815
1.1731854
1.1730782
1.1728608
1.1730187
1.172699
1.1726493
1.17276
1.1728344
1.1726773
1.1726106
1.1722599
1.1723261
1.1725276
1.1724442
1.1722635
1.171988
1.1724686
1.172459
1.1724334
1.1719839
1.1720257
1.1721134
1.1722164
1.172211
1.1723806
1.1726993
1.1727209
1.1728276
1.1728249
1.1731534
1.1727331
1.1726064
1.1726155
1.172418
1.1722633
1.1725941
1.1726038
1.1728712
1.1730751
1.1731335
1.1729303
1.1729497
1.1731453
1.1732631
1.173285
1.1735104
1.1734539
1.1732625
1.1731248
1.1730968
1.1729056
1.1729366
1.17298
1.1731724
1.1731928
1.1733017
1.1734596
1.1734454
1.1735402
1.1736572
1.1733734
1.173374
1.1733496
1.1732221
1.1732575
1.173388
1.1731298
1.1731258
1.1730918
1.1730137
1.1729876
1.173158
1.1732869
1.1734051
1.1735067
1.1735529
1.1733402
1.1733232
1.1733558
1.1734518
1.1734957
1.1734857
1.1735834
1.1736999
1.1736032
1.1734393
1.1734061
1.1733453
1.1734542
1.1734651
1.1733834
1.1732993
1.1733527
1.1732324
1.1731854
1.1730885
1.1732555
1.1732977
1.1731693
1.1731801
1.1730979
1.1731558
1.1731124
1.1728451
1.1728637
1.1726573
1.1726338
1.172645
1.1727668
1.1728573
1.1727768
1.1728868
1.1722999
1.1723205
1.1719826
1.1722677
1.1722986
1.1719417
1.1715463
1.1720611
1.1724215
1.1727274
1.1727568
1.1726601
1.1727025
1.1727949
1.1725149
1.1724644
1.1723536
1.1722692
1.1717726
1.1717559
1.1716584
1.1716939
1.1717944
1.1718985
1.1713693
1.1716577
1.1715267
1.1720418
1.1720099
1.1719902
1.1714322
1.1714782
1.1710341
1.1712021
1.1709679
1.1716451
1.1715723
1.1716997
1.1710286
1.1715199
1.1716232
1.1720996
1.1723186
1.1725323
1.1722232
1.1724708
1.1721775
1.1724677
1.1723632
1.1723286
1.1720789
1.1723986
1.1724292
1.1721111
1.1722206
1.1725226
1.1723107
1.1726187
1.1728606
1.1727961
1.1725405
1.1725163
1.1723836
1.1724019
1.1726962
1.1727582
1.1728766
1.1729745
1.1727619
1.1726147
1.1724731
1.1720956
1.1720205
1.1722197
1.1721996
1.1718007
1.1718174
1.1715373
1.1715316
1.1720106
1.1720747
1.1716357
1.1718161
1.1716561
1.1721223
1.1724345
1.1727316
1.1726279
1.1723136
1.1722339
1.1725745
1.1726853
1.1723684
1.1720265
1.1717922
1.1719136
1.1713866
1.1711875
1.1715055
1.1714435
1.1719894
1.1723441
1.1726694
1.1725411
1.1721811
1.1721573
1.1725272
1.1727904
1.1727499
1.1727679
1.1727994
1.1728461
1.1730555
1.1730634
1.1728565
1.1728049
1.1730242
1.1730187
1.172999
1.1729999
1.1731613
1.173378
1.1733485
1.173336
1.1733361
1.1734215
1.1735989
1.1735993
1.1736305
1.1734379
1.1733242
1.1734362
1.1732363
1.1731797
1.173166
1.1732955
1.1734113
1.1732227
1.1730781
1.173097
1.1731289
1.1731703
1.1729951
1.173063
1.1731939
1.1732478
1.1732973
1.1733415
1.1733848
1.1733284
1.1734798
1.1736964
1.173734
1.1737971
1.1738339
1.1738637
1.1738818
1.1738968
1.1738824
1.1738631
1.1738728
1.1738477
1.1737948
1.1738436
1.1738149
1.1737321
1.1737095
1.1737517
1.1738151
1.1737471
1.1737742
1.1737222
1.1736216
1.1736145
1.1736724
1.1737425
1.1736731
1.173733
1.1737341
1.1738246
1.1738141
1.1738121
1.1737392
1.1737335
1.1738084
1.1738318
1.1738697
1.1738275
1.173832
1.1738392
1.1738689
1.1738771
1.1738427
1.1738002
1.1738426
1.1738808
1.1738354
1.1738357
1.1738148
1.1738579
1.1738694
1.1738896
1.1738897
1.1738456
1.1738693
1.173864
1.1739007
1.1738817
1.1738651
1.1738644
1.1738685
1.173879
1.1739043
1.1738844
1.1738555
1.1738125
1.1738092
1.173798
1.1737933
1.1737176
1.1738126
1.173789
1.1738166
1.1738452
1.1738215
1.1737598
1.1737131
1.1737778
1.1737537
1.1736838
1.1736268
1.1736279
1.1737284
1.1736858
1.1737452
1.1737508
1.1737521
1.1738174
1.1738208
1.1738037
1.1738294
1.173741
1.1737255
1.1737107
1.1736129
1.1735766
1.1736854
1.1736269
1.1735079
1.1735076
1.1734707
1.1735898
1.1735695
1.1736209
1.173588
1.1736109
1.1737248
1.1737148
1.1736876
1.1736993
1.1735723
1.1735916
1.1736763
1.1734811
1.1734978
1.1736018
1.173541
1.1734643
1.1734003
1.1733348
1.1735348
1.1734999
1.1735871
1.1736061
1.1736876
1.1736972
1.1737066
1.1735053
1.1735396
1.1736225
1.1736747
1.1737069
1.1736093
1.1735728
1.173681
1.1735799
1.1734621
1.1734923
1.173491
1.1736089
1.1735528
1.1736035
1.1735616
1.1736048
1.1737194
1.1736891
1.17367
1.1736969
1.173569
1.1735744
1.1736519
1.1737388
1.1737344
1.1736667
1.1735796
1.1735472
1.1736298
1.1737267
1.1736315
1.1737219
1.1737264
1.1736504
1.1736564
1.173644
1.1737206
1.1737078
1.1738621
1.1737829
1.1737786
1.1737863
1.1737574
1.1737767
1.1737789
1.1737149
1.1736686
1.1736734
1.1736906
1.1735846
1.173596
1.1734934
1.1734483
1.1735233
1.1734824
1.1735266
1.1734965
1.1736981
1.1736714
1.1736689
1.1735877
1.1735688
1.1735578
1.1735333
1.1735562
1.173467
1.1733911
1.1735614
1.1734645
1.1733438
1.1732476
1.1731859
1.1734728
1.1734085
1.1735437
1.1735761
1.1736985
1.1736903
1.1737659
1.1737443
1.1737321
1.1736754
1.1736523
1.173763
1.1737923
1.1737946
1.173795
1.1736804
1.1736824
1.1737103
1.1738638
1.1738155
1.173726
1.1738056
1.1738556
1.1737718
1.1738356
1.1737891
1.1738698
1.1738812
1.173919
1.1738602
1.1737919
1.1737834
1.1738183
1.1738552
1.1738487
1.1736764
1.1737008
1.1737359
1.1738632
1.1738508
1.1738361
1.1739493
1.173975
1.1739145
1.1738668
1.1738966
1.1738562
1.1737603
1.173814
1.1738196
1.1738174
1.1738388
1.1738726
1.1738741
1.1738412
1.1738372
1.1738049
1.1738443
1.173845
1.1738629
1.1738232
1.173844
1.1738407
1.1738834
1.1738751
1.1738501
1.1738334
1.1738762
1.1738357
1.1738355
1.1737813
1.1738417
1.1738937
1.1739339
1.1739145
1.1738664
1.1739049
1.1739467
1.1738665
1.1738901
1.173945
1.1739225
1.1739199
1.1739372
1.1738597
1.1739151
1.1738937
1.1739482
1.1739605
1.174003
1.1739365
1.17402
1.1740057
1.1740016
1.1739081
1.1739777
1.1740397
1.1740074
1.1739433
1.1739565
1.1739264
1.1738878
1.1738293
1.1738748
1.1739441
1.1739169
1.1739141
1.1738298
1.1738311
1.1737734
1.1738005
1.1738631
1.1738689
1.1738436
1.1737557
1.173821
1.1738517
1.1738018
1.1737776
1.1738419
1.1736662
1.1737476
1.173726
1.1737355
1.1737198
1.1736664
1.173696
1.1736973
1.1735322
1.1735846
1.1736252
1.1735143
1.1734663
1.1735348
1.1735137
1.1734379
1.173433
1.1734539
1.173596
1.1734929
1.1734106
1.1733806
1.1733801
1.1735622
1.1734717
1.1735586
1.1735706
1.1735815
1.1735911
1.1735745
1.1735051
1.1734158
1.1733768
1.1734765
1.1734228
1.1734552
1.1735563
1.1736748
1.1736705
1.1736707
1.1736644
1.1736607
1.1736914
1.1735354
1.173498
1.1736965
1.1736578
1.1736682
1.1736694
1.1735521
1.1735642
1.173547
1.1736764
1.1736756
1.1735322
1.1733876
1.1734515
1.1733413
1.1733008
1.1734234
1.1733495
1.1735153
1.1735387
1.1735239
1.1735466
1.173498
1.1736147
1.1737217
1.1737103
1.1738031
1.1737186
1.1737249
1.1738206
1.1738038
1.1738123
1.1738161
1.1738247
1.1737165
1.1737172
1.1736074
1.1736245
1.1735183
1.1735007
1.1736042
1.1737185
1.1737203
1.1736265
1.1736379
1.1736392
1.1736481
1.173798
1.1737659
1.1737906
1.173806
1.1737291
1.1737526
1.1738473
1.1738224
1.1738689
1.1738385
1.1738995
1.1738268
1.1739442
1.1738555
1.1739064
1.1739625
1.1740229
1.1739491
1.173843
1.1738472
1.1736928
1.1737111
1.1737233
1.1734377
1.1734727
1.1731867
1.1733875
1.1733286
1.1734469
1.173395
1.1732366
1.1731564
1.1732502
1.17344
1.173358
1.1731653
1.173051
1.1732822
1.1733464
1.1735279
1.1735292
1.1734387
1.1737246
1.1737166
1.1737026
1.1737225
1.1737192
1.1737104
1.173687
1.1736794
1.1737771
1.1738809
1.173933
1.1739225
1.1736903
1.1738029
1.1738609
1.1737917
1.1736932
1.173924
1.1738513
1.1738972
1.1737953
1.1738175
1.1739465
1.1740284
1.1739682
1.1740346
1.1739519
1.1740543
1.17391
1.1740005
1.1739065
1.1740528
1.1740983
1.1740166
1.1739537
1.1740058
1.1739381
1.1738752
1.1738366
1.1737436
1.1738284
1.1738886
1.1739143
1.1738759
1.1737697
1.1738589
1.1739105
1.1739754
1.1739365
1.1740067
1.1740543
1.1739827
1.1739001
1.173789
1.1737663
1.1738035
1.1736881
1.1735444
1.1734132
1.1732707
1.173165
1.173347
1.1732883
1.1733689
1.1732077
1.1730827
1.1729475
1.1730628
1.1732929
1.1732111
1.1729245
1.1726505
1.172424
1.1721386
1.17249
1.1722592
1.1718059
1.1716235
1.1719214
1.1714089
1.1718415
1.1717221
1.1720586
1.1720308
1.1720754
1.1717671
1.1719417
1.1715819
1.1713798
1.1717732
1.1714379
1.1716932
1.1718989
1.1725336
1.1720275
1.1718709
1.1720335
1.1715755
1.1719011
1.1717102
1.1713061
1.1714384
1.1715924
1.1721361
1.1712079
1.1715699
1.1712975
1.1717062
1.1722173
1.171417
1.171587
1.1708689
1.170425
1.1708647
1.1703641
1.1708702
1.1714016
1.1716862
1.1714229
1.1710947
1.1705076
1.1709372
1.1712485
1.1708337
1.1712457
1.1709356
1.1704962
1.1711124
1.1714104
1.1708638
1.170373
1.169853
1.1703821
1.1698448
1.1692118
1.1698085
1.1693036
1.1699503
1.170537
1.1711617
1.1715498
1.1714482
1.1709193
1.1710801
1.1717894
1.1713324
1.1718795
1.171058
1.1714908
1.1715234
1.1712768
1.1719476
1.1725096
1.1723265
1.1714921
1.1720058
1.1705834
1.1703522
1.1696912
1.1700636
1.1711268
1.1706954
1.171091
1.1719804
1.1717492
1.1724778
1.1715366
1.1710508
1.1708716
1.1714196
1.1722327
1.171251
1.1714453
1.170331
1.1705629
1.1700248
1.1696667
1.1701313
1.170869
1.1721789
1.171722
1.1725519
1.1714028
1.1718335
1.172219
1.1722236
1.1725342
1.1727661
1.1726598
1.172331
1.1719712
1.1716725
1.1717065
1.1710395
1.1709694
1.1714114
1.171841
1.1721255
1.1728037
1.1726279
1.1726317
1.1725299
1.1727635
1.172968
1.1731229
1.1732687
1.1732432
1.1732586
1.17361
1.1734347
1.1732719
1.1732108
1.1732043
1.1731676
1.1733513
1.1733751
1.1734594
1.1734295
1.1734728
1.1736445
1.1736227
1.17369
1.1736747
1.1737467
1.1737303
1.1737018
1.1736297
1.1734348
1.17345
1.1736429
1.1736186
1.1734377
1.1734722
1.1736133
1.1736333
1.1735027
1.1735392
1.1736884
1.1737249
1.1737056
1.1737503
1.173843
1.1737438
1.1736625
1.1736656
1.1736814
1.1736406
1.1734837
1.1735241
1.1735137
1.1735597
1.1735793
1.1736786
1.1737566
1.1737031
1.1737761
1.173779
1.1736969
1.1737686
1.1738088
1.1736593
1.1737422
1.1735904
1.1736252
1.1736199
1.1737172
1.1738261
1.1736715
1.1737831
1.1736415
1.1736741
1.1733887
1.1734597
1.1735699
1.173656
1.173697
1.1735734
1.1734736
1.1734675
1.1733382
1.1734569
1.1735469
1.1731072
1.1731834
1.1733339
1.1734537
1.1736679
1.1735716
1.1736726
1.1737687
1.1737558
1.1738306
1.1738834
1.1738269
1.1738113
1.1738098
1.1738081
1.1737034
1.1737282
1.1737477
1.1736818
1.1735697
1.1736072
1.173569
1.1735784
1.173615
1.1736084
1.1735982
1.1736996
1.1735753
1.1736554
1.173559
1.1736352
1.1735742
1.1734069
1.1732798
1.1732398
1.1732962
1.1732928
1.1734687
1.1734903
1.1734138
1.1733453
1.1731822
1.1731734
1.1730144
1.1730071
1.1730776
1.1728591
1.1727849
1.1727931
1.1728662
1.1730844
1.1731268
1.1733221
1.1733162
1.1729537
1.1729723
1.1729698
1.1729798
1.1731334
1.1733083
1.1729354
1.173016
1.1733404
1.1731521
1.1729971
1.1729064
1.1728727
1.1730881
1.1732162
1.1732388
1.173204
1.1730526
1.1730232
1.1728076
1.1728433
1.1728132
1.1727718
1.172754
1.1727421
1.1729802
1.1729853
1.1729834
1.1731491
1.1731446
1.1733486
1.173369
1.173359
1.1731489
1.1731423
1.173151
1.1731669
1.1731603
1.1732956
1.173411
1.1732157
1.1732213
1.1734239
1.1733155
1.173295
1.1733432
1.1733319
1.1731592
1.1731623
1.1731855