/*--------------------------------*- C++ -*----------------------------------*\
  =========                 |
  \\      /  F ield         | OpenFOAM: The Open Source CFD Toolbox
   \\    /   O peration     | Website:  https://openfoam.org
    \\  /    A nd           | Version:  7
     \\/     M anipulation  |
\*---------------------------------------------------------------------------*/
FoamFile
{
    version     2.0;
    format      ascii;
    class       volVectorField;
    location    "110";
    object      U;
}
// * * * * * * * * * * * * * * * * * * * * * * * * * * * * * * * * * * * * * //

dimensions      [0 1 -1 0 0 0 0];

internalField   nonuniform List<vector> 
25278
(
(120.03554 0.0022139362 -0.0014848149)
(120.03131 -0.0045199157 -0.032291719)
(120.02687 -0.011846616 -0.020439606)
(120.02742 -0.020265 -0.014069751)
(119.99758 -0.040547464 -0.011341893)
(120.03309 -0.034858269 -0.0075325331)
(120.04255 -0.001928178 0.0018903567)
(120.03606 -0.0012818538 0.0011510815)
(120.04043 0.0028992326 -0.0009750722)
(120.05818 0.00035507134 -0.012770741)
(120.04986 -0.0066908217 -0.012808231)
(120.04078 -0.0060962196 -0.0075091011)
(120.03572 -0.019694815 -0.021718413)
(120.02089 -0.030215222 -0.032557309)
(119.82769 -0.084639937 -0.12227317)
(120.02638 0.011519645 -0.019993855)
(120.03086 0.0054036782 -0.031560199)
(119.86648 -0.099790189 -0.15058282)
(119.8011 -0.036267455 -0.19344069)
(119.90826 -0.046321459 -0.18655687)
(120.00096 -0.010682955 -0.096599765)
(120.0098 -0.034426218 -0.079095798)
(120.01967 -0.038884455 -0.058143731)
(120.04617 -0.025794463 -0.039981619)
(120.06697 -0.05133001 -0.055616939)
(120.04705 -0.038891313 -0.029756448)
(120.02011 -0.057081167 -0.043258267)
(120.00484 -0.082984999 -0.087071125)
(119.96033 -0.07961333 -0.12800588)
(120.00308 -0.078368717 -0.12552971)
(119.98558 -0.074792923 -0.15731383)
(119.9293 -0.074261565 -0.16901465)
(119.86241 -0.13998532 -0.24623984)
(119.90975 -0.14113832 -0.17516319)
(119.97616 -0.13236921 -0.1816027)
(119.9414 -0.12101128 -0.21536319)
(119.97418 -0.11898087 -0.21482343)
(119.95728 -0.11097201 -0.2500607)
(119.91712 -0.11137387 -0.25213991)
(119.8694 -0.15643215 -0.30532004)
(119.89808 -0.16802013 -0.25427555)
(119.94338 -0.16411059 -0.25861628)
(119.91995 -0.1546818 -0.30543299)
(119.9756 -0.14937112 -0.28723794)
(120.00255 -0.10129892 -0.23167831)
(120.04766 -0.059250906 -0.1259874)
(120.05353 -0.019010776 -0.054277326)
(120.06035 -0.0053922245 -0.06510328)
(120.04448 -0.038315247 -0.14509269)
(119.96928 -0.048536498 -0.18141325)
(119.963 -0.013963324 -0.18939515)
(119.89679 -0.012512341 -0.19466243)
(119.79973 -0.025705308 -0.31106674)
(119.81872 -0.094404133 -0.29798724)
(119.90024 -0.093249135 -0.27307787)
(119.94348 -0.093937662 -0.27597091)
(119.93557 -0.068525428 -0.29741771)
(119.8873 -0.066452168 -0.29341833)
(119.8267 -0.097339199 -0.37019133)
(119.84393 -0.13378301 -0.34048736)
(119.89627 -0.13523747 -0.35013125)
(119.88505 -0.10124185 -0.38091351)
(119.87508 -0.06086047 -0.39776989)
(119.93047 -0.041586375 -0.30664858)
(119.88093 -0.039982931 -0.29874913)
(119.87814 -0.0088684399 -0.30197302)
(119.92894 -0.009771467 -0.31038976)
(119.87279 -0.015612509 -0.40181732)
(119.81234 -0.013850561 -0.38152984)
(119.81552 -0.057167417 -0.37919534)
(119.72298 -0.077754333 -0.46272298)
(119.74194 -0.13402152 -0.4519089)
(119.7677 -0.18096175 -0.40740989)
(119.804 -0.21187169 -0.35932714)
(119.84992 -0.21368742 -0.28867782)
(119.92142 -0.21710696 -0.22159423)
(119.97519 -0.18039324 -0.13960368)
(120.00248 -0.12575713 -0.086299564)
(120.01002 -0.08178897 -0.041186412)
(119.96319 -0.087711944 -0.046079082)
(119.93286 -0.080858036 -0.040528846)
(119.82442 -0.12561325 -0.091267803)
(119.86392 -0.15362819 -0.10733162)
(119.79103 -0.21072713 -0.045633826)
(119.94213 -0.10844617 -0.017401575)
(119.90703 -0.096447628 -0.014822219)
(119.74959 -0.16602676 -0.038550391)
(119.51544 -0.23037707 -0.10746699)
(119.61937 -0.18078188 -0.13520982)
(119.7307 -0.13221408 -0.13423924)
(119.74183 -0.15406835 -0.15672449)
(119.63335 -0.1504717 -0.20328879)
(119.62471 -0.12938935 -0.17768205)
(119.44247 -0.20483117 -0.20763945)
(119.45945 -0.22843936 -0.2318404)
(119.62818 -0.20626485 -0.15746936)
(119.6488 -0.23178941 -0.1754222)
(119.75905 -0.1658586 -0.16882415)
(119.7804 -0.19561888 -0.19921077)
(119.67222 -0.20530107 -0.27367939)
(119.65338 -0.16792015 -0.2289168)
(119.47789 -0.27198558 -0.27568434)
(119.50935 -0.32489185 -0.32932718)
(119.66845 -0.27589992 -0.21379822)
(119.56709 -0.36377424 -0.16874392)
(119.5495 -0.29869677 -0.13708624)
(119.52887 -0.26205797 -0.12422641)
(119.20272 -0.35304014 -0.22194945)
(119.17943 -0.31161832 -0.19831726)
(118.91 -0.38520362 -0.09922475)
(119.42587 -0.25724849 -0.040121448)
(119.44148 -0.28327474 -0.044344428)
(118.92969 -0.42395489 -0.11155774)
(118.95071 -0.50273969 -0.13363252)
(119.23039 -0.42518331 -0.25836722)
(119.27964 -0.51554572 -0.31880958)
(119.00091 -0.61169918 -0.1735977)
(119.48855 -0.38665061 -0.060983885)
(119.4671 -0.31609502 -0.047551074)
(119.46264 -0.31624047 0.038629702)
(119.78937 -0.21158888 0.042348415)
(119.94169 -0.10899463 0.015077917)
(119.99756 -0.041130354 0.010156715)
(119.61341 -0.13693708 0.18144412)
(119.42731 -0.21329048 0.20783246)
(119.16055 -0.31775369 0.1927869)
(118.89858 -0.3864065 0.087425756)
(119.4228 -0.25789528 0.034092724)
(119.74817 -0.16688591 0.035294767)
(119.90668 -0.096935801 0.012785151)
(119.93205 -0.082778011 0.039027123)
(119.96258 -0.089915722 0.044498449)
(119.86115 -0.15750517 0.10578015)
(119.82169 -0.12888988 0.089728499)
(119.61253 -0.18547173 0.13374028)
(119.5085 -0.23323776 0.10330717)
(119.52145 -0.26515308 0.11883216)
(119.43798 -0.28371946 0.036586665)
(118.91576 -0.42469407 0.095147998)
(119.18215 -0.36004578 0.21401897)
(119.20757 -0.43295742 0.24765596)
(118.93274 -0.50335831 0.1109115)
(118.97641 -0.61310409 0.14223441)
(119.48267 -0.38656875 0.050215723)
(119.55812 -0.36667275 0.16173977)
(119.54171 -0.30174264 0.13092574)
(119.64158 -0.2368865 0.1727883)
(119.62118 -0.2112308 0.15534122)
(119.44403 -0.23775206 0.23099945)
(119.62208 -0.15906547 0.20668961)
(119.82215 -0.090647355 0.12598046)
(119.72478 -0.13751169 0.13498527)
(119.73589 -0.15990774 0.15721377)
(119.75303 -0.17191662 0.16917619)
(119.86158 -0.10643508 0.15455388)
(119.77385 -0.20252074 0.19977832)
(119.66043 -0.28147109 0.2107285)
(119.49268 -0.33525934 0.32609506)
(119.25339 -0.52311862 0.30530333)
(118.5355 -0.68505723 0.65887859)
(116.96105 -0.93817173 0.57405122)
(117.06103 -0.94021744 -0.65066415)
(118.60694 -0.66170233 -0.67139008)
(119.28969 -0.30438702 -0.50654797)
(119.57892 -0.15486266 -0.3500901)
(119.56249 -0.12518978 -0.2852057)
(119.49472 -0.032592002 -0.28768576)
(119.51431 -0.042429028 -0.35592368)
(119.03197 -0.13807129 -0.57096821)
(118.98899 -0.106259 -0.46605241)
(119.24286 -0.24590167 -0.41555193)
(118.53226 -0.5335688 -0.53929025)
(117.16907 -0.43828878 -0.69854951)
(117.05194 -0.59590097 -0.90287465)
(108.50659 -1.7833574 -1.6754426)
(110.71505 -1.2797753 -1.2143243)
(117.14076 -0.73318309 -0.47499109)
(117.07196 -0.73395547 0.4300425)
(110.64425 -1.2653521 1.2479107)
(108.43701 -1.7697355 1.7204789)
(116.93388 -0.66030767 0.92253072)
(117.05407 -0.48498444 0.72456768)
(118.47134 -0.55238498 0.5310994)
(119.20972 -0.26212068 0.4223449)
(119.46203 -0.2820243 0.27387646)
(119.64237 -0.17687317 0.23196016)
(119.661 -0.21513297 0.27626234)
(119.56009 -0.16860163 0.36004016)
(119.25689 -0.32187034 0.51038519)
(118.97658 -0.17558212 0.59994044)
(118.9331 -0.13504553 0.49315011)
(119.46436 -0.047219856 0.3094851)
(119.78996 -0.044457885 0.20621184)
(119.5437 -0.1369949 0.29544924)
(119.48342 -0.06131569 0.37895804)
(119.57613 -0.072732456 0.45746748)
(119.0956 -0.22846693 0.77594691)
(116.89643 -0.88901553 1.2789173)
(105.72012 -2.4374882 2.3234257)
(105.79136 -2.4284465 -2.2778787)
(117.01115 -0.81293442 -1.2572983)
(119.14567 -0.18170218 -0.74430731)
(119.60476 -0.052026325 -0.43191543)
(119.65261 -0.1762711 -0.41333111)
(119.73932 -0.23193496 -0.31113545)
(119.83782 -0.20337505 -0.20721752)
(119.90864 -0.1742446 -0.14774783)
(119.95941 -0.12854312 -0.086828259)
(119.92645 -0.1748953 -0.082789358)
(119.98358 -0.16252293 -0.084458163)
(119.93921 -0.21845406 -0.13017814)
(119.85887 -0.25124379 -0.14960809)
(119.89556 -0.25652444 -0.17708773)
(119.94095 -0.26069302 -0.17358594)
(119.97211 -0.21786423 -0.12865433)
(119.95385 -0.25691775 -0.12148977)
(119.9133 -0.25924729 -0.12117788)
(119.86516 -0.31167432 -0.16690179)
(119.91611 -0.31126683 -0.16558517)
(119.97182 -0.29275961 -0.16133448)
(119.99471 -0.24248117 -0.16309098)
(120.05355 -0.14521421 -0.11373849)
(120.04932 -0.099271258 -0.068744494)
(120.05537 -0.056283304 -0.025374748)
(120.07922 -0.059939012 -0.042938317)
(120.11107 -0.086385923 -0.070397279)
(120.08892 -0.13710775 -0.083197415)
(120.09516 -0.081351471 -0.045885695)
(120.04708 -0.13064617 -0.069607561)
(120.0125 -0.19923911 -0.11759613)
(120.05537 -0.17171556 -0.10196576)
(120.05467 -0.21248432 -0.14364569)
(120.04056 -0.25881291 -0.14532777)
(120.04951 -0.20950504 -0.099987858)
(119.99955 -0.23844917 -0.11263147)
(119.9899 -0.26868433 -0.099731681)
(120.04278 -0.15713006 -0.049257338)
(120.06336 -0.07411632 -0.011555284)
(120.00039 -0.10649014 -0.016759222)
(119.90361 -0.19826221 -0.054949096)
(119.96547 -0.19360207 -0.058346973)
(119.89491 -0.28435306 -0.10353015)
(119.81077 -0.31228686 -0.10587805)
(119.83747 -0.35193154 -0.14540733)
(119.89022 -0.361685 -0.1473874)
(119.93854 -0.28744553 -0.10501692)
(119.92868 -0.31476252 -0.079718285)
(119.87966 -0.31057165 -0.076736841)
(119.81747 -0.38823352 -0.10979876)
(119.87685 -0.3986883 -0.11423682)
(119.86386 -0.42313204 -0.073415502)
(119.92176 -0.32943055 -0.051684269)
(119.95695 -0.20955115 -0.02135854)
(119.88921 -0.21421985 -0.018955808)
(119.78654 -0.3369146 -0.035914911)
(119.87178 -0.32065971 -0.049220099)
(119.80357 -0.40374272 -0.069038298)
(119.79676 -0.4125192 -0.023275151)
(119.86645 -0.32908132 -0.015607182)
(119.91798 -0.33870466 -0.017504818)
(119.85858 -0.43368625 -0.025967337)
(119.93645 -0.42805643 -0.027891919)
(119.94021 -0.41454493 -0.076823786)
(119.94646 -0.38665379 -0.11597719)
(119.95521 -0.34714261 -0.14666737)
(120.03447 -0.30869514 -0.13445042)
(120.04637 -0.23707594 -0.089074992)
(120.04789 -0.26232424 -0.06938864)
(119.98475 -0.29591726 -0.076181719)
(119.98123 -0.3113745 -0.051020828)
(120.04319 -0.17117788 -0.01944863)
(120.11416 -0.09940496 -0.014136647)
(120.10392 -0.094014165 -0.030204952)
(120.09331 -0.18922544 -0.072523471)
(120.09114 -0.16775756 -0.081059635)
(120.12294 -0.11524681 -0.057621185)
(120.11373 -0.091166263 -0.057490567)
(120.13989 -0.11278267 -0.081651848)
(120.10423 -0.16846256 -0.11662377)
(120.10162 -0.2073714 -0.11832593)
(120.1478 -0.14543156 -0.085662503)
(120.16215 -0.17138177 -0.079295733)
(120.13045 -0.12851522 -0.050293541)
(120.14285 -0.13899889 -0.04029546)
(120.1006 -0.20853895 -0.057493504)
(120.11669 -0.2766 -0.09209153)
(120.10665 -0.24735845 -0.11144385)
(120.07938 -0.32724681 -0.16566991)
(120.07873 -0.29772595 -0.1683695)
(120.0804 -0.26429401 -0.16892548)
(120.1135 -0.20068091 -0.14919522)
(120.14131 -0.102774 -0.10972589)
(120.11085 -0.061639871 -0.088865248)
(120.07819 -0.03482992 -0.060532811)
(120.04917 -0.060631351 -0.099503273)
(120.05412 -0.10565674 -0.14707252)
(120.01424 -0.10735259 -0.19648273)
(120.05651 -0.090824826 -0.16905248)
(120.05177 -0.087476326 -0.20263309)
(120.04384 -0.13190435 -0.25340186)
(120.05652 -0.13229135 -0.21107807)
(119.99688 -0.15290765 -0.24087668)
(119.97395 -0.20689694 -0.28904292)
(120.0433 -0.18532226 -0.19090604)
(120.0508 -0.1780635 -0.25350011)
(120.0088 -0.1895717 -0.31262512)
(119.97178 -0.2011332 -0.33031917)
(119.93588 -0.20615406 -0.33885454)
(119.86447 -0.22490149 -0.37733031)
(119.90534 -0.22018849 -0.29953522)
(119.86596 -0.30074272 -0.36075858)
(119.79154 -0.29318917 -0.34103653)
(119.74054 -0.2935334 -0.43322874)
(119.82069 -0.31023328 -0.45732589)
(119.7567 -0.44254499 -0.54414731)
(119.81575 -0.3959242 -0.4010056)
(119.86457 -0.35893774 -0.30825056)
(119.90329 -0.29993025 -0.2288033)
(119.84763 -0.28941441 -0.22204886)
(119.73626 -0.3131514 -0.2408205)
(119.79 -0.33951159 -0.30043152)
(119.73706 -0.43605611 -0.3042779)
(119.7998 -0.36446714 -0.22247522)
(119.86081 -0.38177794 -0.23572977)
(119.81779 -0.45941661 -0.3209178)
(119.75543 -0.54265653 -0.45177266)
(119.66133 -0.49716415 -0.40198292)
(119.73348 -0.36754889 -0.37235995)
(119.58 -0.40101658 -0.40589818)
(119.66317 -0.39256609 -0.49794934)
(119.57769 -0.55801973 -0.56401141)
(119.70229 -0.62016265 -0.62620293)
(119.83714 -0.57392048 -0.57991149)
(119.8528 -0.49195945 -0.5508927)
(119.87213 -0.40576821 -0.49544177)
(119.8875 -0.34296127 -0.45743675)
(119.90443 -0.28271743 -0.4136609)
(119.91742 -0.24401782 -0.37944961)
(119.96179 -0.23515324 -0.37094701)
(119.9504 -0.2312326 -0.41289684)
(119.95985 -0.19506825 -0.36553121)
(119.91673 -0.19938441 -0.37612544)
(119.9017 -0.23891333 -0.42442941)
(119.8858 -0.28709779 -0.46867388)
(119.94105 -0.28435262 -0.46255364)
(119.95459 -0.27710554 -0.40665895)
(119.95362 -0.28951707 -0.35349612)
(120.05959 -0.25322769 -0.3174811)
(120.0042 -0.26320743 -0.38998951)
(120.00431 -0.2228558 -0.35185651)
(120.05065 -0.2045638 -0.3277048)
(120.0485 -0.17388417 -0.28931013)
(120.04336 -0.17103065 -0.32309318)
(119.99933 -0.1845037 -0.34800356)
(119.99429 -0.22034203 -0.39456274)
(120.04489 -0.20461509 -0.36901313)
(120.05449 -0.25361257 -0.419554)
(120.05819 -0.24212335 -0.36378683)
(120.07367 -0.29474821 -0.40697585)
(120.00875 -0.31921366 -0.43438129)
(119.94981 -0.3337792 -0.45237377)
(119.93938 -0.33968767 -0.51851991)
(119.8729 -0.34661087 -0.52574663)
(119.85372 -0.42125198 -0.57762825)
(119.93262 -0.42320674 -0.57806904)
(119.94301 -0.40333299 -0.49402178)
(119.92655 -0.40057087 -0.40609368)
(119.95227 -0.35119837 -0.29752365)
(119.97196 -0.28896311 -0.21599035)
(120.04892 -0.25297304 -0.1884573)
(120.05823 -0.31417911 -0.26276232)
(120.00126 -0.39076266 -0.27499642)
(120.00108 -0.35396236 -0.23473268)
(120.00554 -0.31580916 -0.20158596)
(119.96844 -0.33364126 -0.21242943)
(119.93259 -0.34224773 -0.21695221)
(119.91417 -0.38196292 -0.25454463)
(119.95851 -0.3732849 -0.24618354)
(119.94605 -0.41747734 -0.24337131)
(119.95541 -0.3712705 -0.20719539)
(119.91221 -0.3820471 -0.21089724)
(119.89731 -0.42927147 -0.25046404)
(119.88178 -0.4724172 -0.29879955)
(119.90154 -0.41506314 -0.2930572)
(119.9517 -0.40776025 -0.28797103)
(119.94738 -0.45188557 -0.34424996)
(119.88511 -0.45732767 -0.35284387)
(119.86947 -0.52788829 -0.35817785)
(119.93597 -0.52021106 -0.35187473)
(119.9371 -0.46590527 -0.29665018)
(119.9919 -0.44994889 -0.28564427)
(119.98988 -0.39910311 -0.23357688)
(119.9949 -0.35378051 -0.19755567)
(120.0392 -0.32902535 -0.18525582)
(120.04549 -0.2925724 -0.18698261)
(120.04755 -0.32978515 -0.21762258)
(120.04064 -0.37360037 -0.21911254)
(120.05041 -0.42267778 -0.26858496)
(120.05532 -0.3643802 -0.25523562)
(120.0712 -0.40553701 -0.30773858)
(120.00628 -0.43340001 -0.33070259)
(119.99838 -0.50393235 -0.34083737)
(120.06915 -0.47527483 -0.32125176)
(120.13608 -0.43280108 -0.29147325)
(120.12909 -0.36747804 -0.27688414)
(120.14807 -0.24732149 -0.20444864)
(120.21466 -0.15735936 -0.13335577)
(120.16176 -0.12958079 -0.10178781)
(120.14224 -0.19146304 -0.12589488)
(120.11586 -0.22769166 -0.14667311)
(120.13093 -0.25778154 -0.17053803)
(120.08975 -0.29730616 -0.19606268)
(120.08803 -0.33766726 -0.1988381)
(120.13335 -0.29636247 -0.17591858)
(120.1182 -0.25923455 -0.14844175)
(120.14856 -0.21804843 -0.12621761)
(120.17374 -0.16981278 -0.099653282)
(120.16387 -0.14736516 -0.097456051)
(120.18783 -0.16577875 -0.11128832)
(120.16275 -0.21404543 -0.14415106)
(120.16972 -0.24534671 -0.14677361)
(120.1984 -0.1933382 -0.11655653)
(120.23437 -0.21641212 -0.13809996)
(120.21591 -0.18041506 -0.12596606)
(120.18752 -0.23694679 -0.16593894)
(120.15149 -0.28479633 -0.19855996)
(120.1034 -0.33039408 -0.22923177)
(120.10719 -0.38445768 -0.24326498)
(120.15945 -0.3361317 -0.21443306)
(120.1978 -0.37802536 -0.25645038)
(120.18558 -0.31667483 -0.23914609)
(120.22844 -0.26290095 -0.19826585)
(120.26063 -0.19645925 -0.14801347)
(120.28369 -0.23894932 -0.16201251)
(120.24758 -0.31230242 -0.21004475)
(120.20238 -0.2792176 -0.17710787)
(120.22087 -0.31860222 -0.18328466)
(120.18174 -0.27705402 -0.15097463)
(120.15531 -0.23942476 -0.12514927)
(120.12247 -0.28522801 -0.14625866)
(120.14122 -0.33468382 -0.17856973)
(120.09182 -0.38061471 -0.20135822)
(120.03947 -0.41998508 -0.21906499)
(120.03707 -0.36129503 -0.18030328)
(119.98876 -0.38772916 -0.1911691)
(119.94589 -0.40604477 -0.19788869)
(119.90021 -0.41401533 -0.19967706)
(119.82238 -0.45345972 -0.20883375)
(119.76078 -0.41796544 -0.19356955)
(119.64251 -0.42748695 -0.19078155)
(119.68724 -0.51123637 -0.28033417)
(119.76789 -0.56569367 -0.30332916)
(119.74232 -0.65795287 -0.25071652)
(119.80199 -0.51248703 -0.1660441)
(119.73157 -0.4703308 -0.14862714)
(119.64662 -0.59350637 -0.22373168)
(119.52282 -0.73745027 -0.32424733)
(119.58974 -0.6048611 -0.38931059)
(119.38228 -0.64472168 -0.40068257)
(119.47186 -0.70648491 -0.59465848)
(119.61107 -0.84331165 -0.6785765)
(119.68842 -0.69911419 -0.4505844)
(119.6431 -0.85030955 -0.39834612)
(119.52737 -1.0854682 -0.65819121)
(119.34163 -0.92826641 -0.55121076)
(119.143 -0.99092426 -0.45646488)
(119.44444 -0.78133542 -0.23101409)
(119.61047 -0.61843372 -0.14633366)
(119.70839 -0.48927157 -0.092800234)
(119.58351 -0.46376015 -0.071163543)
(119.6978 -0.50153694 -0.033503772)
(119.77347 -0.56520333 -0.039736129)
(119.78218 -0.54856845 -0.10546191)
(119.70948 -0.71409628 -0.16657317)
(119.69278 -0.73921503 -0.065734396)
(119.59014 -0.63788356 -0.056307497)
(119.38764 -0.82551238 -0.097265003)
(119.12764 -0.78537991 -0.22524146)
(118.92606 -1.0994685 -0.23813508)
(119.07696 -1.3747031 -0.28468575)
(119.30718 -1.2639788 -0.5510738)
(119.56188 -0.94808949 -0.28738411)
(119.50434 -0.99681055 -0.12652637)
(119.71869 -1.0031337 -0.15687527)
(119.74251 -0.98080285 -0.23532573)
(119.76491 -0.93327832 -0.30251568)
(119.79071 -0.88416356 -0.35550441)
(119.80574 -0.80999575 -0.39555535)
(119.8197 -0.73844773 -0.42090117)
(119.83175 -0.65310808 -0.42838003)
(119.85126 -0.57799992 -0.43233302)
(119.87044 -0.49368795 -0.41483006)
(119.94138 -0.49177788 -0.41292478)
(119.93817 -0.54823608 -0.49537308)
(119.85201 -0.5470655 -0.49967309)
(119.83959 -0.64426831 -0.52182247)
(119.93352 -0.64312586 -0.52084767)
(119.93021 -0.57782921 -0.43480117)
(120.00878 -0.56430358 -0.42319908)
(120.01022 -0.4750178 -0.39753936)
(120.06429 -0.35786548 -0.36497914)
(120.01202 -0.38687769 -0.47790812)
(120.08766 -0.3596982 -0.44900799)
(120.09534 -0.38618044 -0.53541762)
(120.07281 -0.30607349 -0.4742544)
(120.00199 -0.32732933 -0.50260759)
(119.99605 -0.27211683 -0.446757)
(119.99313 -0.26783095 -0.5011905)
(119.99001 -0.21687275 -0.43926337)
(119.99424 -0.1771524 -0.37881636)
(120.03967 -0.11916001 -0.29656106)
(120.0497 -0.075569865 -0.22503417)
(119.99419 -0.087672629 -0.25700916)
(119.99083 -0.063979108 -0.27810193)
(120.05281 -0.055502427 -0.24340675)
(120.04266 -0.092371328 -0.32602752)
(119.9546 -0.10162904 -0.36823732)
(119.96097 -0.13330074 -0.33544731)
(119.90577 -0.18737078 -0.40531178)
(119.82886 -0.19590436 -0.44318939)
(119.81123 -0.15110021 -0.49477626)
(119.74983 -0.23249636 -0.64204703)
(119.77346 -0.28928491 -0.55776938)
(119.69357 -0.26619998 -0.50266786)
(119.65614 -0.2048711 -0.57581682)
(119.62474 -0.12425381 -0.58987383)
(119.72076 -0.14407098 -0.68689985)
(119.79548 -0.089581216 -0.52170819)
(119.79185 -0.024740261 -0.52899068)
(119.71824 -0.020076682 -0.46608575)
(119.61405 -0.03204904 -0.59616925)
(119.71208 -0.039643832 -0.69869544)
(119.51372 -0.079332849 -0.95257987)
(119.56053 -0.25664808 -0.92380163)
(119.64378 -0.37763281 -0.83893853)
(119.69084 -0.43671113 -0.69535553)
(119.59371 -0.37519808 -0.60003798)
(119.38822 -0.38406251 -0.63693672)
(119.52769 -0.3022873 -0.72330364)
(119.33572 -0.52714453 -0.91989362)
(119.47258 -0.58285415 -0.70735113)
(119.60989 -0.66726204 -0.84462927)
(119.5157 -0.63757305 -1.0805092)
(119.27166 -0.51396575 -1.2462777)
(119.1263 -0.41945192 -0.9632626)
(119.45224 -0.2018848 -0.75345476)
(119.40946 -0.057486284 -0.77901293)
(118.91676 -0.16221088 -1.044811)
(119.03769 -0.19923656 -1.3286424)
(119.3979 -0.26827807 -1.3827724)
(119.6137 -0.17974017 -1.1666516)
(119.72235 -0.11796501 -0.9666615)
(119.79649 -0.086584061 -0.82775357)
(119.82873 -0.063598766 -0.6976229)
(119.85942 -0.050972339 -0.60701331)
(119.8789 -0.040467862 -0.51317131)
(119.95055 -0.016049739 -0.39389383)
(119.98916 -0.008635356 -0.29201734)
(120.0465 -0.010863868 -0.1506014)
(120.11204 -0.0046921106 -0.079097451)
(120.1022 -0.018506014 -0.08273033)
(120.09366 -0.035031925 -0.077258862)
(120.0893 -0.071601884 -0.13480459)
(120.11305 -0.045641536 -0.089098388)
(120.12233 -0.043857121 -0.10869409)
(120.09219 -0.067774521 -0.16100472)
(120.1039 -0.10331722 -0.20187937)
(120.10534 -0.10437349 -0.16746017)
(120.13999 -0.068702415 -0.11200645)
(120.14834 -0.069681676 -0.140049)
(120.1633 -0.060556303 -0.15819568)
(120.12992 -0.035160983 -0.11650911)
(120.09508 -0.058034331 -0.17707313)
(120.10329 -0.042555077 -0.18919132)
(120.14232 -0.02452017 -0.11940422)
(120.18168 -0.045820323 -0.16637676)
(120.12214 -0.073080518 -0.25538019)
(120.1104 -0.094120217 -0.23449767)
(120.08414 -0.14899687 -0.31759395)
(120.08251 -0.15298586 -0.29164475)
(120.08312 -0.15493069 -0.26115628)
(120.11495 -0.13747799 -0.20174478)
(120.16229 -0.088908351 -0.13106704)
(120.14376 -0.11021665 -0.18840342)
(120.11803 -0.1316148 -0.22448138)
(120.12131 -0.131843 -0.25293113)
(120.13679 -0.15849566 -0.2914958)
(120.13337 -0.15507013 -0.25588191)
(120.09261 -0.18187863 -0.2954064)
(120.09203 -0.18281945 -0.33292566)
(120.11117 -0.22645217 -0.38131502)
(120.10614 -0.21481907 -0.33009187)
(120.14927 -0.1931162 -0.25161588)
(120.21527 -0.12011306 -0.16270777)
(120.18941 -0.14876375 -0.23708547)
(120.16457 -0.12775662 -0.21233799)
(120.18884 -0.09406129 -0.16409754)
(120.1645 -0.081151403 -0.14430507)
(120.17481 -0.081425555 -0.16337633)
(120.15081 -0.10871506 -0.2116552)
(120.17237 -0.1279841 -0.24031959)
(120.19991 -0.09684386 -0.18827906)
(120.23615 -0.11633312 -0.21305763)
(120.21703 -0.10767829 -0.18066241)
(120.26176 -0.1284972 -0.19968835)
(120.23027 -0.18024536 -0.26576931)
(120.18777 -0.22271474 -0.31907957)
(120.15387 -0.18259748 -0.28463536)
(120.16301 -0.1958248 -0.33290511)
(120.20125 -0.23683754 -0.37739516)
(120.13978 -0.27410871 -0.43200543)
(120.13153 -0.26235055 -0.36941891)
(120.15394 -0.32164173 -0.40864082)
(120.1815 -0.28037358 -0.28958358)
(120.26929 -0.17499749 -0.18647784)
(120.26672 -0.21922736 -0.29261891)
(120.21871 -0.27381615 -0.35303335)
(120.24746 -0.29991972 -0.42703537)
(120.17533 -0.34725683 -0.48930729)
(120.21982 -0.42624565 -0.55068354)
(120.19045 -0.39658895 -0.46005168)
(120.11058 -0.44188101 -0.50596307)
(120.01956 -0.47050538 -0.53522732)
(119.93904 -0.48696999 -0.55252094)
(119.93494 -0.51022224 -0.64560887)
(119.84099 -0.51180268 -0.6461387)
(119.82345 -0.61561989 -0.6966529)
(119.93175 -0.62943145 -0.7062283)
(119.93441 -0.57953782 -0.58611164)
(119.93141 -0.70150204 -0.6383691)
(119.8231 -0.69266253 -0.62414179)
(119.8108 -0.75157838 -0.75807943)
(119.9365 -0.76353431 -0.77067994)
(120.06028 -0.75787603 -0.76683976)
(120.04128 -0.62017798 -0.69841942)
(120.02406 -0.49814888 -0.63272986)
(120.01154 -0.41017707 -0.56514347)
(120.01511 -0.41718171 -0.6513533)
(120.0018 -0.33150521 -0.5719585)
(119.92909 -0.33914357 -0.58635787)
(119.93078 -0.27576721 -0.51635759)
(119.94005 -0.22464905 -0.45804351)
(119.95149 -0.18490073 -0.39733802)
(119.94701 -0.17027787 -0.42838869)
(119.89622 -0.17149993 -0.43774784)
(119.88041 -0.21293699 -0.50365291)
(119.88853 -0.2286066 -0.46517508)
(119.87034 -0.27519589 -0.51647913)
(119.86075 -0.2596341 -0.56630313)
(119.92669 -0.26294664 -0.56608017)
(119.93664 -0.21060739 -0.49455577)
(119.98924 -0.20424296 -0.47603046)
(119.99333 -0.16343398 -0.40936066)
(120.04571 -0.15319506 -0.38084679)
(120.04227 -0.16491222 -0.35203826)
(120.04499 -0.20305006 -0.41181389)
(120.04953 -0.19278009 -0.44697835)
(120.05472 -0.17779702 -0.48323215)
(120.04905 -0.1396055 -0.40402376)
(119.9933 -0.14801303 -0.43396299)
(119.94439 -0.15243243 -0.45372558)
(119.89154 -0.15224728 -0.46047358)
(119.88608 -0.1266797 -0.48358606)
(119.94288 -0.12815607 -0.47679728)
(119.93184 -0.1624155 -0.56046756)
(119.9329 -0.19022533 -0.5322744)
(119.87414 -0.19039253 -0.53697723)
(119.86948 -0.16048045 -0.56557455)
(119.84639 -0.19934503 -0.64548441)
(119.85287 -0.23366813 -0.60700286)
(119.9228 -0.23915091 -0.61312949)
(119.92013 -0.20806574 -0.65309333)
(119.91711 -0.27043282 -0.76742251)
(119.92111 -0.30535399 -0.71316545)
(119.92655 -0.32928939 -0.65133452)
(119.84772 -0.32758656 -0.65143279)
(119.85705 -0.34025135 -0.58540128)
(119.83486 -0.41536669 -0.65029915)
(119.92347 -0.42377578 -0.66168282)
(119.91973 -0.41855484 -0.74509436)
(119.82286 -0.40529637 -0.73266614)
(119.80816 -0.52060421 -0.84118421)
(119.82162 -0.51930675 -0.73484401)
(119.92598 -0.52737756 -0.74798474)
(119.92391 -0.53287391 -0.85373132)
(120.0388 -0.5330839 -0.84814569)
(120.01946 -0.41580337 -0.73743993)
(120.00401 -0.32459344 -0.63871498)
(119.99379 -0.25711328 -0.55181858)
(120.06457 -0.24406349 -0.52169282)
(120.05753 -0.25194915 -0.47249193)
(120.07991 -0.31329925 -0.54226702)
(120.09043 -0.30985751 -0.60774619)
(120.09944 -0.29490386 -0.67122951)
(120.07173 -0.22749203 -0.56874386)
(119.99567 -0.23720793 -0.59987788)
(119.99036 -0.18686437 -0.51360206)
(119.99164 -0.16027914 -0.54257976)
(119.99478 -0.12448889 -0.45703403)
(120.0542 -0.11821021 -0.4260116)
(120.06031 -0.15378558 -0.51136015)
(120.07771 -0.20146976 -0.61004497)
(119.99676 -0.20795725 -0.6415881)
(120.00561 -0.27343673 -0.7600718)
(120.00645 -0.30537576 -0.70267138)
(120.02095 -0.39938501 -0.82174841)
(119.91133 -0.39553071 -0.82584028)
(119.80828 -0.3772104 -0.80068008)
(119.83826 -0.29978778 -0.704313)
(119.82919 -0.26066587 -0.75729094)
(119.81504 -0.21099684 -0.78992043)
(119.83737 -0.15873611 -0.6700773)
(119.86375 -0.12743255 -0.58580052)
(119.88225 -0.10068509 -0.49699138)
(119.95105 -0.062707619 -0.3879215)
(119.98898 -0.039818184 -0.28764874)
(120.05484 -0.034432682 -0.25151211)
(120.05752 -0.0068670291 -0.25511933)
(120.04932 -0.01418191 -0.35006513)
(120.04633 -0.057593535 -0.34432159)
(120.13251 -0.045520618 -0.26740319)
(120.10827 -0.025910131 -0.19325653)
(120.14969 -0.013803237 -0.11765273)
(120.15548 -0.0010390691 -0.11553543)
(120.11283 -0.004562283 -0.19467432)
(120.13851 -0.010088426 -0.27054922)
(120.20489 -0.0045115412 -0.16708936)
(120.19682 -0.0271454 -0.16846522)
(120.20525 -0.063243951 -0.27607403)
(120.19667 -0.077599354 -0.2687546)
(120.18274 -0.090894367 -0.25730731)
(120.17214 -0.09941968 -0.24550695)
(120.15821 -0.10598075 -0.22901169)
(120.12642 -0.1281415 -0.27511721)
(120.13736 -0.11992797 -0.2967406)
(120.0915 -0.13914082 -0.34346362)
(120.10575 -0.17538129 -0.40416135)
(120.097 -0.18362602 -0.37197818)
(120.1458 -0.15907523 -0.32555807)
(120.15895 -0.15269112 -0.3532375)
(120.20177 -0.12466916 -0.28868954)
(120.18527 -0.12986199 -0.26740048)
(120.21552 -0.097149108 -0.20760943)
(120.18469 -0.078657921 -0.17519647)
(120.20069 -0.073246807 -0.18521725)
(120.23446 -0.093201049 -0.22186114)
(120.25318 -0.086681921 -0.23433324)
(120.213 -0.066720545 -0.19140249)
(120.22856 -0.056276851 -0.19678184)
(120.27104 -0.075633711 -0.2438285)
(120.23417 -0.10194109 -0.32532047)
(120.21836 -0.11664589 -0.30913222)
(120.17234 -0.14235231 -0.38091504)
(120.14613 -0.11003499 -0.31336512)
(120.09724 -0.12736025 -0.36382888)
(120.10562 -0.10828988 -0.38345346)
(120.15768 -0.093715106 -0.32929866)
(120.18527 -0.12450076 -0.40285606)
(120.12435 -0.14176919 -0.46258626)
(120.11521 -0.16305491 -0.43679081)
(120.14608 -0.20953698 -0.51934018)
(120.13332 -0.22283634 -0.47586521)
(120.12055 -0.2280934 -0.43036888)
(120.1777 -0.19740575 -0.37618462)
(120.19594 -0.19390256 -0.41570751)
(120.24825 -0.24703827 -0.48691307)
(120.22332 -0.2459532 -0.43352674)
(120.15524 -0.28437522 -0.49572187)
(120.17311 -0.28390278 -0.55681851)
(120.18943 -0.2728313 -0.61622775)
(120.27143 -0.23916629 -0.53875289)
(120.21389 -0.18338723 -0.45315401)
(120.22935 -0.16507033 -0.48667391)
(120.1568 -0.18723119 -0.55788782)
(120.20065 -0.25018887 -0.67098666)
(120.10476 -0.26732269 -0.72882116)
(120.10304 -0.2247754 -0.77955313)
(120.08011 -0.16574177 -0.64549777)
(120.06386 -0.12556491 -0.53740175)
(120.05731 -0.096560271 -0.44182999)
(119.99541 -0.10115651 -0.47348329)
(119.94128 -0.10278134 -0.49334711)
(119.94081 -0.071409345 -0.50592581)
(119.87981 -0.069654153 -0.50892708)
(119.86129 -0.089186453 -0.60043918)
(119.92786 -0.091995798 -0.60116933)
(119.92861 -0.12991302 -0.58576222)
(119.99226 -0.12997805 -0.56879679)
(119.99267 -0.091797131 -0.58525887)
(119.99667 -0.069678594 -0.48635617)
(120.06071 -0.066588311 -0.45435502)
(120.06658 -0.089094684 -0.55383918)
(120.06774 -0.051414207 -0.56436951)
(120.06252 -0.039385443 -0.46032021)
(119.99745 -0.041286189 -0.49243962)
(119.9408 -0.041621425 -0.51187015)
(119.94153 -0.0072367776 -0.51268787)
(119.87916 -0.007280745 -0.51367414)
(119.85991 -0.0094782538 -0.60766375)
(119.9274 -0.010003167 -0.61158356)
(119.92673 -0.052329992 -0.61049607)
(119.99282 -0.052978586 -0.59543559)
(119.9938 -0.0091871246 -0.59667766)
(119.99865 -0.00624246 -0.49325915)
(120.06419 -0.0052771014 -0.46092201)
(120.06912 -0.008329464 -0.56545657)
(120.07914 -0.012552789 -0.68778633)
(120.07887 -0.069246651 -0.68561478)
(120.08052 -0.12097804 -0.67049246)
(119.99379 -0.12272136 -0.70072972)
(119.99564 -0.16931825 -0.67641049)
(119.91433 -0.16677329 -0.68548236)
(119.91092 -0.12072301 -0.70770812)
(119.83257 -0.11260262 -0.69006841)
(119.80492 -0.15185353 -0.81817332)