/*--------------------------------*- C++ -*----------------------------------*\
  =========                 |
  \\      /  F ield         | OpenFOAM: The Open Source CFD Toolbox
   \\    /   O peration     | Website:  https://openfoam.org
    \\  /    A nd           | Version:  7
     \\/     M anipulation  |
\*---------------------------------------------------------------------------*/
FoamFile
{
    version     2.0;
    format      ascii;
    class       volScalarField;
    location    "330";
    object      k;
}
// * * * * * * * * * * * * * * * * * * * * * * * * * * * * * * * * * * * * * //

dimensions      [0 2 -2 0 0 0 0];

internalField   nonuniform List<scalar> 
24789
(
116.57159
185.94017
254.07063
319.59492
689.55241
696.08328
322.62375
256.42797
187.48719
117.07392
117.59322
189.08725
258.86412
325.75257
702.82055
709.76707
328.97918
261.37706
190.7392
118.12969
118.68553
192.44817
263.97428
332.3125
716.93129
724.32403
335.75415
266.65669
194.21471
119.26091
119.85815
196.04403
269.4318
339.31323
731.95721
739.84411
342.9937
272.30225
197.93771
120.47798
121.12299
199.90125
275.27585
346.8051
747.99958
756.43951
350.75261
278.35638
201.93721
121.7945
122.49559
204.05198
281.55309
354.84772
765.18131
774.24488
359.09758
284.87132
206.24914
123.22811
123.99547
208.53578
288.32136
363.51532
783.65158
793.42537
368.10997
291.91011
210.91663
124.8002
125.64632
213.39982
295.64937
372.89642
803.59256
814.18293
377.88756
299.54889
215.99184
126.53721
127.47756
218.7017
303.62226
383.10109
825.22942
836.76934
388.5525
307.88096
221.53675
128.47182
129.52606
224.50708
312.34063
394.26249
848.84466
861.50372
400.2522
317.0164
227.62174
130.64671
131.84227
230.89197
321.92688
406.54746
874.8018
888.80328
413.17531
327.09069
234.32833
133.1226
134.50044
237.94359
332.53056
420.16879
903.58305
919.22951
427.56436
338.27039
241.75029
135.99134
137.6155
245.76264
344.33898
435.40675
935.84692
953.55968
443.74689
350.76732
249.9939
139.3977
141.36967
254.46147
357.5946
452.64891
972.51766
992.89865
462.20038
364.87556
259.19037
143.57977
146.10438
264.20852
372.70714
472.54424
1014.8994
1038.7661
483.9746
381.32517
269.55776
149.03562
152.68005
276.11972
391.4729
497.18598
1064.8014
1092.4155
513.34968
404.44501
285.61991
158.03397
165.94258
295.37597
420.74007
533.54413
1119.556
1150.7136
561.80133
445.6658
314.33604
174.45396
180.4807
331.88034
467.25481
584.00688
1181.8398
1213.037
628.25251
508.19322
363.68176
192.52842
200.00393
394.91398
552.98227
680.97762
1239.0578
1223.0644
593.75549
482.39427
346.76102
186.46612
177.70387
321.04352
449.86191
561.74811
1194.0733
1162.7169
517.07955
409.6561
289.55977
166.63301
157.01866
271.34579
384.52288
488.98573
1133.1764
1106.7444
469.71871
368.55817
260.93088
149.44069
144.48557
252.46692
356.78568
455.02368
1079.6144
1053.9026
443.1713
347.72572
246.50527
141.08248
138.33029
241.61364
340.04936
432.92597
1030.1778
1008.1655
423.62604
333.07945
237.15546
135.98474
133.93647
232.94565
326.5602
414.98747
987.67705
968.55954
406.88373
320.39826
228.9351
132.10239
130.43694
225.10891
314.55808
399.25185
950.66046
933.84572
392.05184
309.02179
221.46424
128.91457
127.51582
217.9991
303.77398
385.24993
917.99964
903.02311
378.81404
298.79682
214.70678
126.22404
125.02561
211.57862
294.07209
372.71424
888.83037
875.34787
366.92315
289.58163
208.60455
123.90904
122.865
205.77503
285.30859
361.41604
862.51205
850.2674
356.1703
281.23681
203.08019
121.8855
120.96407
200.5109
277.35129
351.16499
838.56542
827.36425
346.38229
273.63848
198.05819
120.09494
119.27352
195.71433
270.08603
341.8054
816.62534
806.31588
337.41964
266.68239
193.47117
118.49527
117.75664
191.32194
263.41675
333.2104
796.40474
786.86608
329.16622
260.27972
189.25961
117.05384
116.38405
187.27875
257.26281
325.27573
777.67487
768.81038
321.52973
254.35856
185.37377
115.7442
115.1319
183.53971
251.55932
317.91797
760.25168
751.98056
314.43293
248.85892
181.772
114.54443
113.98018
180.06726
246.25187
311.06695
743.98238
736.24049
307.81411
243.73311
178.42162
113.43699
112.91382
176.8326
241.2982
304.66799
728.74184
721.47449
301.6236
238.94282
175.29678
112.40886
111.92143
173.81209
236.6631
298.67536
714.42717
707.59287
295.81939
234.45527
172.37537
111.44974
110.99273
170.98674
232.31843
293.05315
700.96429
707.78086
295.90334
234.52087
172.41814
111.46215
111.93434
173.85619
236.73061
298.7615
714.61174
721.66438
301.71319
239.0132
175.34294
112.42228
112.92812
176.8819
241.37352
304.76391
728.94091
736.45043
307.91549
243.81284
178.47396
113.45221
113.99667
180.12382
246.33803
311.17636
744.20479
752.21747
314.5498
248.95124
181.83284
114.56226
115.15145
183.60613
251.65993
318.04512
760.50351
769.0792
321.66685
254.46737
185.44593
115.76549
116.40738
187.358
257.38202
325.42568
777.96262
787.17377
329.32872
260.40926
189.34611
117.0792
117.78423
191.41679
263.55837
333.38755
796.7344
806.66897
337.6122
266.83697
193.57529
118.52518
119.30597
195.8293
270.25633
342.01699
817.00424
827.77033
346.61373
273.82541
198.18491
120.12994
121.00179
200.65083
277.55717
351.41905
839.00066
850.73287
356.4487
281.46338
203.23475
121.92616
122.90906
205.94648
285.55915
361.72274
863.00927
875.87779
367.26024
289.85824
208.79455
123.95687
125.0778
211.78948
294.37757
373.08447
889.39292
903.61726
379.21942
299.1333
214.94041
126.28094
127.57766
218.25739
304.14354
385.69233
918.62282
934.49303
392.53086
309.42468
221.74786
128.98092
130.50659
225.41705
314.99252
399.76487
951.32453
969.22924
407.42392
320.85871
229.26424
132.17298
134.00363
233.28785
327.03594
415.54291
988.33753
1008.7973
424.17843
333.5534
237.49856
136.04074
138.36697
241.94832
340.50394
433.45646
1030.7576
1054.3888
443.67408
348.15784
246.83635
141.10577
144.50408
252.86186
357.23636
455.52703
1079.9557
1107.0641
470.3569
369.20684
261.60348
149.42254
157.34045
274.1865
386.10257
490.27579
1133.3139
1161.7403
518.56569
410.71568
289.96873
167.49666
176.17074
321.79704
450.95998
565.10352
1192.9787
1219.5513
570.86845
463.68559
333.45003
179.50173
198.59375
392.55909
549.51346
675.92493
1235.2655
1208.6054
610.89134
487.1742
344.97778
181.72671
186.11559
350.39183
491.25215
612.58403
1178.6676
1146.1247
564.97286
451.36642
319.86925
177.80438
166.9952
301.17532
423.32275
533.33985
1116.1441
1088.7875
509.94167
403.03525
285.88124
157.97743
152.11018
274.6236
388.17226
492.13041
1060.8283
1034.6302
478.03606
377.04156
267.16283
148.13593
145.0144
261.20291
367.88184
466.13136
1010.6135
988.44328
455.53845
359.77735
255.92488
142.42093
140.19019
251.06184
352.34414
445.84529
967.90048
948.79662
436.85216
345.41766
246.50728
138.21325
136.43119
242.21233
338.91835
428.44925
930.95689
914.23264
420.5656
332.79976
238.15319
134.80861
133.31979
234.31404
327.02737
413.14648
898.49802
883.64716
406.14653
321.57161
230.67984
131.945
130.66896
227.23619
316.40582
399.52622
869.58985
856.24933
393.25129
311.50573
223.96875
129.47894
128.36497
220.86491
306.84982
387.29139
843.55956
831.46378
381.6199
302.41825
217.91199
127.31842
126.3325
215.09914
298.19353
376.21307
819.91225
808.86142
371.04976
294.15937
212.41548
125.40112
124.51939
209.85189
290.30152
366.11111
798.2731
788.11299
361.3804
286.60679
207.39917
123.6826
122.88718
205.04988
283.06372
356.84256
778.351
768.95974
352.4839
279.66132
202.79614
122.1293
121.40608
200.63183
276.39015
348.292
759.91445
751.19343
344.2562
273.2415
198.55045
120.71433
120.05178
196.54688
270.2074
340.36593
742.77601
734.64591
336.6133
267.28127
194.61615
119.41568
118.80449
192.75441
264.45654
332.98908
726.78424
719.17759
329.48707
261.72773
190.95724
118.21595
117.64902
189.22194
259.08992
326.10028
711.81217
704.67655
322.82315
256.53826
187.54457
117.10172
116.57351
185.92331
254.06912
319.65049
697.76187
691.06631
316.58113
251.68077
184.35604
116.06267
117.09149
187.54668
256.51783
322.73727
696.28828
703.02509
325.86114
258.9499
189.14406
117.60984
118.14716
190.79859
261.46677
329.09241
709.97977
717.15589
332.42945
264.0668
192.50936
118.7033
119.28029
194.28103
266.75679
335.88038
724.5622
732.21047
339.44693
269.53781
196.1143
119.87852
120.50041
198.01453
272.41784
343.13907
740.11407
748.28758
346.96078
275.3997
199.98366
121.14703
121.82119
202.02785
278.49218
350.92274
756.7477
765.51198
355.03185
281.70029
204.15046
122.52457
123.26037
206.35788
285.03335
359.29977
774.6001
784.03404
363.73511
288.49791
208.65465
124.03081
124.83964
211.04855
292.10524
368.35198
793.83772
804.03812
373.16249
295.86441
213.54563
125.68997
126.58616
216.15474
299.78814
378.18256
814.665
825.75177
383.42709
303.88759
218.88307
127.53218
128.53356
221.74105
308.1782
388.916
837.33604
849.4601
394.66835
312.67387
224.73712
129.59561
130.72581
227.88276
317.39239
400.70787
862.17245
875.52881
407.05956
322.35174
231.18877
131.93236
133.22613
234.66879
327.57444
413.75453
889.59366
904.44222
420.82663
333.08402
238.33638
134.62002
136.13092
242.20816
338.90934
428.31718
920.16289
936.86008
436.27413
345.0826
246.30154
137.77992
139.59421
250.63708
351.6432
444.75635
954.65783
973.70561
453.83797
358.64075
255.24126
141.60847
143.87702
260.15753
366.15028
463.625
994.18098
1016.2824
474.29408
374.30628
265.45107
146.48975
149.56666
271.23449
383.41441
486.19989
1040.2539
1066.3815
500.12305
394.319
278.47157
153.43614
159.06861
289.03401
408.48352
517.36563
1094.0814
1120.9998
539.21287
426.66815
300.63906
167.46669
177.27768
321.09799
454.08167
570.24536
1151.329
1182.4934
599.34417
480.78366
342.30547
183.58266
192.64496
366.4116
511.01341
630.73498
1212.366
1238.7108
684.2055
556.31951
397.65791
200.97511
1232.7263
781.84757
640.85317
461.86383
228.10309
206.27815
412.72865
576.23292
711.69085
1268.2234
1279.4323
631.54634
514.79499
371.22038
195.49614
185.32205
352.59388
496.34042
620.62343
1240.7192
1212.4626
622.9925
496.96361
351.83108
184.3456
182.75728
341.37921
481.4137
601.59239
1180.6812
1146.8132
559.19175
445.15126
314.65893
174.67577
165.01549
297.10499
418.84821
529.25733
1116.0364
1088.441
507.25484
400.19637
283.39848
156.72671
151.30459
273.13468
386.33044
490.29897
1060.3573
1034.1216
476.73317
375.77778
266.17035
147.59828
144.63848
260.48591
366.96684
465.16425
1010.1154
987.977
454.797
359.09114
255.39627
142.15034
139.99109
250.66184
351.81597
445.26354
967.47258
948.40847
436.38826
345.0036
246.19869
138.06452
136.31803
241.96936
338.58783
428.07352
930.60691
913.91766
420.25661
332.53123
237.95804
134.72082
133.25086
234.15521
326.80656
412.88967
898.21491
883.39267
405.93055
321.38766
230.54873
131.89027
130.62491
227.12681
316.2511
399.34309
869.36087
856.04322
393.09486
311.3746
223.87676
129.44313
128.33557
220.78692
306.73795
387.15705
843.37402
831.29646
381.50377
302.32214
217.84537
127.29408
126.31217
215.04171
298.11017
376.11174
819.76097
808.72441
370.96087
294.08657
212.36557
125.38387
124.5047
209.80849
290.23793
366.03315
798.14908
788.00052
361.31172
286.55101
207.36128
123.67006
122.87647
205.01668
283.01454
356.7817
778.24857
768.86673
352.4298
279.6178
202.76691
122.12006
121.39814
200.60606
276.35158
348.24382
759.82978
751.11644
344.21313
273.20712
198.52757
120.70748
120.04581
196.52655
270.17674
340.32741
742.70572
734.58025
336.5778
267.25316
194.59761
119.41034
118.79963
192.73747
264.4309
332.95676
726.72347
719.12135
329.45711
261.70397
190.94154
118.21142
117.64473
189.20738
259.06794
326.0726
711.76001
704.6286
322.79721
256.51765
187.53092
117.09758
116.56952
185.91055
254.04989
319.62632
697.71717
691.02615
316.55819
251.66243
184.34377
116.05873
111.45416
172.39112
234.47868
295.84849
707.65153
714.48072
298.7016
236.68398
173.82607
111.92533
112.41302
175.31114
238.96418
301.65027
721.52628
728.79353
304.69382
241.31865
176.84615
112.9176
113.44118
178.43597
243.7546
307.84112
736.29264
744.03545
311.09377
246.27304
180.08128
113.98413
114.54877
181.78689
248.88119
314.46086
752.03528
760.30677
317.94589
251.58144
183.55444
115.13602
115.74852
185.38907
254.38133
321.55832
768.86599
777.73088
325.3041
257.28519
187.29364
116.38797
117.05765
189.27448
260.30187
329.19413
786.9213
796.45931
333.2371
263.43768
191.33579
117.75973
118.4978
193.48429
266.70215
337.44481
806.36913
816.67704
341.82806
270.10343
195.72552
119.27487
120.09515
198.06741
273.65326
346.40192
827.41314
838.61083
351.17999
277.36173
200.5166
120.96249
121.88203
203.08177
281.24198
356.17943
850.30749
862.54536
361.41686
285.30608
205.7705
122.85901
123.90027
208.5924
289.56936
366.9132
875.37276
888.8449
372.68992
294.04654
211.55594
125.01329
126.20755
214.67063
298.75407
378.77103
903.02525
917.98724
385.18175
303.70757
217.94413
127.49371
128.88505
221.38366
308.92332
391.94984
933.81648
950.61292
399.10403
314.41508
224.99212
130.39691
132.04748
228.76763
320.19405
406.67426
968.49326
987.59477
414.6965
326.2726
232.70746
133.86049
135.87966
236.82277
332.6822
423.23124
1008.0751
1030.0961
432.40472
339.51343
241.16062
138.18599
140.89211
245.90255
347.01993
442.50184
1053.8527
1079.6216
454.17041
355.86198
251.66655
144.23152
149.06848
259.95953
367.35887
468.62103
1106.9413
1133.6579
487.42239
382.87381
270.72707
156.58062
165.73545
286.51312
405.85881
513.49499
1163.1313
1194.4053
553.53381
443.39261
316.46452
175.87975
187.39666
350.42197
486.58813
597.31742
1223.6921
1240.0925
699.75929
570.08692
409.95126
204.96891
196.71774
373.06507
519.92834
640.41344
1214.0363
1181.9785
580.62232
465.33925
330.90309
180.54173
176.15471
318.88009
451.70788
569.11513
1150.9652
1119.7466
536.54299
423.6165
297.67969
167.06703
158.67638
287.06016
406.07634
514.89045
1092.6158
1064.9285
497.87455
392.19286
276.74288
153.02545
149.19842
269.75024
381.57455
484.22642
1038.8232
1014.9063
472.5967
372.75422
264.24234
146.178
143.61123
259.15861
364.84262
462.17053
992.8774
972.48505
452.59131
357.53636
254.41049
141.38112
139.39965
249.94292
350.70734
443.68584
953.52519
935.81561
435.35205
344.2859
245.71809
137.61306
135.98724
241.71422
338.22715
427.51949
919.20379
903.56372
420.13344
332.49649
237.91513
134.49572
133.11802
234.30681
327.06505
413.14876
888.79025
874.79461
406.52819
321.90797
230.87578
131.83793
130.64298
227.6104
317.0034
400.23917
861.50172
848.84704
394.25444
312.33215
224.49931
129.5228
128.46939
221.53241
307.87661
388.54875
836.77533
825.23824
383.10039
303.62066
218.69952
127.47568
126.5362
215.99219
299.55031
377.89001
814.19401
803.60529
372.9008
295.65252
213.40151
125.6458
124.80043
210.91992
291.91518
368.11637
793.43935
783.66647
363.52257
288.32711
208.53949
123.9959
123.22909
206.25387
284.87828
359.10609
774.26041
765.19713
354.85627
281.56001
204.05656
122.49652
121.79584
201.94242
278.36399
350.76182
756.4554
748.01526
346.8142
275.28315
199.90606
121.12412
120.47943
197.94309
272.31014
343.00321
739.85995
731.97257
339.32269
269.43939
196.04899
119.85936
119.2625
194.22022
266.66472
335.76374
724.33913
716.94544
332.3218
263.98181
192.4531
118.68681
118.13149
190.74517
261.38568
328.98932
709.78039
702.83217
325.7624
258.87235
189.09284
117.59479
117.07627
187.49466
256.43868
322.63616
696.09557
696.28324
322.72303
256.50538
187.53752
117.088
117.60807
189.13917
258.94314
325.85309
703.01949
709.97323
329.08659
261.46171
190.79488
118.14565
118.70259
192.50756
264.06415
332.42609
717.14848
724.55447
335.87662
266.75371
194.2789
119.27933
119.87798
196.11318
269.53604
339.44453
732.20272
740.1067
343.13609
272.41545
198.01294
120.4995
121.14633
199.98304
275.39844
346.95889
748.28067
756.74112
350.92056
278.49049
202.02686
121.81997
122.52334
204.1502
281.69941
355.03038
765.50565
774.59394
359.29803
285.03223
206.35751
123.25834
124.02823
208.65498
288.49745
363.73386
784.0277
793.8309
368.35019
292.10434
211.04868
124.83576
125.68475
213.54635
295.86389
373.16069
804.0305
814.65597
378.17964
299.78686
216.15513
126.57871
127.52219
218.88388
303.88628
383.42352
825.74052
837.32147
388.91019
308.17538
221.74104
128.51977
129.5774
224.7368
312.66977
394.66013
849.44077
862.14639
400.69521
317.38529
227.88091
130.70142
131.90012
231.18481
322.34048
407.04074
875.49322
889.5448
413.7252
327.55523
234.65999
133.18306
134.56254
238.31976
333.0525
420.78154
904.37508
920.07107
428.24735
338.8574
242.17756
136.05351
137.67562
246.24904
344.99977
436.16796
936.7355
954.49103
444.59786
351.5144
250.55092
139.45367
141.42092
255.10802
358.44873
453.60882
973.4861
993.89855
463.30891
365.8799
259.96657
143.63174
146.18178
265.21454
373.95826
473.88749
1015.9285
1039.8275
485.72429
383.02414
271.05316
149.20978
153.02218
278.32115
393.91844
499.61658
1065.9094
1093.7504
516.9262
408.2037
289.05869
158.60412
167.22883
302.84217
426.96464
539.00492
1120.6326
1150.5304
569.06493
453.16786
320.41302
176.88679
182.9851
344.06563
482.34955
602.18478
1181.8185
1210.364
618.26821
499.80132
357.89091
187.82477
1329.3853
1381.8677
1356.0304
1223.5587
595.24468
483.91032
347.87519
187.30052
187.78407
358.30896
505.67449
632.71459
1214.3098
220.96486
447.58707
623.98255
764.64544
1229.8279
1185.7504
737.76068
597.82347
425.54532
210.6333
213.35049
431.27031
604.70399
744.26431
1186.0475
1232.3229
714.43337
576.58137
411.2108
203.16125
1313.7714
1354.3681
1412.8721
1395.7643
1257.3593
1344.4765
1328.9208
1257.3507
1242.5577
1285.392
1286.9781
1242.161
116.06449
184.36242
251.69109
316.59515
691.09353
697.78542
319.65828
254.07426
185.92615
116.57378
117.10161
187.54593
256.54082
322.82734
704.69555
711.82575
326.09906
259.08811
189.22028
117.64774
118.21428
190.9542
261.72356
329.48266
719.18481
726.7848
332.97928
264.44791
192.74826
118.8016
119.4121
194.60789
267.26934
336.59918
734.63909
742.76242
340.34591
270.19048
196.53505
120.04681
120.70842
198.53576
273.22035
344.23091
751.1711
759.88323
348.25943
276.36289
200.61278
121.39845
122.12033
202.77325
279.62853
352.44468
768.91893
778.3003
356.79456
283.02344
205.02159
122.8763
123.67009
207.36602
286.55957
361.32408
788.05193
798.20104
366.04452
290.24551
209.81241
124.50455
125.38407
212.36984
294.09454
370.97278
808.77798
819.8168
376.12348
298.11786
215.04575
126.31251
127.29514
217.85069
302.33122
381.51697
831.35594
843.43888
387.17265
306.74901
220.79379
128.3372
129.44565
223.88689
311.38969
393.11508
856.11537
869.44249
399.36911
316.2712
227.14089
130.62805
131.89431
230.56918
321.41581
405.96571
883.48658
898.32512
412.93802
326.84631
234.18462
133.25587
134.72743
238.00157
332.58918
420.32545
914.04899
930.76564
428.1724
338.67277
242.03375
136.32733
138.07965
246.2972
345.13184
436.53409
948.60229
967.71136
445.48276
352.0136
250.81615
140.01766
142.19895
255.64206
359.4008
455.13127
988.27117
1010.4734
465.67445
367.45285
260.87498
144.72508
147.7376
266.79133
376.53702
477.50495
1034.5595
1060.9037
491.43901
387.49044
274.13908
151.53024
157.15401
284.69256
401.8251
508.86612
1088.8692
1116.2379
531.22159
420.39654
296.7207
165.44048
174.07263
317.85055
448.34654
563.06454
1148.1169
1180.5483
585.9629
468.89912
332.87632
179.08617
186.85498
355.79354
502.77569
629.70737
1213.7253
639.89121
523.14341
380.36906
198.47312
191.0571
363.3887
501.02378
614.73923
1278.3109
1261.6522
671.25741
538.79413
382.76733
195.92093
200.07382
402.11849
566.78899
706.85214
1232.2417
1243.6044
626.43364
500.29824
355.70787
184.26336
186.85365
355.76365
502.716
629.61596
1213.3852
1180.2359
585.88512
468.84775
332.85125
179.08765
174.07129
317.81741
448.28625
562.97746
1147.8275
1115.9698
531.12795
420.32916
296.68171
165.43627
157.14656
284.64788
401.75331
508.77018
1088.6163
1060.6651
491.34452
387.41861
274.09364
151.5217
147.72835
266.74562
376.46592
477.4121
1034.3313
1010.2541
465.58363
367.38301
260.82977
144.71548
142.18911
255.59771
359.33241
455.04253
988.05988
967.50744
445.39693
351.94755
250.77345
140.00807
138.0705
246.25611
345.06794
436.45086
948.40527
930.57512
428.09231
338.61145
241.99458
136.31882
134.71968
237.96421
332.53022
420.24817
913.86483
898.14679
412.86395
326.78988
234.14906
133.24888
131.88799
230.535
321.36122
405.8939
883.31371
869.27435
399.29927
316.21807
227.1076
130.62225
129.44014
223.85403
311.33721
393.04621
855.95153
843.27896
387.10542
306.69755
220.76137
128.33188
127.28987
217.81835
302.28006
381.45034
831.19967
819.66337
376.05747
298.06695
215.01331
126.30713
125.37836
212.33688
294.04311
370.90635
808.62707
798.05214
365.97896
290.19442
209.77938
124.49855
123.66362
207.33246
286.50786
361.25786
787.90494
778.15423
356.72839
282.97163
204.98775
122.86946
122.11297
202.73853
279.57546
352.37699
768.77343
759.73838
348.19227
276.30999
200.57787
121.39065
120.70017
198.50054
273.16681
344.16288
751.02696
742.61929
340.27912
270.13775
196.50015
120.03835
119.40333
194.57268
267.21584
336.5312
734.49647
726.64211
332.9118
264.39474
192.7131
118.79259
118.20499
190.91869
261.66953
329.4139
719.04213
711.68285
326.031
259.03459
189.18501
117.63834
117.0919
187.50998
256.48589
322.75721
704.55221
697.63962
319.58756
254.01894
185.88985
116.56381
116.0535
184.32271
251.62962
316.51593
690.9349
684.43499
313.54295
249.31785
182.80743
115.55902
696.21602
322.69228
256.48223
187.52323
117.08409
117.60226
189.12011
258.91413
325.81618
702.94803
709.89316
329.04076
261.42558
190.77112
118.13823
118.69371
192.47958
264.02211
332.37325
717.0569
724.44919
335.81396
266.70387
194.24579
119.26877
119.86564
196.07485
269.47857
339.37253
732.08163
739.96745
343.05173
272.34809
197.968
120.48496
121.12933
199.93084
275.32067
346.86191
748.12117
756.55884
350.80738
278.39955
201.96562
121.79997
122.50004
204.07888
281.59424
354.90009
765.29816
774.35867
359.14735
284.9102
206.27438
123.23141
123.99737
208.55877
288.35719
363.56149
783.76229
793.53299
368.15217
291.9425
210.93698
124.80057
125.64505
213.41724
295.67809
372.93459
803.69685
814.28347
377.92085
299.57306
216.00556
126.53416
127.47275
218.71121
303.64112
383.12852
825.326
836.8617
388.57381
307.89429
221.54184
128.46539
129.51819
224.50745
312.34832
394.2779
848.9328
861.5874
400.26093
317.01773
227.61688
130.6376
131.83221
230.88115
321.92095
406.54855
874.88101
888.87794
413.16786
327.07675
234.31102
133.11202
134.48988
237.91929
332.50813
420.15261
903.65341
919.29622
427.53906
338.23895
241.71838
135.98164
137.60815
245.72352
344.29911
435.37315
935.91155
953.62535
443.709
350.72249
249.95007
139.39547
141.37793
254.42076
357.55484
452.61767
972.59002
992.98761
462.20078
364.86518
259.17263
143.60891
146.17639
264.26154
372.78211
472.63171
1015.0221
1038.9465
484.26661
381.6083
269.77543
149.19688
153.02325
276.77486
392.23323
497.92047
1065.0614
1092.7625
514.9433
406.12401
287.09816
158.67196
167.05859
297.7253
423.67058
536.60423
1119.906
1151.1453
569.20234
451.77923
318.93363
176.14279
180.51147
330.9324
465.3801
580.67525
1182.1934
1214.2919
640.48375
519.98472
373.09162
196.67499
204.95651
410.05275
570.30848
700.01808
1240.4039
1223.9087
597.52656
486.76831
350.55011
187.37867
184.31527
352.09328
497.24971
623.27694
1212.565
1208.5823
610.68749
486.97955
344.83007
181.59445
179.45311
333.34845
463.55729
570.72177
1219.4103
1210.1706
618.09645
499.66257
357.78682
187.79351
192.62896
366.13682
510.68624
630.3713
1212.0695
1223.2162
594.92331
483.62896
347.65023
187.31086
187.75923
358.02029
505.3543
632.37436
1213.9292
1180.5055
580.76059
464.35724
329.26645
178.1053
173.24226
315.43156
445.8096
560.90882
1148.176
1116.3928
530.72101
419.61959
295.9266
165.16827
157.00505
284.37233
401.5502
508.71879
1088.9996
1061.0031
491.42513
387.40332
274.01252
151.45913
147.70658
266.75293
376.53586
477.55254
1034.648
1010.5548
465.74842
367.4921
260.88259
144.71349
142.19934
255.67333
359.46003
455.21656
988.34467
967.77613
445.57221
352.08293
250.86046
140.02651
138.09371
246.34719
345.20387
436.62176
948.65727
930.80971
428.25449
338.74257
242.08429
136.34396
134.7448
238.04917
332.65328
420.39907
914.0817
898.34617
413.00223
326.90315
234.22759
133.27286
131.91021
230.60636
321.46412
406.01931
883.49619
869.44092
399.4123
316.31082
227.1719
130.64252
129.45844
223.91158
311.4204
393.14767
856.10332
843.417
387.19607
306.7718
220.81267
128.34832
127.30447
217.86389
302.3462
381.53129
831.325
819.77709
376.12966
298.12588
215.05383
126.32014
125.38996
212.37283
294.09556
370.97076
808.72994
798.14534
366.03596
290.24078
209.81105
124.50874
123.6726
207.36043
286.54895
361.30854
787.98888
778.23046
356.77336
283.00796
205.01236
122.87734
122.11982
202.76021
279.60769
352.41714
768.84264
759.80101
348.22825
276.33878
200.59718
121.39665
120.70541
198.5177
273.19258
344.19518
751.08458
742.67126
340.30755
270.16048
196.51533
120.04297
119.4074
194.58612
267.23614
336.55675
734.54355
726.6856
332.93473
264.41296
192.72516
118.79619
118.20814
190.92946
261.68585
329.43456
719.08187
711.7209
326.04999
259.04952
189.1948
117.64113
117.09437
187.51888
256.49949
322.77454
704.58767
697.67278
319.60283
254.03101
185.89779
116.56598
116.05576
184.33011
251.64106
316.5305
690.96611
684.46332
313.55415
249.32633
182.81259
115.56177
691.11718
316.60533
251.69873
184.3672
116.06547
116.57587
185.93326
254.08506
319.67194
697.81045
704.72272
322.84143
256.55183
187.55315
117.10377
117.65096
189.22982
259.1024
326.11695
711.85572
719.21867
329.50156
261.73857
190.9642
118.21767
118.80604
192.76077
264.46656
333.00248
726.82323
734.68239
336.62444
267.28958
194.62151
119.4169
120.05269
196.55156
270.2149
340.37619
742.81125
751.22637
344.26401
273.24695
198.55372
120.71471
121.40602
200.63397
276.39415
348.29817
759.94547
768.98889
352.48763
279.6632
202.7968
122.12871
122.88609
205.04919
283.06382
356.84431
778.37868
788.13946
361.37958
286.60462
207.39689
123.68089
124.51709
209.8481
290.29725
366.10793
798.29859
808.8867
371.04389
294.15265
212.41002
125.39805
126.32838
215.09185
298.18418
376.20426
819.93774
831.49011
381.60744
302.40556
217.90246
127.31266
128.35682
220.85276
306.8334
387.27507
843.58758
856.27972
393.22942
311.48395
223.95285
129.46711
130.65168
227.2152
316.37714
399.49738
869.62369
883.68574
406.10796
321.53329
230.65166
131.9197
133.28282
234.27568
326.976
413.09514
898.543
914.28614
420.49676
332.73012
238.10021
134.75498
136.35419
242.13884
338.82396
428.35737
931.0221
948.8777
436.72996
345.28983
246.40517
138.10351
140.03553
250.92246
352.17402
445.68612
968.00501
988.58233
455.3364
359.55629
255.73922
142.20686
144.71897
260.95307
367.59433
465.87498
1010.802
1034.9062
477.68843
376.64662
266.83028
147.71014
151.46242
274.10702
387.52964
491.57647
1061.2746
1089.2918
508.89243
401.69793
284.48007
157.00769
165.17612
296.07652
419.81129
530.92992
1116.6924
1148.4942
561.14874
446.02177
315.60184
173.24803
178.11114
329.47993
464.61513
581.04749
1180.8496
1194.5746
542.23985
433.92449
309.52963
173.4895
164.72455
285.19049
403.71249
511.09931
1164.1228
1134.3892
487.23985
382.2043
268.99636
156.53295
149.39716
260.47291
368.28944
469.82555
1108.0365
1080.8989
455.81541
357.31254
252.69063
144.66427
141.35981
247.01899
348.50946
444.15899
1055.1366
1031.3483
433.90048
340.84962
242.16654
138.61255
136.23991
237.66901
333.81598
424.51728
1009.2626
988.69841
415.78113
327.21488
233.40137
134.1576
132.29115
229.33413
320.97376
407.58426
969.506
951.53504
399.86964
315.06329
225.4574
130.59741
129.05122
221.76949
309.46644
392.59771
934.65217
918.74283
385.73385
304.1666
218.26728
127.63237
126.32378
214.94354
299.14494
379.24447
903.70767
889.46134
373.09871
294.38197
211.78834
125.11112
123.98276
208.79144
289.85877
367.2679
875.92996
863.04961
361.7261
285.5572
205.94201
122.92871
121.94096
203.23021
281.4606
356.44982
850.76469
839.02645
351.41856
277.55371
200.64602
121.01247
120.13763
198.18081
273.82239
346.61294
827.79205
817.02364
342.01607
270.25354
195.82555
119.31116
118.52885
193.57268
266.8353
337.61206
806.68691
796.75215
333.38798
263.55734
191.41476
117.78656
117.08099
189.34536
260.40954
329.33024
787.19164
777.98119
325.42812
257.38306
187.35783
116.40855
115.7667
185.44703
254.46984
321.67068
769.09817
760.52302
318.04973
251.66297
183.60761
115.15236
114.56348
181.83549
248.95573
314.55589
752.23828
744.2258
311.18282
246.34275
180.12652
113.99767
113.45366
178.47787
243.81902
307.92339
736.4718
728.96266
304.77246
241.38013
176.88599
112.92948
112.42434
175.34883
239.02216
301.72435
721.68729
714.63607
298.77544
236.74171
173.86347
111.93665
111.46606
172.42925
234.53726
295.92316
707.80634
707.75213
295.89107
234.51076
172.41108
111.4594
111.9302
173.84526
236.71441
298.74148
714.5752
721.61871
301.687
238.99211
175.32875
112.41711
112.92184
176.86428
241.34708
304.73073
728.88504
736.383
307.87556
243.78104
178.45282
113.44469
113.98765
180.09848
246.29988
311.12847
744.12454
752.123
314.49345
248.90622
181.80283
114.55152
115.13869
183.57047
251.60653
317.9783
760.39294
768.95129
321.58917
254.40506
185.40411
115.75051
116.38987
187.30889
257.30916
325.33502
777.81586
787.00642
329.22405
260.32484
189.28886
117.05894
117.76107
191.35046
263.46109
333.2674
796.54506
806.45606
337.47498
266.72539
193.49872
118.499
119.27666
195.7412
270.12854
341.86044
816.76644
827.50605
346.43617
273.67983
198.08411
120.09746
120.96607
200.53585
277.39162
351.21789
838.70846
850.41157
356.22193
281.27594
203.10416
121.88707
122.86636
205.79849
285.34737
361.46762
862.65798
875.49606
366.97427
289.61971
208.62731
123.91027
125.02693
211.6009
294.10972
372.76504
888.98112
903.17703
378.86467
298.83408
214.7287
126.22557
127.51779
218.02105
303.81141
385.30102
918.15743
934.00782
392.1036
309.05957
221.48638
128.9171
130.44012
225.13152
314.59641
399.30444
950.82745
968.73167
406.937
320.43708
228.95815
132.10622
133.94092
232.96928
326.59961
415.0415
987.85501
1008.3497
423.68079
333.11935
237.17958
135.98967
138.33553
241.63856
340.09014
432.98176
1030.3693
1054.1027
443.22787
347.76707
246.53054
141.08779
144.4903
252.49077
356.82681
455.08069
1079.8255
1106.9694
469.7761
368.59877
260.95444
149.44458
157.02014
271.36531
384.56159
489.0436
1133.4218
1162.9892
517.13658
409.69104
289.57495
166.63091
177.69649
321.04759
449.88753
561.79734
1194.3744
1223.398
593.81476
482.42755
346.7565
186.45237
199.99846
394.9134
553.09655
681.13703
1239.4324