/*--------------------------------*- C++ -*----------------------------------*\
  =========                 |
  \\      /  F ield         | OpenFOAM: The Open Source CFD Toolbox
   \\    /   O peration     | Website:  https://openfoam.org
    \\  /    A nd           | Version:  7
     \\/     M anipulation  |
\*---------------------------------------------------------------------------*/
FoamFile
{
    version     2.0;
    format      ascii;
    class       volScalarField;
    location    "330";
    object      rho;
}
// * * * * * * * * * * * * * * * * * * * * * * * * * * * * * * * * * * * * * //

dimensions      [1 -3 0 0 0 0 0];

internalField   nonuniform List<scalar> 
24789
(
1.1735906
1.173609
1.1736206
1.1736283
1.173663
1.1736363
1.173599
1.1735908
1.1735784
1.173559
1.1735254
1.173546
1.1735591
1.173568
1.1736086
1.1735793
1.173535
1.1735253
1.1735114
1.1734896
1.1734514
1.1734744
1.1734893
1.1734997
1.1735482
1.1735151
1.173462
1.1734507
1.1734347
1.1734102
1.1733659
1.173392
1.1734092
1.1734215
1.1734799
1.1734423
1.1733778
1.1733643
1.1733458
1.1733178
1.1732658
1.1732958
1.1733159
1.1733306
1.173402
1.1733588
1.1732794
1.1732631
1.1732413
1.173209
1.173147
1.173182
1.1732058
1.1732237
1.1733123
1.1732623
1.173163
1.1731431
1.173117
1.1730789
1.173004
1.1730457
1.1730744
1.1730967
1.1732082
1.1731497
1.1730238
1.1729988
1.172967
1.1729213
1.1728298
1.1728802
1.1729156
1.1729437
1.1730862
1.1730171
1.1728552
1.1728235
1.172784
1.1727281
1.172615
1.1726772
1.1727216
1.1727574
1.1729417
1.1728591
1.1726488
1.172608
1.172558
1.1724885
1.172347
1.172425
1.1724814
1.1725279
1.1727685
1.1726684
1.1723929
1.1723398
1.1722759
1.172188
1.1720092
1.1721084
1.172181
1.1722418
1.1725576
1.1724341
1.172072
1.1720025
1.1719199
1.1718076
1.1715807
1.1717076
1.1718015
1.171881
1.1722957
1.1721395
1.1716659
1.1715752
1.1714687
1.1713256
1.1710392
1.1711997
1.1713199
1.1714229
1.1719611
1.1717553
1.1711485
1.1710324
1.1708977
1.1707193
1.1703714
1.1705673
1.1707164
1.1708459
1.1715216
1.1712461
1.1705098
1.1703679
1.1702057
1.1699948
1.169558
1.1697748
1.1699453
1.1700965
1.170875
1.1705055
1.1696867
1.1695303
1.1693634
1.1691682
1.1692147
1.1693387
1.169488
1.1696462
1.1705004
1.1696336
1.1689734
1.1688471
1.1687414
1.1686939
1.1632591
1.1635547
1.1637782
1.1640272
1.1661439
1.1703338
1.1698329
1.1697039
1.1695705
1.1693719
1.1712938
1.171512
1.1716172
1.1717327
1.1722252
1.1741874
1.1737859
1.1736797
1.1735562
1.1733469
1.1774945
1.1778558
1.1781055
1.1783027
1.178362
1.1734894
1.1713133
1.1710765
1.1708721
1.1704857
1.1718851
1.1720382
1.1720788
1.1720951
1.1723102
1.1693343
1.1668404
1.1665041
1.166169
1.165721
1.1648279
1.1649956
1.1651189
1.1652761
1.1667955
1.1697159
1.1688807
1.1687517
1.168637
1.1685638
1.1690756
1.1692112
1.1693617
1.1695168
1.1704906
1.1705189
1.1695881
1.1694341
1.1692705
1.1690809
1.1694662
1.169675
1.1698425
1.1699929
1.1708942
1.1712663
1.1704032
1.1702608
1.1701002
1.1698971
1.1702675
1.1704569
1.1706058
1.1707372
1.1715398
1.1717698
1.1710381
1.1709185
1.1707814
1.1706031
1.1709169
1.1710805
1.1712052
1.171313
1.171972
1.1721479
1.1715589
1.1714624
1.17135
1.1712016
1.1714582
1.1715921
1.1716927
1.1717786
1.1723022
1.1724394
1.1719756
1.1718994
1.1718094
1.1716891
1.1718965
1.1720045
1.1720847
1.1721522
1.172562
1.1726723
1.1723106
1.1722509
1.1721794
1.1720825
1.1722495
1.1723364
1.1724001
1.1724529
1.1727718
1.1728622
1.172581
1.1725342
1.1724773
1.1723993
1.172534
1.1726042
1.172655
1.1726964
1.1729445
1.1730197
1.1728007
1.1727639
1.1727184
1.1726551
1.1727644
1.1728216
1.1728624
1.172895
1.1730886
1.173152
1.1729805
1.1729515
1.1729147
1.1728629
1.172952
1.1729991
1.1730322
1.1730582
1.1732103
1.1732642
1.1731288
1.1731056
1.1730756
1.1730326
1.1731058
1.1731451
1.1731724
1.1731933
1.1733141
1.1733604
1.1732522
1.1732333
1.1732084
1.1731722
1.1732329
1.1732663
1.1732891
1.1733062
1.1734035
1.1734436
1.1733558
1.1733403
1.1733193
1.1732883
1.1733392
1.173368
1.1733874
1.1734016
1.1734811
1.1735162
1.1734439
1.1734309
1.1734129
1.1733859
1.1734292
1.1734545
1.1734712
1.1734832
1.1735492
1.1735801
1.1735198
1.1735087
1.173493
1.1734693
1.1735066
1.173529
1.1735437
1.1735539
1.1736093
1.173637
1.1735861
1.1735766
1.1735628
1.1735416
1.1735745
1.1735945
1.1736074
1.1736162
1.1736634
1.1736403
1.1735898
1.1735805
1.173567
1.1735462
1.1735118
1.1735338
1.1735481
1.1735581
1.1736122
1.1735831
1.1735242
1.1735134
1.173498
1.1734747
1.1734351
1.1734599
1.1734763
1.173488
1.1735523
1.1735196
1.1734491
1.1734364
1.1734187
1.1733923
1.1733461
1.1733744
1.1733934
1.1734073
1.1734848
1.1734476
1.173362
1.1733468
1.1733263
1.1732959
1.1732413
1.173274
1.1732964
1.173313
1.1734078
1.1733652
1.1732597
1.1732413
1.173217
1.1731815
1.173116
1.1731546
1.1731812
1.1732016
1.1733193
1.1732699
1.173138
1.1731153
1.173086
1.1730439
1.1729645
1.1730106
1.173043
1.1730683
1.1732165
1.1731587
1.1729917
1.1729633
1.1729275
1.1728767
1.1727798
1.1728357
1.1728756
1.1729074
1.173096
1.1730278
1.1728143
1.1727785
1.1727341
1.1726722
1.1725529
1.1726216
1.1726712
1.1727115
1.1729533
1.1728718
1.1725976
1.172552
1.1724965
1.1724202
1.1722726
1.1723575
1.1724197
1.1724712
1.1727822
1.1726836
1.1723308
1.1722725
1.1722027
1.172108
1.1719247
1.1720302
1.1721085
1.1721743
1.1725741
1.1724525
1.1719999
1.1719256
1.1718378
1.1717202
1.1714925
1.1716233
1.1717215
1.1718052
1.1723162
1.1721631
1.1715881
1.1714942
1.1713846
1.1712397
1.1709594
1.171119
1.1712404
1.1713454
1.1719885
1.1717875
1.1710736
1.1709574
1.1708241
1.1706507
1.1703197
1.1705033
1.1706478
1.1707753
1.171558
1.1712884
1.170447
1.170309
1.1701536
1.1699572
1.1695431
1.1697424
1.1699035
1.1700486
1.1709249
1.1705169
1.1696219
1.1694748
1.1693195
1.1691408
1.1690996
1.1692195
1.1693573
1.1695044
1.1704494
1.1699946
1.1691751
1.1690466
1.1689374
1.1688933
1.1657191
1.1658577
1.1659457
1.1660592
1.1670379
1.1674131
1.1630883
1.1625992
1.1621353
1.1614925
1.1790215
1.1789465
1.1788285
1.1786359
1.1763642
1.1726614
1.1706156
1.1703523
1.1701329
1.1697307
1.1770275
1.1774468
1.1777062
1.1779095
1.1776847
1.1741079
1.174061
1.1740085
1.1739227
1.1737095
1.1777198
1.177733
1.1776535
1.177494
1.1759959
1.167298
1.1638335
1.1633501
1.1628678
1.1622391
1.165142
1.1652969
1.1653837
1.1655024
1.1665605
1.1697339
1.1690135
1.1688852
1.168778
1.1687313
1.1690401
1.1691771
1.1693255
1.1694794
1.1703304
1.1704465
1.1696351
1.1694809
1.1693127
1.1691087
1.1695532
1.1697767
1.1699476
1.1700969
1.1708724
1.171243
1.1705172
1.1703792
1.17022
1.1700119
1.1703985
1.1705897
1.1707339
1.1708585
1.1715184
1.1717541
1.1711647
1.1710539
1.1709248
1.1707523
1.1710724
1.1712262
1.1713408
1.1714387
1.1719596
1.1721382
1.1716799
1.171594
1.1714928
1.1713564
1.1716079
1.1717286
1.1718177
1.171893
1.1722946
1.1724338
1.1720822
1.1720162
1.1719377
1.171831
1.1720286
1.1721232
1.1721924
1.1722502
1.1725579
1.1726693
1.1723998
1.172349
1.1722879
1.1722038
1.1723598
1.1724347
1.1724889
1.1725335
1.1727697
1.1728608
1.1726533
1.172614
1.1725658
1.1724987
1.1726232
1.1726834
1.1727263
1.1727611
1.1729436
1.1730192
1.1728582
1.1728275
1.172789
1.1727346
1.1728349
1.1728842
1.1729187
1.172946
1.1730883
1.1731519
1.1730258
1.1730013
1.1729702
1.1729253
1.1730072
1.1730482
1.1730764
1.1730982
1.1732103
1.1732643
1.1731644
1.1731447
1.173119
1.1730814
1.173149
1.1731836
1.1732071
1.1732248
1.1733143
1.1733606
1.1732803
1.1732643
1.1732427
1.1732107
1.1732671
1.1732969
1.1733167
1.1733313
1.1734037
1.1734439
1.1733784
1.1733651
1.1733467
1.1733189
1.1733667
1.1733927
1.1734098
1.173422
1.1734814
1.1735165
1.1734624
1.1734512
1.1734352
1.1734108
1.1734518
1.1734748
1.1734897
1.1735
1.1735494
1.1735804
1.1735352
1.1735256
1.1735116
1.1734899
1.1735257
1.1735462
1.1735593
1.1735682
1.1736096
1.1736379
1.1735992
1.1735909
1.1735785
1.1735591
1.1735633
1.1735825
1.1735946
1.1736027
1.1736395
1.1736115
1.1735719
1.1735632
1.1735503
1.17353
1.1734945
1.1735159
1.1735297
1.1735391
1.1735823
1.1735515
1.1735042
1.173494
1.1734793
1.1734565
1.1734158
1.17344
1.1734558
1.1734668
1.1735187
1.1734837
1.1734267
1.1734146
1.1733977
1.1733719
1.1733245
1.1733521
1.1733703
1.1733835
1.1734464
1.1734064
1.1733367
1.1733222
1.1733025
1.1732728
1.1732168
1.1732487
1.1732701
1.173286
1.1733635
1.1733174
1.1732309
1.1732133
1.1731899
1.1731553
1.1730879
1.1731255
1.1731512
1.1731708
1.1732677
1.1732141
1.173105
1.1730832
1.1730549
1.1730138
1.172932
1.1729771
1.1730084
1.1730329
1.173156
1.1730929
1.1729535
1.1729259
1.1728911
1.1728413
1.1727409
1.172796
1.1728349
1.172866
1.1730243
1.1729493
1.172769
1.1727338
1.1726901
1.1726287
1.1725038
1.1725725
1.1726216
1.1726616
1.1728673
1.1727772
1.1725419
1.1724962
1.1724407
1.1723637
1.1722066
1.1722933
1.1723561
1.1724083
1.1726777
1.1725674
1.1722586
1.1721989
1.1721275
1.1720296
1.1718304
1.1719411
1.1720222
1.1720904
1.1724444
1.1723065
1.1719012
1.1718232
1.171731
1.171606
1.1713538
1.1714946
1.1715991
1.171688
1.1721508
1.1719727
1.171447
1.1713461
1.1712283
1.1710705
1.1707542
1.1709294
1.1710611
1.1711746
1.171767
1.1715324
1.1708735
1.1707473
1.1706018
1.1704098
1.1700385
1.1702445
1.1704024
1.1705403
1.1712567
1.1708863
1.1701318
1.1699855
1.1698202
1.1696086
1.1692084
1.1693989
1.16956
1.1697101
1.1704999
1.1704632
1.1696325
1.1694832
1.1693418
1.1692232
1.1688843
1.1689214
1.1690062
1.1691117
1.169684
1.1662718
1.1645126
1.1643081
1.1641389
1.1639015
1.1667156
1.167091
1.167341
1.1675955
1.1694156
1.1744627
1.1754414
1.1754647
1.1754485
1.1753566
1.171459
1.1717112
1.1718343
1.1719592
1.1730109
1.1786605
1.1786841
1.1784954
1.1782505
1.1778508
1.1817073
1.1836703
1.1839807
1.1842178
1.1843382
1.1841711
1.1841626
1.184161
1.1840091
1.1809591
1.1789655
1.1791312
1.1790232
1.1789109
1.1786988
1.1769493
1.1771208
1.1772383
1.1773169
1.1770607
1.1750972
1.175588
1.1756118
1.1755807
1.1754827
1.1737217
1.1739527
1.1740929
1.1741641
1.1742643
1.1678168
1.1656229
1.1653068
1.1650103
1.1645278
1.1651765
1.1653086
1.1654018
1.1655378
1.1666887
1.1697251
1.1690682
1.1689489
1.1688495
1.1688137
1.1691641
1.1692832
1.1694208
1.1695659
1.1703535
1.1704556
1.169694
1.1695482
1.1693919
1.169208
1.1696347
1.1698367
1.1699959
1.1701371
1.1708708
1.1712402
1.1705478
1.1704162
1.1702659
1.1700706
1.1704439
1.1706244
1.1707618
1.1708812
1.1715153
1.1717501
1.1711806
1.1710737
1.1709501
1.1707864
1.1710977
1.1712446
1.1713549
1.1714496
1.1719556
1.1721343
1.1716874
1.1716038
1.171506
1.1713749
1.1716213
1.1717379
1.1718244
1.171898
1.1722911
1.1724303
1.1720849
1.1720203
1.1719437
1.17184
1.1720344
1.1721268
1.1721945
1.1722514
1.1725545
1.1726662
1.1723999
1.1723499
1.1722898
1.1722074
1.1723615
1.1724353
1.1724887
1.1725328
1.1727669
1.1728582
1.1726521
1.1726132
1.1725655
1.1724993
1.1726227
1.1726824
1.1727249
1.1727594
1.1729412
1.1730169
1.1728564
1.1728257
1.1727875
1.1727335
1.1728335
1.1728825
1.1729169
1.1729441
1.1730863
1.17315
1.1730238
1.1729994
1.1729683
1.1729236
1.1730054
1.1730463
1.1730745
1.1730963
1.1732086
1.1732628
1.1731625
1.1731428
1.1731171
1.1730795
1.1731472
1.1731819
1.1732054
1.1732231
1.1733129
1.1733594
1.1732786
1.1732625
1.1732409
1.1732087
1.1732653
1.1732952
1.1733151
1.1733297
1.1734025
1.1734428
1.1733769
1.1733635
1.173345
1.1733172
1.1733651
1.1733912
1.1734083
1.1734206
1.1734804
1.1735156
1.1734611
1.1734498
1.1734338
1.1734093
1.1734504
1.1734735
1.1734885
1.1734989
1.1735486
1.1735797
1.1735341
1.1735245
1.1735105
1.1734887
1.1735247
1.1735453
1.1735584
1.1735673
1.173609
1.1736374
1.1735985
1.1735902
1.1735778
1.1735582
1.1735426
1.1735636
1.1735773
1.1735868
1.1736379
1.17361
1.1735549
1.1735447
1.1735301
1.1735079
1.1734706
1.1734942
1.1735097
1.1735207
1.1735808
1.1735499
1.1734842
1.1734723
1.1734556
1.1734305
1.1733874
1.1734142
1.1734321
1.173445
1.173517
1.173482
1.1734028
1.1733886
1.1733693
1.1733406
1.1732899
1.1733207
1.1733416
1.1733571
1.1734445
1.1734045
1.1733075
1.1732905
1.1732678
1.1732345
1.173174
1.17321
1.1732349
1.1732536
1.1733615
1.1733153
1.1731948
1.1731739
1.1731467
1.1731075
1.1730345
1.1730773
1.1731072
1.1731304
1.1732654
1.1732117
1.1730598
1.1730339
1.1730008
1.1729538
1.1728649
1.1729166
1.1729532
1.1729822
1.1731534
1.1730902
1.1728968
1.1728642
1.1728234
1.1727663
1.1726571
1.1727203
1.1727658
1.1728025
1.1730214
1.1729463
1.1726982
1.1726568
1.172606
1.1725358
1.172401
1.172479
1.1725359
1.1725827
1.1728642
1.1727739
1.1724546
1.1724016
1.1723378
1.1722509
1.1720838
1.1721807
1.1722523
1.1723121
1.1726744
1.1725643
1.1721536
1.172086
1.1720056
1.1718975
1.1716901
1.1718105
1.1719006
1.171977
1.1724417
1.1723048
1.17178
1.1716939
1.1715931
1.1714592
1.1712031
1.1713514
1.1714638
1.1715605
1.1721507
1.1719753
1.1713152
1.1712072
1.1710826
1.1709193
1.170608
1.170785
1.1709217
1.1710414
1.1717734
1.1715441
1.1707421
1.1706109
1.1704628
1.1702757
1.1699115
1.1701113
1.1702705
1.1704124
1.171272
1.1709044
1.1700126
1.1698636
1.1696989
1.169497
1.1691131
1.1692932
1.1694524
1.1696039
1.1705126
1.170463
1.1695194
1.169367
1.1692234
1.1691007
1.1687708
1.1688249
1.1689309
1.1690602
1.1698299
1.1669782
1.1655595
1.1654064
1.1652747
1.1651019
1.1651769
1.1656231
1.1659194
1.1662376
1.1688253
1.1729995
1.1731994
1.1731631
1.1730993
1.1728774
1.1700141
1.1704727
1.1708216
1.1711413
1.1737548
1.1787778
1.1825039
1.1829153
1.1832483
1.1835366
1.1730651
1.1732858
1.1734461
1.1735726
1.1742987
1.1715292
1.1706048
1.1704409
1.1703036
1.1699908
1.1707644
1.1708496
1.1708818
1.1709019
1.1707527
1.1662095
1.1636982
1.1633846
1.1631031
1.1627607
1.1687679
1.1688104
1.1689083
1.1690233
1.1696199
1.1704796
1.169633
1.1694757
1.1693277
1.1692059
1.1691575
1.169352
1.1695189
1.1696756
1.1704969
1.1708748
1.1700918
1.1699397
1.1697685
1.1695512
1.1699843
1.1701967
1.1703603
1.1705035
1.1712462
1.1715219
1.1708396
1.1707088
1.1705581
1.1703601
1.1707093
1.1708898
1.171026
1.1711434
1.1717562
1.1719621
1.1714188
1.1713146
1.1711931
1.1710307
1.1713188
1.1714635
1.1715711
1.1716627
1.1721404
1.1722965
1.1718786
1.1717984
1.1717036
1.1715753
1.1718036
1.1719169
1.1720002
1.1720702
1.1724348
1.1725583
1.1722406
1.1721795
1.1721063
1.1720062
1.172186
1.1722746
1.1723389
1.1723923
1.1726691
1.1727692
1.1725277
1.172481
1.1724242
1.1723457
1.1724879
1.1725579
1.172608
1.1726489
1.1728599
1.1729424
1.1727577
1.1727217
1.1726772
1.1726147
1.1727282
1.1727843
1.1728239
1.1728556
1.1730177
1.1730868
1.1729442
1.1729161
1.1728806
1.17283
1.1729217
1.1729676
1.1729994
1.1730243
1.1731502
1.1732087
1.1730972
1.1730749
1.1730462
1.1730044
1.1730794
1.1731176
1.1731436
1.1731636
1.1732627
1.1733127
1.1732243
1.1732063
1.1731825
1.1731474
1.1732095
1.1732419
1.1732637
1.1732799
1.1733591
1.1734023
1.173331
1.1733163
1.1732963
1.1732662
1.1733184
1.1733464
1.1733648
1.1733782
1.1734426
1.1734802
1.1734219
1.1734096
1.1733925
1.1733663
1.1734107
1.1734352
1.1734512
1.1734624
1.1735154
1.1735485
1.1735002
1.1734898
1.1734749
1.1734517
1.1734901
1.1735119
1.1735258
1.1735354
1.1735795
1.1736088
1.1735685
1.1735596
1.1735465
1.1735259
1.1735592
1.1735787
1.173591
1.1735992
1.1736366
1.1736394
1.1736029
1.1735949
1.1735828
1.1735636
1.1735307
1.1735508
1.1735637
1.1735723
1.1736115
1.1735824
1.1735396
1.1735303
1.1735166
1.1734952
1.1734576
1.1734801
1.1734947
1.1735048
1.1735515
1.1735187
1.1734676
1.1734566
1.173441
1.173417
1.1733735
1.173399
1.1734157
1.1734276
1.1734838
1.1734465
1.1733846
1.1733716
1.1733536
1.1733263
1.1732754
1.1733046
1.173324
1.1733382
1.1734067
1.1733638
1.1732878
1.1732722
1.1732511
1.1732197
1.1731591
1.173193
1.1732159
1.1732331
1.1733179
1.1732683
1.1731737
1.1731546
1.1731295
1.1730927
1.1730198
1.1730598
1.1730873
1.1731086
1.1732148
1.1731569
1.1730373
1.1730136
1.1729832
1.1729394
1.1728506
1.1728988
1.1729324
1.172959
1.173094
1.1730256
1.1728727
1.1728427
1.1728053
1.1727521
1.1726429
1.1727018
1.1727437
1.1727775
1.172951
1.1728693
1.1726717
1.1726334
1.1725865
1.1725209
1.1723846
1.1724579
1.1725107
1.1725542
1.1727795
1.1726804
1.1724231
1.1723736
1.1723139
1.1722317
1.1720599
1.1721524
1.1722199
1.1722764
1.1725706
1.1724482
1.1721116
1.1720471
1.1719706
1.1718664
1.1716484
1.1717658
1.1718526
1.1719262
1.1723109
1.172156
1.1717171
1.1716333
1.171535
1.171403
1.1711268
1.1712746
1.1713854
1.1714805
1.1719788
1.1717741
1.1712123
1.1711052
1.1709813
1.1708172
1.1704777
1.1706578
1.170795
1.1709144
1.1715405
1.1712662
1.1705828
1.1704518
1.1703024
1.1701082
1.1696768
1.1698786
1.1700363
1.1701761
1.1708991
1.1704996
1.1697416
1.1695971
1.1694415
1.1692545
1.1692202
1.1693454
1.1694859
1.1696338
1.1704505
1.1698231
1.1692312
1.1691198
1.1690273
1.1689886
1.1644962
1.164705
1.1648445
1.1650103
1.1664311
1.1681714
1.1653996
1.16502
1.164676
1.1641793
1.1782029
1.1781491
1.1780664
1.1779218
1.1761512
1.1719591
1.170303
1.170106
1.1699616
1.1696989
1.1743387
1.1731004
1.1741282
1.1735467
1.1717028
1.1714827
1.1712656
1.1709104
1.1759265
1.1760432
1.176065
1.1760294
1.1755988
1.1804744
1.1805925
1.1806264
1.1805584
1.1801513
1.1770967
1.1778591
1.1778196
1.1777484
1.1775084
1.1726244
1.1729664
1.173156
1.1733839
1.1745157
1.1771109
1.1772178
1.1771548
1.177007
1.1767579
1.1773867
1.180663
1.1766335
1.1776215
1.1738343
1.1738557
1.1738001
1.1738341
1.1738031
1.1737961
1.1738077
1.1738024
1.1735582
1.1735777
1.1735901
1.1735985
1.1736377
1.1736095
1.1735675
1.1735586
1.1735454
1.1735248
1.1734891
1.1735109
1.1735249
1.1735345
1.1735802
1.1735493
1.1734994
1.1734889
1.173474
1.1734509
1.17341
1.1734344
1.1734504
1.1734617
1.1735163
1.1734812
1.1734212
1.1734089
1.1733917
1.1733657
1.173318
1.1733458
1.1733642
1.1733776
1.1734436
1.1734032
1.1733303
1.1733157
1.1732957
1.1732659
1.1732096
1.1732416
1.1732632
1.1732793
1.17336
1.1733136
1.1732238
1.1732061
1.1731826
1.173148
1.1730806
1.173118
1.1731437
1.1731633
1.1732634
1.1732092
1.1730971
1.1730753
1.1730472
1.1730064
1.1729251
1.1729695
1.1730005
1.1730247
1.1731505
1.1730867
1.1729453
1.1729181
1.1728839
1.1728352
1.1727359
1.1727894
1.1728273
1.1728578
1.1730173
1.1729415
1.1727612
1.1727269
1.1726847
1.1726257
1.1725033
1.1725687
1.1726158
1.1726543
1.1728584
1.1727671
1.1725357
1.1724922
1.1724395
1.1723668
1.1722145
1.1722954
1.1723546
1.1724038
1.1726663
1.1725547
1.1722566
1.1722007
1.1721342
1.1720437
1.1718522
1.1719535
1.1720284
1.1720917
1.1724302
1.1722911
1.1719068
1.171835
1.1717506
1.171637
1.1713954
1.1715225
1.1716175
1.1716989
1.1721342
1.1719556
1.1714641
1.1713722
1.1712655
1.1711235
1.1708188
1.1709762
1.1710954
1.1711986
1.1717497
1.1715154
1.170904
1.170789
1.1706572
1.1704844
1.1701184
1.1703047
1.1704482
1.1705741
1.1712376
1.1708598
1.1701602
1.1700261
1.1698753
1.1696843
1.169298
1.1694661
1.1696123
1.1697505
1.1704771
1.1704447
1.1697117
1.169574
1.1694459
1.1693475
1.1686662
1.1686964
1.1687842
1.1688919
1.1694509
1.1662211
1.1641067
1.1638726
1.1636791
1.1634356
1.170483
1.1706253
1.1706663
1.1707125
1.1707125
1.1706056
1.1687917
1.1685449
1.1683104
1.1678567
1.1747871
1.1750477
1.1752163
1.1752969
1.1757205
1.1777556
1.1777288
1.1777304
1.1776659
1.1749935
1.1752388
1.1753821
1.1755837
1.1759192
1.1761367
1.1764562
1.1762764
1.1761322
1.1758038
1.1859904
1.1856853
1.1854202
1.1850239
1.1815287
1.1804322
1.1824358
1.1825523
1.1826033
1.1826415
1.1747714
1.1750324
1.1752026
1.1752849
1.1757166
1.1706011
1.1687865
1.16854
1.1683059
1.1678522
1.1704808
1.170623
1.1706636
1.1707093
1.1707077
1.1662149
1.1641023
1.1638687
1.1636758
1.1634329
1.1686641
1.1686936
1.1687809
1.1688882
1.169445
1.1704386
1.1697077
1.1695704
1.1694428
1.1693452
1.1692947
1.1694624
1.1696083
1.1697462
1.1704713
1.1708541
1.1701557
1.1700217
1.1698712
1.1696806
1.1701143
1.1703003
1.1704436
1.1705694
1.1712322
1.1715103
1.1708993
1.1707844
1.1706527
1.1704801
1.1708142
1.1709715
1.1710906
1.1711938
1.1717448
1.171951
1.1714593
1.1713674
1.1712607
1.1711188
1.1713905
1.1715176
1.1716127
1.1716941
1.1721298
1.1722869
1.1719021
1.1718302
1.1717457
1.1716321
1.1718472
1.1719487
1.1720237
1.1720871
1.1724262
1.1725508
1.172252
1.1721961
1.1721294
1.1720387
1.1722094
1.1722906
1.1723499
1.1723993
1.1726626
1.1727635
1.1725314
1.1724876
1.1724347
1.1723618
1.1724984
1.1725641
1.1726113
1.17265
1.172855
1.1729382
1.1727569
1.1727225
1.1726801
1.1726208
1.1727312
1.172785
1.1728231
1.1728537
1.1730142
1.1730838
1.1729414
1.172914
1.1728796
1.1728306
1.1729207
1.1729654
1.1729966
1.173021
1.1731477
1.1732065
1.1730936
1.1730716
1.1730433
1.1730023
1.1730766
1.1731143
1.1731401
1.1731599
1.1732608
1.173311
1.1732205
1.1732026
1.173179
1.1731441
1.173206
1.1732383
1.17326
1.1732762
1.1733576
1.173401
1.1733275
1.1733127
1.1732926
1.1732626
1.1733148
1.1733428
1.1733613
1.1733748
1.1734414
1.1734791
1.1734186
1.1734062
1.1733889
1.1733627
1.1734071
1.1734318
1.1734479
1.1734593
1.1735144
1.1735474
1.1734971
1.1734866
1.1734715
1.1734482
1.1734867
1.1735086
1.1735227
1.1735324
1.1735785
1.1736078
1.1735655
1.1735565
1.1735432
1.1735224
1.1735563
1.173576
1.1735884
1.1735968
1.1736356
1.1736622
1.1736262
1.1736184
1.1736067
1.173588
1.1736385
1.1736014
1.1735933
1.1735811
1.1735617
1.1735287
1.1735491
1.1735621
1.1735709
1.1736108
1.1735817
1.1735381
1.1735286
1.1735147
1.1734931
1.1734553
1.1734781
1.1734929
1.1735032
1.1735509
1.1735181
1.1734657
1.1734545
1.1734387
1.1734144
1.1733705
1.1733964
1.1734134
1.1734255
1.1734831
1.1734457
1.1733821
1.1733688
1.1733505
1.1733228
1.1732711
1.1733009
1.1733207
1.1733353
1.1734057
1.1733627
1.1732844
1.1732683
1.1732468
1.1732147
1.173153
1.1731877
1.1732112
1.173229
1.1733165
1.1732667
1.1731686
1.1731488
1.173123
1.1730852
1.1730106
1.173052
1.1730805
1.1731025
1.1732129
1.1731547
1.1730299
1.1730052
1.1729736
1.1729281
1.1728368
1.172887
1.1729222
1.17295
1.1730914
1.1730226
1.1728617
1.1728302
1.1727909
1.1727352
1.1726221
1.1726841
1.1727283
1.172764
1.1729474
1.1728651
1.1726554
1.1726147
1.1725649
1.1724954
1.1723535
1.1724317
1.1724881
1.1725345
1.1727746
1.1726749
1.1723994
1.1723462
1.1722822
1.172194
1.1720144
1.1721142
1.172187
1.1722479
1.1725643
1.1724412
1.1720778
1.172008
1.171925
1.1718121
1.1715841
1.1717119
1.1718064
1.1718864
1.1723031
1.1721475
1.1716707
1.1715793
1.171472
1.1713277
1.17104
1.1712021
1.1713233
1.1714272
1.1719694
1.171764
1.1711521
1.171035
1.1708992
1.170719
1.1703707
1.1705681
1.1707184
1.1708489
1.1715301
1.1712548
1.1705132
1.1703704
1.1702073
1.1699956
1.1695641
1.1697805
1.1699511
1.1701026
1.1708837
1.1705065
1.1696875
1.1695315
1.1693655
1.1691722
1.1692231
1.1693435
1.1694904
1.1696469
1.1704895
1.1696301
1.169039
1.1689255
1.1688292
1.1687884
1.1627922
1.1631308
1.1634092
1.1637205
1.1662214
1.1707674
1.1709289
1.1709117
1.1708834
1.1708046
1.1700292
1.1703365
1.1704693
1.1706302
1.1715411
1.1743116
1.1736021
1.1734784
1.1733218
1.1731145
1.183601
1.1833012
1.1829607
1.1825429
1.1787914
1.1737671
1.1711929
1.1708798
1.1705391
1.170093
1.1755466
1.1756317
1.1756535
1.1756223
1.1751122
1.1741347
1.1741107
1.1740656
1.173987
1.1737846
1.1697664
1.1701633
1.1703806
1.170643
1.172684
1.171958
1.1702904
1.170093
1.1699494
1.1696894
1.1713883
1.1716525
1.1717841
1.1719167
1.1730048
1.173537
1.1716454
1.1714174
1.1711922
1.1708276
1.1758501
1.1759797
1.1760117
1.1759845
1.1755901
1.1708198
1.1690705
1.1687822
1.168469
1.1679639
1.1702291
1.1703954
1.1704663
1.1705362
1.1707281
1.1661062
1.1639397
1.1636994
1.1634974
1.1632131
1.1686498
1.1686946
1.1687933
1.1689048
1.1694576
1.1704442
1.1696961
1.169554
1.1694211
1.1693158
1.1692693
1.1694423
1.169592
1.1697329
1.1704677
1.1708549
1.1701508
1.170015
1.1698621
1.1696682
1.1701079
1.1702958
1.1704407
1.1705676
1.1712339
1.1715113
1.1708982
1.1707826
1.17065
1.1704761
1.1708117
1.1709699
1.1710896
1.1711932
1.1717456
1.1719517
1.1714592
1.171367
1.1712599
1.1711175
1.1713899
1.1715173
1.1716127
1.1716942
1.1721307
1.1722879
1.1719025
1.1718304
1.1717457
1.1716319
1.1718474
1.171949
1.1720242
1.1720877
1.1724274
1.1725521
1.1722528
1.1721967
1.1721299
1.1720391
1.17221
1.1722913
1.1723507
1.1724002
1.1726639
1.1727649
1.1725324
1.1724886
1.1724356
1.1723626
1.1724992
1.172565
1.1726123
1.1726511
1.1728564
1.1729397
1.1727582
1.1727238
1.1726813
1.1726219
1.1727322
1.172786
1.1728242
1.1728548
1.1730155
1.1730851
1.1729425
1.1729152
1.1728807
1.1728317
1.1729218
1.1729665
1.1729977
1.1730221
1.1731489
1.1732076
1.1730947
1.1730727
1.1730444
1.1730033
1.1730776
1.1731153
1.1731411
1.1731609
1.1732619
1.1733121
1.1732216
1.1732037
1.17318
1.1731452
1.1732071
1.1732393
1.173261
1.1732773
1.1733587
1.173402
1.1733285
1.1733138
1.1732937
1.1732637
1.1733157
1.1733437
1.1733623
1.1733758
1.1734423
1.1734799
1.1734195
1.1734072
1.1733899
1.1733636
1.1734081
1.1734327
1.1734488
1.1734601
1.1735151
1.1735482
1.173498
1.1734875
1.1734724
1.1734492
1.1734877
1.1735096
1.1735236
1.1735333
1.1735793
1.1736085
1.1735664
1.1735574
1.1735442
1.1735234
1.1735572
1.1735768
1.1735892
1.1735976
1.1736362
1.1736624
1.1736264
1.1736186
1.1736069
1.1735883
1.1736382
1.1735992
1.1735909
1.1735785
1.173559
1.1735255
1.1735461
1.1735592
1.1735681
1.1736099
1.1735806
1.173535
1.1735254
1.1735114
1.1734896
1.1734514
1.1734745
1.1734894
1.1734998
1.1735496
1.1735166
1.1734621
1.1734508
1.1734348
1.1734103
1.1733661
1.1733921
1.1734093
1.1734216
1.1734814
1.1734438
1.1733779
1.1733645
1.173346
1.1733182
1.1732664
1.1732962
1.1733161
1.1733308
1.1734036
1.1733604
1.1732797
1.1732636
1.173242
1.1732099
1.1731483
1.1731829
1.1732064
1.1732241
1.1733139
1.1732638
1.1731636
1.173144
1.1731183
1.1730808
1.1730069
1.1730476
1.1730758
1.1730976
1.1732096
1.1731509
1.1730252
1.1730009
1.1729699
1.1729254
1.1728356
1.1728843
1.1729185
1.1729456
1.1730871
1.1730178
1.1728583
1.1728278
1.1727899
1.1727364
1.1726264
1.1726854
1.1727276
1.1727618
1.1729419
1.1728589
1.1726551
1.1726165
1.1725695
1.1725042
1.1723682
1.1724407
1.1724933
1.1725367
1.1727676
1.1726668
1.172405
1.1723559
1.1722969
1.1722161
1.172046
1.1721361
1.1722024
1.172258
1.1725551
1.1724307
1.1720936
1.1720306
1.171956
1.1718551
1.1716407
1.1717536
1.1718376
1.171909
1.1722914
1.1721346
1.1717018
1.1716209
1.1715264
1.1714001
1.1711294
1.1712703
1.1713764
1.1714677
1.1719559
1.1717503
1.1712032
1.1711006
1.1709821
1.1708257
1.1704926
1.1706643
1.1707954
1.1709097
1.1715163
1.1712397
1.170581
1.1704557
1.1703127
1.1701274
1.1696913
1.169882
1.1700326
1.1701664
1.1708607
1.1704742
1.1697509
1.1696124
1.1694656
1.1692967
1.1693484
1.1694487
1.1695783
1.1697176
1.1704515
1.1694657
1.1689296
1.1688215
1.1687273
1.168689
1.1632582
1.1635344
1.1637312
1.1639674
1.1661137
1.1707385
1.17057
1.1705052
1.1704403
1.1702815
1.1680316
1.1685239
1.1688285
1.16911
1.1708285
1.172193
1.1712605
1.1711356
1.170999
1.1707539
1.1679088
1.1682035
1.1683806
1.1685745
1.1698834
1.1667382
1.1648171
1.1646164
1.1644479
1.1642225
1.1686289
1.1686937
1.1688039
1.1689311
1.1697294
1.1705008
1.1695594
1.1694074
1.1692618
1.1691414
1.1690988
1.1692811
1.1694422
1.1695947
1.1705136
1.1708966
1.1699969
1.1698466
1.1696796
1.1694729
1.1698938
1.1700987
1.1702605
1.1704038
1.1712711
1.1715454
1.1707352
1.1706025
1.1704519
1.1702605
1.1705944
1.1707753
1.1709143
1.1710355
1.1717756
1.1719782
1.1713103
1.1712008
1.171074
1.1709072
1.1711925
1.1713439
1.1714584
1.1715565
1.1721541
1.1723085
1.1717768
1.1716894
1.1715868
1.1714501
1.1716825
1.1718054
1.1718971
1.1719746
1.1724456
1.1725682
1.1721521
1.1720834
1.1720016
1.1718914
1.172079
1.1721778
1.1722506
1.1723113
1.1726783
1.1727778
1.1724544
1.1724007
1.1723358
1.1722473
1.1723985
1.1724779
1.1725356
1.1725831
1.172868
1.1729501
1.1726991
1.1726571
1.1726055
1.1725342
1.1726564
1.1727206
1.1727666
1.1728038
1.173025
1.1730937
1.1728985
1.1728655
1.1728242
1.1727663
1.1728656
1.1729179
1.172955
1.1729842
1.1731568
1.173215
1.1730621
1.173036
1.1730026
1.172955
1.1730361
1.1730794
1.1731095
1.1731328
1.1732686
1.1733183
1.1731974
1.1731764
1.1731491
1.1731095
1.1731762
1.1732125
1.1732374
1.1732562
1.1733644
1.1734072
1.1733102
1.1732931
1.1732703
1.1732368
1.1732923
1.1733233
1.1733443
1.1733597
1.1734471
1.1734844
1.1734054
1.1733912
1.1733719
1.1733431
1.1733898
1.1734167
1.1734346
1.1734475
1.1735193
1.173552
1.1734866
1.1734747
1.173458
1.1734328
1.1734728
1.1734964
1.173512
1.1735229
1.1735827
1.1736119
1.173557
1.1735469
1.1735323
1.17351
1.1735447
1.1735657
1.1735794
1.1735888
1.1736399
1.1736392
1.1735882
1.1735787
1.1735651
1.1735441
1.1735096
1.1735318
1.1735463
1.1735564
1.1736113
1.1735821
1.1735223
1.1735114
1.1734958
1.1734723
1.1734325
1.1734575
1.1734742
1.173486
1.1735513
1.1735186
1.1734469
1.173434
1.1734162
1.1733894
1.1733429
1.1733715
1.1733908
1.1734048
1.1734836
1.1734463
1.1733593
1.1733439
1.173323
1.1732923
1.1732371
1.1732703
1.1732929
1.1733098
1.1734062
1.1733633
1.173256
1.1732373
1.1732126
1.1731767
1.1731104
1.1731495
1.1731766
1.1731973
1.1733172
1.1732674
1.1731331
1.17311
1.1730802
1.1730374
1.1729571
1.1730039
1.1730368
1.1730626
1.1732137
1.1731555
1.1729851
1.1729562
1.1729197
1.1728681
1.1727697
1.1728266
1.1728673
1.1728997
1.1730923
1.1730236
1.1728055
1.1727689
1.1727236
1.1726605
1.1725393
1.1726093
1.17266
1.1727013
1.1729485
1.1728664
1.1725858
1.1725392
1.1724824
1.1724045
1.1722545
1.1723413
1.172405
1.1724577
1.1727762
1.1726767
1.1723153
1.1722556
1.1721841
1.1720873
1.1719009
1.1720089
1.1720892
1.1721567
1.1725665
1.172444
1.1719799
1.1719035
1.1718135
1.171693
1.1714615
1.1715957
1.1716965
1.1717826
1.1723069
1.1721528
1.1715625
1.1714657
1.1713531
1.1712043
1.1709188
1.1710829
1.171208
1.1713162
1.171977
1.171775
1.1710407
1.1709207
1.1707831
1.170604
1.1702673
1.1704577
1.1706073
1.1707392
1.1715452
1.1712718
1.1704044
1.1702613
1.1700999
1.1698958
1.1694636
1.1696737
1.1698422
1.1699934
1.1708998
1.1705245
1.1695877
1.1694328
1.169268
1.1690771
1.1690701
1.1692072
1.169359
1.1695153
1.1704956
1.1697198
1.1688771
1.1687468
1.1686306
1.1685555
1.164821
1.1649906
1.1651159
1.1652745
1.1668011
1.1693385
1.1668406
1.1665037
1.1661685
1.1657207
1.1718676
1.1720262
1.1720693
1.1720876
1.1723121
1.1734912
1.1713084
1.1710698
1.1708629
1.1704739
1.1774807
1.177848
1.1781002