/*--------------------------------*- C++ -*----------------------------------*\
  =========                 |
  \\      /  F ield         | OpenFOAM: The Open Source CFD Toolbox
   \\    /   O peration     | Website:  https://openfoam.org
    \\  /    A nd           | Version:  7
     \\/     M anipulation  |
\*---------------------------------------------------------------------------*/
FoamFile
{
    version     2.0;
    format      ascii;
    class       volVectorField;
    location    "330";
    object      U;
}
// * * * * * * * * * * * * * * * * * * * * * * * * * * * * * * * * * * * * * //

dimensions      [0 1 -1 0 0 0 0];

internalField   nonuniform List<vector> 
24789
(
(96.9364 -0.00097752959 -0.0012747864)
(105.856 -0.0017174718 -0.0015277485)
(109.16094 -0.002616596 -0.0019869346)
(110.98215 -0.0032063648 -0.0022570574)
(117.83793 -0.0035003809 -0.0016632243)
(117.83905 -0.0036465697 -0.0018556153)
(110.99963 -0.003305294 -0.0023270221)
(109.18409 -0.0027053373 -0.0020361033)
(105.89099 -0.0017901443 -0.0015720573)
(96.997161 -0.0010329565 -0.001321627)
(97.058585 -0.0010735687 -0.0013866408)
(105.92618 -0.0018555054 -0.0016422027)
(109.20741 -0.0027842717 -0.0021081709)
(111.01732 -0.0033947511 -0.0024076479)
(117.84067 -0.0038737281 -0.0020515662)
(117.84315 -0.0042012388 -0.0023144779)
(111.03594 -0.0034572285 -0.0025201664)
(109.23168 -0.0028153807 -0.002210532)
(105.96246 -0.0018579357 -0.0017377262)
(97.121334 -0.0010478361 -0.0014750677)
(97.185708 -0.0010525572 -0.0015306598)
(105.99992 -0.0018912672 -0.0018005423)
(109.25706 -0.0028782518 -0.0022891988)
(111.05562 -0.0035520749 -0.0026196313)
(117.84668 -0.0046093479 -0.0026450302)
(117.85148 -0.005105218 -0.0030413691)
(111.07664 -0.003664009 -0.0027480344)
(109.28376 -0.0029512633 -0.002388787)
(106.03885 -0.0019304161 -0.0018781233)
(97.251856 -0.0010564353 -0.0015978936)
(97.320166 -0.0010589931 -0.0016769036)
(106.0795 -0.0019770565 -0.0019694219)
(109.3121 -0.0030405733 -0.0025099247)
(111.09924 -0.0038018069 -0.0029072569)
(117.8578 -0.0057168187 -0.0035096324)
(117.86593 -0.0064761903 -0.0040791784)
(111.12383 -0.0039854082 -0.0030977402)
(109.34244 -0.0031565644 -0.0026602045)
(106.12233 -0.0020303708 -0.0020951471)
(97.39097 -0.0010491705 -0.0017937448)
(97.464801 -0.0010344563 -0.0019569219)
(106.16774 -0.0020993555 -0.0022766574)
(109.37525 -0.0033068038 -0.0028725304)
(111.15081 -0.0042202467 -0.0033586638)
(117.87616 -0.0074014422 -0.0047650136)
(117.88882 -0.0084901654 -0.0055626919)
(111.18073 -0.0044914818 -0.0036368087)
(109.41106 -0.0034724562 -0.0030851083)
(106.21638 -0.0021702246 -0.0024371279)
(97.542181 -0.0010285165 -0.0020826585)
(97.6239 -0.001034412 -0.002244317)
(106.26894 -0.0022698317 -0.0026443811)
(109.45063 -0.0036835497 -0.0033585418)
(111.21425 -0.0048245886 -0.003989506)
(117.90429 -0.0097603734 -0.0065150015)
(117.92302 -0.011228502 -0.0076215753)
(111.25208 -0.0052024813 -0.0044291503)
(109.49466 -0.0039123824 -0.0037058294)
(106.32623 -0.002359009 -0.0029213161)
(97.710644 -0.00099746282 -0.0024818507)
(97.803305 -0.00091586938 -0.0028094501)
(106.38909 -0.0024341323 -0.0032919484)
(109.54402 -0.0041599341 -0.004152926)
(111.29499 -0.0056307819 -0.0049787326)
(117.94541 -0.01293649 -0.0089062543)
(117.97199 -0.01492072 -0.010392444)
(111.34389 -0.0061110316 -0.0056554288)
(109.59965 -0.004420901 -0.0047150339)
(106.45854 -0.0024877223 -0.0037697185)
(97.902818 -0.0007774312 -0.0032368927)
(98.010305 -0.00058405918 -0.0037763749)
(106.53569 -0.0025169372 -0.0043728123)
(109.66266 -0.0046965761 -0.005413819)
(111.39978 -0.0066475391 -0.0064815108)
(118.00334 -0.017218076 -0.01210836)
(118.04013 -0.019877649 -0.014090537)
(111.46379 -0.007250444 -0.0074751745)
(109.73421 -0.0049900388 -0.0062645981)
(106.62178 -0.0025185252 -0.0051121495)
(98.126967 -0.00034091529 -0.004440101)
(98.254264 -2.397646e-05 -0.005254788)
(106.71827 -0.0025008283 -0.0060037383)
(109.81572 -0.0053216453 -0.007283446)
(111.53723 -0.007947547 -0.0086544901)
(118.08315 -0.022979318 -0.016385863)
(118.13335 -0.026622184 -0.019059701)
(111.62165 -0.0087656011 -0.010046106)
(109.90884 -0.0057001455 -0.0084894646)
(106.82691 -0.00246227 -0.0070646059)
(98.393971 0.00037419867 -0.0062318016)
(98.54838 0.00083393958 -0.007443175)
(106.94991 -0.002447162 -0.008387924)
(110.01567 -0.0061900119 -0.0099798119)
(111.71901 -0.0097889164 -0.011748289)
(118.19185 -0.03101171 -0.02222143)
(118.26007 -0.036324242 -0.025976194)
(111.83182 -0.011074037 -0.013750592)
(110.1389 -0.0068226995 -0.011721842)
(107.09016 -0.0024597288 -0.0099214679)
(98.720449 0.0013582524 -0.008845824)
(98.914182 0.0019393339 -0.010512138)
(107.25152 -0.0025426047 -0.011754441)
(110.28216 -0.0076765178 -0.013817625)
(111.96342 -0.01273349 -0.016169013)
(118.33977 -0.042836558 -0.03050026)
(118.43315 -0.050914828 -0.036002234)
(112.11818 -0.014920086 -0.019095762)
(110.45017 -0.0088572752 -0.016333133)
(107.4391 -0.0027562541 -0.013928598)
(99.134885 0.0025522496 -0.012465615)
(99.389648 0.0031390804 -0.014713782)
(107.65976 -0.0031966033 -0.016496563)
(110.6493 -0.010517742 -0.019360133)
(112.30192 -0.017845405 -0.022659251)
(118.54299 -0.061055236 -0.042766309)
(118.67285 -0.073887692 -0.051209242)
(112.52242 -0.021771157 -0.027037646)
(110.88805 -0.012846364 -0.023015026)
(107.92266 -0.0039884044 -0.019508655)
(99.68794 0.0036022478 -0.017219234)
(100.04263 0.0038060508 -0.01992869)
(108.24025 -0.0053191209 -0.023011767)
(111.17797 -0.01608366 -0.027451991)
(112.79025 -0.027001166 -0.032488871)
(118.82764 -0.090114038 -0.062036511)
(119.01363 -0.11045222 -0.076181928)
(113.11878 -0.034046588 -0.039116612)
(111.53368 -0.020719114 -0.032584155)
(108.62838 -0.0076734544 -0.026722735)
(100.47061 0.0033747405 -0.022467429)
(100.99207 0.0012500818 -0.023729016)
(109.10645 -0.01199837 -0.029846552)
(111.97305 -0.027731505 -0.038045861)
(113.52421 -0.043908123 -0.046901057)
(119.23743 -0.13545259 -0.09465571)
(119.51149 -0.1650306 -0.11769001)
(114.03254 -0.057862928 -0.056076736)
(112.52451 -0.038262932 -0.043703355)
(109.70529 -0.019249584 -0.031691034)
(101.63726 -0.004452304 -0.022370813)
(102.46099 -0.012178883 -0.01917867)
(110.47221 -0.029247818 -0.033808721)
(113.23071 -0.051717881 -0.050555448)
(114.68364 -0.075525169 -0.067665508)
(119.86355 -0.19915791 -0.14512305)
(120.29855 -0.25060909 -0.18512322)
(115.48875 -0.099750535 -0.082775621)
(114.10352 -0.06951634 -0.058865979)
(111.41908 -0.043118609 -0.036771309)
(103.49631 -0.020165903 -0.013075899)
(104.684 -0.025111089 -0.0060028483)
(112.56161 -0.067880536 -0.042773024)
(115.17494 -0.10673814 -0.074883791)
(116.47533 -0.15504929 -0.10991139)
(120.78315 -0.37982804 -0.26138192)
(121.75751 -0.61680331 -0.34609491)
(118.19684 -0.24289576 -0.16016796)
(117.03258 -0.15671746 -0.1188614)
(114.52055 -0.080837253 -0.065684089)
(106.39413 -0.019312543 -0.065989351)
(110.21621 -0.18548887 -0.43326645)
(118.20037 0.014015285 -0.075397749)
(120.48212 -0.16026226 -0.096565917)
(121.38112 -0.27465001 -0.13440366)
(123.48534 -1.0638173 -0.5268978)
(124.22133 -2.9190847 -1.9172813)
(122.52187 -3.3883166 -2.1004475)
(121.7349 -3.4223591 -2.0904384)
(119.69564 -3.3738495 -2.0144229)
(112.33316 -3.4178249 -2.0768473)
(111.91691 -3.7477666 -4.4570239)
(119.16779 -3.6742445 -4.4609061)
(121.19946 -3.8734071 -4.4528873)
(122.01494 -3.941334 -4.3142319)
(124.00598 -3.9579313 -3.1985803)
(123.90449 -5.3318009 -4.2639783)
(122.37548 -6.0379686 -5.0837651)
(121.65142 -6.0694421 -5.1552885)
(119.73517 -5.9518828 -5.1069279)
(112.60695 -5.9029881 -5.0802633)
(112.30934 -7.8212361 -5.896532)
(118.90114 -8.0294524 -5.838465)
(120.74759 -8.1358914 -5.8528802)
(121.47838 -8.0941632 -5.785072)
(123.07022 -7.0837178 -4.8331232)
(124.04396 -5.785693 -3.245939)
(121.83919 -6.4019504 -4.0409319)
(121.04911 -6.4247164 -4.1552284)
(119.08872 -6.260613 -4.2132815)
(112.07045 -6.4382786 -4.4257906)
(111.54885 -5.6438459 -2.2770326)
(118.72621 -5.7715418 -2.2530095)
(120.7604 -5.7950821 -2.2634084)
(121.60338 -5.6646322 -2.2297224)
(124.02301 -4.5695305 -2.058575)
(124.10705 -2.721281 -1.2622945)
(121.93575 -2.5696747 -1.0417538)
(121.08739 -2.5069504 -0.99633981)
(118.91756 -2.3552393 -0.92735465)
(111.21496 -2.8178651 -1.1439775)
(108.1973 -0.058096594 -0.14275291)
(116.46039 0.041572961 -0.074796554)
(118.94095 -0.096012861 -0.13562188)
(119.99449 -0.1877646 -0.18823465)
(123.22367 -1.0476502 -0.64534481)
(121.64443 -0.62852389 -0.37820392)
(117.1094 -0.21646631 -0.14502557)
(115.85451 -0.13908658 -0.10110195)
(113.2149 -0.080030608 -0.058555591)
(104.98158 -0.029389614 0.0037180787)
(103.35043 -0.023711019 -0.013759468)
(111.4034 -0.059604841 -0.045612732)
(114.11786 -0.098495121 -0.071307248)
(115.48112 -0.14793174 -0.096892902)
(120.741 -0.40418477 -0.21825185)
(120.30216 -0.27179519 -0.13680318)
(114.50036 -0.10391702 -0.065493625)
(113.05875 -0.071014436 -0.050733285)
(110.27748 -0.04098445 -0.035534706)
(102.18433 -0.017405885 -0.019737107)
(101.16128 -0.013712797 -0.015843288)
(109.32765 -0.03254787 -0.025262125)
(112.17696 -0.056951375 -0.035992935)
(113.68316 -0.082448901 -0.046949866)
(119.89907 -0.22006951 -0.1073632)
(119.56564 -0.18277627 -0.090870774)
(113.01279 -0.064843758 -0.036096485)
(111.4544 -0.044741722 -0.027247812)
(108.55028 -0.025614968 -0.019059374)
(100.33855 -0.010462018 -0.012209067)
(99.687899 -0.008018115 -0.0099897494)
(107.93739 -0.019952577 -0.015328627)
(110.88517 -0.034697656 -0.021820987)
(112.48495 -0.050392407 -0.028910607)
(119.30506 -0.14869986 -0.075600354)
(119.09073 -0.12123976 -0.062393449)
(112.06084 -0.039926365 -0.023908128)
(110.42788 -0.027410575 -0.018276047)
(107.44328 -0.015763966 -0.013091508)
(99.155691 -0.0063469067 -0.0087522499)
(98.712662 -0.0051278324 -0.0077783083)
(107.03723 -0.012666356 -0.011326701)
(110.05363 -0.022088278 -0.01549861)
(111.71369 -0.032238281 -0.020002657)
(118.91079 -0.099430227 -0.051576286)
(118.76007 -0.082149481 -0.042753519)
(111.4277 -0.026449572 -0.016760702)
(109.74515 -0.018136106 -0.013124815)
(106.70088 -0.010403821 -0.0097380391)
(98.340595 -0.0042616496 -0.0068282958)
(98.024159 -0.0036684259 -0.0059043852)
(106.41941 -0.0087575812 -0.0082990225)
(109.48855 -0.015188785 -0.011079083)
(111.19008 -0.022066703 -0.014049576)
(118.63311 -0.068451006 -0.035586535)
(118.52544 -0.057579731 -0.029804125)
(110.99053 -0.018748162 -0.011794069)
(109.2727 -0.012992062 -0.0093272175)
(106.18101 -0.007562521 -0.0070117445)
(97.751418 -0.0032763914 -0.0050345896)
(97.51341 -0.0030231933 -0.0042202798)
(105.97673 -0.0066884908 -0.0058651118)
(109.08919 -0.011335234 -0.0078263397)
(110.82127 -0.016203449 -0.0099105771)
(118.43367 -0.048855521 -0.0251167)
(118.35521 -0.041758331 -0.021281531)
(110.67643 -0.014207726 -0.0083418505)
(108.9317 -0.01005222 -0.0065546386)
(105.79987 -0.0060298912 -0.0048656314)
(97.303369 -0.0028550317 -0.0034801464)
(97.116121 -0.0027451007 -0.0028184537)
(105.64535 -0.0055218798 -0.0040060423)
(108.79548 -0.0090355075 -0.0054835764)
(110.55161 -0.012608995 -0.0070344374)
(118.28795 -0.035909474 -0.018111136)
(118.2302 -0.031015585 -0.015467382)
(110.44343 -0.011270166 -0.0059844444)
(108.67689 -0.0081766944 -0.0046323059)
(105.50935 -0.0050834918 -0.0033281174)
(96.947753 -0.0026364409 -0.0022971361)
(96.795274 -0.0025605102 -0.0018102181)
(105.38891 -0.0047278432 -0.0027255546)
(108.57317 -0.0074646476 -0.0038923712)
(110.34927 -0.010151202 -0.0050814243)
(118.1806 -0.02686936 -0.01321635)
(118.13807 -0.023312262 -0.011300128)
(110.26715 -0.0091720952 -0.0043692327)
(108.48218 -0.0068309941 -0.0033268151)
(105.28179 -0.0043984103 -0.0022833413)
(96.656368 -0.0024695101 -0.0014697874)
(96.529202 -0.0023762243 -0.0012041101)
(105.18613 -0.0040981591 -0.0019330609)
(108.40217 -0.0062693434 -0.0028690512)
(110.1954 -0.0083129737 -0.0037827714)
(118.10167 -0.020230252 -0.0096551276)
(118.07063 -0.017545479 -0.0082402009)
(110.13264 -0.0075601731 -0.0032977898)
(108.33165 -0.0057733403 -0.0024962543)
(105.10043 -0.0038276768 -0.0016548062)
(96.412219 -0.0022840169 -0.001000147)
(96.304133 -0.0021923791 -0.00084137477)
(105.02331 -0.0035847503 -0.0014271527)
(108.26933 -0.0053377275 -0.0021834345)
(110.07765 -0.0069042082 -0.0028863958)
(118.04432 -0.015202916 -0.0070089954)
(118.02216 -0.013164289 -0.0059455361)
(110.02934 -0.0063351702 -0.0025470089)
(108.21405 -0.0049555968 -0.0019309734)
(104.95361 -0.0033650544 -0.001254062)
(96.20374 -0.0020972987 -0.00073772487)
(96.109973 -0.0020199262 -0.00062863466)
(104.89016 -0.0031859383 -0.0010831319)
(108.16474 -0.0046412641 -0.001693937)
(109.98671 -0.0058615457 -0.0022403187)
(118.00365 -0.01139705 -0.0050327547)
(117.98835 -0.0098413336 -0.0042554051)
(109.9489 -0.0054601091 -0.0019762696)
(108.12045 -0.0043767014 -0.0014798817)
(104.83207 -0.0030320165 -0.00092532678)
(96.021913 -0.001943776 -0.00053938438)
(95.938669 -0.0019323792 -0.00035804739)
(104.77832 -0.0029539102 -0.00070347339)
(108.0803 -0.0042053162 -0.0012252491)
(109.91503 -0.0051769196 -0.0016863612)
(117.97583 -0.0085782126 -0.0036060318)
(117.96574 -0.0075183686 -0.0030736111)
(109.88435 -0.0049371305 -0.0014812103)
(108.04342 -0.0040516919 -0.0010531408)
(104.72812 -0.0028781213 -0.00054954792)
(95.859338 -0.0019195368 -0.00021565074)
(95.783343 -0.0019016886 -0.00011293476)
(104.68075 -0.0028042042 -0.00044904134)
(108.00924 -0.003914044 -0.00094046794)
(109.85626 -0.0047275238 -0.001342122)
(117.95775 -0.0065943111 -0.0026315273)
(117.95157 -0.0058303584 -0.0022635539)
(109.83031 -0.0045504369 -0.0012392139)
(107.97723 -0.0037945396 -0.0008597378)
(104.63577 -0.00273533 -0.00037920684)
(95.710106 -0.0018785717 -4.1167554e-05)
(95.639231 -0.0018507482 5.0732567e-06)
(104.59264 -0.0026706878 -0.00033271594)
(107.94696 -0.0036895908 -0.00080203228)
(109.80603 -0.0043997088 -0.0011609761)
(117.9469 -0.0052057115 -0.0019551247)
(117.9435 -0.0046911254 -0.001694711)
(109.78319 -0.0042723547 -0.0011019301)
(107.91812 -0.003598124 -0.00076019183)
(104.55113 -0.0026120613 -0.00029951637)
(95.57032 -0.0018223709 3.8916978e-05)
(95.503142 -0.001792621 7.8803886e-05)
(104.51084 -0.0025581057 -0.00025429529)
(107.89042 -0.0035168344 -0.00070712436)
(109.76143 -0.0041614677 -0.0010401983)
(117.94115 -0.0042542197 -0.0014847278)
(117.93965 -0.0039790411 -0.0013490731)
(109.74066 -0.0040494203 -0.0009979674)
(107.86371 -0.0034074775 -0.00066907998)
(104.47171 -0.0024475266 -0.00022353404)
(95.437301 -0.0016937919 9.4382634e-05)
(95.371536 -0.0017416279 9.904774e-05)
(104.43204 -0.0025676781 -0.00022677661)
(107.83648 -0.0035030588 -0.0006531288)
(109.71943 -0.0041122623 -0.00096533576)
(117.93852 -0.0038940198 -0.001252543)
(117.93771 0.0012414574 -0.0036650062)
(109.73937 0.0010693737 -0.0039242068)
(107.86258 0.00076977188 -0.0033164974)
(104.47103 0.00033175411 -0.0024007001)
(95.437745 -1.0068126e-05 -0.0016801794)
(95.503782 -0.00010990934 -0.0018357978)
(104.51046 0.00025099866 -0.0025882181)
(107.88957 0.00070975529 -0.0035253187)
(109.76036 0.0010287484 -0.0041556604)
(117.93911 0.0013351415 -0.0040704753)
(117.94131 0.0014674356 -0.0045136477)
(109.78195 0.00098173339 -0.0042789631)
(107.9171 0.0006503735 -0.0036250311)
(104.55059 0.0001808157 -0.0026670026)
(95.570887 -0.00018736502 -0.0018956526)
(95.639796 -0.00025041731 -0.0019514924)
(104.59205 0.00011752815 -0.0027518238)
(107.94586 0.00059894826 -0.0037460726)
(109.80471 0.00095042413 -0.0044367783)
(117.94452 0.0016692583 -0.0050518714)
(117.94898 0.0019330297 -0.0056864236)
(109.82886 0.00094961819 -0.004611001)
(107.97602 0.0005719096 -0.0038762051)
(104.63511 7.4932365e-05 -0.0028427154)
(95.710676 -0.00029508828 -0.0020074967)
(95.783957 -0.00030751309 -0.0020617716)
(104.68005 6.420179e-05 -0.0029392653)
(108.00796 0.00057744729 -0.0040207191)
(109.85471 0.00098263029 -0.0048099975)
(117.95492 0.0022601094 -0.0064457377)
(117.96263 0.0026634155 -0.0073542573)
(109.88266 0.0010607066 -0.0050379115)
(108.04203 0.00062613357 -0.0041808366)
(104.72735 9.6822345e-05 -0.0030404961)
(95.85999 -0.0002772531 -0.0021108074)
(95.939391 -0.00020884896 -0.0021516021)
(104.77751 0.00017760819 -0.0031383701)
(108.0788 0.00072847216 -0.0043511875)
(109.91321 0.0011981926 -0.0052905265)
(117.97241 0.0031582291 -0.008407898)
(117.98457 0.0037617407 -0.0096075466)
(109.94692 0.0014115491 -0.0055830334)
(108.11883 0.00090039414 -0.0045417818)
(104.83118 0.00031309746 -0.0032436783)
(96.022672 -0.00011629048 -0.0021911321)
(96.110722 -0.00013824406 -0.0023025383)
(104.88915 0.00036588021 -0.0034236075)
(108.16294 0.0010148844 -0.00482132)
(109.98452 0.0015797443 -0.0059895961)
(117.99946 0.0044764485 -0.011115667)
(118.01749 0.0053258459 -0.012824591)
(110.02687 0.0018066564 -0.0064631367)
(108.212 0.0011713409 -0.005145624)
(104.95239 0.00045434239 -0.0036239995)
(96.204394 -0.00011466812 -0.0024124855)
(96.304601 -7.5811041e-05 -0.0025315233)
(105.02179 0.00056352446 -0.0038594366)
(108.26693 0.0013590812 -0.005532347)
(110.07479 0.0020790584 -0.0070259644)
(118.03911 0.0063234913 -0.014798009)
(118.06478 0.0074755173 -0.017072566)
(110.12926 0.0023838504 -0.0076819931)
(108.32873 0.001563307 -0.0059813146)
(105.09843 0.00067786838 -0.0041296266)
(96.412341 -3.7599826e-05 -0.0026658081)
(96.528792 3.5058383e-05 -0.0028106555)
(105.18347 0.00083241705 -0.0044352545)
(108.39856 0.0018162441 -0.0064981155)
(110.19132 0.0027475697 -0.0084415921)
(118.09508 0.0087822638 -0.019690513)
(118.13065 0.01028288 -0.022704814)
(110.26213 0.0031795249 -0.0093135084)
(108.47761 0.0021218848 -0.0070874545)
(105.27818 0.0010268972 -0.0047790112)
(96.655187 0.0001371352 -0.0029673652)
(96.793067 0.00021191467 -0.0031684505)
(105.38405 0.0012164952 -0.0051921583)
(108.56735 0.002444843 -0.0077847637)
(110.34303 0.0036519425 -0.010336628)
(118.17222 0.012001698 -0.026194083)
(118.22071 0.014002732 -0.030240091)
(110.43567 0.0042834168 -0.011488401)
(108.66949 0.00291197 -0.0085504663)
(105.50294 0.0015382978 -0.0056224769)
(96.94428 0.00040756196 -0.0033417978)
(97.111191 0.00068640519 -0.0035356504)
(105.63714 0.0019599805 -0.0061199034)
(108.78623 0.0035027943 -0.0094437558)
(110.54209 0.0050663826 -0.012834449)
(118.27719 0.016364925 -0.034989391)
(118.34299 0.019181831 -0.040638792)
(110.66487 0.0060782723 -0.014423811)
(108.92032 0.0042918139 -0.010485728)
(105.78958 0.0025549329 -0.0066825759)
(97.2968 0.0011171643 -0.0037211831)
(97.505042 0.0017422888 -0.0038995565)
(105.96414 0.0033731382 -0.007330259)
(109.07542 0.0053377115 -0.011725122)
(110.8074 0.007385888 -0.016336231)
(118.41978 0.022579795 -0.047451801)
(118.50962 0.026724215 -0.055790552)
(110.9741 0.009052813 -0.01870973)
(109.25627 0.0066851205 -0.01325617)
(106.16585 0.0044399826 -0.0081171658)
(97.741032 0.0025659848 -0.0040895817)
(98.011466 0.0036828456 -0.0042939744)
(106.40136 0.0058594951 -0.0090951121)
(109.46913 0.0084557018 -0.015187622)
(111.17075 0.011219694 -0.021712117)
(118.61508 0.031846664 -0.066140301)
(118.73942 0.038226211 -0.079172525)
(111.40498 0.014014963 -0.025612087)
(109.72221 0.010746359 -0.017704444)
(106.6794 0.0077024104 -0.010369893)
(98.325079 0.0051486825 -0.0045507219)
(98.693594 0.0068851674 -0.004956447)
(107.01167 0.0099232171 -0.012126223)
(110.02658 0.013555798 -0.021089103)
(111.687 0.017481482 -0.030787735)
(118.88711 0.046140318 -0.095708837)
(119.06362 0.056000004 -0.11661183)
(112.02959 0.021724008 -0.037694381)
(110.39608 0.0169348 -0.025684689)
(107.41293 0.012526736 -0.014577633)
(99.132206 0.008891522 -0.0055811937)
(99.658922 0.011427625 -0.0064334782)
(107.90127 0.015767715 -0.017998974)
(110.84775 0.021222305 -0.03205832)
(112.44838 0.027165281 -0.047163146)
(119.27424 0.068236861 -0.14305142)
(119.52982 0.082238667 -0.17619441)
(112.96899 0.035257458 -0.060363246)
(111.40926 0.027704803 -0.040934266)
(108.50596 0.020910103 -0.022632458)
(100.30124 0.015525267 -0.0075593633)
(101.11045 0.021610602 -0.0091116327)
(109.27322 0.030511722 -0.027839492)
(112.12311 0.039488837 -0.051492727)
(113.6313 0.048530276 -0.076498574)
(119.85612 0.097460229 -0.213233)
(120.26058 0.12351243 -0.2615147)
(114.45053 0.072804906 -0.094136101)
(113.00579 0.061094014 -0.061736606)
(110.22149 0.047676379 -0.032754359)
(102.12576 0.028711232 -0.010591637)
(103.29206 0.032261717 -0.01068299)
(111.33647 0.078971274 -0.04058149)
(114.06004 0.10400801 -0.076791632)
(115.43026 0.12412204 -0.12545368)
(120.70144 0.20420837 -0.38273929)
(121.54186 0.37215625 -0.61786432)
(116.97373 0.218627 -0.19755224)
(115.70034 0.18220927 -0.11441565)
(113.02135 0.13484578 -0.053055593)
(104.80749 0.040864131 -0.014953096)
(107.79385 0.12047048 -0.097506106)
(116.28415 0.16712882 0.037156132)
(118.80035 0.22714109 -0.11221742)
(119.86829 0.27858007 -0.21093309)
(123.16672 0.5775901 -1.0074778)
(124.47573 1.1766325 -2.5402487)
(122.66281 0.36529207 -2.503977)
(121.88073 0.24639699 -2.4779309)
(119.79373 0.094197451 -2.3434054)
(112.15236 0.49192997 -3.0503921)
(110.26951 4.0415172 -7.1561708)
(117.2399 4.227016 -7.7312994)
(119.34354 4.142287 -7.7072385)
(120.28616 3.9916392 -7.5422002)
(123.41512 2.8383044 -5.7174723)
(123.1584 3.1017979 -5.6106111)
(120.13816 3.274327 -5.5512502)
(119.20752 3.2672964 -5.5047796)
(117.02261 3.1769385 -5.2664939)
(109.57512 3.2491555 -5.4599946)
(112.19372 3.619563 -8.2545527)
(119.10197 3.7407821 -8.3112175)
(120.99538 3.9889013 -8.3891036)
(121.74466 4.1323445 -8.3339282)
(123.36213 4.1493084 -7.0810107)
(122.75456 1.4435265 -6.7334849)
(119.69862 2.2555382 -7.6704966)
(118.67634 2.3972681 -7.7727178)
(116.47199 2.5154969 -7.6832466)
(109.25677 2.6176967 -7.4390282)
(111.4881 0.54712554 -8.4332882)
(118.1893 0.73308988 -8.8086676)
(120.15041 0.78813921 -8.6928281)
(121.00175 0.80165403 -8.4143646)
(123.45059 0.81477951 -6.4147256)
(124.54053 0.36118055 -2.704227)
(123.245 0.51830011 -2.7938599)
(122.55321 0.53698165 -2.777767)
(120.62016 0.53599428 -2.6591541)
(113.25219 0.6600938 -3.3863498)
(109.14229 0.19310962 -0.23025583)
(117.3183 0.1417476 -0.020662731)
(119.6678 0.13775245 -0.15598738)
(120.63619 0.12897725 -0.24054729)
(123.18441 0.12674236 -0.92463846)
(121.45486 0.056381381 -0.56383451)
(117.64452 -0.01078932 -0.2357714)
(116.44249 -0.020278237 -0.15982668)
(113.89573 -0.026449629 -0.08840573)
(105.92992 -0.025637949 -0.051022842)
(104.31071 -0.072423941 -0.034502231)
(112.13004 -0.065551317 -0.074084168)
(114.74883 -0.055562178 -0.11183436)
(116.0665 -0.043042545 -0.15733149)
(120.56952 0.027554951 -0.3594943)
(120.13276 0.019125717 -0.24982984)
(115.11369 -0.04657419 -0.11727404)
(113.71107 -0.058900234 -0.087040916)
(111.01545 -0.070745233 -0.05950088)
(103.10968 -0.079743557 -0.03574859)
(102.08847 -0.074765526 -0.03163019)
(110.09053 -0.065228115 -0.048353404)
(112.86501 -0.053584611 -0.071247657)
(114.33715 -0.042182753 -0.09485256)
(119.73632 0.018092121 -0.2061916)
(119.41453 0.015827737 -0.17257921)
(113.71972 -0.037779714 -0.076492647)
(112.19341 -0.047903744 -0.057689157)
(109.35771 -0.058478681 -0.039481924)
(101.29294 -0.067505902 -0.026305045)
(100.67387 -0.059792758 -0.021971777)
(108.78979 -0.051719844 -0.032535716)
(111.67243 -0.042433614 -0.046845833)
(113.24008 -0.033695986 -0.061775964)
(119.16067 0.012826127 -0.14245693)
(118.95024 0.010305395 -0.11736033)
(112.85715 -0.029087984 -0.05046285)
(111.25746 -0.036442959 -0.038424289)
(108.33693 -0.044363653 -0.026942665)
(100.17479 -0.05165603 -0.01836803)
(99.765517 -0.044038975 -0.015428671)
(107.9692 -0.037674777 -0.022457542)
(110.92122 -0.030953273 -0.031836478)
(112.54635 -0.024756597 -0.041686088)
(118.77377 0.008282206 -0.097232404)
(118.62572 0.0067086153 -0.081198745)
(112.29201 -0.021034479 -0.034822092)
(110.64625 -0.026240585 -0.026686397)
(107.66739 -0.031912019 -0.018926677)
(99.425392 -0.037324749 -0.013096173)
(99.137904 -0.031456041 -0.011145598)
(107.41627 -0.026900628 -0.016039786)
(110.41863 -0.022128178 -0.02255794)
(112.0815 -0.017756867 -0.029360727)
(118.50071 0.0055619554 -0.068361896)
(118.3945 0.0046989614 -0.058027101)
(111.90513 -0.014945194 -0.025084047)
(110.22774 -0.018626611 -0.019336202)
(107.2043 -0.022651415 -0.013786787)
(98.891026 -0.026485542 -0.009600666)
(98.676073 -0.022318038 -0.0083561873)
(107.02318 -0.019089756 -0.011977978)
(110.06589 -0.015685016 -0.016756925)
(111.75588 -0.012572947 -0.021659185)
(118.30391 0.004018168 -0.049595512)
(118.22639 0.0034669914 -0.042617438)
(111.62839 -0.010569811 -0.018828398)
(109.92722 -0.013208247 -0.014610927)
(106.86658 -0.016096232 -0.010451605)
(98.486448 -0.018818413 -0.0072974656)
(98.317249 -0.01593048 -0.006434575)
(106.72979 -0.013626063 -0.0092110789)
(109.80735 -0.011164933 -0.012860618)
(111.51859 -0.0089186872 -0.016510807)
(118.15989 0.0029951531 -0.036799189)
(118.10276 0.0025768428 -0.031873907)
(111.42343 -0.0075587035 -0.014552947)
(109.70297 -0.0094773861 -0.011377865)
(106.60927 -0.011585214 -0.0081570781)
(98.164799 -0.01354867 -0.0057037717)
(98.026325 -0.01161557 -0.0051313444)
(106.50233 -0.0099221823 -0.0073181058)
(109.61157 -0.0081021819 -0.010172123)
(111.34056 -0.006455767 -0.012939266)
(118.05366 0.0021992997 -0.027696059)
(118.01153 0.0018613191 -0.024095134)
(111.2682 -0.005540095 -0.011560457)
(109.53124 -0.0069565788 -0.009145839)
(106.40698 -0.0085388166 -0.006610804)
(97.899754 -0.010014992 -0.004661416)
(97.783362 -0.0086388774 -0.0042185566)
(106.32153 -0.0073379663 -0.0059497355)
(109.46041 -0.0059568426 -0.0082113509)
(111.20485 -0.0047406314 -0.01032402)
(117.97544 0.0015642293 -0.020952084)
(117.94465 0.0013036589 -0.018222257)
(111.1493 -0.0040426014 -0.0092678469)
(109.39775 -0.005085098 -0.00741768)
(106.24462 -0.0062957249 -0.0053935958)
(97.675773 -0.0074579693 -0.0038438537)
(97.575891 -0.0064292438 -0.0035206136)
(106.17512 -0.0053845889 -0.0049117682)
(109.3422 -0.0043222813 -0.0067296881)
(111.1005 -0.003432212 -0.0083520271)
(117.91851 0.0010665914 -0.015833463)
(117.8965 0.00085345982 -0.013747781)
(111.05756 -0.0028977545 -0.0075592709)
(109.29276 -0.0036543087 -0.0061315217)
(106.11204 -0.0045856615 -0.0044885579)
(97.482702 -0.0055250769 -0.0032349698)
(97.395273 -0.0047135712 -0.0029641431)
(106.05438 -0.0038646325 -0.0040962375)
(109.24852 -0.0030487764 -0.0055930918)
(111.01958 -0.0024109886 -0.0068562673)
(117.8781 0.00067091053 -0.011924962)
(117.86289 0.00051430152 -0.010349771)
(110.98586 -0.0020102003 -0.0063081756)
(109.20869 -0.0025516413 -0.0051873353)
(106.00139 -0.0032692128 -0.0038106721)
(97.312838 -0.0040380435 -0.0027681828)
(97.234642 -0.0034588122 -0.0025921234)
(105.95222 -0.0027757894 -0.0035590457)
(109.17251 -0.0021475928 -0.0048412528)
(110.95565 -0.001687013 -0.005852874)
(117.85043 0.0003818861 -0.0090871992)
(117.84039 0.00027810354 -0.0079821671)
(110.92832 -0.0014386797 -0.005479124)
(109.13928 -0.0018370453 -0.0045585314)
(105.90621 -0.0023924459 -0.0033528635)
(97.159921 -0.0029996576 -0.0024465649)
(97.088223 -0.0026438397 -0.0023234487)
(105.86277 -0.0021065216 -0.0031801582)
(109.1085 -0.001609962 -0.0043243036)
(110.90338 -0.0012570351 -0.0051680465)
(117.83243 0.00019306653 -0.0070210072)
(117.82626 0.000124452 -0.006230046)
(110.88044 -0.0011344173 -0.0049188452)
(109.07974 -0.0014557949 -0.0041378511)
(105.82153 -0.0019068595 -0.0030436061)
(97.019048 -0.002384143 -0.002226608)
(96.952063 -0.0021996115 -0.0021495721)
(105.78201 -0.0017721995 -0.0029340404)
(109.05263 -0.0013536853 -0.0039878433)
(110.85908 -0.0010536882 -0.0047174641)
(117.8216 6.9182192e-05 -0.0055800697)
(117.81819 2.5401464e-05 -0.0050436768)
(110.83907 -0.0009816607 -0.0045461207)
(109.02685 -0.0012634225 -0.0038584764)
(105.74399 -0.0016592319 -0.0028392267)
(96.886883 -0.002054306 -0.0020843469)
(96.823356 -0.0018982329 -0.002016552)
(105.70721 -0.0015332993 -0.002752095)
(109.00222 -0.0011611589 -0.003747485)
(110.82015 -0.00089649239 -0.0044083309)
(117.8158 -4.3378937e-07 -0.0045889385)
(117.81423 -1.5250219e-05 -0.0041957115)
(110.80185 -0.00081975228 -0.0042269305)
(108.97816 -0.0010684854 -0.003596271)
(105.67112 -0.0014163523 -0.0026263213)
(96.760863 -0.0017481145 -0.001918151)
(96.998268 0.00044117999 -0.0020970711)
(105.89076 0.0012185449 -0.0023169553)
(109.18333 0.002121086 -0.0027186337)
(110.99863 0.002700193 -0.0029574298)
(117.83699 0.0029593849 -0.0021961859)
(117.83846 0.0032488641 -0.0024673666)
(111.01626 0.0027324025 -0.003138303)
(109.20661 0.0021059558 -0.0028888366)
(105.92593 0.001157412 -0.002478024)
(97.059456 0.00034594279 -0.0022516865)
(97.122023 0.00027511771 -0.0024051616)
(105.96188 0.0011093879 -0.0026389624)
(109.23059 0.002084811 -0.0030501594)
(111.03457 0.0027432847 -0.0033017356)
(117.84076 0.0035492556 -0.0027298035)
(117.84407 0.0039476991 -0.0030666748)
(111.05405 0.0027913556 -0.0034811494)
(109.25575 0.0020921611 -0.0032179694)
(105.99918 0.0010822881 -0.0027990544)
(97.186224 0.00021687439 -0.0025539037)
(97.252329 0.0001810642 -0.0026787195)
(106.03793 0.0010827404 -0.0029358799)
(109.28227 0.0021319957 -0.0033677948)
(111.07486 0.0028774298 -0.0036487411)
(117.84863 0.0044532285 -0.0034515552)
(117.85468 0.0050826797 -0.0038939231)
(111.09728 0.0030094218 -0.0038132533)
(109.31043 0.0022064742 -0.0035093628)
(106.07847 0.0011085643 -0.0030602956)
(97.320548 0.00016191778 -0.0027891266)
(97.391337 0.00015891858 -0.0028952139)
(106.12112 0.0011584698 -0.0031895298)
(109.34059 0.0023148365 -0.0036669596)
(111.12165 0.0031864678 -0.0040057352)
(117.86252 0.0058549249 -0.0044074237)
(117.87243 0.0067813023 -0.005007108)
(111.14846 0.0034002259 -0.0042222912)
(109.37323 0.0024424241 -0.0038359529)
(106.16645 0.0012161546 -0.0033168155)
(97.465156 0.00016406354 -0.002987849)
(97.542608 0.00020360582 -0.0031269641)
(106.21496 0.0013384138 -0.0034999061)
(109.40889 0.0026550382 -0.0040658624)
(111.17817 0.003715368 -0.0045062335)
(117.88474 0.007901015 -0.0057354696)
(117.89982 0.0091854228 -0.0065572997)
(111.21147 0.0040884533 -0.00473569)
(109.44824 0.0029111607 -0.0042167811)
(106.2674 0.0014924627 -0.0035785211)