/*--------------------------------*- C++ -*----------------------------------*\
  =========                 |
  \\      /  F ield         | OpenFOAM: The Open Source CFD Toolbox
   \\    /   O peration     | Website:  https://openfoam.org
    \\  /    A nd           | Version:  7
     \\/     M anipulation  |
\*---------------------------------------------------------------------------*/
FoamFile
{
    version     2.0;
    format      ascii;
    class       volScalarField;
    location    "330";
    object      alphat;
}
// * * * * * * * * * * * * * * * * * * * * * * * * * * * * * * * * * * * * * //

dimensions      [1 -1 -1 0 0 0 0];

internalField   nonuniform List<scalar> 
25278
(
7.9164562
7.7915318
7.835677
7.8356568
7.6934993
7.7915088
7.8880516
7.9164337
7.8881045
7.7747646
7.8461562
7.8857187
7.8434023
7.800769
7.0142938
7.8355662
7.7914596
7.1558373
6.6947559
7.2285299
7.5517653
7.6538228
7.7432943
7.7928056
7.6291906
7.7927805
7.7432951
7.5597488
7.4789541
7.5185226
7.3955884
7.3560062
6.9927071
7.2362179
7.265578
7.2126277
7.2441683
7.1506629
7.1207114
6.8621212
7.0155946
7.0473158
6.9098123
6.944808
7.1907784
7.4516624
7.7099553
7.6105332
7.3451889
7.2816846
7.1981452
7.1425452
6.5078946
6.7263534
7.0262726
7.0622385
6.9704425
6.9331654
6.5560156
6.7107218
6.7610515
6.6197889
6.5016413
6.9044854
6.86001
6.8167466
6.8624726
6.4334367
6.3554854
6.4305842
5.8822765
6.0995767
6.3391766
6.5695214
6.790183
6.9485285
7.2660521
7.5187439
7.6539823
7.5849322
7.5294511
7.0187633
7.1588294
6.7121953
7.4563971
7.393708
6.4811416
5.5654573
6.1380981
6.6935716
6.7285269
6.1517012
6.1258657
5.0676698
5.1589651
6.1637619
6.2890796
6.8170205
6.8299277
6.2952007
6.2776525
5.272092
5.3889369
6.3054784
5.7170294
5.7187683
5.5863521
4.0135282
3.9396457
3.0131497
5.0500983
5.0225132
2.9816547
2.9662846
4.1078265
4.2120773
2.951883
5.1172871
5.163316
5.1579313
6.7097277
7.4561681
7.6933834
6.1084367
5.0437338
3.9230264
3.0043252
5.0447646
6.4780532
7.3933956
7.5291369
7.5847486
7.1569137
7.0153707
6.1276768
5.5558942
5.5763606
5.0162284
2.9709757
3.9944684
4.0870783
2.953258
2.9360234
5.1098346
5.7065208
5.7088804
6.2800797
6.1530166
5.1344523
6.1340224
7.0076141
6.6861188
6.7217767
6.8116177
7.1515218
6.8252171
6.2970498
5.3661845
4.1889216
2.460431
1.0771426
1.08438
2.483768
4.1542174
5.6781722
5.6826881
5.0980605
5.0450827
2.8208533
2.8512423
4.0551155
2.4302417
1.1169802
1.0189131
0.35921902
0.397615
1.1813364
1.1748261
0.410024
0.37159241
1.0144227
1.1090489
2.4101301
4.006766
5.2474226
6.262413
6.2805406
5.6428662
4.1019267
2.7246446
2.765289
5.0275867
6.6746943
5.647315
4.969583
5.1533837
2.7012212
0.92509535
0.3387186
0.32641608
0.9260276
2.8096539
5.226617
5.8276801
6.4295079
6.9102476
7.2369107
7.4793913
7.3578841
7.3963534
7.2143562
6.9972582
7.0184609
7.0494576
7.2451406
7.1527821
7.1238631
6.8678684
6.9141318
6.9478297
7.0921117
7.330124
7.5667337
7.7099742
7.5943583
7.3549699
7.318492
7.4767935
7.4519154
7.2794648
7.2940477
7.1104847
6.9772045
7.2046525
7.1921237
7.1080699
7.3460744
7.6106168
7.5524319
7.2325849
7.2836426
7.0314621
6.7393179
6.7212798
6.7693319
7.0656433
6.9758785
6.9406606
6.5722183
6.6327513
6.518629
6.9114069
7.2008463
7.1479777
6.5284971
6.8693395
6.4518059
6.3776386
6.8259479
6.8691169
6.4506199
6.5074514
6.5704256
6.6770112
6.8069989
6.8420538
7.122728
7.0390936
7.0245315
6.963712
7.2719482
7.2973597
7.3724406
7.1545437
7.2355592
7.246548
7.3335012
7.1557723
7.1419679
7.004117
7.025695
6.8960044
7.1665009
7.0866401
7.0760787
6.7528608
6.8714266
6.7034555
6.7833695
6.8664667
6.9342941
7.0594351
7.3548788
7.5942861
7.5665651
7.3297628
7.2787902
7.2937581
7.2037114
6.9753488
7.1096813
7.0905761
6.8742363
7.0170938
6.9014474
6.8336967
6.8118618
6.7902662
6.6246476
6.8306438
6.5239614
6.4858298
6.1725147
6.25482
5.8087624
6.2177491
6.5268984
6.8337144
6.793687
6.4385197
6.4896347
6.1861674
6.5787705
6.6322035
6.2659024
5.8201061
5.7307012
6.1585051
5.5416008
5.7171065
5.1512162
5.2795728
5.6510517
5.8717304
6.0994058
6.289198
6.4799296
6.6416067
6.6631328
6.5543792
6.7201882
6.69838
6.5220653
6.3367011
6.3663078
6.5059132
6.5850153
6.6070243
6.5296225
6.6882779
6.7012683
6.8457013
6.7588484
6.7466618
6.5786611
6.5975284
6.4153432
6.5473217
6.3630203
6.3464141
6.315619
6.1582239
6.116316
5.8911827
5.9295871
6.1308775
6.2763989
6.5873474
6.8758501
6.9023262
6.6085673
6.5341044
6.6919141
6.8362282
6.815158
6.7943253
6.6469887
6.667182
6.5615583
6.7255281
6.7047474
6.5306679
6.3477006
6.485948
6.5110001
6.3221522
6.2961471
6.1301493
6.1699114
6.3756466
6.4008608
6.5844353
6.7510143
6.7620041
6.8475858
6.7040363
6.6023718
6.4216897
6.5507837
6.3673799
6.3515175
6.1981029
6.2216154
6.243877
6.3946885
6.6568985
6.668035
6.952593
6.8903692
6.8747196
6.7336713
6.7254912
6.6203446
6.6341575
6.7908156
6.8096226
6.8161953
6.8982449
6.759335
6.7513356
6.6494286
6.6617808
6.48789
6.6104984
6.5987741
6.5839325
6.5718758
6.4408515
6.4572241
6.2619407
6.4041222
6.424857
6.434145
6.2961926
6.2798398
6.4728821
6.3513283
6.5491146
6.7313251
6.7127615
6.5327014
6.5166875
6.4975284
6.6818943
6.6685801
6.6418869
6.6175771
6.4186735
6.3577616
5.8653015
5.8600282
5.9417356
5.5938935
6.2045049
6.1306235
5.4831505
4.703161
5.2572717
4.3559582
4.5312126
4.6513375
5.3491846
4.8084282
3.8901114
3.7466503
2.8666734
4.0998423
5.129113
5.9254262
5.2976856
5.7961731
5.8860509
6.0102189
5.2432662
4.9870737
4.8602103
3.6146014
2.9612776
2.0032481
1.9981344
2.9295841
4.1901443
3.666123
4.2608465
4.4814552
4.7424766
5.0016591
5.2560282
5.4850325
5.7066279
5.9058671
6.1060892
6.1370073
5.9071096
5.8762134
5.6430518
5.693625
5.9425226
5.975178
6.1688083
6.3169689
6.1637684
6.1840575
5.9922961
6.2131288
6.1878748
6.3923728
6.2563677
6.4681494
6.6623824
6.8382007
7.1210007
7.1052445
7.020983
7.0366811
6.7117951
6.6672777
6.800799
6.6085136
6.4025838
6.1770729
5.5392464
5.913435
5.8281494
5.4239497
5.0436883
5.160673
5.9717
5.8461365
5.7508678
4.7694675
4.8982979
3.501909
4.0420857
4.7188475
5.309167
5.2150946
4.2913907
4.6138055
3.6469713
4.4957885
4.6142116
3.783471
2.7404684
2.7005643
3.9610356
3.46337
1.8292969
1.8002587
2.4385821
3.2909083
4.1108935
4.7662683
5.3310172
5.7600132
6.1253824
6.4947603
6.9203074
7.2707076
7.2970265
7.3722006
7.4766679
7.3181945
7.3334205
7.2462442
7.234861
7.0030575
7.1416016
7.1555909
7.0251429
6.8949135
7.1660037
7.1533728
7.0747246
7.0858795
6.7781422
6.7485496
6.8691401
6.6995684
6.7806981
6.8648585
6.9335244
6.9523989
6.8894771
6.8735582
6.7889967
6.6314866
6.7319339
6.7233399
6.6163646
6.4360313
6.5692811
6.6558902
6.6673827
6.5974335
6.7503349
6.7586492
6.8976462
6.8152337
6.8079743
6.6474309
6.6604402
6.4859187
6.609483
6.4328004
6.4226839
6.4014108
6.5816129
6.4534273
6.2569824
6.2368159
6.3909704
6.2115046
6.3623455
6.3867374
6.2474009
6.225554
6.0417851
6.0186383
5.7813018
5.9980136
5.9624539
5.9445148
5.9023807
5.6807785
5.6281918
5.3644603
5.4135938
5.6907144
5.422621
5.3741011
5.0588929
5.1242188
5.170224
5.4559051
5.7186215
5.963253
5.7602859
6.0205238
5.9858985
6.2252519
6.4404776
6.6340834
6.5372337
6.5091924
6.2838016
6.4081478
6.1946604
6.0410161
6.0800706
6.3247987
6.3560372
6.5700442
6.5856228
6.6768317
6.490284
6.3814919
6.2726362
6.5054752
6.4866132
6.4513283
6.4189841
6.3249935
6.3592079
6.0924398
6.2073733
6.1651281
6.0404782
5.7258592
5.8867492
5.9281146
5.7749005
5.4047718
5.6086849
5.8037049
5.7473432
5.9439813
5.680464
5.7199716
5.4949351
5.4420624
5.087567
5.3802748
5.4316392
5.1577841
5.2088829
5.5412395
5.8439037
6.1148953
6.1460755
6.2822382
6.0508653
5.8803558
5.7004524
6.0058695
5.9690482
6.2425702
6.1324336
6.3997733
6.420121
6.1662523
5.8647479
5.8215349
5.4592953
5.6559175
5.3016855
5.2458132
5.1918732
5.5514986
5.3319765
5.1248386
5.5732329
5.9309476
6.2455543
6.5576288
6.9587839
6.9776469
6.9398156
6.551256
6.6095081
6.6526327
7.0170008
7.0303045
6.9954013
6.9818836
6.5982784
6.6355988
6.6865674
6.4349107
6.4960716
6.5710684
6.6457541
6.7292558
6.7099129
6.6226323
6.6119606
6.4055561
6.5109808
6.5286013
6.4256507
6.4456812
6.5458974
6.5609688
6.7380555
6.6541455
6.4626083
6.3674598
6.5817487
6.5076387
6.2775807
6.2540342
6.3471145
6.3241512
6.5468906
6.5335542
6.4531014
6.4675495
6.2266819
6.198621
6.3001485
6.0395939
6.1737192
6.3058469
6.3271118
6.1990162
5.9442546
6.1027642
6.0778882
5.9131685
5.7411707
5.7793769
6.0699971
5.9423598
5.9045525
5.5615177
5.5110656
5.3189641
5.7276811
6.0672936
6.3517059
6.3280178
6.2845023
6.2140076
6.1728398
5.8298621
5.8906366
5.983686
6.0284854
5.9395117
6.2617882
6.2871783
5.9820108
5.9192561
6.2461015
6.2186578
6.1688008
6.1436299
6.0991287
5.7227896
5.7870738
5.8212713
5.8730856
5.8403981
6.1948056
6.2227559
5.8873297
5.462432
5.5103502
5.604653
5.5494497
5.6780119
5.624827
5.4914964
5.4341856
4.9186697
5.0030766
5.1964672
5.258203
5.0696564
5.1365571
4.9897622
4.9182377
5.4507564
5.3892638
5.3379459
5.2776756
4.682573
4.768961
4.8482951
4.1713863
4.4067094
4.6878221
4.9760044
4.9106011
4.4108447
4.78029
4.8477526
4.4976412
4.5644767
5.0389486
5.1003727
5.3527495
5.5833776
5.7946437
5.5146763
5.7501663
5.4921048
5.758747
5.9660937
6.1880677
6.0017139
5.760437
5.7298982
5.9481418
5.7317643
5.4639704
5.4991623
5.2108381
5.2483357
5.5252292
5.7908694
6.0008745
6.2146941
6.2285674
6.0127016
5.8133613
6.0475432
6.0263102
5.7887411
5.531494
5.5603744
5.8112509
6.0101723
5.8067725
5.8322525
6.0637018
6.2763384
6.4700386
6.3465833
6.36445
6.2435234
6.2219745
5.9721404
6.1256014
6.1466754
6.2934081
6.0831426
6.259977
6.0496037
6.0392745
5.8384819
6.041376
6.2492927
6.2614588
6.0507694
5.8575244
6.0862311
6.0680151
5.8367766
5.5875401
5.6116836
5.8548155
5.6086372
5.8536844
5.6430259
5.9059184
5.8813682
5.8549245
5.8262254
5.6225403
5.6588896
5.3441695
5.5835434
5.5502988
5.3009447
5.25607
4.9655044
4.9072537
4.4865861
4.8528033
5.1698715
5.4746938
5.1207396
5.0724087
4.7333464
4.7965573
4.4233541
4.792727
4.731929
4.3424684
3.9233901
4.3618546
4.4217685
3.9858068
3.9152122
3.3954681
3.4796192
3.9921087
4.0561764
4.4811225
4.8448904
4.8926035
5.2131983
4.904955
4.5366445
4.1193069
4.5481298
4.1229757
4.6320365
4.702216
5.1608902
5.4016644
5.4488111
5.2213526
5.6094348
5.6553206
5.9770115
6.0983806
6.1243242
6.008878
5.6975107
5.8479947
5.9976988
5.7240148
5.6924813
5.3842027
5.6141143
5.3265479
5.5829344
5.5548382
5.2826143
5.3146883
5.3440603
5.0560656
5.3587874
5.0932359
5.4214556
5.1841961
5.5349013
5.4931977
5.8145071
5.280174
5.3362881
4.9198616
4.847368
5.1319106
5.0777915
5.0218336
4.6107282
4.9548777
5.2535281
5.2909893
5.0031568
4.6435698
4.9789959
4.9367
4.5901739
4.1838584
4.25024
4.6734085
4.2778427
4.7739666
4.4230312
4.9754295
5.4373524
5.8194847
6.137133
6.4044906
6.3868136
6.3266451
6.3460943
6.0607075
6.0234016
6.104186
5.7745455
5.6582744
5.7098416
5.2738955
5.2044261
5.3779965
4.9002781
4.8278707
4.7578685
4.478949
4.5545272
3.8462703
4.2525052
4.1779209
4.1078014
4.0330991
4.6237575
4.3397239
3.6224187
3.7070361
3.7720954
3.410468
4.2433374
4.3203149
4.1931047
4.9127988
4.8395554
5.4007106
5.410703
5.8451836
6.1971466
6.5530638
6.9402987
7.2709738
7.6105597
7.5519126
7.1578906
6.7009177
6.2916735
6.8197856
6.2883695
5.7046978
5.1164767
5.0673291
5.7023429
4.2006492
2.8712201
2.8925979
4.0962508
5.2868483
5.4029252
6.3049048
6.8322382
7.1589824
6.3073524
5.7133772
4.2163932
2.5214537
1.0533312
1.1490246
2.4639164
1.2013957
0.42348591
0.38500709
1.1040365
2.9474183
2.9659951
4.115141
5.717424
6.7101919
5.159672
5.6423763
3.9929397
2.4035841
1.1856611
0.41576159
0.37685862
1.0867783
2.4520205
0.98881334
1.0855553
2.7414158
2.6953508
4.08645
5.636673
6.6727686
5.0182189
4.9592317
5.1436492
2.6662538
0.89772249
0.3434926
0.3523965
0.96210901
2.8714926
5.2501649
6.5132274
7.1438091
7.1985448
7.2828207
7.2301341
6.7334567
6.9371574
6.8636448
6.8179678
6.863323
6.9073555
6.5090381
6.4363349
6.3591832
6.4391691
6.5648707
6.627283
6.9731062
7.0646119
7.0290905
6.7176645
6.7666985
6.8054642
7.1070614
7.345645
7.3724116
7.2971046
6.9824423
6.9956029
7.0308929
7.0178819
6.978917
6.9608209
6.9207926
6.4968334
6.5636414
6.6139158
6.6555774
6.5994762
6.6363411
6.6884011
6.7798228
7.086358
7.0754852
7.0379589
7.0229281
6.6732964
6.7159292
6.84109
7.1221775
7.1542477
7.1664589
6.8959233
6.8710836
6.7512139
6.4603729
6.394729
6.3337903
6.2927611
6.26706
6.2653151
6.2871798
6.3088269
6.2874248
5.9757165
6.0040601
5.9636405
5.9334559
5.5227167
5.5684456
5.62556
5.5819697
5.0699387
5.1401505
5.0633323
4.989264
4.2796502
4.4054717
4.6358081
4.7234651
4.0305538
3.9311995
4.3336191
3.694612
4.1971249
3.68096
3.6080593
3.5417561
4.0527278
3.5447769
3.4804276
3.4296665
2.9015244
2.9397145
2.200838
2.871352
2.8246953
2.1627952
1.5925746
1.5713411
2.4415029
3.3549371
3.1562246
4.0449893
3.987009
3.0919456
2.1607472
2.1434233
1.1776528
1.211232
0.62009483
0.98832656
1.6122051
2.3240608
2.949658
3.5120751
3.9678866
4.3864815
4.7494697
5.0991893
5.4085778
5.4583091
5.7439096
6.0053569
6.2404917
6.4515715
6.4210199
6.3022169
6.5221016
6.5479701
6.3407069
6.3694025
6.4768121
6.2688428
6.2929091
6.0650432
6.0369686
5.8709033
6.1340928
6.101859
6.0658744
6.2114302
5.9655188
5.7815815
5.8337079
5.6539368
5.9597877
6.2291847
6.4655337
6.4354618
6.1898755
6.0731928
6.3457262
6.3771803
6.1204497
6.1568595
6.2614231
6.4986822
6.5789199
6.5928799
6.3924005
6.162142
5.9033708
5.7357831
6.0296923
6.2879672
6.515205
6.7179168
6.6183123
6.98074
6.9428652
6.9247983
6.9247374
7.2717527
7.6105603
7.7913998
7.8355247
7.9162602
7.8879479
7.8007902
7.7432051
7.6538166
7.5523325
7.1476875
7.2004002
6.8255042
6.5263893
6.3761053
6.4493404
6.8684297
6.9103044
6.8680185
6.4489303
6.5157493
6.6298148
6.9745713
7.28333
7.2317284
6.7362271
6.9391505
6.5682577
6.7183331
7.0299874
7.0647994
6.7668659
6.8051505
6.674589
6.5679957
6.5062285
6.5589237
6.5596654
6.6035782
6.6579173
7.0189503
7.0312181
6.689453
6.7801433
6.5756834
6.6488191
6.626966
6.6176961
6.4142737
6.4324307
6.4505986
6.4661835
6.5629823
6.7394864
6.6562087
6.5850575
6.3725902
6.3546517
6.334021
6.5528082
6.5413286
6.3128961
6.2160445
6.463289
6.4325213
6.4148679
6.346365
6.3057188
6.2700018
5.9696842
6.0181785
5.9293061
6.2373198
6.2000448
5.8728629
5.5007354
5.6311389
5.7724901
5.9216936
5.6004619
5.4000787
5.4673096
5.8176154
5.8601374
5.9966406
5.6963776
5.5165795
5.5625526
5.8976989
6.1865654
6.0934058
6.3668593
6.3039621
6.2817285
5.9735468
6.0584494
5.7270551
5.6784317
5.2776561
5.2096511
5.0190105
5.098844
5.5534683
5.606297
5.6552673
5.770412
5.3878588
5.3337429
5.1603852
5.2207863
5.0802794
5.5631107
5.9494556
6.0112441
6.0484881
6.1259066
6.3992015
6.4145438
6.4756478
6.2403511
6.264578
6.501884
6.5117172
6.2849612
6.0216159
6.1328706
6.2489727
6.3675135
6.1515342
6.1322893
6.1118821
6.3330874
6.314122
6.0895277
5.9329025
6.1869075
6.209365
5.9595059
5.9840345
6.2295415
6.1102094
6.0857574
6.0590282
5.7711887
5.804085
5.6466099
5.9645087
5.9324348
5.6053719
5.228563
5.4451035
5.6486089
5.8411881
5.8123977
5.7807276
5.4992746
5.5354233
5.2949593
5.6135601
5.5761403
5.5335937
5.2041976
5.1369223
4.7855283
4.846371
5.1458659
4.8099142
4.4668914
4.3877537
4.0055688
4.4481735
4.8582482
4.9234738
5.3063321
5.0631182
4.6106957
4.5260737
4.0480183
4.1194578
4.5072213
4.0755852
3.615984
3.5277365
3.0091817
3.6108958
4.1876429
4.2649448
4.804376
4.5484937
3.9030704
3.8123519
3.1267382
3.181837
3.6707854
3.0696154
2.4512451
2.3906192
1.8272708
2.6788764
3.494838
3.568977
4.3235916
4.9495978
5.4535354
5.8608935
6.1928733
6.1525896
5.8039306
5.7634806
6.1245721
6.1651278
5.823106
5.8720631
5.9079338
6.239199
6.2632362
6.2377802
6.2127945
6.2123068
6.1640002
6.123541
5.8827441
5.7925283
5.2898323
4.8538789
4.9793275
5.2275946
6.0032813
5.917867
5.1133081
4.0739697
3.6009832
2.9413748
1.983789
1.9734394
3.6495827
4.1599703
2.8866799
2.8310275
3.7140524
4.6782879
5.4686712
6.123717
5.8547608
6.3521361
6.4132929
6.1975132
5.5790858
5.9309022
5.8476714
5.2380124
4.3307236
4.5022215
4.6224072
3.8531055
4.7818472
5.3301428
5.4682323
5.2350284
4.9764134
4.7145324
4.4540158
4.2394553
4.1152643
4.1230867
4.7781106
4.8706256
5.3987565
5.34049
5.3964959
4.8607882
4.9271581
5.0145509
5.5096677
5.4543676
5.5095685
5.9142988
5.9561268
5.98916
6.3011202
6.3400421
6.3566489
6.080336
6.1542431
6.1822635
6.4418655
6.4540096
6.2059836
6.1393792
6.4007158
6.3875932
6.1117137
5.7880127
5.8850662
5.9939386
5.684469
5.8342834
5.8622173
6.0064458
5.7366749
5.9125793
5.8906859
5.8668999
5.5983927
5.5679749
5.3348427
5.3722684
5.6802095
5.7094093
5.4069032
5.6259019
5.6513309
5.4386183
5.1142364
5.3678264
5.338132
5.3060113
5.2714084
5.2337746
5.192687
4.8609963
4.9072039
4.5767295
4.9474823
4.898896
5.2509863
4.9791943
5.3568734
5.4021347
5.0311351
4.7367649
5.175094
5.1208202
4.67381
4.1867012
4.5687559
4.6264267
4.1994851
4.1381643
4.522924
4.1270262
4.500076
4.442637
4.0388949
3.641248
4.0657371
3.9960714
3.8503617
3.7344047
2.5874294
2.7849738
2.8980678
2.1000754
2.9661373
2.849005
1.9816917
1.106665
1.6896129
1.6908096
0.6798026
0.77053078
0.40409656
0.36206392
1.1236935
0.57801383
1.1643186
1.8164538
1.8035832
0.99173688
1.1435396
0.44528622
0.85941188
0.76473451
0.40099629
0.22398978
0.24587519
0.60494702
0.23577809
0.21523325
0.21163966
0.21724056
0.22589877
0.25289104
0.42021632
0.80200594
1.88532
3.5053818
4.7904236
5.7603255
5.8548317
5.9903644
5.9007799
5.0870902
5.2053921
4.9211057
3.5522602
4.1321203
4.0387113
2.8099153
2.8717939
1.8702446
2.2073105
3.128793
4.0120603
4.6978742
5.2872512
5.7278686
6.1022238
6.1458113
6.1772378
6.1337785
5.7751808
5.8358027
5.7916345
5.347073
5.4143517
5.3554654
4.8084108
4.8913344
4.7853547
4.8569296
4.9302142
5.4709828
5.8918703
6.2243014
6.2524494
6.2258796
5.8867532
5.9314208
5.998439
6.2951783
6.2714711
6.2246623
6.1850135
6.259015
6.2968107
6.0046395
5.9095849
5.8501361
5.9529341
5.6085067
5.4679256
5.5247148
5.6587356
5.2505983
5.057309
4.9726061
5.1792854
5.3808818
5.7573448
6.0614789
6.3375467
6.1941853
6.1179041
5.8517876
6.352466
6.4142701
5.9362417
5.576465
5.4628773
5.8525099
5.252668
4.6783312
4.3444278
3.7316972
3.8764216
4.7868355
5.3453888
4.6573176
4.5375854
5.1669795
5.734506
6.1850453
6.5770122
6.8661038
7.1229679
7.3960514
7.6538324
7.7098939
7.4518675
7.476745
7.594322
7.6291736
7.5666596
7.5186535
7.5598402
7.4792825
7.3569785
6.9957126
7.2138631
7.2661783
7.2448848
7.1520679
6.9129202
7.0490251
7.0177049
6.7940048
6.9496303
6.8338426
6.6307207
6.2651873
6.5280025
6.4911265
6.4378039
6.9119562
7.2369366
6.4392871
5.5540046
6.1648706
6.2222967
5.822872
5.2927535
5.8215422
5.7333008
6.1849702
6.4914635
6.5278513
6.8335959
6.7936266
6.5773661
6.6306071
6.2642189
6.29609
6.5879302
7.0177567
6.8760371
6.7938174
6.9469878
7.1917859
7.2044113
7.293988
7.3301091
7.2791954
7.0918364
7.1105018
6.97673
7.0039023
7.2353517
7.2464576
7.3334969
7.3549739
7.3182448
7.1420611
7.1557672
7.0254579
6.8094771
6.7312092
6.6485359
6.574877
6.5006876
6.4399796
6.3847533
6.3478705
6.3253528
6.3240804
6.3439731
6.3797784
6.3953975
6.4488845
6.1966674
6.1687835
6.0970231
6.1285156
6.0788725
6.3612583
6.3421112
6.0534287
6.0167142
6.0435889
5.6809788
5.7593332
5.8615694
5.9006007
5.8055861
5.4100285
5.5488656
5.494288
5.3425365
5.2184179
5.2958782
5.7330149
5.6956964
5.6399063
5.1522989
5.2349561
4.6050563
4.7148541
4.9108374
5.1260578
5.0511491
4.8158154
4.1438208
4.5177022
4.616124
4.2683908
3.9041875
3.7642195
4.6035095
4.4999042
4.3770905
3.4276057
3.647985
3.5529567
3.4747094
3.2625409
3.2037079
4.1155781
4.1458383
4.0725888
4.241169
4.1748842
3.3886193
3.4631901
3.1990088
3.2526396
3.3173834
4.2243226
4.3978158
5.0325592
5.5332952
5.4750538
4.9612941
5.1238815
5.5811624
5.9568245
6.0477216
6.3386543
6.3608126
6.0841801
5.7572239
5.6341426
5.189181
5.368123
5.3102561
5.7097304
5.8498169
6.1492635
6.4096729
6.3702855
6.4612748
6.4299669
6.182983
6.2233597
6.1105474
5.8046565
5.9523474
5.9125021
5.5898813
5.6443566
5.4503209
5.5026852
5.5514324
5.8894841
6.1811411
6.4282791
6.5128152
6.4949322
6.2568971
6.284627
6.3901932
6.5909943
6.5766436
6.544818
6.5183365
6.6153409
6.6402281
6.4497024
6.3367436
6.2971594
6.4182841
6.2089976
6.060639
6.0978501
6.2378916
6.0034584
5.828995
5.7752702
5.9629335
5.7047812
5.4790416
5.2433715
4.9783335
4.7039248
4.421552
4.4929519
4.769509
4.2243392
3.8345429
3.740123
4.1436945
3.5677231
3.0511932
2.5631571
2.587681
2.1993779
1.2272312
1.2520382
1.7280993
1.7307433
1.7337285
2.6299254
3.5300162
4.3170872
4.5677993
4.6441972
4.9078648
4.839297
4.2980227
3.909096
3.9904729
3.6067371
2.6819792
2.2309879
2.1524522
2.4839588
3.0390714
3.6139688
2.9756066
2.92007
2.215932
2.9844968
2.4598023
2.1445892
1.1304165
1.5433195
1.5120355
2.2365654
2.2650427
3.1073926
3.1942642
3.7868693
3.1200545
3.7606105
3.8477713
4.3621245
4.7362272
5.0489635
4.6946026
5.0184152
4.6938455
5.0279646
4.9901205
4.9498927
4.6272435
4.9929691
5.0360106
4.6757149
4.7219274
5.0760026
4.7910495
5.1740208
5.5225594
5.4849014
5.128411
5.0806565
4.7987224
4.8604245
5.279151
5.3278558
5.3731729
5.5568377
5.2162042
4.9780427
4.9201518
4.4652567
4.3937092
4.7372634
4.682504
4.2600437
4.3203928
3.8957059
3.8201793
4.3226849
4.253612
3.7488925
3.6812569
3.1304814
3.7414146
4.3348826
4.8706391
4.9343916
4.4064882
4.0498268
4.6893506
4.6183278
3.9732735
3.2434707
3.3135346
3.8149154
3.1971883
2.5408979
2.4909972
1.8379549
2.7483232
3.6337726
4.3955688
4.4696062
3.7064354
3.466057
4.3260523
4.9937332
5.0625621
5.1457523
5.2804331
5.4393041
5.8112147
5.8491573
5.4890019
5.3393388
5.7454909
5.701283
5.6142638
5.663697
6.0244017
6.3195588
6.2966413
6.2770716
6.2768358
6.6027215
6.9836404
6.9837273
6.9962209
6.638116
6.3522018
6.3670614
6.089852
6.0591675
6.0304255
6.330753
6.3464824
6.0626221
5.7143202
5.755542
5.8266796
5.9177814
5.5808962
5.7191721
5.75153
5.8873419
6.0272933
6.1690728
6.3126567
6.4567035
6.7112626
7.11426
7.4120615
7.6371608
7.6981469
7.8461328
7.8953315
7.9293374
7.8953453
7.7686165
7.8325465
7.7747295
7.6371674
7.6645663
7.4368229
7.4119881
7.3618388
7.5262447
7.5499506
7.3962355
7.3732
7.1982032
7.187826
7.0492077
7.2774086
7.2854259
7.0685149
7.0912902
7.2270532
7.2407325
7.4114788
7.3243057
7.3135459
7.2344493
7.4489928
7.6894118
7.7512123
7.5021268
7.6002446
7.7080674
7.7392955
7.5247868
7.4955815
7.4404194
7.4518441
7.2856852
7.2737076
7.1355883
7.355072
7.3628663
7.1562644
7.1818546
7.3165868
7.4746362
7.6291023
7.4835277
7.3321674
7.3969411
7.3904445
7.3092411
7.5318701
7.3120555
7.053225
7.0287967
7.282986
7.2754706
7.2451704
6.9847651
7.1114769
6.9806476
7.0446028
7.1528357
7.4367708
7.6645592
7.5499833
7.5262358
7.3617887
7.3732708
7.2854839
7.2772794
7.0490285
7.1877937
7.198121
7.0685078
7.0914216
7.3136864
7.3962549
7.4115323
7.3243868
7.1117584
7.2407106
7.2269963
7.0266877
6.9983115
6.982287
6.9143307
6.9212968
6.8393049
6.8332818
6.6751552
6.7774771
6.7836217
6.6864433
6.6999297
6.856184
6.9353371
6.942675
6.8620474
6.7108793
6.8066255
6.7996697
6.6502611
6.7189196
6.7106965
6.6274674
6.6369083
6.5145871
6.5010318
6.310985
6.4556964
6.4623788
6.3252883
6.3403028
6.5279302
6.5408634
6.660474
6.4878373
6.4800669
6.3090444
6.4432422
6.7189246
6.9984158
6.9823594
6.9147255
6.9215425
6.7840298
6.7778684
6.6760534
6.8339347
6.8395192
6.6869452
6.7001284
6.8000037
6.9354623
6.9427575
6.8068229
6.7109058
6.8619767
6.8561577
6.7801057
6.9411273
7.2063428
7.4254029
7.1976076
6.9199813
6.8068495
7.1216896
7.1278814
6.8290732
6.8527381
6.9636282
6.8033187
6.8793456
6.9587848
7.0264849
6.7601002
6.7688301
6.6996778
6.8472126
6.8306434
6.965574
6.8847488
6.7347694
6.724071
6.824751
6.6774684
6.6605978
6.6503098
6.6374274
6.6279626
6.502421
6.5153052
6.3263284
6.4629536
6.4808311
6.488205
6.3541271
6.5408013
6.528268
6.340636
6.1356509
6.3092634
6.291778
6.4231488
6.2813182
6.2911219
6.1184913
6.1019118
5.875646
6.0770894
6.0842682
5.8934652
5.9118974
6.1346841
6.1494595
6.3535723
6.3683771
6.5542531
6.7241743
6.879324
6.958756
6.9657786
6.8847067
6.7347939
6.8306549
6.8246391
6.6774062
6.7600312
6.768847
7.0445323
6.9806244
6.9881161
6.9074449
6.9016668
6.7477959
6.8472375
6.8542192
6.7585436
6.5912674
6.7099368
6.69949
6.6862981
6.5661233
6.3806365
6.5147324
6.5090639
6.3379245
6.4771121
6.4961472
6.3632963
6.5325127
6.5396161
6.4067958
6.3940252
6.5786464
6.4640929
6.6520408
6.8258385
6.9848443
7.2452183
7.4490166
7.6894769
7.7512601
7.8325806
7.708075
7.6002482
7.4404298
7.4955441
7.4517843
7.3628223
7.3551407
7.1356089
7.2737611
7.285606
7.1561707
7.2107956
7.0755181
7.0930807
7.0268954
7.0118292
7.0050448
6.9250456
6.9301254
6.7824125
6.8785292
6.8727967
6.7717593
6.6045087
6.7273501
6.8119803
6.8212035
6.7499591
6.8952282
6.9018656
7.0336989
6.9520445
6.9470912
6.7952979
6.8059648
6.6413673
6.7601086
6.591946
6.5849555
6.5667147
6.7362021
6.6163022
6.4331883
6.4207691
6.5612876
6.3916983
6.5305498
6.811983
7.0754707
7.0932389
6.8213341
6.7499848
6.8952533
7.026823
7.0117478
7.004979
6.9879951
6.8542179
6.7586362
6.9073189
6.9016108
6.7475726
6.5789815
6.5660776
6.686197
6.5149783
6.509276
6.3684049
6.5540913
6.4385304
6.627974
6.6149143
6.7866296
6.7066687
6.7009409
6.682415
6.7636603
6.7567649
6.5775217
6.5899134
6.4955157
6.4817478
6.6762324
6.6053082
6.6128085
6.4054682
6.3901163
6.3054103
6.535028
6.5424784
6.3222397
6.3396535
6.4209608
6.5096801
6.6029993
6.4117498
6.3975804
6.3829664
6.2665607
6.2828778
6.0462538
6.1852612
6.2008445
6.2154059
6.4248454
6.3129644
6.5220065
6.4343065
6.6379332
6.6310169
6.5634583
6.5694851
6.3539481
6.1067943
6.2055724
6.1894009
6.2979193
6.0636758
6.0799307
5.9496496
5.9306402
5.9099691
6.1719825
6.1532117
6.0461026
6.0683655
5.7797755
5.8050825
6.0881416
5.9983807
6.2680035
6.5087873
6.7431436
7.0740714
7.3555731
7.3761172
7.1050534
7.1591165
7.1670395
6.8738492
6.7896573
7.1134324
7.0802116
7.072618
7.0402575
7.0339509
7.0669617
6.7187651
6.670178
6.6958354
6.7215489
6.7676873
6.5363469
6.5895877
6.6560174
6.7249795
6.7299848
6.8096542
6.6394442
6.5473179
6.5354576
6.3268029
6.3402604
6.4511314
6.2434691
6.3805877
6.3943135
6.5325465
6.5397692
6.7098915
6.5910607
6.4067608
6.2053108
6.3722366
6.3631703
6.3462373
6.3379687
6.3188499
6.114314
6.1082354
6.0846079
6.0778488
6.2820311
6.1043291
6.1195078
5.8949052
5.8776669
5.6346594
5.878729
5.8924118
5.6531444
5.6321004
5.3710454
5.3953396
5.6545244
5.6741512
5.9130959
6.1079823
6.1142087
6.3181777
5.9272908
5.6906106
5.9245955
5.6910823
5.9275451
6.1496814
6.1648317
6.1779022
5.9575985
6.1428211
6.1383386
5.9436261
5.7078438
5.9441395
6.1384342
6.1428356
6.3459054
6.1779634
6.1643268
5.9438198
5.9575668
5.9727763
6.1920691
6.2052942
6.3719803
6.1699369
6.16517
5.9729353
6.1654411
6.169967
5.9859322
5.9724867
6.1918463
6.0291585
6.2569177
6.4639874
6.652052
6.8257851
6.8323582
6.6634078
6.5717687
6.7526249
6.74787
6.5600976
6.3533924
6.3663411
6.4765766
6.2703453
6.1380159
6.1239351
6.1098193
6.0951344
6.2293285
5.9999614
5.9844445
5.9683393
5.951215
5.9326333
5.6746198
5.6956176
5.4940268
5.7831719
5.7607178
5.4673968
5.1484232
5.3949209
5.4194786
5.1236922
5.0946237
5.0626662
4.7653033
4.4377774
4.8410223
4.5347821
4.0518022
3.9730541
4.3795343
3.9538395
4.3454903
4.2929987
4.6483088
4.6014271
4.551953
4.1582652
4.0996428
3.7035029
3.7642613
4.1835974
3.7643494
3.7018824
3.6374311
3.5764768
3.1322138
3.5547498
3.0984244
3.1673862
3.5715702
3.0168461
2.6180028
2.5404276
2.1830692
2.6921688
2.7493301
3.2026568
2.6912093
3.1306613
3.0603737
2.6114515
2.2155233
2.2786319
1.8467093
2.2464375
2.3018015
2.6744043
3.0756609
3.6361197
3.6991256
3.1372181
2.7337811
3.2931668
3.2301031
2.8115532
3.2659549
3.3284071
2.8089969
3.2568932
3.1927067
2.7485582
2.3340725
2.391243
2.8732055
2.3589893
1.9467336
1.8950321
1.3949928
1.7103924
2.010764
2.3932493
2.3528028
1.6202225
1.2691557
1.9713012
1.9353823
1.2462878
0.68858038
0.65755772
0.9420491
0.55813273
0.31062245
0.34857585
0.24447022
0.55924195
1.0330341
1.63659
1.6692885
1.0551437
0.85283797
1.3588241
1.3204075
1.7800813
1.3419346
1.6910286
2.0358568
2.4778343
2.5172536
2.0767176
1.3837621
1.8151564
1.7935357
1.3556545
1.0932206
1.1161354
1.7244107
1.3807537
0.88556706
0.85975004
0.48834489
0.60219875
0.76763614
1.1520597
1.1154821
1.8329108
2.7046644
2.368101
3.3458732
4.1826018
4.2521855
3.4010431
2.3874497
2.4155881
2.8000237
1.8495201
1.3162415
1.3426367
1.3737154
1.3905625
2.3678897
3.2733351
3.2618847
3.3321293
4.1737579
4.8551569
5.3929937
5.8209857
5.7610408
5.7989882
6.1495931
6.1898471
5.8559591
5.9036122
5.8699293
5.9126578
6.2365992
6.2606912
6.2359926
6.2783306
6.6161326
6.9799712
6.9422399
6.9625422
7.0237985
7.3457803
7.3723097
7.297201
6.9960363
6.6375738
6.6883433
7.0307275
7.0182752
6.6561123
6.7513431
7.0755661
7.0382155
6.7159846
6.8404949
7.1220419
7.1069331
7.1916125
7.451746
7.7098097
7.4765663
7.2351393
7.1539587
7.1661523
7.0860927
6.7790331
6.8949754
6.8702832
7.00315
6.9757429
7.2038811
7.2937928
7.3296595
7.2789783
7.2445872
7.1517591
7.3958821
7.3572081
6.9949562
7.1227688
6.8653128
6.9120884
7.0480232
7.2650925
7.213326
7.0164671
6.7911629
6.5742406
6.4314717
6.1771255
6.2584008
6.6281856
6.831442
6.9461131
6.4838469
6.521824
6.2088649
5.8065667
5.7154646
5.5203547
5.1254474
5.2563137
5.7915169
5.6972291
6.1478046
6.478383
6.4178919
6.9067348
7.2357231
7.5595235
7.4791117
7.5185086
7.5665362
7.6290108
7.5941608
7.3546115
7.3180609
7.3332245
7.2460883
7.0247803
7.1552152
7.1412262
7.1095185
7.0910195
6.9459846
6.7022327
6.6141943
6.5180116
6.4310915
6.3407461
6.2651039
6.1957451
6.2329973
5.9217966
5.8652198
5.961235
6.0104377
6.3011429
6.3420635
6.3630247
6.3002545
6.0052972
5.9446929
5.554822
5.5062207
5.4508118
4.9212893
4.9880058
5.0650315
4.9999308
5.5009927
5.4446837
5.390391
5.3368751
4.7723879
4.8569629
4.9350352
5.0797878
5.5414653
5.4883719
4.9997065
5.1905046
5.6182449
5.6659073
5.2581707
5.3150365
5.1410916
5.5943651
5.9660804
6.0515208
6.086334
5.7592414
5.6437226
5.2017093
5.3690164
5.4217807
5.2619008
5.1305533
5.0563648
5.5601164
5.5629615
5.6155103
5.9928565
5.9920774
6.29585
6.3174043
6.2984987
5.9851073
5.9538439
6.0208005
6.0562531
6.0289433
6.3302089
6.3459883
6.0614567
6.0870459
6.3652972