/*--------------------------------*- C++ -*----------------------------------*\
  =========                 |
  \\      /  F ield         | OpenFOAM: The Open Source CFD Toolbox
   \\    /   O peration     | Website:  https://openfoam.org
    \\  /    A nd           | Version:  7
     \\/     M anipulation  |
\*---------------------------------------------------------------------------*/
FoamFile
{
    version     2.0;
    format      ascii;
    class       volScalarField;
    location    "330";
    object      omega;
}
// * * * * * * * * * * * * * * * * * * * * * * * * * * * * * * * * * * * * * //

dimensions      [0 0 -1 0 0 0 0];

internalField   nonuniform List<scalar> 
25278
(
155.26078
148.86335
148.33215
148.33219
142.79651
148.86315
155.61338
155.26081
155.61337
155.58452
154.49169
154.02017
150.87217
147.25572
151.82057
148.29045
148.84917
153.26426
162.29133
155.6853
150.77016
149.24827
147.90216
151.38509
153.66508
151.38515
147.90199
150.72719
151.22319
152.69131
154.90525
153.39479
160.30701
155.58877
157.24935
157.8721
158.42275
160.3528
159.75522
165.2735
161.88324
162.45879
165.51384
165.90987
160.55069
155.89388
152.6508
154.14743
157.8084
156.97022
158.5234
157.29101
170.90336
165.94774
161.6831
162.17396
164.08067
163.60777
172.2814
168.6903
168.88661
172.16088
174.97372
165.46611
165.15644
166.08873
166.35838
176.63675
177.16939
175.30966
190.1839
184.02235
177.7112
171.98416
166.74959
163.63381
157.24336
152.68898
149.24546
146.71518
143.64586
151.73654
153.21115
161.9242
148.67188
145.69793
162.23091
183.10962
168.70227
156.90495
158.65546
171.18791
169.00791
198.05531
198.50791
170.88347
170.45181
159.00519
161.36448
173.21694
170.72763
198.33009
198.11609
172.96944
188.45104
184.99099
185.76837
244.42598
243.31541
302.43355
198.83582
203.58199
312.82256
322.40607
244.62167
244.42129
332.37958
207.90432
202.26287
202.46535
161.9747
148.66813
142.78405
169.44166
198.94326
244.30952
303.26976
199.03758
162.29947
145.69633
143.63106
146.69586
153.2292
151.78697
168.96921
183.41445
186.09325
203.82925
313.88458
245.57112
245.85848
323.75747
334.08462
208.19782
188.79515
185.30871
170.68381
171.16672
199.41984
171.64522
151.92245
157.05085
158.78898
159.10835
153.31766
161.45492
173.1921
198.9577
245.78289
377.80371
699.20299
695.04776
374.18093
247.45234
189.60164
186.04285
204.55896
210.55605
345.72542
333.49479
247.43333
370.82746
648.28342
724.86925
1257.5363
1093.5597
624.42011
627.54081
1073.7341
1230.8712
728.36117
652.28891
373.87865
250.27761
199.24619
171.11764
173.60765
190.75569
250.51915
356.86208
342.77669
207.23877
162.72837
187.15333
213.59848
210.66931
370.05007
819.63236
1433.4094
1470.1414
817.01231
356.76791
207.80881
188.43629
172.62871
161.93517
155.57812
151.2173
153.36465
154.89544
157.84503
160.22283
161.83109
162.42127
158.41025
160.32047
159.70331
165.16126
165.43273
165.85626
162.55414
158.09026
153.80926
152.6503
155.54852
159.74547
160.02146
157.61117
155.89211
158.70716
159.5283
163.28785
166.28946
161.37134
160.5329
162.25742
157.79806
154.14709
150.76015
155.6164
156.94174
161.59071
165.67704
168.46823
168.7173
162.11894
163.98343
163.46755
171.91898
171.87909
174.58543
165.3375
158.48172
157.19578
170.43869
164.97444
174.81065
176.63942
165.90893
166.2358
176.23929
176.08483
174.57742
172.07465
169.075
169.36887
163.05155
164.76801
163.9786
165.23673
159.15595
160.82909
159.47423
163.36388
161.72762
162.58094
160.83365
164.39735
163.60538
166.7131
167.24818
170.13219
164.18556
165.78839
164.95017
172.3773
169.70385
173.70127
171.75114
169.68689
168.11904
165.62036
159.74521
155.54908
153.81114
158.09488
158.71437
159.52814
161.3824
166.31843
163.2976
162.57941
167.33834
164.37303
167.88415
169.41859
169.41982
169.27035
172.13147
167.20516
174.39138
173.81963
181.92664
181.42134
193.83148
182.24733
174.32467
167.14289
166.67892
172.41677
173.73083
181.57015
171.77703
171.96602
181.13816
193.49055
194.32942
182.18339
196.8073
194.74633
213.20736
210.75634
200.1186
193.34859
186.88903
181.7381
176.85692
172.84609
173.01058
175.84183
171.70567
171.54996
175.95762
180.72726
180.66823
176.91739
174.14216
174.78626
176.85327
172.92817
173.17261
169.70386
171.85713
171.59309
175.79925
175.85346
180.4844
176.9663
181.63185
181.50765
181.7814
186.22137
186.62812
193.01465
192.64148
186.77257
182.06653
174.09029
167.3098
167.87211
174.75343
176.75176
172.85314
169.37375
169.35732
169.19061
172.73016
172.92656
175.68125
171.59579
171.41538
175.76186
180.45441
176.71808
176.80119
181.61607
181.56396
186.25301
185.90786
180.4393
180.35656
175.67284
171.50571
171.79779
169.67361
173.11823
175.74981
180.33341
176.88949
181.52439
181.38008
185.71127
185.58685
185.45331
181.25421
174.55709
175.30968
168.7754
170.12698
170.03475
173.38943
173.06008
175.78972
175.93134
172.09901
172.10497
172.4738
170.4842
173.75314
173.42034
176.02737
176.20314
180.50844
177.32358
177.10206
177.02951
176.81233
180.31708
180.36738
185.42845
181.52601
181.41748
181.69138
185.41575
185.39718
180.42692
183.63323
178.55937
173.98693
173.9948
178.51106
178.44377
178.45013
173.77094
173.54207
173.67122
173.56923
177.30661
177.2558
187.35314
190.70371
190.19123
200.85513
182.88697
183.19608
202.42894
231.54006
209.76446
242.3511
238.1449
235.14879
208.61816
229.40086
274.84777
280.79172
356.11123
262.12416
215.05946
188.94272
205.29657
192.76637
191.84785
188.24064
213.02018
223.05474
225.9239
294.1379
340.59629
490.68045
501.15245
354.31428
259.89063
293.96717
259.12699
247.26335
234.76037
223.64672
213.89157
205.86301
198.67875
192.58235
186.70743
186.60661
193.08292
193.21734
200.44665
199.65527
192.26143
191.89553
186.27507
182.21619
186.41064
186.4052
191.90966
185.81118
185.98531
180.56442
184.26043
178.66143
173.6699
169.43828
163.07515
162.30273
164.03577
164.80483
172.32723
172.27977
169.19741
173.76777
177.69398
183.60302
202.65808
191.0096
191.64479
204.43609
218.38538
216.14502
189.32391
193.01247
194.12264
229.83103
226.75103
306.58768
268.65803
233.40628
210.05582
211.31313
245.63827
235.64245
287.71215
239.85465
236.87944
281.9033
376.32139
375.60204
270.52261
305.79411
530.87941
549.32777
427.04363
327.04282
267.89797
234.35059
211.73461
197.21341
186.22141
176.36827
166.12731
159.17203
160.83085
159.47487
157.61193
160.02241
160.83108
162.58158
161.73484
166.72601
163.60643
164.39573
167.25123
170.14325
164.18712
163.37778
164.9665
165.79559
172.74178
172.45884
169.7388
173.77522
171.80025
169.71171
168.12963
168.77373
170.13655
170.05012
172.12869
175.9818
173.42061
173.10025
175.87199
180.42809
176.86752
174.57736
175.32193
177.12617
173.43478
173.76008
170.48766
172.48459
172.13121
176.06221
176.22266
180.54657
177.34054
181.71997
181.46877
181.5902
177.07907
180.45145
185.55216
185.63633
181.3451
186.08936
181.9781
182.33134
186.03766
186.20997
191.39961
191.61365
198.48295
191.97118
192.56455
192.54621
193.22353
200.06694
200.92915
209.53821
208.64433
199.6593
208.32546
209.19476
220.37339
218.76062
217.63189
207.79767
199.46649
192.24675
198.38785
190.77082
191.17925
184.51797
178.79879
173.83935
176.22683
176.22111
182.19472
178.92254
184.60952
188.92334
188.5696
181.83609
181.58297
175.93265
176.09929
173.8733
178.61368
181.43045
184.29173
178.08048
178.00623
178.38305
178.497
180.89302
180.7155
188.14288
184.97862
185.40836
188.87103
198.35382
193.43359
192.9637
197.59948
209.71926
202.80593
196.6366
197.56819
191.62832
199.51261
199.04786
206.3557
207.35132
219.8034
209.18589
208.23128
218.01196
216.70325
205.4066
195.99988
188.17653
187.81048
184.07557
190.40791
195.40278
200.93738
191.77547
192.3481
184.59589
187.59127
180.17991
180.20282
187.15699
195.92826
196.75181
208.42408
201.87085
213.70226
215.13394
216.32575
203.88001
211.44686
219.23853
203.30537
192.04367
182.98505
174.86072
165.32301
166.01799
166.80131
176.06799
174.69727
174.64408
166.13303
166.90883
167.613
166.84962
175.89886
175.95067
174.79547
181.12231
179.62185
177.80945
176.01459
174.01844
174.04494
176.14961
175.897
181.27503
178.56796
178.59436
181.21804
181.15423
178.62119
178.70999
174.32402
176.32304
181.17797
183.58592
178.05093
179.83233
185.89914
186.0947
183.67382
183.83684
177.9909
177.81435
179.79241
179.93049
186.40349
186.72311
184.02158
191.25476
187.50678
183.91457
183.80708
187.2566
194.38334
189.84414
190.10093
194.8724
200.09004
199.31314
190.82142
194.47108
195.17478
205.8773
207.14876
213.91948
200.15744
189.89911
181.94331
182.02074
182.6585
184.51743
184.92374
195.05694
193.97348
191.23737
190.51111
193.08556
183.74168
183.60433
192.33372
194.17104
184.6836
184.88623
185.73782
186.41767
186.94122
198.37479
197.12004
196.07048
195.0632
196.04814
185.5216
185.29924
195.12023
208.98394
207.32562
204.14099
205.48965
201.25273
202.38198
206.85706
208.03835
227.6325
225.05418
217.35984
215.6614
223.00142
220.86956
226.86124
229.33615
208.89121
210.44823
212.29803
213.69109
238.20912
235.24021
231.67947
265.43098
252.2396
238.26646
225.64573
227.47991
249.80374
232.38902
230.39244
246.49694
243.92458
223.73405
221.79583
212.35698
204.50507
197.82869
206.51806
198.99499
207.07849
198.63612
192.45822
186.29874
191.63901
198.6683
199.10687
192.44081
198.94677
207.51619
206.83435
216.62864
215.6957
206.42021
198.08643
191.88891
186.0067
186.13019
192.03763
197.94074
191.24027
191.39607
198.25193
206.20482
205.68151
197.9259
192.10954
198.14521
197.80023
191.217
185.48161
180.48725
183.74037
183.72357
186.92066
187.06658
193.98824
189.64165
189.49351
185.48118
191.11068
186.19547
191.8876
191.6963
197.51642
191.63578
185.99028
186.15892
191.85701
197.47574
191.03017
191.09896
197.66252
205.21428
204.85973
197.48514
204.96145
197.59201
204.00681
196.20526
196.50803
196.87871
197.31401
203.66477
202.90847
213.11627
205.10502
205.77901
214.26123
215.46166
226.61304
228.52294
246.69118
230.1834
217.80728
207.37131
219.05037
220.09192
233.82717
231.94907
248.27001
231.69291
233.4501
251.33748
274.63232
251.37238
249.23133
273.54232
276.86503
312.0263
306.75009
271.5142
268.4395
246.08458
230.10519
228.61455
216.69242
228.50174
243.93299
265.34653
244.22667
266.73524
241.25341
238.43711
219.87402
211.0556
209.81425
217.95754
204.69098
203.5781
193.86301
190.44032
190.13926
193.34738
202.60808
198.01895
193.66976
201.65631
202.24544
212.09804
204.52524
213.83798
205.37359
205.87027
214.87455
214.13692
213.51398
223.68911
213.11014
222.55694
211.19805
219.56042
207.65843
208.67994
198.63602
216.13291
214.44563
229.94746
232.70747
221.1915
222.92552
224.76119
241.69633
226.88329
215.6501
214.70957
225.33363
239.77764
225.9407
227.24565
241.84724
262.16644
258.92339
239.18648
258.90219
235.58406
252.57889
227.69597
210.50549
198.13603
188.8181
181.50025
181.45687
182.98302
182.96783
190.93618
191.57671
189.30607
199.1189
202.81508
201.55551
216.4426
218.67965
212.21803
230.48124
233.17763
235.76107
249.27664
246.07475
286.36352
260.86967
264.47993
267.76118
271.07878
240.35304
254.75883
299.1802
294.37634
290.7241
319.4311
262.14201
258.49384
265.83144
230.14997
232.78483
210.65997
210.28542
195.89445
185.45438
176.02106
166.78886
159.16223
154.13822
150.75902
153.20327
162.14706
170.37149
158.9275
170.45307
185.37334
203.88063
209.69984
188.84688
244.96833
340.38709
329.36409
245.21831
197.83267
197.63599
172.95639
161.2868
153.17035
172.89485
188.53529
244.21134
369.58389
709.46393
636.72378
366.80533
617.61692
1068.1669
1224.8417
686.57562
332.83339
322.5169
244.28357
185.02185
161.9318
202.37698
187.29413
251.0483
374.60409
622.91353
1066.0355
1220.3761
693.8754
378.80095
741.31693
661.95507
345.38465
360.29433
251.37934
190.94977
162.76666
207.59396
214.01063
211.04076
374.40127
836.97513
1418.4264
1425.9146
796.66408
349.88813
206.93747
170.77126
157.26166
158.51147
156.93578
155.64224
165.77382
163.51094
165.0696
166.05914
166.33702
165.39688
174.78201
176.56103
177.07304
175.08441
172.05565
171.96968
164.01303
162.11014
161.61027
168.51532
168.74267
169.07612
162.25056
157.78749
159.45776
160.82505
166.83538
167.60647
166.88998
166.10832
165.98483
165.27272
166.1146
176.31432
174.70571
174.58365
174.56684
175.86742
175.9302
174.74585
172.69218
165.77465
164.9398
164.76731
163.98382
172.12571
172.2198
169.36009
163.03599
163.3452
164.16231
170.10644
169.68176
172.38651
179.59502
181.24024
182.78476
183.84817
184.52158
184.57174
184.0035
183.9206
184.47015
193.3549
192.54225
193.29963
194.18068
207.33722
205.78793
204.28542
205.73038
224.44889
221.61532
224.29129
227.37073
261.43625
254.42279
242.60242
238.87967
275.42961
281.30896
256.91416
295.5646
262.98194
293.93625
298.65271
302.88791
270.28321
305.41886
309.46542
312.26864
363.85561
361.46091
464.6367
364.7946
368.16404
468.44171
617.47365
631.04497
429.21975
323.02915
341.97637
273.15239
275.61029
346.53994
477.31241
484.23041
817.73779
788.07841
1336.6716
912.70001
596.61228
432.09906
350.04874
300.80159
270.91166
248.88789
232.6566
219.02665
208.18164
207.29463
198.2895
190.62308
184.12158
178.53748
178.61382
181.73138
175.92436
175.98598
181.44253
181.25755
178.46241
183.94229
183.80731
190.01252
190.30604
195.18635
187.65793
187.97391
188.23486
184.17043
191.00694
196.5095
195.72263
201.32362
192.04566
184.41358
178.05273
178.10683
184.7565
187.96721
180.38255
180.28045
187.38395
186.93777
184.11363
177.73165
175.7383
175.94318
181.16996
187.38334
194.71894
199.81151
191.10232
183.90716
177.86309
172.20804
174.51044
165.96913
166.75263
166.05174
166.05076
159.15485
154.13849
148.84879
148.2897
155.2143
155.59748
147.19877
147.86265
149.22411
150.7528
157.19772
158.48692
165.91842
170.48813
176.67888
176.26991
166.25173
165.35552
164.99911
174.87914
174.65268
171.9378
164.00066
156.93382
155.62144
165.73827
163.49024
172.00735
168.52463
161.60788
162.12006
168.75952
169.0984
172.1187
174.63043
176.11465
175.90556
175.89041
175.79199
174.53874
166.10506
166.90006
174.74344
172.7112
177.71568
175.95874
176.06363
175.7778
181.07196
181.06511
181.04879
181.10525
178.67754
174.30651
176.28957
177.98741
183.4709
183.4958
183.59772
177.86577
177.6458
183.70533
186.26864
179.55869
179.91288
179.8228
181.57266
182.13074
182.36413
190.9297
190.26235
192.84282
183.92037
184.21239
193.77601
205.73678
201.39874
196.90359
192.40919
202.25255
208.99803
207.51501
196.28775
195.58071
191.56012
200.56256
206.43293
205.38443
194.94507
186.6222
189.18063
181.57938
183.18818
183.24249
192.10669
189.67816
199.68446
200.64313
214.26818
215.94674
223.42232
221.13523
204.74709
203.58641
202.47221
198.81293
211.38759
212.83291
219.35759
217.55357
223.09468
205.53
193.29844
191.50644
190.87419
188.71665
181.16386
181.26351
179.74627
186.05241
185.82898
179.49441
179.74604
185.71866
192.99068
189.91685
186.79244
183.66079
189.37184
189.46765
189.60076
183.66852
183.71193
189.78297
194.29395
187.16132
186.99262
193.94509
193.65201
186.8807
190.12499
190.39092
190.71505
199.14731
198.54894
203.45646
193.8296
194.35447
204.3994
217.22501
209.50691
202.81033
196.86001
197.28187
197.75008
206.5132
205.80782
213.99915
203.50191
204.22863
205.03572
216.21734
217.86148
231.48112
229.74936
218.06153
230.93008
246.04966
248.96513
269.47738
246.87068
228.9428
227.11008
212.87011
222.04418
240.87214
243.90847
268.47088
265.30983
244.85959
266.40827
296.12183
301.34306
347.59715
297.77819
261.78245
258.55447
232.88438
244.89883
280.56181
285.32555
339.68681
335.93416
294.55296
343.18009
421.33475
428.10625
546.70015
391.87412
309.33337
304.93693
256.70637
227.27989
208.18078
194.88812
185.1148
185.50435
195.87778
197.12742
186.26732
185.863
196.04114
195.11631
194.04131
184.36694
184.25782
184.92756
185.07062
185.08401
185.8971
186.29772
191.94912
192.88255
205.58756
226.20747
223.3864
213.63393
188.44345
189.17212
215.70211
263.73864
295.20243
342.76976
495.07062
506.87315
295.2322
261.71171
359.31633
360.39147
283.2667
232.76929
202.95175
183.39028
187.6841
177.4013
177.43802
183.07547
201.37153
190.53098
191.10189
210.55724
243.78676
239.74287
236.68755
277.49176
230.66381
209.37949
206.49514
214.73856
224.75623
236.10914
248.73407
260.38382
267.67277
267.18641
233.8254
229.70927
209.30862
211.40644
210.20669
231.13962
228.95436
225.24055
206.84919
208.77907
207.3651
194.3424
193.53653
192.57423
183.66427
182.65832
182.71416
190.39584
188.36206
188.00826
180.96694
181.14966
187.78401
189.56541
182.45677
182.30768
189.92329
199.47334
196.54242
193.38201
202.62774
198.03341
197.5936
193.42842
201.25882
196.01392
196.23432
196.52074
204.60803
205.17816
213.00603
212.09061
202.21856
201.70495
211.27881
204.13313
203.73832
210.58673
221.7114
212.77868
213.40982
214.14503
214.97296
215.90344
216.92319
229.40037
227.98582
241.95872
226.68437
228.18121
215.10012
225.45529
211.67212
210.56876
223.86804
236.26012
218.8196
220.40906
238.60001
262.22178
242.57812
240.38544
260.65879
263.53632
243.99073
263.27057
244.81509
246.95206
267.68026
291.49465
266.07512
269.18327
275.63306
280.20951
371.15203
358.23252
350.28821
450.08144
343.19883
351.23177
465.4892
729.41238
547.18589
556.26158
1168.4876
1027.2195
1441.4579
1619.243
736.82587
1176.1386
718.00965
523.77057
518.4401
779.58114
712.7096
1366.7635
952.31744
1076.8061
1530.0128
2187.9996
1935.8968
1098.6809
1981.9489
2247.5009
2478.0037
2132.4224
2119.908
1936.0594
1415.0495
998.91267
516.95089
302.37681
228.88144
193.82067
192.74122
188.76158
189.61738
216.6203
214.37804
225.75291
302.51067
263.13528
265.64752
362.31931
360.51973
530.97386
468.03071
342.68691
273.96841
237.46682
213.31928
198.20669
186.85007
186.3557
185.49595
185.979
196.7195
195.60413
196.97132
211.95149
209.51169
210.81003
232.38538
229.72237
234.46729
231.9833
229.36699
208.66961
194.97566
185.25619
184.50639
184.68358
194.62916
193.7893
191.8287
183.38201
183.47059
184.21655
184.57465
182.60941
182.3175
190.60026
193.37969
194.41261
191.36829
202.08357
206.81152
205.6672
201.22167
215.21627
222.74292
225.27107
217.04092
209.61518
197.31936
188.24848
180.55041
183.11907
183.49592
187.70033
177.35066
177.37813
190.30676
201.37286
203.05623
190.88371
209.88289
232.58893
242.87398
281.71053
275.63263
230.27509
208.70315
234.82293
237.79709
212.58687
194.17751
181.56658
171.78589
165.1684
159.69166
154.87624
149.22494
152.62636
155.86892
157.58853
155.51736
153.62079
153.77914
152.65974
150.68395
151.18899
153.35712
160.22541
157.82535
157.20835
158.386
160.30675
165.42774
162.40088
161.81716
166.64015
163.5789
167.10956
171.96905
181.12492
174.26877
173.66429
172.40388
161.8667
155.5457
172.36584
196.38433
181.9854
182.09916
193.37405
210.24887
193.42059
194.22225
181.57173
173.65657
174.27145
167.11039
166.64592
171.77558
171.96865
181.15184
181.53623
174.04682
164.32736
167.27584
169.17059
165.8454
160.51233
161.34966
159.50013
158.05797
158.6838
162.53075
163.25813
166.27136
166.69005
161.70614
162.55788
160.805
159.71225
159.99771
163.57371
164.36775
167.22551
172.08083
173.959
175.93417
177.70263
179.4926
180.98142
182.35027
183.28156
183.85697
183.89384
183.39129
182.49037
182.57709
181.26131
188.02379
188.36342
190.32038
189.85579
191.21614
183.42812
183.90522
191.9214
192.56837
191.81139
202.85538
200.37254
197.24619
196.46726
199.31449
212.19434
207.41328
208.90295
214.27404
218.93655
216.35868
201.56596
202.7467
204.18737
221.52694
218.67351
245.51059
240.119
231.19559
222.30239
224.94745
235.03616
268.90073
248.10529
243.60119
261.98969
285.04466
294.41636
245.11595
249.93368
256.51389
321.01064
302.57808
309.40283
314.99572
334.26138
338.73431
269.73533
267.84578
271.38378
261.25001
263.98349
318.12266
313.42659
337.64444
333.88262
328.98254
263.94207
254.10389
224.99952
206.49676
207.99945
227.41987
220.7347
204.36963
192.54961
189.93085
181.72918
181.69411
189.39348
199.16912
203.11373
218.71372
212.03681
213.63289
200.18025
195.83922
187.10018
179.91321
180.41555
178.11753
178.20377
184.89731
184.52492
187.61094
196.63212
192.21288
192.62904
202.54247
201.58098
208.04579
206.851
205.70327
195.13826
186.72393
179.98278
177.88355
177.78583
184.1905
183.95383
181.19057
175.9565
175.75836
176.02757
175.97927
173.58715
173.67565
178.54986
181.50618
181.82447
178.64684
184.19752
188.33766
188.04351
184.15689
190.63986
195.81813
196.65508
191.04117
198.6947
206.01478
214.30242
224.53482
236.45122
250.26606
247.61294
234.37202
260.74197
285.07383
290.2679
264.22887
300.93432
347.16769
407.72972
406.51409
472.81097
788.90644
765.89598
573.89736
578.27459
581.71526
402.53217
309.10323
257.83887
244.62819
241.50753
229.53074
231.96474
257.43327
281.00623
276.45984
303.94332
397.00646
472.06384
488.18704
426.85679
353.44367
300.91597
355.8895
360.79078
464.48252
358.06651
428.65365
487.04995
857.20141
646.77248
664.25749
463.03056
459.91068
347.36149
339.48935
289.49662
342.64969
288.83188
283.33731
254.73726
236.70978
223.9042
237.84706
224.77033
237.57624
224.37243
225.47441
226.68242
240.05462
225.27982
223.97085
238.25099
236.56816
222.79558
234.17972
219.51697
207.66315
208.54705
220.88117
222.34099
233.94335
231.64955
215.74094
214.33619
213.07887
206.91118
218.31007
227.41749
229.47085
249.19529
252.49154
236.18231
238.24828
257.8155
255.00994
279.44919
283.94798
255.81789
259.07962
288.2353
292.28844
338.391
290.43423
255.50569
230.66442
228.46857
252.30296
272.7902
239.42851
242.23054
276.90379
331.3674
325.94702
286.04645
332.97403
411.59094
417.30179
552.32198
386.73386
301.00403
253.63109
250.3736
296.40848
315.81897
258.18393
226.69467
224.3155
220.94011
215.74618
210.00268
197.98236
197.23371
208.67662
213.97245
200.42234
201.42154
204.25666
203.03512
191.97329
183.66431
184.25119
184.29083
184.29545
175.81014
166.82341
166.82412
167.60511
175.90548
183.19822
183.29412
190.91739
191.37997
192.19077
183.73997
183.80659
191.67307
202.15197
200.84942
198.66442
195.96093
206.3145
201.91369
201.28778
197.25213
193.2564
189.32915
185.4317
181.53615
175.22375
166.48156
160.73545
156.77652
156.74674
154.49182
158.30805
157.99508
158.30801
160.01586
159.30279
155.58494
156.77661
158.62538
162.49141
160.73831
161.25131
158.72053
160.57999
162.74723
162.16447
165.60408
164.7129
167.75011
162.94117
163.88636
168.36584
168.93308
166.03768
166.90639
163.63257
165.30212
164.36537
165.8911
162.3298
156.85082
160.50317
163.52223
161.84812
159.99947
161.91017
165.43559
163.60982
164.13317
165.13394
168.25387
167.30531
170.17522
165.76745
166.80949
170.86775
171.49203
168.75855
165.81922
163.75561
166.92784
169.70753
168.53517
167.40786
168.93218
165.41835
170.13546
174.11977
173.50141
168.3216
167.27601
166.82083
172.26049
169.58298
172.16988
170.93902
167.90825
162.49169
158.62528
160.57844
158.72044
161.24929
162.16026
163.88148
162.93965
167.74652
164.70913
165.60262
168.3598
168.92548
164.35941
162.74537
163.62993
165.29843
169.5729
166.90502
166.03662
170.19011
169.80433
169.06287
170.55065
170.93832
172.90564
172.51365
176.33736
173.75989
174.14842
176.55066
176.71086
172.97715
171.08828
171.47945
173.38375
176.94557
174.61773
174.23761
177.75604
176.08944
175.23435
177.33372
177.62587
180.75919
180.62703
185.46638
181.55711
181.91256
185.55645
185.63063
180.9016
181.06514
178.04137
182.24625
181.90928
186.25456
182.81923
176.09195
169.80559
169.06637
170.55097
170.94178
174.14678
173.75939
176.32802
172.50919
172.91135
176.55011
176.71694
174.23685
171.09377
171.48549
174.62052
176.955
173.39452
172.98803
174.75845
171.12621
165.43528
160.48019
164.51345
170.58664
173.06911
166.01306
166.97732
173.55669
174.04209
171.6651
175.21232
173.46988
171.59674
170.19723
176.12913
177.0153
178.5962
175.19729
175.08752
172.00961
173.89442
177.38774
177.13599
174.67384
178.10137
178.04539
177.76137
177.6199
177.32966
180.60252
180.75212
185.53699
181.90267
181.89053
182.23916
185.75599
181.07616
180.90319
185.62908
191.01998
186.25089
186.2756
182.31219
186.03892
186.29128
191.0264
191.03017
197.37009
191.52561
191.82872
197.29681
197.21375
191.04417
191.11129
185.76656
185.86217
181.22127
177.12501
173.4623
171.59097
171.99888
173.88974
177.38184
175.08294
174.67086
178.09848
176.12965
177.0137
170.93865
172.16693
172.57471
174.42318
173.99552
177.58467
175.19422
175.59366
177.85224
181.82502
178.90331
178.59958
178.42879
181.42793
186.04063
182.56952
182.16855
186.46976
182.93699
183.53648
186.82296
182.60435
182.97749
186.37386
186.19396
181.62273
184.47995
179.86923
175.70913
172.2543
166.81637
162.32775
156.84996
160.50225
159.30253
159.99904
161.84693
164.13189
163.60944
165.13421
166.80777
165.76457
170.17159
167.30329
168.25463
170.86475
168.89445
171.31618
172.12256
173.33745
173.13929
172.70565
174.53293
174.98564
178.34747
176.10897
175.67087
178.06471
182.01766
178.98866
177.06965
177.99509
179.53686
176.25392
176.68094
173.78379
175.5935
175.12803
178.5834
178.87721
182.71272
179.87261
183.82154
183.42477
183.3599
179.34523
182.25646
186.7332
186.52856
182.933
187.12322
183.71213
177.07076
171.31866
172.12322
177.99447
179.54008
176.25566
173.3419
173.14228
172.70832
172.58059
175.5956
177.85198
174.42887
174.00051
177.5931
181.61643
181.43375
178.43518
182.56381
182.16365
185.86658
181.23371
184.15251
179.45993
179.2925
175.13882
176.99642
176.60429
176.60688
174.69615
174.33468
178.77917
178.94695
181.27966
181.16351
176.23431
177.90944
178.23937
183.51808
183.45964
185.60905
179.5765
179.90268
185.61193
185.60401
183.577
181.38924
179.10096
183.88782
183.79086
183.70754
186.75907
186.77313
193.15442
189.33817
189.36972
189.44324
184.02764
186.89272
181.55701
183.70424
178.58518
178.22913
179.80957
180.18379
185.69326
192.29542
189.68267
189.6677
186.82804
193.1065
193.10606
196.71438
196.82697
197.00298
189.70225
189.7794
192.70379
192.4977
200.81765
200.45655
192.37491
194.82908
187.41678
181.09786
175.43068
168.03317
161.71582
163.60748
168.39773
167.35118
168.32945
174.61543
176.41518
169.36453
170.00937
169.03106
168.69887
167.74769
167.09316
175.0155
176.09444
176.46752
176.87711
175.87845
181.36825
180.13538
178.5987
177.0173
177.43718
175.60702
179.67744
181.89426
181.69914
186.99861
187.12614
184.32007
189.64453
186.04583
186.18743
182.60206
182.97404
178.90618
181.83207
186.37634
191.56966
187.13675
186.82458
186.78892
186.46787
186.52026
191.94931
191.60274
191.82329
191.50625
186.0246
190.96871
191.00659
197.2578
197.31584
204.55641
197.19229
197.26623
204.41872
204.64216
212.99698
212.60029
204.37472
204.21227
197.10219
191.6085
191.95143
186.53977
197.23958
204.17004
197.26494
204.15565
197.23343
191.11008
191.17305
191.30804
197.335
192.14628
191.74053
197.24665
204.11734
197.15798
191.73806
192.1455
186.80043
191.30512
191.18535
197.2368
197.33506
197.39697
191.42173
191.56933
187.14441
192.42322
192.02024
197.33031
192.01013
192.42253
197.53124
197.40694
191.42775
195.88386
189.77584
184.48598
179.87198
175.71527
176.11509
180.10927
182.28844
177.9257
177.49007
182.07184
187.26998
187.43031
184.67105
189.91702
193.41269
193.30685
193.21334
193.14483
189.54228
195.74023
195.71515
195.71385
195.75815
195.85651
203.42547
203.20598
209.54079
200.66964
200.93164
210.01734
220.82188
212.26322
211.85649
221.94319
222.61236
223.42076
235.05346
249.72685
232.39541
246.08568
270.45161
274.93014
252.31376
274.32575
253.28928
255.63768
239.24117
240.98259
242.85354
262.11616
264.87769
287.94778
284.44475
260.66124
285.18927
288.83792
292.53864
295.91395
329.30576
296.46383
332.48611
327.45616
297.41819
344.63757
384.9439
393.0551
441.00963
372.04305
366.65713
324.24858
375.77276
333.33877
338.70209
383.77096
435.62055
427.25069
502.92809
432.39977
425.02836
379.1841
339.95354
293.58321
289.781
334.9338
373.02231
318.08595
322.81601
360.7227
319.643
315.05599
364.14838
323.6982
328.64495
370.17017
420.04427
412.5164
354.7915
417.33119
484.62653
494.2034
631.03377
544.69623
485.6898
425.21912
429.64535
598.89485
718.52859
491.63235
496.33461
721.96794
1172.552
1239.749
962.8102
1482.7404
2142.7455
1915.4143
2205.8674
1306.2705
814.07157
559.32236
553.11722
808.39213
924.56704
641.12843
651.79938
515.43624
643.87252
544.82868
475.48461
408.2824
404.52596
470.22011
669.44378
542.3311
544.12682
674.51992
780.35905
774.52724
538.74405
633.33474
900.27309
910.61238
1375.0881
1246.9944
1085.4888
804.368
836.33827
549.84021
390.60146
442.13592
323.97542
264.79812
261.65253
320.37256
441.31223
438.70834
381.66379
552.71098
757.11
736.93766
715.22713
699.88115
439.33837
328.81654
329.91282
325.24525
265.33408
231.3935
210.33523
196.10704
197.20716
196.03193
185.58543
185.19522
195.04143
194.17119
195.1847
194.3908
184.96452
184.32271
184.45389
183.32939
174.55527
165.97816
166.76609
165.25702
163.98102
157.78881
159.46018
160.82692
167.60667
175.91424
174.75761
166.90124
166.11201
174.57264
172.39482
164.94616
164.77395
172.2363
169.3832
163.04628
162.26426
160.52156
155.87103
152.62608
157.58958
161.71062
163.35569
164.17079
165.78502
172.71697
170.12956
169.70556
166.70667
166.29695
161.36423
159.50544
158.06558
158.69201
158.39785
160.32284
154.88262
153.35785
160.25488
159.70741
165.20244
165.45944
162.42875
157.23262
157.84453
161.85372
166.72479
171.88178
172.59651
181.83143
181.35124
172.05311
167.17858
163.6671
173.87874
174.45032
182.51766
193.96268
194.86784
197.58085
214.33063
211.75135
194.44859
195.46064
182.51326
174.01702
172.93437
161.99585
155.57495
150.68835
151.19397
152.66259
153.77967
153.62115
155.51747
159.71598
160.00074
160.80873
162.56452
167.23827
164.37516
163.58782
163.2783
162.55079
165.87619
171.45935
173.63938
176.01549
178.20944
180.50696
182.49152
184.33053
184.03717
193.06952
194.01381
191.17931
190.48664
182.24345
181.67733
181.66812
183.28431
191.67628
193.44362
205.82031
207.48604
208.90796
229.2164
226.94159
223.73901
225.87238
207.16125
208.50293
209.61717
211.54298
234.09447
230.32696
227.92538
221.93033
205.16857
206.18096
224.25252
216.71038
201.83804
201.06084
215.03197
213.54913
220.14724
203.99663
192.32929
189.87072
189.37715
199.16937
202.86349
218.31501
212.09409
210.64548
216.46894
221.5662
224.57957
206.08269
205.98471
204.62572
192.88153
192.90056
184.27451
183.71623
183.73221
192.69095
193.60712
192.07613
191.4599
192.23353
183.75351
183.81983
191.70381
190.99273
183.33387
183.25425
182.35574
182.79015
182.7341