/*--------------------------------*- C++ -*----------------------------------*\
  =========                 |
  \\      /  F ield         | OpenFOAM: The Open Source CFD Toolbox
   \\    /   O peration     | Website:  https://openfoam.org
    \\  /    A nd           | Version:  7
     \\/     M anipulation  |
\*---------------------------------------------------------------------------*/
FoamFile
{
    version     2.0;
    format      ascii;
    class       volScalarField;
    location    "330";
    object      p;
}
// * * * * * * * * * * * * * * * * * * * * * * * * * * * * * * * * * * * * * //

dimensions      [1 -1 -2 0 0 0 0];

internalField   nonuniform List<scalar> 
25278
(
101315.65
101314.93
101316.16
101316.05
101319.31
101314.54
101314.7
101315.57
101315.01
101310.71
101312.3
101313.81
101314.64
101316.47
101324.28
101316.11
101314.96
101321.95
101325.49
101319.25
101314.6
101314.94
101315.16
101312.48
101309.02
101312.28
101314.98
101313.5
101318.68
101312.38
101310.44
101316.13
101311.31
101314.37
101308.51
101314.65
101310.3
101306.92
101310.79
101305.29
101308.47
101303.8
101304.12
101297.86
101302.34
101305.17
101310.77
101308.5
101303.86
101310.45
101310.17
101319.12
101314.44
101312.88
101314.54
101308.07
101306.19
101312.18
101304.14
101308.34
101302.91
101302.36
101302.28
101307.43
101316.47
101315.32
101306.73
101302.12
101306.47
101308.6
101322.53
101312.35
101315.88
101310.28
101316.21
101307.79
101308.48
101312.28
101314.68
101319.14
101322.61
101324.11
101321.81
101325.6
101318.9
101323.14
101326.97
101331.2
101330.44
101329.51
101323.91
101324.06
101330.61
101333.9
101334.98
101324.05
101330.08
101328.59
101321.58
101322.37
101330.1
101339.38
101335.99
101322.34
101321.33
101330.02
101323.49
101332.56
101331.43
101339.3
101335.01
101326.59
101345.59
101359.45
101338.06
101334.65
101363.39
101328.8
101337.62
101336.87
101324.59
101318.48
101319.03
101330.08
101333.58
101329.95
101338.83
101334.84
101326.39
101322.9
101322.41
101318.72
101321.09
101323.67
101330.07
101330.68
101322.29
101326.05
101344.81
101330.97
101336.27
101358.42
101362.23
101327.49
101320.06
101329.2
101328.99
101322.67
101334.52
101322.69
101323.6
101329.65
101323.29
101328.5
101320.88
101320.77
101320.5
101334.97
101333.4
101309.05
101334.67
101342.41
101311.72
101334.7
101321.46
101330.38
101337.95
101328.42
101360.22
101358.1
101338.36
101327.59
101343.6
101342.17
101430.51
101385.8
101343.71
101338.23
101388.15
101442.14
101340.1
101341.02
101323.94
101335.81
101338.77
101329.48
101320.96
101319.58
101331.58
101366.65
101361.28
101337.84
101324.95
101329.25
101328.65
101326.02
101348.65
101312.77
101458.8
101421.83
101310.4
101344.37
101325.37
101317.17
101319.24
101318.31
101314.33
101318.56
101315.69
101309.81
101314.58
101311.21
101308.37
101303.67
101310.3
101306.39
101310.32
101305.24
101303.97
101297.51
101298.18
101302.29
101307.82
101310.4
101307.23
101301.59
101298.43
101303.83
101304.38
101305.22
101303.88
101296.8
101293.85
101299.95
101301.69
101302.82
101303.25
101307.66
101314.08
101318.9
101310.07
101314.31
101312.78
101308.33
101302.83
101307.96
101305.41
101311.38
101304.11
101302.25
101301.97
101307.16
101309.24
101318.37
101314.29
101315.94
101308.46
101306.07
101314.2
101305.71
101301.68
101292.41
101293.36
101294.14
101295.96
101290.65
101299.76
101296.68
101300.14
101301.73
101301.41
101299.21
101301.59
101293.81
101294.94
101297.11
101300.54
101296.42
101292.42
101291.06
101291.11
101286.69
101295.13
101292.16
101290.29
101283.55
101287.13
101282.47
101281.33
101286.89
101288.8
101293.55
101301.75
101307.45
101308.02
101302.44
101305.31
101303.98
101300.69
101294.26
101297.1
101298.45
101299.69
101298.5
101295.12
101295.14
101302.11
101303.97
101302
101306.51
101299.65
101307.21
101299.7
101300.01
101297.84
101301.65
101299.73
101306.55
101316.08
101319.21
101307.25
101300.15
101310.33
101302.07
101300.28
101298.13
101311.62
101318.41
101324.53
101311.17
101295.76
101295.66
101288.81
101281.9
101297.23
101285.93
101298.57
101292.26
101290.88
101291.5
101294.22
101295.2
101290.01
101291.33
101288.05
101295.08
101291.43
101286.15
101288.73
101285.6
101285.96
101295.97
101289.17
101288.16
101285.54
101283.81
101279.02
101286.65
101276.8
101277.3
101283.84
101284.87
101282.04
101286.6
101280.53
101289.04
101291.65
101291.46
101299.63
101295.05
101286.19
101289.14
101285.7
101295.37
101302.28
101304.05
101292.37
101290.96
101291.59
101293.83
101294.88
101290.24
101291.71
101298.77
101295.43
101284.12
101286.2
101282.68
101285.29
101288.37
101282.53
101285.59
101287.73
101288.55
101296.1
101285.91
101283.79
101279.23
101286.96
101277
101277.62
101276.99
101273.84
101268.52
101269.09
101278.53
101283.77
101290.95
101282.73
101291.61
101283.88
101279.75
101279.84
101279.25
101285.88
101278.86
101286.21
101289.2
101284.92
101277.94
101277.61
101278.76
101272.17
101278.8
101274.9
101281.05
101279.4
101274.63
101273.18
101266.73
101273.91
101266.54
101275.73
101265.93
101264.69
101271.22
101266.55
101273.68
101277.61
101285.7
101275.62
101276.93
101281.15
101290.69
101291.06
101297.72
101301.46
101301.58
101315.58
101317.22
101307.91
101299.42
101298.91
101300.52
101312.44
101298.38
101318.72
101325.93
101320.89
101315.67
101293.73
101297.49
101297.14
101292.03
101290.46
101328.74
101349.9
101311.19
101321.85
101326.49
101320.07
101301
101301.32
101300.83
101300.77
101305.07
101343.42
101348.46
101293.09
101288.46
101299.46
101302.3
101301.87
101296.46
101291.06
101295.06
101284.86
101289.91
101286.14
101291
101287.29
101297.45
101289.42
101276.41
101282.1
101274.92
101277.45
101281.1
101273.17
101281.91
101280.5
101281.48
101277.62
101267.17
101273.45
101276.57
101282.27
101280.44
101283.83
101290.77
101291
101300.07
101303.01
101301.09
101297.74
101288.52
101294.52
101296.21
101301.38
101301.31
101300.09
101297.69
101298.73
101307.52
101296.9
101310.33
101299.31
101300.86
101300.51
101320.19
101303.19
101298.59
101296.35
101299.24
101295.05
101296.38
101326.15
101320.29
101317.12
101286.97
101315.68
101292.27
101288.68
101294.05
101326.8
101351.02
101340.39
101285.67
101278.84
101295.3
101268.22
101294.29
101276
101293.59
101285.79
101301.07
101293.41
101301.59
101302.82
101300.97
101302.51
101304.72
101298.64
101300.82
101298.16
101295.82
101291.71
101292.87
101296.95
101291.97
101287.8
101295.94
101294.28
101291.62
101293.86
101284.09
101284.49
101287.8
101282.26
101281.99
101286.76
101289.06
101291.23
101282.72
101291.57
101286.82
101279.55
101284.15
101279.86
101280.01
101274.58
101279.08
101278.59
101283.85
101274.75
101278.3
101285.51
101289.38
101287.56
101279.86
101278.15
101279.53
101272.8
101278.85
101276
101266.56
101273.89
101280.85
101273.27
101266.62
101268.29
101268.89
101268.51
101272.7
101271.97
101261.25
101269.43
101258.27
101261.17
101252.53
101255.78
101265.11
101267.88
101276.09
101276.93
101274.23
101278.76
101270.75
101277.39
101271.1
101279.42
101264.17
101267.89
101252.25
101259.99
101265.34
101272.62
101269.42
101273.86
101281.32
101285.95
101289.23
101297.43
101291.41
101294.55
101287.04
101292.8
101293.38
101289.79
101283.78
101288.38
101281.14
101284.91
101284.95
101290.49
101280.93
101278.37
101275.56
101286.74
101288.05
101294.78
101300.61
101294.55
101289.55
101285.82
101286.2
101289.78
101283.76
101288.08
101291.86
101281.4
101280.24
101276.34
101276.57
101280.22
101277.5
101286.45
101290.48
101276.7
101274.07
101284.6
101268.02
101281.56
101271.51
101269.92
101255.09
101264.39
101269.75
101276.95
101272.1
101275.77
101268.89
101264.69
101259.87
101268.61
101275.06
101279.52
101277.26
101283.04
101281.42
101273.42
101265.64
101272.29
101263.56
101266.98
101260.64
101269.6
101288.71
101281.94
101271.93
101279.54
101293.73
101288.19
101301.74
101293.96
101302.21
101297.68
101296.78
101285.57
101286.51
101281.65
101290.89
101292.37
101291.55
101289.93
101280.18
101279.19
101280.86
101267.3
101268.1
101272.23
101273.66
101277.74
101285.76
101281.72
101277.07
101273.86
101276.86
101275.77
101272.37
101270.68
101274.14
101275.41
101284.24
101282.48
101271.86
101267.67
101279.66
101277.31
101264.19
101263.24
101266.65
101268.51
101281.18
101277.96
101273.08
101276.9
101265.38
101267.86
101270.61
101262.68
101266.76
101270.88
101268.94
101264.25
101254.59
101260.67
101263.26
101258.13
101252.48
101247.9
101259.39
101254.9
101258.88
101247.78
101256.43
101251.39
101262.33
101270.98
101283.39
101286.25
101292.71
101289.29
101297.61
101283.65
101284.47
101284.28
101276.17
101274.93
101283.01
101279.58
101269.83
101268.28
101280.77
101284.9
101291.03
101289.92
101299.89
101284.46
101283.66
101283.53
101274.21
101273.9
101283.89
101279.5
101268
101257.99
101258.37
101260.76
101269.55
101271.03
101278.36
101278.25
101290.99
101271.74
101274.15
101273.35
101261.22
101259.62
101250.04
101246.07
101257.77
101268.58
101276.97
101277.09
101292.87
101273.47
101272.52
101272.07
101262.08
101265.3
101264.54
101268.61
101282.09
101259.56
101275.91
101263.86
101263.75
101245.17
101256.77
101245.04
101249.38
101256.01
101261.59
101252.72
101260.03
101251.6
101261.52
101265.49
101277.97
101267.73
101260.6
101265.9
101268.29
101269.45
101260.44
101252.06
101243.15
101232.54
101243.18
101253.71
101256.26
101268.95
101269.7
101260.12
101249.67
101258.58
101261.59
101253
101243.6
101238.48
101250.37
101259.68
101249.25
101246.53
101256.22
101264.88
101271.59
101266.74
101268.08
101263.37
101262.11
101252.34
101258.61
101260.08
101266.37
101257.6
101267.25
101262.19
101251.01
101246
101251.46
101261.51
101267.31
101262.57
101248.52
101257.29
101256.18
101246.65
101235.47
101237.29
101249.05
101237.38
101248.6
101238.63
101250.13
101248.51
101250.97
101254.88
101248.16
101243.06
101229.43
101239.52
101244.42
101236.06
101246.15
101237.36
101250
101240.95
101247.81
101255.05
101261.15
101265.24
101284.69
101275.81
101261.88
101257.64
101260.36
101274.4
101255.55
101266.46
101282.5
101254.63
101253.56
101271.02
101241.59
101247.62
101248.25
101227.84
101237
101245.83
101232.13
101242.84
101234.45
101222.09
101206.37
101222.44
101216.44
101232.43
101218.33
101234.22
101240.31
101233.83
101225.97
101242.09
101238.74
101252.11
101256.98
101258.14
101253.13
101239.28
101246.4
101253.49
101241.81
101240.39
101225.84
101236.64
101222.79
101235.33
101238.11
101225.76
101221.88
101223.8
101208.44
101225.31
101211.14
101227.34
101214.66
101232.54
101230.91
101245.36
101221.72
101222.63
101200.96
101201.31
101212.97
101216.92
101225.44
101207.18
101222.13
101232.95
101226.08
101213.1
101194.32
101210.55
101219.56
101206.22
101186.16
101170.67
101195.47
101183.04
101207.47
101187.09
101212.86
101234.3
101249.8
101261.75
101276.93
101274.28
101270.85
101273.52
101259.68
101263.18
101264.85
101254.7
101252.41
101246.76
101231.11
101239.16
101241.37
101223.71
101237.13
101253.23
101251.64
101235.78
101220.22
101220.58
101239.26
101257.88
101273.92
101293.39
101287.96
101258.7
101259.42
101237.51
101231.35
101248.3
101228.52
101228.31
101245.98
101257.47
101268.23
101268.8
101274.29
101283.89
101285.87
101296.84
101302.99
101308.6
101314.72
101321.96
101325.76
101329.05
101328.35
101330.96
101329.34
101339.64
101330.91
101320.39
101331.09
101365.01
101361.13
101335.05
101340.07
101336.94
101323.32
101321.4
101321.98
101321.54
101321.05
101337.05
101308.78
101350.45
101348.49
101324.55
101335.88
101388.29
101437.32
101331.19
101365.01
101360.2
101339.95
101329.41
101325.77
101335.67
101329.32
101334.76
101323.74
101333.2
101390.69
101446.55
101327.88
101310.91
101332.11
101336.27
101359.58
101363.84
101331.03
101319.93
101324.18
101336.99
101327.33
101323.05
101340.27
101301.63
101479.46
101448.59
101327.49
101351.46
101328.39
101315.58
101319.47
101310.31
101310.57
101319.27
101312.66
101312.24
101316.71
101315.58
101306.86
101307.61
101302.61
101302.6
101306.93
101308.75
101304.36
101302.73
101306.38
101308.23
101314.66
101308.54
101303.27
101296.85
101303.35
101304.14
101302.7
101301.11
101290.03
101291.66
101292.63
101291.27
101297.92
101302.47
101301.65
101293.67
101294.4
101287.1
101282.34
101280.51
101279.49
101281.5
101284.82
101294.19
101292.08
101298.04
101301.41
101295.12
101289.27
101291.76
101300.36
101294.76
101296.23
101288.45
101288.59
101285.31
101274.27
101275.18
101271.62
101272.21
101270.68
101270.56
101271.64
101273.6
101272.48
101256.5
101257.07
101261.1
101260.64
101248.32
101249.03
101242.25
101241.3
101222.39
101223.12
101233.42
101232.94
101208.78
101210.02
101221.24
101208.78
101186.4
101201.61
101202.16
101171.38
101198.35
101176.66
101199.8
101221.28
101235.59
101226.56
101245.65
101290.86
101277.94
101247.13
101237.05
101236.23
101263.8
101231.67
101252.78
101224.72
101239.41
101254.33
101254.64
101262.5
101292.27
101261.26
101284.71
101237.98
101221.3
101226.64
101280.34
101330.98
101270.59
101306.55
101266.52
101284.84
101271.97
101284.92
101274.43
101285.26
101282.25
101272.63
101277.83
101282.12
101286.61
101289.56
101293.16
101287.64
101294.24
101291.1
101288.73
101281.48
101284.13
101281.01
101276.31
101269.64
101274.65
101270.89
101277.69
101284.56
101290.53
101293.69
101287.18
101279
101281.23
101278.2
101282.72
101286.83
101295.25
101300.68
101290.53
101284.75
101294.09
101289.24
101286.45
101277.88
101280.14
101288.47
101284.55
101284.36
101278.6
101272.8
101265.74
101261.57
101269.85
101276.09
101287.09
101288.03
101285.75
101297.13
101295.38
101300.23
101300.44
101301.1
101307.22
101314.14
101315.63
101315.28
101314.46
101315.84
101314.22
101313.99
101313.73
101318.14
101309.05
101314.44
101312.89
101305.87
101300.85
101305.84
101305.99
101314.86
101306.6
101300.42
101300.1
101304.56
101309.06
101317.99
101311.03
101310.93
101302.29
101305.88
101313.13
101306.5
101300.33
101293.08
101291.78
101291.7
101291.79
101283.6
101284.36
101278.24
101280.33
101290.01
101290.95
101278.65
101282.53
101272.02
101272.44
101280.61
101276.44
101273.9
101272.15
101270.05
101270.77
101274.59
101283.7
101280.66
101278.79
101266.44
101266.04
101268.47
101281.11
101278.29
101270.92
101268.12
101272.38
101280.79
101282.62
101286.87
101293.45
101301.83
101289.26
101285.15
101285.22
101288.88
101296.69
101284.55
101292.03
101294.44
101289.27
101292.45
101283.57
101274.62
101278.18
101281.67
101273.68
101276.25
101268.69
101265.61
101258.39
101267.07
101273.93
101271.84
101284.01
101278.84
101282.41
101275.63
101277.09
101273.04
101280.42
101275.95
101282.17
101274.91
101276.78
101280.25
101271.55
101262.97
101264.59
101254.44
101264.11
101262.48
101252.79
101249.64
101261.18
101268.92
101270.46
101263.49
101265.44
101274.83
101276.97
101275.58
101265.27
101262.44
101266.56
101274.9
101262.65
101252.06
101257.24
101262.5
101267.45
101259.57
101258.57
101261.03
101269.1
101271.28
101263.87
101259.03
101267.29
101264.47
101255.18
101252.35
101261.84
101256.93
101260.04
101263.74
101254.03
101249.01
101243.51
101255.79
101260.16
101249.61
101238.13
101243.27
101249.81
101255.89
101262.7
101270.46
101262.23
101253.85
101247.89
101257.71
101266.03
101275.61
101271.49
101270.05
101278.02
101263.78
101266.41
101261.16
101259.21
101257.38
101268.48
101284.28
101278.04
101266.62
101272.19
101271.67
101267
101263.81
101275.61
101258.07
101258.29
101251.64
101251.92
101246.65
101268.61
101293.75
101277.96
101262.95
101269.1
101270.2
101264.87
101264.71
101284.29
101255.19
101252.97
101243.72
101245.53
101240.42
101260.9
101298.95
101274.23
101261.07
101267.95
101274.96
101279.22
101284.17
101291.7
101301.06
101286.83
101284.81
101298.47
101289.07
101284.16
101274.19
101274.92
101285.4
101281.28
101278.26
101282.81
101283.64
101289.86
101299.43
101299.76
101319.71
101323.2
101304.57
101298.52
101297.36
101298.99
101320.16
101307.48
101346.53
101342.39
101341.4
101289.97
101279.46
101297.43
101296.96
101291.45
101321.17
101283.59
101316.6
101294.82
101311.21
101315.58
101313.75
101298.49
101297.71
101295.1
101295.51
101304.04
101323.59
101319.41
101310.43
101287.99
101285.63
101292.12
101292.61
101281.45
101285.06
101280.93
101290.59
101288.32
101294.12
101294.69
101295.66
101276.35
101279.22
101294.28
101293.67
101279.17
101275.53
101260.65
101261.18
101270.98
101270.33
101260.48
101268.23
101260.46
101261.44
101272.02
101270
101271.97
101259.54
101261.89
101258.59
101267.01
101274.13
101258.44
101255.2
101269.99
101262.09
101255.73
101243.56
101247.27
101252.13
101239.1
101245.57
101245.6
101252.82
101241.59
101249.87
101248.8
101251.73
101240.36
101245.49
101237.77
101230.88
101244.43
101241.05
101226.52
101237.02
101238.51
101227.18
101211.52
101225.36
101223.44
101227.22
101234.25
101244.12
101256.2
101246.46
101232.85
101223.76
101236.78
101250
101256.85
101252.9
101263.22
101252.28
101240.47
101235.86
101248.68
101260.09
101248.73
101240.76
101244.9
101227.12
101210.36
101231.35
101238.68
101230.57
101239.07
101253.4
101249.36
101247.16
101250.38
101274.06
101290.91
101352.13
101280.07
101328.69
101287.23
101280.53
101288.03
101332.03
101267.43
101369.21
101437.76
101300.95
101299.53
101374.39
101246.29
101277.58
101281.71
101385.22
101298.25
101303.13
101432.9
101311.17
101364.01
101253.16
101386
101311.96
101287.86
101445.33
101506.27
101660.58
101469.93
101430.69
101446.78
101196.6
101224.38
101510.59
101262.8
101387.79
101294.53
101344.3
101305.09
101321.21
101301.43
101301.3
101322.68
101309.88
101299.75
101300.64
101301.06
101299.52
101350.08
101323.46
101293.34
101289.79
101289.05
101263.26
101293.59
101274.1
101293.35
101284.74
101299.88
101289.95
101291.42
101301.46
101286.19
101283.86
101284.12
101277.73
101277.47
101293.95
101276.61
101272.7
101273.62
101258.5
101247.34
101258.76
101268.49
101279.54
101281.23
101285.32
101274.67
101268.8
101270.87
101280.15
101283.46
101289.7
101297.68
101302.18
101293.23
101284.95
101285.15
101284.12
101288.91
101294.23
101291.1
101279.17
101279.27
101274.42
101275.36
101272.5
101280.49
101273.35
101288.72
101284.68
101295.12
101300.57
101312.35
101316.61
101315.92
101301.72
101299.09
101298.24
101297.31
101307.48
101325.61
101317.15
101318.03
101287.82
101289.85
101295.7
101296.7
101292.48
101314.45
101296.09
101311.76
101300.33
101310.76
101305.72
101311.17
101310.66
101315.01
101310.8
101305.5
101304.92
101307.44
101308.95
101308.16
101312.43
101313.51
101318.73
101316.36
101311.61
101314.75
101308.58
101310.36
101307.22
101304.5
101304.19
101308.75
101316.4
101307.92
101306.74
101302.53
101300.5
101300.01
101307.41
101319.76
101318.24
101314.31
101318.92
101325.11
101318.53
101301.89
101298.42
101296.21
101298.44
101311.33
101299.93
101307.63
101300.06
101306.57
101316.14
101310.08
101302.03
101300.38
101287
101292.12
101298.83
101300.17
101304.27
101298.51
101302.81
101301.05
101304.11
101302.64
101305.56
101299.03
101297.55
101294.94
101292.38
101296.33
101298.46
101300.92
101301.73
101298.95
101293.41
101297.14
101292.49
101280.99
101278.77
101274.97
101273.4
101269.43
101268.39
101265.07
101264.42
101263.11
101262.85
101263.76
101264.07
101273.06
101275.38
101260.3
101259.43
101256.98
101257.57
101255.1
101272.18
101271.45
101254.49
101253.83
101254.33
101238.51
101243.16
101246.78
101247.88
101243.66
101226.02
101231.71
101230.82
101226.64
101218.39
101220.05
101239.78
101239.13
101237.92
101219.21
101221.52
101191.55
101186.79
101201.73
101210.95
101208.48
101202.45
101180.2
101181.37
101184.57
101176.43
101155.15
101141.86
101181.98
101191.36
101188.56
101151.48
101154.76
101182.46
101207.98
101208.58
101230.47
101247.77
101249.71
101264.44
101263.08
101294.97
101269.21
101255.78
101257.96
101233.95
101212.86
101230.77
101230.49
101247.31
101259.12
101269.16
101258.65
101261.21
101270.58
101275.77
101277.08
101286.88
101284.05
101272
101263.63
101262.16
101252.22
101253.29
101262.7
101272.04
101273.48
101278.33
101283.93
101290.3
101295.3
101301.06
101290.52
101287
101286.61
101281.26
101282.36
101292.48
101282.82
101277.66
101277.49
101265.21
101258.49
101267.11
101274.6
101282.34
101287.4
101288.77
101280.54
101276.66
101279.44
101285.95
101286.01
101292.29
101295.43
101301.82
101297.86
101290
101289.14
101288.05
101293.43
101293.97
101290.55
101284.69
101286.76
101282.24
101281.16
101278.8
101287.11
101290.99
101285.52
101289.36
101283.1
101293.99
101288.26
101267.09
101266.04
101259.78
101261.95
101260.3
101275.15
101291.82
101279.48
101297.17
101241.92
101244.49
101231.25
101233.63
101254.15
101227.8
101189.7
101218.45
101233.57
101249.63
101253.81
101238.77
101239.58
101255.04
101242.02
101240.9
101224.96
101211.53
101183.54
101183.68
101174.25
101176.57
101198.18
101197.9
101172.12
101206.66
101203.96
101224.8
101214.34
101210.34
101178.59
101184.66
101136.69
101173.84
101139.84
101172.38
101149.28
101146.68
101098.6
101157.13
101144.14
101173.69
101190.5
101208.61
101187.58
101205.93
101186.28
101206.28
101211.19
101220.27
101208.03
101224.66
101215.56
101196.16
101188.59
101210.19
101193.87
101214.12
101232.33
101236.43
101219.65
101228.6
101221.81
101210.74
101229.86
101224.33
101223.3
101232.46
101214.16
101200.44
101202.77
101180.25
101190.82
101200.81
101212.5
101190.72
101175.24
101162
101180.59
101205.01
101222.13
101203.67
101225.69
101215.54
101235.49
101245.04
101258.24
101243.27
101227.11
101225.57
101242.19
101257.16
101243.39
101234.53
101209.45
101209.57
101182.74
101180.93
101213.04
101200.13
101228.32
101239.64
101255.51
101237.82
101217.12
101217.29
101238.25
101249.08
101236.03
101237.28
101241.75
101244.45
101256.92
101251.57
101236.93
101233.23
101248.58
101254.59
101252.11
101245.22
101256.94
101273.39
101270.38
101269.2
101269.95
101277.38
101288.12
101288.06
101289.17
101276.1
101262.95
101270.09
101251.89
101252.73
101251.36
101260.03
101267.35
101250.2
101235.56
101237.81
101242.19
101246.71
101230.28
101238.36
101240.85
101248.12
101255.04
101261.18
101267.07
101268.99
101280.79
101295.32
101301.48
101305.55
101310.01
101312.09
101313.83
101314.64
101313.94
101312.94
101313.03
101310.26
101305.16
101309.59
101307.88
101301.18
101295.7
101303.13
101308.71
101300.24
101301.41
101301.57
101293.78
101292.54
101293.7
101299.83
101296.68
101301.4
101302.05
101309.07
101306.05
101306.3
101299.88
101297.41
101307.18
101307.9
101312.33
101310.05
101310.91
101310.44
101312.95
101314.09
101311.27
101306.85
101310.17
101314.14
101310.87
101310.57
101307.99
101311.49
101313.73
101316.03
101316.09
101312.12
101313.82
101312.92
101316.23
101314.24
101313.62
101312.86
101313.51
101313.59
101316.65
101314.09
101310.31
101306.43
101304.32
101305.45
101306.46
101296.24
101304.89
101303.47
101308.14
101309.85
101309.53
101304.21
101296.27
101301.9
101301.13
101295
101293.71
101294.61
101302.26
101297.97
101302.73
101301.31
101301.02
101306.56
101307.42
101307.65
101309.67
101303
101297.88
101296.04
101288.65
101280.64
101290.03
101291.09
101280.94
101279.94
101280.13
101290.02
101283.66
101286.26
101286.76
101284.41
101293.16
101296.72
101290.96
101296.45
101286.66
101279.55
101293.86
101281.11
101273.68
101281.29
101277.75
101273.61
101267.9
101269.51
101282.68
101272.84
101277.28
101281.14
101286.61
101287.44
101292.18
101279.13
101269.6
101283.83
101293.59
101295.58
101288.01
101280.22
101289.61
101289.18
101279.27
101278.87
101279.44
101289.4
101282.42
101284.79
101285.48
101283.66
101292.5
101295.44
101289.37
101294.89
101284.92
101280.56
101293.47
101297.23
101300.56
101291.13
101288.59
101284.68
101287.98
101295.65
101290.2
101297.37
101299.35
101287.5
101292.19
101288.61
101297.02
101296.34
101307.36
101296.12
101302.1
101302.33
101296.99
101301.13
101297.6
101292.55
101293.29
101286.33
101286.88
101278.75
101280.98
101273.31
101272.63
101276.54
101271.76
101282.14
101278.21
101291.44
101282.3
101285
101279.66
101275.89
101270.14
101268.97
101271.36
101274.05
101261.42
101271.5
101265.66
101260.06
101251.7
101255.77
101271.92
101259.08
101266.17
101271.47
101279.05
101283.85
101289.28
101290.91
101294.25
101294.21
101289.76
101297.75
101302.86
101299.23
101303.3
101294.77
101287.55
101296.84
101307.67
101305.32
101297.44
101302.9
101308.61
101302.66
101302.86
101303.52
101309.52
101307.02
101306.05
101302.98
101297.43
101295.04
101296.69
101296.01
101301.73
101291.04
101281.9
101292.47
101303.16
101295.34
101303.05
101310.22
101306.95
101301.41
101301.21
101300.4
101302.04
101298.29
101307.21
101305.68
101308.35
101309.02
101312.92
101313.3
101310.78
101311.65
101307.63
101311.56
101310.59
101312.23
101309.15
101311.6
101311.67
101314.51
101314.49
101310.25
101308.64
101312.35
101310.15
101307.29
101304.36
101309.75
101312.82
101312.91
101313.96
101310.84
101310
101309.71
101306.14
101312.19
101316.2
101312.6
101316.1
101316.92
101310.85
101315.6
101315.02
101315.17
101316.85
101317.52
101313.78
101319.46
101319.26
101315.89
101309.17
101313.04
101314.83
101311.17
101312.93
101306.96
101310.57
101311.75
101307.91
101312.11
101316.01
101311.61
101315.14
101309.21
101306.6
101303.17
101302.13
101308.66
101305.59
101307.17
101300.8
101301.25
101299.56
101295.02
101294.41
101301
101289.79
101287.61
101289.17
101286.47
101290.22
101286.32
101289.77
101291.35
101279.21
101284.54
101285.19
101276.39
101275
101278.58
101275.18
101271.5
101272.95
101270.48
101280.75
101271.1
101267.32
101263.52
101266.3
101279.14
101267.59
101271.82
101274.95
101278.49
101281.34
101275.58
101272.26
101267.98
101263.58
101268.07
101260.34
101266.28
101271.12
101278.33
101281.68
101278.87
101283.87
101280.73
101286.52
101275.31
101273.18
101287.23
101278.15
101271.84
101275.21
101267.97
101272.24
101266.32
101274.12
101269.5
101260.87
101253.92
101263.21
101258.44
101253.31
101258.5
101247.22
101255.1
101263.88
101259.23
101268.21
101270.13
101287.17
101293.62
101298.32
101306.49
101294.12
101295.96
101304.43
101304.51
101303.84
101302.89
101302.88
101293.14
101292.52
101284.19
101286.15
101280.96
101278.28
101284.91
101294.22
101295.64
101280.4
101284.1
101283.95
101288.36
101299.18
101296
101295.72
101294.53
101288.53
101284.75
101292.05
101293.11
101292.41
101294.38
101299.82
101301.8
101309.59
101302.36
101304.6
101305.54
101305.34
101302.08
101294.25
101291.29
101280.92
101280.5
101285.62
101269.52
101272.14
101256.01
101261.25
101259.33
101264.65
101258.37
101251.25
101242.13
101249.81
101258.65
101251.23
101242.53
101230.48
101240.87
101250.57
101259.8
101263.55
101269.6
101285.64
101280.83
101275.66
101271.44
101274.27
101270.49
101274.45
101277.54
101284.41
101292.15
101292.06
101298.96
101286.05
101282.74
101280.92
101281.08
101286.43
101299.12
101291.63
101293.69
101286
101284.02
101293.33
101301.14
101300.35
101306.62
101302.39
101310.68
101302.85
101298.43
101302.31
101310.45
101307.31
101299.93
101298.85
101298.23
101298.71
101298.19
101299.96
101296.42
101302.63
101304.72
101304.6
101306.55
101298.95
101299.4
101297.99
101304.21
101303.88
101305.17
101305.18
101298.03
101290.55
101281.99
101284.73
101281.62
101273.56
101265.01
101258.63
101252.43
101242.58
101250.59
101241.12
101251.82
101245.07
101232.3
101220.12
101232.06
101242.42
101231.62
101218.33
101208.57
101189.86
101166.21
101194.93
101177.48
101140.61
101146.75
101165.28
101131.8
101163.57
101173.83
101192.38
101204.19
101219.57
101207.28
101229.15
101219.71
101194.97
101208.69
101191.67
101221.81
101242.5
101286.23
101269.35
101251.02
101270.26
101236.99
101239.5
101239.1
101238.72
101240.87
101271.92
101288.89
101230.1
101238.15
101240.19
101243.18
101271.79
101242.94
101275.22
101237.52
101249.23
101236.17
101199.31
101204.22
101212.38
101218.31
101187.34
101180.92
101168.49
101172.14
101208.1
101198.05
101209.1
101173.7
101167.3
101185.24
101216.99
101204.76
101200.34
101148.26
101148.58
101148.39
101150.35
101207.17
101190.84
101179.24
101181.69
101194.38
101226.33
101227.23
101225.49
101225.52
101283.69
101218.94
101272.82
101215.14
101216.56
101209.32
101213.4
101189.97
101249.22
101382.27
101270.18
101331.05
101227.95
101235.37
101269.11
101248.27
101329.52
101256.54
101323.79
101330.66
101282.11
101308.85
101233.33
101227.53
101227.99
101234.53
101278.8
101223.94
101277.95
101240.74
101229.53
101246.14
101267.34
101264.14
101374.46
101380.04
101270.43
101331.28
101222.6
101235.54
101249.38
101251.14
101262.87
101269.08
101255.67
101239.81
101227.97
101197.14
101196.15
101154.41
101155.21
101199.45
101237.15
101240.03
101292.55
101268.53
101267.79
101260.42
101267.39
101274.32
101278.38
101283.46
101284.85
101284.85
101299.36
101289.82
101282.94
101273.37
101273.66
101267.58
101279.11
101279.17
101283.51
101281.79
101283.85
101295.89
101295.55
101300.52
101299.18
101301.78
101300.08
101298.82
101289.14
101275.14
101276.21
101289.49
101288.5
101278.11
101280.35
101288.82
101295.59
101285.24
101287.33
101298.02
101301.15
101299.88
101302.75
101309.48
101302.09
101292.53
101291.57
101292.95
101290.6
101279.05
101282.69
101283.38
101287.22
101290.41
101298.02
101302.1
101299.55
101303.63
101309.01
101304.79
101308.68
101314.79
101309.11
101308.97
101302.52
101301.43
101300.48
101306.2
101313.66
101305.77
101314.97
101308.22
101317.49
101295.62
101296.59
101298.97
101304.13
101305.47
101303.89
101295.5
101298.03
101293.76
101308.55
101322.57
101289.43
101290.87
101293.38
101307.88
101316.84
101303.87
101317.62
101317.22
101312.67
101312.13
101317.89
101311.09
101306.23
101307.25
101305.57
101298.69
101296.2
101298.31
101294.71
101287.06
101292.23
101288.18
101292.83
101294.67
101294.47
101291.86
101299.37
101291.86
101298.5
101292.83
101299.57
101296.55
101288.21
101282.94
101282.66
101285.73
101282.4
101290.89
101284.31
101281.11
101277.97
101267.83
101267.35
101259.2
101259.7
101269.73
101259.66
101247.86
101247.19
101258.86
101269.14
101277.53
101292.82
101293.25
101276.24
101276.25
101273.02
101273.21
101277.44
101290.23
101271.96
101276.94
101291.39
101276.9
101271.81
101259.33
101258.7
101268.77
101273.2
101273.84
101268.47
101260.5
101259.78
101248.55
101249.3
101238.71
101236.98
101234.53
101234.67
101250.19
101251.06
101243.93
101255.8
101254.98
101271.13
101271.12
101269.88
101259.67
101259.74
101255.06
101250.59
101250.4
101260.63
101267.89
101249.1
101249.57
101267.69
101260.49
101260.48
101270.77
101268.93
101260.53
101256.35
101257.85
101273.73
101271.72
101261.65