/*--------------------------------*- C++ -*----------------------------------*\
  =========                 |
  \\      /  F ield         | OpenFOAM: The Open Source CFD Toolbox
   \\    /   O peration     | Website:  https://openfoam.org
    \\  /    A nd           | Version:  7
     \\/     M anipulation  |
\*---------------------------------------------------------------------------*/
FoamFile
{
    version     2.0;
    format      ascii;
    class       volScalarField;
    location    "500";
    object      alphat;
}
// * * * * * * * * * * * * * * * * * * * * * * * * * * * * * * * * * * * * * //

dimensions      [1 -1 -1 0 0 0 0];

internalField   nonuniform List<scalar> 
24789
(
0.0014133619
0.007240621
0.017555699
0.030135133
0.39299669
0.39530272
0.030331656
0.017673299
0.0072867879
0.0014166313
0.0014199874
0.0073339987
0.017793297
0.030532198
0.39767138
0.40010349
0.030737482
0.017916179
0.0073823752
0.0014234395
0.0014269926
0.0074319418
0.018041862
0.030947437
0.40260367
0.40517495
0.031162589
0.018170711
0.0074828114
0.001430654
0.0014344303
0.0075350086
0.018302743
0.031383057
0.40782265
0.41055036
0.031609222
0.018438225
0.0075886412
0.001438329
0.0014423596
0.0076437488
0.018577294
0.031841391
0.41336474
0.41627029
0.032079753
0.018720112
0.0077004396
0.0014465294
0.0014508478
0.0077587634
0.01886695
0.032324865
0.4192746
0.42238326
0.032576869
0.019017933
0.0078188379
0.0014553254
0.0014599754
0.0078807208
0.019173417
0.032836483
0.42560475
0.4289467
0.033103729
0.019333455
0.007944531
0.0014648092
0.0014698437
0.0080103362
0.019498495
0.033379466
0.43241981
0.43603353
0.033663768
0.019668594
0.0080782605
0.0014750939
0.0014805815
0.0081483753
0.019844287
0.033957703
0.43980113
0.44373579
0.034261222
0.020025539
0.0082207751
0.0014863274
0.0014923618
0.0082955391
0.02021294
0.034575505
0.44785492
0.45217698
0.034900647
0.020406468
0.0083727286
0.0014987142
0.0015054257
0.0084523814
0.020606719
0.035237987
0.45672691
0.4615344
0.035587692
0.020813631
0.0085345078
0.0015125432
0.0015201284
0.0086190552
0.021027706
0.035951106
0.46663802
0.47208741
0.036328492
0.021248761
0.0087058944
0.0015282546
0.0015370208
0.0087947883
0.021477069
0.036721158
0.47794976
0.4843164
0.037129164
0.021712086
0.0088853451
0.0015465509
0.0015570131
0.0089770227
0.021953281
0.037552756
0.4913147
0.49911636
0.03798985
0.022198741
0.0090688616
0.0015686447
0.0015817837
0.0091594385
0.022446276
0.038437079
0.50795481
0.51821885
0.038893897
0.022696123
0.0092483006
0.0015970261
0.0016165069
0.0093448571
0.022958632
0.039385252
0.53065128
0.54635856
0.040037245
0.02330072
0.0094720241
0.0016438485
0.0016765196
0.0096112932
0.023863205
0.041103999
0.56707602
0.60313928
0.04365197
0.025457937
0.010289359
0.0017313735
0.0017643722
0.010631493
0.02610608
0.044422129
0.6285801
0.6492163
0.047396451
0.027807851
0.011289299
0.00179982
0.0017920378
0.011856412
0.029571646
0.050833041
0.65005248
0.69214358
0.043557482
0.026108244
0.010749973
0.0017559533
0.0017178248
0.010264961
0.025042295
0.042312278
0.68240597
0.65647768
0.038522542
0.022734907
0.0092684368
0.0016518094
0.001604049
0.0088623128
0.021636802
0.036767048
0.6296
0.61143674
0.035983094
0.02117385
0.0087108549
0.0015702114
0.0015446712
0.0085949125
0.020894786
0.035494337
0.59603969
0.58298525
0.035102676
0.020677525
0.008508948
0.001526393
0.0015119355
0.0084317954
0.020470317
0.0347267
0.57180358
0.56193354
0.034345377
0.020258504
0.008353539
0.0014996107
0.0014887472
0.0082722215
0.020041916
0.033961576
0.55307404
0.54503176
0.033580972
0.019823555
0.008188936
0.0014789221
0.0014699292
0.0081054519
0.019607527
0.033209251
0.53766266
0.53085457
0.032848961
0.019396061
0.0080229079
0.0014616313
0.0014539314
0.0079420676
0.019190732
0.032501796
0.52452276
0.51860066
0.032167445
0.018991889
0.0078633833
0.00144675
0.0014400251
0.0077870512
0.018799898
0.031846031
0.51303498
0.50778099
0.031536292
0.018614326
0.0077131354
0.0014336999
0.0014277291
0.0076416194
0.018435235
0.031238164
0.5028042
0.49807427
0.030950328
0.018262063
0.0075724744
0.0014220725
0.0014166994
0.0075055938
0.018094778
0.030672707
0.49356786
0.48926302
0.030404056
0.017932785
0.0074408998
0.0014115779
0.0014066879
0.0073782929
0.017776097
0.030144479
0.48514319
0.48119138
0.029892818
0.01762416
0.0073176747
0.0014020057
0.0013975162
0.0072589476
0.017476942
0.029649121
0.47739554
0.47374219
0.029412448
0.017333989
0.0072020224
0.0013932027
0.0013890519
0.0071467932
0.017195258
0.029182886
0.47022216
0.46682459
0.028959641
0.017060397
0.0070932114
0.0013850524
0.0013811934
0.0070411447
0.016929279
0.028742671
0.46354205
0.46036668
0.028531379
0.016801664
0.0069905698
0.0013774655
0.001373861
0.0069413595
0.016677387
0.028325657
0.45729156
0.4543099
0.028125127
0.01655631
0.0068934925
0.0013703706
0.0013669879
0.0068468629
0.016438202
0.027929538
0.45141645
0.44860532
0.027738711
0.016323037
0.0068014493
0.0013637065
0.0013605202
0.0067571516
0.016210495
0.02755223
0.44587214
0.44321027
0.027370012
0.016100587
0.0067139221
0.0013574226
0.0013544039
0.0066717652
0.015993086
0.027191723
0.44062051
0.44332589
0.027375744
0.016104073
0.0067152955
0.0013574983
0.0013606053
0.0067586247
0.016214225
0.027558356
0.44599229
0.44873492
0.027745322
0.016327057
0.0068030403
0.0013638009
0.0013670898
0.0068485634
0.016442477
0.027936569
0.45155613
0.45446063
0.028132663
0.016560892
0.0068953169
0.0013704801
0.0013739785
0.0069433153
0.016682283
0.028333686
0.45745473
0.46054513
0.028540043
0.016806942
0.0069926776
0.0013775933
0.0013813321
0.0070434333
0.016934974
0.028751993
0.4637386
0.46704179
0.028969776
0.017066576
0.0070956947
0.001385203
0.0013892166
0.0071495121
0.017201998
0.02919392
0.47046348
0.47401172
0.029424547
0.017341368
0.0072050009
0.0013933823
0.0013977134
0.0072622156
0.017485014
0.029662317
0.47769696
0.4815297
0.029907339
0.017633047
0.0073212863
0.001402222
0.0014069251
0.0073822842
0.017785915
0.030160497
0.48552316
0.48969063
0.030421806
0.017943651
0.0074453272
0.0014118389
0.0014169853
0.0075105006
0.018106789
0.03069228
0.49404882
0.49861527
0.030972007
0.018275373
0.0075779213
0.0014223863
0.0014280724
0.0076476893
0.01845003
0.031262224
0.50341188
0.50846275
0.031563019
0.018630763
0.0077198924
0.0014340749
0.001440434
0.0077945936
0.01881818
0.031875654
0.51379755
0.51944997
0.032200254
0.019012174
0.0078717762
0.0014471914
0.001454404
0.0079513914
0.01921319
0.032537998
0.52546289
0.53188648
0.032888735
0.019420801
0.0080332108
0.0014621312
0.0014704478
0.0081167701
0.019634598
0.033252592
0.53878379
0.54623203
0.033627458
0.019852704
0.008201191
0.0014794432
0.0014892426
0.0082851692
0.020072405
0.03400992
0.55433361
0.56321991
0.034392859
0.020288787
0.008366751
0.0015000443
0.0015122757
0.0084443964
0.020497269
0.034768026
0.57306706
0.58414028
0.035129129
0.020696071
0.0085194325
0.0015266332
0.001544842
0.0086011822
0.020896903
0.035493421
0.59696312
0.61209376
0.035953981
0.02115363
0.0087106658
0.0015706187
0.0016070491
0.0088949758
0.02165602
0.03681454
0.63051196
0.65705706
0.038679433
0.022789343
0.0092637729
0.0016521564
0.0017211082
0.010358773
0.02531447
0.043122864
0.68633839
0.69366008
0.040821587
0.024676929
0.010231959
0.0017147167
0.0017726685
0.011714721
0.02924348
0.050141132
0.65056331
0.65732917
0.046803168
0.02714126
0.010972679
0.001757541
0.0017902981
0.011331519
0.028232477
0.048897073
0.63237039
0.59996716
0.043521077
0.025474302
0.010265004
0.0017281912
0.00167909
0.009722799
0.023882753
0.040869193
0.56963508
0.54935435
0.039565352
0.02313236
0.0094572725
0.0016383753
0.0016081162
0.0092855915
0.02271763
0.038837
0.53352671
0.52071578
0.038302119
0.022412459
0.0091644185
0.0015870587
0.0015708606
0.0090625155
0.022144228
0.037827231
0.51005698
0.50084971
0.037370481
0.021886667
0.0089652857
0.0015573818
0.001545649
0.0088688498
0.021633525
0.03692546
0.49271937
0.48542891
0.036494196
0.021385542
0.0087734157
0.0015351637
0.0015256271
0.0086797034
0.021144563
0.036079116
0.47880335
0.47271554
0.035680587
0.020911314
0.0085882017
0.0015168533
0.001508718
0.0084992973
0.020686372
0.035298735
0.4670723
0.4618035
0.034932336
0.020469496
0.0084132035
0.0015011272
0.0014940093
0.0083299868
0.02026071
0.034580932
0.45685687
0.45218966
0.034242945
0.020059351
0.0082496085
0.0014873031
0.0014809641
0.0081720222
0.019865362
0.033918043
0.44777005
0.44357001
0.0336047
0.019678018
0.0080971126
0.0014749506
0.0014692306
0.0080247676
0.019497249
0.033302763
0.43956866
0.43574591
0.03301082
0.019322361
0.0079548605
0.0014637734
0.0014585571
0.0078872535
0.019153278
0.032728822
0.43208686
0.42857632
0.032455573
0.018989417
0.0078218473
0.00145356
0.0014487652
0.0077585058
0.01883072
0.032191097
0.42520352
0.42195654
0.031934338
0.018676677
0.0076971417
0.0014441561
0.0014397203
0.0076376245
0.018527214
0.031685319
0.4188273
0.41580639
0.031443235
0.018381963
0.0075798976
0.0014354443
0.0014313181
0.0075238284
0.018240801
0.031208036
0.41288793
0.4100632
0.030979047
0.01810343
0.0074693682
0.0014273319
0.0014234774
0.0074163975
0.017969691
0.030756149
0.40732749
0.40467424
0.030538918
0.017839416
0.0073648801
0.0014197463
0.0014161315
0.0073147099
0.017712382
0.030327111
0.4020995
0.39959788
0.030120468
0.017588516
0.0072658528
0.0014126265
0.0014092236
0.0072181977
0.017467498
0.029918585
0.3971658
0.39480163
0.02972144
0.017349374
0.0071717259
0.0014059182
0.0014167921
0.0072890106
0.017678864
0.030340971
0.39541619
0.39779257
0.030541443
0.017798854
0.0073361819
0.0014201357
0.0014235824
0.0073845498
0.01792165
0.030746607
0.40023481
0.40274501
0.030956994
0.018047621
0.0074342164
0.0014271373
0.0014308049
0.0074851817
0.018176693
0.031172556
0.40532866
0.4079896
0.03139369
0.018309147
0.0075375516
0.0014345908
0.0014385018
0.0075913427
0.018445049
0.031620591
0.4107335
0.41356539
0.031853548
0.018584616
0.0076466737
0.0014425456
0.0014467319
0.0077035916
0.018728065
0.032093
0.41649192
0.41951871
0.032339127
0.018875536
0.0077622097
0.0014510685
0.0014555665
0.0078225712
0.019027339
0.032592551
0.42265472
0.42590681
0.03285335
0.019183571
0.0078848131
0.0014602383
0.0014650985
0.0079490097
0.019344682
0.033122408
0.4292849
0.43279823
0.033399784
0.019510729
0.0080152809
0.0014701613
0.0014754455
0.0080837255
0.019682246
0.033686487
0.43645947
0.44028124
0.033982492
0.019859221
0.0081544317
0.0014809696
0.0014867601
0.0082275389
0.020042322
0.034289076
0.44427955
0.44847111
0.03460627
0.020231509
0.008303102
0.001492841
0.0014992494
0.0083812287
0.020427439
0.034935391
0.45287863
0.45752755
0.035276617
0.020630107
0.0084619684
0.0015060229
0.0015132157
0.008545392
0.020840218
0.035631505
0.4624516
0.46769227
0.036000467
0.021057788
0.0086315012
0.001520888
0.0015291228
0.0087202707
0.021283425
0.036385107
0.47330488
0.47936175
0.036786056
0.021517082
0.008811573
0.0015380223
0.0015477245
0.0089052325
0.021759105
0.037204741
0.48596157
0.49323801
0.037641194
0.022008985
0.0090009498
0.0015584126
0.0015703608
0.0090982235
0.022266004
0.038094984
0.50137108
0.51060429
0.038564681
0.022529527
0.0091965624
0.0015839758
0.0015999709
0.0092974937
0.022803987
0.039055165
0.52133423
0.53429351
0.039600461
0.023107509
0.0094143293
0.0016205599
0.001649531
0.0095770236
0.023518747
0.040340812
0.55049783
0.57133821
0.04155215
0.024185656
0.0097677412
0.0016850699
0.0017388477
0.010434379
0.025856064
0.044323211
0.60554987
0.63232921
0.046354494
0.027094272
0.010993087
0.0017853444
0.0017993071
0.011354794
0.027946641
0.04762795
0.65259398
0.65558524
0.051386796
0.029875411
0.011957728
0.0017980381
0.50769597
0.06304905
0.035455311
0.013905552
0.0019994725
0.0018779449
0.012304765
0.030546429
0.053045456
0.64288182
0.73349295
0.04402408
0.026389608
0.01092024
0.0017832572
0.0017569635
0.010863018
0.026608027
0.045509061
0.67521024
0.6620275
0.047998021
0.027718149
0.011171838
0.0017713933
0.0017679276
0.011012412
0.027370809
0.047097312
0.63412323
0.598504
0.042857306
0.025058896
0.010119677
0.0017162832
0.0016691456
0.0095973636
0.023587424
0.040441833
0.56674431
0.54663857
0.039313999
0.022958995
0.0093832599
0.0016319837
0.0016040252
0.0092388287
0.022603982
0.038669482
0.53117972
0.51876443
0.038181628
0.022332697
0.0091324547
0.0015843337
0.0015689483
0.0090395158
0.022086629
0.037738016
0.50846957
0.49956861
0.037302923
0.021843877
0.0089483679
0.0015559836
0.0015446106
0.0088561377
0.021601072
0.036873435
0.49168627
0.48459437
0.036453605
0.021360531
0.008763683
0.001534377
0.001525018
0.0086720631
0.021124891
0.036046916
0.47812608
0.4721616
0.03565459
0.020895526
0.0085820742
0.0015163718
0.0015083314
0.0084943169
0.02067353
0.035277472
0.46661591
0.4614246
0.034914651
0.020458854
0.0084090712
0.0015008116
0.0014937485
0.0083265137
0.020251777
0.034566057
0.45653979
0.45192269
0.034230336
0.0200518
0.0082466721
0.0014870861
0.0014807808
0.008169506
0.019858908
0.033907262
0.44754387
0.4433772
0.033595407
0.019672456
0.0080949375
0.0014747936
0.0014690946
0.0080228592
0.019492381
0.033294627
0.43940323
0.43560298
0.033003642
0.019318065
0.007953173
0.0014636555
0.0014584544
0.0078857662
0.019149498
0.032722519
0.43196279
0.428468
0.032449986
0.018986062
0.0078205233
0.0014534696
0.0014486855
0.0077573217
0.018827725
0.032186112
0.42510863
0.42187308
0.031929857
0.018673989
0.007696079
0.0014440852
0.0014396567
0.0076366716
0.018524803
0.0316813
0.41875391
0.41574124
0.031439583
0.018379769
0.0075790283
0.0014353871
0.0014312665
0.0075230324
0.018238795
0.0312047
0.41282928
0.41001047
0.030975985
0.018101589
0.0074686386
0.0014272847
0.0014234335
0.0074157227
0.01796799
0.030753328
0.40728005
0.40463159
0.030536302
0.017837839
0.0073642547
0.0014197052
0.0014160921
0.0073141258
0.017710908
0.030324668
0.40206135
0.39956408
0.030118184
0.017587138
0.0072653087
0.0014125878
0.001409185
0.0072176901
0.017466208
0.029916444
0.39713668
0.3947774
0.029719406
0.017348149
0.0071712405
0.0014058776
0.0013574592
0.006714391
0.016101663
0.027371743
0.44324217
0.44589904
0.027553925
0.016211575
0.0067575771
0.0013605486
0.0013637271
0.0068018055
0.016323882
0.027740095
0.44863066
0.45144054
0.027930921
0.016439065
0.0068472018
0.0013670036
0.0013703837
0.0068937919
0.016557058
0.028126391
0.4543339
0.45731546
0.028326912
0.016678162
0.0069416723
0.0013738725
0.0013774771
0.0069908589
0.016802414
0.02853265
0.46039125
0.46356717
0.028743888
0.016930035
0.0070414601
0.0013812041
0.0013850626
0.0070935069
0.017061177
0.028960978
0.46685085
0.47024882
0.029184108
0.017196009
0.0071471118
0.0013890611
0.0013932116
0.0072023266
0.017334814
0.029413867
0.47377022
0.47742398
0.029650355
0.01747769
0.0072592639
0.001397524
0.0014020135
0.0073179844
0.017625014
0.029894299
0.48122108
0.48517253
0.030145715
0.017776834
0.0073786034
0.001406693
0.0014115818
0.0074411821
0.017933616
0.030405534
0.48929207
0.49359369
0.030673811
0.018095398
0.0075058406
0.0014166989
0.0014220698
0.0075726532
0.018262714
0.030951581
0.49809541
0.50281602
0.031238846
0.018435544
0.0076417085
0.001427719
0.0014336801
0.0077130622
0.018614461
0.031536814
0.50777959
0.51301258
0.031845566
0.018799392
0.0077867405
0.0014399899
0.0014466962
0.0078627341
0.01899082
0.03216625
0.51854955
0.52442992
0.032498825
0.019188463
0.0079409104
0.0014538483
0.0014615109
0.0080210226
0.019392363
0.032844
0.5307054
0.5374374
0.033200742
0.019601376
0.0081024809
0.0014697531
0.0014786693
0.0081843281
0.019813936
0.033567587
0.54470788
0.55262762
0.033940502
0.020026817
0.0082651453
0.0014883855
0.0014991069
0.0083430051
0.020235769
0.034313683
0.56134684
0.57107501
0.034679955
0.020436621
0.0084164788
0.0015112556
0.0015254894
0.0084870785
0.020628866
0.035035717
0.58214376
0.59518237
0.035399873
0.020824986
0.0085636937
0.0015434402
0.0015686229
0.0086688007
0.021077259
0.03585782
0.61088246
0.63007165
0.036614226
0.021514391
0.0088182035
0.0016022251
0.0016492183
0.0091900322
0.022519825
0.038187444
0.65784198
0.68516936
0.041258966
0.024556572
0.010114573
0.001713424
0.0017587395
0.010807745
0.026211715
0.043627453
0.69555118
0.65264102
0.052971014
0.030619783
0.012285745
0.00182928
0.0018196769
0.011521611
0.028434805
0.048526509
0.65107019
0.62856966
0.04359791
0.025723712
0.010500727
0.001762409
0.0017412357
0.010426267
0.025828493
0.044453193
0.60353095
0.56759956
0.041343811
0.024009139
0.0096635226
0.0016816189
0.0016474102
0.0095087947
0.023378927
0.040142701
0.54680725
0.53076441
0.039413647
0.022982482
0.0093572545
0.0016184124
0.0015979474
0.0092507995
0.022700083
0.03889595
0.51815985
0.50783143
0.038432016
0.022444099
0.0091588159
0.0015822112
0.0015688245
0.0090672623
0.022195272
0.037983961
0.49898093
0.49119033
0.037547595
0.021949941
0.0089753394
0.0015570762
0.0015465638
0.0088839034
0.021709456
0.037125317
0.48421175
0.47786581
0.036718117
0.021474941
0.0087936372
0.0015370127
0.0015282404
0.0087050206
0.021247292
0.036326508
0.47202331
0.46659031
0.035949517
0.021026539
0.0086184101
0.0015201127
0.0015125311
0.0085340556
0.020812959
0.035586889
0.46150096
0.45670388
0.035237284
0.020606165
0.0084520723
0.0015054155
0.0014987082
0.0083725369
0.02040628
0.034900547
0.45216301
0.44784687
0.034575331
0.020212768
0.0082954434
0.0014923586
0.0014863276
0.008220744
0.020025644
0.034261527
0.44373351
0.43980185
0.033957768
0.019844292
0.0081483788
0.0014805809
0.0014750951
0.0080782849
0.019668787
0.033664194
0.43603741
0.43242455
0.033379629
0.019498576
0.0080103849
0.0014698449
0.0014648118
0.0079445733
0.019333656
0.033104157
0.428953
0.42561103
0.032836669
0.019173516
0.0078807776
0.0014599771
0.0014553276
0.0078188822
0.019018121
0.03257727
0.42239064
0.41928182
0.032325083
0.018867073
0.0077588279
0.0014508494
0.0014465316
0.0077004912
0.018720294
0.032080135
0.41627854
0.41337278
0.031841684
0.018577465
0.0076438278
0.0014423627
0.0014383338
0.0075887144
0.018438439
0.031609643
0.41055913
0.40783128
0.031383487
0.018302999
0.0075351137
0.0014344354
0.0014306606
0.00748291
0.018170965
0.03116306
0.40518418
0.4026129
0.030948051
0.018042238
0.007432086
0.001427002
0.0014234541
0.0073825401
0.017916561
0.030738142
0.40011283
0.39767972
0.030533225
0.017793933
0.0073342431
0.0014200106
0.0014166649
0.0072870884
0.017673979
0.03033279
0.39531076
0.39542779
0.030338964
0.017677653
0.007288489
0.0014167243
0.0014200944
0.0073358463
0.017797993
0.030540051
0.39779926
0.40023783
0.030745877
0.017921218
0.0073843677
0.0014235588
0.0014271227
0.007434086
0.018047259
0.030956414
0.40274625
0.4053291
0.031172177
0.018176482
0.0074851101
0.001430794
0.0014345813
0.0075374739
0.01830892
0.03139332
0.40798984
0.41073322
0.031620234
0.01844486
0.007591299
0.0014384925
0.0014425362
0.0076466297
0.018584455
0.031853268
0.41356525
0.41649127
0.032092599
0.018727865
0.0077035659
0.0014467204
0.0014510561
0.0077621826
0.018875398
0.032338859
0.41951841
0.42265386
0.032592154
0.019027171
0.0078225919
0.0014555529
0.0014602236
0.007884849
0.019183519
0.032853164
0.42590617
0.42928365
0.033121999
0.019344547
0.0079490883
0.0014650797
0.0014701388
0.0080153922
0.019510747
0.033399618
0.43279706
0.43645687
0.033686001
0.019682137
0.0080838797
0.001475415
0.0014809309
0.0081546399
0.01985928
0.033982231
0.44027704
0.44427099
0.03428833
0.020042165
0.0082277729
0.0014867064
0.0014927701
0.008303377
0.020231428
0.034605545
0.44845665
0.45285349
0.034933929
0.020427025
0.0083815232
0.0014991513
0.0015058903
0.0084622653
0.020629574
0.035274788
0.45748714
0.46238726
0.035628368
0.020839047
0.0085456291
0.0015130314
0.0015206341
0.0086316068
0.021055983
0.035996014
0.46759298
0.47315325
0.036377919
0.021280172
0.0087200626
0.0015287677
0.0015375285
0.0088108015
0.021511851
0.036775227
0.47913496
0.48562795
0.037187741
0.021750405
0.0089034681
0.0015470377
0.0015574702
0.0089975735
0.021995154
0.037615218
0.4927577
0.50069719
0.038055538
0.022244371
0.009092431
0.0015690991
0.0015823705
0.0091877441
0.022497436
0.038507169
0.50968911
0.52013465
0.038975581
0.02275916
0.009286196
0.0015980822
0.0016183353
0.0094008853
0.023050784
0.03949842
0.53279618
0.5487548
0.04021378
0.023447063
0.0095621617
0.0016472833
0.0016848591
0.0097852332
0.024124126
0.041438905
0.56968332
0.60350544
0.044118592
0.02574945
0.010389399
0.0017341638
0.001786968
0.011074702
0.027303075
0.046930574
0.63282066
0.65089562
0.045999025
0.027084747
0.011055575
0.0017711569
1.5329095
2.6659882
1.939782
0.69752798
0.043716198
0.026211237
0.010782376
0.0017606255
0.0017890057
0.011351043
0.028244674
0.049018257
0.65963614
0.0019608555
0.013468441
0.03421417
0.060627043
0.50418144
0.43686106
0.057154018
0.032251444
0.012703256
0.0018834696
0.0018884577
0.012644547
0.032184092
0.057118395
0.43452071
0.57933891
0.05477753
0.031181945
0.012435675
0.001858437
1.0505356
1.2610378
2.4530166
1.9543766
8.1697264
8.2621712
8.2321885
8.1696821
8.115524
8.1752312
8.183108
8.129183
0.0014059326
0.0071719938
0.017350102
0.029722807
0.39478633
0.39714858
0.029919549
0.017468052
0.0072183798
0.0014092306
0.0014126268
0.0072659271
0.017588718
0.030120848
0.39957764
0.4020739
0.030327212
0.017712475
0.0073147322
0.0014161276
0.0014197381
0.00736481
0.017839253
0.030538627
0.40464294
0.40728879
0.030755516
0.01796937
0.0074162759
0.0014234646
0.0014273139
0.0074691372
0.01810287
0.030978057
0.41001668
0.41283147
0.031206547
0.018239986
0.0075235227
0.0014312942
0.0014354139
0.0075794731
0.018380922
0.031441413
0.41574033
0.41874872
0.031682843
0.018525831
0.0076371096
0.0014396822
0.00144411
0.0076964772
0.018675015
0.031931451
0.4218645
0.42509512
0.032187297
0.018828558
0.0077576984
0.0014487075
0.0014534905
0.0078208622
0.018986917
0.03245124
0.42845017
0.43193879
0.032723326
0.019150138
0.0078860861
0.0014584728
0.0014636722
0.0079534601
0.019318735
0.033004549
0.43557338
0.43936658
0.033294929
0.019492749
0.0080231044
0.001469107
0.0014748036
0.0080951434
0.019672821
0.033595705
0.4433346
0.44749457
0.033906991
0.019858986
0.0081696849
0.0014807858
0.0014870892
0.0082468492
0.020051934
0.034230142
0.45186881
0.45648235
0.034565343
0.020251675
0.0083267077
0.0014937487
0.0015008122
0.0084093235
0.020458868
0.034914055
0.46136812
0.46656622
0.035276602
0.020673479
0.008494686
0.0015083336
0.0015163828
0.0085826926
0.020895895
0.035654238
0.47212911
0.47812593
0.036046988
0.021125683
0.0086730652
0.0015250453
0.0015344403
0.0087653749
0.021362541
0.036455299
0.48465146
0.49183752
0.036878074
0.021605223
0.0088590378
0.0015447424
0.0015562437
0.008953487
0.021852649
0.037314252
0.49986907
0.50899605
0.037762593
0.022104247
0.0090485303
0.0015694172
0.0015851419
0.0091486484
0.022367734
0.038233669
0.5196346
0.53258062
0.038778863
0.022673081
0.009267672
0.0016054215
0.001633957
0.0094335168
0.023103036
0.039546591
0.5488405
0.56993723
0.040840877
0.023820037
0.0096445708
0.0016687781
0.0017221677
0.01037346
0.025596989
0.043809004
0.60424381
0.62999002
0.044835203
0.026286288
0.010657287
0.001741651
0.0017829846
0.011300517
0.028146774
0.048857635
0.65543888
0.044526401
0.026651767
0.011056137
0.0017907099
0.0017571236
0.010469733
0.02507597
0.041663611
0.71675337
0.62071263
0.047536411
0.027523492
0.011140846
0.0018140331
0.0018581612
0.012340898
0.030990974
0.054815138
0.57383471
0.66920047
0.046407283
0.026986097
0.011023765
0.0017648145
0.0017829551
0.011299864
0.028145441
0.048855696
0.65557564
0.63007031
0.044834502
0.02628532
0.010656759
0.0017416635
0.0017221756
0.010372722
0.02559544
0.043807041
0.6042867
0.56996149
0.040837989
0.023818362
0.009643938
0.0016687783
0.0016339408
0.0094323469
0.02310036
0.039542428
0.54884522
0.5325727
0.038774364
0.022670214
0.0092664509
0.0016053966
0.0015851172
0.0091475086
0.022364994
0.03822928
0.51961552
0.50896707
0.03775801
0.022101394
0.0090473373
0.0015693889
0.0015562096
0.0089522298
0.021849634
0.037309416
0.49983226
0.49179528
0.036873098
0.021602128
0.0088577492
0.0015447042
0.0015343973
0.0087640483
0.021359354
0.036450189
0.48460568
0.47807768
0.036041808
0.021122459
0.0086717234
0.0015249976
0.001516332
0.0085813583
0.020892676
0.035649072
0.47207948
0.46651543
0.035271506
0.020670313
0.0084933757
0.001508281
0.0015007588
0.0084080451
0.020455766
0.034909066
0.46131749
0.45643188
0.03456042
0.020248631
0.0083254558
0.001493694
0.0014870343
0.00824563
0.02004895
0.034225312
0.45181916
0.44744561
0.033902267
0.019856085
0.008168501
0.001480731
0.0014747489
0.00809399
0.01966999
0.033591122
0.4432869
0.43931958
0.033290363
0.019489951
0.0080219675
0.0014690529
0.0014636176
0.0079523373
0.019315968
0.033000052
0.43552734
0.43189303
0.032718888
0.019147415
0.0078849874
0.0014584185
0.0014534367
0.007819777
0.018984231
0.032446879
0.42840493
0.42504997
0.03218292
0.018825892
0.0077566299
0.0014486537
0.0014440558
0.0076954061
0.018672341
0.031927074
0.42181961
0.41870326
0.031678443
0.01852315
0.0076360348
0.001439627
0.0014353591
0.007578411
0.018378261
0.031437062
0.41569468
0.41278469
0.031202151
0.01823731
0.007522456
0.0014312394
0.0014272594
0.0074680706
0.018100181
0.03097364
0.40996836
0.40723878
0.03075099
0.01796663
0.0074151895
0.0014234092
0.0014196815
0.0073637161
0.017836483
0.030534044
0.40459158
0.4020211
0.030322481
0.017709626
0.0073136153
0.0014160695
0.0014125661
0.0072647832
0.017585798
0.03011598
0.39952325
0.39709319
0.029914419
0.017465
0.007217196
0.0014091662
0.0014058622
0.0071707339
0.017346822
0.029717229
0.39472699
0.39242412
0.029524822
0.01723161
0.007125487
0.0014026476
0.39535586
0.030337573
0.017676891
0.0072882235
0.0014167165
0.0014200586
0.0073352493
0.017796477
0.030537475
0.39772142
0.4001522
0.030742441
0.01791918
0.0073835602
0.0014235012
0.0014270476
0.0074330687
0.018044723
0.030952156
0.4026502
0.40521921
0.031167149
0.018173483
0.0074839066
0.0014307052
0.0014344787
0.0075360687
0.018305427
0.03138747
0.40786448
0.41059006
0.031613526
0.018440849
0.007589682
0.0014383762
0.0014424052
0.0076447733
0.018579865
0.031845607
0.41340224
0.41630614
0.032083892
0.018722645
0.0077014529
0.0014465732
0.0014508913
0.0077597614
0.018869453
0.032328952
0.4193086
0.42241533
0.032580936
0.019020427
0.0078198401
0.0014553688
0.001460018
0.0078817253
0.019175909
0.032840531
0.4256357
0.42897671
0.033107751
0.019335944
0.0079455365
0.0014648522
0.0014698873
0.0080113636
0.019501046
0.03338359
0.43244896
0.43606197
0.033667955
0.019671175
0.0080792928
0.0014751374
0.001480626
0.0081494159
0.019846889
0.033961911
0.43982872
0.44376174
0.034265463
0.020028176
0.0082218275
0.0014863726
0.0014924067
0.0082965887
0.020215615
0.034579831
0.4478778
0.45219552
0.034904997
0.02040914
0.0083737607
0.0014987583
0.0015054688
0.0084533763
0.02060935
0.035242283
0.45673943
0.46153813
0.035591839
0.02081618
0.0085354471
0.001512586
0.0015201698
0.0086199144
0.02103013
0.035955058
0.46662931
0.47206231
0.036332037
0.021250926
0.0087066035
0.0015282961
0.0015370689
0.0087953168
0.021478875
0.036724095
0.47790429
0.48424768
0.037131272
0.021713434
0.0088856659
0.0015466174
0.0015571273
0.0089772121
0.021954187
0.037553878
0.49122174
0.49900441
0.037990216
0.02219958
0.0090692204
0.0015688714
0.0015822561
0.0091609076
0.022448633
0.038438459
0.5078432
0.51815473
0.038902556
0.022704823
0.0092530746
0.0015979912
0.0016184526
0.0093598204
0.022987798
0.039420909
0.53073567
0.54674441
0.040151129
0.023385251
0.00951188
0.0016474451
0.0016816496
0.0096670712
0.024016202
0.041353097
0.5674784
0.60329728
0.044463903
0.025835198
0.010429392
0.0017412498
0.0017623403
0.010503044
0.025727325
0.043601478
0.6282798
0.6506708
0.048527204
0.028436405
0.011522406
0.0018197127
0.0018296131
0.012281902
0.030628812
0.052993445
0.65220078
0.69509089
0.043646817
0.026222701
0.0108121
0.0017589007
0.0017713731
0.011180998
0.027737628
0.048031512
0.6615092
0.65688056
0.046790342
0.02713498
0.01097152
0.0017570574
0.00171467
0.010230058
0.024675167
0.040818729
0.69314332
0.65043296
0.045995798
0.027083694
0.011053753
0.0017711948
0.001799264
0.011348492
0.027938806
0.04761572
0.65223819
0.69713797
0.043707612
0.026205154
0.010777339
0.0017606319
0.001788829
0.011344094
0.02823329
0.049001645
0.65943203
0.63248879
0.044090707
0.02589204
0.010505037
0.0017369644
0.0017176818
0.010299894
0.025433482
0.04357782
0.60649701
0.57198232
0.040846495
0.023806998
0.0096325321
0.0016671174
0.0016331846
0.0094248567
0.023095484
0.039555663
0.55011168
0.53343781
0.038783068
0.022667889
0.0092626023
0.0016050166
0.0015849573
0.0091463953
0.022365887
0.038237868
0.5202711
0.509503
0.037767834
0.022104835
0.0090480364
0.0015693604
0.0015562642
0.0089540521
0.021854971
0.037320727
0.50029509
0.49220683
0.036885459
0.021608661
0.0088602115
0.0015448128
0.0015345394
0.0087668427
0.021366504
0.036462998
0.48497595
0.47841124
0.036054508
0.021129747
0.0086746146
0.0015251573
0.0015164959
0.008584183
0.020899758
0.035661213
0.47237879
0.46678281
0.035282855
0.020676995
0.0084960498
0.0015084412
0.0015009104
0.008410519
0.020461945
0.034919489
0.46155525
0.45664247
0.034569904
0.020254276
0.0083277181
0.0014938347
0.0014871631
0.0082476767
0.020054061
0.034233874
0.4520052
0.44760983
0.033909972
0.01986069
0.0081703456
0.0014808481
0.0014748543
0.0080956425
0.019674123
0.033598025
0.44343144
0.43944728
0.033296615
0.019493701
0.0080234699
0.0014691479
0.0014637035
0.0079536889
0.019319344
0.033005667
0.43564
0.43199254
0.032723935
0.019150449
0.007886197
0.0014584956
0.001453506
0.0078208683
0.01898696
0.032451406
0.42849283
0.42512775
0.032186996
0.018828345
0.0077576072
0.001448716
0.0014441116
0.0076962838
0.018674547
0.031930746
0.4218883
0.4187644
0.031681805
0.018525172
0.0076368415
0.0014396785
0.0014354055
0.0075791426
0.018380102
0.031440116
0.41574875
0.41283301
0.031204929
0.018238994
0.0075231298
0.0014312811
0.0014272962
0.0074686719
0.0181017
0.030976154
0.41001172
0.40727784
0.030753275
0.017968014
0.0074157393
0.001423442
0.0014197109
0.0073642167
0.017837743
0.03053613
0.40462739
0.40205392
0.030324381
0.017710778
0.0073140727
0.0014160957
0.001412589
0.0072652021
0.017586854
0.030117716
0.39955389
0.39712238
0.029916008
0.017465973
0.0072175841
0.0014091855
0.0014058791