/*--------------------------------*- C++ -*----------------------------------*\
  =========                 |
  \\      /  F ield         | OpenFOAM: The Open Source CFD Toolbox
   \\    /   O peration     | Website:  https://openfoam.org
    \\  /    A nd           | Version:  7
     \\/     M anipulation  |
\*---------------------------------------------------------------------------*/
FoamFile
{
    version     2.0;
    format      ascii;
    class       volScalarField;
    location    "500";
    object      rho;
}
// * * * * * * * * * * * * * * * * * * * * * * * * * * * * * * * * * * * * * //

dimensions      [1 -3 0 0 0 0 0];

internalField   nonuniform List<scalar> 
24789
(
1.1731892
1.1732233
1.1732485
1.1732692
1.1733714
1.1733485
1.1732419
1.1732203
1.1731942
1.1731589
1.1731268
1.1731634
1.1731905
1.173213
1.1733244
1.173299
1.1731823
1.1731589
1.1731306
1.1730926
1.173056
1.1730956
1.1731251
1.1731496
1.173272
1.1732434
1.1731146
1.1730889
1.1730581
1.1730168
1.1729745
1.1730178
1.1730501
1.1730771
1.1732129
1.1731803
1.1730367
1.1730082
1.1729743
1.1729289
1.1728796
1.1729274
1.1729631
1.1729931
1.1731454
1.1731079
1.1729459
1.172914
1.1728762
1.1728258
1.1727672
1.1728206
1.1728606
1.1728946
1.1730674
1.1730237
1.1728386
1.1728024
1.1727597
1.1727029
1.1726323
1.1726929
1.1727385
1.1727774
1.1729763
1.1729246
1.1727101
1.1726683
1.1726194
1.1725544
1.1724682
1.1725381
1.1725909
1.172636
1.1728682
1.1728065
1.172554
1.1725051
1.172448
1.1723725
1.1722659
1.1723479
1.1724099
1.1724631
1.1727386
1.1726637
1.172362
1.1723037
1.172236
1.1721466
1.1720132
1.172111
1.1721852
1.1722491
1.1725808
1.1724885
1.1721227
1.1720523
1.1719707
1.1718633
1.1716947
1.171813
1.171903
1.1719807
1.1723853
1.1722692
1.171821
1.1717349
1.1716355
1.1715051
1.1712919
1.1714358
1.1715456
1.171641
1.1721379
1.1719884
1.1714382
1.1713326
1.1712113
1.1710529
1.1707853
1.1709588
1.1710922
1.1712088
1.1718161
1.1716161
1.17095
1.1708221
1.1706763
1.1704876
1.1701661
1.1703684
1.1705261
1.1706652
1.171388
1.1711142
1.1703457
1.1701969
1.1700293
1.1698171
1.1694114
1.1696234
1.1697951
1.1699498
1.1707431
1.1703787
1.169563
1.1694072
1.169244
1.1690605
1.1691438
1.1692484
1.1693879
1.1695406
1.1703711
1.169468
1.168865
1.168751
1.1686629
1.1686398
1.1632058
1.1634664
1.1636625
1.1638916
1.1659331
1.1700784
1.1695732
1.169464
1.1693497
1.1691738
1.1711347
1.1713384
1.1714281
1.1715283
1.17193
1.1739621
1.1736177
1.1735249
1.1734134
1.1732143
1.1773922
1.1777419
1.1779811
1.1781702
1.1781613
1.1732534
1.171154
1.1709294
1.1707361
1.1703602
1.1717306
1.1718776
1.1719044
1.1719029
1.1720085
1.1690747
1.1665675
1.166252
1.1659371
1.1655123
1.1647614
1.164895
1.1649926
1.1651327
1.1665833
1.16955
1.1687736
1.1686554
1.1685558
1.168504
1.1689997
1.1691188
1.1692606
1.1694109
1.1703583
1.1703898
1.169463
1.1693094
1.1691489
1.168969
1.1693182
1.169521
1.1696894
1.169843
1.1707607
1.1711336
1.1702339
1.1700847
1.1699185
1.169711
1.1700581
1.1702515
1.1704085
1.1705492
1.171406
1.1716303
1.1708297
1.1706986
1.170551
1.1703645
1.1706516
1.1708275
1.1709651
1.1710865
1.1718267
1.1719962
1.171316
1.1712044
1.1710772
1.1709142
1.1711515
1.1713018
1.1714187
1.171521
1.1721437
1.1722738
1.1717047
1.1716111
1.1715039
1.1713656
1.1715581
1.1716853
1.1717836
1.1718692
1.1723889
1.1724914
1.1720166
1.1719382
1.1718481
1.1717312
1.1718867
1.1719943
1.1720771
1.1721489
1.1725833
1.172666
1.1722678
1.1722019
1.1721257
1.1720267
1.1721526
1.1722441
1.1723143
1.172375
1.1727407
1.1728084
1.1724717
1.1724157
1.1723508
1.1722661
1.1723686
1.1724472
1.1725074
1.1725592
1.17287
1.1729262
1.1726385
1.1725905
1.1725345
1.1724613
1.1725454
1.1726137
1.1726659
1.1727106
1.1729778
1.1730252
1.1727764
1.1727347
1.1726858
1.1726218
1.1726915
1.1727516
1.1727974
1.1728365
1.1730688
1.1731092
1.1728916
1.1728549
1.1728118
1.1727551
1.1728135
1.172867
1.1729078
1.1729423
1.1731467
1.1731815
1.172989
1.1729564
1.1729178
1.1728671
1.1729165
1.1729648
1.1730014
1.1730323
1.1732141
1.1732445
1.1730724
1.173043
1.1730082
1.1729622
1.1730046
1.1730485
1.1730818
1.1731097
1.1732731
1.1732999
1.1731445
1.1731179
1.1730861
1.173044
1.1730808
1.1731212
1.1731517
1.1731771
1.1733254
1.1733495
1.1732079
1.1731835
1.1731542
1.1731154
1.1731481
1.1731855
1.1732136
1.173237
1.1733725
1.1733526
1.1732127
1.1731885
1.1731595
1.1731211
1.173087
1.173127
1.1731571
1.1731823
1.1733287
1.1733034
1.17315
1.1731237
1.1730922
1.1730506
1.1730116
1.1730551
1.1730879
1.1731155
1.1732767
1.1732484
1.1730786
1.1730496
1.1730152
1.1729697
1.1729246
1.1729723
1.1730084
1.1730389
1.1732182
1.173186
1.1729962
1.172964
1.1729259
1.1728757
1.1728228
1.1728757
1.1729159
1.17295
1.1731514
1.1731143
1.1728999
1.1728638
1.1728212
1.1727652
1.1727024
1.1727618
1.172807
1.1728455
1.1730743
1.173031
1.1727861
1.172745
1.1726968
1.1726337
1.1725583
1.1726257
1.1726771
1.1727211
1.1729841
1.172933
1.1726499
1.1726026
1.1725475
1.1724753
1.1723838
1.1724613
1.1725206
1.1725715
1.1728772
1.1728161
1.1724851
1.1724301
1.1723662
1.1722828
1.1721708
1.1722609
1.17233
1.1723896
1.172749
1.1726749
1.1722837
1.172219
1.1721441
1.1720466
1.1719086
1.1720144
1.1720958
1.1721662
1.1725929
1.1725017
1.1720355
1.1719587
1.1718702
1.1717553
1.1715846
1.1717096
1.171806
1.1718899
1.1723998
1.1722855
1.1717274
1.1716358
1.1715307
1.1713949
1.1711838
1.1713313
1.1714458
1.1715459
1.1721562
1.1720095
1.1713431
1.171234
1.1711097
1.1709499
1.1706914
1.1708634
1.1709978
1.1711162
1.1718409
1.1716453
1.1708622
1.1707344
1.1705906
1.1704092
1.1701064
1.1702941
1.1704469
1.1705838
1.1714213
1.1711527
1.1702737
1.1701289
1.1699675
1.1697664
1.1693883
1.1695821
1.1697444
1.169893
1.1707876
1.1703842
1.1694907
1.1693435
1.1691909
1.1690212
1.169013
1.1691196
1.1692494
1.1693924
1.1703165
1.1698199
1.1690587
1.1689402
1.168846
1.168818
1.165631
1.1657359
1.1658043
1.1659036
1.166808
1.1671455
1.1627913
1.1623219
1.1618753
1.1612491
1.1788725
1.1787857
1.1786564
1.1784507
1.1760555
1.1724195
1.1704467
1.170195
1.1699909
1.1696061
1.1768928
1.1773038
1.1775532
1.1777472
1.1774702
1.1738541
1.1738851
1.1738454
1.1737731
1.1735778
1.1775329
1.1775395
1.1774502
1.1772787
1.1756866
1.1670249
1.1635189
1.1630527
1.1625834
1.1619686
1.1650401
1.1651596
1.1652261
1.1653307
1.1663299
1.1695475
1.168878
1.1687603
1.1686691
1.1686418
1.1689354
1.1690589
1.169199
1.1693489
1.1701872
1.170309
1.1694909
1.1693355
1.169169
1.1689725
1.1693763
1.1696015
1.1697766
1.1699312
1.1707308
1.1711026
1.1703372
1.1701909
1.1700243
1.1698122
1.1701746
1.1703743
1.1705287
1.1706638
1.1713771
1.1716076
1.1709541
1.1708307
1.1706892
1.1705047
1.1708047
1.170973
1.1711017
1.1712137
1.1718076
1.1719797
1.1714421
1.1713409
1.1712243
1.1710716
1.1713082
1.1714465
1.171552
1.1716435
1.1721295
1.1722614
1.1718219
1.1717392
1.1716437
1.1715184
1.1717047
1.1718185
1.1719051
1.17198
1.1723781
1.1724821
1.1721205
1.1720524
1.1719736
1.17187
1.172017
1.1721117
1.1721837
1.1722458
1.1725751
1.1726586
1.1723577
1.1723009
1.172235
1.1721481
1.1722653
1.1723453
1.172406
1.1724582
1.1727341
1.1728025
1.1725485
1.1725004
1.1724444
1.1723704
1.1724648
1.1725335
1.1725855
1.17263
1.1728646
1.1729213
1.1727039
1.1726625
1.1726141
1.17255
1.1726271
1.1726871
1.1727324
1.172771
1.1729732
1.1730209
1.1728321
1.172796
1.1727536
1.1726972
1.172761
1.1728142
1.1728541
1.172888
1.1730648
1.1731054
1.1729394
1.1729075
1.1728697
1.1728195
1.172873
1.1729207
1.1729565
1.1729867
1.173143
1.173178
1.1730303
1.1730018
1.1729678
1.1729224
1.1729679
1.1730113
1.1730437
1.1730708
1.1732107
1.1732413
1.1731085
1.1730826
1.1730517
1.1730102
1.1730495
1.1730893
1.1731189
1.1731436
1.1732699
1.1732969
1.1731764
1.1731528
1.1731244
1.1730861
1.1731204
1.1731573
1.1731846
1.1732073
1.1733225
1.1733468
1.1732364
1.1732146
1.1731883
1.1731528
1.1731641
1.1731992
1.1732251
1.1732464
1.1733519
1.1733279
1.1732178
1.1731955
1.1731686
1.1731322
1.1730983
1.1731361
1.1731641
1.1731873
1.1733027
1.1732759
1.1731549
1.1731306
1.1731015
1.1730621
1.1730233
1.1730643
1.1730948
1.1731202
1.1732475
1.1732172
1.1730831
1.1730564
1.1730244
1.1729815
1.1729364
1.1729814
1.173015
1.1730431
1.1731849
1.1731502
1.1729999
1.1729702
1.1729348
1.1728874
1.1728343
1.1728843
1.1729217
1.1729532
1.173113
1.1730728
1.1729025
1.1728689
1.1728293
1.1727763
1.1727128
1.1727691
1.1728112
1.172847
1.1730294
1.1729823
1.1727865
1.1727482
1.1727031
1.1726431
1.1725661
1.1726304
1.1726787
1.17272
1.1729311
1.1728751
1.1726467
1.1726022
1.1725501
1.1724809
1.1723864
1.1724611
1.1725175
1.1725657
1.1728138
1.1727463
1.1724757
1.1724232
1.172362
1.172281
1.1721634
1.1722517
1.1723184
1.1723758
1.172672
1.1725895
1.1722641
1.1722012
1.1721281
1.1720315
1.1718835
1.1719895
1.1720698
1.1721391
1.1724978
1.1723951
1.1719987
1.1719222
1.1718337
1.1717169
1.1715295
1.1716582
1.171756
1.1718405
1.1722795
1.1721485
1.1716622
1.1715686
1.1714606
1.1713187
1.1710823
1.1712383
1.1713574
1.1714609
1.1719993
1.171827
1.1712331
1.171119
1.1709882
1.1708175
1.1705228
1.1707081
1.1708508
1.1709758
1.1716267
1.1713973
1.1706918
1.1705563
1.1704024
1.1702039
1.1698588
1.1700666
1.1702297
1.1703742
1.1711226
1.1707512
1.1699817
1.1698321
1.1696656
1.1694582
1.1690952
1.1692752
1.1694325
1.1695818
1.1703699
1.1703294
1.1695178
1.1693741
1.1692427
1.1691413
1.1688256
1.1688361
1.168903
1.1689951
1.1695054
1.1660581
1.164355
1.1641665
1.1640208
1.1638155
1.1665189
1.1668758
1.1671068
1.1673394
1.1691511
1.1741605
1.1752491
1.1752886
1.1752875
1.1752085
1.1713196
1.1715592
1.1716691
1.171782
1.1727814
1.178478
1.1785475
1.1783674
1.1781361
1.1777603
1.1815468
1.1835691
1.1838943
1.1841447
1.1842759
1.1840856
1.1840512
1.1840404
1.1838819
1.1807671
1.1787649
1.1790037
1.1789032
1.1788019
1.1786048
1.1768542
1.1770178
1.1771266
1.1771944
1.176849
1.1748573
1.1754326
1.175469
1.1754491
1.1753627
1.1735423
1.1737652
1.1738953
1.1739534
1.1739628
1.1675481
1.1653405
1.1650472
1.1647726
1.1643147
1.1651
1.165199
1.1652687
1.1653888
1.1664685
1.1695497
1.1689476
1.168839
1.1687541
1.1687403
1.1690752
1.1691784
1.1693078
1.1694487
1.1702172
1.1703227
1.1695615
1.1694154
1.1692615
1.1690868
1.1694763
1.1696752
1.1698366
1.1699817
1.1707321
1.1711018
1.170377
1.1702386
1.1700825
1.1698849
1.1702329
1.1704202
1.1705662
1.170695
1.1713754
1.1716048
1.1709773
1.1708591
1.1707245
1.1705507
1.1708408
1.1710004
1.1711234
1.1712312
1.1718045
1.1719766
1.1714554
1.1713575
1.1712455
1.1710998
1.1713302
1.1714629
1.1715647
1.1716535
1.1721265
1.1722584
1.1718291
1.1717485
1.1716559
1.171535
1.1717172
1.1718275
1.1719118
1.171985
1.1723752
1.1724793
1.172124
1.1720572
1.1719802
1.1718793
1.1720238
1.1721163
1.1721869
1.1722479
1.1725724
1.1726562
1.172359
1.1723029
1.1722381
1.1721529
1.1722684
1.1723472
1.172407
1.1724586
1.1727318
1.1728003
1.1725483
1.1725007
1.1724453
1.1723723
1.1724659
1.1725338
1.1725853
1.1726295
1.1728626
1.1729194
1.172703
1.1726619
1.1726139
1.1725503
1.1726269
1.1726865
1.1727315
1.1727699
1.1729714
1.1730192
1.1728309
1.1727949
1.1727527
1.1726966
1.1727602
1.1728132
1.172853
1.1728868
1.1730633
1.1731039
1.172938
1.1729061
1.1728685
1.1728184
1.1728718
1.1729195
1.1729552
1.1729853
1.1731417
1.1731768
1.173029
1.1730004
1.1729665
1.1729211
1.1729666
1.17301
1.1730423
1.1730695
1.1732095
1.1732402
1.1731072
1.1730813
1.1730504
1.1730089
1.1730482
1.173088
1.1731177
1.1731424
1.173269
1.1732961
1.1731753
1.1731517
1.1731232
1.173085
1.1731194
1.1731563
1.1731836
1.1732063
1.1733217
1.1733461
1.1732356
1.1732138
1.1731874
1.1731519
1.1731168
1.1731555
1.1731847
1.173209
1.1733502
1.1733261
1.1731784
1.173153
1.1731226
1.1730823
1.1730456
1.1730875
1.1731192
1.1731458
1.1733007
1.1732739
1.173111
1.1730831
1.17305
1.1730062
1.1729638
1.1730097
1.1730444
1.1730737
1.1732453
1.173215
1.1730336
1.1730028
1.1729662
1.1729181
1.1728687
1.1729193
1.1729578
1.1729904
1.1731825
1.1731477
1.1729437
1.1729092
1.1728685
1.172815
1.1727566
1.1728132
1.1728563
1.172893
1.1731103
1.1730699
1.1728378
1.1727988
1.172753
1.1726929
1.1726232
1.1726872
1.172736
1.1727777
1.1730263
1.172979
1.1727119
1.1726672
1.172615
1.1725466
1.1724624
1.1725356
1.1725916
1.1726397
1.1729275
1.1728713
1.1725602
1.1725085
1.1724482
1.1723695
1.1722669
1.1723516
1.1724167
1.1724726
1.1728097
1.172742
1.1723758
1.1723151
1.1722447
1.1721532
1.172027
1.1721262
1.1722025
1.1722685
1.1726673
1.1725847
1.1721495
1.1720776
1.1719946
1.171887
1.1717313
1.1718483
1.1719386
1.1720171
1.1724929
1.1723904
1.1718696
1.1717839
1.1716855
1.1715582
1.1713658
1.1715041
1.1716115
1.1717052
1.1722753
1.1721454
1.1715217
1.1714192
1.1713023
1.1711521
1.1709156
1.1710783
1.1712053
1.1713171
1.1719979
1.1718286
1.1710882
1.1709669
1.1708296
1.1706547
1.1703709
1.1705551
1.1707019
1.1708328
1.1716324
1.1714083
1.1705542
1.1704141
1.1702583
1.1700682
1.1697276
1.1699309
1.1700953
1.1702436
1.1711372
1.1707681
1.1698635
1.1697117
1.1695467
1.169352
1.1690051
1.1691744
1.1693298
1.1694805
1.1703814
1.1703261
1.1694139
1.1692666
1.1691318
1.1690252
1.1687067
1.1687415
1.1688323
1.1689511
1.1696569
1.1667721
1.1654249
1.1652901
1.1651829
1.1650401
1.1649954
1.1654147
1.1656874
1.1659824
1.1685688
1.1726826
1.172995
1.1729749
1.1729242
1.1727115
1.1698808
1.1703367
1.1706764
1.1709844
1.1735143
1.1785588
1.1823745
1.1828008
1.1831501
1.1834502
1.1729392
1.1731432
1.1732935
1.1734075
1.1740657
1.17122
1.1704035
1.1702574
1.1701386
1.1698404
1.1705884
1.1706467
1.1706554
1.1706517
1.1704903
1.1660083
1.1635682
1.1632739
1.163021
1.1627157
1.168709
1.1687264
1.1688061
1.1689076
1.1694465
1.1703438
1.169519
1.1693671
1.1692288
1.1691255
1.1690436
1.1692269
1.1693902
1.1695465
1.1703661
1.1707401
1.1699408
1.1697851
1.1696123
1.1693995
1.1698017
1.1700159
1.1701853
1.1703356
1.1711122
1.1713866
1.1706554
1.1705148
1.1703551
1.1701502
1.1704733
1.1706645
1.1708123
1.1709418
1.1716157
1.171816
1.1712019
1.1710839
1.1709488
1.1707728
1.1710424
1.1712028
1.1713256
1.1714324
1.1719884
1.172138
1.1716364
1.17154
1.1714289
1.1712832
1.171498
1.1716299
1.1717303
1.1718173
1.1722694
1.1723855
1.1719778
1.1718993
1.1718086
1.1716891
1.1718588
1.1719672
1.1720494
1.1721204
1.1724888
1.1725811
1.1722474
1.172183
1.1721083
1.1720097
1.1721441
1.1722341
1.1723022
1.1723608
1.1726641
1.172739
1.1724622
1.1724087
1.1723463
1.1722638
1.172371
1.172447
1.1725043
1.1725534
1.1728069
1.1728686
1.1726356
1.1725903
1.1725374
1.1724672
1.1725537
1.1726189
1.172668
1.1727099
1.172925
1.1729766
1.1727773
1.1727384
1.1726927
1.1726319
1.1727027
1.1727596
1.1728024
1.1728387
1.1730241
1.1730678
1.1728947
1.1728608
1.1728206
1.1727671
1.1728259
1.1728764
1.1729142
1.1729461
1.1731083
1.1731458
1.1729934
1.1729633
1.1729275
1.1728797
1.1729292
1.1729747
1.1730086
1.173037
1.1731807
1.1732132
1.1730774
1.1730504
1.1730182
1.1729749
1.1730171
1.1730585
1.1730893
1.173115
1.1732437
1.1732723
1.17315
1.1731255
1.1730961
1.1730564
1.173093
1.1731311
1.1731593
1.1731827
1.1732993
1.1733248
1.1732134
1.173191
1.1731639
1.1731273
1.1731594
1.1731947
1.1732208
1.1732424
1.1733489
1.1733519
1.173247
1.1732257
1.1732
1.1731651
1.1731335
1.1731697
1.1731964
1.1732185
1.173328
1.1733028
1.1731882
1.1731652
1.1731374
1.1730999
1.173064
1.173103
1.173132
1.173156
1.1732761
1.1732477
1.1731216
1.1730964
1.1730662
1.1730256
1.1729842
1.1730267
1.1730583
1.1730847
1.1732175
1.1731852
1.173045
1.1730172
1.1729841
1.1729397
1.1728915
1.1729382
1.172973
1.1730024
1.1731506
1.1731134
1.172956
1.172925
1.1728882
1.1728391
1.1727821
1.172834
1.1728729
1.1729058
1.1730734
1.1730301
1.1728512
1.1728161
1.1727748
1.1727198
1.1726514
1.1727099
1.1727539
1.1727914
1.1729832
1.1729321
1.1727258
1.1726856
1.1726386
1.172576
1.1724928
1.1725599
1.1726104
1.1726537
1.1728763
1.1728151
1.1725739
1.1725272
1.1724727
1.1724005
1.172298
1.172376
1.172435
1.1724857
1.172748
1.1726738
1.1723875
1.1723322
1.1722681
1.1721834
1.1720553
1.1721476
1.1722176
1.172278
1.1725917
1.1725003
1.1721555
1.1720892
1.1720125
1.1719115
1.1717498
1.1718606
1.1719449
1.1720179
1.172398
1.1722829
1.1718629
1.1717823
1.1716895
1.1715677
1.1713627
1.1714967
1.171599
1.171688
1.1721525
1.1720039
1.1714905
1.1713922
1.1712794
1.1711323
1.1708734
1.1710343
1.1711581
1.1712665
1.1718325
1.1716332
1.1710125
1.1708938
1.1707586
1.170584
1.1702681
1.1704555
1.1706016
1.1707306
1.1714045
1.1711311
1.1704134
1.1702752
1.1701198
1.1699224
1.1695175
1.1697171
1.1698772
1.1700211
1.1707626
1.1703677
1.1696069
1.1694619
1.1693084
1.1691291
1.1691251
1.1692362
1.1693687
1.1695128
1.1703174
1.1696444
1.1691085
1.1690085
1.1689319
1.1689172
1.1643979
1.1645728
1.1646861
1.1648353
1.1662071
1.167907
1.1651136
1.1647522
1.1644229
1.163941
1.1780601
1.177994
1.177898
1.1777387
1.175853
1.1717193
1.1701242
1.1699395
1.169807
1.1695573
1.1739963
1.1728175
1.1738096
1.1733145
1.1715501
1.1713406
1.1711306
1.1707803
1.1758177
1.1759236
1.1759317
1.1758806
1.1753614
1.180387
1.1804964
1.1805216
1.1804422
1.1799829
1.1769043
1.1777187
1.177692
1.1776374
1.1774202
1.172527
1.1728441
1.1730136
1.1732257
1.1743129
1.1769051
1.1770724
1.1770208
1.1768804
1.1766355
1.1770448
1.1803815
1.1763186
1.1772704
1.1738312
1.1738513
1.1738024
1.173831
1.1738055
1.173802
1.1738105
1.1738028
1.1731523
1.1731879
1.1732143
1.1732361
1.1733468
1.1733226
1.1732071
1.1731844
1.1731571
1.1731202
1.173086
1.1731242
1.1731527
1.1731763
1.1732971
1.1732701
1.1731435
1.1731188
1.1730892
1.1730494
1.1730103
1.1730517
1.1730826
1.1731085
1.1732413
1.1732107
1.1730709
1.1730437
1.1730114
1.1729681
1.1729228
1.172968
1.1730019
1.1730305
1.1731779
1.1731428
1.1729868
1.1729568
1.1729211
1.1728737
1.1728205
1.1728704
1.1729079
1.1729397
1.173105
1.1730643
1.1728887
1.172855
1.1728154
1.1727627
1.1726995
1.1727552
1.1727972
1.172833
1.1730202
1.1729724
1.1727723
1.1727341
1.1726895
1.1726304
1.1725545
1.1726174
1.172665
1.1727058
1.1729204
1.1728637
1.1726329
1.1725891
1.1725381
1.1724709
1.1723784
1.1724505
1.1725052
1.1725523
1.1728014
1.172733
1.1724633
1.1724124
1.1723534
1.1722759
1.1721619
1.1722456
1.1723094
1.1723646
1.1726574
1.1725737
1.1722547
1.1721947
1.1721254
1.1720346
1.1718924
1.1719912
1.1720666
1.1721321
1.1724807
1.1723767
1.1719948
1.1719232
1.1718407
1.1717331
1.1715541
1.1716718
1.1717621
1.1718407
1.17226
1.1721282
1.1716674
1.1715809
1.171482
1.1713531
1.1711273
1.1712683
1.1713769
1.1714719
1.1719784
1.1718063
1.1712508
1.1711464
1.1710275
1.1708736
1.1705895
1.1707564
1.170886
1.1710001
1.1716065
1.1713772
1.1707219
1.170598
1.170458
1.1702788
1.1699366
1.1701251
1.1702741
1.1704066
1.1711008
1.1707221
1.1700075
1.1698697
1.1697167
1.1695282
1.169176
1.1693362
1.1694808
1.1696195
1.1703451
1.1703091
1.1695924
1.1694585
1.1693383
1.169256
1.1685917
1.1685987
1.1686735
1.1687714
1.1692791
1.1660119
1.1639659
1.1637472
1.1635766
1.1633639
1.1702802
1.170399
1.1704194
1.1704448
1.1704447
1.1702945
1.1685544
1.1683241
1.1681043
1.1676653
1.1746336
1.1749015
1.1750648
1.1751347
1.1754856
1.1776431
1.1776302
1.1776467
1.177595
1.1749053
1.1750983
1.1752181
1.1754123
1.1756796
1.1759345
1.1763407
1.1761721
1.1760408
1.1757241
1.1859226
1.1856008
1.1853248
1.1849173
1.1813249
1.1802029
1.1823253
1.1824534
1.1825134
1.1825644
1.1746228
1.1748907
1.1750545
1.1751249
1.1754802
1.1702886
1.1685481
1.1683181
1.168099
1.1676612
1.1702768
1.1703949
1.1704147
1.1704398
1.1704391
1.1660068
1.1639603
1.1637418
1.1635714
1.1633593
1.1685884
1.1685951
1.1686695
1.1687673
1.1692746
1.170304
1.1695872
1.1694533
1.1693333
1.1692512
1.1691711
1.1693312
1.1694757
1.1696144
1.1703405
1.1707174
1.1700022
1.1698643
1.1697113
1.1695229
1.169931
1.1701195
1.1702686
1.1704012
1.1710962
1.1713726
1.1707165
1.1705926
1.1704524
1.1702732
1.1705836
1.1707507
1.1708804
1.1709947
1.1716021
1.171802
1.1712454
1.1711408
1.1710218
1.1708678
1.1711216
1.1712627
1.1713715
1.1714667
1.1719743
1.1721242
1.1716623
1.1715757
1.1714765
1.1713475
1.1715486
1.1716666
1.171757
1.1718358
1.1722561
1.172373
1.1719901
1.1719182
1.1718356
1.1717277
1.1718872
1.1719862
1.1720618
1.1721275
1.1724771
1.1725702
1.1722502
1.17219
1.1721206
1.1720296
1.172157
1.1722409
1.1723049
1.1723603
1.172654
1.1727297
1.1724591
1.172408
1.1723488
1.1722711
1.1723738
1.1724461
1.172501
1.1725483
1.1727982
1.1728606
1.1726289
1.172585
1.1725338
1.1724664
1.1725502
1.1726133
1.1726611
1.172702
1.1729174
1.1729696
1.1727686
1.1727303
1.1726855
1.1726262
1.1726955
1.1727514
1.1727935
1.1728295
1.1730174
1.1730615
1.1728851
1.1728513
1.1728115
1.1727587
1.1728167
1.1728668
1.1729044
1.1729363
1.1731023
1.1731401
1.1729835
1.1729533
1.1729176
1.1728699
1.1729191
1.1729645
1.1729986
1.1730272
1.1731753
1.1732082
1.1730677
1.1730405
1.173008
1.1729646
1.1730068
1.1730484
1.1730794
1.1731054
1.1732389
1.1732677
1.1731406
1.1731157
1.173086
1.1730461
1.1730828
1.1731212
1.1731497
1.1731735
1.1732948
1.1733204
1.1732044
1.1731816
1.1731541
1.1731171
1.1731495
1.1731852
1.1732117
1.1732336
1.1733448
1.173368
1.1732614
1.1732404
1.1732148
1.1731804
1.1733521
1.1732463
1.1732249
1.173199
1.1731638
1.173132
1.1731685
1.1731954
1.1732177
1.1733282
1.1733029
1.1731872
1.1731639
1.1731359
1.173098
1.1730616
1.1731011
1.1731303
1.1731546
1.1732762
1.1732477
1.1731198
1.1730943
1.1730637
1.1730225
1.1729805
1.1730236
1.1730556
1.1730824
1.1732173
1.1731849
1.1730422
1.1730139
1.1729802
1.172935
1.1728857
1.1729333
1.1729688
1.1729987
1.1731501
1.1731127
1.1729516
1.1729199
1.1728823
1.1728321
1.1727735
1.1728267
1.1728666
1.1729004
1.1730724
1.1730289
1.1728446
1.1728085
1.172766
1.1727093
1.1726388
1.1726993
1.1727447
1.1727834
1.1729816
1.1729301
1.1727163
1.1726746
1.1726258
1.172561
1.1724748
1.1725446
1.1725973
1.1726423
1.1728739
1.1728124
1.1725604
1.1725116
1.1724546
1.1723791
1.1722724
1.1723544
1.1724164
1.1724696
1.1727447
1.1726701
1.1723686
1.1723103
1.1722426
1.1721531
1.1720195
1.1721175
1.1721918
1.1722557
1.1725875
1.1724955
1.1721294
1.1720589
1.1719772
1.1718694
1.1717004
1.1718192
1.1719094
1.1719874
1.1723926
1.172277
1.1718277
1.1717414
1.1716416
1.1715105
1.1712969
1.1714416
1.171552
1.1716477
1.172146
1.171997
1.1714448
1.1713388
1.1712169
1.1710575
1.1707896
1.1709642
1.1710984
1.1712154
1.1718251
1.1716255
1.1709566
1.1708282
1.1706817
1.170492
1.1701711
1.1703741
1.1705323
1.1706718
1.171397
1.1711232
1.1703535
1.1702047
1.170037
1.1698251
1.1694259
1.1696361
1.1698068
1.1699607
1.1707517
1.1703786
1.1695691
1.169415
1.1692542
1.1690739
1.1691596
1.1692596
1.1693951
1.1695445
1.1703578
1.1694596
1.1689362
1.1688381
1.1687623
1.1687485
1.1627684
1.1630665
1.1633151
1.1636059
1.1660277
1.1705173
1.1706998
1.170708
1.170705
1.1706537
1.1699019
1.1701911
1.1703038
1.1704454
1.1712412
1.1740876
1.1734537
1.1733441
1.1731991
1.173011
1.1835455
1.1832299
1.1828703
1.1824354
1.1785837
1.1735352
1.1710581
1.170759
1.1704303
1.1699905
1.1754543
1.175528
1.1755352
1.1754889
1.1748823
1.1738918
1.1739577
1.1739277
1.1738654
1.1736861
1.1696679
1.1700438
1.1702439
1.1704932
1.1724506
1.171728
1.1701352
1.1699519
1.1698209
1.1695733
1.1712622
1.1715147
1.1716331
1.1717533
1.1727855
1.1733118
1.1714973
1.1712801
1.1710626
1.1707025
1.1757401
1.1758596
1.1758787
1.1758365
1.1753536
1.1705087
1.168851
1.1685811
1.1682851
1.1677972
1.1700437
1.1701834
1.1702327
1.1702803
1.1704633
1.1658967
1.1637973
1.1635734
1.163396
1.1631436
1.1685876
1.1686053
1.16869
1.1687911
1.1692869
1.1703108
1.1695806
1.1694427
1.169319
1.169231
1.1691521
1.1693167
1.1694644
1.1696056
1.1703383
1.1707194
1.1700009
1.1698614
1.1697064
1.1695152
1.1699282
1.1701184
1.1702688
1.1704023
1.1710991
1.1713746
1.1707176
1.170593
1.1704521
1.1702718
1.1705831
1.1707508
1.170881
1.1709956
1.1716034
1.1718032
1.1712463
1.1711415
1.1710222
1.1708677
1.1711218
1.1712633
1.1713722
1.1714676
1.1719755
1.1721255
1.1716632
1.1715764
1.1714771
1.1713479
1.1715491
1.1716672
1.1717578
1.1718368
1.1722575
1.1723744
1.171991
1.1719191
1.1718363
1.1717283
1.1718878
1.1719869
1.1720627
1.1721285
1.1724785
1.1725717
1.1722513
1.172191
1.1721214
1.1720303
1.1721576
1.1722417
1.1723059
1.1723613
1.1726555
1.1727312
1.1724603
1.1724092
1.1723499
1.172272
1.1723746
1.172447
1.172502
1.1725494
1.1727997
1.172862
1.17263
1.172586
1.1725348
1.1724673
1.1725511
1.1726143
1.1726622
1.1727032
1.1729188
1.1729709
1.1727698
1.1727314
1.1726866
1.1726272
1.1726964
1.1727524
1.1727946
1.1728305
1.1730187
1.1730628
1.1728863
1.1728525
1.1728126
1.1727598
1.1728177
1.1728679
1.1729055
1.1729375
1.1731035
1.1731413
1.1729847
1.1729545
1.1729187
1.1728711
1.1729202
1.1729656
1.1729996
1.1730283
1.1731765
1.1732092
1.1730688
1.1730416
1.1730091
1.1729657
1.1730079
1.1730495
1.1730805
1.1731065
1.1732399
1.1732687
1.1731417
1.1731168
1.1730871
1.1730472
1.1730839
1.1731223
1.1731508
1.1731746
1.1732958
1.1733214
1.1732055
1.1731827
1.1731553
1.1731183
1.1731506
1.1731863
1.1732128
1.1732347
1.1733456
1.1733685
1.173262
1.1732409
1.1732154
1.1731809
1.1733471
1.1732366
1.1732148
1.1731885
1.1731529
1.1731207
1.1731575
1.1731849
1.1732076
1.1733229
1.1732974
1.1731767
1.1731531
1.1731246
1.1730864
1.1730498
1.1730895
1.1731192
1.1731439
1.1732703
1.1732416
1.1731088
1.1730829
1.173052
1.1730106
1.1729685
1.1730118
1.1730441
1.1730712
1.1732109
1.1731782
1.1730308
1.1730023
1.1729684
1.1729232
1.1728742
1.1729217
1.1729573
1.1729873
1.1731431
1.1731054
1.1729402
1.1729085
1.172871
1.1728211
1.1727633
1.1728159
1.1728555
1.1728892
1.1730647
1.1730207
1.1728336
1.1727979
1.1727559
1.1727003
1.1726314
1.1726904
1.172735
1.1727731
1.172973
1.172921
1.1727067
1.172666
1.1726185
1.1725557
1.1724722
1.1725393
1.1725902
1.1726338
1.1728642
1.172802
1.1725535
1.1725066
1.172452
1.17238
1.1722779
1.1723552
1.172414
1.1724648
1.1727336
1.1726582
1.1723663
1.1723113
1.1722477
1.1721642
1.1720376
1.172128
1.172197
1.1722568
1.1725745
1.1724815
1.1721345
1.1720693
1.1719942
1.171896
1.1717374
1.1718444
1.1719264
1.1719977
1.1723775
1.1722608
1.1718441
1.171766
1.1716764
1.1715595
1.1713595
1.1714873
1.1715855
1.1716714
1.1721289
1.1719792
1.1714768
1.1713825
1.1712748
1.1711351
1.1708828
1.1710352
1.1711531
1.1712566
1.1718072
1.1716076
1.1710073
1.1708941
1.1707657
1.1706003
1.1702916
1.1704691
1.1706079
1.1707307
1.1713789
1.1711037
1.1704171
1.1702857
1.1701378
1.169951
1.1695415
1.1697287
1.1698807
1.1700178
1.1707242
1.1703432
1.1696248
1.1694866
1.1693424
1.1691827
1.1692672
1.1693498
1.1694701
1.1696048
1.1703179
1.1692927
1.1688166
1.1687195
1.1686397
1.1686293
1.1631896
1.1634319
1.1636032
1.1638223
1.1659005
1.1704708
1.1703153
1.1702734
1.1702308
1.1700985
1.1678648
1.1683401
1.1686276
1.1688908
1.1705178
1.1718949
1.1710673
1.17096
1.17084
1.1706034
1.1677488
1.1680189
1.1681718
1.1683402
1.1696168
1.166526
1.1646794
1.164494
1.1643477
1.1641531
1.1685806
1.1686203
1.168714
1.168829
1.1695587
1.170369
1.169457
1.1693105
1.1691745
1.1690721
1.1689943
1.1691653
1.1693223
1.1694738
1.170385
1.1707625
1.1698506
1.1696978
1.1695307
1.1693313
1.1697137
1.1699219
1.1700886
1.1702381
1.1711383
1.1714111
1.1705504
1.170409
1.1702509
1.1700565
1.1703606
1.1705487
1.1706976
1.1708298
1.1716359
1.1718327
1.1710861
1.1709634
1.1708242
1.1706458
1.1709081
1.1710738
1.1712026
1.1713156
1.1720024
1.17215
1.1715209
1.1714173
1.1712987
1.1711459
1.1713607
1.1715014
1.1716102
1.171705
1.17228
1.1723951
1.1718699
1.1717832
1.1716835
1.1715542
1.1717283
1.1718471
1.1719385
1.1720178
1.1724975
1.1725893
1.1721506
1.172078
1.1719941
1.1718849
1.1720257
1.1721262
1.1722034
1.17227
1.1726718
1.1727463
1.1723775
1.1723163
1.1722452
1.1721525
1.1722667
1.1723524
1.1724181
1.1724745
1.1728138
1.1728752
1.1725623
1.1725101
1.1724493
1.1723698
1.1724631
1.172537
1.1725935
1.1726418
1.1729312
1.1729825
1.1727141
1.1726691
1.1726165
1.1725476
1.1726244
1.1726889
1.1727381
1.17278
1.1730297
1.1730732
1.1728402
1.172801
1.1727549
1.1726944
1.1727582
1.1728152
1.1728586
1.1728954
1.1731134
1.1731507
1.1729461
1.1729115
1.1728706
1.1728168
1.1728705
1.1729215
1.1729601
1.1729928
1.1731854
1.1732178
1.173036
1.1730051
1.1729684
1.1729201
1.1729658
1.1730119
1.1730468
1.1730761
1.173248
1.1732765
1.1731133
1.1730855
1.1730522
1.1730082
1.1730476
1.1730897
1.1731215
1.1731481
1.1733032
1.1733284
1.1731806
1.1731552
1.1731248
1.1730844
1.1731188
1.1731576
1.1731868
1.1732111
1.1733524
1.1733521
1.1732111
1.1731869
1.1731577
1.173119
1.1730847
1.173125
1.1731553
1.1731807
1.1733282
1.1733029
1.1731482
1.1731216
1.17309
1.173048
1.1730087
1.1730525
1.1730856
1.1731134
1.1732761
1.1732476
1.1730762
1.173047
1.1730123
1.1729664
1.1729208
1.1729689
1.1730054
1.1730362
1.1732173
1.1731848
1.172993
1.1729605
1.1729221
1.1728714
1.1728179
1.1728713
1.1729119
1.1729463
1.17315
1.1731126
1.1728957
1.1728591
1.1728161
1.1727596
1.172696
1.172756
1.1728017
1.1728407
1.1730723
1.1730287
1.1727806
1.172739
1.1726902
1.1726264
1.17255
1.1726182
1.1726703
1.1727149
1.1729814
1.17293
1.1726428
1.1725949
1.172539
1.1724659
1.1723732
1.1724518
1.1725119
1.1725636
1.1728738
1.1728123
1.1724761
1.1724203
1.1723554
1.1722708
1.1721573
1.1722487
1.1723189
1.1723795
1.1727447
1.1726701
1.1722724
1.1722065
1.1721304
1.1720314
1.1718914
1.171999
1.1720817
1.1721535
1.1725875
1.1724958
1.1720212
1.1719429
1.1718528
1.1717359
1.1715627
1.1716899
1.1717883
1.1718738
1.1723933
1.1722784
1.1717094
1.1716158
1.1715085
1.1713701
1.1711558
1.1713063
1.1714233
1.1715256
1.1721485
1.1720011
1.1713205
1.1712088
1.1710815
1.1709183
1.1706554
1.1708315
1.1709693
1.1710909
1.1718318
1.1716356
1.1708339
1.1707026
1.1705547
1.1703677
1.1700609
1.1702548
1.1704122
1.1705531
1.1714113
1.171139
1.1702374
1.1700879
1.1699212
1.1697132
1.1693194
1.169523
1.1696919
1.1698459
1.1707663
1.1703951
1.1694652
1.169311
1.1691498
1.168969
1.1689984
1.1691188
1.1692616
1.1694125
1.1703637
1.1695555
1.1687744
1.1686553
1.1685542
1.1685006
1.1647607
1.1648948
1.1649943
1.1651357
1.1665893
1.1690818
1.1665733
1.1662583
1.1659451
1.1655231
1.1717199
1.1718726
1.1719014
1.1719015
1.1720145
1.1732595
1.1711564
1.1709305
1.1707353
1.170357
1.1773942
1.1777465
1.1779874
1.1781777
1.1781711
1.1739712