/*--------------------------------*- C++ -*----------------------------------*\
  =========                 |
  \\      /  F ield         | OpenFOAM: The Open Source CFD Toolbox
   \\    /   O peration     | Website:  https://openfoam.org
    \\  /    A nd           | Version:  7
     \\/     M anipulation  |
\*---------------------------------------------------------------------------*/
FoamFile
{
    version     2.0;
    format      ascii;
    class       surfaceScalarField;
    location    "150";
    object      phi;
}
// * * * * * * * * * * * * * * * * * * * * * * * * * * * * * * * * * * * * * //

dimensions      [1 0 -1 0 0 0 0];

internalField   nonuniform List<scalar> 
76358
(
36.224229
-0.010668305
2.0242544
1.4735319
-1.4799788
-2.0330029
0.059677662
-34.805413
-0.00012565595
2.1446399
2.1312831
-2.0917167
-2.0990946
-1.4913982
1.4738437
2.0328155
-2.0565816
-0.058787836
-36.224384
-1.4915679
1.47364
-2.0566072
2.032818
-34.67924
-2.0384933
2.0209129
-2.0309067
1.9953891
0.00029829902
-34.80602
2.1313862
-2.0917046
-2.0984971
2.1454264
0.00022360736
0.01032885
1.8114339e-05
-2.0830875
2.0771569
2.0782066
-2.0877421
1.4734182
2.0242461
-2.0330401
-1.4800496
2.0771086
2.0777987
-2.0876785
-2.0830162
-1.6853804e-05
-0.053791585
10.410618
0.36970971
-0.37458338
-0.53888705
0.53276141
-0.0098327877
-8.2588853
-0.005869168
9.666737
-0.0073997126
-7.6830053
10.341283
0.0060261829
-7.4062281
7.4264691
-0.034196259
-0.033956109
0.0016146476
0.0019029733
-9.255882
0.37664687
-0.38687425
-0.52567858
0.51707078
-0.059670084
-36.223897
1.4738383
2.0326805
-1.4913692
-2.056625
-2.0991471
2.1445409
2.1310812
-2.0918236
-34.805199
0.011828953
-2.4922936
-2.5114935
-2.1911891
-2.3381538
0.38570073
-0.38180793
-0.38897703
0.53497783
-2.5291077
-2.4592064
-2.1980727
-2.2178517
-0.38735535
0.54459002
0.54410083
-0.38250324
-0.00016404627
-0.42679263
-0.016048829
-2.0482175
-0.00025860806
-0.03779009
0.010338182
-7.810697
-0.52133073
-0.50243865
0.41329874
-0.00015956109
0.12897757
0.32608743
-0.37486943
-0.52724303
0.41987645
-8.2486144
-7.6940409
-0.12953614
-0.022965241
-0.095116488
0.023202961
9.3844621
0.3767964
0.36874731
-0.380421
-0.38618961
-0.38634121
-0.380593
0.36855594
0.37664095
-9.3878261
7.6940888
-0.094633472
-9.6668156
-0.12980357
-0.12839054
0.33206021
-0.37553892
0.41651746
-0.36673245
-0.36658025
-0.375344
0.41666453
0.33223983
-1.816718
-0.003188628
-0.014239324
-0.046749909
-0.044505495
-2.475871
2.0863943
0.087006604
-0.097521526
-0.13036943
0.10712348
-2.6285402
0.0019138536
-0.024460161
0.018500263
-0.63962353
-0.61813227
-0.55935189
-0.61068646
0.023126665
0.17051796
-2.0827617
0.16538635
0.083887309
-0.096587024
0.10180921
-0.12891473
-0.11072264
-2.3434718
-0.47664917
0.0020902907
0.0058292673
-0.004002465
-0.0018883712
-0.66486689
0.52127364
0.00061719251
-0.65499502
-0.0012677129
0.0072152506
0.0051398828
2.6758862e-05
-0.57124576
0.0049905418
0.014091813
-0.51593093
0.012909699
-0.012996965
-0.62312125
-0.010615811
-0.57642596
8.9435847e-05
-0.0072890081
-0.0012814314
-0.57593237
0.010633619
-0.02385971
0.020711301
-0.032371945
0.02578118
-0.00010660496
-0.12897397
0.0013289658
-0.5278911
-0.00074034917
-0.52702326
-0.0064555651
-0.006793487
0.095426533
-0.097288252
-0.13124492
-2.0841352
-0.0095615217
-0.37286343
0.36697086
-0.53639914
0.53410622
0.51281663
-0.51893782
-0.53919884
-0.0001127875
-9.9080265
2.5266085
-0.13197625
0.1310479
0.1338104
-0.13488329
-0.0023536823
-1.9946029
0.0030347611
0.10782304
-0.13105187
-0.13414916
0.11331735
2.0129316
-0.13385503
0.11279693
0.10766203
-0.1293904
-2.4694738
-7.5212803e-05
-0.03316847
-6.6136945e-05
-0.0060931842
-0.64121978
-0.61819715
-0.56428268
-0.57396229
0.17261123
-9.7304563e-05
-0.62632806
-0.64151586
-0.57360863
-0.56844008
0.17128436
-0.52567591
0.0051637255
0.007147051
0.0001762628
0.0013081572
-0.65947992
0.53195611
0.0012901048
0.00026358558
-0.6674827
0.0073180034
0.001603324
-0.0047003655
-0.57674014
0.0016986708
0.013451204
-0.57482225
0.013819391
0.0014138311
-0.56294222
-0.011896267
0.00051754496
-0.56263612
-0.011917628
-0.0013411342
-0.00032596022
0.57580612
-0.01177312
-0.56184836
0.5308151
0.00031501375
-0.66606269
-0.0033584338
0.0073540148
-0.52140359
0.0075349941
-2.4966492e-05
0.0013478143
-0.65180125
-2.5533354e-05
0.57251371
-0.011661989
-0.55980125
-2.8615347e-05
0.0024891074
0.013309689
-3.2778196e-05
0.013385626
-0.0017046737
0.58424309
0.010929494
-0.57736956
-0.0027127292
-0.0050560791
0.58386931
-0.57809769
0.011030985
-0.0045006583
0.57995667
-0.57819026
0.011497559
0.0016533259
0.57178237
-0.57507716
0.011232622
-0.1003616
0.6252913
-0.52023276
0.0098660792
0.11083379
2.2114742
-2.3687119
-0.12802115
-0.092477705
0.087882247
-0.092439149
-0.12796628
0.10041637
0.087925324
0.044531747
2.0827485
0.083949381
0.10186863
-0.12885518
-0.096523553
-2.343466
0.37489796
1.8167137
-0.046544127
-2.4758798
10.417408
0.32607181
0.4200125
-0.52709827
-8.2487232
-0.0097774627
8.3785295
-0.19778807
-0.0092366279
-0.060005861
-0.012672585
-9.255696
-0.0019947012
0.51715447
0.37658989
-0.3869399
-0.52556632
0.012703563
0.53505479
0.38561646
-0.38189632
-0.38890643
-2.3381683
-2.4923062
-2.5114255
-2.1910859
0.29753801
8.7979988
-0.38709398
0.54480387
-0.38185159
0.54466529
0.00027931927
-2.5290992
-2.2177096
-2.459098
-2.1977294
8.3859471
0.00019134551
-10.128744
-0.071658371
0.00018004753
0.51989498
-0.52629255
0.51813669
-0.52210789
0.00027124881
-0.0039648465
-2.0939258
0.0039585807
0.0014418759
-0.0054047611
0.0022225056
-2.0920513
-1.8933656
0.0053013542
-0.0021935737
-0.0020704443
-2.6629158
2.0921218
0.0046507889
-2.6262499
0.0022198309
-2.3239756
0.0039697689
-0.0046357211
-2.3253968
0.0054309309
-2.6261755
0.0018516605
-0.0072675172
0.014188667
-2.1024521
0.0044102541
-1.906
0.0071339521
-0.014695079
-0.014545197
-2.640464
2.1025001
-0.012222709
-0.00033841918
-2.4936111
0.014218314
0.0041437017
-2.3066181
0.0049019156
0.0047262718
0.012271624
0.00072342024
0.00052749994
-2.3323633
-7.4505288e-05
-2.4935576
2.1034854
-0.00045672636
0.002737593
-2.4929347
2.6278601
0.023232361
0.0016070076
0.0081266943
0.0013667431
2.3132879
0.0033450719
-2.312788
0.0030096631
-0.0048691958
-2.3042311
0.00025921015
-2.087197
0.00016486806
0.0095607086
-2.6177062
0.0002073355
-2.304039
0.00033890708
-0.0033879365
-2.2893505
-0.025615454
0.00041942245
0.013895501
-2.2985779
0.010536177
0.0042735995
0.00897542
-2.3115602
-0.0036759926
0.00052937948
0.013946907
-2.2958772
2.097276
0.00023947642
-2.4803055
0.00022667383
-0.54464777
2.6174905
0.025793804
-2.0970622
-0.0013476445
0.29728816
8.7976574
-0.012388098
-0.38175713
-0.38681368
0.54495167
-2.4590889
-2.1976715
-2.5290226
-2.2175239
2.0308384
8.3858757
0.0094566529
-10.128691
1.9954324
2.0211457
-2.0382091
-34.679244
0.0022873125
-2.0917619
-0.51715828
-0.0054997091
0.0038962257
-0.0024699716
-2.323419
0.0026630716
-0.0042079473
-2.3126155
-0.0049851459
-2.3038043
-0.51812387
-0.0012381732
-2.0870543
0.071428507
0.0023167644
0.52002226
-0.52602256
-0.52206012
0.012882396
-8.3784423
-0.059598796
-0.19733659
-10.417377
9.2552143
0.53518902
0.38578725
-0.38164765
-0.38863683
-2.5113702
-2.1909107
-2.338011
-2.4922583
0.51726511
-0.52531834
0.37673671
-0.38670585
0.0038598888
-2.0917612
-0.0054015496
-2.0936271
0.001119546
0.0084108531
-2.6274473
-0.001732724
0.009702968
-0.0029007179
-2.3034868
-2.3119939
-0.0053324865
0.0028462285
-0.023551704
-2.297635
0.011143426
-0.0047968624
-2.2886392
0.014211835
-0.0039272849
-0.0036339141
0.014415095
-2.2949637
-0.0024486547
-2.4800585
2.1031027
0.00017162323
-8.7834287e-05
-2.4924489
-0.0042922488
2.6257929
-0.0072681289
-2.1021138
0.014485746
0.0049080567
0.0020725691
-0.0047102158
-2.3247856
0.52543048
0.0019716016
-2.6257954
0.3766319
-0.38681031
-9.2552169
-1.8931661
-2.6626381
-0.38569047
-1.9057897
0.0073611935
-0.38173327
0.53507573
-0.38875062
0.012577761
-2.3380282
-2.1909287
-2.5113712
-2.4922581
-0.014525762
-0.01443944
-2.6402054
-0.011937151
-2.4931676
0.00062542402
2.3059476
0.012142485
0.00097546806
-2.3316281
0.0096882883
-2.3104196
0.011507288
0.013282698
2.2689688
-0.0090456939
-2.2750248
-0.0011506749
2.230238
0.02499506
-2.22816
-0.012581614
0.024137518
2.2323392
-2.2310989
-0.0089803472
2.2708832
0.011904625
-2.2774137
0.00066757417
0.0037616294
2.2986001
-2.3114822
2.1036097
0.002376556
-2.4930125
0.0012988571
0.022993909
-2.0975735
0.024933772
-9.5080637e-05
0.0030045821
-2.4805818
-0.00012300178
2.2893554
0.013190099
-2.2956042
-0.00017502085
-0.0029489463
0.013082571
-0.00011554957
0.010484934
0.0095570396
0.010087209
-2.2307722
0.017894207
-0.0002315922
0.022777108
-2.2281963
-0.00025830388
2.0506259
-0.0005774233
-2.0018863
-0.0012474977
-0.019047408
-0.00055163813
-0.0010111872
0.00081095237
0.019583537
-0.0092745699
-2.0503415
-0.018579804
-0.0011522248
-0.023143009
-2.0012893
-0.0014914749
2.2283409
-0.013629711
-2.2252845
0.00071308417
-0.010704888
-0.013645948
0.00044250655
-0.010565565
-0.0051337422
-2.2975424
0.0034585254
-0.023254351
-0.014282834
-2.1021155
0.0044742303
-1.0340553e-05
-2.4931528
-0.00040284631
0.38702534
2.1030698
0.0027153161
-2.492418
0.0043310621
-2.3103465
2.2880698
-0.0035334817
-2.2942201
0.00038506319
-0.025467852
0.00029521069
-0.54446191
-0.0015891245
-2.0968807
0.00015415282
0.5447087
-0.38190295
0.00016562074
-2.2175409
-2.197591
-2.5289984
-2.4590174
-2.479772
0.00017020139
0.010115018
0.00019427881
-0.57251219
-0.57894185
-0.0057896033
-0.58413742
-0.57556523
-0.17313502
0.020187715
0.00048645773
-0.56683063
-0.56962312
-0.0072035223
-0.58250667
-0.5786153
0.029416045
0.00098996091
-0.017080661
-0.56554201
-0.55522341
-0.53819815
-0.55945861
0.00065369275
-0.0018913374
-0.032531428
-0.53187104
-0.5007605
-0.41020836
-0.49526433
-0.029483049
-0.0015439766
-0.030961421
-0.50159812
-0.53390966
-0.49673737
-0.40699905
-0.019634476
-0.00024672803
-0.015699037
-0.55654577
-0.56619531
-0.56001709
-0.53934091
-0.0095269288
-0.0065666488
-0.5699925
-0.58272561
-0.57892888
-0.56730384
-0.00019431171
-0.0054158683
-0.57914863
-0.57572398
-0.57281471
-0.00015115949
-0.014989491
-0.57811294
-0.57901524
0.008799679
0.049240924
-0.59876684
-0.57393244
-0.017550637
-0.16528691
-0.049075604
0.014258569
-0.018300786
-0.0030222815
-2.0863572
-0.0243653
0.016287184
0.087012317
-0.09751726
-0.13032226
0.10716552
-2.6285307
0.0021927955
0.63962532
0.0058359987
-0.47664398
0.0021443565
-0.6106845
-0.6181092
-0.55931303
0.023402175
0.17057792
-0.51592234
3.2405972e-05
0.012910071
0.0018816604
-0.012931482
-0.62311134
-0.010616365
-0.0039410949
-0.66486204
0.52125955
0.0006458973
-0.6549809
-0.0011879044
0.007243185
0.0052170447
-0.57122829
0.0050716603
0.014119196
-0.57640816
0.00016056343
-0.007266281
0.010561779
-0.57591846
-0.0013087736
-2.6066342e-05
-0.023858761
0.020712264
-0.032360469
0.025790329
-0.12453019
0.00049788766
-0.48124706
-0.0072701966
-0.0056533338
-2.0756946
0.091234965
-0.095359469
-0.12870597
0.12297866
-0.36693685
-1.7528417
0.0069927589
-0.37290832
-0.53630259
0.52715097
-0.0090945504
-10.410844
-0.011535614
-0.017550947
-2.4770845
0.093567728
-0.093758694
-0.12641015
0.12688405
-0.13021754
-2.3434852
-0.098189524
0.66475539
0.0012831506
-0.47531236
0.0010310759
2.0841574
-0.00082293022
0.13221776
-0.13030981
-0.096668559
-2.6406169
0.095426377
-0.097289709
-0.13119977
0.12901556
-0.0061820136
-0.47643801
-0.0012647964
-0.001796116
-0.0025356863
-0.0014632162
-0.60485661
-0.0054293195
0.00098583751
-0.00042057774
-0.57749829
0.023417879
0.032019535
-0.03218537
-0.023700696
0.52788295
-0.0015441089
-0.65908846
-0.00065596153
-0.13108581
0.65946236
0.0027637586
-0.53250213
0.00070585926
-0.53428311
2.5265882
-0.13193544
-0.13477646
0.13390656
-0.0021393454
-1.9946282
7.8108494
0.51321452
-0.51859912
-0.53906874
0.00017587538
-9.9084467
0.42700353
-0.52112849
-0.50200797
0.41369923
0.00018826138
-2.0481665
-0.037549291
-9.2696118e-05
0.1078714
-0.13100615
-0.1340441
0.11341607
0.0032488054
0.62632631
0.0071985602
-0.52565851
0.0052220909
-0.56841489
-0.64148397
-0.57353213
0.0063628787
0.17153774
-0.57479678
0.0047725471
0.013879558
-0.0013659903
0.0014912563
-0.56291721
-0.011844268
0.0002438084
0.53192807
0.0013803448
0.00034499013
-0.6674537
0.0074007725
0.0016814918
-0.57670456
0.0017913238
0.013554431
0.00059874494
-0.56260129
-0.011830419
-0.0014699964
0.57575765
-0.0002488619
-0.56180061
-0.011639441
0.13374537
0.53078243
0.000375715
-0.66602852
2.0128351
0.11290705
0.10781233
-0.12922915
-2.4694226
8.3481037e-05
-0.032723194
6.6836663e-05
-0.64120923
-0.57389561
-0.56415894
-0.61815748
0.17322204
0.00010952849
0.0074674786
-0.0033057425
-0.0024172718
0.013538118
-0.0076827274
-0.57244664
0.013518006
3.5147241e-05
-0.52135808
2.4455016e-05
0.0015146338
-0.65175361
2.745678e-05
-0.55973603
-0.011476821
3.1979377e-05
-0.00014737014
-0.0030190385
3.7892826e-05
-0.54449573
-0.032318686
0.026244132
0.026236194
-0.032273422
-0.00043525559
-0.0029775374
-0.54635158
-0.032399211
0.026253561
-0.032312441
0.026274493
-0.00064650675
-0.0028987815
-0.032465508
0.026171753
0.026282438
-0.032363823
-0.54711611
-0.54811203
-0.03256033
0.026060054
0.026204499
-0.032418218
0.0007268219
-0.54930228
-0.032404263
0.032222947
0.032109088
-0.0321839
0.00029898378
-0.00062283741
-0.66463203
0.53601292
-0.67079477
-0.00067980341
6.2347264e-05
0.00027285975
-0.13353964
-0.53466036
-0.0005331918
-1.9569929
-0.13432631
-0.12982194
0.12916174
9.2378978e-05
-0.0015157903
0.13611313
-0.13392478
0.13164829
-0.12947281
-2.4785363
9.627046e-05
0.13367998
-0.1316347
-0.1343491
0.13652969
-2.5402616
-0.00075478593
-0.53201765
0.00071968958
0.0011007017
-0.52727104
0.00092870476
0.0010291906
0.00094486683
-0.00073127048
-0.65882364
3.7573748e-05
-0.664748
0.48126083
0.00060610407
-0.0034946633
-0.60474484
0.00024815763
0.0040711838
-0.57730837
0.00022906347
0.032601737
0.023946372
-0.023628509
-0.032161714
0.00029511939
0.023991963
0.032680828
-0.032234963
-0.023701386
-0.57678897
-0.0010379061
0.54932918
0.032833917
0.00022595053
0.032747612
-0.032498438
-0.032313902
-0.5489913
-0.00055844526
-0.66486308
0.53490533
1.787547e-05
0.0010836029
-0.67091436
0.0011782342
0.00018170752
-0.00029421832
0.5477204
0.00028085962
-0.54774694
-0.032185197
0.032724776
0.032783637
-0.032105079
0.032830862
-0.032370805
-0.032151464
0.032753852
-0.00023702059
-0.13131739
0.00032977755
0.16390681
0.00014867858
-0.00028592182
0.16345855
0.00027510348
-0.13108302
-0.023588527
0.1651831
-0.11861499
0.00068085835
-0.13128631
0.64880407
-0.00031284812
-0.51344225
-0.02351593
-0.03269293
0.032928856
0.13007957
2.1290951
0.098987341
-0.098028933
-0.13080783
0.13121794
-0.13087942
0.098935113
-0.098086682
-2.392016
0.011495851
2.0756887
0.093497589
-0.093824052
0.12681925
-0.12647439
-2.3434646
1.752824
-0.017737982
-2.4770466
0.005686341
0.091170055
-0.095428659
-0.12877098
0.12447101
0.12310278
-0.4764391
-0.00050223304
-0.0026035669
-0.0017989391
-0.66475351
-0.0010115369
-0.0016347899
-0.65909326
0.0015380602
0.023418515
-0.023700723
-0.03219697
0.032009992
-0.0005036926
-0.57750909
0.48125275
-0.0054233319
-0.60486127
-0.0072661088
-0.13217668
-0.51128603
-0.023939202
0.019878623
0.64621693
0.025837813
-0.03298682
0.0011892669
-0.13194341
0.10181393
-0.098920151
0.10185524
0.13223397
-0.13187878
-0.098872889
0.023166302
0.00071105176
0.032450736
-0.032644052
-0.023526722
-0.64881009
0.1644477
0.00044425349
-0.11843799
0.00013085759
0.11800334
-0.00065002174
-0.000704538
0.15595153
0.0018061337
0.00083560486
0.01495178
0.0079906404
-0.15532618
-0.15406926
-0.14232007
0.0023584481
0.0022989914
0.52691575
-0.01503539
-0.030251253
-0.57180782
-0.0015070418
0.027404272
-0.57910955
0.011142624
0.0037600645
0.0075582396
-0.15356105
-0.15628505
-0.14449017
-0.1425335
0.0031572301
0.012233626
0.5809018
0.00020929415
-0.1478428
-0.15568872
-0.14313429
0.003765479
-0.14288615
0.030279206
-0.012193435
0.5827731
-0.6188765
-0.0022881975
0.5269125
-0.014980793
-0.57180345
0.52022621
-0.014888277
-0.64620877
0.62529243
0.0098564256
-0.0015962088
-0.59877517
-0.57390817
-0.57175636
-0.017608211
0.015285064
-0.0014565476
0.027375631
-0.011244051
-0.57910142
0.011140113
0.0038406371
-0.57506236
0.0045849308
0.0079997581
-0.15595138
-0.15532584
-0.15406224
-0.14231085
0.0024336308
0.0075520855
-0.14448367
-0.15628583
-0.15356265
-0.1425275
0.0032251161
0.58090274
0.00018542313
0.0038224266
-0.14313008
-0.15569013
-0.14784692
-0.1428848
-0.00016476926
0.58532736
0.0030309749
0.00384928
0.63726208
0.00012616177
-0.58534195
-0.57784264
0.009226411
0.0090254686
0.0030503695
0.0037782677
-0.58100228
0.0046430451
0.0045979352
-0.15633871
0.0041223676
0.0040830929
-0.1443847
-0.1443816
-0.14370802
-0.0063933431
-0.0063843177
0.0012099028
-0.14598999
0.0012190431
-0.001254925
-0.022396942
-0.13193461
0.0013503315
-0.0021278622
0.0013975441
-0.13016987
-0.026043451
-0.0011453766
-0.025694109
-0.1300919
0.0012424785
-0.002012618
0.0010977452
-0.13115329
-0.02536226
-0.13066136
0.00096651365
-0.00061349994
0.00022447623
-0.16390918
0.00026982466
0.14358278
0.00065175151
-0.14541693
0.00029907959
0.13006979
-0.16287368
-2.7652752e-06
0.0016074186
0.0010099
0.002353027
0.0014836114
-0.14404981
0.0012722726
0.0017381436
0.00064673588
0.00076090811
-0.14519944
0.00039373187
0.032940252
-0.16372934
0.00050700675
-0.49403814
-0.032136976
0.039254375
0.032249869
-0.032522564
-0.031781024
0.032018426
-0.031884458
-0.56032749
-0.0004633043
-0.13153202
0.00046704674
4.8808454e-05
-0.13149703
1.9534079e-05
0.00034459474
0.00020219795
1.2529467e-05
-0.1647004
-0.00013518363
-0.16518566
0.13088594
0.00024848582
-0.16346382
-2.7590211e-06
9.3040926e-05
6.0062826e-05
-0.14574751
0.00032811723
0.00011503862
0.00035125486
-0.14581983
0.00017174487
-0.00025143286
0.00043585611
0.1454962
-0.1455614
0.0002320294
0.00022624661
-0.16451974
0.12999905
0.00027909769
0.00030780231
-0.16214073
0.16175218
0.00061133507
0.00012100895
-0.00052822134
0.00055852431
0.14368277
0.00076169534
-0.14469359
0.00048181046
0.0017950623
0.0018689664
-0.14301526
0.0011713957
0.0019021752
0.00020762586
0.00064369902
-0.14370405
0.00059916626
0.032225596
-0.16192393
0.00029461445
-0.039220474
0.026057123
-0.032211493
-0.023733533
0.022407361
-0.52539293
-0.023742979
-0.0011747983
-0.49403504
0.025378682
-0.032923403
-0.032122625
0.025708493
-0.51128055
-0.02392056
0.019895815
0.025854813
-0.03296931
0.00069341377
0.032468183
0.023185391
-0.023506626
-0.032624949
0.032267532
-0.032503164
-0.031764359
0.032033439
-0.56032354
-0.03192442
-0.00046267089
0.16372707
6.7847207e-05
-0.13152969
0.00046498112
-0.00044537079
0.16390599
3.892388e-05
-0.13149403
0.16444481
0.00014879947
-0.11843571
0.11800145
-0.00064849098
-0.00068747661
0.0018076228
0.00085053195
-0.13065898
0.00098240854
0.0020131728
-0.00059528845
0.00022449625
0.00026462985
0.14357842
0.00065520776
-0.14541249
0.0003189394
0.13006539
-0.16286824
1.9533102e-05
0.0016124004
0.0010316125
0.0023574638
0.001504918
-0.0011131868
0.0012740217
-0.14404631
0.0017592614
-0.13115158
0.0011444192
0.00050556206
-0.00062898068
0.13009082
-0.00051152269
-0.16175052
0.00055415969
0.001256788
0.0021242932
-0.14368046
0.0017948128
0.0018889566
-0.00076233328
-0.14469098
0.00076067102
0.00050065615
-0.14519572
0.00041330319
-0.00033119484
-0.14549209
0.00050000839
0.00019541226
-9.8020969e-05
-0.14574287
0.00013613332
-0.13088149
8.3561438e-05
0.00011624266
0.00025329739
2.2150594e-05
-0.00034368224
0.00022286667
1.1478175e-05
-0.16469701
0.00035406289
-0.1458152
0.0001944314
-0.00027202598
0.00043623331
-0.14555706
0.00025481631
0.00022364368
-0.16451705
0.12999715
0.00032786975
-0.16213833
0.00027259488
0.00013916593
0.00060588441
-0.14486096
0.00054415311
0.00026500265
-0.14490937
0.0004961821
0.00031633554
-0.00021171755
-0.00038603531
-0.14503618
0.00044301698
0.00028154433
-0.032371878
-0.00034874018
-0.13016486
0.00053543179
-0.49567103
-0.032585704
0.032760049
-0.031897372
0.033373134
-0.0010587221
-0.032546552
0.032961045
0.032495433
-0.031948856
-0.032109501
-0.56149281
0.023889146
-0.023443833
-0.032631153
0.033210348
-0.64982798
0.16522769
0.00047161826
-0.11850422
0.00068602361
-0.0003281248
-0.00020361156
0.13169814
8.0598725e-05
-0.16478042
-1.9372586e-05
8.2480545e-05
0.00052836288
-0.14595775
0.00032981362
0.00017031672
-0.00024749111
-0.1460636
0.00028319737
0.00015074906
-0.16371729
2.1454678e-05
-0.13104837
0.00021659447
0.0002669354
8.7560367e-05
0.00015384358
-2.6265957e-06
-0.16352211
-0.00038565728
-0.16517622
0.13164636
0.00020943088
-0.00012016795
-0.16475244
0.00025760947
0.00050470668
-0.14599045
0.00023864117
0.00016240936
0.00016708325
0.00012298578
-0.14591725
-0.00020252267
0.0001799873
0.14574555
0.00013687922
-0.14569281
0.13170024
4.9656447e-05
-0.16461914
0.16461636
0.00029115311
0.00025848041
0.13172534
0.00013141137
0.00015453188
0.00014796335
-0.14568855
0.0002232324
0.00032640059
-0.14579243
0.00019208935
-0.00018120921
-0.14513978
0.00037178854
0.00023941996
-0.16228403
0.00019512359
-0.13018984
0.00026442528
0.00042797042
0.00020100778
1.6791163e-05
-0.16230684
0.14511451
0.00019094637
0.0001538678
-0.14507833
-0.00026428409
0.00028908602
0.00021435161
0.00018595897
-0.00026030905
-0.14440545
0.00029623397
0.14438243
0.00017305536
-0.00022940683
0.14565309
0.0001421152
-0.1456637
0.16406022
0.00012291957
-0.1313117
0.00029126326
0.0001022228
0.14559156
0.00017072791
0.00033280898
0.14550453
0.0001952214
0.00039190452
-0.00029950198
0.14537819
0.00041192645
0.00020834607
0.13110776
0.00011743556
0.16313727
0.00011804095
0.00015896189
0.13071112
-0.00032268358
0.00020803386
0.15575462
0.0016840871
0.00036408051
0.57816856
0.0079698371
0.0022785214
-0.14403835
-0.14309302
-0.15494156
0.57996319
0.011535101
0.0051347543
-0.57810927
-0.5838351
-0.57896383
0.008963438
0.0057960468
-0.57972809
0.004358013
0.012636545
0.0025027224
0.0073415419
-0.14494228
-0.14613973
-0.14426245
-0.14303293
-0.0078213414
0.57820029
0.0071077138
0.0011853099
-0.14485539
-0.14516369
-0.1432527
-0.14289747
0.57806731
0.00090742154
-0.15513502
-0.14327319
-0.14299567
-0.15494408
0.011106187
0.0018152062
0.012757628
0.0019430323
-0.0033480121
0.58314272
-0.57487455
0.0056043291
0.0022331439
0.58577825
0.0049391781
-0.57757962
-0.57644005
-0.57100316
0.0071099687
0.015883872
-0.57550831
0.0031031558
0.0055473286
-0.0058336341
0.0035498458
-0.14369734
-0.14461795
-0.14322725
-0.14247231
0.0049126957
0.0028497477
-0.14355563
-0.1448807
-0.14395996
-0.14270275
0.0059492219
0.0017364538
-0.14340074
-0.14380937
-0.142936
-0.14245665
0.57220617
0.0028224567
-0.14272175
-0.14350304
-0.14294448
-0.1420347
0.0056744115
0.0031854827
0.0067250134
-0.0057058814
0.57023414
0.0017624972
-0.57004101
0.0069357351
-0.012752618
-8.4243214e-05
0.58287125
-0.57350713
-0.011053649
0.57911841
-0.57726741
-0.0016069417
0.58424551
-0.0026205836
-0.57732525
-0.5756637
-0.57267216
0.010150415
0.00026199996
-0.57582163
0.011001576
5.3775137e-05
9.738657e-05
0.0079363198
-0.15480079
-0.14296556
-0.14291552
-0.15470219
5.1894369e-05
0.0079027568
-0.1550027
-0.14307034
-0.15484022
-0.14294937
0.00025605107
0.0071770802
-0.14482332
-0.14495793
-0.14300144
-0.14282978
0.5761629
0.0072632737
9.0882571e-05
-0.14279705
-0.14287065
-0.14485674
-0.14480026
0.012782637
0.00010274245
0.57897067
0.0060337443
-0.57247723
0.00017121363
-0.56746554
0.00064214978
0.020282598
-0.56818675
0.00033233728
0.0081851204
-0.0019575686
-0.0065993671
-0.14143876
-0.14271684
0.00031000325
0.0076643961
-0.14096988
-0.14247873
-0.0062614634
-0.14215885
-0.14310363
-0.14268487
-0.14149031
0.0065230052
0.00085130036
-0.14331668
-0.1435321
-0.14258416
-0.14227341
-0.14336984
-0.14232221
0.00016757331
-0.14327065
-0.14216689
-0.00026443604
0.0012886623
-0.14284211
0.00012715284
-0.0016791054
-0.00028993806
-0.0016578473
-0.14289412
0.0012607864
-0.00046272308
-0.0016167842
0.0012048263
-0.14294736
-0.00043955709
-0.0015750982
-0.14300713
0.001158325
-0.00075770559
-0.001542763
0.001116034
-0.14306449
-0.00072840038
-0.0015141444
-0.14316196
0.0010911668
-0.001921013
0.0012257411
-0.14323563
-0.0016781897
-0.0014105087
0.0011687377
-0.14301451
-0.13016957
0.0012503401
0.00028890128
-0.00019247094
-0.16192333
0.13193499
0.00016218837
-0.0088843255
-0.14665748
0.0013614464
-0.14366905
0.0015056671
0.0018087628
-0.00063985988
0.0006396317
-0.14422664
0.00072001351
-0.14370292
0.00061675205
-0.00027749207
-0.14383391
0.00057622054
0.0003764211
-0.032414849
-0.12954263
0.00036253692
0.032398934
-0.032136146
-0.59138647
-0.023885101
0.024686243
-0.023872809
-0.032118496
0.024697187
-0.12954371
0.0003693808
0.00026066958
0.00039173025
-0.16221948
0.00042698589
-0.0004989286
-0.14388875
0.14383571
0.00038141113
0.00056228958
0.14486409
-0.14491298
0.00029361756
-0.00049914996
0.00054603661
0.00024461911
0.00017453734
-0.00037537073
0.00057181327
0.14382401
0.00027523595
-0.14412115
-0.00010881305
0.14502474
0.00020755538
-0.14538381
-0.032217748
0.16314286
0.00013837949
-0.13111224
0.00078458346
0.00020696882
0.5481322
-0.5493188
0.032090684
-0.032205628
-0.032411448
0.53251199
-0.00070059871
-0.66463785
0.00063392654
0.0027057013
-0.53603116
0.0028068738
0.00018591911
-0.00077351114
-0.67080886
-3.2678519e-05
0.54714436
-0.5477443
-0.032236633
0.032065071
0.032126343
-0.032161462
0.00024007847
-0.00055798271
-0.032482145
0.026154895
0.026253587
-0.032395771
0.00034253052
0.026052015
-0.032568141
-0.032439095
0.026186319
0.15575481
-0.13071547
0.00034700863
0.0016755704
0.0021912222
0.007932936
-0.15494976
-0.14310663
-0.14404104
0.0077495297
0.00080814238
-0.15513522
-0.15495342
-0.14327881
-0.14301431
-0.0024166696
0.57820563
0.0010733774
0.0070609938
-0.14486046
-0.14515791
-0.1432496
-0.14290583
0.57973703
0.0073239326
-0.14613715
-0.14494865
-0.14304064
-0.14426102
0.0042738519
0.012607856
0.0018076615
0.012687563
-0.5772763
-0.0017406813
0.012605504
-0.007778559
0.0001163964
0.0070752204
-0.14299637
-0.14494797
-0.14482827
-0.14284337
-0.00020227201
-0.14308047
-0.1550032
-0.15485133
-0.14297582
0.57589555
0.0077420911
-0.14298536
-0.15480441
-0.15471735
-0.14295473
-4.0049873e-05
0.010810818
-4.2289013e-05
-0.57621305
0.012528777
-6.030541e-05
0.0070631419
-0.14287401
-0.14484784
-0.14481177
-0.14283152
-5.2562777e-05
-0.00065762707
0.57241112
0.0064092023
-0.14227276
-0.1433274
-0.14326018
-0.14216588
-7.3317005e-05
-0.0016126851
0.0062070694
0.573406
-0.1425422
-0.14349857
-0.1432973
-0.14224472
-0.0027694429
0.57482001
0.0059395677
-0.14379318
-0.14339167
-0.14244076
-0.14291622
0.57756237
0.005839994
-0.14487477
-0.14355577
-0.14269961
-0.14395225
0.58574062
0.0032669082
0.0049409697
-0.58311339
-0.57092189
-0.57639624
0.015948466
0.0055838302
0.0020772693
-0.0030397417
-0.57207051
0.0030312744
0.0067409166
-0.57547452
0.0055774496
0.0034849008
-0.14461009
-0.14322013
-0.14368742
-0.14246084
0.0049421367
0.0027001541
-0.14268403
-0.14347216
-0.14291024
-0.1419862
0.0057064297
0.56971674
0.0016929285
-0.14302288
-0.14260388
-0.14205432
-0.14136823
0.0065468592
-0.00562191
0.0015200703
0.0068573539
-0.00025873931
0.0058336158
-8.1341665e-05
-0.56775281
0.0079375127
-0.00013485369
-0.14258131
-0.14124727
-0.14238811
-0.14083452
0.0075109555
-0.00011041877
-0.0017438086
-0.00046301446
0.0016113375
-0.14218272
0.00019690112
-0.0012530357
-0.00032173731
-0.14256889
0.00012708857
-0.001628348
-0.14281863
-0.00020916673
7.5707682e-05
-0.0013121014
-0.00014847472
4.9448482e-05
-0.14309123
-0.0026804537
-9.8815539e-05
-0.14340868
2.8004389e-05
-0.0018567179
-6.9819045e-05
1.6117544e-05
-0.14375539
-0.026201473
-3.8014647e-05
-0.13041943
-2.2133254e-06
-0.0028453077
-5.883101e-05
-0.54454824
-0.032362788
-0.032335948
0.026179472
-3.1073859e-05
-0.12901341
0.00059839224
-0.5262056
-2.5939769e-05
-1.9569706
0.13344263
-0.13443451
-0.12999108
-7.0745505e-05
-0.0013076393
0.13601194
-0.13401833
-0.12962554
0.13148728
-6.0360313e-05
-2.4783958
0.0010858413
-0.13166505
0.13364381
0.13642922
-0.13444361
-2.5401596
0.098192921
-0.096662032
-0.13034703
0.13217575
-2.6405461
-0.47530808
0.0012147581
0.0010303215
-0.0010957953
3.8052714e-05
-0.66473642
0.5272693
0.00092237623
-0.00082227833
-0.65881223
0.00090442837
0.00066212109
-0.00016969988
-0.57731329
0.00013999384
0.032591824
0.0239477
-0.023627588
-0.032173602
-0.48126177
0.0040803678
0.00052623477
-0.0034839056
-0.60474043
0.00020277269
0.023993719
-0.023699734
-0.032246607
0.032670144
-0.57678497
-0.0009820006
0.00012174216
0.54933795
0.032725865
0.032828568
-0.032504513
-0.032337694
-0.54898714
0.53201523
-0.00063770003
-0.66484686
0.00063996103
0.0010433417
-0.53490653
0.0010831427
8.3715104e-05
0.00098832411
-7.9279683e-05
-0.67089689
0.54776028
8.5178696e-05
0.032727234
0.032706649
-0.032357703
-0.032326068
-0.5474855
-0.00019462147
0.00017533712
-0.032202591
0.032710738
0.032752215
-0.03214196
0.032825905
-0.032377596
-0.032174654
0.032734204
-0.00021061731
0.16391213
-0.1313212
0.00012538009
0.00032021563
-0.00026601634
-0.1310869
0.0002703056
-0.023567963
-0.11861631
0.00068029848
-0.51344507
-0.023538452
-0.03271455
0.032909795
-0.00029147777
0.023866184
0.001083157
0.033188664
-0.032653567
-0.023466682
-0.64982615
0.16522903
0.00068580521
-0.11850476
0.00044982785
-0.00022471539
-0.00032860788
0.00024263665
-0.16372129
-6.5640051e-06
-5.6768569e-05
0.14596212
-0.14606744
0.00028048546
0.00012424719
0.13170058
-0.16478307
-1.7444157e-05
6.0278406e-05
0.00052999597
0.00032712046
0.00014575055
-0.00012541276
-0.1456929
0.00038598546
0.00019804952
-0.032739702
-0.13172738
0.00035193171
-0.49567366
-0.031917657
-0.032608742
0.032354322
0.03342218
0.032936934
-0.032571732
-0.031971747
0.032474111
-0.032051954
-0.56149279
-0.00050709361
-0.13170166
0.00029529113
0.16461852
0.0002318786
-0.13164812
0.00023242658
0.00038582816
0.0001833971
-0.00011767605
-0.16475323
-0.0001098582
-0.16517549
0.1310507
0.00014891866
-3.2711956e-05
-0.16352337
0.00021163845
0.00023774139
-0.14599336
0.00013413602
0.00023584468
0.00016425027
9.345095e-05
-0.14591875
-0.00017457304
0.14574885