/*--------------------------------*- C++ -*----------------------------------*\
  =========                 |
  \\      /  F ield         | OpenFOAM: The Open Source CFD Toolbox
   \\    /   O peration     | Website:  https://openfoam.org
    \\  /    A nd           | Version:  7
     \\/     M anipulation  |
\*---------------------------------------------------------------------------*/
FoamFile
{
    version     2.0;
    format      ascii;
    class       volScalarField;
    location    "150";
    object      T;
}
// * * * * * * * * * * * * * * * * * * * * * * * * * * * * * * * * * * * * * //

dimensions      [0 0 0 1 0 0 0];

internalField   nonuniform List<scalar> 
25278
(
299.99511
299.99503
299.99621
299.99615
299.99814
299.99491
299.99357
299.99505
299.99379
299.99064
299.99223
299.99393
299.99427
299.99585
300.01056
299.99626
299.99506
300.00205
300.00597
299.99535
299.99308
299.99392
299.99476
299.99222
299.98814
299.99215
299.99478
299.99348
299.99507
299.99075
299.98975
299.99521
299.99661
299.99604
299.98921
299.99094
299.98651
299.98575
299.99091
299.99128
299.99135
299.98548
299.98469
299.97894
299.98209
299.98528
299.99023
299.98814
299.98352
299.98896
299.98817
299.99507
299.99838
299.99828
299.99091
299.98512
299.98438
299.99073
299.99168
299.99158
299.98419
299.98353
299.98281
299.98373
299.99037
299.98996
299.98316
299.98213
299.9909
299.99137
299.99643
299.99631
299.99514
299.99353
299.99274
299.98881
299.98944
299.99096
299.99408
299.99796
300.00202
300.01151
300.00284
300.00905
299.99907
300.00458
300.02156
300.06027
300.04455
300.02684
300.02081
300.03598
300.04287
300.0721
300.06439
300.03761
300.02838
300.01403
300.00712
300.01784
300.02684
300.05387
300.04166
300.01921
300.03314
300.04287
300.05308
300.10303
300.10806
300.13659
300.07362
300.06683
300.13446
300.12542
300.09364
300.08104
300.11029
300.0441
300.05497
300.05552
300.01012
299.99939
299.99823
300.04662
300.07501
300.10862
300.13514
300.07362
300.02228
300.00487
300.00268
299.99856
300.00469
300.01321
300.04676
300.06143
300.0549
300.06706
300.13328
300.10438
300.09632
300.12501
300.11156
300.04523
300.03663
300.04528
300.03171
300.04049
300.06814
300.04037
300.01329
300.02955
300.02395
300.01734
300.00479
300.01096
300.02346
300.04781
300.08565
300.18457
300.30116
300.30421
300.18039
300.07611
300.02899
300.03851
300.04614
300.03526
300.09454
300.10955
300.08832
300.1799
300.25951
300.27461
300.85673
300.54894
300.2868
300.27981
300.52317
300.82317
300.27651
300.26039
300.1816
300.09464
300.05864
300.03162
300.02342
300.03618
300.084
300.1045
300.11844
300.05404
300.0105
300.04472
300.04413
300.02581
300.08151
300.28025
301.18726
301.22894
300.27829
300.07033
300.01663
300.01372
300.00469
299.99877
299.99635
299.99538
299.99602
299.99036
299.99162
299.9977
299.99207
299.98604
299.98705
299.98665
299.99202
299.99251
299.98565
299.97971
299.98152
299.98298
299.98778
299.99009
299.98464
299.9771
299.97653
299.98104
299.98562
299.98404
299.97906
299.97472
299.97236
299.9769
299.9828
299.98189
299.98415
299.988
299.99368
299.99678
299.99008
299.99247
300.00065
299.99346
299.98572
299.98641
299.98628
299.99302
299.99457
299.98586
299.98618
299.98629
299.99015
299.99755
300.00288
299.99338
299.99537
299.99627
299.99388
299.98657
299.98672
299.97744
299.97727
299.9777
299.97859
299.96985
299.97519
299.97353
299.98113
299.9807
299.98327
299.97638
299.97833
299.97136
299.97369
299.9709
299.97427
299.96722
299.97069
299.96643
299.96277
299.95808
299.96814
299.96535
299.96908
299.9593
299.96254
299.95714
299.95964
299.96254
299.96343
299.96727
299.97712
299.98473
299.98769
299.98284
299.98362
299.9788
299.97643
299.97186
299.97444
299.98108
299.97835
299.97705
299.96918
299.97057
299.97454
299.97991
299.98468
299.98486
299.9852
299.99612
299.99873
299.98655
299.99178
299.98713
299.98553
299.98536
299.99341
300.00578
299.99655
299.99988
299.99482
299.98566
299.98738
299.99231
300.00821
300.00079
300.02491
300.00738
300.02268
300.0018
299.98035
299.97889
299.9784
299.97811
299.97861
299.97903
299.97264
299.97172
299.97354
299.97942
299.9785
299.97817
299.96976
299.97075
299.97577
299.96172
299.96422
299.96753
299.96094
299.9651
299.96289
299.96897
299.96542
299.95867
299.95345
299.95633
299.95074
299.96066
299.96839
299.9675
299.97766
299.97838
299.9658
299.96652
299.97341
299.97601
299.97875
299.96942
299.96184
299.96459
299.96799
299.97107
299.97516
299.98067
299.97974
299.97322
299.97251
299.9744
299.98045
299.97948
299.97906
299.97926
299.97124
299.96874
299.97864
299.97839
299.96801
299.97044
299.9622
299.96602
299.96963
299.96339
299.96547
299.96126
299.95909
299.95373
299.95656
299.95084
299.9609
299.9581
299.94773
299.93894
299.94438
299.9524
299.94541
299.95884
299.95655
299.95825
299.95195
299.95709
299.95341
299.9482
299.95479
299.95268
299.9506
299.95467
299.94734
299.94947
299.94482
299.94278
299.93365
299.93975
299.94218
299.94535
299.95134
299.94659
299.94029
299.93126
299.9369
299.93308
299.93012
299.92322
299.92609
299.93604
299.93063
299.94053
299.94949
299.95196
299.94439
299.95015
299.95668
299.96156
299.96836
299.97363
299.98034
299.98703
299.9973
300.01726
300.00487
299.99132
299.99498
299.98827
299.99982
300.01076
300.02971
300.01835
300.06215
300.04216
300.01899
300.00091
300.00998
300.04059
300.06988
300.08311
300.03538
300.01416
300.0016
300.02454
300.00323
299.99071
299.98951
299.99824
300.00074
300.01713
300.03886
300.08488
300.08354
300.06501
300.06037
300.01789
300.02253
299.99191
299.99022
299.98754
299.98547
299.98342
299.98151
299.98049
299.97894
299.97878
299.96673
299.96484
299.97904
299.9794
299.96422
299.96611
299.95385
299.95716
299.95474
299.95704
299.94543
299.94141
299.94764
299.9578
299.96173
299.95968
299.96361
299.9675
299.96905
299.97453
299.98085
299.97959
299.97246
299.96648
299.97583
299.97737
299.97904
299.98532
299.98547
299.99186
299.9896
300.00261
300.00661
300.00741
299.99275
299.98512
299.9844
299.9961
300.00713
299.9921
300.01067
300.01143
300.00698
299.99952
300.01615
300.05804
300.02503
300.06581
300.04074
300.01828
300.03863
300.05437
300.07314
300.02633
300.02486
300.06219
300.04831
300.01238
299.99507
299.98374
299.97809
299.97581
299.97475
299.97549
299.97351
299.97781
299.98201
299.97616
299.97832
299.98107
299.9764
299.97432
299.97092
299.97344
299.96616
299.97054
299.96724
299.96276
299.95805
299.96814
299.97101
299.96848
299.96528
299.95403
299.95862
299.96212
299.95671
299.95929
299.96226
299.9633
299.95888
299.9565
299.95808
299.95459
299.94808
299.95184
299.95688
299.95315
299.94647
299.95121
299.95236
299.94546
299.94223
299.94946
299.94743
299.95474
299.95067
299.95261
299.94483
299.94292
299.93389
299.93988
299.93031
299.93321
299.93697
299.94531
299.9403
299.93145
299.939
299.94437
299.9375
299.94054
299.93155
299.92438
299.92891
299.92164
299.93078
299.92195
299.92943
299.93932
299.95333
299.96477
299.9641
299.97909
299.98163
299.96365
299.96396
299.96363
299.98174
299.98483
299.96378
299.943
299.94608
299.94979
299.95376
299.95137
299.95553
299.9667
299.96882
299.97073
299.97257
299.97141
299.97845
299.97767
299.9782
299.9782
299.97793
299.96775
299.96958
299.96186
299.96598
299.9587
299.96095
299.95616
299.95375
299.95158
299.95697
299.96456
299.97044
299.97797
299.9773
299.96935
299.96749
299.96855
299.97723
299.9766
299.97743
299.97784
299.96684
299.96597
299.96472
299.96518
299.96575
299.97812
299.97805
299.97964
299.96534
299.96488
299.98035
299.98328
299.98111
299.96416
299.96452
299.94595
299.94952
299.95354
299.95778
299.94772
299.95048
299.9442
299.94112
299.93866
299.94534
299.95609
299.96024
299.95881
299.96323
299.95513
299.94971
299.94342
299.95471
299.95091
299.95197
299.94841
299.96507
299.98166
299.97845
299.97871
299.97868
299.977
299.97601
299.9767
299.97448
299.97859
299.97111
299.97013
299.96324
299.96448
299.95608
299.96686
299.96354
299.96244
299.96575
299.95465
299.94971
299.95119
299.93911
299.94093
299.94345
299.94612
299.94944
299.95171
299.9486
299.95417
299.94682
299.94985
299.94428
299.94074
299.93666
299.94058
299.93849
299.94736
299.94381
299.93435
299.93073
299.94105
299.93841
299.92769
299.93034
299.93321
299.93763
299.94618
299.95194
299.94998
299.94381
299.93504
299.94188
299.94412
299.9358
299.93887
299.94246
299.9356
299.93135
299.92076
299.9258
299.93424
299.93007
299.9267
299.91661
299.92771
299.92483
299.93337
299.9243
299.93693
299.93594
299.94199
299.94822
299.9539
299.96206
299.96856
299.96766
299.97605
299.97536
299.96576
299.9666
299.95757
299.95659
299.9611
299.95268
299.94705
299.94619
299.95196
299.96033
299.96708
299.96653
299.97502
299.97418
299.96446
299.96504
299.95577
299.95517
299.95978
299.95136
299.94558
299.93969
299.94025
299.941
299.95277
299.9536
299.96522
299.96454
299.97648
299.97871
299.96424
299.96448
299.95026
299.94997
299.93554
299.93526
299.94959
299.95203
299.96385
299.96325
299.9752
299.97753
299.96327
299.96379
299.96731
299.96721
299.9664
299.96559
299.98289
299.98981
299.98608
299.96607
299.96842
299.94726
299.94818
299.93085
299.93193
299.93421
299.93749
299.93049
299.93483
299.92826
299.93379
299.93926
299.94543
299.94131
299.93459
299.94972
299.95336
299.94964
299.94594
299.92801
299.92191
299.90298
299.91254
299.92132
299.92932
299.93742
299.92878
299.91894
299.91042
299.9213
299.93054
299.92158
299.91222
299.89892
299.90964
299.91907
299.91084
299.9033
299.91544
299.92636
299.93617
299.93088
299.92833
299.92325
299.92609
299.91413
299.91992
299.91679
299.92358
299.91211
299.92109
299.9095
299.91336
299.90246
299.91321
299.92421
299.92088
299.90932
299.8988
299.91166
299.91505
299.90286
299.88971
299.88488
299.89821
299.88524
299.89927
299.88912
299.90376
299.90759
299.91485
299.9252
299.92048
299.90894
299.89585
299.90277
299.91545
299.91019
299.92717
299.92545
299.94583
299.94526
299.94356
299.94405
299.94739
299.96468
299.98538
299.98941
299.96661
299.97074
299.96638
299.99068
299.99861
300.00832
299.99485
299.97054
299.97624
300.00174
300.02258
299.9899
299.97859
299.94762
299.94292
299.94178
299.91715
299.92359
299.92052
299.91467
299.91602
299.91995
299.9228
299.92574
299.90573
299.91497
299.91697
299.90433
299.9014
299.91357
299.90561
299.91867
299.92197
299.91884
299.91527
299.90114
299.90529
299.91059
299.8962
299.90063
299.88545
299.89382
299.87865
299.89005
299.89927
299.88712
299.87591
299.87006
299.85489
299.87283
299.86133
299.87983
299.87208
299.88984
299.895
299.90928
299.89106
299.88507
299.86645
299.87469
299.87885
299.89082
299.90676
299.89641
299.89943
299.90516
299.88967
299.88157
299.86612
299.87578
299.89468
299.8885
299.88614
299.85996
299.8761
299.87441
299.88831
299.88914
299.90046
299.91181
299.92279
299.93305
299.94217
299.94838
299.94713
299.94074
299.93161
299.9388
299.9401
299.93163
299.93048
299.92147
299.91104
299.92239
299.92293
299.91458
299.93093
299.94862
299.94959
299.93195
299.93218
299.92806
299.94995
299.97138
299.99224
299.98358
299.98439
299.99541
299.97436
299.9536
299.95608
299.95008
299.93279
299.93322
299.93495
299.94917
299.95145
299.95094
299.95478
299.95949
299.96291
299.96999
299.98188
299.98817
299.99299
300.00141
300.00549
300.0276
300.01325
300.02569
300.03763
300.04588
300.03458
300.02763
300.07439
300.09339
300.10961
300.08727
300.05252
300.03975
300.0162
300.0061
300.00255
300.0181
300.03249
300.0791
300.17798
300.27421
300.26111
300.1787
300.2863
300.55051
300.84699
300.30359
300.1095
300.12465
300.09207
300.04241
300.0094
300.05537
300.04584
300.09611
300.18391
300.28622
300.55441
300.84738
300.30704
300.18747
300.27869
300.26283
300.11872
300.10508
300.08631
300.03773
300.01108
300.05427
300.04453
300.02672
300.08352
300.28437
301.19419
301.20326
300.27471
300.0682
300.01543
299.99778
299.99485
299.98798
299.98849
299.9948
299.99715
299.98981
299.98968
299.98974
299.98294
299.98307
299.98177
299.98173
299.99056
299.99032
299.99026
299.98209
299.98348
299.98413
299.98986
299.98999
299.98265
299.97595
299.98
299.98324
299.97841
299.97617
299.96567
299.96245
299.96359
299.96662
299.97067
299.97799
299.97762
299.97313
299.97346
299.96363
299.95556
299.95444
299.94967
299.95112
299.95403
299.9654
299.96821
299.9719
299.97879
299.97445
299.96539
299.96801
299.974
299.97079
299.96834
299.95817
299.96162
299.95802
299.94872
299.9472
299.94618
299.94556
299.94544
299.94565
299.94622
299.9399
299.93932
299.93009
299.93067
299.93788
299.93728
299.92921
299.92973
299.92074
299.92025
299.91092
299.911
299.9222
299.92204
299.91751
299.91668
299.9155
299.90105
299.89263
299.91154
299.9074
299.90264
299.89714
299.88981
299.92313
299.95725
299.94973
299.95669
299.98324
300.00695
300.01308
299.99058
300.02041
300.00442
300.0342
300.04887
300.04841
300.02935
299.99443
299.97571
299.97598
299.96704
299.98327
299.99507
300.01206
299.99593
300.03223
300.0457
300.07769
300.09599
300.09946
300.07358
300.05213
300.02886
300.01258
300.00008
299.99077
299.98566
299.98165
299.96429
299.96576
299.96738
299.96972
299.97177
299.97947
299.97934
299.98012
299.9728
299.97091
299.96285
299.96438
299.96029
299.9508
299.94423
299.95588
299.95395
299.95855
299.96893
299.97955
299.97936
299.97907
299.97951
299.96666
299.96646
299.96844
299.97028
299.97214
299.98008
299.97939
299.97943
299.97998
299.97158
299.96976
299.9605
299.96152
299.96596
299.96706
299.95947
299.95439
299.94809
299.94107
299.93856
299.9458
299.95241
299.95794
299.96774
299.96644
299.97261
299.97229
299.98071
299.98114
299.98364
299.98809
299.99491
299.99609
299.99498
299.99352
299.99582
299.99494
299.99446
299.99393
299.99797
299.99058
299.99428
300.00393
299.99691
299.98751
299.98703
299.98774
299.99474
299.99749
299.98841
299.98904
299.98834
299.99129
299.99803
300.00328
299.99496
299.99755
299.997
299.99485
299.98887
299.98939
299.98223
299.98091
299.97951
299.97825
299.96697
299.96618
299.95652
299.9572
299.96774
299.96372
299.95148
299.95412
299.94353
299.94619
299.94889
299.95471
299.94717
299.94084
299.93655
299.93403
299.93827
299.94725
299.94365
299.94086
299.93028
299.93304
299.93773
299.94655
299.95263
299.94455
299.94247
299.95086
299.95642
299.96501
299.96435
299.9713
299.98003
299.97962
299.96958
299.96961
299.97122
299.98016
299.98
299.98162
299.9809
299.98035
299.97999
299.9804
299.98145
299.96657
299.96814
299.95614
299.95712
299.95255
299.95182
299.93693
299.94411
299.95082
299.94976
299.95556
299.95493
299.96401
299.95963
299.95985
299.95567
299.96823
299.96726
299.98256
299.98415
299.96832
299.96862
299.95575
299.94286
299.94312
299.93631
299.95185
299.95261
299.93671
299.93779
299.9432
299.94924
299.94924
299.94018
299.94099
299.94954
299.94285
299.94429
299.93519
299.93015
299.94108
299.9382
299.92715
299.91413
299.91797
299.92264
299.92793
299.91618
299.91942
299.92542
299.93549
299.94254
299.93403
299.92965
299.9389
299.93112
299.92008
299.9133
299.92567
299.92135
299.92734
299.93579
299.92604
299.91557
299.91219
299.92437
299.93341
299.92349
299.91302
299.91548
299.9195
299.92466
299.9372
299.95141
299.94713
299.9299
299.92607
299.93365
299.94948
299.96542
299.9646
299.98398
299.98972
299.96625
299.96457
299.96619
299.97005
299.99848
300.00821
299.99554
299.98727
299.96627
299.9659
299.96695
299.96896
299.99167
300.0029
299.97573
299.97003
299.97729
299.98791
300.02219
300.03485
300.00969
299.99559
299.97295
299.9688
299.97116
299.97766
300.00096
300.01828
299.99267
299.98357
300.00248
300.01945
300.0515
300.05689
300.02193
300.00373
299.982
299.97356
299.96961
299.96929
299.96995
299.97136
299.98045
299.98042
299.98115
299.98092
299.97181
299.97055
299.96032
299.95978
299.964
299.95482
299.95514
299.96435
299.96497
299.97233
299.98149
299.992
300.00418
300.02664
300.01862
300.00294
300.00393
299.99301
300.00461
300.01896
300.04218
300.04124
300.08936
300.08847
300.07353
300.02659
300.02741
300.07725
300.09546
300.08292
300.03837
300.01709
300.00397
300.02177
300.0021
299.99247
299.99315
300.00248
299.99927
300.01184
300.02735
300.06951
300.05412
300.0342
300.05775
300.02141
300.01221
299.99325
299.99516
299.99671
299.99775
299.99826
299.99742
299.99598
299.99426
299.98692
299.98526
299.9823
299.98331
299.97022
299.97109
299.95531
299.95381
299.95626
299.95715
299.94404
299.94971
299.94037
299.93998
299.9484
299.94874
299.94178
299.93229
299.93337
299.92801
299.93936
299.93638
299.92479
299.92323
299.935
299.93814
299.92667
299.91401
299.9154
299.91786
299.9039
299.90802
299.90383
299.90961
299.89479
299.90293
299.90683
299.91416
299.90183
299.91462
299.90865
299.8941
299.90772
299.89932
299.88368
299.89287
299.88813
299.87802
299.85923
299.87183
299.87765
299.88865
299.9042
299.92284
299.94359
299.94135
299.91652
299.91293
299.91897
299.94257
299.9454
299.94504
299.94838
299.9311
299.92376
299.92357
299.9299
299.94836
299.94641
299.94766
299.94366
299.91739
299.91269
299.94525
299.94167
299.94427
299.94156
299.97133
299.9796
299.9927
299.97892
300.01221
300.05306
300.07557
300.17635
300.13059
300.10561
300.22923
300.10563
300.13303
300.28025
300.43553
300.15591
300.16066
300.11147
300.10206
300.38705
300.38197
300.42677
301.0492
300.41471
300.16182
300.16536
300.30423
300.43558
300.40932
300.13527
300.1363
300.37918
301.6982
301.46927
300.91147
301.41569
301.68017
302.57954
302.26392
302.22816
301.46338
300.38625
300.0972
300.06
300.0237
300.00636
299.99558
299.98374
299.98345
299.99495
300.00526
299.99018
299.991
300.0088
300.00763
300.02339
300.06911
300.04849
300.04444
300.01064
299.99414
299.98253
299.97695
299.97473
299.97381
299.97471
299.96627
299.96618
299.97458
299.97355
299.96389
299.96406
299.96273
299.96236
299.97433
299.97619
299.96191
299.9626
299.94851
299.93428
299.93919
299.94522
299.95112
299.95118
299.95947
299.95464
299.94514
299.94548
299.95154
299.95982
299.96632
299.97466
299.97492
299.9668
299.96434
299.96397
299.97358
299.97369
299.97414
299.97428
299.96224
299.96233
299.96085
299.96133
299.9759
299.97506
299.97466
299.97421
299.97397
299.97528
299.98321
299.99435
300.01186
299.99299
299.98297
299.98624
299.98849
300.00375
299.99963
300.01245
300.02133
300.05526
300.06074
300.03234
300.00224
299.99502
300.01284
300.03629
300.0189
300.00406
299.99596
299.99151
299.98974
299.98987
299.98931
299.99385
299.99038
299.98509
299.98127
299.98504
299.98843
299.9877
299.99055
299.99342
299.99471
299.99463
299.99544
299.99007
299.98857
299.98577
299.98483
299.98328
299.98434
299.99008
299.99113
299.98778
299.98331
299.98262
299.98369
299.98308
299.99398
300.00293
299.99774
299.99528
300.00467
300.02248
299.99832
299.98463
299.98816
299.9976
299.98948
300.00558
299.99814
299.99481
299.98391
299.98453
299.99242
299.99392
299.98488
299.98571
299.97681
299.97465
299.97661
299.97704
299.97823
299.97772
299.98134
299.976
299.97857
299.98263
299.98307
299.98015
299.97394
299.97105
299.96587
299.97334
299.9712
299.9747
299.97751
299.97645
299.97046
299.96766
299.96302
299.9526
299.94932
299.94587
299.94311
299.94051
299.93867
299.93723
299.93639
299.93604
299.93613
299.93669
299.93762
299.93504
299.93655
299.92536
299.92813
299.92655
299.92369
299.92264
299.93412
299.93362
299.92206
299.92492
299.92553
299.91383
299.9147
299.91629
299.91263
299.91086
299.89664
299.8983
299.90327
299.90201
299.90169
299.8959
299.90983
299.9092
299.91321
299.9012
299.89522
299.8807
299.88126
299.88106
299.88221
299.88917
299.88884
299.87526
299.87378
299.86359
299.86334
299.86586
299.8801
299.89003
299.90271
299.90381
299.90284
299.89835
299.91585
299.93558
299.93792
299.95746
299.95018
299.94931
299.96618
299.96494
299.98141
299.99205
299.97273
299.97481
299.95629
299.9367
299.93232
299.93029
299.93335
299.93883
299.95056
299.94768
299.94706
299.95051
299.95486
299.95543
299.96044
299.95246
299.94628
299.93941
299.93887
299.93272
299.93258
299.94671
299.9508
299.95165
299.95642
299.96143
299.96737
299.96836
299.9758
299.97445
299.96588
299.96494
299.96273
299.9635
299.97445
299.97427
299.9611
299.96071
299.94706
299.93341
299.94066
299.94761
299.95358
299.9554
299.96269
299.95779
299.94948
299.95177
299.9572
299.96417
299.96934
299.97629
299.97694
299.97064
299.96828
299.96696
299.97488
299.97557
299.97502
299.97457
299.9645
299.96581
299.96312
299.96183
299.974
299.97427
299.9753
299.97558
299.97675
299.97809
299.97925
299.98098
299.96357
299.96192
299.966
299.96986
299.99103
299.9869
300.00057
300.00752
300.00827
299.99029
299.99407
300.02769
300.04265
300.04169
300.02235
300.00199
299.96853
299.95302
299.94764
299.94591
299.92829
299.92664
299.94419
299.9446
299.94906
299.92762
299.93241
299.94488
299.9541
299.95612
299.94898
299.93988
299.92929
299.93732
299.97204
299.99268
299.96591
299.97263
299.9771
300.0212
300.00892
299.98445
299.96159
299.92732
299.91338
299.88725
299.87833
299.8688
299.85938
299.8346
299.85629
299.86068
299.86848
299.84957
299.86216
299.84493
299.86144
299.875
299.89393
299.88639
299.89746
299.87943
299.86393
299.84756
299.86641
299.85702
299.87595
299.89294
299.90243
299.88797
299.90432
299.90234
299.88418
299.89877
299.88813
299.88179
299.88761
299.86902
299.86167
299.87035
299.85052
299.86873
299.87236
299.89303
299.882
299.8556
299.85218
299.8831
299.89222
299.91922
299.91787
299.95356
299.96761
299.95481
299.94962
299.94947
299.93024
299.92587
299.93069
299.93211
299.95165
299.95451
299.96506
299.93624
299.92532
299.9305
299.95304
299.98787
300.00727
299.97498
299.95953
299.95418
299.9347
299.93628
299.94139
299.93749
299.9393
299.92446
299.92298
299.92212
299.92218
299.93189
299.92237
299.9102
299.90963
299.92137
299.93126
299.9314
299.92131
299.93194
299.94138
299.94152
299.9486
299.94923
299.95726
299.96748
299.96713
299.96286
299.95046
299.93759
299.93435
299.92249
299.92613
299.92627
299.93761
299.93427
299.92248
299.90894
299.90879
299.9095
299.91128
299.89573
299.8991
299.89867
299.9036
299.90951
299.91616
299.92332
299.93061
299.94617
299.96849
299.9783
299.98563
299.98869
299.99213
299.99325
299.99397
299.99334
299.99265
299.99281
299.99034
299.98545
299.98811
299.98363
299.97817
299.97518
299.98159
299.98549
299.9801
299.97698
299.97064
299.9679
299.96288
299.97158
299.97369
299.96604
299.97159
299.97505
299.98079
299.98403
299.98223
299.97747
299.97554
299.98381
299.98857
299.9928
299.9895
299.98996
299.99102
299.99394
299.99489
299.98975
299.98744
299.9912
299.99087
299.98576
299.98472
299.9865
299.99092
299.99042
299.99474
299.99425
299.99367
299.99421
299.99621
299.99735
299.99673
299.99392
299.99427
299.99472
299.99734
299.99538
299.99045
299.99091
299.98592
299.98101
299.97618
299.97823
299.97315
299.97759
299.97832
299.98385
299.98838
299.98604
299.98191
299.97537
299.97734
299.9742
299.97183
299.96313
299.96804
299.97099
299.96656
299.9723
299.97813
299.98053
299.98454
299.98299
299.97904
299.98129
299.97547
299.97008
299.96374
299.95964
299.9555
299.95636
299.95223
299.95124
299.94311
299.94798
299.94927
299.94462
299.94784
299.95494
299.95885
299.96189
299.95843
299.95214
299.95601
299.95212
299.94563
299.95245
299.94628
299.94051
299.94211
299.93603
299.93404
299.92376
299.93085
299.93316
299.92635
299.93133
299.94002
299.94538
299.95031
299.94335
299.93735
299.92969
299.94086
299.95222
299.96342
299.95951
299.95533
299.95606
299.94895
299.94779
299.94283
299.95102
299.95184
299.94419
299.94726
299.9517
299.95844
299.96135
299.95547
299.9514
299.95773
299.9544
299.95135
299.96173
299.97122
299.97884
299.96876
299.95794
299.95384
299.9659
299.9687
299.95815
299.96562
299.96828
299.95942
299.96177
299.96493
299.9697
299.96161
299.97314
299.96725
299.96996
299.96498
299.96909
299.96643
299.96205
299.9565
299.95984
299.9551
299.94976
299.9452
299.94178
299.94029
299.93369
299.93554
299.92581
299.93281
299.93695
299.94283
299.93721
299.9446
299.93939
299.93067
299.9213
299.92933
299.92421
299.93219
299.92177
299.92451
299.91573
299.91238
299.89965
299.91009
299.91369
299.90396
299.91174
299.92196
299.93024
299.938
299.94585
299.95179
299.95737
299.96258
299.96553
299.96979
299.96736
299.96302
299.96569
299.96046
299.95571
299.96189
299.97347
299.97805
299.97387
299.97845
299.97706
299.97198
299.96888
299.9707
299.97615
299.97467
299.97264
299.9743
299.96796
299.96192
299.95868
299.95424
299.95756
299.94979
299.94463
299.95403
299.96921
299.96206
299.96467
299.97237
299.97087
299.96271
299.96576
299.96418
299.96741
299.97079
299.97743
299.98206
299.98471
299.98919
299.99333
299.99306
299.99125
299.99047
299.9879
299.98994
299.99163
299.99157
299.98722
299.98549
299.98621
299.99129
299.99109
299.98906
299.98482
299.99138
299.98928
299.98622
299.98209
299.98128
299.98576
299.98499
299.98542
299.98065
299.98003
299.97898
299.9796
299.98308
299.9919
299.98937
299.98913
299.99286
299.99263
299.99272
299.98918
299.98929
299.99308
299.99398
299.99352
299.99461
299.98984
299.98496
299.98503
299.98473
299.98493
299.97827
299.97851
299.978
299.98208
299.98279
299.98441
299.991
299.99164
299.98879
299.98853
299.98866
299.98553
299.98139
299.97768
299.97538
299.97363
299.97606
299.97101
299.96786
299.96471
299.95766
299.9612
299.9569
299.94923
299.94491
299.95087
299.94723
299.95343
299.94777
299.95499
299.95209
299.948
299.945
299.94852
299.94761
299.93819
299.93973
299.93559
299.93387
299.94394
299.94115
299.9423
299.93194
299.93008
299.92687
299.93838
299.93965
299.92884
299.93317
299.936
299.93932
299.94312
299.93427
299.92995
299.92783
299.92246
299.92483
299.91273
299.91901
299.92457
299.93206
299.94018
299.93625
299.94446
299.94161
299.94991
299.94552
299.94302
299.94779
299.93919
299.93001
299.93284
299.92558
299.92964
299.91899
299.92746
299.92348
299.91405
299.9071
299.92029
299.91772
299.91375
299.91645
299.9023
299.90983
299.92213
299.91943
299.93096
299.94135
299.9557
299.96719
299.97669
299.98245
299.9724
299.97356
299.97985
299.97466
299.97365
299.97915
299.97862
299.97158
299.96622
299.96321
299.9642
299.95104
299.94982
299.95447
299.96277
299.96378
299.95202
299.95323
299.95507
299.9569
299.96257
299.96452
299.9596
299.95748
299.95068
299.94406
299.95251
299.95485
299.95017
299.9532
299.96164
299.96401
299.97168
299.97355
299.97157
299.96979
299.96851
299.97029
299.96151
299.95318
299.94415
299.93644
299.92867
299.91975
299.91346
299.90991
299.92152
299.91189
299.91514
299.90342
299.89916
299.8854
299.89877
299.90321
299.89123
299.88574
299.8707
299.87764
299.89086
299.90056
299.91092
299.91999
299.92896
299.93687
299.922
299.91355
299.9215
299.91311
299.92133
299.92945
299.93889
299.94893
299.94488
299.94894
299.93802
299.93278
299.92702
299.93281
299.93833
299.9493
299.95373
299.94992
299.93979
299.93356
299.94572
299.95753
299.95996
299.96952
299.97087
299.96943
299.9591
299.95689
299.95875
299.96906
299.96782
299.95667
299.95895
299.95708
299.95963
299.96269
299.96604
299.96954
299.97502
299.97239
299.97145
299.97405
299.96803
299.96452
299.96114
299.96947
299.9703
299.96868
299.96815
299.9582
299.9477
299.93727
299.9408
299.93432
299.92348
299.914
299.90687
299.90305
299.88844
299.89348
299.884
299.89914
299.89481
299.8782
299.85956
299.87233
299.87894
299.86344
299.85485
299.85417
299.83825
299.82335
299.84783
299.83837
299.81034
299.82783
299.83579
299.81237
299.8276
299.84832
299.86168
299.88477
299.91203
299.91066
299.9453
299.95179
299.90966
299.9093
299.91125
299.9518
299.9917
300.02818
300.05846
300.03301
300.05919
300.01527
299.9935
300.01395
300.04884
300.10026
300.16021
300.09826
300.04856
300.01368
300.0443
300.01046
300.05034
300.09692
300.15672
300.09693
300.17383
300.10069
300.03198
299.99608
299.9722
299.95452
299.9148
299.92833
299.93909
299.91737
299.96734
299.9894
299.96519
299.91471
299.93198
299.92166
299.9671
299.99029
300.02775
299.95197
299.92703
299.95698
299.98902
300.08717
300.18971
300.10489
300.04383
300.00031
300.04157
300.07433
300.1564
300.09679
300.14145
300.19448
300.18336
300.17788
300.09251
300.08957
300.10403
300.07929
300.10157
300.32195
300.3247
300.23
300.17917
300.28727
300.47735
300.29389
300.37766
300.25674
300.36936
300.22173
300.13589
300.07189
300.03666
300.08835
300.14311
300.06841
300.09859
300.18568
300.30658
300.26493
300.16885
300.28426
300.44233
300.5454
300.63781
300.30969
300.18503
300.10313
300.09244
300.03307
300.00041
300.00663
299.98585
299.97595
299.95678
299.96402
299.98292
299.95824
299.94823
299.97788
299.99713
300.02173
300.04177
300.06288
300.02712
300.00764
300.0101
299.98876
299.97797
299.97255
299.9713
299.97135
299.98186
299.9828
299.9822
299.97322
299.97234
299.96224
299.96116
299.95055
299.95566
299.95674
299.96586
299.96693
299.96865
299.97395
299.97271
299.98208
299.98308
299.98515
299.97887
299.9766
299.96312
299.95104
299.95306
299.96453
299.96889
299.95922
299.9621
299.97065
299.97541
299.97086
299.97332
299.97735
299.98418
299.98511
299.98663
299.99011
299.98147
299.97533
299.9731
299.96927
299.96643
299.95625
299.96027
299.96555
299.96919
299.97569
299.97901
299.98084
299.98476
299.98615
299.98942
299.98918
299.99172
299.99748
300.00068
299.99452
299.99619
299.98937
299.98953
299.99186
299.99402
299.99549
299.99782
299.99972
300.01071
300.00681
299.99502
299.99105
299.99012
299.99295
300.00259
299.99223
299.99567
300.00249
300.01689
300.03224
300.03375
300.01469
300.00237
300.01665
300.00823
300.00258
300.01069
300.00272
299.99883
299.99431
299.99659
299.99203
299.98843
299.98815
299.98473
299.97781
299.97788
299.97496
299.97189
299.96465
299.9686
299.97297
299.97763
299.98476
299.9833
299.98541
299.98536
299.98505
299.98476
299.98419
299.98362
299.98292
299.97403
299.97338
299.98359
299.9844
299.97449
299.97514
299.96816
299.95946
299.95782
299.95318
299.95173
299.94655
299.94518
299.95827
299.95684
299.94085
299.94231
299.95824
299.95954
299.97245
299.98532
299.98424
299.98817
299.98947
299.97388
299.97494
299.97358
299.98618
299.99033
299.99061
299.9869
299.97463
299.97569
299.96066
299.95953
299.96091
299.96351
299.96489
299.95488
299.94992
299.94814
299.94381
299.94537
299.93124
299.92922
299.9275
299.926
299.9333
299.93216
299.92195
299.93222
299.93304
299.94205
299.94318
299.95026
299.94246
299.94122
299.93432
299.92832
299.92701
299.93811
299.9347
299.92314
299.92443
299.93575
299.93919
299.94061
299.94447
299.95162
299.94408
299.93603
299.9382