/*--------------------------------*- C++ -*----------------------------------*\
  =========                 |
  \\      /  F ield         | OpenFOAM: The Open Source CFD Toolbox
   \\    /   O peration     | Website:  https://openfoam.org
    \\  /    A nd           | Version:  7
     \\/     M anipulation  |
\*---------------------------------------------------------------------------*/
FoamFile
{
    version     2.0;
    format      ascii;
    class       volScalarField;
    location    "320";
    object      nut;
}
// * * * * * * * * * * * * * * * * * * * * * * * * * * * * * * * * * * * * * //

dimensions      [0 2 -1 0 0 0 0];

internalField   nonuniform List<scalar> 
25201
(
6.8138162
6.8017361
6.8138338
6.8017722
6.6823431
6.7706455
6.7909161
6.8284688
6.8130489
6.743556
6.8130339
6.7706293
6.729097
6.1533773
6.0446673
6.597226
6.5049855
6.4181423
6.3767929
6.1325331
6.3063682
6.3109581
6.3835098
6.2572735
6.2449728
6.0847557
6.1945361
6.4232578
6.3634319
6.1284206
6.1750049
6.2382046
5.8609527
5.9324472
6.0245228
6.0446055
6.2395287
6.1746172
5.9545579
5.8819849
6.1259649
6.0987067
6.1013951
5.8228585
5.8448227
5.8870436
6.1178995
6.4195915
6.6746462
6.7291268
6.7795352
6.7322914
6.5664362
6.6312726
6.698824
6.6634442
6.6343786
6.5508511
6.5881536
6.3478389
6.3818205
6.4699231
6.5042699
6.5593769
6.591995
6.72821
6.6623451
6.4460256
6.395897
6.2223236
6.1721835
6.2281836
6.4744754
6.5194703
6.4670654
6.0555364
6.1099097
6.1772626
6.1957632
6.2549218
6.3325266
6.4004854
6.2864582
6.2993376
6.2235965
6.3271556
6.1883793
6.1531928
6.0351711
6.1015652
6.0208031
5.9746716
5.9643515
5.9690927
5.9578523
6.0267022
6.0241099
5.9561761
5.8315231
5.9158022
5.919839
5.8404127
5.85372
5.9333052
5.9385089
5.8723137
5.7259137
5.8198262
5.8783971
5.8679883
5.7965789
5.8034915
5.7034904
5.6935567
5.5418636
5.6590416
5.6636499
5.5522069
5.5642678
5.714272
5.8138834
5.6787864
5.6842361
5.5756818
5.4096472
5.548456
5.6533338
5.8783577
6.1016229
5.9546245
5.8820669
5.8448772
5.8871138
5.921188
5.995354
6.0779146
6.1884616
6.2865406
6.4699391
6.6343836
6.663438
6.5042538
6.3478034
6.3817968
6.5508516
6.5881282
6.6312299
6.6988024
6.7795031
6.7281919
6.591975
6.5593266
6.3958758
6.445939
6.6622842
6.6007608
6.73224
6.6745898
6.4744797
6.5194495
6.1721478
6.228131
6.3271517
6.3325539
6.400523
6.2549404
6.1957762
6.1772143
6.0343751
6.1042008
6.2235746
6.2993386
6.158071
6.2509516
6.3033804
6.1849901
6.1579977
6.1365291
5.9182815
5.9394408
5.7386381
5.8038294
5.8247986
5.7290575
5.7241657
5.6136083
5.7058882
5.7020715
5.5910087
5.4245251
5.5658462
5.6859112
5.9182057
6.1365769
5.9747265
6.0207959
6.0351013
5.5643601
5.6788841
5.8140337
5.9333637
5.9386275
5.8724558
5.9644249
5.969091
5.8536429
5.7144589
5.726005
5.8198898
5.6843422
5.5758063
5.4097416
5.5484614
5.5402604
5.5253943
5.6347866
6.8016701
6.8136608
6.6746523
6.4232537
6.3634146
6.1014572
5.9325212
6.174969
6.128416
6.1260358
6.0986692
5.8448146
5.8227358
5.8608745
5.881993
5.9545793
6.1745814
6.239547
6.2381491
6.0245191
6.0445756
6.1532193
6.3109054
6.5049203
0.001104991
0.005063268
0.012169931
0.02101724
0.2813406
0.28715489
0.021790961
0.0125972
0.0052344585
0.0011349253
0.0011498849
0.0053831652
0.012972148
0.022416758
0.29374694
0.29757566
0.02265256
0.013119148
0.0054454309
0.0011573339
0.0011601604
0.0054716518
0.013179697
0.022739352
0.30000658
0.30161072
0.022783161
0.01321251
0.0054862752
0.0011617167
0.0011629678
0.0055009387
0.013247921
0.022835046
0.30284344
0.30390747
0.022900679
0.013289044
0.0055172256
0.0011642235
0.0011655259
0.0055354944
0.013335964
0.022977477
0.30489912
0.30587646
0.02306026
0.013385428
0.0055545314
0.0011668415
0.001168197
0.0055746576
0.013437645
0.023147433
0.30685474
0.30785513
0.023237015
0.013490893
0.0055951156
0.0011695594
0.0011709652
0.0056164871
0.013546319
0.023329718
0.30887725
0.30992959
0.023424448
0.013602675
0.0056381806
0.0011723854
0.0011738552
0.0056607769
0.013661155
0.023522209
0.31100828
0.31212069
0.023622245
0.013720745
0.0056837691
0.0011753475
0.0011768938
0.0057076651
0.013782478
0.023725392
0.3132634
0.31444306
0.023831054
0.013845481
0.0057320221
0.0011784705
0.0011801047
0.0057572853
0.013910611
0.023939835
0.31565522
0.31690514
0.024051424
0.013977213
0.0057830894
0.0011817772
0.00118351
0.0058098115
0.014045942
0.024166123
0.31818971
0.31951451
0.024283839
0.014116288
0.0058371329
0.0011852829
0.0011871138
0.005865365
0.014188754
0.024404724
0.32087776
0.3222841
0.024528629
0.01426283
0.0058941905
0.001188986
0.0011909184
0.005923932
0.014339045
0.024655766
0.32372765
0.32521017
0.024785939
0.014416932
0.0059543089
0.0011928957
0.001194939
0.0059856183
0.01449699
0.024919434
0.3267298
0.3282917
0.025056405
0.014578996
0.0060176775
0.0011970413
0.0011992227
0.0060507544
0.014663415
0.025197136
0.32989788
0.33155483
0.025342029
0.014750218
0.0060847458
0.0012014672
0.0012037715
0.0061198305
0.014839348
0.02549028
0.33326238
0.33501046
0.025641701
0.014930161
0.006155539
0.0012061438
0.37562064
0.023134262
0.013598564
0.0056709435
0.0011563635
0.001154224
0.0056386284
0.013516403
0.022998357
0.37367846
0.37177173
0.022864166
0.013434963
0.0056065056
0.0011521385
0.0011500884
0.0055749911
0.013354541
0.022731253
0.36990369
0.36809179
0.022602115
0.013276455
0.0055444416
0.0011480838
0.0011461488
0.0055148105
0.013200517
0.022476248
0.36633495
0.36463196
0.022354099
0.013126648
0.0054859369
0.0011442692
0.0011424463
0.0054579111
0.013054677
0.022234791
0.36297769
0.36137435
0.022119138
0.01298475
0.00543064
0.0011406708
0.0011389538
0.0054042928
0.012916917
0.022006571
0.35981942
0.35831048
0.021897695
0.01285113
0.005378683
0.001137285
0.0011356687
0.0053538007
0.012786931
0.021791056
0.35683958
0.35540966
0.021687447
0.012724338
0.0053294791
0.0011340913
0.0011325643
0.0053058965
0.012663322
0.021585979
0.35401898
0.35266984
0.02148769
0.012603973
0.0052828842
0.0011310737
0.0011296325
0.0052606138
0.012546179
0.02139141
0.35135639
0.35008925
0.021298669
0.012490172
0.0052389259
0.0011282258
0.0011268631
0.0052179251
0.012435527
0.021207481
0.34885317
0.34765505
0.021119474
0.012382429
0.0051974038
0.0011255256
0.0011242267
0.0051775571
0.012330643
0.021032922
0.34648353
0.34534503
0.02094932
0.01228023
0.0051581081
0.0011229447
0.0011216945
0.0051393496
0.012231199
0.020867326
0.34423187
0.34314254
0.020788663
0.012183667
0.0051210138
0.0011204548
0.0011192436
0.005103535
0.012138062
0.020712803
0.34206118
0.34096824
0.020643394
0.012095283
0.0050868516
0.0011180456
0.0011168758
0.0050718113
0.012057067
0.020582606
0.33980957
0.33850682
0.020535426
0.012024458
0.0050582021
0.0011156882
0.0011141796
0.0050445143
0.011993257
0.020493464
0.33684678
0.33439384
0.020416173
0.011938161
0.0050200419
0.0011113315
0.0011045548
0.0049650457
0.011806619
0.020207724
0.33052075
0.32471041
0.019751736
0.011534613
0.0048536547
0.0010905159
0.0010704731
0.0046797362
0.011120104
0.019050615
0.31780539
0.29746691
0.017035296
0.0098307471
0.0041528334
0.001032133
0.0010686256
0.0046869616
0.011138496
0.019076705
0.31830055
0.32527386
0.019776533
0.011550537
0.0048598232
0.0010895219
0.0011040945
0.0049716494
0.011822907
0.020233138
0.33099076
0.33475505
0.020435323
0.011950446
0.0050251169
0.0011110577
0.0011140347
0.0050486856
0.012003617
0.020509978
0.33715845
0.33877366
0.020548033
0.012032398
0.005061454
0.0011156003
0.0011168295
0.0050745677
0.012064051
0.020594013
0.34004589
0.34116751
0.020652294
0.012100752
0.0050890531
0.0011180182
0.0011192342
0.0051054438
0.01214296
0.020720929
0.3422353
0.34329644
0.020795066
0.012187555
0.0051225751
0.0011204524
0.0011217021
0.0051407552
0.012234847
0.02087347
0.34436619
0.3454634
0.020954131
0.012283133
0.0051592756
0.0011229554
0.0011242456
0.0051786553
0.012333506
0.021037771
0.34658857
0.34774934
0.021123354
0.012384788
0.0051983645
0.001125548
0.001126894
0.0052189172
0.012438103
0.02121183
0.34894244
0.35017376
0.02130237
0.012492436
0.0052398444
0.00112826
0.0011296736
0.0052616151
0.012548788
0.021395829
0.3514404
0.3527471
0.021491513
0.012606282
0.0052838103
0.0011311133
0.0011326044
0.0053068535
0.012665806
0.021590168
0.35409144
0.35547766
0.021691204
0.012726589
0.0053303726
0.001134126
0.0011357001
0.0053547264
0.012789358
0.021795166
0.35690318
0.35837202
0.021901648
0.012853484
0.0053796019
0.0011373083
0.0011389711
0.005405278
0.012919503
0.022010929
0.35988326
0.36144036
0.022123058
0.012987078
0.0054315429
0.0011406777
0.0011424465
0.0054587366
0.013056891
0.022238606
0.36304603
0.36470325
0.02235728
0.013128487
0.0054866317
0.0011442625
0.001146142
0.0055154433
0.013202254
0.022479305
0.36640992
0.36817014
0.022604736
0.013277954
0.0055450025
0.0011480797
0.0011500935
0.0055755728
0.013356114
0.022733984
0.36998441
0.37185311
0.02286704
0.013436697
0.0056071805
0.0011521582
0.0011542619
0.0056395333
0.013518703
0.023002059
0.3737631
0.37571481
0.023139101
0.013601546
0.0056721074
0.0011564221
0.0011586711
0.0057055769
0.013686641
0.023279841
0.37773387
0.0011995699
0.0060946025
0.014748367
0.025278873
0.33640093
0.33460322
0.025126462
0.014656815
0.0060585481
0.0011971571
0.0011948196
0.0060231314
0.014566851
0.024976811
0.33285044
0.33114583
0.024831161
0.01447921
0.0059886487
0.0011925535
0.0011903381
0.0059548781
0.014393088
0.024687791
0.3294799
0.32786477
0.02454838
0.014309313
0.0059220471
0.0011881701
0.0011860735
0.0058902023
0.01422783
0.024412485
0.32629669
0.32477515
0.024280653
0.014148616
0.0058591973
0.0011840375
0.0011820673
0.005829129
0.014071481
0.024151895
0.32329414
0.32186094
0.024027285
0.013996641
0.005799903
0.0011801546
0.0011783071
0.0057715464
0.013923701
0.02390538
0.32046458
0.31910988
0.02378722
0.013852776
0.0057439057
0.0011765114
0.0011747743
0.0057170796
0.013783615
0.023671545
0.31779053
0.31650983
0.023559311
0.013716273
0.0056908877
0.0011730794
0.0011714383
0.0056654999
0.013650647
0.023449423
0.31526407
0.31405732
0.023343087
0.013586857
0.0056407301
0.0011698354
0.0011682834
0.005616748
0.013524712
0.023238899
0.3128827
0.31174472
0.023138172
0.013464315
0.005593336
0.0011667638
0.0011652914
0.0055707044
0.01340553
0.02303949
0.31063775
0.30956538
0.022944231
0.01334843
0.0055486065
0.0011638462
0.0011624434
0.0055272833
0.013292899
0.022850864
0.3085217
0.30750948
0.022760885
0.013238986
0.0055064539
0.0011610606
0.0011597135
0.005486411
0.013186663
0.022672814
0.30652199
0.30555951
0.022588737
0.013136186
0.0054669119
0.0011583791
0.0011570776
0.0054484155
0.013087959
0.022507975
0.30460389
0.30364028
0.022435052
0.013043238
0.0054309452
0.0011557933
0.0011545484
0.0054155017
0.013004106
0.022372715
0.30261339
0.3014486
0.02232711
0.012972112
0.0054020296
0.0011532945
0.0011516847
0.0053887055
0.01294227
0.022288409
0.29993809
0.29764534
0.022206525
0.012884188
0.0053631481
0.0011484742
0.0011405165
0.0053045858
0.012741727
0.021975632
0.29406278
0.28887307
0.021462792
0.012443354
0.0051855893
0.001123716
0.0010971393
0.0050196285
0.012027149
0.020720738
0.28304549
0.28240264
0.021075424
0.012224212
0.0050951973
0.001101057
0.0011350244
0.0052268588
0.012572731
0.021755234
0.28694793
0.2939025
0.022433242
0.012982481
0.0053871129
0.0011498314
0.0011574216
0.0054479347
0.013124785
0.022661222
0.29764278
0.30009281
0.02274763
0.01318471
0.005473654
0.0011601741
0.0011617397
0.0054881307
0.013217003
0.022789938
0.30168468
0.30291828
0.022840616
0.013251202
0.0055022089
0.0011629653
0.0011642441
0.0055186741
0.013292596
0.022906014
0.30397565
0.30496399
0.022982055
0.013338634
0.0055365145
0.0011655331
0.0011668706
0.0055557851
0.013388512
0.023064891
0.30593136
0.30690801
0.023151469
0.013439978
0.0055755402
0.0011682123
0.0011695942
0.0055962238
0.01349363
0.023241138
0.30790183
0.30892386
0.023333332
0.013548399
0.0056172735
0.001170987
0.0011724246
0.0056392029
0.013605203
0.023428293
0.30997338
0.31105281
0.02352562
0.013663121
0.0056615193
0.0011738824
0.0011753913
0.0056847471
0.013723167
0.023625958
0.31216244
0.31330618
0.023728849
0.013784481
0.0057084256
0.0011769272
0.0011785178
0.0057330181
0.013847935
0.023834833
0.3144832
0.31569672
0.023943607
0.013912806
0.0057581174
0.0011801412
0.0011818228
0.005784123
0.013979778
0.024055427
0.31694549
0.31823098
0.024170192
0.014048293
0.0058106922
0.001183543
0.001185326
0.0058381893
0.014118981
0.024288201
0.31955226
0.32091206
0.024409315
0.014191344
0.0058663164
0.001187155
0.00118905
0.005895371
0.01426586
0.024533644
0.32230885
0.32374579
0.024661227
0.014342156
0.0059250991
0.0011909959
0.0011930101
0.0059557757
0.014420664
0.024792172
0.32522376
0.32674711
0.024926512
0.014501088
0.005987195
0.001195078
0.0011972121
0.0060195896
0.014583807
0.025064418
0.3283175
0.32993957
0.025205709
0.01466843
0.0060527165
0.0011993978
0.0012016465
0.0060868145
0.014755333
0.02535056
0.33161364
0.33333541
0.025499172
0.014844407
0.0061217577
0.0012039507
0.0012063296
0.006157781
0.014935857
0.025651305
0.33510413
0.33691707
0.025807102
0.015029399
0.0061946229
0.0012087756
0.0011995389
0.0060942639
0.014747515
0.025277447
0.33638853
0.33459557
0.025125158
0.014656028
0.006058231
0.0011971226
0.0011947825
0.0060228156
0.014566074
0.024975522
0.332846
0.331143
0.024829804
0.014478385
0.0059883059
0.0011925149
0.0011902995
0.0059545226
0.014392224
0.024686366
0.3294774
0.3278605
0.024546881
0.014308412
0.0059216815
0.0011881342
0.0011860415
0.0058898299
0.014226906
0.024410939
0.326289
0.32476476
0.024279052
0.014147672
0.0058588256
0.0011840102
0.0011820452
0.0058287669
0.014070564
0.024150359
0.32328239
0.32184545
0.024025569
0.013995632
0.0057995129
0.0011801347
0.0011782897
0.0057711805
0.013922759
0.023903809
0.32044828
0.31909413
0.02378574
0.013851885
0.0057435588
0.0011764961
0.0011747607
0.0057167654
0.013782818
0.023670241
0.31777578
0.31649706
0.023558163
0.013715559
0.0056906018
0.0011730671
0.0011714271
0.0056652469
0.013650025
0.023448431
0.31525217
0.31404863
0.023342284
0.013586333
0.0056405123
0.001169826
0.0011682761
0.0056165657
0.013524281
0.023238243
0.31287537
0.31173889
0.023137609
0.01346393
0.0055931696
0.001166758
0.0011652876
0.0055705726
0.013405218
0.02303903
0.31063169
0.30956209
0.022943969
0.013348218
0.0055485072
0.0011638451
0.0011624444
0.005527202
0.013292718
0.02285062
0.30851821
0.30750526
0.022760735
0.013238842
0.0055063826
0.0011610633
0.0011597179
0.0054863475
0.013186531
0.022672653
0.30651875
0.30555516
0.022588474
0.013135988
0.005466827
0.0011583845
0.0011570835
0.005448316
0.013087725
0.022507641
0.30459834
0.30363281
0.022434517
0.013042891
0.0054308086
0.0011557984
0.0011545533
0.0054153862
0.013003813
0.022372279
0.30260923
0.30144489
0.022326433
0.012971694
0.0054018703
0.0011532947
0.0011516766
0.0053886427
0.012942043
0.022287945
0.29993936
0.29765863
0.022206063
0.012883973
0.0053630723
0.0011484528
0.0011404165
0.005304042
0.01274051
0.021973487
0.29408143
0.288917
0.021459197
0.012441513
0.0051848763
0.001123588
0.0010963961
0.0050170499
0.012022647
0.020712583
0.28320998
0.31917915
0.019127859
0.011189173
0.0047142897
0.0010648
0.001089368
0.0048552676
0.011533269
0.019748588
0.32502335
0.3310288
0.020236643
0.01182491
0.0049722806
0.0011040934
0.0011112317
0.0050258439
0.011951618
0.020436871
0.33477135
0.33714927
0.020509458
0.012002988
0.0050484232
0.0011141003
0.0011156521
0.0050612753
0.012031833
0.020546846
0.33874147
0.34000635
0.020591975
0.012062554
0.005073945
0.0011168406
0.0011180377
0.005088745
0.012099888
0.020650574
0.3411269
0.34219658
0.020718911
0.012141554
0.0051048707
0.001119232
0.0011204637
0.0051223499
0.012186906
0.020793702
0.3432557
0.34433155
0.02087189
0.012233711
0.0051402829
0.0011216948
0.0011229597
0.0051590763
0.012282563
0.020952945
0.34543028
0.34655948
0.021036291
0.01233244
0.005178213
0.0011242329
0.0011255451
0.0051981489
0.012384175
0.02112212
0.34771891
0.34891442
0.021210286
0.012437008
0.005218464
0.0011268745
0.001128248
0.0052395711
0.012491676
0.021300925
0.3501446
0.35141296
0.021394037
0.012547558
0.0052611102
0.001129646
0.0011310911
0.005283449
0.012605298
0.021489724
0.3527177
0.35406281
0.021587959
0.012664334
0.005306253
0.0011325658
0.0011340921
0.0053298771
0.012725271
0.021688906
0.35544784
0.35687319
0.021792382
0.012787561
0.0053540054
0.0011356533
0.0011372708
0.0053789951
0.012851875
0.021898866
0.35833913
0.35984985
0.02200798
0.01291762
0.0054045288
0.0011389301
0.0011406561
0.0054309597
0.012985541
0.02212044
0.36140632
0.3630147
0.022236164
0.013055319
0.0054581145
0.0011424347
0.0011442775
0.0054862446
0.013127419
0.022355453
0.36467249
0.36638158
0.022477876
0.01320131
0.0055150799
0.0011461701
0.0011481286
0.0055448571
0.013277452
0.022603808
0.36814112
0.36995407
0.022733195
0.013355593
0.0055753926
0.0011501417
0.0011522035
0.0056070141
0.013436138
0.022866021
0.37181805
0.37372387
0.02300079
0.013517847
0.0056391966
0.001154288
0.0011564325
0.0056716466
0.01360022
0.023136809
0.37566904
0.3776806
0.023277535
0.013685261
0.0057050617
0.001158668
0.33683419
0.025800307
0.015025405
0.0061930691
0.0012086751
0.0012062127
0.0061561506
0.014931642
0.025644077
0.33502196
0.33326827
0.025492895
0.014840846
0.0061203939
0.001203841
0.0012015385
0.006085278
0.014751454
0.025343907
0.33155173
0.32988704
0.025198917
0.014664444
0.0060511407
0.0011992803
0.0011970843
0.0060179647
0.014579617
0.0250572
0.32827378
0.32671001
0.024919728
0.014497145
0.0059856473
0.0011949502
0.0011928845
0.0059542613
0.014416734
0.024785316
0.32519017
0.32371418
0.024654956
0.014338546
0.00592369
0.0011908778
0.0011889372
0.0058940027
0.014262295
0.024527403
0.32227759
0.32088226
0.024404002
0.01418829
0.0058651225
0.0011870548
0.0011852378
0.0058370821
0.014116086
0.024283128
0.31952304
0.3182013
0.024166176
0.014045953
0.0058097627
0.0011834703
0.0011817595
0.0057832493
0.013977498
0.024051451
0.3169152
0.3156661
0.023940488
0.013910976
0.0057573827
0.0011800895
0.0011784718
0.0057323026
0.013846057
0.023831548
0.31445095
0.31327221
0.023726239
0.013782952
0.0057078056
0.0011768885
0.0011753541
0.005684098
0.01372144
0.023622901
0.31212612
0.31101551
0.023523185
0.013661709
0.0056609464
0.0011738504
0.0011723914
0.0056385683
0.013603505
0.023425268
0.30993492
0.30888686
0.023330925
0.013547015
0.0056167098
0.0011709573
0.0011695628
0.0055956023
0.013491966
0.023238178
0.30786511
0.30687099
0.023149092
0.013438611
0.0055749832
0.0011681845
0.0011668409
0.0055551695
0.013386853
0.023061912
0.30589441
0.30492652
0.022980072
0.013337473
0.0055360272
0.0011655088
0.0011642183
0.0055181538
0.01329117
0.022903396
0.30394192
0.30288913
0.022839031
0.01325032
0.0055018406
0.0011629449
0.0011617191
0.0054878801
0.013216207
0.022788274
0.30166045
0.30007355
0.022747361
0.013184642
0.0054736205
0.0011601576
0.001157386
0.005448572
0.01312618
0.022663077
0.29764511
0.29389561
0.022432967
0.012981579
0.0053865574
0.0011497011
0.0011344167
0.0052304077
0.012580889
0.021766441
0.28701414
0.2821828
0.021067157
0.012220267
0.0050937786
0.0011001702
0.0011048759
0.0050751421
0.012196472
0.021056038
0.28174296
0.28740377
0.021803979
0.012606109
0.0052384329
0.0011344758
0.0011495293
0.0053859704
0.012978474
0.022426014
0.29394765
0.29773796
0.022661947
0.013125116
0.0054478569
0.0011571376
0.0011600598
0.0054740294
0.013185474
0.022748313
0.30014792
0.30172612
0.022791843
0.013217964
0.0054884452
0.0011616718
0.0011629491
0.005502824
0.013252564
0.022842278
0.30294399
0.30399494
0.022907434
0.013293312
0.0055189225
0.001164223
0.0011655335
0.0055369521
0.01333958
0.022983117
0.30497458
0.30593884
0.023065705
0.013388853
0.0055558834
0.0011668566
0.001168213
0.0055757996
0.013440475
0.023151819
0.30690969
0.30790308
0.023241465
0.013493693
0.0055962141
0.0011695813
0.0011709886
0.0056174434
0.013548677
0.02333336
0.30892111
0.30997169
0.023428332
0.013605117
0.0056391424
0.0011724143
0.0011738861
0.0056616549
0.01366334
0.023525621
0.31104944
0.31216161
0.023625982
0.013723074
0.0056846826
0.0011753843
0.0011769324
0.0057085375
0.013784648
0.023728816
0.31330525
0.31448589
0.023834888
0.01384785
0.0057329535
0.0011785129
0.0011801462
0.0057581976
0.013912893
0.023943482
0.31570175
0.31695746
0.024055419
0.013979666
0.0057840519
0.0011818164
0.0011835407
0.0058107417
0.014048326
0.024170046
0.3182491
0.31958009
0.024287924
0.0141187
0.0058380476
0.0011853039
0.0011871224
0.0058661696
0.014190882
0.024408357
0.32094683
0.32235252
0.024532145
0.014264864
0.0058949467
0.0011889863
0.0011909111
0.0059246025
0.014340835
0.024658831
0.32379563
0.32527892
0.024789039
0.014418757
0.0059549915
0.0011928872
0.001194933
0.0059863154
0.014498824
0.024922484
0.32680099
0.32836841
0.025059902
0.014581132
0.0060184982
0.0011970435
0.0011992343
0.006051725
0.014665925
0.025201245
0.32998446
0.3316545
0.025346872
0.014753178
0.0060858997
0.0012014914
0.0012038124
0.0061211699
0.014842742
0.025495842
0.33336727
0.33511607
0.025647935
0.014933882
0.0061569695
0.0012062031
0.0012086857
0.0061939174
0.015027643
0.025804082
0.33692177
6.8851108
6.8815284
6.8850932
6.8814932
6.8305045
6.8546438
6.8640454
6.9021532
6.8966975
6.8546571
6.8030908
6.8605972
6.8966851
6.8797001
6.8265906
6.7931318
6.7631012
6.6454414
6.6814285
6.55586
6.7391381
6.7057981
6.5009228
6.3413629
6.650058
6.795423
6.8530945
6.7358918
6.7812372
6.8157773
6.8564757
6.7714374
6.733593
6.6135667
6.6701014
6.5429401
6.7753402
6.7422065
6.7003708
6.6466234
6.6876594
6.4061429
6.3039624
6.2340502
6.6078354
6.5532798
6.5188313
6.5663519
6.2221944
6.278792
6.1671557
6.1074367
6.0553721
6.1098782
6.4195416
6.4669744
6.4670147
6.6745841
6.8016459
6.8136403
6.7705031
6.728989
0.28387899
0.020708536
0.012022438
0.0050173202
0.0011015724
0.0011252613
0.0051778074
0.012422144
0.021424455
0.28892181
0.29385466
0.02193871
0.012719107
0.005295569
0.0011409788
0.0011486981
0.0053565137
0.012867473
0.022179487
0.29739649
0.29972803
0.022269741
0.012930018
0.0053836943
0.0011517885
0.0011533743
0.0053985815
0.012963411
0.022313351
0.30127499
0.30248661
0.022362882
0.012997369
0.0054127225
0.0011545868
0.0011558324
0.0054290643
0.013038407
0.022427412
0.30353414
0.30452495
0.022502414
0.013083979
0.0054467559
0.0011570923
0.0011584027
0.0054658466
0.013133389
0.022584306
0.30549682
0.30647602
0.022669627
0.01318424
0.0054853819
0.0011597192
0.0011610772
0.0055058462
0.013237352
0.022758304
0.30747154
0.30849275
0.022848956
0.013291345
0.0055266123
0.0011624454
0.0011638594
0.0055482601
0.013347451
0.022942666
0.30953975
0.31061909
0.023038388
0.013404528
0.0055702573
0.0011652924
0.0011667766
0.0055931612
0.013463779
0.023137297
0.31172593
0.31286669
0.023238404
0.013524128
0.005616467
0.001168286
0.0011698498
0.0056406705
0.013586611
0.023342649
0.31403921
0.31524771
0.02344938
0.013650393
0.0056653588
0.0011714464
0.0011731006
0.0056909788
0.013716404
0.023559468
0.31648994
0.31776974
0.023672208
0.013783823
0.0057171238
0.0011747914
0.0011765422
0.0057441796
0.013853387
0.023788166
0.3190852
0.32043994
0.023907039
0.013924521
0.0057718277
0.0011783356
0.0011801912
0.0058003946
0.01399781
0.024029155
0.32183169
0.32326407
0.024154334
0.014072787
0.005829606
0.0011820945
0.0011840634
0.0058597593
0.014149977
0.02428291
0.32473793
0.32625595
0.024414646
0.014228957
0.0058906071
0.0011860846
0.0011881743
0.005922435
0.014310256
0.024550002
0.32781955
0.32943211
0.024688719
0.014393478
0.0059550184
0.00119032
0.001192536
0.0059885874
0.014478998
0.024830982
0.3310934
0.33280451
0.024977036
0.014566713
0.0060230224
0.0011948141
0.0011971655
0.0060584373
0.014656661
0.025126525
0.33456532
0.3363771
0.02527992
0.014748877
0.0060947505
0.0011995836
0.0011970937
0.0060575254
0.014654147
0.025122009
0.33452483
0.33278256
0.024973985
0.014565097
0.0060224249
0.0011947691
0.0011925056
0.0059880146
0.014477523
0.02482825
0.33108249
0.32942125
0.024684966
0.014391249
0.0059540893
0.0011902818
0.0011881136
0.0059212064
0.014307167
0.024544785
0.32780825
0.32624464
0.024408873
0.014225505
0.0058892233
0.0011860083
0.0011839721
0.0058581828
0.014145975
0.024276151
0.32472642
0.32325077
0.024147426
0.014068654
0.005827961
0.001181994
0.001180085
0.0057987136
0.013993486
0.024021837
0.32181373
0.32042153
0.02390066
0.013920756
0.0057703597
0.0011782366
0.0011764537
0.0057429345
0.013850097
0.023782471
0.31906826
0.31775174
0.023667744
0.01378121
0.0057161045
0.0011747162
0.0011730338
0.0056899905
0.013713838
0.023555065
0.31646728
0.31522049
0.023445912
0.013648305
0.0056645137
0.0011713919
0.001169802
0.0056398426
0.013584441
0.023338914
0.31400725
0.31282911
0.023235432
0.013522338
0.0056157415
0.0011682467
0.0011667395
0.0055924066
0.013461796
0.023133874
0.31168781
0.31057794
0.023035568
0.013402838
0.005569569
0.0011652606
0.0011638266
0.0055474931
0.013345426
0.022939127
0.30949553
0.30844601
0.022845966
0.01328956
0.0055258856
0.0011624162
0.0011610453
0.0055049982
0.013235103
0.022754361
0.30741856
0.30642345
0.022666407
0.013182301
0.0054845872
0.0011596912
0.0011583727
0.0054649287
0.013130976
0.022580133
0.3054412
0.30446735
0.022498613
0.0130817
0.0054458325
0.0011570654
0.0011558042
0.0054279944
0.013035613
0.022422644
0.30347343
0.30242188
0.022358786
0.012994849
0.0054116838
0.0011545683
0.0011533625
0.005397399
0.012960392
0.022308288
0.3012067
0.29964515
0.022265892
0.012927491
0.0053825964
0.0011518137
0.0011487709
0.0053554272
0.01286531
0.022176826
0.29727864
0.29358665
0.021938188
0.012716451
0.0052936859
0.0011411665
0.0011254654
0.0051756563
0.012421565
0.021432328
0.28836701
0.28240875
0.02068829
0.011994616
0.0050027368
0.0011014123
0.0010652085
0.0046890287
0.011201203
0.019356477
0.27118676
0.28268769
0.022165618
0.012757969
0.0052547128
0.0011187605
0.0011045683
0.0051182972
0.012274956
0.021152432
0.28380665
0.28715093
0.021756757
0.012576158
0.0052293535
0.0011363665
0.0011502698
0.0053848534
0.012975917
0.022420603
0.29388326
0.29751578
0.022645777
0.013115189
0.0054442026
0.0011576582
0.001160349
0.005471044
0.013177996
0.022736446
0.29995821
0.3015556
0.022779972
0.013210459
0.0054854685
0.0011618449
0.001163055
0.00550033
0.013246398
0.022832686
0.30279869
0.30386838
0.022898847
0.013287816
0.0055167203
0.0011642879
0.0011655752
0.0055350932
0.013334966
0.022975933
0.30486573
0.3058457
0.023059337
0.013384781
0.0055542612
0.0011668827
0.0011682311
0.0055744626
0.013437157
0.023146693
0.30683312
0.3078404
0.023236737
0.013490684
0.0055950273
0.0011695914
0.0011709964
0.0056164951
0.013546338
0.023329778
0.30886665
0.30992238
0.023424942
0.013602956
0.0056382891
0.0011724173
0.0011738878
0.0056609663
0.013661639
0.023523021
0.31100639
0.31212609
0.023623462
0.013721464
0.0056840485
0.0011753819
0.0011769296
0.005708029
0.013783421
0.023726986
0.3132732
0.31445537
0.023832943
0.013846607
0.0057324617
0.0011785065
0.0011801389
0.0057578128
0.013911972
0.023942119
0.31566986
0.31692036
0.024053858
0.013978666
0.0057836527
0.0011818045
0.0011835295
0.0058104095
0.014047535
0.024168855
0.31820424
0.31952557
0.024286579
0.014117864
0.0058377161
0.0011852943
0.0011871215
0.0058659466
0.014190362
0.02440758
0.32088352
0.32228332
0.0245316
0.014264514
0.0058948021
0.0011889951
0.0011909359
0.0059246013
0.014340892
0.024659032
0.32372292
0.32520655
0.024789708
0.014419076
0.0059550987
0.0011929293
0.0011949916
0.0059865697
0.01449954
0.024923868
0.32673273
0.32830363
0.02506145
0.01458196
0.0060188017
0.0011971114
0.0011993056
0.0060520773
0.014666826
0.025202827
0.329919
0.33158276
0.025348098
0.014753971
0.0060862529
0.001201564
0.0012039056
0.0061216601
0.014843902
0.025497533
0.33329373
0.33505432
0.025652066
0.014937195
0.0061586236
0.0012063286
0.0012088141
0.0061982789
0.015033776
0.025808886
0.33686395
0.0011970867
0.0060571349
0.014653336
0.02512089
0.33452695
0.33277225
0.024971139
0.014563269
0.0060216773
0.0011947358
0.0011924513
0.0059871595
0.014475295
0.024824599
0.33106638
0.32941466
0.024682851
0.014390116
0.0059537304
0.0011902383
0.0011880996
0.0059212887
0.014307216
0.024544618
0.32781231
0.32625611
0.024410452
0.014226587
0.0058896947
0.0011860259
0.0011840206
0.0058590116
0.014147977
0.024279286
0.32474225
0.32327056
0.024151878
0.014071456
0.0058290995
0.0011820708
0.0011801863
0.0057999807
0.013996733
0.024027162
0.32183597
0.32043165
0.023904446
0.013922902
0.0057711252
0.0011783317
0.0011765202
0.0057432114
0.013850968
0.023784254
0.31906442
0.31773971
0.023667692
0.013781026
0.0057160047
0.0011747472
0.0011730478
0.0056899818
0.013713768
0.023555022
0.31645902
0.31521441
0.023446029
0.013648351
0.0056645362
0.0011714019
0.0011698103
0.0056398784
0.013584559
0.023339174
0.31400567
0.31283096
0.023235719
0.013522485
0.0056157911
0.001168255
0.0011667494
0.0055924559
0.01346194
0.023134136
0.31168652
0.31057444
0.023035592
0.013402866
0.0055695816
0.0011652712
0.001163838
0.0055474634
0.013345347
0.022938996
0.30948856
0.30843555
0.022845468
0.01328928
0.0055257812
0.001162427
0.0011610564
0.0055048542
0.01323474
0.02275378
0.30740582
0.30640665
0.022665427
0.013181725
0.0054843648
0.0011597029
0.0011583868
0.0054646581
0.013130306
0.022579059
0.30542022
0.30444377
0.022497298
0.01308089
0.0054455047
0.0011570832
0.0011558278
0.0054276309
0.013034722
0.022421223
0.3034443
0.30239262
0.022357255
0.012993885
0.0054112858
0.0011545998
0.0011534041
0.0053969939
0.012959389
0.02230667
0.30117484
0.29961584
0.022263848
0.012926233
0.0053820775
0.0011518627
0.0011488341
0.0053550571
0.012864351
0.02217519
0.29726891
0.29362261
0.021938587
0.012716822
0.0052938874
0.0011412654
0.00112566
0.0051772288
0.012425436
0.021438642
0.28850895
0.28266117
0.02070258
0.012002258
0.0050057651
0.0011018309
0.0010663376
0.0047161408
0.011270186
0.019467236
0.27231631
0.30151057
0.017449498
0.010094099
0.0042564965
0.0010412913
0.0010980226
0.0049716369
0.011931332
0.020557558
0.27772191
0.28140176
0.020660197
0.011998221
0.0049990965
0.001094687
0.0011003736
0.0050125529
0.012011109
0.020692131
0.28368052
0.28890401
0.021426444
0.012423278
0.0051784652
0.0011249292
0.0011407419
0.005295486
0.012719268
0.021939086
0.29386871
0.29746576
0.022182231
0.012869046