/*--------------------------------*- C++ -*----------------------------------*\
  =========                 |
  \\      /  F ield         | OpenFOAM: The Open Source CFD Toolbox
   \\    /   O peration     | Website:  https://openfoam.org
    \\  /    A nd           | Version:  7
     \\/     M anipulation  |
\*---------------------------------------------------------------------------*/
FoamFile
{
    version     2.0;
    format      ascii;
    class       volScalarField;
    location    "320";
    object      omega;
}
// * * * * * * * * * * * * * * * * * * * * * * * * * * * * * * * * * * * * * //

dimensions      [0 0 -1 0 0 0 0];

internalField   nonuniform List<scalar> 
25201
(
162.87613
163.08601
162.87614
163.08611
163.46065
161.7744
161.4668
165.8469
165.99128
167.12716
165.99131
161.77446
162.5981
172.28222
174.92031
161.93207
163.79221
165.4954
165.89336
171.64184
167.49904
168.61018
166.98945
169.80305
168.87834
172.75108
170.5028
165.46693
166.70143
171.52075
170.46267
169.03815
178.34518
176.56604
174.29822
174.90233
170.22296
171.68267
177.08841
178.87887
172.79434
173.41207
172.13625
179.29675
179.79754
179.82635
174.09859
167.74252
163.5586
162.59787
166.71624
167.56427
169.56767
168.27245
166.92347
165.35229
163.36222
165.06538
166.82859
171.727
169.48456
166.67788
168.39941
169.66889
171.60453
169.00335
170.28607
174.72702
173.20294
177.10895
175.68907
172.95603
166.62155
168.2295
169.29217
178.41581
175.66564
174.08798
172.32509
171.01016
169.26191
167.7332
170.26374
171.26473
172.96305
170.69982
172.58628
172.26872
174.97134
173.50257
175.92659
177.82416
177.38921
176.70206
176.4916
174.66945
174.17624
175.99862
179.41856
177.06297
177.49148
179.66703
179.80705
177.63806
178.06068
179.81677
183.87748
181.25067
179.22746
178.38939
180.31625
180.64959
183.50173
183.30726
187.74323
184.20279
184.58965
187.9075
188.03926
183.69106
180.85718
184.64096
185.03913
188.20847
193.24509
189.0095
185.50757
179.24109
173.51626
177.10817
178.90061
179.82228
179.83676
179.00846
177.19624
175.23135
172.59118
170.27048
166.67977
163.3632
165.35243
168.39991
171.72854
169.48674
165.06758
166.82942
168.27334
166.9238
166.71647
169.0036
171.60496
169.66992
173.2038
174.72925
170.28736
171.52904
167.56495
163.5595
166.62439
168.23053
175.69122
172.96048
170.70207
169.26934
167.73901
171.01934
172.33536
174.09282
177.40318
175.77519
172.96612
171.26687
174.46483
171.47518
172.8291
174.93875
174.46519
173.73514
179.27122
179.91033
185.30394
182.78062
181.61276
184.28746
184.98524
188.13579
185.51102
185.03982
188.27248
193.31583
189.00664
185.67362
179.27787
173.74031
177.83045
175.94226
174.99953
188.07632
184.67136
180.884
177.665
178.07338
179.83067
177.40407
176.73079
179.8405
183.72112
183.89459
181.26518
185.05152
188.22488
193.25843
189.02002
188.7199
188.69495
184.94819
163.06944
162.8264
159.28656
165.45146
166.6965
172.13187
176.55279
170.45111
171.51378
172.78438
173.41053
179.79506
179.29813
178.33996
178.87162
177.07563
171.67054
170.20382
169.02241
174.28138
174.88582
172.24403
168.58786
163.76775
95078.124
30142.242
16730.855
12128.907
1971.8767
1945.7994
11904.966
16443.5
29663.793
94013.404
93177.478
29232.552
16215.223
11746.103
1916.6464
1903.4818
11693.934
16132.259
29072.251
92906.01
92850.148
29025.801
16115.265
11690.595
1898.3985
1898.1679
11704.816
16125.162
29030.102
92900.385
92982.018
29049.857
16143.289
11723.629
1900.2777
1903.5899
11742.314
16163.313
29074.4
93076.47
93177.793
29100.685
16184.368
11761.384
1907.5591
1911.8694
11780.213
16205.829
29127.968
93280.932
93387.565
29156.058
16228.138
11799.881
1916.4284
1921.1364
11819.672
16250.896
29184.902
93494.774
93605.526
29214.614
16274.563
11840.445
1926.001
1930.9813
11861.453
16298.749
29245.173
93717.351
93833.123
29276.727
16323.903
11883.471
1936.1048
1941.3417
11905.795
16349.64
29309.24
93950.639
94072.443
29342.875
16376.381
11929.127
1946.7171
1952.2039
11952.83
16403.766
29377.565
94196.446
94324.924
29413.449
16432.186
11977.534
1957.8269
1963.5657
12002.677
16461.309
29450.504
94456.096
94592.201
29488.874
16491.523
12028.833
1969.4415
1975.4339
12055.526
16522.551
29528.59
94731.724
94876.419
29569.792
16554.763
12083.285
1981.5626
1987.8092
12111.674
16587.913
29612.569
95025.002
95179.169
29656.91
16622.28
12141.139
1994.2085
2000.7582
12171.321
16657.673
29702.929
95337.484
95501.326
29750.697
16694.374
12202.622
2007.4737
2014.3353
12234.658
16732.126
29800.22
95669.621
95843.662
29851.426
16771.122
12267.748
2021.3421
2028.4728
12301.583
16811.106
29904.108
96022.297
96205.783
29958.402
16852.446
12336.601
2035.7429
2043.2077
12372.888
16895.605
30015.919
96394.331
1852.4995
12575.631
16963.273
29966.847
95761.931
95585.785
29913.61
16921.499
12539.479
1845.6927
1839.0913
12504.931
16882.108
29864.675
95413.802
95244.136
29817.981
16844.661
12472.056
1832.692
1826.4071
12439.821
16807.881
29771.794
95078.189
94917.614
29726.808
16772.067
12408.497
1820.2327
1814.1639
12377.81
16737.185
29683.443
94761.48
94610.459
29641.652
16703.518
12348.195
1808.2152
1802.3703
12319.19
16670.738
29601.289
94463.821
94322.854
29562.206
16638.993
12291.15
1796.6332
1791.0091
12263.689
16608.136
29524.647
94186.548
94055.064
29488.778
16578.582
12237.391
1785.5239
1780.1591
12211.691
16549.929
29454.326
93926.895
93802.952
29421.032
16522.319
12187.023
1774.9171
1769.7783
12162.771
16495.383
29388.828
93681.799
93564.478
29357.625
16469.405
12139.505
1764.7653
1759.8569
12116.619
16444.083
29327.496
93449.801
93338.667
29298.314
16419.703
12094.731
1755.0737
1750.3916
12073.148
16395.911
29270.101
93229.574
93123.595
29242.677
16373.005
12052.552
1745.8345
1741.3855
12032.183
16350.624
29216.136
93018.955
92917.114
29190.285
16329.092
12012.792
1737.0757
1732.9025
11993.537
16308.044
29165.247
92816.236
92718.29
29140.918
16287.841
11975.179
1728.9353
1725.256
11956.745
16268.245
29117.87
92622.875
92534.477
29096.736
16249.947
11939.034
1722.1032
1719.8986
11922.044
16234.613
29081.975
92460.931
92424.676
29084.029
16228.542
11910.617
1719.5598
1723.0756
11918.096
16251.414
29140.075
92495.57
92815.253
29311.581
16339.055
11973.038
1733.2948
1752.5325
12109.086
16533.182
29670.839
93607.184
95156.102
30196.623
16802.283
12307.704
1776.7378
1871.8693
13019.48
17881.834
32205.482
96608.953
95076.159
30174.987
16787.79
12299.438
1775.5044
1750.6133
12104.611
16525.103
29650.747
93549.186
92788.445
29297.05
16332.555
11969.039
1731.7037
1721.8593
11915.183
16246.745
29129.249
92478.112
92414.848
29076.073
16224.917
11908.256
1718.5243
1719.0186
11920.16
16231.742
29075.717
92454.345
92530.871
29091.94
16247.692
11937.531
1721.3547
1724.6311
11955.555
16266.458
29114.064
92620.623
92717.429
29137.945
16286.408
11974.198
1728.4024
1732.4443
11992.761
16306.909
29162.859
92816.007
92917.731
29188.448
16328.203
12012.169
1736.6859
1741.0549
12031.714
16349.942
29214.658
93019.837
93125.151
29241.614
16372.516
12052.21
1745.5547
1750.1576
12072.946
16395.598
29269.3
93231.418
93341.356
29297.861
16419.565
12094.653
1754.8816
1759.7065
12116.67
16444.103
29327.287
93452.895
93568.507
29357.713
16469.584
12139.669
1764.6505
1769.6972
12163.05
16495.707
29389.139
93686.281
93808.415
29421.682
16522.822
12187.424
1774.8635
1780.1354
12212.25
16550.647
29455.328
93933.221
94062.61
29490.224
16579.537
12238.103
1785.5285
1791.0313
12264.509
16609.246
29526.376
94195.048
94332.345
29564.075
16640.153
12291.995
1796.6564
1802.3896
12320.084
16671.952
29603.243
94473.54
94620.214
29643.777
16704.832
12349.163
1808.2312
1814.1748
12378.851
16738.565
29685.622
94770.792
94926.504
29729.057
16773.508
12409.595
1820.2367
1826.4068
12440.984
16809.368
29774.042
95086.483
95252.243
29820.296
16846.208
12473.266
1832.6906
1839.0971
12506.166
16883.671
29866.975
95421.838
95593.955
29915.771
16922.981
12540.651
1845.6965
1852.497
12576.679
16964.583
29968.65
95770.405
95954.282
30023.669
17007.435
12613.684
1859.3959
96484.816
30048.871
16937.084
12427.619
2038.5082
2030.8634
12390.236
16892.767
29990.094
96291.4
96103.908
29934.258
16850.291
12354.248
2023.4014
2016.1004
12319.215
16809.115
29880.5
95922.268
95745.061
29829.365
16769.81
12285.695
2009.0116
2002.0544
12252.957
16731.484
29779.479
95571.986
95404.819
29731.048
16694.287
12221.226
1995.2325
1988.5385
12190.183
16658.102
29684.366
95242.568
95085.764
29639.341
16623.167
12160.228
1981.9942
1975.5726
12130.912
16589.172
29595.855
94933.531
94786.47
29553.883
16556.354
12102.651
1969.2928
1963.1334
12074.954
16524.402
29513.37
94643.506
94505.283
29474.32
16493.617
12048.325
1957.1197
1951.2264
12022.221
16463.651
29436.613
94370.385
94239.841
29400.135
16434.752
11997.146
1945.4738
1939.8333
11972.5
16406.57
29364.857
94112.365
93989.003
29330.707
16379.405
11948.868
1934.3301
1928.9341
11925.592
16352.886
29297.657
93868.335
93751.523
29265.632
16327.343
11903.323
1923.6758
1918.523
11881.342
16302.381
29234.593
93636.849
93525.654
29204.437
16278.343
11860.363
1913.5096
1908.6044
11839.598
16254.818
29175.142
93415.979
93309.296
29146.587
16232.161
11819.81
1903.8513
1899.2339
11800.107
16209.927
29118.763
93203.674
93100.871
29091.543
16188.465
11781.213
1894.8457
1890.772
11762.012
16167.364
29065.269
93000.213
92905.842
29040.426
16147.18
11743.136
1887.3169
1884.985
11724.312
16129.272
29021.008
92824.551
92778.212
29018.331
16120.346
11710.599
1884.904
1889.5455
11717.052
16142.052
29071.883
92836.734
93153.93
29244.988
16231.996
11774.306
1901.8613
1923.683
11920.142
16436.381
29616.595
93992.611
95637.47
30172.093
16724.497
12136.57
1949.4105
1967.8814
12133.502
16726.332
30072.482
94637.059
93932.737
29692.405
16458.357
11913.85
1947.437
1916.0578
11742.142
16208.991
29217.812
93125.596
92889.58
29067.343
16130.086
11692.682
1903.3016
1898.1191
11689.12
16113.172
29021.406
92840.542
92898.315
29027.658
16124.202
11704.415
1897.9643
1900.08
11722.989
16142.437
29048.085
92980.583
93077.864
29073.137
16162.912
11742.271
1903.4344
1907.4197
11760.998
16183.883
29099.679
93178.248
93283.315
29127.219
16205.679
11780.335
1911.7841
1916.353
11799.658
16227.865
29155.461
93388.759
93497.509
29184.515
16250.925
11819.905
1921.0941
1925.9639
11840.365
16274.48
29214.35
93607.149
93720.476
29245.097
16298.956
11861.801
1930.9733
1936.1034
11883.538
16324.009
29276.778
93835.241
93954.252
29309.503
16350.041
11906.274
1941.3712
1946.7537
11929.362
16376.697
29343.26
94075.337
94200.91
29378.165
16404.367
11953.443
1952.2716
1957.9034
11977.931
16432.715
29414.207
94329.003
94461.645
29451.459
16462.102
12003.404
1963.6675
1969.5549
12029.346
16492.225
29489.936
94597.212
94737.507
29529.723
16523.428
12056.283
1975.5824
1981.7352
12083.743
16555.414
29570.79
94881.035
95029.531
29613.303
16588.55
12112.23
1988.0325
1994.4653
12141.361
16622.62
29657.336
95181.82
95339.49
29703.032
16657.958
12171.588
2001.0414
2007.7456
12202.553
16694.335
29750.415
95501.628
95669.831
29799.649
16732.074
12234.671
2014.5824
2021.5334
12267.629
16770.983
29850.788
95843.084
96022.513
29903.876
16811.324
12301.786
2028.6105
2035.8363
12336.837
16852.882
29958.962
96207.315
96398.592
30015.751
16895.751
12373.02
2043.224
2050.7971
12410.36
16940.173
30075.068
96595.306
96483.968
30048.541
16936.83
12427.42
2038.4623
2030.8083
12390.064
16892.543
29989.803
96290.905
96103.805
29934.064
16850.123
12354.119
2023.3395
2016.0392
12319.151
16809.044
29880.495
95922.517
95745.514
29829.484
16769.814
12285.685
2008.9516
2002.0059
12252.987
16731.545
29779.699
95572.492
95405.248
29731.356
16694.397
12221.291
1995.2015
1988.5242
12190.256
16658.219
29684.669
95242.821
95085.773
29639.634
16623.284
12160.301
1981.9914
1975.578
12130.957
16589.252
29596.084
94933.142
94785.82
29553.986
16556.374
12102.655
1969.3011
1963.1409
12074.914
16524.362
29513.373
94642.638
94504.333
29474.251
16493.536
12048.255
1957.124
1951.2277
12022.132
16463.548
29436.514
94369.426
94238.982
29400.032
16434.645
11997.052
1945.4757
1939.8354
11972.417
16406.479
29364.779
94111.634
93988.45
29330.67
16379.338
11948.801
1934.3319
1928.9387
11925.55
16352.855
29297.685
93867.892
93751.233
29265.673
16327.333
11903.3
1923.6875
1918.5412
11881.352
16302.411
29234.697
93636.751
93525.74
29204.601
16278.414
11860.404
1913.5326
1908.638
11839.673
16254.928
29175.372
93416.233
93309.708
29146.87
16232.305
11819.91
1903.8914
1899.2785
11800.223
16210.095
29119.081
93204.099
93101.36
29091.905
16188.653
11781.343
1894.891
1890.818
11762.143
16167.552
29065.639
93000.678
92906.502
29040.778
16147.364
11743.268
1887.356
1885.0142
11724.455
16129.481
29021.446
92825.532
92780.102
29018.527
16120.479
11710.73
1884.9148
1889.5135
11717.244
16142.288
29072.518
92841.01
93158.716
29246.75
16233.038
11775.126
1901.8211
1923.5145
11921.17
16437.949
29622.212
94009.848
95612.388
30177.247
16730.157
12141.36
1949.0546
1773.0461
12310.57
16792.526
30130.681
94904.804
93553.499
29683.737
16540.298
12113.894
1751.8993
1731.5502
11967.661
16330.628
29292.122
92761.261
92470.002
29126.822
16245.307
11914.302
1721.7642
1718.5271
11907.584
16224.197
29074.994
92408.733
92454.216
29075.918
16231.843
11920.376
1719.1136
1721.4757
11937.498
16247.895
29092.622
92530.317
92621.961
29114.826
16266.892
11955.985
1724.7617
1728.5171
11974.214
16286.662
29138.663
92717.264
92817.093
29163.483
16307.296
11993.157
1732.5654
1736.7796
12012.13
16328.348
29188.942
92917.239
93020.336
29215.065
16350.198
12031.996
1741.1378
1745.6096
12052.077
16372.526
29241.869
93124.124
93231.276
29269.475
16395.708
12073.1
1750.203
1754.9015
12094.422
16419.439
29297.902
93339.808
93452.096
29327.26
16444.075
12116.699
1759.7166
1764.6379
12139.344
16469.329
29357.561
93566.359
93684.803
29388.917
16495.548
12162.966
1769.6772
1774.8254
12187.026
16522.46
29421.37
93805.699
93930.986
29454.957
16550.386
12212.079
1780.0934
1785.4759
12237.645
16579.081
29489.748
94059.125
94191.786
29525.817
16608.877
12264.252
1790.9837
1796.6023
12291.446
16639.552
29563.307
94327.606
94468.44
29602.253
16671.344
12319.646
1802.3348
1808.1598
12348.357
16703.873
29642.353
94613.143
94763.044
29683.786
16737.486
12378.056
1814.0959
1820.1404
12408.413
16772.034
29726.727
94916.971
95076.649
29771.308
16807.764
12439.793
1826.3046
1832.5808
12471.797
16844.322
29817.255
95241.481
95411.489
29863.937
16881.872
12504.833
1838.9922
1845.594
12539.239
16921.172
29912.922
95583.854
95761.629
29966.034
16962.969
12575.464
1852.4037
1859.3144
12612.583
17006.011
30021.494
95947.203
2050.7809
12409.677
16939.322
30074.035
96590.132
96393.314
30014.915
16895.081
12372.518
2043.2142
2035.7683
12336.133
16851.865
29957.481
96203.385
96019.51
29903.081
16810.593
12301.245
2028.5248
2021.4152
12267.3
16770.542
29850.44
95840.469
95667.307
29799.467
16731.793
12234.487
2014.4383
2007.5799
12202.424
16694.111
29750.281
95499.508
95337.463
29702.885
16657.742
12171.481
2000.866
1994.2848
12141.249
16622.416
29657.217
95179.966
95027.463
29613.153
16588.331
12112.106
1987.8578
1981.5604
12083.545
16555.113
29570.502
94878.994
94735.141
29529.308
16523.052
12056.024
1975.4179
1969.4072
12029.041
16491.819
29489.49
94594.829
94458.937
29450.972
16461.684
12003.087
1963.5438
1957.7973
11977.603
16432.309
29413.742
94326.387
94198.158
29377.689
16403.974
11953.135
1952.1884
1946.6885
11929.068
16376.341
29342.863
94072.873
93951.664
29309.107
16349.713
11906.02
1941.3256
1936.0691
11883.304
16323.719
29276.463
93832.938
93717.998
29244.797
16298.698
11861.608
1930.9537
1925.9454
11840.177
16274.243
29214.112
93604.961
93495.202
29184.285
16250.722
11819.759
1921.0849
1916.3419
11799.513
16227.683
29155.304
93386.684
93281.014
29127.032
16205.508
11780.221
1911.7816
1907.4285
11760.906
16183.745
29099.56
93176.39
93075.908
29072.982
16162.782
11742.21
1903.4538
1900.0928
11722.917
16142.32
29047.984
92979.18
92897.163
29027.283
16123.983
11704.31
1897.9773
1898.1319
11689.037
16113.067
29021.372
92840.609
92890.956
29066.026
16129.417
11692.257
1903.2465
1916.1215
11743.202
16211.071
29222.609
93132.483
93955.428
29689.028
16457.695
11913.9
1947.178
1969.5744
12143.536
16741.244
30104.027
94787.611
94979.686
30104.154
16716.089
12120.673
1970.5295
1945.0484
11904.054
16441.023
29653.932
93966.142
93155.406
29225.986
16213.36
11745.426
1915.9813
1902.9119
11693.218
16130.777
29067.98
92894.951
92843.91
29021.549
16113.507
11689.587
1897.8844
1897.7629
11704.008
16123.763
29026.837
92897.272
92980.506
29047.068
16142.055
11722.898
1899.9414
1903.314
11741.778
16162.373
29072.253
93076.274
93178.181
29098.955
16183.617
11760.963
1907.3389
1911.706
11779.939
16205.272
29126.607
93282.008
93388.859
29154.991
16227.713
11799.681
1916.3026
1921.0404
11819.593
16250.625
29184.116
93496.547
93607.355
29214.034
16274.408
11840.433
1925.9325
1930.9357
11861.564
16298.75
29244.859
93719.695
93835.72
29276.639
16324.028
11883.662
1936.0822
1941.3403
11906.109
16349.92
29309.4
93953.775
94075.983
29343.26
16376.796
11929.528
1946.7315
1952.2318
11953.361
16404.353
29378.233
94200.776
94329.949
29414.398
16432.928
11978.163
1957.8587
1963.5913
12003.447
16462.252
29451.792
94462.214
94599.154
29490.498
16492.655
12029.729
1969.4565
1975.4406
12056.564
16523.881
29530.543
94739.486
94884.678
29572.044
16556.262
12084.437
1981.5659
1987.824
12112.952
16589.574
29615.081
95033.849
95188.354
29659.608
16624.044
12142.494
1994.2328
2000.785
12172.739
16659.507
29705.738
95347.078
95511.068
29753.549
16696.227
12204.055
2007.4965
2014.3429
12236.065
16733.933
29802.989
95679.554
95853.58
29853.984
16772.793
12269.053
2021.3177
2028.4057
12302.744
16812.572
29906.324
96031.932
96215.179
29960.34
16853.783
12337.683
2035.6776
2043.1727
12373.921
16896.899
30017.735
96403.544
96598.642
30076.601
16941.053
12411.039
2050.7769
171.27891
171.3915
171.27885
171.3913
170.45456
169.87259
169.694
174.55071
174.57808
169.8726
171.0284
175.22106
174.57806
175.08143
174.7418
172.88458
170.66936
173.05701
175.05988
177.7795
173.96994
171.84033
176.21767
179.82702
172.97126
171.10013
175.59769
176.66303
175.71373
177.93028
177.08059
178.75183
176.66044
179.34296
180.99885
183.9319
178.79879
179.51353
177.4181
175.89209
175.03522
181.1822
183.59395
182.35097
173.84152
172.50022
170.53579
169.56984
177.11275
178.50001
181.11886
179.80007
178.42207
175.67078
167.74731
169.29522
169.28839
163.54846
163.06869
162.82526
161.72634
162.57028
1943.3694
12115.586
16691.143
30115.451
95571.18
94005.738
29617.442
16435.249
11920.645
1922.7791
1902.6473
11779.06
16238.65
29258.825
93169.44
92851.917
29085.003
16148.769
11721.853
1890.6684
1885.8958
11713.702
16125.25
29028.103
92786.194
92830.906
29028.485
16133.268
11727.115
1885.8426
1888.0042
11744.895
16150.089
29046.099
92908.786
93003.335
29069.718
16169.899
11763.865
1891.3775
1895.3405
11782.326
16190.332
29095.087
93101.944
93205.533
29121.623
16211.66
11801.428
1899.6695
1904.216
11820.535
16233.414
29148.922
93309.664
93417.249
29177.059
16256.049
11840.579
1908.9405
1913.7922
11860.839
16279.196
29206.001
93525.622
93637.797
29235.917
16303.291
11882.1
1918.7946
1923.9106
11903.652
16327.955
29266.749
93751.433
93869.27
29298.637
16353.601
11926.212
1929.1724
1934.5506
11949.12
16379.87
29331.547
93989.1
94113.406
29365.625
16407.16
11973.029
1940.0647
1945.6954
11997.356
16435.144
29400.837
94240.226
94371.826
29437.285
16464.176
12022.687
1951.4666
1957.3574
12048.488
16493.951
29474.965
94506.315
94645.617
29513.98
16524.824
12075.3
1963.385
1969.5396
12102.665
16556.524
29554.343
94788.221
94935.912
29596.161
16589.379
12131.066
1975.8366
1982.2672
12160.108
16623.162
29639.488
95087.369
95244.169
29684.413
16658.179
12190.228
1988.8394
1995.5428
12221.071
16694.213
29730.994
95405.22
95571.99
29779.296
16731.543
12253.026
2002.383
2009.3499
12285.775
16769.964
29829.344
95743.393
95920.712
29881.239
16809.753
12319.683
2016.4562
2023.7054
12354.483
16850.736
29935.01
96103.21
96291.717
29990.788
16893.187
12390.498
2031.111
2038.6789
12427.609
16937.096
30048.917
96485.6
96286.693
29989.127
16892.037
12389.65
2030.92
2023.4433
12353.427
16849.318
29933.014
96100.517
95919.45
29879.418
16808.32
12318.589
2016.1444
2009.047
12285.063
16769.143
29828.686
95741.959
95569.291
29779.082
16731.132
12252.661
2002.0961
1995.2658
12220.9
16693.993
29730.875
95401.768
95239.967
29684.382
16658.082
12190.192
1988.578
1982.0226
12160.155
16623.164
29639.555
95082.737
94930.84
29596.153
16589.379
12131.136
1975.6159
1969.3266
12102.608
16556.347
29554.024
94783.462
94641.159
29513.284
16524.392
12075.056
1963.1683
1957.1481
12048.141
16493.443
29474.238
94502.362
94367.966
29436.749
16463.746
12022.365
1951.2876
1945.546
11997.051
16434.778
29400.443
94236.916
94110.215
29365.288
16406.843
11972.76
1939.9474
1934.467
11948.886
16379.614
29331.334
93986.383
93866.605
29298.472
16353.397
11926.03
1929.1214
1923.8804
11903.501
16327.799
29266.682
93749.142
93635.429
29235.884
16303.176
11881.998
1918.7816
1913.7926
11860.756
16279.119
29206.057
93523.534
93414.854
29177.14
16256.01
11840.542
1908.9626
1904.2529
11820.523
16233.418
29149.095
93307.545
93203.16
29121.864
16211.731
11801.482
1899.7285
1895.4039
11782.405
16190.466
29095.467
93099.842
93001.133
29070.203
16170.113
11764.022
1891.4595
1888.1066
11745.108
16150.399
29046.8
92907.485
92830.455
29029.364
16133.676
11727.4
1885.9708
1886.0912
11713.965
16125.741
29029.343
92789.159
92859.581
29086.778
16149.302
11721.914
1891.0324
1903.7584
11779.913
16241.519
29266.261
93191.91
94062.242
29633.327
16441.084
11921.905
1925.4206
1950.9443
12136.211
16731.939
30190.279
95720.839
97720.888
31301.967
17331.115
12562.356
2009.6661
1954.1351
11831.426
16437.977
29959.684
98578.128
94541.661
29999.447
16688.787
12107.127
1959.3456
1945.7762
11907.518
16448.966
29680.45
93941.655
93143.053
29221.363
16209.961
11743.162
1915.8754
1903.7723
11694.688
16133.406
29075.456
92907.11
92855.206
29027.78
16116.072
11691.159
1898.6834
1898.5277
11705.76
16126.573
29033.169
92907.041
92987.886
29052.399
16144.553
11724.516
1900.619
1903.9151
11743.166
16164.495
29076.675
93081.334
93181.607
29102.588
16185.404
11762.148
1907.8532
1912.1465
11780.93
16206.765
29129.598
93284.109
93390.229
29157.453
16228.968
11800.525
1916.6788
1921.3703
11820.297
16251.683
29186.165
93497.23
93607.925
29215.783
16275.332
11841.071
1926.2287
1931.2072
11862.096
16299.523
29246.306
93719.868
93835.836
29277.859
16324.69
11884.128
1936.3272
1941.5563
11906.489
16350.474
29310.424
93953.695
94075.958
29344.153
16377.279
11929.87
1946.9322
1952.4236
11953.624
16404.741
29378.963
94200.559
94329.878
29415.003
16433.252
11978.394
1958.0563
1963.8109
12003.61
16462.497
29452.274
94461.945
94598.836
29490.871
16492.834
12029.851
1969.7093
1975.7302
12056.593
16523.949
29530.75
94738.764
94883.635
29572.024
16556.191
12084.36
1981.89
1988.1655
12112.694
16589.278
29614.696
95031.985
95185.398
29658.881
16623.547
12142.078
1994.577
2001.1137
12172.109
16658.748
29704.57
95342.779
95505.759
29751.91
16695.196
12203.221
2007.7933
2014.6075
12235.079
16732.693
29800.972
95673.309
95846.979
29851.839
16771.514
12268.057
2021.5694
2028.6681
12301.803
16811.402
29904.502
96026.124
96212.208
29958.781
16852.441
12336.555
2035.919
2043.3191
12371.916
16893.941
30013.283
96404.91
96602.775
30062.317
16935.073
12408.382
2050.8871
96287.219
29990.419
16892.763
12390.154
2030.9613
2023.547
12354.248
16850.407
29934.66
96099.246
95916.412
29880.736
16809.378
12319.463
2016.2736
2009.1186
12285.43
16769.381
29828.466
95739.205
95567.96
29778.175
16730.789
12252.557
2002.1101
1995.2415
12220.497
16693.353
29729.771
95401.76
95241.056
29683.162
16657.269
12189.594
1988.5308
1981.9538
12159.379
16622.174
29638.151
95084.877
94934.3
29594.89
16588.368
12130.287
1975.5365
1969.309
12102.193
16556.056
29554.14
94786.451
94642.396
29514.253
16524.761
12075.146
1963.2275
1957.2533
12048.54
16494.127
29475.391
94501.612
94366.849
29436.944
16464.031
12022.593
1951.3674
1945.6057
11997.134
16434.838
29400.334
94236.232
94109.972
29365.24
16406.863
11972.794
1939.9945
1934.5079
11948.926
16379.662
29331.396
93986.568
93867.137
29298.658
16353.494
11926.101
1929.1642
1923.9286
11903.604
16327.946
29266.971
93749.857
93636.213
29236.251
16303.363
11882.126
1918.8356
1913.855
11860.901
16279.338
29206.505
93524.279
93415.731
29177.634
16256.248
11840.699
1909.0318
1904.3319
11820.689
16233.683
29149.683
93308.497
93204.329
29122.549
16212.025
11801.663
1899.8199
1895.5109
11782.608
16190.806
29096.296
93101.286
93003.027
29071.147
16170.492
11764.248
1891.5875
1888.2502
11745.376
16150.852
29047.952
92910.097
92834.097
29030.613
16134.149
11727.681
1886.1162
1886.2175
11714.309
16126.333
29030.98
92794.116
92866.697
29087.919
16149.567
11722.06
1891.0413
1903.4929
11779.394
16240.774
29265.81
93201.251
94069.379
29628.555
16437.697
11919.479
1924.5824
1949.5735
12131.062
16725.238
30179.152
95700.969
97681.203
31215.162
17278.977
12525.9
2002.5837
1848.7525
12845.046
17622.853
31791.861
96673.049
98030.508
30422.817
16801.286
12198.309
1981.3326
1960.701
12185.507
16787.703
30428.222
98324.317
95521.455
30137.365
16707.33
12126.868
1945.2561
1922.9968
11920.929
16435.84
29618.633
94009.737
93165.115
29259.756
16239.977
11780.211
1902.6549
1890.3361
11721.041
16147.565
29082.022
92846.833
92782.348
29026.131
16124.688
11713.598
1885.6423
1885.6266
11726.523
16132.497
29026.708
92826.299
92906.627
29044.796
16149.693
11744.842
1887.8639
1891.2496
11763.403
16169.367
29068.643
93000.259
93100.855
29094.239
16190.079
11782.32
1895.2463
1899.5755
11801.052
16211.265
29120.909
93203.429
93309.29
29148.349
16233.268
11820.583
1904.1461
1908.8702
11840.278
16255.755
29176.568
93415.817
93525.691
29205.647
16279.137
11860.931
1913.7487
1918.7466
11881.852
16303.058
29235.574
93636.751
93751.527
29266.457
16327.913
11903.742
1923.8832
1929.134
11925.989
16353.397
29298.358
93868.306
93989.261
29331.363
16379.872
11949.223
1934.5281
1940.0389
11972.859
16407.012
29365.447
94112.671
94240.517
29400.732
16435.184
11997.48
1945.6851
1951.4467
12022.576
16464.102
29437.236
94371.274
94506.751
29475.033
16494.096
12048.678
1957.3487
1963.3707
12075.305
16524.89
29514.144
94645.46
94789.083
29554.651
16556.805
12102.947
1969.5312
1975.8182
12131.188
16589.595
29596.584
94936.428
95088.888
29640.034
16623.565
12160.469
1982.2466
1988.8046
12190.424
16658.487
29685.015
95245.425
95407.297
29731.591
16694.635
12221.441
1995.5006
2002.3259
12253.219
16731.836
29779.859
95573.66
95745.635
29829.876
16770.351
12286.116
2009.2862
2016.382
12319.859
16810.005
29881.69
95922.401
96105.201
29935.425
16851.065
12354.774
2023.6337
2031.0409
12390.634
16893.377
29991.123
96293.526
96487.019
30049.156
16937.276
12427.755
2038.6207
1859.4346
12613.118
17006.618
30022.194
95952.364
95766.744
29967.779
16964.066
12576.292
1852.5925
1845.8922
12540.576
16923.01
29915.754
95586.002
95410.926
29865.571
16883.359
12506.071
1839.3201
1832.8658
12472.45
16844.893
29817.233
95240.956
95076.85
29770.779
16807.841
12440.041
1826.5457
1820.3476
12408.47
16771.94
29726.163
94917.899
94764.431
29683.225
16737.335
12378.042
1814.2778
1808.3193
12348.32
16703.717
29641.863
94615.423
94471.115
29601.932
16671.264
12319.66
1802.4822
1796.7546
12291.594
16639.678
29563.393
94330.524
94194.378
29526.14
16609.176
12264.547
1791.1486
1785.6494
12238.014
16579.456
29490.153
94061.598
93933.025
29455.347
16550.778
12212.486
1780.2698
1774.9969
12187.424
16522.843
29421.764
93807.657
93686.367
29389.271
16495.915
12163.368
1769.8466
1764.8072
12139.738
16469.692
29357.94
93567.904
93453.25
29327.594
16444.429
12117.096
1759.8871
1755.0738
12094.809
16419.796
29298.282
93340.947
93232.137
29269.868
16396.085
12073.512
1750.3823
1745.7923
12052.481
16372.92
29242.337
93125.058
93020.884
29215.557
16350.62
12032.432
1741.3322
1736.9859
12012.57
16328.808
29189.569
92917.833
92817.429
29164.238
16307.83
11993.659
1732.8003
1728.8021
11974.799
16287.322
29139.707
92718.101
92622.9
29116.213
16267.744
11956.704
1725.1114
1721.9065
11938.37
16249.009
29094.628
92532.195
92457.523
29078.712
16233.338
11921.522
1719.6769
1719.2435
11909.101
16226.248
29079.02
92414.061
92478.649
29133.184
16248.401
11916.56
1722.6702
1732.1789
11969.546
16332.939
29296.664
92760.177
93551.935
29681.062
16537.29
12112.084
1752.0644
1771.2693
12294.146
16768.259
30086.578
94766.118
1851.0229
12963.39
17782.722
31973.872
95961.165
94997.038
30143.645
16771.943
12289.2
1769.5025
1749.5545
12104.798
16524.292
29652.298
93558.261
92811.718
29310.286
16338.516
11973.319
1732.5282
1722.9713
11919.285
16252.829
29142.188
92498.108
92428.292
29086.038
16229.734
11911.449
1719.5661
1719.926
11922.701
16235.564
29083.46
92463.587
92536.811
29097.938
16250.72
11939.549
1722.1244
1725.2949
11957.23
16268.925
29118.82
92624.697
92720.182
29141.76
16288.443
11975.607
1728.982
1732.9593
11993.971
16308.609
29165.949
92817.915
92918.947
29190.945
16329.614
12013.185
1737.1401
1741.4587
12032.598
16351.134
29216.724
93020.662
93125.498
29243.28
16373.505
12052.947
1745.911
1750.4788
12073.596
16396.443
29270.693
93231.631
93341.286
29298.99
16420.266
12095.191
1755.168
1759.9704
12117.148
16444.707
29328.228
93452.772
93568.252
29358.484
16470.088
12140.071
1764.8953
1769.9253
12163.397
16496.132
29389.775
93685.992
93807.896
29422.156
16523.152
12187.687
1775.0732
1780.3294
12212.448
16550.893
29455.673
93932.607
94061.8
29490.417
16579.67
12238.194
1785.7049
1791.1955
12264.483
16609.248
29526.427
94194.202
94331.389
29563.763
16639.921
12291.786
1796.8111
1802.5392
12319.696
16671.458
29602.471
94472.198
94617.913
29642.65
16704.162
12348.65
1808.3899
1814.352
12378.288
16737.814
29684.299
94767.485
94922.168
29727.518
16772.685
12409.005
1820.4388
1826.639
12440.472
16808.578
29772.334
95081.045
95245.308
29818.817
16845.751
12473.05
1832.9639
1839.4083
12506.448
16884.014
29866.983
95414.236
95588.782
29916.921
16923.621
12540.993
1845.979
1852.6741
12576.467
16964.44
29968.716
95768.331
95952.598
30022.672
17006.773
12613.174
1859.5088
96595.344