/*--------------------------------*- C++ -*----------------------------------*\
  =========                 |
  \\      /  F ield         | OpenFOAM: The Open Source CFD Toolbox
   \\    /   O peration     | Website:  https://openfoam.org
    \\  /    A nd           | Version:  7
     \\/     M anipulation  |
\*---------------------------------------------------------------------------*/
FoamFile
{
    version     2.0;
    format      ascii;
    class       volScalarField;
    location    "260";
    object      k;
}
// * * * * * * * * * * * * * * * * * * * * * * * * * * * * * * * * * * * * * //

dimensions      [0 2 -2 0 0 0 0];

internalField   nonuniform List<scalar> 
24866
(
3468.0717
3534.7256
3544.0126
4134.4707
4720.524
4709.4528
4668.8073
4720.9908
4726.3622
4663.2359
4689.3411
4689.6802
4664.0806
4726.914
4720.4741
4670.7035
4704.9731
4722.0256
4706.6942
4690.9979
4624.2181
4736.622
4869.5676
4808.5673
4680.6342
4596.4657
4694.8288
4817.7238
4804.8803
4641.1205
4711.585
4709.6308
4709.6239
4711.5907
4641.3287
4804.9688
4818.2784
4695.362
4595.9065
4679.9611
4808.3829
4869.5517
4736.6734
4624.2301
4691.5316
4706.4068
4722.7643
4704.3668
4671.1589
4719.2837
4727.8535
4663.819
4689.3483
4689.6093
4664.4658
4725.934
4721.481
4667.8368
4710.6899
4719.4646
4752.6095
4724.5008
4753.0994
4755.0713
4682.0332
4715.4451
4776.2416
4764.5617
4682.5531
4685.1263
4685.3531
4682.9457
4764.7574
4776.2907
4715.6652
4681.1981
4751.0707
4750.671
4715.2507
4735.338
4728.9791
4629.0706
4642.9317
4701.2064
4720.5181
4783.7916
4715.4508
4654.9224
4727.1819
4792.218
4720.7441
4663.008
4703.5674
4707.4541
4700.5278
4683.5392
4671.6705
4691.7127
4686.4663
4696.1157
4692.3833
4695.637
4691.489
4697.8624
4702.1257
4702.1822
4700.0026
4704.9691
4698.688
4691.2084
4642.1999
4744.119
4740.8902
4714.0632
4679.3662
4693.9758
4695.7227
4698.219
4701.971
4704.2194
4703.7523
4700.451
4703.6658
4698.5236
4692.9096
4689.9202
4676.2491
4682.5733
4685.4607
4692.5694
4699.8322
4705.2312
4708.193
4706.7164
4707.282
4705.407
4701.9912
4700.0326
4695.7362
4698.7155
4679.3957
4642.2406
4744.1122
4740.8762
4537.8759
4539.065
4169.7381
4112.9494
4124.4619
4124.462
4112.9425
4052.9215
4066.3551
4590.7973
4589.6348
4084.2935
4101.8256
4012.0461
4082.5029
4063.0194
3947.5413
3918.9624
4025.9224
4095.7859
4121.6583
4133.4638
4110.7664
4071.3109
4118.485
4120.6355
4047.9966
4047.7703
4047.3147
4046.955
4119.8232
4118.5369
4070.4435
4113.8099
4179.8772
4190.8576
4548.881
4550.8813
4166.1737
4015.2354
4177.9443
4123.9045
4074.2235
4688.6135
4695.4124
4688.6251
4696.1381
4689.4323
4675.7271
4682.3904
4685.2392
4692.2843
4699.4326
4704.6923
4707.5579
4708.2216
4708.8532
4707.3088
4704.264
4702.2346
4703.6157
4705.0004
4720.7917
4691.231
4098.8536
4124.8146
4452.3975
4590.9326
4066.1361
4052.9418
3518.2732
3530.8438
3536.301
3536.2979
3530.8271
3518.2337
3493.7387
3503.8446
3512.1927
3489.5318
3505.7536
3492.8272
3448.8668
3432.1633
3498.196
3522.1212
3535.9748
3542.128
3533.1015
3534.109
3532.676
3535.4452
3517.4519
3513.4025
3513.3154
3516.8111
3534.5962
3532.2239
3533.4408
3078.4713
3076.3701
3077.8636
3077.7892
3076.6067
3535.093
4114.5067
4070.2286
4119.001
4119.5317
4048.2801
4047.6801
4047.3627
4047.6225
4120.5076
4117.6885
4071.8467
4110.4545
4133.9953
4121.611
4096.1864
4026.0487
3919.0986
4440.0551
4637.0918
4568.4658
4063.3321
4082.8209
4012.2052
4101.5898
4083.8193
4590.0404
4466.3001
4161.619
4120.7697
3992.2157
4156.5014
4190.0297
4199.5848
4577.796
4792.4052
4727.2991
4654.8919
4663.0403
4720.4957
4707.5183
4702.2033
4703.8242
4706.7697
4703.7403
4705.2796
4704.7135
4702.0686
4697.4916
4692.2846
4692.3446
4694.5193
4697.5095
4699.4735
4699.8945
4698.6108
4695.7478
4700.5458
4697.9637
4700.6202
4701.2252
4643.0318
4683.6784
4691.617
4691.8657
4692.5064
4693.0003
4692.6379
4692.3482
4692.3211
4692.3538
4696.1417
4689.4956
4685.3326
4685.5351
4690.0025
4696.2477
4686.6464
4715.412
4671.8542
4629.246
4729.331
4735.3114
4531.8344
4176.6936
4155.7616
4525.8576
4137.9169
4159.4153
3994.0054
3453.5821
3522.4194
3498.3463
3432.2664
3449.0291
3948.0412
3957.0314
4094.1065
4122.334
4456.5219
4438.2342
4123.1092
3973.8329
4138.0449
3423.2535
3492.9243
3505.7418
3489.4932
3512.2916
3503.9261
3493.7476
3045.9134
3065.4759
3071.4357
3072.1796
3072.1775
3071.4242
3065.4534
3045.913
3047.9516
3054.1483
3046.6604
3051.5878
3041.4058
3020.7008
3015.511
3053.69
3066.3164
3072.5522
3076.3984
3075.7
3079.0813
3075.2107
3076.9184
3071.7895
3070.62
3070.2666
3071.0118
3076.188
3074.6673
2706.1145
2709.671
2707.3642
2706.8898
2706.8778
2707.5319
2709.8232
3078.5793
3533.4134
3532.6265
3534.873
3517.5499
3513.3854
3513.4414
3517.368
3535.2276
3532.1569
3534.2809
3532.994
3542.4465
3536.0668
3072.6518
3066.521
3053.8246
3015.612
3020.8349
3041.4972
3051.6142
3046.6564
3054.1856
3047.9665
2685.129
2684.9999
2698.9279
2702.4259
2702.4764
2702.4759
2702.4177
2698.913
2684.9954
2685.1167
2689.2476
2687.2435
2688.3787
2680.8078
2669.6179
2668.297
2691.3225
2699.4778
2703.193
2705.8157
2707.1418
2710.2143
2706.6553
2707.7126
2706.6861
2706.3204
2706.0827
2706.1113
2707.0943
2406.976
2406.3936
2409.1742
2407.1481
2406.1499
2406.1632
2407.2757
2409.3308
2406.6523
2407.2768
2707.4376
3076.5276
3071.7918
3070.6266
3070.4022
3071.4307
3076.6629
3074.8364
3079.0878
3075.6397
3076.5673
2705.8981
2703.2706
2699.6153
2691.4302
2668.3835
2669.7185
2680.8793
2688.4057
2687.2489
2689.273
2393.0309
2390.0878
2390.7523
2400.4879
2402.6251
2402.5883
2402.5876
2402.619
2400.4771
2390.7463
2390.0777
2393.0126
2393.2163
2392.7951
2386.9892
2380.4893
2380.853
2395.3115
2400.8199
2403.3994
2405.3131
2407.1033
2409.6401
2406.8817
2407.4809
2407.9222
2407.9247
2407.7483
2407.4842
2162.3358
2161.3397
2161.0346
2163.1061
2161.4123
2160.3846
2160.4057
2161.5133
2163.2501
2161.2501
2161.5921
2162.6315
2407.8829
2706.658
2706.3438
2706.2084
2706.4228
2707.4565
2706.3556
2710.1413
2707.0876
2407.0489
2405.3478
2403.4532
2400.9125
2395.3948
2380.9244
2380.5659
2387.0458
2392.8208
2393.226
2151.3231
2150.3572
2148.1983
2149.2036
2156.0797
2157.4176
2157.4215
2157.4203
2157.4126
2156.0713
2149.1974
2148.1897
2150.3435
2151.3121
2150.2704
2145.7587
2141.7868
2142.8952
2152.3914
2156.2103
2158.1779
2159.6664
2161.4093
2163.4886
2161.4548
2161.7508
2162.6747
2162.8968
2162.7634
1959.8929
1959.4074
1958.3527
1958.2153
1959.7293
1958.3669
1957.4782
1957.5001
1958.4484
1959.8551
1958.3932
1958.5602
1959.6306
1960.0078
2162.9132
2407.9485
2407.8537
2407.7205
2407.2592
2406.6417
2409.5399
2163.3869
2161.3571
2159.6769
2158.214
2156.2743
2152.4558
2142.9534
2141.8461
2145.8041
2150.2939
1949.4105
1950.6265
1949.5361
1947.957
1949.0572
1953.9944
1954.8849
1954.9543
1954.953
1954.8806
1953.9875
1949.0512
1947.9496
1949.5252
1950.6151
1949.3894
1945.868
1943.3506
1944.7261
1951.2411
1953.9901
1955.5938
1956.8109
1958.3449
1960.0296
1958.566
1958.6874
1959.6738
1959.9957
1789.8571
1789.7752
1789.3029
1788.364
1788.3143
1789.4073
1788.3517
1787.641
1787.6611
1788.4185
1789.5146
1788.4608
1788.5334
1789.4752
1789.8666
1789.836
1959.9628
2162.8476
2162.5198
2161.567
2161.2643
1958.4153
1959.9373
1958.2975
1956.81
1955.6182
1954.0358
1951.2915
1944.7737
1943.3975
1945.9049
1778.1735
1780.9128
1782.1143
1781.1555
1780.0217
1781.0811
1784.6813
1785.3314
1785.4573
1785.4561
1785.3278
1784.6754
1781.0756
1780.0152
1781.1465
1782.1033
1780.894
1778.143
1776.5105
1777.904
1782.542
1784.6096
1785.9701
1786.9963
1788.2906
1789.6334
1788.6004
1788.6368
1789.5167
1644.8951
1645.2123
1645.1467
1644.7229
1643.9487
1643.9352
1644.716
1643.9211
1643.3767
1643.3942
1643.9765
1644.8067
1644.056
1644.0867
1644.8574
1645.2198
1645.1992
1644.8234
1789.4241
1959.5547
1958.5385
1788.5174
1788.4812
1789.5539
1788.2491
1786.9906
1785.987
1784.6436
1782.5824
1777.9434
1776.5485
1634.4218
1635.4876
1637.628
1638.7291
1637.976
1637.1801
1638.1314
1640.7907
1641.3072
1641.4708
1641.4697
1641.3039
1640.7857
1638.1263
1637.1743
1637.9682
1638.7187
1637.6113
1635.462
1634.3905
1635.6801
1639.0797
1640.6952
1641.8708
1642.749
1643.8209
1644.8792
1644.1646
1644.1706
1519.8081
1520.3828
1520.6595
1520.6067
1520.2434
1519.6276
1519.6218
1520.1749
1519.5852
1519.1795
1519.1945
1519.6315
1520.2514
1519.7218
1519.7402
1520.3496
1520.6656
1520.6518
1520.3272
1519.7325
1644.0755
1644.0701
1644.8124
1643.7853
1642.7419
1641.883
1640.7215
1639.1126
1635.713
1512.9759
1511.8384
1512.5417
1514.2148
1515.1859
1514.6353
1514.0887
1514.907
1516.8936
1517.3248
1517.5079
1517.5069
1517.322
1516.8892
1514.9025
1514.0836
1514.6285
1515.1763
1514.1998
1512.52
1511.8122
1512.9482
1515.498
1516.7946
1517.8164
1518.5728
1519.4535
1520.2871
1519.8035
1411.5335
1411.5492
1411.9992
1412.2321
1412.1893
1411.8857
1411.4025
1411.3913
1411.7808
1411.3439
1411.0474
1411.0602
1411.3829
1411.8453
1411.4743
1411.4946
1411.9704
1412.2371
1412.2281
1411.9561
1411.4891
1411.4733
1519.7282
1520.2316
1519.4233
1518.5654
1517.8255
1516.8154
1515.5251
1407.8902
1405.9419
1404.9684
1405.4343
1406.7438
1407.5826
1407.2037
1406.8363
1407.5215
1409.0217
1409.388
1409.5764
1409.5754
1409.3854
1409.0178
1407.5174
1406.8317
1407.1977
1407.5738
1406.7305
1405.4156
1404.9462
1405.9183
1407.8676
1408.925
1409.8139
1410.467
1411.1897
1411.8526
1316.6138
1316.4097
1316.4394
1316.7927
1316.9852
1316.9503
1316.6999
1316.3203
1316.2996
1316.5735
1316.2461
1316.0328
1316.0438
1316.2793
1316.6281
1316.369
1316.396
1316.7682
1316.9895
1316.9838
1316.7594
1316.3915
1316.3612
1316.5758
1411.8067
1411.1641
1410.4601
1409.8208
1408.9418
1314.159
1313.2944
1311.7799
1310.9607
1311.2707
1312.2981
1313.0144
1312.7708
1312.5293
1313.094
1314.2399
1314.5503
1314.7343
1314.7335
1314.548
1314.2365
1313.0903
1312.5252
1312.7654
1313.0063
1312.2862
1311.2545
1310.9417
1311.7599
1313.2754
1314.1453
1314.918
1315.4829
1316.0774
1231.8834
1232.327
1232.2017
1232.2441
1232.5251
1232.6828
1232.6542
1232.449
1232.1475
1232.1179
1232.3112
1232.0606
1231.9094
1231.9188
1232.0888
1232.3575
1232.1761
1232.2102
1232.5046
1232.6866
1232.6831
1232.4993
1232.2059
1232.1625
1232.2954
1231.8649
1316.0556
1315.4765
1314.9232
1230.9065
1230.2427
1229.5285
1228.3329
1227.6495
1227.8571
1228.6658
1229.2739
1229.1322
1228.9779
1229.4395
1230.3258
1230.5858
1230.7597
1230.7589
1230.5839
1230.3228
1229.4364
1228.9744
1229.1275
1229.2667
1228.6554
1227.8432
1227.6333
1228.3159
1229.5126
1230.2315
1230.9027
1231.3921
1156.4639
1156.8726
1157.2475
1157.1754
1157.2271
1157.4549
1157.584
1157.5605
1157.3923
1157.149
1157.1128
1157.2505
1157.0533
1156.948
1156.9558
1157.0774
1157.2901
1157.162
1157.2012
1157.438
1157.5874
1157.5855
1157.4349
1157.1965
1157.1434
1157.2211
1156.8566
1156.4582
1231.3862
1232.4347
1233.4905
1231.601
1232.0727
1233.0668
1229.5171
1230.3061
1231.3613
1231.8979
1231.4023
1230.651
1155.952
1154.4803
1154.8569
1155.5515
1155.7665
1155.927
1155.9262
1155.7648
1155.5492
1154.8546
1154.4778
1154.5714
1154.6365
1154.1187
1153.4769
1153.3345
1153.9019
1154.8607
1155.4563
1156.0392
1088.9513
1089.3205
1089.6631
1089.9866
1089.9496
1090.0072
1090.1958
1090.3017
1090.2821
1090.1438
1089.9437
1089.9036
1090.0036
1089.8434
1089.7712
1089.7783
1089.8645
1090.0377
1089.9456
1089.9876
1090.1818
1090.3048
1090.3039
1090.1803
1089.9826
1089.9233
1089.9644
1089.6491
1089.3151
1088.9528
1156.0418
1155.4653
1154.8739
1153.9161
1153.348
1153.4884
1154.1274
1154.6423
1154.575
1087.7359
1087.6817
1087.9897
1088.5418
1088.7167
1088.8624
1088.8622
1088.716
1088.5408
1087.9892
1087.6813
1087.7349
1087.7476
1087.3091
1086.7994
1086.7015
1087.1729
1087.9514
1088.4453
1028.0822
1028.5215
1028.8428
1029.132
1029.4164
1029.4019
1029.4622
1029.622
1029.7095
1029.6929
1029.5784
1029.4103
1029.3687
1029.4434
1029.3088
1029.2607
1029.2669
1029.3274
1029.4733
1029.405
1029.4477
1029.6103
1029.7122
1029.712
1029.6097
1029.4419
1029.3797
1029.3972
1029.1193
1028.837
1028.5211
1028.0858
1088.4521
1087.9615
1087.1837
1086.7114
1086.8075
1087.3146
1087.7506
1027.4857
1027.507
1027.4798
1027.7334
1028.179
1028.319
1028.4501
1028.4505
1028.3203
1028.1813
1027.7375
1027.4851
1027.5123
1027.4895
1027.1175
1026.7105
1026.6412
1027.0333
1027.6731
973.10692
973.44347
973.82435
974.10392
974.34932
974.60416
974.60278
974.66292
974.80195
974.87519
974.86088
974.76455
974.61966
974.57905
974.6374
974.5198
974.48904
974.49465
974.53657
974.66401
974.61109
974.65222
974.79201
974.87752
974.87775
974.79179
974.64567
974.58344
974.58668
974.3367
974.09629
973.82012
973.44103
973.10417
1027.6788
1027.0385
1026.6447
1026.7117
1027.116
972.61185
972.92573
972.97042
972.96032
973.17185
973.53793
973.64759
973.76555
973.76755
973.65363
973.54814
973.18727
972.97977
972.99135
972.94598
972.62967
972.30183
972.24958
972.57602
923.03583
923.47864
923.7491
924.0776
924.31968
924.52811
924.76166
924.76634
924.82341
924.94884
925.01203
924.99937
924.91594
924.78631
924.74896
924.79781
924.68922
924.67103
924.67622
924.70469
924.82209
924.77791
924.81537
924.94011
925.01396
925.01443
924.94004
924.80809
924.74869
924.74469
924.51396
924.30781
924.06561
923.73445
923.45842
923.00548
972.56991
972.23918
972.28761
922.76219
923.02435
923.29129
923.34926
923.34818
923.52868
923.83642
923.91865
924.0264
924.03204
923.93583
923.86479
923.57008
923.40037
923.40626
923.34923
923.07928
922.81088
922.76515
877.53764
877.75711
878.12399
878.32695
878.60555
878.81195
878.98729
879.20874
879.21342
879.26451
879.38435
879.44217
879.43065
879.35453
879.2315
879.19972
879.24451
879.13546
879.12653
879.13146
879.15016
879.26727
879.22659
879.25819
879.3764
879.44371
879.44433
879.3764
879.25038
879.19658
879.19091
878.96927
878.79146
878.57815
878.28755
878.06794
877.67638
877.43226
922.72422
923.76476
924.215
924.68697
924.91467
924.72542
924.31345
878.89566
877.97158
878.13126
878.39832
878.45369
878.55609
878.56938
878.49481
878.46554
878.22818
878.09412
878.10622
878.04788
877.81633
877.58931
836.08547
836.01018
836.17488
836.46803
836.59096
836.81648
836.98552
837.12858
837.34963
837.34885
837.39126
837.51608
837.57443
837.56373
837.48844
837.36094
837.33678
837.38193
837.25936
837.25711
837.26189
837.27367
837.40376
837.36228
837.38607
837.50871
837.57567
837.57642
837.5088
837.37804
837.33231
837.3295
837.10322
836.94892
836.76006
836.50382
836.34238
835.99572
835.77774
835.81956
877.46752
877.68234
877.90936
877.97192
836.2508
836.24082
836.38905
836.63084
836.65625
836.76062
836.7888
836.74479
836.7747
836.59535
836.50245
836.53772
836.48985
836.28981
798.04669
797.84392
797.71947
797.81371
798.02236
798.03825
798.199
798.32434
798.43273
798.66853
798.65755
798.68972
798.83381
798.89965
798.88921
798.80741
798.66137
798.64607
798.69493
798.54107
798.54298
798.54765
798.55509
798.71604
798.67044
798.6854
798.82679
798.90098
798.90187
798.82708
798.67748
798.64123
798.64465
798.39538
798.26028
798.09211
797.86575
797.77114
797.45629
797.25563
797.31604
797.47375
835.99988
836.19232
797.63538
797.68033
797.64694
797.79128
798.0211
798.00908
798.12523
798.17986
798.18321
798.30329
798.19517
798.16071
798.24375
798.22116
762.90397
762.75006
762.52559
762.31856
762.30982
762.406
762.27239
762.34547
762.41575
762.48467
762.75272
762.7289
762.75179
762.93177
763.01339
763.00345
762.90721
762.72637
762.7188
762.77286
762.5671
762.56998
762.57447
762.58063
762.79294
762.74167
762.74903
762.92559
763.01516
763.01618
762.92609
762.74128
762.7134
762.72439
762.43073
762.3101
762.15975
761.96119
761.94747
761.65627
761.4679
761.56107
761.7072
761.84072
761.86242
761.78938
761.93352
762.16086
762.10025
762.23903
762.33582
762.41364
762.66943
762.66252
762.72019
762.88352
730.27655
730.35775
730.22043
729.95237
729.62727
729.46241
729.39382
729.05757
729.00923
729.00999
729.03581
729.35037
729.31728
729.33757
729.56722
729.67219
729.66335
729.54652
729.31838
729.31263
729.36898
729.09594
729.09541
729.09951
729.10833
729.38708
729.33291
729.3385
729.56293
729.67375
729.67487
729.56344
729.33032
729.3045
729.31945
728.96434
728.85204
728.71728
728.54743
728.62738
728.36113
728.18703
728.32383
728.46576
728.57306
728.56465
728.43925
728.57956
728.8052
728.68612
728.85462
729.01087
729.1993
729.64597
729.79407
729.99797
700.05257
700.47091
700.61969
700.49629
700.17522
699.7081
699.30408
698.97811
698.38746
698.18008
698.10175
698.08874
698.44798
698.42595
698.46155
698.73902
698.86677
698.86028
698.72564
698.45423
698.43552
698.47843
698.14517
698.13707
698.14047
698.15544
698.49305
698.45137
698.46994
698.73844
698.868
698.86903
698.73827
698.4599
698.42003
698.42145
698.00903
697.89717
697.77556
697.63832
697.80958
697.59108
697.44938
697.62092
697.75082
697.83112
697.79582
697.62305
697.7436
697.94837
697.77384
697.96798
698.19381
698.53111
699.22134
699.61806
672.42392
673.23993
673.79546
673.9817
673.86833
673.52336
672.92328
672.13028
671.3632
670.47093
670.0848
669.93758
669.89857
670.26904
670.31742
670.40495
670.69681
670.83467
670.83136
670.69493
670.41725
670.35374
670.33325
669.98848
669.97954
669.98202
669.99538
670.34271
670.36302
670.42524
670.70202
670.83641
670.83661
670.70069
670.41294
670.32538
670.261
669.83647
669.72627
669.61523
669.50695
669.73947
669.65228
669.59283
669.73617
669.80311
669.84886
669.81161
669.63434
669.69792
669.81864
669.61875
669.82319
670.10622
670.61248
671.59566
646.95135
648.6384
650.10028
650.74478
650.87468
650.76799
650.49349
649.81132
648.3719
646.73977
645.44751
644.93186
644.766
644.69369
644.97346
645.25434
645.43453
645.65823
645.86157
645.87711
645.68471
645.47052
645.32667
645.09326
644.86021
644.90483
644.90562
644.86248
645.09593
645.32881
645.46932
645.67034
645.86423
645.87842
645.68242
645.45461
645.28293
645.00263
644.68799
644.63165
644.52852
644.40381
644.61668
644.9215
645.04001
644.97332
644.85223
644.89591
644.88012
644.79267
644.72073
644.57112
644.4456
644.66251
644.94958
645.57641
622.81405
624.70663
628.78354
631.56141
631.80784
631.65987
631.57045
631.59029
631.30198
628.54646
624.52111
622.70354
621.90982
621.806
622.11029
621.60621
623.08479
623.18686
623.18531
624.13143
624.1348
623.21494
623.24764
623.19355
621.79017
622.37395
622.12976
622.12908
622.3714
621.78682
623.18709
623.23103
623.20181
624.13378
624.13201
623.20437
623.21972
623.13798
621.68925
622.20278
621.86131
621.76616
621.9494
621.64832
623.66404
623.21697
622.6366
622.45141
623.27371
622.56835
622.63715
622.59219
621.25901
621.89147
621.70921
621.92286
604.69312
604.94742
606.81069
613.60783
619.00451
617.87724
617.46274
617.36955
617.68622
618.78502
613.40065
606.66738
604.83655
604.72565
604.60159
604.70076
604.55872
605.21401
605.37651
605.41645
605.41619
605.43154
605.46951
605.45769
605.34254
604.7859
605.01886
605.08573
605.08838
605.00673
604.76695
605.3236
605.44293
605.42827
605.41907
605.42928
605.45034
605.43938
605.2932
604.66605
604.87888
604.80505
604.86341
604.62704
605.11261
608.8002
608.67425
605.84424
605.02795
604.90081
604.94966
604.94717
604.76528
604.27262
604.45527
604.52984
588.81067
588.75056
589.29263
591.10023
590.47384
589.64926
589.67203
589.43491
589.62783
590.20541
591.13881
589.06597
588.98012
588.72497
589.37302
589.94968
589.26879
589.19332
590.65157
589.94912
589.97335
590.72248
589.27271
589.41724
590.23775
589.69423
589.4551
589.48205
589.64578
590.23754
589.37259
589.25319
590.65121
589.94666
589.97271
590.69554
589.22239
589.41895
590.05002
589.74405
589.0231
589.69712
589.21073
590.9432
588.2498
587.74695
590.48231
590.72135
589.67211
590.34094
588.9715
588.77482
589.84023
588.89942
588.35254
588.52329
589.9379
590.12711
590.5157
591.29782
591.55826
591.23012
590.83313
590.5172
590.50613
590.25539
588.80345
588.88049
590.47916
590.41643
590.22332
590.41521
591.2037
590.88047
591.06376
591.48967
590.52142
590.13326
590.41883
590.86347
588.70924
588.60363
603.48349
603.29906
607.06428
607.58677
617.45291
608.17515
607.55126
605.87877
607.71539
616.93737
607.30174
603.00696
603.18707
607.13712
606.88308
604.97864
590.14695
589.84937
590.6935
590.70649
590.71133
589.88123
590.46901
591.05693
588.84445
589.12037
603.41508
603.23189
606.99808
616.99416
607.35701
607.93505
607.50649
605.37489
606.1629
610.52092
618.70656
610.01521
609.9978
610.51875
607.81795
603.34273
603.36345
607.652
609.89591
609.45509
618.52642
608.02892
608.26008
604.60319
589.86311
590.6655
590.1093
590.45537
588.45619
587.96289
603.5936
607.7448
608.37545
618.23722
607.96434
603.62155
607.57767
605.76092
623.48902
624.76165
623.83765
621.94158
623.29075
622.83185
623.91687
646.12605
671.64303
672.61031
671.1136
645.45538
646.55429
647.70697
645.91157
671.87212
672.97539
671.19149
645.90268
646.30696
671.77179
672.02223
646.46821
624.13423
605.46087
606.09972
605.38463
605.84614
605.89273
604.58747
623.28633
625.51425
626.72819
624.17854
625.34291
627.19638
607.13464
606.75224
605.97755
605.03637
604.88071
605.14555
606.36788
624.41572
624.04594
626.6418
627.2717
629.54199
614.38625
606.91294
604.70415
604.30648
604.16692
604.56341
606.70158
614.1809
613.83606
613.72278
613.80612
614.0133
630.20667
630.27397
628.54213
628.28748
607.7494
590.68006
591.01969
591.19169
586.5645
584.69216
584.31921
584.28248
584.63494
586.45129
586.81758
586.97289
587.58101
587.6874
587.10811
587.16642
586.83012
585.14901
584.80756
584.8052
585.14642
586.85159
587.19772
587.21864
587.81618
587.81719
590.65697
590.83276
590.28105
588.42229
588.80038
590.82088
590.44274
590.45514
590.84027
588.78728
588.43386
590.25507
590.80857
590.64159
587.79565
587.71514
587.09425
586.97682
586.59202
584.8091
584.44831
584.53429
584.91974
586.77186
587.15586
587.14715
587.75177
587.6811
587.06983
586.95316
588.22183
587.24753
583.67475
577.94886
571.72251
567.61376
567.6288
571.76498
577.98335
583.69243
587.33452
588.35148
587.28241
591.68651
591.63118
591.10697
591.19631
592.03687
591.40427
585.26725
586.93344
587.61393
585.51199
578.09783
573.10816
568.90327
563.96994
560.04125
556.42937
554.73339
554.72301
556.39845
560.01108
563.90714
568.83454
573.05844
577.99083
568.86671
563.74824
557.69573
553.01864
548.43049
546.37282
546.38659
548.46576
553.07433
557.77712
563.85356
568.94564
564.08789
572.02642
581.50061
584.52224
583.91038
584.92873
584.92112
591.38882
592.0278
591.19035
591.09998
591.62026
591.65222
586.89367
585.24582
584.50371
583.89896
580.21996
580.23066
568.02938
556.67927
560.2336
553.2544
557.87464
551.2081
545.02337
539.71964
536.86839
536.85173
539.67168
544.94668
551.09738
557.73596
563.98214
571.85551
560.10176
553.08791
544.97463
536.98153
530.38864
526.69437
526.73186
530.45939
537.08352
545.11725
539.88609
548.7175
546.66931
555.00852
554.99244
568.02013
556.63231
548.65875
546.64653
537.02138
537.06042
526.80123
530.5157
522.65791
518.13986
518.10284
522.58218
530.39453
539.71602
548.5158
556.51506
567.78621
554.8243
546.44348
536.87252
526.66221
518.06794
513.1101
513.14232
518.15946
518.1015
526.76596
530.40836
539.7881
545.00608
553.17496
560.1754
572.00317
581.48431
585.46513
587.56021
588.28412
587.22472
587.22506
588.86925
588.37736
587.26952
583.66839
578.08354
568.92425
564.03072
557.80611
551.10725
544.91507
536.943
530.3038
522.52528
518.00311
513.08629
513.05476
518.01831
526.63985
536.83752
546.41365
554.79891
567.76465
556.45423
548.445
539.63966
530.30515
522.4529
517.9697
526.55174
526.56688
536.74849
539.59772
548.40995
553.01979
557.72462
563.82733
568.87297
573.06924
578.02123
571.8288
563.90502
559.9875
556.36853
554.67644
546.33349
546.3241
536.72904
539.56424
530.25444
536.8717
544.87746
553.00186
560.03273
571.81277
563.91865
557.6697
551.01907
544.86231
552.9831
548.37931
556.35122
554.66971
567.75128
567.75056
580.01192
581.30842
585.3993
587.23544
588.24795
588.8638
589.22699
596.05563
595.35559
594.88784
594.33465
590.49941
590.03792
590.05302
590.52286
594.40234
594.96771
595.34059
587.20991
588.86243
589.20458
588.82637
588.18829
587.40968
584.21162
583.56353
583.58771
584.24259
587.50026
588.27917
588.82827
589.19449
588.83161
588.3439
587.25916
585.33812
581.16083
579.80809
579.80822
581.16029
585.29876
587.19773
588.35971
594.12729
595.3241
594.83592
594.25258
590.29518
589.80758
589.81576
590.30608
594.32689
594.91759
595.3218
596.0435
602.95701
595.34269
594.12193
593.44094
602.57951
591.80303
587.3089
597.34603
586.2716
573.94779
577.97566
584.07428
589.95852
593.42277
594.8987
602.54329
594.32224
587.45401
585.36896
581.3119
584.27647
583.63547
579.99576
579.97274
583.60138
584.22316
581.26705
585.28297
577.95391
573.00138
568.79849
563.86226
559.97021
571.81028
577.97234
583.61136
587.12946
588.08919
587.34009
594.19681
590.36524
589.90132
589.94098
590.42071
597.46867
587.45225
591.82158
584.1365
576.80713
578.97755
581.84789
575.97545
572.90499
567.52807
572.93719
575.99081
572.46248
565.0189
568.71052
567.14135
563.80262
565.82069
570.46908
561.51669
556.63565
560.93459
554.28827
560.9825
567.22357
578.13304
568.76386
570.53278
565.06105
561.58656
565.88634
563.89575
556.71196
551.7091
559.69868
574.14725
586.44062
586.41082
597.4149
587.39769
591.71224
602.39519
594.75471
593.28289
589.84283
584.05071
578.05639
574.11564
558.22232
558.2532
559.12724
560.37265
561.92578
555.69601
554.1838
549.81286
539.99853
542.85416
548.19625
552.53944
558.63819
552.50475
548.16133
539.95541
543.88821
536.89407
547.0615
555.59844
560.28576
559.57182
558.14429
559.04701
561.82747
554.08272
549.72929
551.60906
542.80125
539.97243
544.18019
533.00271
529.42298
533.20268
525.16847
533.21572
536.90348
547.11459
544.21024
532.97715
529.39221
520.5281
523.67441
528.50118
523.7156
520.55443
515.41229
518.33819
521.5668
527.20775
536.97458
548.77367
551.72347
557.28556
563.38613
568.45638
561.98094
552.85933
562.0292
557.32389
548.29172
541.01481
545.30521
556.46058
553.25549
541.08489
545.38523
558.57178
571.88625
594.68914
598.7297
604.13242
609.14263
598.53868
593.66253
588.19137
584.44083
584.44867
597.33867
586.26491
587.2991
591.7488
602.48763
593.35849
589.93713
584.08471
578.00507
573.95845
558.15006
559.05295
561.84077
560.29238
559.59541
551.64261
549.74552
554.09875
555.61175
561.55089
565.84002
563.82377
567.1851
568.73199
570.49201
565.03674
560.98928
556.67835
548.22139
542.84775
539.98833
544.19133
547.0935
536.94652
533.02881
529.46822
533.27151
540.03891
543.95106
552.54105
558.6876
554.3736
548.30093
552.60669
547.19852
536.9774
528.56661
523.74236
520.59825
525.23671
520.61346
515.44611
518.37199
523.75618
533.06478
529.50852
533.30609
542.98539
540.13774
544.30254
554.31401
555.8182
561.68898
565.15089
572.52161
576.02275
572.95636
576.84872
584.1446
579.00135
581.87841
576.02109
573.00294
567.60437
561.08355
567.31759
578.15699
568.82499
570.60381
565.94827
564.01185
556.83438
551.85897
559.84726
574.19442
560.47147
562.03347
559.22215
558.41387
549.98318
549.95801
540.09985
529.47405
520.55494
515.39171
515.36019
520.47995
529.37013
539.96015
549.7746
554.1261
559.08096
561.85912
560.29048
559.63203
551.62475
555.59531
561.45221
565.76265
563.80852
556.59927
560.87847
567.13295
568.62658
570.38219
564.91775
558.46983
552.38697
547.00079
544.16396
532.92914
536.77292
533.11253
542.76956
548.07398
539.8157
543.71224
552.32211
548.0387
554.17724
560.85834
557.66526
563.72082
568.82834
572.8767
575.89847
581.73125
572.36763
567.4683
572.85678
583.99548
576.73996
578.86177
575.86441
568.55378
564.88879
570.30225
561.38448
556.55528
563.73547
577.92001
567.07762
565.64739
560.098
555.44342
546.85166
536.68461
528.35739
523.62376
518.28416
523.55509
520.41292
525.02708
533.03398
529.25316
532.77974
543.95457
539.80044
542.64238
551.50458
549.63337
553.9381
561.63357
558.83681
573.90068
559.50003
558.0637
558.07131
549.64297
539.8205
529.27401
520.45079
523.58037
518.31176
523.68488
528.40618
525.10576
533.19592
536.84203
533.00585
544.26253
547.08283
542.87441
548.16772
539.87647
533.08834
536.73127
532.80262
543.96947
546.88059
542.67899
548.07574
552.35182
543.7579
552.44666
558.5064
554.23793
560.98373
556.73949
551.7967
555.7365
554.27148
561.96442
559.18753
574.17734
558.39203
559.79154
560.39936
565.83786
561.55826
570.44917
564.99737
568.68714
578.10106
563.93522
567.23137
572.96328
567.54979
560.89527
556.58373
551.53599
555.45692
553.94397
561.63705
558.84727
573.89765
559.51582
560.09683
565.66243
561.40365
570.30623
564.89621
568.55595
577.92306
563.75165
567.10166
572.9145
584.01859
575.90724
572.4268
581.75923
575.95005
584.08438
576.79908
578.90723
589.86189
598.43703
593.64944
588.28839
584.63615
584.65602
588.36047
593.7392
598.51192
593.6551
588.21245
598.73688
594.70235
571.90497
581.03308
592.44455
610.19329
620.64487
627.50427
626.80659
624.02954
623.37583
605.72502
605.21309
605.48226
623.31478
624.67349
624.73033
623.03649
621.91208
623.11621
625.09186
626.15701
606.26278
606.69892
605.37328
605.53254
627.62286
627.94295
626.91863
625.60284
627.15271
605.15678
590.45819
590.828
591.28718
608.14073
606.65647
607.26519
627.88394
628.22863
607.33698
590.89556
590.65989
590.60601
590.8352
590.40853
590.50395
607.65423
607.58317
628.4714
630.19114
630.009
628.11878
607.59757
590.5719
590.90245
591.07076
590.35759
590.71685
591.13498
590.81817
590.39324
590.13486
590.55031
591.59653
591.32146
591.32561
591.63044
590.65446
590.32928
590.49054
590.57653
588.92656
589.06111
590.3291
590.49403
590.83644
591.61697
592.00522
591.99211
591.56014
590.69557
590.24948
590.00765
588.71039
588.61199
603.23766
603.45529
607.51021
608.13497
607.53234
617.38253
606.99462
623.84907
624.27228
627.07671
629.31082
649.49312
650.3958
650.82052
650.91114
650.61512
649.75125
673.79155
700.97863
730.98598
732.50998
731.30571
730.27006
699.703
700.90576
699.3124
730.00527
731.49954
733.42209
730.79383
700.14297
701.26971
699.25228
729.88014
730.43898
699.85988
700.1266
730.67949
733.78958
733.20281
731.86595
735.29243
704.63643
702.8011
674.27599
676.00211
649.33585
647.01686
648.10461
674.2504
674.7979
648.54948
651.32233
650.76293
677.52642
678.22179
707.04415
703.21543
702.62469
706.25729
736.97355
737.81932
741.2384
740.7675
738.68241
736.25193
733.60672
703.09081
700.92363
673.00246
647.52809
648.35988
674.71661
676.70457
674.53341
649.36251
650.37122