/*--------------------------------*- C++ -*----------------------------------*\
  =========                 |
  \\      /  F ield         | OpenFOAM: The Open Source CFD Toolbox
   \\    /   O peration     | Website:  https://openfoam.org
    \\  /    A nd           | Version:  7
     \\/     M anipulation  |
\*---------------------------------------------------------------------------*/
FoamFile
{
    version     2.0;
    format      ascii;
    class       volScalarField;
    location    "260";
    object      rho;
}
// * * * * * * * * * * * * * * * * * * * * * * * * * * * * * * * * * * * * * //

dimensions      [1 -3 0 0 0 0 0];

internalField   nonuniform List<scalar> 
24866
(
1.1739168
1.1739162
1.1739163
1.1739165
1.1739166
1.1739166
1.1739167
1.1739166
1.1739166
1.1739166
1.1739167
1.1739167
1.1739166
1.1739166
1.1739166
1.1739167
1.1739166
1.1739166
1.1739166
1.1739165
1.1739166
1.1739166
1.1739167
1.1739166
1.1739165
1.1739166
1.1739165
1.1739166
1.1739167
1.1739166
1.1739166
1.1739166
1.1739166
1.1739166
1.1739166
1.1739167
1.1739167
1.1739166
1.1739166
1.1739165
1.1739166
1.1739167
1.1739166
1.1739166
1.1739166
1.1739166
1.1739166
1.1739166
1.1739167
1.1739167
1.1739166
1.1739167
1.1739167
1.1739167
1.1739167
1.1739166
1.1739167
1.1739167
1.1739166
1.1739166
1.1739169
1.1739172
1.1739169
1.1739169
1.1739172
1.1739174
1.173917
1.173917
1.1739171
1.1739172
1.1739172
1.1739171
1.173917
1.173917
1.1739174
1.1739171
1.1739169
1.1739169
1.1739172
1.1739169
1.1739169
1.1739171
1.1739172
1.1739174
1.1739175
1.1739171
1.173917
1.173917
1.173917
1.173917
1.1739174
1.1739176
1.1739185
1.1739185
1.1739183
1.173918
1.1739175
1.1739182
1.1739176
1.1739181
1.1739188
1.1739196
1.1739188
1.1739193
1.1739195
1.1739196
1.1739193
1.1739183
1.173918
1.1739173
1.1739171
1.1739169
1.1739169
1.1739172
1.1739176
1.1739182
1.1739188
1.1739196
1.1739202
1.1739206
1.1739206
1.1739202
1.173921
1.1739202
1.1739193
1.1739184
1.1739176
1.1739178
1.1739187
1.1739196
1.1739206
1.1739214
1.1739219
1.1739214
1.1739214
1.173921
1.1739202
1.1739193
1.1739188
1.173918
1.1739176
1.1739171
1.1739169
1.1739169
1.1739168
1.1739167
1.1739169
1.1739165
1.1739165
1.1739165
1.1739165
1.1739165
1.1739164
1.1739164
1.1739164
1.1739164
1.1739165
1.1739165
1.1739165
1.1739163
1.1739162
1.1739163
1.1739165
1.1739164
1.1739165
1.1739165
1.1739165
1.1739166
1.1739166
1.1739165
1.1739166
1.1739166
1.1739166
1.1739166
1.1739165
1.1739166
1.1739166
1.1739165
1.1739169
1.1739169
1.1739168
1.1739168
1.1739171
1.1739169
1.1739171
1.1739171
1.1739177
1.1739176
1.1739183
1.1739176
1.1739181
1.1739184
1.1739176
1.1739178
1.1739187
1.1739196
1.1739206
1.1739214
1.1739219
1.1739219
1.1739219
1.1739214
1.1739206
1.1739196
1.1739185
1.1739184
1.1739175
1.1739173
1.1739173
1.1739171
1.173917
1.1739165
1.1739164
1.1739165
1.1739164
1.1739162
1.1739163
1.1739163
1.1739162
1.1739164
1.1739163
1.1739162
1.1739163
1.1739164
1.1739163
1.1739163
1.1739161
1.1739162
1.1739163
1.1739161
1.1739163
1.1739163
1.1739162
1.1739164
1.1739163
1.1739162
1.1739163
1.1739163
1.1739163
1.1739163
1.1739162
1.1739163
1.1739164
1.173916
1.1739157
1.1739158
1.1739158
1.1739157
1.1739162
1.1739165
1.1739166
1.1739166
1.1739165
1.1739166
1.1739166
1.1739166
1.1739166
1.1739165
1.1739166
1.1739166
1.1739165
1.1739166
1.1739165
1.1739164
1.1739165
1.1739164
1.1739164
1.1739165
1.1739164
1.1739164
1.1739165
1.1739165
1.1739165
1.1739164
1.1739164
1.1739168
1.1739169
1.1739169
1.1739169
1.1739171
1.173917
1.1739173
1.1739171
1.1739171
1.173917
1.1739171
1.1739176
1.1739175
1.1739185
1.1739196
1.1739206
1.1739214
1.173921
1.1739214
1.1739214
1.173921
1.1739202
1.1739193
1.1739188
1.1739196
1.1739202
1.1739206
1.1739206
1.1739202
1.1739196
1.1739202
1.1739193
1.1739183
1.1739174
1.1739173
1.173918
1.1739188
1.1739182
1.1739188
1.1739193
1.1739196
1.1739196
1.1739193
1.1739188
1.1739181
1.1739185
1.1739187
1.1739187
1.1739185
1.1739181
1.1739176
1.1739172
1.1739176
1.1739171
1.1739169
1.1739169
1.1739168
1.1739169
1.1739169
1.1739167
1.1739171
1.1739171
1.1739169
1.1739168
1.1739162
1.1739164
1.1739162
1.1739162
1.1739163
1.173917
1.173917
1.1739173
1.1739173
1.1739169
1.1739171
1.173917
1.1739169
1.173917
1.1739163
1.1739164
1.1739164
1.1739164
1.1739163
1.1739163
1.1739159
1.173916
1.1739157
1.1739158
1.1739158
1.1739157
1.173916
1.1739159
1.1739158
1.1739159
1.1739159
1.1739159
1.1739159
1.1739157
1.1739158
1.173916
1.1739157
1.1739158
1.1739158
1.1739157
1.173916
1.1739159
1.1739158
1.1739159
1.173916
1.173916
1.1739159
1.1739158
1.1739159
1.1739153
1.1739155
1.1739151
1.1739152
1.1739152
1.1739151
1.1739155
1.173916
1.1739164
1.1739163
1.1739163
1.1739164
1.1739164
1.1739164
1.1739164
1.1739163
1.1739163
1.1739164
1.1739162
1.1739163
1.1739163
1.1739158
1.1739157
1.173916
1.1739159
1.1739157
1.1739159
1.173916
1.173916
1.1739159
1.1739158
1.1739152
1.1739153
1.1739155
1.1739151
1.1739153
1.1739153
1.1739151
1.1739155
1.1739153
1.1739152
1.1739154
1.1739154
1.1739154
1.1739154
1.1739152
1.1739153
1.1739155
1.173915
1.1739152
1.1739152
1.1739151
1.1739155
1.1739153
1.1739152
1.1739154
1.1739154
1.1739154
1.1739154
1.1739152
1.1739143
1.1739145
1.1739148
1.1739142
1.1739145
1.1739145
1.1739142
1.1739148
1.1739145
1.1739144
1.1739152
1.1739158
1.1739159
1.173916
1.173916
1.1739159
1.1739158
1.1739159
1.173916
1.1739157
1.1739158
1.1739153
1.1739153
1.1739151
1.1739155
1.1739153
1.1739152
1.1739154
1.1739155
1.1739155
1.1739154
1.1739147
1.1739144
1.1739146
1.1739148
1.1739143
1.1739145
1.1739145
1.1739142
1.1739148
1.1739146
1.1739144
1.1739147
1.1739148
1.1739147
1.1739147
1.1739144
1.1739146
1.1739148
1.1739142
1.1739145
1.1739145
1.1739142
1.1739148
1.1739145
1.1739143
1.1739147
1.1739147
1.1739147
1.1739147
1.1739136
1.1739132
1.1739134
1.1739137
1.173913
1.1739133
1.1739133
1.173913
1.1739137
1.1739134
1.1739132
1.1739136
1.1739147
1.1739154
1.1739155
1.1739155
1.1739154
1.1739152
1.1739153
1.1739155
1.1739151
1.1739142
1.1739145
1.1739145
1.1739142
1.1739148
1.1739146
1.1739144
1.1739147
1.1739148
1.1739148
1.1739138
1.1739137
1.1739133
1.1739135
1.1739138
1.1739131
1.1739134
1.1739134
1.1739131
1.1739138
1.1739135
1.1739133
1.1739137
1.1739138
1.1739137
1.1739137
1.1739132
1.1739135
1.1739138
1.173913
1.1739133
1.1739133
1.173913
1.1739138
1.1739134
1.1739132
1.1739136
1.1739137
1.1739137
1.1739123
1.1739121
1.1739116
1.1739119
1.1739123
1.1739113
1.1739118
1.1739118
1.1739113
1.1739123
1.1739119
1.1739116
1.1739122
1.1739123
1.1739137
1.1739147
1.1739148
1.1739147
1.1739144
1.1739146
1.1739148
1.1739138
1.173913
1.1739134
1.1739134
1.173913
1.1739138
1.1739135
1.1739133
1.1739137
1.1739138
1.1739124
1.1739124
1.1739123
1.1739117
1.173912
1.1739124
1.1739114
1.1739119
1.1739119
1.1739114
1.1739124
1.173912
1.1739117
1.1739122
1.1739123
1.1739123
1.1739122
1.1739116
1.173912
1.1739124
1.1739113
1.1739118
1.1739118
1.1739113
1.1739123
1.1739119
1.1739116
1.1739122
1.1739123
1.1739104
1.1739104
1.1739102
1.1739095
1.1739099
1.1739105
1.1739092
1.1739098
1.1739098
1.1739092
1.1739105
1.17391
1.1739095
1.1739103
1.1739104
1.1739104
1.1739123
1.1739137
1.1739136
1.1739132
1.1739135
1.173912
1.1739124
1.1739114
1.1739119
1.1739119
1.1739114
1.1739124
1.173912
1.1739117
1.1739123
1.1739104
1.1739106
1.1739106
1.1739104
1.1739097
1.1739101
1.1739106
1.1739093
1.1739099
1.1739099
1.1739093
1.1739106
1.1739101
1.1739096
1.1739103
1.1739105
1.1739105
1.1739103
1.1739096
1.17391
1.1739105
1.1739092
1.1739098
1.1739098
1.1739092
1.1739105
1.17391
1.1739095
1.1739102
1.1739079
1.1739081
1.1739081
1.1739079
1.173907
1.1739075
1.1739082
1.1739066
1.1739074
1.1739074
1.1739066
1.1739082
1.1739075
1.173907
1.1739079
1.1739081
1.1739081
1.1739079
1.1739103
1.1739122
1.1739116
1.1739096
1.17391
1.1739106
1.1739093
1.1739099
1.1739099
1.1739093
1.1739106
1.1739101
1.1739096
1.1739071
1.173908
1.1739082
1.1739083
1.1739081
1.1739072
1.1739077
1.1739084
1.1739068
1.1739075
1.1739075
1.1739068
1.1739083
1.1739077
1.1739071
1.173908
1.1739082
1.1739082
1.173908
1.1739071
1.1739076
1.1739082
1.1739067
1.1739074
1.1739074
1.1739067
1.1739082
1.1739076
1.173907
1.1739042
1.1739052
1.1739054
1.1739054
1.1739052
1.1739042
1.1739049
1.1739056
1.1739039
1.1739048
1.1739048
1.1739039
1.1739056
1.1739049
1.1739042
1.1739052
1.1739054
1.1739054
1.1739053
1.1739043
1.173907
1.1739076
1.1739083
1.1739068
1.1739075
1.1739075
1.1739068
1.1739083
1.1739077
1.1739051
1.1739044
1.1739054
1.1739056
1.1739056
1.1739054
1.1739044
1.1739051
1.1739058
1.1739041
1.173905
1.1739049
1.1739041
1.1739058
1.173905
1.1739043
1.1739053
1.1739055
1.1739055
1.1739053
1.1739043
1.1739049
1.1739057
1.173904
1.1739048
1.1739048
1.173904
1.1739056
1.1739049
1.1739024
1.1739017
1.1739027
1.1739028
1.1739028
1.1739026
1.1739017
1.1739024
1.1739031
1.1739016
1.1739024
1.1739024
1.1739016
1.1739031
1.1739024
1.1739017
1.1739027
1.1739029
1.1739029
1.1739027
1.1739018
1.1739025
1.173905
1.1739057
1.1739041
1.1739049
1.1739049
1.1739041
1.1739058
1.1739033
1.1739026
1.1739019
1.1739029
1.1739031
1.1739031
1.1739029
1.173902
1.1739027
1.1739034
1.1739018
1.1739026
1.1739026
1.1739018
1.1739033
1.1739026
1.1739019
1.1739028
1.173903
1.1739029
1.1739028
1.1739018
1.1739025
1.1739032
1.1739016
1.1739025
1.1739025
1.1739016
1.1739032
1.1739015
1.1739009
1.1739003
1.1739009
1.173901
1.173901
1.1739009
1.1739003
1.1739009
1.1739015
1.1739003
1.1739011
1.1739011
1.1739003
1.1739015
1.1739009
1.1739003
1.173901
1.173901
1.173901
1.173901
1.1739004
1.173901
1.1739017
1.1739033
1.1739017
1.1739026
1.1739026
1.1739018
1.1739006
1.1739017
1.1739012
1.1739005
1.1739012
1.1739012
1.1739012
1.1739012
1.1739005
1.1739012
1.1739018
1.1739006
1.1739013
1.1739013
1.1739006
1.1739017
1.1739011
1.1739005
1.1739011
1.1739011
1.1739011
1.1739011
1.1739004
1.173901
1.1739016
1.1739004
1.1739011
1.1739011
1.1739004
1.1739012
1.1739018
1.1739014
1.173901
1.1739013
1.1739012
1.1739012
1.1739013
1.1739009
1.1739014
1.1739017
1.1739011
1.1739016
1.1739016
1.1739011
1.1739017
1.1739014
1.173901
1.1739013
1.1739012
1.1739013
1.1739014
1.1739011
1.1739015
1.1739019
1.1739013
1.1739005
1.1739013
1.1739013
1.1739019
1.1739014
1.173902
1.1739017
1.1739012
1.1739016
1.1739015
1.1739015
1.1739016
1.1739013
1.1739017
1.173902
1.1739014
1.1739019
1.1739019
1.1739014
1.173902
1.1739016
1.1739011
1.1739014
1.1739013
1.1739013
1.1739014
1.1739011
1.1739015
1.1739018
1.1739012
1.1739017
1.1739017
1.1739046
1.1739044
1.1739045
1.1739044
1.1739042
1.1739042
1.1739041
1.1739041
1.1739042
1.1739042
1.1739043
1.1739044
1.1739043
1.1739046
1.1739046
1.1739044
1.1739044
1.1739044
1.1739043
1.1739043
1.1739042
1.1739042
1.1739044
1.1739044
1.1739045
1.1739046
1.1739046
1.1739048
1.1739019
1.1739027
1.1739015
1.1739027
1.1739025
1.1739009
1.1739027
1.1739019
1.1739016
1.1739016
1.1739019
1.1739027
1.1739042
1.1739045
1.1739047
1.1739047
1.1739046
1.1739049
1.1739048
1.1739046
1.1739047
1.1739046
1.1739044
1.1739044
1.1739043
1.1739043
1.1739044
1.1739043
1.1739045
1.1739045
1.1739044
1.1739046
1.1739094
1.1739094
1.1739094
1.173909
1.1739091
1.1739093
1.173909
1.1739089
1.1739089
1.173909
1.1739093
1.1739091
1.173909
1.1739094
1.1739093
1.1739093
1.1739094
1.173909
1.1739092
1.1739093
1.1739091
1.173909
1.173909
1.1739092
1.1739094
1.1739093
1.1739092
1.1739096
1.1739096
1.1739096
1.1739048
1.1739046
1.1739047
1.1739047
1.1739045
1.1739046
1.1739045
1.1739045
1.1739046
1.1739094
1.1739096
1.1739094
1.1739093
1.1739096
1.1739096
1.1739096
1.1739096
1.1739092
1.1739093
1.1739095
1.1739092
1.1739091
1.1739091
1.1739092
1.1739094
1.1739092
1.1739091
1.1739094
1.1739155
1.1739152
1.1739152
1.1739155
1.1739147
1.173915
1.1739154
1.1739149
1.1739147
1.1739147
1.1739149
1.1739154
1.173915
1.1739147
1.1739155
1.1739152
1.1739152
1.1739155
1.1739147
1.173915
1.1739154
1.173915
1.1739148
1.1739149
1.173915
1.1739155
1.1739152
1.1739149
1.1739157
1.1739154
1.1739154
1.1739157
1.1739096
1.1739093
1.1739094
1.1739096
1.1739094
1.1739093
1.1739093
1.173915
1.1739152
1.1739156
1.1739152
1.1739149
1.1739157
1.1739154
1.1739154
1.1739156
1.1739149
1.1739152
1.1739155
1.173915
1.1739149
1.1739149
1.173915
1.1739154
1.1739151
1.1739147
1.1739211
1.1739222
1.1739216
1.1739216
1.1739221
1.173921
1.1739214
1.173922
1.1739213
1.1739211
1.1739211
1.1739213
1.1739221
1.1739215
1.173921
1.1739222
1.1739217
1.1739217
1.1739222
1.1739211
1.1739216
1.1739222
1.1739215
1.1739213
1.1739213
1.1739215
1.1739222
1.1739216
1.1739212
1.1739223
1.1739218
1.1739218
1.1739223
1.1739212
1.1739149
1.1739153
1.1739156
1.1739152
1.173915
1.1739214
1.1739213
1.1739215
1.1739222
1.1739216
1.1739212
1.1739222
1.1739218
1.1739217
1.1739222
1.1739212
1.1739216
1.1739221
1.1739214
1.1739213
1.1739212
1.1739214
1.1739221
1.1739215
1.1739284
1.1739279
1.1739292
1.1739285
1.1739285
1.1739291
1.1739279
1.1739284
1.1739292
1.1739284
1.1739282
1.1739282
1.1739284
1.1739292
1.1739285
1.173928
1.1739293
1.1739286
1.1739286
1.1739293
1.173928
1.1739286
1.1739293
1.1739285
1.1739284
1.1739284
1.1739285
1.1739293
1.1739285
1.173928
1.1739292
1.1739285
1.1739286
1.1739291
1.1739279
1.1739284
1.1739216
1.1739222
1.1739215
1.1739284
1.1739283
1.1739282
1.1739284
1.1739291
1.1739284
1.1739279
1.1739291
1.1739285
1.1739285
1.1739291
1.1739279
1.1739284
1.1739292
1.1739284
1.1739283
1.1739283
1.1739284
1.1739292
1.1739359
1.1739351
1.1739346
1.1739358
1.1739352
1.1739352
1.1739358
1.1739346
1.1739351
1.173936
1.1739352
1.1739352
1.1739352
1.1739353
1.173936
1.1739352
1.1739347
1.173936
1.1739353
1.1739353
1.173936
1.1739348
1.1739353
1.1739361
1.1739354
1.1739352
1.1739352
1.1739352
1.173936
1.1739351
1.1739346
1.1739358
1.173935
1.1739351
1.1739357
1.1739345
1.173935
1.1739357
1.1739291
1.173925
1.1739246
1.173924
1.173924
1.1739246
1.173925
1.1739317
1.1739357
1.1739349
1.1739344
1.1739356
1.173935
1.173935
1.1739357
1.1739345
1.173935
1.1739359
1.1739351
1.1739351
1.1739351
1.1739352
1.1739409
1.1739417
1.1739409
1.1739404
1.1739416
1.1739409
1.1739409
1.1739416
1.1739404
1.1739409
1.1739418
1.173941
1.173941
1.173941
1.1739411
1.1739418
1.173941
1.1739406
1.1739418
1.1739411
1.1739411
1.1739418
1.1739406
1.1739411
1.1739419
1.1739411
1.173941
1.173941
1.173941
1.1739417
1.1739407
1.1739403
1.1739414
1.1739407
1.1739407
1.1739413
1.1739402
1.1739406
1.1739413
1.1739406
1.173935
1.1739349
1.1739349
1.173935
1.1739406
1.1739413
1.1739405
1.1739401
1.1739412
1.1739407
1.1739406
1.1739413
1.1739402
1.1739406
1.1739415
1.1739408
1.1739408
1.1739408
1.1739457
1.1739457
1.1739464
1.1739457
1.1739453
1.1739464
1.1739458
1.1739458
1.1739464
1.1739453
1.1739457
1.1739466
1.1739459
1.1739459
1.1739459
1.173946
1.1739467
1.1739459
1.1739455
1.1739466
1.173946
1.173946
1.1739466
1.1739455
1.1739459
1.1739467
1.173946
1.1739458
1.1739458
1.1739458
1.1739464
1.1739455
1.1739452
1.1739461
1.1739455
1.1739455
1.173946
1.1739449
1.1739453
1.173946
1.1739453
1.1739453
1.1739406
1.1739405
1.1739453
1.1739453
1.173946
1.1739453
1.1739449
1.1739459
1.1739454
1.1739454
1.173946
1.1739451
1.1739454
1.1739463
1.1739456
1.1739456
1.1739498
1.1739498
1.1739499
1.1739505
1.1739498
1.1739495
1.1739505
1.17395
1.17395
1.1739505
1.1739496
1.1739499
1.1739507
1.17395
1.17395
1.1739501
1.1739501
1.1739508
1.17395
1.1739497
1.1739507
1.1739502
1.1739502
1.1739507
1.1739497
1.17395
1.1739507
1.1739501
1.17395
1.17395
1.1739499
1.1739505
1.1739496
1.1739493
1.1739502
1.1739496
1.1739496
1.17395
1.1739491
1.1739494
1.17395
1.1739494
1.1739494
1.1739494
1.1739494
1.17395
1.1739494
1.173949
1.17395
1.1739496
1.1739495
1.1739501
1.1739492
1.1739495
1.1739504
1.1739497
1.1739532
1.1739533
1.1739533
1.1739534
1.1739539
1.1739533
1.173953
1.1739539
1.1739535
1.1739535
1.173954
1.1739531
1.1739534
1.1739541
1.1739536
1.1739535
1.1739536
1.1739536
1.1739542
1.1739536
1.1739532
1.1739541
1.1739537
1.1739537
1.1739541
1.1739533
1.1739536
1.1739542
1.1739536
1.1739535
1.1739534
1.1739534
1.1739539
1.1739531
1.1739529
1.1739536
1.1739531
1.1739531
1.1739534
1.1739526
1.1739529
1.1739534
1.1739529
1.1739529
1.1739529
1.1739529
1.1739534
1.1739529
1.1739526
1.1739534
1.1739531
1.1739531
1.1739536
1.1739528
1.173953
1.1739538
1.1739566
1.1739561
1.1739561
1.1739561
1.1739562
1.1739567
1.1739562
1.173956
1.1739568
1.1739564
1.1739564
1.1739568
1.173956
1.1739563
1.1739569
1.1739564
1.1739564
1.1739564
1.1739565
1.173957
1.1739564
1.1739562
1.173957
1.1739566
1.1739566
1.173957
1.1739562
1.1739564
1.173957
1.1739564
1.1739563
1.1739563
1.1739562
1.1739567
1.173956
1.1739558
1.1739565
1.173956
1.173956
1.1739563
1.1739555
1.1739558
1.1739563
1.1739558
1.1739557
1.1739557
1.1739558
1.1739563
1.1739558
1.1739555
1.1739563
1.173956
1.173956
1.1739564
1.1739557
1.1739559
1.1739582
1.1739588
1.1739583
1.1739584
1.1739584
1.1739584
1.173959
1.1739585
1.1739583
1.1739591
1.1739588
1.1739588
1.1739591
1.1739584
1.1739587
1.1739592
1.1739587
1.1739587
1.1739587
1.1739588
1.1739593
1.1739588
1.1739585
1.1739593
1.1739589
1.1739589
1.1739593
1.1739585
1.1739588
1.1739592
1.1739587
1.1739586
1.1739586
1.1739586
1.173959
1.1739584
1.1739582
1.1739588
1.1739584
1.1739584
1.1739587
1.173958
1.1739582
1.1739586
1.1739581
1.1739581
1.1739581
1.1739581
1.1739586
1.1739582
1.173958
1.1739587
1.1739584
1.1739584
1.1739588
1.1739581
1.17396
1.1739601
1.1739606
1.1739601
1.1739601
1.1739602
1.1739602
1.1739607
1.1739603
1.1739602
1.1739609
1.1739606
1.1739606
1.173961
1.1739603
1.1739605
1.173961
1.1739605
1.1739604
1.1739604
1.1739605
1.173961
1.1739606
1.1739604
1.1739611
1.1739608
1.1739608
1.1739611
1.1739604
1.1739606
1.173961
1.1739605
1.1739604
1.1739604
1.1739603
1.1739609
1.1739603
1.1739601
1.1739607
1.1739603
1.1739603
1.1739605
1.1739599
1.1739601
1.1739605
1.17396
1.1739599
1.1739599
1.17396
1.1739605
1.1739601
1.1739599
1.1739606
1.1739603
1.1739603
1.1739607
1.1739622
1.1739615
1.1739615
1.1739618
1.1739614
1.1739615
1.1739615
1.1739615
1.1739619
1.1739616
1.1739617
1.1739624
1.1739621
1.1739622
1.1739625
1.1739619
1.173962
1.1739624
1.1739619
1.1739618
1.1739618
1.1739619
1.1739624
1.1739621
1.1739619
1.1739626
1.1739623
1.1739623
1.1739626
1.1739619
1.1739621
1.1739624
1.1739619
1.1739618
1.1739617
1.1739618
1.1739623
1.1739618
1.1739617
1.1739623
1.1739619
1.1739619
1.1739622
1.1739615
1.1739616
1.173962
1.1739616
1.1739615
1.1739614
1.1739615
1.173962
1.1739617
1.1739615
1.1739622
1.1739619
1.1739619
1.1739627
1.173963
1.1739624
1.1739624
1.1739627
1.1739623
1.1739624
1.1739624
1.1739623
1.1739627
1.1739625
1.1739625
1.1739632
1.1739629
1.1739629
1.1739632
1.1739626
1.1739628
1.173963
1.1739625
1.1739624
1.1739624
1.1739625
1.173963
1.1739629
1.1739626
1.1739633
1.173963
1.173963
1.1739633
1.1739626
1.1739629
1.1739631
1.1739625
1.1739624
1.1739624
1.1739625
1.1739629
1.1739627
1.1739625
1.173963
1.1739627
1.1739627
1.173963
1.1739623
1.1739624
1.1739626
1.1739624
1.1739623
1.1739622
1.1739623
1.1739628
1.1739626
1.1739623
1.173963
1.1739627
1.1739635
1.1739635
1.1739635
1.1739629
1.1739631
1.1739629
1.1739629
1.1739629
1.173963
1.1739632
1.173963
1.1739636
1.1739637
1.1739637
1.1739637
1.1739631
1.1739634
1.1739635
1.1739631
1.1739631
1.1739631
1.1739631
1.1739635
1.1739635
1.1739631
1.1739637
1.1739637
1.1739637
1.1739637
1.1739631
1.1739635
1.1739635
1.1739631
1.1739631
1.1739631
1.1739631
1.1739634
1.1739633
1.173963
1.1739635
1.1739635
1.1739635
1.1739635
1.1739629
1.1739635
1.1739636
1.1739631
1.1739629
1.1739629
1.1739629
1.1739633
1.1739632
1.1739629
1.1739635
1.1739632
1.173963
1.1739622
1.173961
1.1739593
1.1739579
1.1739569
1.1739571
1.1739582
1.1739596
1.1739611
1.1739622
1.1739631
1.1739632
1.173962
1.173961
1.1739589
1.1739553
1.1739532
1.1739513
1.1739512
1.1739528
1.1739551
1.1739589
1.1739611
1.173962
1.1739631
1.1739631
1.1739622
1.1739624
1.1739618
1.1739621
1.1739612
1.1739617
1.1739616
1.1739613
1.1739616
1.1739612
1.1739623
1.1739624
1.1739622
1.1739615
1.1739618
1.1739609
1.173962
1.1739617
1.1739609
1.1739605
1.1739606
1.1739615
1.1739618
1.173962
1.1739632
1.173963
1.1739622
1.1739624
1.1739618
1.1739612
1.1739616
1.1739616
1.1739623
1.173961
1.1739608
1.1739611
1.1739604
1.1739607
1.1739612
1.1739615
1.1739624
1.1739631
1.173963
1.1739622
1.1739614
1.1739604
1.1739601
1.1739607
1.1739615
1.1739614
1.1739627
1.1739618
1.1739619
1.1739619
1.1739629
1.1739626
1.1739618
1.1739609
1.1739609
1.1739608
1.1739618
1.1739621
1.1739616
1.1739608
1.1739598
1.1739599
1.1739596
1.1739599
1.1739604
1.1739602
1.1739604
1.1739587
1.1739567
1.1739562
1.1739566
1.1739587
1.1739583
1.1739566
1.1739581
1.173956
1.1739557
1.1739561
1.1739582
1.173958
1.1739559
1.1739555
1.1739576
1.1739594
1.1739605
1.1739588
1.1739595
1.1739606
1.1739574
1.1739596
1.1739584
1.1739563
1.1739541
1.1739583
1.1739577
1.1739524
1.1739535
1.1739551
1.1739443
1.173951
1.1739565
1.1739597
1.1739609
1.1739598
1.1739584
1.1739563
1.1739595
1.1739598
1.1739608
1.1739628
1.1739629
1.173963
1.173963
1.173963
1.1739629
1.1739608
1.1739609
1.1739607
1.1739606
1.1739609
1.1739596
1.1739594
1.1739579
1.1739583
1.1739599
1.1739615
1.1739586
1.1739535
1.1739395
1.1739371
1.1739363
1.1739362
1.1739371
1.1739394
1.1739425
1.1739459
1.1739507
1.1739506
1.1739459
1.1739426
1.1739396
1.1739373
1.1739366
1.1739366
1.1739373
1.1739396
1.1739425
1.1739458
1.1739505
1.1739506
1.173955
1.1739595
1.1739619
1.1739628
1.1739631
1.1739621
1.173962
1.173962
1.1739621
1.173963
1.1739628
1.1739618
1.1739595
1.1739551
1.1739508
1.1739505
1.1739461
1.1739427
1.1739397
1.1739374
1.1739367
1.1739367
1.1739373
1.1739395
1.1739424
1.1739458
1.1739504
1.1739507
1.1739458
1.1739426
1.1739396
1.1739363
1.1739381
1.1739488
1.1739631
1.1739732
1.173973
1.1739626
1.1739484
1.1739379
1.1739363
1.1739398
1.1739428
1.1739529
1.173958
1.173961
1.1739605
1.1739569
1.1739512
1.1739375
1.1739398
1.1739382
1.1739382
1.173948
1.1739634
1.1739763
1.1739897
1.1740022
1.1740117
1.1740174
1.1740175
1.174012
1.1740027
1.1739903
1.1739771
1.1739641
1.1739487
1.173977
1.1739965
1.1740148
1.1740312
1.1740439
1.1740508
1.1740507
1.1740435
1.1740306
1.174014
1.1739955
1.173976
1.1739893
1.1739618
1.1739416
1.1739368
1.173937
1.1739367
1.1739367
1.1739512
1.1739569
1.1739605
1.173961
1.1739579
1.1739528
1.1739396
1.1739374
1.1739367
1.173937
1.1739445
1.1739444
1.1739718
1.1740109
1.1740015
1.1740302
1.1740137
1.1740365
1.1740568
1.174073
1.174082
1.1740821
1.1740734
1.1740575
1.1740374
1.1740149
1.1739904
1.1739628
1.1740028
1.1740315
1.1740577
1.1740817
1.1741009
1.1741114
1.1741112
1.1741004
1.174081
1.1740567
1.1740728
1.174043
1.1740502
1.1740165
1.1740166
1.1739719
1.1740112
1.1740435
1.1740504
1.174082
1.1740818
1.1741112
1.1741004
1.1741229
1.1741355
1.1741356
1.1741234
1.1741012
1.1740739
1.1740445
1.1740124
1.173973
1.174018
1.1740516
1.1740829
1.174112
1.174136
1.1741497
1.1741495
1.1741356
1.1741358
1.1741115
1.1741011
1.1740734
1.1740574
1.1740308
1.1740019
1.173962
1.1739416
1.1739381
1.1739381
1.1739395
1.1739425
1.1739458
1.1739435
1.1739388
1.1739361
1.1739376
1.173948
1.1739763
1.1739897
1.1740143
1.1740372
1.1740576
1.1740818
1.1741013
1.1741236
1.1741362
1.1741498
1.1741499
1.1741363
1.1741122
1.1740831
1.1740517
1.1740181
1.173973
1.1740125
1.1740447
1.1740743
1.1741017
1.174124
1.1741363
1.1741123
1.1741122
1.1740828
1.1740739
1.174044
1.1740311
1.1740144
1.1739959
1.1739764
1.1739635
1.173948
1.1739621
1.1739898
1.1740022
1.1740117
1.1740173
1.1740512
1.1740512
1.1740829
1.1740741
1.1741017
1.1740824
1.1740582
1.1740318
1.174003
1.1739626
1.1739904
1.1740151
1.1740378
1.1740581
1.1740314
1.1740442
1.1740118
1.1740174
1.1739722
1.1739722
1.1739444
1.1739416
1.1739381
1.173936
1.1739394
1.1739435
1.1739478
1.1739372
1.1739356
1.1739207
1.1739214
1.1739116
1.173913
1.1739133
1.1739119
1.173922
1.1739216
1.1739363
1.173946
1.1739437
1.1739479
1.1739437
1.1739398
1.1739383
1.173937
1.1739373
1.1739373
1.173937
1.1739382
1.1739396
1.1739435
1.1739477
1.1739435
1.1739389
1.1739364
1.1739385
1.1739424
1.1739453
1.1739452
1.1739421
1.1739384
1.1739363
1.173939
1.173939
1.1739365
1.1739221
1.1739225
1.1739128
1.1739144
1.1739143
1.173913
1.1739225
1.1739219
1.1739364
1.1739382
1.1739429
1.1739361
1.173939
1.1739321
1.1739302
1.1739373
1.1739379
1.1739275
1.1739423
1.1739609
1.1739518
1.1739396
1.1739308
1.1739321
1.1739216
1.1739302
1.173922
1.1739381
1.1739384
1.1739419
1.1739367
1.1739368
1.1739448
1.1739447
1.1739368
1.1739365
1.1739417
1.1739381
1.1739483
1.1739638
1.1739767
1.17399
1.1740024
1.1739621
1.1739481
1.1739376
1.173936
1.1739394
1.1739379
1.1739215
1.1739116
1.173913
1.1739132
1.1739119
1.1739272
1.1739378
1.1739374
1.1739394
1.1739564
1.173942
1.1739522
1.17396
1.1739677
1.1739846
1.1739677
1.17396
1.1739836
1.1739991
1.173971
1.1739785
1.1739901
1.1739859
1.1739833
1.174016
1.174018
1.174002
1.1740252
1.1740021
1.1739785
1.1739515
1.173971
1.1739834
1.1739991
1.1740164
1.173986
1.1739901
1.1740183
1.174031
1.1739984
1.1739607
1.1739423
1.1739421
1.1739271
1.1739377
1.1739371
1.1739298
1.173921
1.1739318
1.1739303
1.1739391
1.1739515
1.1739606
1.1740042
1.1740042
1.1740019
1.1739947
1.1740059
1.1740284
1.1740361
1.1740381
1.1740727
1.1740633
1.1740465
1.1740482
1.1740241
1.1740479
1.1740463
1.1740722
1.1740747
1.174096
1.1740645
1.1740278
1.1739944
1.1739982
1.1740038
1.1740014
1.1740054
1.1740351
1.1740374
1.1740305
1.1740628
1.1740719
1.1740746
1.1741079
1.1741038
1.1740925
1.1741167
1.1740929
1.1740963
1.1740652
1.1740757
1.1741087
1.1741045
1.1741303
1.1741362
1.1741216
1.1741358
1.1741299
1.1741445
1.1741518
1.1741548
1.1741377
1.1741083
1.174071
1.1740608
1.1740438
1.1740197
1.1740186
1.1740434
1.1740728
1.1740436
1.174044
1.1740734
1.1740956
1.1740965
1.1740621
1.1740732
1.17411
1.1741107
1.1740669
1.1740027
1.1739441
1.1739368
1.173925
1.1739237
1.1739334
1.1739379
1.1739505
1.1739592
1.173959
1.1739274
1.1739422
1.1739377
1.1739372
1.1739303
1.1739321
1.1739307
1.1739392
1.1739514
1.1739607
1.1740037
1.1740013
1.1740052
1.1739941
1.1739979
1.1740301
1.1740373
1.174035
1.1740275
1.1740156
1.1739855
1.1739896
1.173978
1.1739704
1.1739828
1.1739984
1.1740013
1.1740175
1.1740457
1.1740624
1.1740718
1.1740745
1.1740642
1.1740955
1.1741078
1.1741037
1.1740921
1.1740716
1.1740741
1.1740473
1.1740234
1.1740245
1.1740457
1.1740474
1.1740644
1.1740956
1.1741212
1.1741357
1.1741297
1.1741162
1.1741299
1.1741443
1.1741516
1.1741358
1.1741081
1.1741038
1.1740922
1.1740624
1.1740718
1.1740748
1.1740351
1.1740274
1.1740155
1.1739983
1.173983
1.1739594
1.1739671
1.1739558
1.173939
1.1739415
1.1739518
1.1739593
1.1739669
1.1739838
1.1740012
1.1739777
1.1739509
1.1739702
1.1739828
1.1739851
1.1739891
1.1740172
1.1740299
1.1739974
1.1739601
1.1739937
1.1740052
1.1740009
1.1740031
1.174037
1.1740372
1.174072
1.1741041
1.1741302
1.1741446
1.1741448
1.1741306
1.1741047
1.1740729
1.1740382
1.1740361
1.1740019
1.1740061
1.1739949
1.1739985
1.1740312
1.1740287
1.1740168
1.1739862
1.1739903
1.1740186
1.1740024
1.1739786
1.1739712
1.1739838
1.1739996
1.1740248
1.1740488
1.1740657
1.1740759
1.174109
1.1740969
1.1740934
1.1740637
1.174047
1.174073
1.1740756
1.1740488
1.174047
1.1740257
1.1740022
1.1740149
1.1739964
1.1739768
1.1739676
1.1739599
1.1739522
1.1739839
1.1739847
1.1739675
1.173939
1.1739561
1.1739417
1.1739599
1.173971
1.1739995
1.1739838
1.1740167
1.1740184
1.17399
1.1739512
1.1739783
1.1739861
1.1739948
1.1740286
1.1740657
1.174097
1.1741224
1.1741366
1.1741521
1.1741367
1.1741307
1.1741173
1.1740934
1.1741048
1.1741092
1.174076
1.1740729
1.1740636
1.174031
1.174038
1.1740361
1.1740063
1.1740018
1.1739604
1.1739982
1.1740039
1.1740039
1.174038
1.1740728
1.1741048
1.1741306
1.1741366
1.174152
1.1741362
1.1741221
1.174117
1.1740929
1.1740965
1.1741084
1.1740751
1.1740651
1.174063
1.1740465
1.1740725
1.1740932
1.1740968
1.1741091
1.174076
1.1740656
1.1740635
1.1740467
1.1740486
1.1740753
1.1740484
1.1740245
1.1740253
1.1740018
1.1740179
1.1740304
1.174028
1.1740352
1.1740056
1.174001
1.1739602
1.1740032
1.1739976
1.1739941
1.1739856
1.1740162
1.1739835
1.1739992
1.1739708
1.1739512
1.1739896
1.1739781
1.1739672
1.1739843
1.1740019
1.1740182
1.1740309
1.1740285
1.1740361
1.1740063
1.1740019
1.1739604
1.1739981
1.1739947
1.1739861
1.1740166
1.1739837
1.1739992
1.1739709
1.1739512
1.1739899
1.1739782
1.1739673
1.173939
1.1739598
1.1739836
1.1739521
1.1739596
1.173939
1.1739559
1.1739416
1.1739303
1.1739332
1.1739376
1.1739504
1.1739588
1.1739587
1.17395
1.1739374
1.1739332
1.1739376
1.1739502
1.1739366
1.173944
1.1740025
1.1739781
1.1739705
1.173938
1.1739181
1.1739404
1.1739525
1.1739579
1.1739595
1.1739605
1.1739591
1.1739601
1.1739586
1.1739599
1.17396
1.1739597
1.1739599
1.1739585
1.1739564
1.1739543
1.1739554
1.1739536
1.1739399
1.1739398
1.1739403
1.1739449
1.1739509
1.173956
1.173951
1.1739511
1.1739553
1.1739597
1.1739618
1.1739609
1.1739576
1.1739555
1.1739543
1.1739526
1.1739542
1.1739579
1.1739521
1.1739521
1.1739579
1.1739613
1.1739613
1.1739595
1.1739595
1.1739579
1.1739594
1.1739597
1.1739584
1.1739599
1.1739615
1.1739586
1.1739534
1.1739553
1.1739597
1.1739619
1.173962
1.1739611
1.1739589
1.1739551
1.1739528
1.1739511
1.1739511
1.1739528
1.173955
1.1739589
1.1739611
1.1739621
1.1739633
1.1739632
1.1739623
1.1739611
1.1739595
1.1739579
1.1739569
1.1739569
1.1739579
1.1739594
1.1739611
1.1739623
1.1739632
1.1739632
1.1739625
1.1739623
1.1739617
1.1739617
1.1739623
1.1739613
1.173962
1.1739606
1.17396
1.1739596
1.1739599
1.1739583
1.1739581
1.1739577
1.1739577
1.173958
1.1739582
1.1739562
1.1739537
1.1739506
1.1739503
1.1739504
1.173951
1.1739541
1.1739536
1.1739541
1.173951
1.1739506
1.173949
1.1739503
1.1739534
1.1739532
1.1739536
1.1739505
1.1739502
1.1739533
1.1739529
1.1739498
1.173949
1.1739493
1.1739502
1.1739476
1.1739505
1.173952
1.1739545
1.1739528
1.1739547
1.1739578
1.1739565
1.1739546
1.1739542
1.173956
1.1739507
1.1739525
1.1739507
1.1739491
1.1739472
1.1739518
1.1739522
1.1739488
1.1739464
1.173945
1.1739365
1.1739416
1.1739454
1.1739482
1.173949
1.173952
1.1739535
1.173956
1.1739581
1.1739566
1.1739545
1.1739528
1.1739558
1.1739578
1.1739547
1.1739525
1.1739566