/*--------------------------------*- C++ -*----------------------------------*\
  =========                 |
  \\      /  F ield         | OpenFOAM: The Open Source CFD Toolbox
   \\    /   O peration     | Website:  https://openfoam.org
    \\  /    A nd           | Version:  7
     \\/     M anipulation  |
\*---------------------------------------------------------------------------*/
FoamFile
{
    version     2.0;
    format      ascii;
    class       volScalarField;
    location    "300";
    object      nut;
}
// * * * * * * * * * * * * * * * * * * * * * * * * * * * * * * * * * * * * * //

dimensions      [0 2 -1 0 0 0 0];

internalField   nonuniform List<scalar> 
24789
(
0.0012113218
0.0062178949
0.015092639
0.025917961
0.33857331
0.34032667
0.026070422
0.015184301
0.0062541314
0.0012137362
0.0012162471
0.0062917845
0.015279332
0.026228189
0.3421495
0.34404079
0.026390793
0.015377111
0.0063305233
0.0012188409
0.001221538
0.0063706612
0.015478154
0.026558502
0.34599893
0.34802889
0.026731361
0.015582175
0.0064119897
0.0012243276
0.0012272296
0.0064547745
0.015689585
0.026909558
0.35013054
0.35230902
0.027093321
0.015800229
0.0064988551
0.0012302372
0.0012333706
0.0065444612
0.015914444
0.027282784
0.35456602
0.35690733
0.027478121
0.016032095
0.006591457
0.0012366258
0.0012400225
0.0066400558
0.016153542
0.027679619
0.35933513
0.36185749
0.027887499
0.016278715
0.006690153
0.0012435629
0.0012472708
0.006741961
0.016408007
0.0281022
0.36447934
0.36721049
0.028323981
0.01654141
0.0067954199
0.0012511526
0.0012552342
0.00685074
0.016679331
0.028553337
0.37005862
0.3730351
0.028790708
0.01682187
0.0069078986
0.0012595267
0.0012640584
0.0069670881
0.016969447
0.029036685
0.37615002
0.37941771
0.029291731
0.017122188
0.0070283088
0.0012688465
0.0012739236
0.0070917452
0.017280516
0.029556473
0.38285182
0.38647049
0.029831558
0.017444624
0.0071573974
0.0012793138
0.0012850566
0.0072253791
0.01761487
0.030117656
0.39029345
0.39434761
0.030415456
0.017791419
0.0072956544
0.0012911909
0.0012977742
0.0073682391
0.017974548
0.030725695
0.39866503
0.40329026
0.031049092
0.018164313
0.007442994
0.0013048697
0.0013125677
0.0075197608
0.018360817
0.031386454
0.40828124
0.41371889
0.031738246
0.018563771
0.00759818
0.0013209743
0.0013302266
0.0076777582
0.018772478
0.032104219
0.4197115
0.42641346
0.03248311
0.01898552
0.0077576947
0.0013405297
0.0013522164
0.007837074
0.019201687
0.032873207
0.43404587
0.44290355
0.033271763
0.019419768
0.0079149557
0.0013656708
0.0013822132
0.0079966333
0.019642765
0.03368985
0.45348444
0.46722239
0.034263302
0.019943489
0.0081080791
0.001406168
0.0014408291
0.0082627288
0.020510688
0.035321346
0.48638056
0.51552755
0.037325525
0.021772046
0.0088011246
0.0014804304
0.0015062374
0.0090783433
0.022289234
0.03792203
0.53643507
0.55308375
0.040385896
0.023698204
0.0096223685
0.0015338999
0.001521991
0.01006928
0.025108299
0.043152769
0.5518028
0.5900021
0.037194314
0.022299787
0.0091838849
0.0015001725
0.0014657476
0.0087611964
0.021371845
0.036108315
0.58232785
0.56157187
0.033026964
0.019497566
0.0079511833
0.0014168093
0.0013766843
0.0076100145
0.018577198
0.031562922
0.53971415
0.52283573
0.030796908
0.018125005
0.0074573345
0.0013433066
0.0013209032
0.0073554396
0.017878534
0.03036438
0.5093524
0.49822436
0.030030418
0.017693611
0.0072823277
0.0013052907
0.001292532
0.0072147387
0.017512314
0.029701628
0.48856211
0.48003259
0.029368395
0.017326941
0.0071460093
0.0012815708
0.0012719363
0.0070750842
0.017138608
0.029035186
0.47241969
0.46553582
0.028706369
0.016949709
0.0070028362
0.0012632586
0.0012553391
0.0069306326
0.016763327
0.028386062
0.45924723
0.45345737
0.028076913
0.016581588
0.0068594615
0.0012480678
0.0012413595
0.0067899227
0.016405446
0.027779561
0.44808821
0.44308057
0.027494149
0.016235342
0.0067223588
0.0012351398
0.0012293533
0.0066569635
0.016071336
0.027220131
0.43838676
0.43397052
0.026957177
0.015913373
0.0065937861
0.0012239505
0.0012188936
0.006532838
0.015761219
0.026704503
0.42980142
0.42585496
0.026461704
0.015614651
0.0064740447
0.0012141468
0.0012096839
0.0064173365
0.015473302
0.026227844
0.42210917
0.41854781
0.026002721
0.015336964
0.0063625944
0.0012054742
0.0012014987
0.0063097478
0.015205251
0.025785373
0.41515203
0.41190979
0.025575735
0.015077993
0.0062586508
0.0011977307
0.0011941547
0.0062092566
0.014954804
0.025372794
0.40880544
0.40583091
0.025176722
0.014835602
0.0061614319
0.0011907483
0.0011874992
0.0061151681
0.014720088
0.024986634
0.4029737
0.40022903
0.024802893
0.014608282
0.0060703743
0.0011843899
0.0011814127
0.0060270333
0.01449985
0.024624504
0.3975866
0.39504151
0.024451944
0.01439484
0.0059850554
0.0011785518
0.0011758054
0.0059444548
0.014292985
0.024284296
0.39258984
0.39022582
0.024122114
0.014194318
0.0059051125
0.001173158
0.0011706119
0.0058670806
0.014098608
0.023964463
0.38794409
0.38574364
0.023811987
0.014005894
0.0058302186
0.0011681532
0.0011657871
0.005794593
0.013915944
0.023663672
0.3836184
0.3815739
0.023520413
0.013828847
0.0057600532
0.0011635
0.001161295
0.0057268077
0.013744623
0.023381406
0.37960773
0.38169522
0.0235257
0.013831922
0.0057612487
0.0011635559
0.0011658458
0.0057957378
0.013918886
0.02366869
0.38372721
0.38585008
0.02381679
0.014008758
0.0058313647
0.0011682142
0.0011706777
0.0058683083
0.014101715
0.023969701
0.38805514
0.39034396
0.024127409
0.014197478
0.0059063799
0.0011732266
0.0011758801
0.0059458288
0.014296456
0.024290131
0.39271735
0.39518063
0.024457967
0.014398451
0.0059865025
0.0011786325
0.0011815026
0.006028637
0.014503882
0.024631248
0.39773774
0.40039526
0.024810033
0.014612572
0.0060720949
0.0011844877
0.0011876087
0.0061170885
0.014724909
0.024994687
0.40315849
0.40603586
0.025185402
0.014840818
0.0061635215
0.0011908682
0.0011942883
0.0062115692
0.014960595
0.025382436
0.40903441
0.41216517
0.025586161
0.015084294
0.0062611921
0.0011978773
0.0012016604
0.0063125771
0.015212291
0.025797044
0.41543766
0.41886656
0.02601545
0.015344668
0.0063657159
0.0012056505
0.001209875
0.0064208056
0.015481847
0.026241955
0.42246575
0.42625278
0.026477097
0.015624016
0.0064778742
0.0012143518
0.0012191127
0.0065371092
0.015771627
0.026721588
0.43024587
0.43446769
0.026976005
0.015924876
0.006598532
0.001224183
0.0012296008
0.0066622714
0.016084147
0.027241022
0.43894295
0.44370192
0.027517264
0.01624957
0.0067282773
0.0012354013
0.001241636
0.0067965422
0.016421325
0.027805277
0.44878055
0.45422377
0.028105342
0.016599208
0.0068668248
0.0012483578
0.0012556381
0.0069387791
0.016782778
0.02841734
0.46008789
0.46644525
0.028740124
0.01697078
0.0070117046
0.0012635561
0.0012722161
0.0070845404
0.017160855
0.029070632
0.4733858
0.48102965
0.029403282
0.017349099
0.0071557137
0.0012818015
0.0012926805
0.0072239839
0.017531816
0.029731575
0.4895477
0.49914456
0.030049035
0.017706772
0.0072900978
0.0013053918
0.0013210023
0.0073601672
0.017879085
0.030361875
0.51010383
0.52323013
0.030762766
0.018102196
0.0074548316
0.0013432546
0.0013781845
0.007631648
0.018579119
0.031580427
0.54034533
0.56296928
0.033267698
0.01960948
0.0079746768
0.001422303
0.0014596519
0.0087892986
0.021480217
0.036595191
0.58365513
0.59169708
0.034880746
0.021090238
0.0087464034
0.0014658837
0.0015061792
0.0099531655
0.024839696
0.042581821
0.55259508
0.56007111
0.039871745
0.023123962
0.0093497413
0.0014973876
0.0015201071
0.0096251773
0.023981432
0.04153775
0.53793683
0.51409184
0.037406997
0.021904989
0.0088307466
0.0014868807
0.0014407139
0.0083451682
0.020497285
0.035072118
0.48833227
0.4696599
0.033853774
0.019795853
0.0080940193
0.0014014115
0.0013751919
0.0079454379
0.019435452
0.033219673
0.45590207
0.44493392
0.032759674
0.01917318
0.0078415772
0.0013571303
0.0013427725
0.0077519737
0.018938018
0.032343418
0.43570182
0.42774455
0.03194469
0.018712945
0.0076667289
0.0013307458
0.0013203339
0.007582819
0.018493237
0.031558857
0.42075701
0.41451415
0.031186491
0.018278862
0.0075000951
0.0013110534
0.0013026465
0.00741912
0.018071127
0.030829104
0.40885956
0.40368339
0.030487421
0.017870847
0.0073403122
0.0012949567
0.0012878719
0.0072639709
0.017678181
0.030160839
0.39890126
0.39445256
0.029848767
0.017493108
0.0071902451
0.0012813049
0.0012751908
0.0071191942
0.017315345
0.029550113
0.39028996
0.38637782
0.029264154
0.017144578
0.0070507553
0.0012694736
0.0012641136
0.0069848972
0.016980416
0.028989804
0.38268649
0.37919357
0.028726473
0.016822502
0.0069214697
0.001259072
0.0012543202
0.0068603858
0.016670398
0.028473109
0.37587817
0.37272436
0.028229286
0.016523777
0.0068014702
0.0012498273
0.0012455734
0.006744638
0.01638222
0.027994016
0.36971654
0.3668427
0.027767104
0.016245494
0.0066897276
0.0012415329
0.0012376905
0.0066366802
0.016113232
0.027547619
0.36409043
0.36145138
0.027335543
0.015985268
0.0065853447
0.0012340238
0.0012305227
0.0065357009
0.015861289
0.027129976
0.358915
0.35647624
0.026931157
0.015741237
0.0064876193
0.001227167
0.0012239511
0.0064411016
0.015624815
0.026738153
0.35412617
0.35186466
0.026551515
0.015512084
0.0063960456
0.0012208596
0.0012178905
0.006352457
0.015402688
0.026370087
0.34968117
0.34757645
0.02619457
0.015296707
0.0063102099
0.001215029
0.0012122775
0.006269364
0.015193894
0.026023964
0.34554412
0.34358539
0.025858999
0.015094316
0.006229774
0.0012096217
0.0012070683
0.0061915408
0.014997802
0.025698749
0.34169794
0.33989252
0.025544823
0.014904832
0.0061546401
0.0012046066
0.0012138579
0.0062559715
0.015188976
0.026078269
0.34042738
0.34223999
0.026234733
0.015283104
0.0062932398
0.0012163409
0.0012189336
0.0063320469
0.015380901
0.026397016
0.34412943
0.34609306
0.026564679
0.015481778
0.0063720772
0.001221621
0.0012244208
0.0064135926
0.015586148
0.026737872
0.34812927
0.35024135
0.026916467
0.015693664
0.0064563769
0.0012273219
0.0012303435
0.0065006815
0.015804759
0.027100775
0.35242983
0.35470013
0.027290841
0.015919217
0.006546345
0.0012334797
0.0012367507
0.0065935928
0.0160374
0.027486895
0.35705548
0.35950178
0.027689213
0.01615924
0.0066423159
0.0012401551
0.0012437142
0.0066927048
0.01628507
0.027898069
0.36204354
0.36468994
0.028113784
0.016414893
0.0067447027
0.0012474338
0.0012513383
0.0067985174
0.016549099
0.028336774
0.36744778
0.37032812
0.028567566
0.016687807
0.0068541288
0.0012554378
0.001259758
0.0069117315
0.016831376
0.028806561
0.37334072
0.37649902
0.029054325
0.016979976
0.0069713211
0.0012643148
0.0012691385
0.0070331269
0.017134074
0.029311515
0.37981627
0.38330914
0.029578749
0.017293855
0.0070971433
0.0012742495
0.0012796851
0.0071635583
0.017459764
0.029856739
0.38699625
0.39090118
0.030146186
0.017632021
0.0072323737
0.0012854764
0.0012916736
0.0073037133
0.017811066
0.030447975
0.3950517
0.39948491
0.030762974
0.017997126
0.0073775426
0.0012983285
0.0013055164
0.0074538949
0.018190587
0.031092199
0.40424824
0.40940638
0.031436702
0.018391632
0.0075326482
0.0013133275
0.0013218832
0.0076136793
0.018600424
0.031797398
0.41504497
0.42127963
0.032174571
0.018816615
0.0076966823
0.0013313318
0.0013419102
0.0077812766
0.019039542
0.032567755
0.42827022
0.43624764
0.032977244
0.019269453
0.0078672968
0.0013540086
0.0013681363
0.0079557154
0.019509154
0.03340554
0.44552164
0.45658184
0.033871948
0.019768551
0.0080552904
0.0013856913
0.0014108345
0.0081962586
0.020126434
0.034517852
0.47073532
0.49000139
0.035692841
0.020779149
0.0083932645
0.0014474703
0.0014902664
0.0089441796
0.022157517
0.03797274
0.51801122
0.53862712
0.039447689
0.023057598
0.0093558076
0.0015189328
0.0015359827
0.0096935381
0.023854223
0.040646736
0.55654512
0.5563851
0.043609879
0.025358675
0.010152228
0.0015266404
0.42977794
0.053274931
0.029951815
0.011745031
0.0016884107
0.0015860102
0.010394376
0.025803299
0.044813139
0.54457855
0.62240744
0.037340062
0.022385869
0.0092645842
0.0015129471
0.0014927916
0.0092305779
0.022606482
0.03866105
0.57387644
0.56360056
0.040838473
0.023584137
0.0095063151
0.001506927
0.0015062463
0.0093848173
0.023321169
0.040124769
0.54022483
0.51261621
0.036780668
0.021512138
0.0086899558
0.0014736971
0.0014321447
0.0082377268
0.020244153
0.034705112
0.48580856
0.46734715
0.033637413
0.019646633
0.0080302622
0.001395852
0.0013715466
0.007904693
0.019336717
0.033074076
0.45389469
0.44327324
0.032655658
0.019104281
0.0078136241
0.0013546669
0.0013410411
0.0077320261
0.0188885
0.032266927
0.43435969
0.42666771
0.031887102
0.018676334
0.0076521383
0.0013294965
0.0013194149
0.0075719158
0.018465646
0.031514828
0.41989471
0.41382362
0.031152487
0.018257797
0.0074918146
0.0013103676
0.0013021248
0.0074126715
0.018054721
0.030802423
0.40830434
0.4032337
0.030466107
0.017857807
0.0073351803
0.001294552
0.0012875536
0.0072598488
0.017667723
0.030143664
0.39853504
0.3941526
0.029834737
0.017484597
0.0071868818
0.0012810511
0.0012749864
0.0071164245
0.017308349
0.02953855
0.39004247
0.38617251
0.029254545
0.017138785
0.0070484623
0.0012693078
0.0012639777
0.0069829789
0.016975581
0.028981771
0.3825155
0.37905032
0.028719696
0.016818428
0.00691985
0.0012589587
0.0012542253
0.0068590053
0.016666929
0.028467322
0.37575761
0.37262238
0.028224331
0.016520809
0.0068002891
0.0012497481
0.0012455074
0.0067436357
0.0163797
0.027989806
0.36963039
0.3667696
0.027763499
0.016243334
0.0066888669
0.0012414775
0.001237644
0.0066359364
0.016111366
0.027544493
0.36402787
0.36139829
0.027332837
0.015983654
0.0065847004
0.0012339843
0.0012304885
0.0065351395
0.015859881
0.027127611
0.35886966
0.35643778
0.026929076
0.015739991
0.0064871199
0.0012271374
0.0012239256
0.0064406606
0.015623721
0.026736332
0.35409344
0.35183471
0.02654973
0.015511024
0.0063956251
0.0012208358
0.0012178682
0.0063520687
0.01540172
0.026368479
0.34965459
0.34755298
0.026193043
0.015295787
0.0063098424
0.0012150074
0.0012122564
0.0062690249
0.015193048
0.026022564
0.34552348
0.34356824
0.025857648
0.015093503
0.0062294519
0.0012096002
0.001207046
0.0061912391
0.01499704
0.025697479
0.34168271
0.33988124
0.025543542
0.014904058
0.0061543306
0.0012045811
0.0011635455
0.0057607393
0.013830491
0.02352306
0.38163525
0.38366984
0.023665892
0.013917146
0.0057950442
0.0011658164
0.0011681812
0.0058307008
0.014007014
0.023813766
0.3857881
0.3879874
0.023966246
0.014099566
0.005867435
0.0011706297
0.0011731801
0.0059055405
0.014195322
0.024123726
0.39026747
0.39263304
0.024286066
0.014293946
0.0059448116
0.001175822
0.0011785744
0.0059854899
0.014395872
0.024453608
0.39508577
0.39763154
0.024626382
0.014500895
0.0060274257
0.0011814317
0.0011844133
0.0060708304
0.014609377
0.024804673
0.40027377
0.40301964
0.02498866
0.014721222
0.0061155922
0.0011875193
0.001190771
0.0061618961
0.014836732
0.025178566
0.40587491
0.40884888
0.025374783
0.014955929
0.0062096764
0.0011941736
0.0011977504
0.0062590937
0.015079075
0.02557751
0.41195024
0.41518944
0.025787156
0.015206262
0.0063101255
0.0012015117
0.0012054842
0.006362951
0.015337855
0.026004207
0.41857831
0.42213171
0.026229133
0.015473992
0.0064175788
0.0012096833
0.0012141384
0.0064741884
0.015615066
0.026462478
0.42586457
0.42979526
0.026704768
0.015761243
0.0065327928
0.0012188695
0.0012239099
0.0065935293
0.015912885
0.026956593
0.43394373
0.43833432
0.027218629
0.016070182
0.006656389
0.0012292898
0.0012350523
0.0067214144
0.016233353
0.027491356
0.44299552
0.4479624
0.027775226
0.016402352
0.0067884497
0.0012412393
0.00124791
0.0068572987
0.016576994
0.028070371
0.45327901
0.45900257
0.028376518
0.016756592
0.0069274675
0.0012551285
0.0012629772
0.006998214
0.016939797
0.028692295
0.4652067
0.47198844
0.029014629
0.017124031
0.0070683191
0.001271559
0.001281069
0.0071362646
0.017305725
0.029338578
0.47948437
0.48789562
0.029658933
0.017481711
0.0072008671
0.0012918671
0.0013044455
0.0072629999
0.017650493
0.029970809
0.49747414
0.50860613
0.030282075
0.017817934
0.0073284258
0.001319807
0.0013417204
0.0074201057
0.018038899
0.030683712
0.5222945
0.54001921
0.031422586
0.018466407
0.007570533
0.0013748564
0.0014152504
0.0078878828
0.019323569
0.032757781
0.5629878
0.5843677
0.03518052
0.0209402
0.0086259078
0.0014607959
0.0015031802
0.0092369075
0.022394274
0.037262077
0.59280601
0.55383833
0.04480706
0.025892377
0.010386237
0.001545661
0.0015512295
0.0098233769
0.024238994
0.041359651
0.55462633
0.53674418
0.037258377
0.021986737
0.0089766413
0.0015062781
0.0014871223
0.0089088462
0.022067767
0.037977727
0.51567543
0.48680415
0.035538198
0.020643867
0.0083112439
0.0014458587
0.0014091527
0.0081394469
0.020010047
0.034352897
0.46761755
0.45358774
0.033714774
0.019663637
0.0080074719
0.0013838713
0.0013664739
0.0079171677
0.019423261
0.033273611
0.44284916
0.43392931
0.03286851
0.019199625
0.0078364709
0.0013525832
0.0013406834
0.0077562207
0.018982224
0.032477485
0.42628345
0.41958819
0.032099093
0.01876918
0.0076761384
0.0013302755
0.0013209746
0.0075967121
0.018560857
0.031733836
0.41360952
0.40818873
0.031382824
0.01835836
0.0075185138
0.0013125446
0.0013048386
0.0074419972
0.018162328
0.031046134
0.40321411
0.39860439
0.030723387
0.017972971
0.0073674451
0.0012977395
0.0012911595
0.0072950653
0.017790213
0.030413635
0.39430015
0.39025807
0.030116384
0.017613987
0.007224935
0.0012850271
0.0012792911
0.0071571162
0.017444032
0.029830635
0.38644501
0.38283529
0.029556032
0.017280187
0.0070915678
0.0012739053
0.0012688356
0.0070282572
0.017122079
0.029291519
0.37940793
0.37614635
0.029036787
0.016969479
0.0069670734
0.001264049
0.0012595238
0.0069079738
0.016822039
0.028790909
0.37303523
0.37006227
0.028553767
0.016679576
0.0068508181
0.0012552319
0.001251156
0.0067955565
0.01654171
0.02832437
0.36721543
0.36448611
0.028102753
0.016408322
0.0067420631
0.0012472722
0.0012435688
0.0066903097
0.016279064
0.027887948
0.36186424
0.35934296
0.027680225
0.01615389
0.0066401676
0.0012400251
0.0012366331
0.0065916246
0.016032457
0.027478561
0.35691422
0.3545733
0.027283453
0.015914818
0.0065445787
0.0012333749
0.0012302469
0.0064990322
0.015800604
0.027093746
0.35231524
0.35013686
0.026910286
0.015689982
0.0064548942
0.0012272345
0.0012243383
0.0064121781
0.015582568
0.026731781
0.34803351
0.34600335
0.02655925
0.015478562
0.0063707829
0.0012215445
0.0012188577
0.0063307602
0.015377611
0.026391354
0.34404316
0.34215277
0.026229177
0.015279882
0.0062919645
0.001216264
0.0012137704
0.0062545274
0.015185215
0.026071666
0.3403321
0.34042138
0.026076226
0.015187678
0.0062554152
0.0012137943
0.0012163095
0.0062929924
0.015282398
0.026233336
0.34223408
0.34412633
0.026396384
0.015380446
0.006331835
0.0012189114
0.001221614
0.0063720309
0.015481587
0.026564212
0.34609016
0.34812731
0.026737598
0.015585919
0.0064134794
0.0012244107
0.0012273191
0.006456357
0.015693543
0.026916141
0.35023835
0.35242816
0.027100553
0.015804567
0.0065005864
0.0012303357
0.0012334772
0.0065463281
0.01591909
0.027290518
0.35469818
0.35705466
0.027486719
0.01603724
0.0065935142
0.0012367428
0.0012401506
0.0066422964
0.016159116
0.027688923
0.35950077
0.36204356
0.027897895
0.016284927
0.0066926487
0.001243705
0.0012474263
0.0067446992
0.016414767
0.028113482
0.36468937
0.36744739
0.028336526
0.016548934
0.006798478
0.0012513235
0.0012554203
0.0068541342
0.016687625
0.028567138
0.3703264
0.37333758
0.02880606
0.016831108
0.006911701
0.0012597288
0.0012642755
0.0069713301
0.016979644
0.029053557
0.37649202
0.37980424
0.029310445
0.017133544
0.0070330768
0.001269079
0.0012741689
0.0070971016
0.017293142
0.029577193
0.38328896
0.38696517
0.029854619
0.017458744
0.0071634568
0.0012795713
0.0012853241
0.0072322478
0.017630659
0.030143267
0.39085402
0.39498246
0.030444007
0.017809157
0.0073034766
0.0012914657
0.0012980509
0.0073771707
0.017994473
0.030757472
0.39938357
0.40410148
0.031084453
0.01818672
0.0074532118
0.0013051413
0.001312825
0.0075314669
0.018385924
0.031425531
0.40919437
0.41474215
0.031781098
0.018591821
0.0076116374
0.0013212084
0.0013304366
0.0076932945
0.018803619
0.03215053
0.4208526
0.42768025
0.032532569
0.019020115
0.0077759049
0.0013407455
0.0013525578
0.0078594645
0.019241305
0.032926892
0.43545352
0.44449212
0.033337006
0.01947054
0.0079459453
0.0013664715
0.0013837936
0.0080439356
0.019720348
0.033785099
0.45530103
0.46917548
0.034405578
0.020063167
0.0081827823
0.0014087691
0.0014465052
0.0084037003
0.020715891
0.035579067
0.48848939
0.51680149
0.037868454
0.022109994
0.0089239027
0.0014895067
0.0015165977
0.0094032518
0.023182995
0.039851476
0.538261
0.55558635
0.039313508
0.023153407
0.0094524626
0.001514218
1.3058497
2.2732978
1.6526903
0.59459588
0.037317831
0.022380261
0.0092085939
0.0015036544
0.0015214043
0.009655642
0.024025114
0.041695425
0.56131565
0.0016612713
0.011411178
0.028986429
0.051365126
0.42736228
0.37122884
0.048535927
0.027389382
0.01078896
0.0015996473
0.0016105686
0.010782914
0.027440957
0.048691069
0.37005913
0.49235444
0.046545384
0.026498053
0.010569268
0.0015794146
0.89263439
1.0684943
2.0855597
1.6602806
6.9601078
7.0385623
7.0135043
6.9600716
6.9157388
6.9656548
6.9719411
6.9266482
0.0012046129
0.0061548044
0.014905199
0.025545442
0.33987847
0.34168636
0.025699275
0.014997932
0.0061915442
0.0012070625
0.0012096185
0.006229827
0.015094385
0.025859075
0.34357153
0.34552859
0.026023915
0.015193743
0.0062692681
0.0012122642
0.0012150191
0.0063101623
0.015296514
0.026194166
0.34755471
0.34965493
0.026369573
0.015402302
0.0063522787
0.0012178716
0.0012208419
0.0063958825
0.015511593
0.026550572
0.35183071
0.35408709
0.026737098
0.015624139
0.0064408159
0.0012239245
0.001227139
0.0064873228
0.015740412
0.026929643
0.35642649
0.35885551
0.027128134
0.015860186
0.0065352576
0.0012304839
0.0012339815
0.0065848458
0.015983918
0.027333128
0.36137881
0.36400502
0.027544689
0.016111495
0.0066359931
0.0012376351
0.0012414706
0.0066889415
0.016243415
0.027763458
0.36674151
0.3695986
0.027989704
0.016379681
0.0067436414
0.0012454972
0.0012497413
0.0068003159
0.016520754
0.028224058
0.37258667
0.37571929
0.028466978
0.016666781
0.0068589741
0.0012542171
0.0012589555
0.006919842
0.016818253
0.028719185
0.37900994
0.38247525
0.028981296
0.016975388
0.0069829531
0.0012639761
0.0012693146
0.0070485112
0.017138687
0.029254123
0.38613381
0.39000842
0.029538302
0.017308352
0.0071165302
0.0012749995
0.0012810755
0.0071871291
0.017484802
0.029834686
0.39412632
0.39852301
0.030144016
0.017668208
0.0072602651
0.0012875885
0.0012946029
0.0073358959
0.017858761
0.03046703
0.4032435
0.40834932
0.030804222
0.018056311
0.0074137762
0.001302195
0.0013104715
0.007493585
0.018260517
0.031155767
0.41392316
0.42008024
0.031521028
0.01847044
0.0075747922
0.0013195758
0.001329764
0.0076569928
0.018685199
0.031899165
0.42698623
0.4348781
0.032290722
0.018905165
0.0077402901
0.0013414847
0.0013553497
0.0078278586
0.019135354
0.032702043
0.44407512
0.4551227
0.033166616
0.019395191
0.0079290284
0.0013726102
0.0013977941
0.0080749102
0.019774189
0.033844148
0.46940555
0.48880455
0.035092609
0.020471959
0.0082905442
0.0014340253
0.0014712027
0.0088647873
0.021872219
0.037430152
0.51629815
0.53836822
0.038372629
0.022503316
0.0091258365
0.0014913225
0.0015177974
0.0096208896
0.023959054
0.041584338
0.5576565
0.037802552
0.022629011
0.0093878049
0.0015204912
0.0014954078
0.0089094032
0.021336389
0.035445008
0.60969917
0.52788059
0.040413695
0.023402653
0.0094738589
0.0015428767
0.0015667955
0.010411108
0.026150292
0.046267354
0.48580154
0.56708091
0.039254496
0.022825083
0.0093237965
0.0014922296
0.0015177719
0.0096204129
0.023957954
0.041582588
0.55776466
0.53842919
0.038371499
0.022502271
0.0091253603
0.0014913168
0.0014711841
0.0088640769
0.021870511
0.037427628
0.51632925
0.48881698
0.03508928
0.020469926
0.0082897461
0.0014339955
0.0013977519
0.0080739823
0.019771906
0.033840459
0.46940406
0.45511292
0.033162932
0.019392913
0.0079281154
0.0013725644
0.001355302
0.0078269392
0.019133085
0.032698363
0.44406029
0.43486053
0.032287191
0.018902986
0.0077393979
0.0013414381
0.0013297195
0.0076561344
0.018683098
0.031895755
0.42696765
0.42006184
0.031517865
0.018468495
0.0075739952
0.0013195366
0.0013104374
0.0074928287
0.018258666
0.031152742
0.41390537
0.40833243
0.030801413
0.018054593
0.0074130702
0.0013021663
0.0012945793
0.0073352191
0.017857105
0.030464317
0.40322771
0.39850752
0.030141463
0.017666633
0.0072596112
0.0012875697
0.0012810595
0.0071864689
0.017483201
0.029832084
0.39411046
0.38999117
0.029535675
0.01730672
0.0071158471
0.0012749843
0.001269299
0.0070477912
0.017136945
0.029251302
0.3861145
0.38245352
0.028978474
0.016973625
0.0069822126
0.00126396
0.0012589371
0.006919059
0.016816365
0.028716149
0.37898558
0.37569195
0.028463886
0.016664848
0.006858164
0.0012541973
0.0012497177
0.0067994616
0.016518681
0.028220708
0.37255619
0.36956469
0.027986421
0.016377626
0.0067427872
0.0012454719
0.0012414422
0.0066880525
0.01624124
0.027759926
0.36670464
0.36396509
0.0275412
0.016109346
0.0066351102
0.0012376045
0.0012339471
0.006583919
0.015981612
0.027329321
0.36133583
0.35881034
0.027124491
0.015857953
0.0065343425
0.0012304477
0.0012271007
0.0064863948
0.015738084
0.026925776
0.35637943
0.35403957
0.026733561
0.015621979
0.0064399342
0.0012238873
0.0012208043
0.0063949929
0.015509341
0.026546798
0.35178251
0.34960582
0.026366004
0.015400155
0.0063514108
0.0012178346
0.0012149804
0.006309274
0.015294249
0.026190321
0.34750439
0.34547744
0.026020317
0.015191605
0.0062684118
0.0012122266
0.0012095776
0.0062289188
0.015092042
0.025855039
0.34351926
0.34163124
0.025695288
0.014995619
0.0061906322
0.0012070195
0.0012045581
0.0061536249
0.014902024
0.025539769
0.33980646
0.33805777
0.025390325
0.014811845
0.006117907
0.0012021782
0.34037059
0.026074766
0.015186877
0.0062551429
0.001213791
0.0012162897
0.0062925832
0.015281381
0.026231651
0.34218553
0.34407536
0.02639394
0.015379007
0.0063312717
0.0012188762
0.00122157
0.0063713941
0.015480024
0.026561607
0.34603352
0.34806364
0.026734404
0.015584027
0.0064127213
0.0012243583
0.0012272601
0.0064555217
0.015691489
0.026912694
0.35016527
0.35234311
0.027096417
0.015802126
0.0064996067
0.0012302674
0.0012333996
0.0065452284
0.015916375
0.027285935
0.35459853
0.35693716
0.027481207
0.016034002
0.0065922196
0.0012366516
0.0012400452
0.0066407989
0.0161554
0.027682607
0.35936167
0.36187915
0.027890368
0.01628051
0.0066908791
0.0012435809
0.0012472818
0.0067426439
0.016409672
0.028104826
0.36449545
0.36722002
0.028326325
0.016542917
0.0067960432
0.0012511562
0.0012552291
0.0068512976
0.016680669
0.028555392
0.37005975
0.37302612
0.028792348
0.016822955
0.0069083535
0.0012595109
0.0012640319
0.0069674181
0.016970214
0.029037793
0.37612949
0.37938374
0.029292234
0.017122598
0.0070284946
0.0012688083
0.0012738735
0.0070917593
0.017280543
0.029556384
0.3828028
0.38640494
0.029830782
0.017444211
0.0071572174
0.0012792521
0.0012849848
0.0072249803
0.017613982
0.03011615
0.39021035
0.39424548
0.030413154
0.017790028
0.007295021
0.0012911123
0.0012976912
0.0073673604
0.017972654
0.030722636
0.39854264
0.40314654
0.031045221
0.018161876
0.0074418378
0.0013047879
0.001312497
0.007518337
0.018357844
0.031381756
0.40811582
0.41353259
0.031732764
0.018560319
0.0075965201
0.0013209299
0.0013302375
0.0076759999
0.018768748
0.032098121
0.41950771
0.42619989
0.032476806
0.018981992
0.0077561647
0.0013406521
0.0013525604
0.0078365806
0.019199722
0.032868228
0.43384122
0.44275324
0.033273751
0.019423704
0.0079174494
0.001366455
0.0013838543
0.008007971
0.019664466
0.033715333
0.45347801
0.46748443
0.034353825
0.020011209
0.0081401261
0.0014091289
0.0014458211
0.0083120743
0.020645312
0.035539512
0.48663176
0.51543951
0.037980681
0.022069825
0.0089098726
0.0014870687
0.0015061792
0.0089772589
0.021987204
0.03725773
0.53645886
0.55426489
0.041355696
0.024237533
0.0098227187
0.0015511925
0.0015458397
0.010381427
0.025896743
0.04482109
0.55343632
0.59237122
0.037271896
0.022399559
0.0092387524
0.0015032017
0.0015067811
0.0095114981
0.023594697
0.040856963
0.56311973
0.55964318
0.039851727
0.023113183
0.0093463456
0.0014968343
0.0014657833
0.0087433858
0.021085912
0.034874227
0.59118986
0.55516452
0.039306723
0.023150132
0.0094498089
0.0015142249
0.0015359713
0.0096874446
0.023845593
0.040632468
0.55621416
0.59425379
0.037307209
0.022373554
0.0092037793
0.0015037055
0.0015212992
0.009649518
0.024014636
0.041679558
0.5611429
0.5404183
0.037725102
0.02216053
0.0089939896
0.0014871254
0.0014676492
0.0088035751
0.021736044
0.03723803
0.51822054
0.4905961
0.035101424
0.020463013
0.0082811226
0.0014328402
0.0013971068
0.0080672976
0.019766999
0.033850557
0.47047227
0.45583419
0.03316977
0.019390603
0.0079246977
0.0013722618
0.0013551857
0.0078259208
0.019133589
0.032705157
0.44460058
0.43529121
0.032294507
0.018905326
0.0077397774
0.0013414158
0.0013297562
0.007657376
0.018686812
0.031903955
0.4273306
0.42037851
0.031526746
0.018473095
0.0075757285
0.0013196125
0.0013105361
0.0074947931
0.01826368
0.031161851
0.4141854
0.40858042
0.030810301
0.018059636
0.0074150778
0.0013022755
0.0012946899
0.0073371573
0.01786195
0.03047271
0.40344671
0.39870006
0.030149192
0.017671143
0.0072614229
0.0012876766
0.0012811599
0.0071881242
0.017487324
0.029839104
0.39427921
0.39013871
0.029542006
0.017310457
0.0071173491
0.001275077
0.0012693834
0.0070491385
0.017140304
0.029256979
0.38624342
0.38256587
0.028983517
0.016976617
0.0069834136
0.0012640362
0.0012590051
0.0069201197
0.016819018
0.028720622
0.37908307
0.37577649
0.028467812
0.016667188
0.0068591045
0.001254257
0.0012497706
0.0068002876
0.016520745
0.028224174
0.37262899
0.36962757
0.027989373
0.016379392
0.006743493
0.0012455175
0.0012414817
0.0066886692
0.016242784
0.027762515
0.36675811
0.36401117
0.027543431
0.016110675
0.006635639
0.0012376387
0.0012339766
0.0065843791
0.015982778
0.0273313
0.36137536
0.35884359
0.027126249
0.015858993
0.0065347563
0.0012304742
0.001227124
0.0064867643
0.015739024
0.026927369
0.35640914
0.35406473
0.02673487
0.015622772
0.006440255
0.0012239069
0.0012208206
0.0063952657
0.015510034
0.026547966
0.35180392
0.34962515
0.026367029
0.01540077
0.0063516555
0.0012178483
0.0012149922
0.0063094898
0.015294793
0.026191236
0.34752098
0.34549434
0.026021215
0.015192137
0.0062686204
0.0012122372
0.0012095868