/*--------------------------------*- C++ -*----------------------------------*\
  =========                 |
  \\      /  F ield         | OpenFOAM: The Open Source CFD Toolbox
   \\    /   O peration     | Website:  https://openfoam.org
    \\  /    A nd           | Version:  7
     \\/     M anipulation  |
\*---------------------------------------------------------------------------*/
FoamFile
{
    version     2.0;
    format      ascii;
    class       volVectorField;
    location    "300";
    object      U;
}
// * * * * * * * * * * * * * * * * * * * * * * * * * * * * * * * * * * * * * //

dimensions      [0 1 -1 0 0 0 0];

internalField   nonuniform List<vector> 
24789
(
(97.204073 -0.00098319905 -0.00084280819)
(106.11435 -0.001505341 -0.0009979441)
(109.39923 -0.002133677 -0.0013142106)
(111.19567 -0.0024735792 -0.0014489651)
(117.91918 -0.0016803767 -0.00032571445)
(117.91756 -0.0017684694 -0.00045836868)
(111.20679 -0.002592757 -0.0015303395)
(109.41515 -0.002241618 -0.0013734791)
(106.14096 -0.0015939528 -0.0010323202)
(97.254781 -0.0010643346 -0.00087037723)
(97.306263 -0.0011542604 -0.00088259299)
(106.16759 -0.0016982417 -0.0010536364)
(109.43103 -0.0023494061 -0.0014023379)
(111.21783 -0.0026998914 -0.0015694004)
(117.91617 -0.0019236691 -0.00058089957)
(117.91532 -0.0021389991 -0.0007759654)
(111.22958 -0.0027470679 -0.0016700914)
(109.44762 -0.0023771189 -0.0014925203)
(106.19518 -0.0017056591 -0.0011366599)
(97.359001 -0.0011421015 -0.00095474092)
(97.413289 -0.0011760028 -0.00096891787)
(106.22367 -0.0017491301 -0.0011660742)
(109.46501 -0.0024344004 -0.0015407776)
(111.24204 -0.0028189536 -0.0017383615)
(117.91517 -0.0023817038 -0.0010056465)
(117.91593 -0.0026812956 -0.00127767)
(111.25539 -0.002904778 -0.0018061088)
(109.48328 -0.0025030062 -0.0015860664)
(106.25324 -0.001803192 -0.0011901078)
(97.469022 -0.0012172623 -0.00097646085)
(97.526564 -0.0012636705 -0.00097981223)
(106.28401 -0.0018706576 -0.0012051821)
(109.50265 -0.002593525 -0.0016218708)
(111.2698 -0.0030216996 -0.0018636679)
(117.91784 -0.0031138369 -0.0015864876)
(117.9212 -0.0036521157 -0.0019982366)
(111.28556 -0.0031657862 -0.001941683)
(109.52335 -0.0027050399 -0.0016663432)
(106.3163 -0.0019556955 -0.0012255171)
(97.586012 -0.001322871 -0.00098580417)
(97.64786 -0.0013865709 -0.0010186555)
(106.35038 -0.0020681455 -0.0012731264)
(109.54574 -0.0028563066 -0.0017409202)
(111.30298 -0.0033604588 -0.0020565862)
(117.92633 -0.004346678 -0.0025197479)
(117.93361 -0.0052167272 -0.0031505521)
(111.32252 -0.0035942032 -0.0021707784)
(109.57023 -0.0030275322 -0.0018013159)
(106.38678 -0.0021829715 -0.0012992536)
(97.712429 -0.001441603 -0.0010357549)
(97.780521 -0.0014743852 -0.0011409736)
(106.4261 -0.002308283 -0.0014092648)
(109.59751 -0.0032377923 -0.0019487049)
(111.34477 -0.0038918274 -0.0023805916)
(117.94345 -0.0063175508 -0.0039480518)
(117.95636 -0.0076949414 -0.0049286591)
(111.37048 -0.0042583394 -0.002690624)
(109.62829 -0.0034806576 -0.0021827886)
(106.4692 -0.0024285112 -0.0016022221)
(97.852811 -0.0014630631 -0.0013349656)
(97.930504 -0.0014007219 -0.0016405077)
(106.51712 -0.0025335249 -0.0019158422)
(109.66365 -0.0037544856 -0.0025462631)
(111.4006 -0.0047015355 -0.0031409885)
(117.97286 -0.0094126595 -0.0061222252)
(117.99357 -0.011478467 -0.0075619089)
(111.43629 -0.0052289738 -0.0037427196)
(109.70478 -0.0040622332 -0.0030419836)
(106.57118 -0.0026327114 -0.0023373023)
(98.014746 -0.001312352 -0.0020203321)
(98.107051 -0.0011926824 -0.0024887214)
(106.63282 -0.0027324931 -0.0028640612)
(109.75312 -0.0044135611 -0.0036722665)
(111.47884 -0.0058419068 -0.0045078344)
(118.01916 -0.013867083 -0.0092884688)
(118.05037 -0.016673079 -0.011324086)
(111.5297 -0.0065462351 -0.0054692468)
(109.81021 -0.0047981371 -0.0044769063)
(106.70369 -0.0028099175 -0.0035516252)
(98.20889 -0.00098839981 -0.0031163141)
(98.322135 -0.00069515425 -0.0039242885)
(106.78559 -0.0028544346 -0.0044333567)
(109.87782 -0.0052178143 -0.0054913541)
(111.5905 -0.0073534108 -0.0066611372)
(118.08806 -0.019962928 -0.013708231)
(118.13321 -0.023823717 -0.016497595)
(111.66309 -0.0082708553 -0.0081158693)
(109.95792 -0.0056647231 -0.0067442112)
(106.88065 -0.0028450065 -0.0055310938)
(98.448791 -0.00030269726 -0.0049469454)
(98.59131 0.00022275698 -0.006269678)
(106.99124 -0.0028177108 -0.0069462627)
(110.05284 -0.0061862488 -0.0083300825)
(111.74958 -0.0093593213 -0.0099271978)
(118.18699 -0.028399468 -0.019790249)
(118.25079 -0.033868998 -0.023670604)
(111.85256 -0.010665471 -0.012075241)
(110.1653 -0.0068046663 -0.010210846)
(107.12027 -0.0027745722 -0.0086192001)
(98.752589 0.00084860442 -0.0078242842)
(98.936525 0.0015663831 -0.0096783137)
(107.27149 -0.0027561086 -0.010632282)
(110.29881 -0.0075931377 -0.012480688)
(111.97525 -0.012293051 -0.014665606)
(118.32638 -0.04050161 -0.028305206)
(118.41596 -0.048667553 -0.033901951)
(112.12184 -0.014392373 -0.017786326)
(110.45791 -0.0086564252 -0.015202378)
(107.44978 -0.0028262582 -0.013022237)
(99.148186 0.0023375415 -0.011843611)
(99.394502 0.0030817207 -0.014301166)
(107.66173 -0.0030981673 -0.015822302)
(110.64873 -0.010162947 -0.01845311)
(112.29797 -0.017189538 -0.021553593)
(118.52231 -0.058879342 -0.040752187)
(118.64899 -0.071797967 -0.049276459)
(112.51126 -0.020995743 -0.026101836)
(110.87958 -0.012349704 -0.022299029)
(107.91637 -0.0037459316 -0.019029139)
(99.684787 0.0036668693 -0.01696615)
(100.03203 0.0038983037 -0.019697585)
(108.22621 -0.0050430865 -0.02259262)
(111.16209 -0.015547752 -0.026797087)
(112.77235 -0.026204569 -0.031599832)
(118.80099 -0.08820161 -0.060132592)
(118.98475 -0.10877434 -0.074295889)
(113.09485 -0.033294413 -0.038209315)
(111.51112 -0.020212744 -0.031916428)
(108.60737 -0.0074292557 -0.026285121)
(100.45339 0.003447922 -0.022197091)
(100.96919 0.0011802169 -0.023357998)
(109.07939 -0.011813949 -0.029336637)
(111.94468 -0.027292407 -0.037338675)
(113.49507 -0.043233141 -0.045963733)
(119.20688 -0.134042 -0.092847871)
(119.47967 -0.16391195 -0.1160789)
(113.99902 -0.057321157 -0.055094214)
(112.49123 -0.037951045 -0.042919131)
(109.67315 -0.019191169 -0.031088934)
(101.60969 -0.0045958028 -0.02189861)
(102.42993 -0.012529357 -0.018456344)
(110.4363 -0.029406117 -0.032962569)
(113.19378 -0.051625853 -0.049566563)
(114.6469 -0.075196721 -0.066526122)
(119.83087 -0.19822063 -0.14361511)
(120.26602 -0.24972008 -0.1836171)
(115.45016 -0.099569586 -0.081593711)
(114.06441 -0.069569588 -0.057802616)
(111.38091 -0.04341393 -0.035818614)
(103.46319 -0.02064653 -0.012217591)
(104.64938 -0.025546053 -0.0051783463)
(112.52173 -0.068203593 -0.041924598)
(115.13408 -0.10681444 -0.073967108)
(116.43522 -0.15494962 -0.10889882)
(120.75056 -0.37927629 -0.25993249)
(121.72482 -0.61700303 -0.34533607)
(118.15579 -0.24286234 -0.15959429)
(116.99066 -0.15674995 -0.11833076)
(114.4796 -0.08111081 -0.065122978)
(106.35873 -0.019678664 -0.065458997)
(110.18033 -0.18533538 -0.43310898)
(118.15891 0.013973939 -0.075537978)
(120.43958 -0.16047084 -0.096597233)
(121.33942 -0.27495479 -0.13440335)
(123.45121 -1.0649327 -0.52710418)
(124.18818 -2.919652 -1.9167426)
(122.4802 -3.3879048 -2.0990708)
(121.69214 -3.4218892 -2.0889375)
(119.65366 -3.3733936 -2.0129355)
(112.29628 -3.4171968 -2.0753885)
(111.88141 -3.746904 -4.4551342)
(119.12807 -3.6734575 -4.4589626)
(121.15906 -3.8726403 -4.4508731)
(121.97553 -3.9406813 -4.3122319)
(123.97401 -3.958064 -3.197072)
(123.87798 -5.3312068 -4.2629521)
(122.34166 -6.0366434 -5.0825248)
(121.61648 -6.0679378 -5.153948)
(119.70088 -5.9503055 -5.1055953)
(112.57616 -5.9013804 -5.0789188)
(112.28179 -7.8192627 -5.8948799)
(118.87002 -8.0273322 -5.8367294)
(120.71624 -8.1336322 -5.8510098)
(121.44765 -8.0919676 -5.7831861)
(123.04529 -7.0831248 -4.831829)
(124.01711 -5.7851957 -3.2442628)
(121.80595 -6.4010983 -4.0382819)
(121.01518 -6.423809 -4.1525063)
(119.05534 -6.2596961 -4.2105616)
(112.0404 -6.4372129 -4.423408)
(111.51357 -5.6431232 -2.2736597)
(118.687 -5.7708035 -2.2495659)
(120.72059 -5.7943344 -2.2600161)
(121.56446 -5.6639757 -2.2265042)
(123.99168 -4.5696247 -2.056748)
(124.07448 -2.7224578 -1.2610831)
(121.8941 -2.5699643 -1.0390644)
(121.0448 -2.5072174 -0.99346825)
(118.87587 -2.3555866 -0.92438738)
(111.17851 -2.817859 -1.1408794)
(108.16243 -0.05892005 -0.14049854)
(116.41986 0.040408253 -0.072278101)
(118.89925 -0.097191688 -0.13300465)
(119.95353 -0.18897204 -0.18568961)
(123.19079 -1.0490743 -0.64434148)
(121.61205 -0.62893622 -0.37678276)
(117.06928 -0.21728487 -0.14239521)
(115.81377 -0.14009182 -0.098217914)
(113.17532 -0.081236499 -0.055419845)
(104.94761 -0.030726452 0.0071882383)
(103.31724 -0.024971807 -0.010753032)
(111.36493 -0.060722526 -0.042507646)
(114.07825 -0.099432084 -0.068342053)
(115.44206 -0.14865914 -0.094091808)
(120.70939 -0.4040377 -0.2166282)
(120.27045 -0.27151723 -0.13518009)
(114.46271 -0.10450828 -0.06269385)
(113.02074 -0.071834083 -0.04781247)
(110.24052 -0.042014888 -0.032523226)
(102.1524 -0.018565814 -0.016801679)
(101.13137 -0.014655347 -0.013302628)
(109.29296 -0.033314936 -0.022750664)
(112.1412 -0.057464827 -0.033574448)
(113.64744 -0.082731401 -0.044577518)
(119.8673 -0.2195536 -0.10575901)
(119.53444 -0.18179068 -0.089154484)
(112.98067 -0.064734735 -0.034272754)
(111.42269 -0.04487909 -0.025441664)
(108.51975 -0.026039447 -0.017222194)
(100.31244 -0.011118225 -0.01028727)
(99.667008 -0.0084256046 -0.0086153464)
(107.91262 -0.020080907 -0.014115113)
(110.85909 -0.034516863 -0.020608113)
(112.45788 -0.049961557 -0.027586617)
(119.275 -0.14739528 -0.073792863)
(119.06215 -0.11957415 -0.060500463)
(112.03974 -0.039233814 -0.022942089)
(110.40844 -0.026974694 -0.017483589)
(107.42537 -0.015632857 -0.01236204)
(99.14113 -0.006506062 -0.007912928)
(98.705611 -0.0051031366 -0.0073149022)
(107.02726 -0.012376671 -0.01087245)
(110.04183 -0.021498758 -0.014912788)
(111.69951 -0.031372652 -0.019210554)
(118.88433 -0.09742354 -0.049626267)
(118.73633 -0.079850577 -0.040747477)
(111.4213 -0.025522453 -0.015959426)
(109.74186 -0.017507084 -0.012533418)
(106.69979 -0.010069917 -0.0093281448)
(98.34204 -0.0041587713 -0.0065182648)
(98.034615 -0.0035781027 -0.0055853134)
(106.42768 -0.0084663897 -0.0077914897)
(109.49423 -0.014612953 -0.010365839)
(111.19191 -0.021184441 -0.01314004)
(118.61252 -0.066023031 -0.033547604)
(118.50824 -0.055041849 -0.027780122)
(111.00087 -0.017911428 -0.010752378)
(109.28764 -0.01247578 -0.0084587891)
(106.19894 -0.0073340477 -0.0063461241)
(97.771207 -0.0032372524 -0.0045973319)
(97.543073 -0.0030321533 -0.0036542794)
(106.00489 -0.0064973601 -0.0050717346)
(109.11398 -0.010834905 -0.0068428076)
(110.84066 -0.015361054 -0.0087671219)
(118.42019 -0.046178045 -0.023080399)
(118.34574 -0.038893198 -0.019207519)
(110.70573 -0.01329299 -0.007154218)
(108.96727 -0.0095078812 -0.0055281989)
(105.8392 -0.0058291393 -0.004019302)
(97.34372 -0.0028831913 -0.0028411837)
(97.168271 -0.0027557517 -0.0021806362)
(105.69708 -0.0052661075 -0.0031835767)
(108.84304 -0.0083962281 -0.0044798441)
(110.59191 -0.011566389 -0.0058556213)
(118.28279 -0.032809565 -0.015978871)
(118.22966 -0.027652775 -0.01326342)
(110.49596 -0.010071355 -0.0048475872)
(108.73782 -0.0074156591 -0.0036896302)
(105.57491 -0.004746389 -0.002576456)
(97.012995 -0.0026017346 -0.0017177694)
(96.87495 -0.0024717823 -0.0013157942)
(105.46969 -0.0043048745 -0.0020591177)
(108.64879 -0.0065847388 -0.0030181565)
(110.41522 -0.0088029197 -0.0039908714)
(118.18499 -0.023248647 -0.010949093)
(118.14766 -0.019461891 -0.0089815445)
(110.34751 -0.0077075971 -0.0033106269)
(108.57357 -0.0058595884 -0.0024995043)
(105.37899 -0.0039062727 -0.0016820435)
(96.751651 -0.0023306725 -0.0010539362)
(96.641001 -0.0021983869 -0.00084486793)
(105.30056 -0.003566555 -0.0013610611)
(108.51005 -0.0052499362 -0.002053452)
(110.29083 -0.0067853141 -0.0027304894)
(118.11671 -0.016203216 -0.007306218)
(118.09133 -0.013417818 -0.0058864139)
(110.24343 -0.0060370467 -0.0022142758)
(108.45632 -0.0047621162 -0.0016421849)
(105.23249 -0.0032976881 -0.0010567725)
(96.541036 -0.0020901398 -0.00065027069)
(96.450062 -0.0020337008 -0.00041586289)
(105.17288 -0.0031100034 -0.00073509722)
(108.41063 -0.0043968456 -0.0012441117)
(110.20364 -0.0054588203 -0.0017394158)
(118.07077 -0.011071701 -0.0046899863)
(118.05437 -0.0091198933 -0.0037095992)
(110.17005 -0.0049980267 -0.0013626094)
(108.37139 -0.0041055393 -0.00092799125)
(105.12018 -0.0029656613 -0.000462844)
(96.36643 -0.0020048609 -0.00018592529)
(96.288823 -0.0019891183 3.2133209e-05)
(105.07285 -0.0028518855 -0.00023708672)
(108.33723 -0.0038753412 -0.00067778466)
(110.14132 -0.0046345649 -0.0010667057)
(118.04154 -0.0075064303 -0.0029070503)
(118.03176 -0.0061854325 -0.0022642692)
(110.11641 -0.0043325993 -0.0008737629)
(108.30699 -0.0036734011 -0.00052361775)
(105.02979 -0.0027378501 -0.00010214875)
(96.215986 -0.0019531612 0.00016607284)
(96.147019 -0.0019239174 0.00026994233)
(104.98988 -0.0026486921 -2.6842511e-06)
(108.27971 -0.0035179751 -0.00041110903)
(110.09438 -0.0041006546 -0.00073182916)
(118.02455 -0.0051145739 -0.0017492889)
(118.0195 -0.0042513757 -0.001351878)
(110.07458 -0.0038965009 -0.00067226813)
(108.25466 -0.0033687739 -0.00038014314)
(104.95249 -0.0025461398 1.0717746e-05)
(96.081055 -0.001864139 0.00027696014)
(96.017635 -0.0018096873 0.00027110501)
(104.91692 -0.0024581691 9.3086509e-06)
(108.23134 -0.0032436778 -0.00036853762)
(110.05645 -0.0037280978 -0.00063930171)
(118.0162 -0.0035606305 -0.0010422496)
(118.01436 -0.0029959897 -0.00079897089)
(110.0397 -0.0035939976 -0.0006115157)
(108.20935 -0.0031418022 -0.00035525886)
(104.88294 -0.0023856965 9.7377274e-06)
(95.956225 -0.0017624023 0.00026193945)
(95.896677 -0.0017253569 0.00027605106)
(104.85013 -0.0023288208 3.3114018e-05)
(108.18844 -0.0030602887 -0.00032081628)
(110.02396 -0.0034859235 -0.00056356965)
(118.01369 -0.0025976369 -0.00059997107)
(118.01394 -0.0022726884 -0.0004325905)
(110.00917 -0.0033965667 -0.00050882208)
(108.16845 -0.0029921469 -0.00027727393)
(104.81849 -0.0022827151 6.9964081e-05)
(95.838693 -0.0016985721 0.00031135635)
(95.782276 -0.001679961 0.00037786661)
(104.78771 -0.0022429409 0.0001350478)
(108.14923 -0.0029306926 -0.00020818407)
(109.99504 -0.0033163396 -0.00043198631)
(118.01489 -0.0020156946 -0.00028700554)
(118.01634 -0.0018576238 -0.00020218536)
(109.98172 -0.003209412 -0.00040566448)
(108.13081 -0.0028164717 -0.00018674318)
(104.75799 -0.0021252629 0.0001538423)
(95.727145 -0.0015776092 0.00039510614)
(95.672171 -0.0016251473 0.00040855244)
(104.72752 -0.0022326425 0.00015797725)
(108.11161 -0.0028913081 -0.00016298483)
(109.96762 -0.0032416534 -0.00036612486)
(118.01789 -0.0018182601 -0.00015661982)
(118.0145 0.00025416016 -0.0014427121)
(109.98026 0.00074410496 -0.0029388771)
(108.12947 0.00057688373 -0.0025843348)
(104.75705 0.00026707832 -0.001936184)
(95.727326 1.3589702e-05 -0.0014293263)
(95.782618 -0.00011496896 -0.0015993241)
(104.78712 0.00016344331 -0.0021430048)
(108.14824 0.00050546641 -0.0028164278)
(109.99388 0.00069879454 -0.0031927008)
(118.01296 0.00030163907 -0.00177123)
(118.01188 0.00036067203 -0.0020398008)
(110.00775 0.00063547457 -0.0033004159)
(108.16718 0.00043098999 -0.0029113295)
(104.81762 8.4447523e-05 -0.0022229185)
(95.838841 -0.00018961174 -0.0016625864)
(95.896796 -0.00026619962 -0.0017213865)
(104.8492 7.7864008e-06 -0.0023033222)
(108.18709 0.00036563794 -0.0030161913)
(110.02245 0.00058819063 -0.0034280431)
(118.01146 0.00046689229 -0.0023975082)
(118.01192 0.00061664257 -0.0028271876)
(110.03804 0.00054385386 -0.0035697207)
(108.20786 0.00030157928 -0.0031318428)
(104.8819 -6.9211548e-05 -0.002394155)
(95.95629 -0.00034798612 -0.0017914275)
(96.01773 -0.00043724818 -0.0018695869)
(104.91584 -0.00014971897 -0.0024979074)
(108.22977 0.00023704176 -0.0032650715)
(110.05469 0.00049980346 -0.0037346363)
(118.01352 0.00081240269 -0.0033901021)
(118.01655 0.0010824557 -0.0041054942)
(110.07268 0.00047516628 -0.0039287088)
(108.25297 0.00018858072 -0.0034174416)
(104.95132 -0.00021363671 -0.0026149175)
(96.081172 -0.00050672237 -0.0019525583)
(96.14722 -0.00055315761 -0.0020315447)
(104.98868 -0.00025449986 -0.0027343721)
(108.27792 0.00016724077 -0.0035822048)
(110.09234 0.00048482038 -0.0041466121)
(118.02132 0.0014434845 -0.0049610643)
(118.02818 0.0019147333 -0.0060096527)
(110.11422 0.00056305902 -0.0043995211)
(108.30507 0.00021216919 -0.0037624119)
(105.02851 -0.00022655771 -0.0028525717)
(96.216251 -0.00052594695 -0.0020892075)
(96.289212 -0.00049206768 -0.0021561709)
(105.07155 -0.00018440155 -0.0029892261)
(108.33522 0.00027927975 -0.0039801865)
(110.13898 0.00067245046 -0.0047106887)
(118.03756 0.0024996073 -0.0072925803)
(118.04993 0.00324291 -0.0088427971)
(110.16754 0.00090663179 -0.0050675094)
(108.36925 0.00046852947 -0.0042124875)
(105.11883 -2.123747e-05 -0.0031146432)
(96.366923 -0.00034080567 -0.0021963728)
(96.450664 -0.00015292081 -0.0022375137)
(105.17149 0.00020979635 -0.0032610657)
(108.40836 0.00074266119 -0.0044937469)
(110.20095 0.0012366435 -0.0055069384)
(118.0658 0.0041602013 -0.010706169)
(118.08576 0.0052747038 -0.012942498)
(110.24046 0.0016282306 -0.0060633909)
(108.45383 0.0010587575 -0.0048518361)
(105.23096 0.00045130399 -0.0034570794)
(96.541648 -2.4803038e-06 -0.0023181134)
(96.641507 0.00010198961 -0.0024569426)
(105.29879 0.00067113964 -0.0037369982)
(108.50725 0.0013872369 -0.0053320649)
(110.28749 0.0020583941 -0.0067848293)
(118.11042 0.0066203146 -0.015602727)
(118.14054 0.0081831493 -0.018731543)
(110.3436 0.0025440272 -0.0076708864)
(108.57023 0.0017459851 -0.0059256194)
(105.37672 0.00090787877 -0.0040791726)
(96.751804 0.00022938664 -0.0026185578)
(96.874432 0.00032488311 -0.0028225617)
(105.46662 0.0011341406 -0.0045106549)
(108.64462 0.0021170019 -0.0066570678)
(110.41046 0.0030704457 -0.0087493093)
(118.17689 0.0099964955 -0.022395137)
(118.22043 0.012116429 -0.0266587)
(110.48994 0.0037551515 -0.0099877574)
(108.73238 0.0026224441 -0.0074817106)
(105.57057 0.0014768656 -0.0049761544)
(97.011368 0.00052725228 -0.0030083712)
(97.165081 0.00079032052 -0.0032304793)
(105.69097 0.0019006405 -0.005524894)
(108.83584 0.0032366439 -0.0084557742)
(110.58419 0.0045807331 -0.011446269)
(118.27224 0.014620487 -0.031654505)
(118.33366 0.017576407 -0.037554445)
(110.69578 0.0056153498 -0.013158149)
(108.95772 0.0040268627 -0.0095888282)
(105.83072 0.0024743477 -0.0061488854)
(97.33846 0.0011815799 -0.0034554357)
(97.53531 0.0017636881 -0.003672132)
(105.99348 0.0032618342 -0.0068550792)
(109.10151 0.0050615285 -0.010913868)
(110.82793 0.0069325547 -0.015183292)
(118.40637 0.021105039 -0.044602389)
(118.49242 0.025367959 -0.053152944)
(110.9849 0.0086035849 -0.017647752)
(109.27173 0.0063951045 -0.012514948)
(106.1841 0.0043007148 -0.0076908979)
(97.760531 0.0025529012 -0.0038946168)
(98.020725 0.003646842 -0.0041210924)
(106.409 0.0057037039 -0.008704666)
(109.47445 0.008159316 -0.014496948)
(111.17227 0.010777826 -0.020715944)
(118.59443 0.030601268 -0.063699928)
(118.71565 0.037095986 -0.076944556)
(111.39757 0.013583343 -0.02467741)
(109.71776 0.010448005 -0.017059555)
(106.67683 0.007534857 -0.010011748)
(98.324561 0.0050906156 -0.0043938076)
(98.683988 0.0067871164 -0.0048307787)
(106.9995 0.0097320295 -0.011823729)
(110.01289 0.013251166 -0.020526134)
(111.67118 0.01706298 -0.029963934)
(118.8606 0.045168318 -0.093804955)
(119.03496 0.055243328 -0.1151601)
(112.00644 0.021333257 -0.037050142)
(110.37429 0.016626646 -0.02525476)
(107.39237 0.012303899 -0.014364838)
(99.114748 0.0087416236 -0.0055168616)
(99.63529 0.011206056 -0.0064500544)
(107.87395 0.015495326 -0.017893018)
(110.81937 0.02089407 -0.031778487)
(112.4193 0.02679431 -0.046711747)
(119.24411 0.067724487 -0.14206244)
(119.49858 0.081924561 -0.17555439)
(112.93519 0.034861777 -0.060079242)
(111.37563 0.027327606 -0.0407798)
(108.47331 0.020563886 -0.022612618)
(100.27285 0.015200524 -0.0076394104)
(101.07885 0.021101323 -0.0092927561)
(109.23701 0.029959961 -0.027968278)
(112.08595 0.038945716 -0.051530421)
(113.59436 0.0480168 -0.076446387)
(119.82427 0.097380209 -0.21305805)
(120.22892 0.12340898 -0.26154993)
(114.41238 0.072008362 -0.094327132)
(112.96719 0.060226862 -0.062002483)
(110.18386 0.046782159 -0.033083478)
(102.09296 0.027890119 -0.010921174)
(103.25887 0.031380749 -0.011041166)
(111.29812 0.077939554 -0.040983768)
(114.02058 0.10298846 -0.077142237)
(115.39136 0.12317598 -0.1257313)
(120.67006 0.20400149 -0.3827371)
(121.50944 0.37220589 -0.61835284)
(116.93354 0.21753916 -0.19795052)
(115.65952 0.18100213 -0.11486689)
(112.98172 0.13360022 -0.053497513)
(104.77334 0.039900884 -0.015489714)
(107.7589 0.11927799 -0.098023627)
(116.24371 0.16568366 0.036256264)
(118.75889 0.22582304 -0.11316079)
(119.82765 0.2775088 -0.21198748)
(123.1346 0.57818302 -1.0092032)
(124.44338 1.1771071 -2.5414736)
(122.62219 0.36453131 -2.5039582)
(121.83924 0.24541138 -2.4778227)
(119.75305 0.09284574 -2.3434472)
(112.11668 0.48913144 -3.0501167)
(110.2355 4.0393506 -7.1544537)
(117.20231 4.2244733 -7.7293794)
(119.30528 4.1398545 -7.7053787)
(120.24865 3.9894839 -7.5404568)
(123.38485 2.8382199 -5.7172002)
(123.13192 3.1016231 -5.6105578)
(120.1062 3.2724532 -5.5509005)
(119.17507 3.2652059 -5.504268)
(116.99089 3.1747903 -5.2660025)
(109.54678 3.2468922 -5.4594046)
(112.1673 3.6178518 -8.2529332)
(119.0719 3.738859 -8.3094882)
(120.96476 3.9869123 -8.3872678)
(121.71477 4.1304343 -8.3320787)
(123.33735 4.1486183 -7.080345)
(122.72892 1.44355 -6.7328591)
(119.66572 2.2554555 -7.6686985)
(118.64234 2.3971568 -7.7706592)
(116.43821 2.5154348 -7.6810489)
(109.22613 2.6178712 -7.4367811)
(111.45317 0.54765703 -8.430525)
(118.15093 0.73347618 -8.8057275)
(120.11171 0.7885094 -8.6899864)
(120.96412 0.80204271 -8.4117655)
(123.42055 0.81521698 -6.4141196)
(124.50824 0.36176435 -2.7056028)
(123.20468 0.51892006 -2.7934821)
(122.51182 0.537624 -2.7771577)
(120.57932 0.53664509 -2.6584502)
(113.21579 0.66060951 -3.3850362)
(109.1061 0.19334919 -0.23021529)
(117.2772 0.14211388 -0.021012843)
(119.62594 0.13814791 -0.15657178)
(120.59532 0.12937266 -0.24145138)
(123.15168 0.12716958 -0.92708141)
(121.42212 0.056453152 -0.56492468)
(117.60339 -0.010500905 -0.23600019)
(116.40041 -0.019951911 -0.15993076)
(113.85448 -0.026147826 -0.08847057)
(105.89367 -0.025446695 -0.050978038)
(104.27508 -0.071791027 -0.034398217)
(112.0896 -0.064823124 -0.07399701)
(114.70758 -0.05485077 -0.11176456)
(116.02614 -0.042420381 -0.15730414)
(120.53721 0.027682403 -0.3598338)
(120.10051 0.019328797 -0.2501048)
(115.07392 -0.045762444 -0.11715918)
(113.67049 -0.057974975 -0.086902568)
(110.97551 -0.069771553 -0.059356561)
(103.07427 -0.078840126 -0.035612236)
(102.05402 -0.073528044 -0.031402289)
(110.05172 -0.063974346 -0.048086129)
(112.82561 -0.052421477 -0.070931262)
(114.29835 -0.041168309 -0.094507405)
(119.70376 0.018301507 -0.20601611)
(119.38265 0.016029237 -0.17191942)
(113.68391 -0.036678901 -0.075907488)
(112.1574 -0.046634788 -0.057200496)
(109.32237 -0.057091129 -0.039115895)
(101.26167 -0.06609281 -0.026017292)
(100.64744 -0.058245318 -0.021628098)
(108.75978 -0.050194981 -0.032069752)
(111.64161 -0.041065692 -0.046198379)
(113.20887 -0.032524775 -0.060975476)
(119.12999 0.013023506 -0.14135929)
(118.92116 0.010381862 -0.11586476)
(112.8317 -0.02805097 -0.049525479)
(111.23309 -0.035224914 -0.037690654)
(108.31361 -0.042977243 -0.026431156)
(100.15454 -0.050195861 -0.018013146)
(99.752815 -0.042809587 -0.015086457)
(107.95384 -0.036580873 -0.021934216)
(110.90447 -0.030033873 -0.031057886)
(112.52774 -0.024000845 -0.040663681)
(118.74692 0.0082218363 -0.095387636)
(118.60169 0.0065807531 -0.079058143)
(112.28106 -0.020495064 -0.033734357)
(110.63797 -0.025560696 -0.025876448)
(107.66093 -0.03106536 -0.018398294)
(99.421234 -0.03631511 -0.012766898)
(99.142867 -0.030649521 -0.010827843)
(107.41918 -0.026267182 -0.015509713)
(110.41926 -0.021647977 -0.021724453)
(112.07865 -0.017392235 -0.028221794)
(118.47991 0.0053978894 -0.06597293)
(118.37727 0.0044949178 -0.055410089)
(111.9107 -0.014724031 -0.023888998)
(110.23762 -0.018309279 -0.018473883)
(107.21695 -0.022196854 -0.013253017)
(98.90551 -0.025862175 -0.0092946134)
(98.700534 -0.021856312 -0.008057421)
(107.04599 -0.018779032 -0.011429152)
(110.08545 -0.015495533 -0.015848065)
(111.7703 -0.012469389 -0.020386439)
(118.29058 0.0037522567 -0.046744557)
(118.21727 0.0031245285 -0.03951347)
(111.65225 -0.01054167 -0.017449904)
(109.95712 -0.013093527 -0.013631609)
(106.90023 -0.015873297 -0.0098705086)
(98.521471 -0.018472297 -0.0069956992)
(98.363616 -0.01562778 -0.0061157023)
(106.77511 -0.013412706 -0.0085789075)
(109.84842 -0.011052443 -0.011788162)
(111.55265 -0.0089048503 -0.015001268)
(118.15527 0.0025746102 -0.033423925)
(118.10293 0.0020885043 -0.028224907)
(111.46857 -0.0074884676 -0.012899633)
(109.75618 -0.0092857969 -0.010198134)
(106.66727 -0.011292268 -0.0074585712)
(98.223425 -0.013200056 -0.0053532562)
(98.098184 -0.011129314 -0.0047363793)
(106.57402 -0.0094656236 -0.0065443486)
(109.67787 -0.0077570288 -0.0088825274)
(111.39762 -0.0062625426 -0.011144942)
(118.05892 0.0016628266 -0.023789557)
(118.02214 0.0012986276 -0.019969762)
(111.33794 -0.0051783342 -0.0096457863)
(109.61145 -0.006408856 -0.0077577343)
(106.49326 -0.0078613406 -0.0057629074)
(97.985719 -0.0093227692 -0.0042148483)
(97.884129 -0.0077072835 -0.0037209242)
(106.42301 -0.0064189648 -0.0050377395)
(109.55508 -0.005190969 -0.0067474667)
(111.28777 -0.0041941998 -0.0083226453)
(117.99166 0.00099381972 -0.016665468)
(117.96665 0.00073108705 -0.013847019)
(111.24563 -0.0033231639 -0.0072249177)
(109.50713 -0.0041163579 -0.0059101565)
(106.36162 -0.0051487774 -0.0044345985)
(97.791724 -0.0062912936 -0.0033025499)
(97.707095 -0.0050499739 -0.002947868)
(106.30753 -0.0040468254 -0.0039321908)
(109.46613 -0.0031885582 -0.0052214105)
(111.21011 -0.002568661 -0.0063236999)
(117.94642 0.00051493697 -0.011463023)
(117.93032 0.00034041414 -0.0094679041)
(111.18006 -0.0019457077 -0.0055946384)
(109.43078 -0.0024241773 -0.0046614266)
(106.25944 -0.0031265548 -0.003515699)
(97.628864 -0.0039854339 -0.0026462864)
(97.555882 -0.0031063732 -0.0023803356)
(106.21603 -0.0023947168 -0.0031586181)
(109.39988 -0.0018269592 -0.0041977271)
(111.1543 -0.0014590757 -0.0049985384)
(117.91776 0.00020470005 -0.0078096555)
(117.90821 9.2364819e-05 -0.0064722304)
(111.132 -0.0011387671 -0.004583443)
(109.37248 -0.0014306089 -0.0038891247)
(106.1764 -0.0018911842 -0.0029312825)
(97.487104 -0.002463323 -0.002208676)
(97.421801 -0.0020214801 -0.0020695435)
(106.13962 -0.0015669425 -0.002745011)
(109.3478 -0.0011851748 -0.0036431425)
(111.11235 -0.00094270039 -0.0042567154)
(117.90121 1.1799788e-06 -0.0053907091)
(117.89632 -6.6860489e-05 -0.0045254076)
(111.09482 -0.00083634112 -0.0040095467)
(109.32522 -0.0010514659 -0.0034592535)
(106.10516 -0.0013827534 -0.0026076066)
(97.359242 -0.0017555608 -0.0019681824)
(97.299063 -0.001611477 -0.0018909894)
(106.07246 -0.0012879081 -0.0025003233)
(109.30429 -0.00098489873 -0.0033145242)
(111.0789 -0.00078585063 -0.0038145576)
(117.89316 -0.00012696559 -0.0038175269)
(117.89146 -0.00015504193 -0.0032195347)
(111.06436 -0.00075015274 -0.0036587911)
(109.28471 -0.00094425353 -0.0031976071)
(106.0413 -0.0012323268 -0.0024152465)
(97.24082 -0.0015243271 -0.0018306645)
(97.184377 -0.0014717721 -0.0017826384)
(106.0113 -0.0011966119 -0.002345313)
(109.26619 -0.00091558133 -0.0031015691)
(111.05084 -0.00072644423 -0.0035320279)
(117.89092 -0.00017279056 -0.0028023039)
(117.89127 -0.00018492724 -0.0024735435)
(111.03822 -0.00068330972 -0.0034116593)
(109.24858 -0.00086324892 -0.0030063436)
(105.98243 -0.0011359318 -0.0022741394)
(97.129422 -0.0014016505 -0.0017330282)
(97.076044 -0.0013145113 -0.0016779022)
(105.95451 -0.0010588922 -0.0022042201)
(109.23181 -0.00079564399 -0.0029230436)
(111.02636 -0.00062486869 -0.0033148104)
(117.89228 -0.00018427109 -0.0022261498)
(117.89377 -0.00019159356 -0.0019476169)
(111.01479 -0.00055226535 -0.003108594)
(109.21528 -0.00070565457 -0.0027499203)
(105.92707 -0.00095023875 -0.002068456)
(97.023648 -0.001192853 -0.0015772668)
(97.255653 0.00072914246 -0.0013261111)
(106.14049 0.0012696482 -0.0014557977)
(109.41423 0.0018878597 -0.0017477816)
(111.20566 0.0021945841 -0.0018762353)
(117.91566 0.0011737619 -0.0007093856)
(117.91414 0.0013650308 -0.00096820759)
(111.21676 0.00221605 -0.0020953188)
(109.43016 0.0018664946 -0.0019458824)
(106.16721 0.0012022938 -0.0016337604)
(97.306857 0.00062873274 -0.0014939007)
(97.359434 0.00054004679 -0.0016716502)
(106.19444 0.001133366 -0.0018096281)
(109.44645 0.0018175902 -0.002117088)
(111.22818 0.0021855218 -0.0022637469)
(117.91313 0.0015213852 -0.0011784224)
(117.91277 0.0017437317 -0.0014491022)
(111.24045 0.0021781425 -0.0024582322)
(109.46361 0.0017833872 -0.0023045957)
(106.22277 0.0010735014 -0.0019952282)
(97.413481 0.00045510977 -0.0018501206)
(97.46923 0.00039188763 -0.0019991483)
(106.25216 0.0010315177 -0.0021541951)
(109.48173 0.0017664222 -0.0024703012)
(111.25359 0.0021898569 -0.0026303826)
(117.9133 0.0020398774 -0.0017505323)
(117.91495 0.0024511846 -0.0020793088)
(111.26783 0.0022338899 -0.0027911302)
(109.50091 0.0017723251 -0.0026239082)
(106.28283 0.0010064618 -0.0023009162)
(97.526633 0.00034034332 -0.0021358358)
(97.586113 0.00030988816 -0.0022552383)
(106.31495 0.0010060077 -0.0024364908)
(109.52145 0.0018067318 -0.0027749185)
(111.28337 0.0023118996 -0.0029585802)
(117.91802 0.0029846345 -0.0024829415)
(117.92285 0.0036638567 -0.0029712893)
(111.30061 0.0024231374 -0.003123134)
(109.54365 0.0018617741 -0.002910916)
(106.34894 0.0010191468 -0.002550226)
(97.64788 0.0002928653 -0.0023501918)
(97.712521 0.0003007713 -0.0025033978)
(106.38517 0.0010920074 -0.0027250087)
(109.56797 0.0019958423 -0.0031072533)
(111.31992 0.0026287064 -0.0033486613)
(117.92976 0.0045481833 -0.0035793226)
(117.9392 0.005648952 -0.0042862427)