/*--------------------------------*- C++ -*----------------------------------*\
  =========                 |
  \\      /  F ield         | OpenFOAM: The Open Source CFD Toolbox
   \\    /   O peration     | Website:  https://openfoam.org
    \\  /    A nd           | Version:  7
     \\/     M anipulation  |
\*---------------------------------------------------------------------------*/
FoamFile
{
    version     2.0;
    format      ascii;
    class       volScalarField;
    location    "450";
    object      nut;
}
// * * * * * * * * * * * * * * * * * * * * * * * * * * * * * * * * * * * * * //

dimensions      [0 2 -1 0 0 0 0];

internalField   nonuniform List<scalar> 
24789
(
0.0012047946
0.0061716622
0.014964016
0.025686469
0.33497404
0.33694559
0.02585466
0.015064706
0.0062112084
0.0012075908
0.0012104634
0.0062516576
0.015167439
0.026026275
0.33896979
0.34104839
0.026201988
0.015272668
0.0062931059
0.0012134214
0.0012164691
0.006335587
0.015380291
0.026381695
0.3431852
0.3453833
0.026565924
0.015490668
0.0063791859
0.0012196134
0.0012228599
0.00642394
0.015603767
0.026754695
0.34764687
0.34997945
0.026948439
0.015719871
0.0064699244
0.0012262161
0.0012296901
0.0065171954
0.015839047
0.027147314
0.35238639
0.35487216
0.027351626
0.015961505
0.0065658295
0.0012332895
0.0012370221
0.0066158923
0.016087416
0.02756172
0.35744289
0.36010387
0.027777883
0.016216966
0.0066674667
0.0012408988
0.0012449308
0.0067206275
0.016350395
0.028000585
0.36286213
0.36572471
0.028230033
0.016487838
0.006775461
0.0012491301
0.001253511
0.0068320509
0.016629612
0.028466808
0.36870058
0.37179839
0.02871118
0.016775863
0.0068904921
0.0012580891
0.0012628835
0.0069508726
0.01692699
0.028963918
0.37502947
0.37840577
0.029225204
0.017083072
0.00701327
0.0012679152
0.0012732107
0.0070777778
0.017244563
0.029495917
0.38194239
0.38565591
0.029776369
0.017411559
0.0071444525
0.0012787991
0.001284717
0.0072133537
0.017584536
0.03006761
0.38956809
0.39370532
0.03037001
0.017763559
0.0072845028
0.0012910085
0.0012977285
0.0073578814
0.017949044
0.030684671
0.39810151
0.40280038
0.031012032
0.018140948
0.0074333987
0.0013049433
0.0013127404
0.007510882
0.01833953
0.031353234
0.40786115
0.41336385
0.031708517
0.018544419
0.0075900149
0.0013212282
0.0013305436
0.0076703051
0.018755076
0.032077956
0.41941793
0.42617706
0.032460068
0.018970016
0.0077509779
0.0013408951
0.0013526077
0.0078310609
0.019188049
0.032853229
0.43386158
0.4427669
0.033254639
0.019408005
0.007909566
0.001366065
0.0013826411
0.0079921213
0.019632852
0.033675494
0.45339359
0.46717538
0.034252727
0.019936222
0.0081049366
0.0014066419
0.001441307
0.0082607482
0.020506606
0.035315424
0.4863622
0.51546824
0.037322251
0.021768562
0.0087990959
0.0014808731
0.0015065806
0.009076301
0.022285565
0.03791785
0.53636445
0.55301523
0.040384687
0.023695882
0.0096208307
0.0015341287
0.001522077
0.010067017
0.025103673
0.043145871
0.55175432
0.58993594
0.037191758
0.022296933
0.0091821702
0.0015003902
0.0014660882
0.0087593333
0.021368715
0.036105259
0.58225388
0.56153054
0.033021751
0.019493744
0.0079492308
0.0014172614
0.0013771637
0.007607704
0.018572233
0.031555735
0.53968633
0.52278613
0.030786804
0.018117993
0.0074543392
0.0013437889
0.0013213618
0.00735156
0.017869943
0.030352063
0.5092682
0.49809949
0.030015791
0.017683419
0.0072778706
0.0013057493
0.0012929828
0.007209618
0.017500585
0.029684698
0.48839022
0.47980633
0.029348944
0.017313681
0.0071402964
0.0012819988
0.0012723206
0.0070687959
0.017123873
0.029013185
0.47213178
0.46517759
0.028681228
0.016933169
0.0069958653
0.0012635797
0.0012555746
0.0069229393
0.016744888
0.028357593
0.45881194
0.45293782
0.028044559
0.016560996
0.0068510085
0.0012481944
0.0012413554
0.006780714
0.016382767
0.027743427
0.4474807
0.44238162
0.027453902
0.016210474
0.0067124181
0.0012349884
0.0012290369
0.0066462703
0.016044332
0.027175902
0.43759347
0.43307705
0.026908394
0.015883979
0.0065823023
0.0012234512
0.0012181888
0.0065204922
0.015729371
0.026651122
0.42880175
0.42474119
0.02640306
0.015580059
0.0064607902
0.0012132146
0.0012084992
0.0064031059
0.015435917
0.026163928
0.4208746
0.41718296
0.025932801
0.015296488
0.0063473482
0.0012040146
0.0011997411
0.0062934395
0.015161682
0.025709545
0.41365142
0.41026547
0.025493333
0.015031086
0.0062412691
0.0011956579
0.0011917499
0.006190766
0.014904577
0.02528398
0.40701415
0.40388619
0.025080865
0.014781833
0.0061418281
0.0011880026
0.0011844025
0.0060943805
0.014662728
0.024883842
0.40087312
0.39796601
0.024692417
0.014547029
0.0060483569
0.00118094
0.0011776043
0.0060036615
0.014434545
0.024506346
0.3951579
0.39244231
0.024325294
0.014325134
0.0059602509
0.0011743874
0.0011712813
0.0059180325
0.014218579
0.024148976
0.38981285
0.38726403
0.023977231
0.014114822
0.0058769674
0.0011682781
0.0011653712
0.0058369832
0.014013608
0.023809691
0.38479093
0.38238871
0.023646337
0.013914968
0.0057980467
0.0011625555
0.001159825
0.0057600773
0.013818559
0.023486662
0.38005295
0.37777825
0.023330699
0.013724435
0.0057230247
0.0011571737
0.0011545923
0.0056868883
0.013632339
0.023178033
0.37556437
0.3778756
0.023335478
0.013727342
0.0057241699
0.0011572332
0.0011598921
0.0057613088
0.01382168
0.023491799
0.38015496
0.38249866
0.023651868
0.01391833
0.0057993769
0.0011626299
0.0011654511
0.0058384035
0.014017182
0.023815584
0.38490934
0.38739157
0.023983518
0.014118642
0.0058784868
0.0011683632
0.001171372
0.0059196564
0.014222651
0.024155673
0.38995068
0.39259262
0.024332486
0.014329511
0.0059619962
0.0011744856
0.0011777103
0.0060055511
0.014439257
0.024514078
0.39532301
0.39814794
0.024700786
0.014552126
0.0060504014
0.0011810545
0.0011845272
0.0060966129
0.014668275
0.024892943
0.40107482
0.40411098
0.025090811
0.014787891
0.0061442688
0.0011881383
0.0011918989
0.0061934395
0.014911194
0.02529482
0.40726522
0.41054702
0.025505241
0.015038366
0.0062442227
0.0011958216
0.001199921
0.006296703
0.015169723
0.025722687
0.41396763
0.41753898
0.025947366
0.015305393
0.0063509712
0.0012042132
0.0012087173
0.0064071234
0.015445767
0.026180003
0.42127541
0.42519261
0.026420881
0.015590987
0.0064652553
0.0012134549
0.0012184526
0.0065254755
0.015741535
0.026670931
0.42930956
0.43364765
0.026930433
0.015897518
0.0065878597
0.0012237401
0.0012293525
0.0066524849
0.016059418
0.027200375
0.43823281
0.44309485
0.027481061
0.016227249
0.0067193472
0.0012353292
0.0012417198
0.0067884251
0.01640137
0.027773444
0.4482714
0.4538069
0.028077584
0.016581518
0.0068595395
0.0012485786
0.0012559708
0.0069323176
0.016767359
0.028393606
0.45975726
0.46619098
0.028719891
0.01695739
0.0070060304
0.001263973
0.0012726885
0.0070795461
0.017149225
0.029053417
0.47319661
0.48089367
0.029388344
0.017338795
0.0071512447
0.0012823063
0.0012931941
0.0072199805
0.017522713
0.02971861
0.4894556
0.49908691
0.03003762
0.017698717
0.0072865606
0.0013058949
0.0013214918
0.0073569257
0.017871923
0.03035173
0.51007395
0.52322593
0.030754377
0.018096282
0.0074523251
0.0013437746
0.0013787096
0.0076302533
0.018575796
0.031575601
0.54036287
0.56295456
0.033263962
0.01960653
0.0079730325
0.0014227634
0.0014599921
0.008787625
0.021477305
0.036592673
0.5835932
0.59164804
0.034876887
0.021087797
0.0087452544
0.0014661004
0.0015062612
0.009950469
0.024834209
0.042573993
0.55251331
0.55997902
0.039870084
0.023121534
0.0093481328
0.0014976271
0.0015204116
0.0096230113
0.023977578
0.04153389
0.53787464
0.51409476
0.037404368
0.021902745
0.0088293722
0.001487319
0.0014412438
0.0083444629
0.020495902
0.035070372
0.48838892
0.46970267
0.033848519
0.019791947
0.0080922473
0.001401955
0.0013757081
0.0079427109
0.019429851
0.033212067
0.4559198
0.44492457
0.032750602
0.01916658
0.0078383252
0.0013576402
0.0013433058
0.0077483018
0.018930041
0.032332309
0.43565842
0.42765676
0.031930792
0.018703245
0.0076624117
0.0013312693
0.0013208169
0.0075777397
0.018481617
0.03154176
0.42061509
0.41430952
0.031165691
0.018265101
0.0074942071
0.0013114733
0.0013029788
0.0074123872
0.018055156
0.030804443
0.40858501
0.40333125
0.030458341
0.01785242
0.0073327036
0.0012951778
0.0012879593
0.0072554536
0.017657273
0.030127293
0.3984664
0.39392872
0.029810189
0.017469466
0.0071807862
0.0012812392
0.001274952
0.0071087378
0.017288917
0.029506453
0.3896723
0.38565976
0.029214759
0.017115061
0.0070392478
0.0012690431
0.0012634701
0.006972262
0.016947736
0.028934611
0.38186288
0.37825728
0.028664791
0.016786352
0.0069076561
0.0012581959
0.0012531895
0.0068453291
0.016630738
0.028404941
0.37482419
0.37154639
0.028153987
0.01648035
0.0067851477
0.0012484238
0.0012438772
0.0067269976
0.016335015
0.027911657
0.36841029
0.36540303
0.027677086
0.016194296
0.0066707674
0.0012395304
0.0012353667
0.0066163526
0.016058043
0.027450071
0.36251469
0.35973537
0.027229886
0.015925889
0.0065636524
0.0012313716
0.0012275325
0.0065125718
0.01579768
0.027016334
0.3570575
0.35447339
0.026808903
0.015673167
0.0064630355
0.0012238378
0.0012202775
0.0064149479
0.015552161
0.026607345
0.35197728
0.34956221
0.026411253
0.01543447
0.006368243
0.001216843
0.001213526
0.0063228359
0.015319884
0.026220339
0.3472235
0.34495605
0.026034411
0.015208329
0.0062786789
0.0012103196
0.0012072166
0.0062356914
0.015099534
0.025853078
0.34275566
0.34061805
0.025676252
0.014993487
0.006193825
0.0012042114
0.0012012966
0.0061529963
0.014889853
0.025503437
0.33853946
0.33651832
0.025334736
0.014788723
0.0061131803
0.0011984679
0.0012077198
0.0062130578
0.015069324
0.025862393
0.33703931
0.33907044
0.026033963
0.015172062
0.0062534671
0.0012105815
0.0012135341
0.0062949114
0.015277193
0.026209537
0.34115744
0.34330279
0.02638963
0.015385073
0.0063374665
0.0012165828
0.0012197313
0.0063811489
0.015495601
0.026574142
0.34551091
0.34778561
0.026763509
0.015609073
0.0064260355
0.0012229855
0.0012263509
0.0064721571
0.015725487
0.026957794
0.35013139
0.35255303
0.027157376
0.015845102
0.0065196015
0.0012298356
0.0012334476
0.0065684296
0.015968041
0.027362509
0.355056
0.35764564
0.027573511
0.016094506
0.0066187234
0.0012371953
0.001241088
0.006670543
0.016224694
0.027790768
0.3603293
0.36311338
0.028014525
0.016358775
0.0067239891
0.001245138
0.0012493582
0.0067791509
0.016497067
0.028245392
0.36600617
0.36901613
0.028483618
0.016639718
0.0068361192
0.001253763
0.0012583685
0.0068950025
0.016787115
0.028729914
0.37215398
0.37543123
0.028984481
0.01693936
0.0069558726
0.0012631937
0.0012682616
0.0070188713
0.01709696
0.029248265
0.37886157
0.38246008
0.029521526
0.017260001
0.007084049
0.0012735962
0.0012792303
0.0071515209
0.017428994
0.02980527
0.38624646
0.39024336
0.030099884
0.017604056
0.0072213402
0.0012852
0.0012915532
0.0072935918
0.017785763
0.030406621
0.39448025
0.3989937
0.03072606
0.017974247
0.0073682949
0.0012983457
0.00130565
0.0074454506
0.01817002
0.031059536
0.40383213
0.40905926
0.031407825
0.018373166
0.0075249784
0.0013135582
0.0013221892
0.0076067451
0.018583995
0.031772162
0.41476144
0.42105373
0.032152591
0.018802063
0.0076904756
0.0013316948
0.0013423121
0.0077757718
0.019026842
0.032548924
0.42809654
0.43611884
0.032961188
0.019258469
0.0078624613
0.0013544265
0.0013685422
0.0079513802
0.019499714
0.033391825
0.44542982
0.45652026
0.03386002
0.019760309
0.0080515472
0.0013861105
0.0014112808
0.0081935423
0.020120112
0.034508555
0.4706997
0.48996836
0.035686481
0.020774858
0.00839128
0.0014479014
0.0014906519
0.0089420643
0.022153754
0.037968899
0.51793993
0.53853994
0.039442154
0.023053233
0.0093534951
0.0015192047
0.0015361731
0.0096919845
0.02385192
0.040645593
0.5564537
0.55630269
0.043602066
0.025353333
0.010149704
0.0015266939
0.42969288
0.053270388
0.029948036
0.01174306
0.0016883886
0.0015860301
0.010392089
0.025798546
0.044806605
0.54446737
0.62226237
0.037340019
0.022384848
0.0092637984
0.0015130645
0.0014929709
0.0092291935
0.022604113
0.038658774
0.57375025
0.56350086
0.040834281
0.023580425
0.0095042465
0.0015071396
0.0015065197
0.0093820851
0.023316205
0.040118569
0.54015822
0.51261187
0.036776369
0.021508728
0.0086880214
0.0014740954
0.0014326364
0.0082365585
0.020241772
0.034702006
0.48585375
0.46738051
0.033631525
0.019642321
0.0080283436
0.0013963696
0.0013720452
0.0079019023
0.019330853
0.033066001
0.45390302
0.44325247
0.032645654
0.019097104
0.0078103846
0.0013551772
0.0013415568
0.0077281662
0.018879874
0.032254722
0.43430253
0.42656366
0.031872037
0.018665953
0.0076475859
0.0013299922
0.0013198642
0.0075665921
0.018453327
0.031496525
0.41973422
0.41359875
0.031130452
0.018243324
0.0074856786
0.00131075
0.0013024189
0.0074057037
0.018038058
0.030776542
0.40800875
0.40286042
0.030435861
0.017838726
0.0073273548
0.001294736
0.0012876057
0.0072511163
0.017646158
0.030108946
0.39807893
0.39360754
0.029794983
0.017460288
0.0071772016
0.0012809523
0.0012747168
0.0071057385
0.017281244
0.029493711
0.389404
0.38543427
0.029203998
0.0171086
0.0070367232
0.0012688489
0.0012633078
0.0069701094
0.016942238
0.028925448
0.38167221
0.37809506
0.028656921
0.016781633
0.0069058035
0.0012580583
0.0012530717
0.0068437121
0.016626627
0.028398081
0.37468535
0.37142674
0.02814796
0.016476737
0.0067837247
0.0012483229
0.0012437903
0.0067257483
0.016331847
0.027906382
0.36830666
0.36531275
0.027672428
0.016191494
0.0066696598
0.0012394548
0.0012353007
0.0066153657
0.016055551
0.027445927
0.36243579
0.35966612
0.027226171
0.015923659
0.0065627696
0.0012313135
0.0012274808
0.0065117815
0.015795683
0.027013007
0.3569967
0.35441951
0.026805887
0.015671354
0.0064623164
0.0012237918
0.0012202362
0.0064142913
0.015550507
0.026604597
0.35192892
0.34951883
0.026408737
0.015432956
0.0063676429
0.0012168054
0.0012134913
0.0063222826
0.01531849
0.026218028
0.34718457
0.34492114
0.026032272
0.015207038
0.0062781673
0.0012102872
0.0012071855
0.0062352142
0.015098329
0.025851083
0.3427245
0.34059055
0.025674387
0.014992361
0.0061933809
0.001204181
0.0012012661
0.0061525821
0.0148888
0.02550169
0.33851591
0.33649891
0.025333077
0.014787724
0.0061127838
0.0011984355
0.0011572061
0.0057234415
0.013725382
0.023332226
0.37780736
0.38007853
0.023488212
0.013819539
0.0057604586
0.0011598505
0.0011625742
0.0057983748
0.013915729
0.023647584
0.38241284
0.38481416
0.023810992
0.014014412
0.0058372917
0.0011653857
0.0011682897
0.0058772474
0.014115498
0.023978368
0.38728692
0.38983565
0.024150162
0.014219302
0.0059183137
0.0011712914
0.0011743969
0.0059605185
0.014325798
0.024326413
0.39246526
0.39518112
0.024507481
0.014435239
0.0060039386
0.001177613
0.0011809473
0.0060486227
0.014547699
0.024693556
0.39798958
0.40089673
0.024884947
0.014663396
0.0060946506
0.0011844088
0.0011880076
0.0061420911
0.014782514
0.025082029
0.40391023
0.40703817
0.025285055
0.014905217
0.006191024
0.0011917541
0.0011956613
0.0062415266
0.015031765
0.025494505
0.41028979
0.41367506
0.025710582
0.01516229
0.0062936843
0.0011997425
0.0012040142
0.0063475744
0.015297127
0.025933938
0.4172057
0.42089431
0.02616482
0.015436407
0.0064032904
0.0012084956
0.0012132085
0.00646092
0.015580529
0.02640398
0.42475641
0.42880884
0.026651624
0.015729578
0.0065205363
0.0012181771
0.0012234307
0.0065822117
0.015884
0.026908678
0.43307249
0.43757096
0.02717541
0.016043837
0.0066459725
0.0012290039
0.0012349388
0.0067118331
0.016209469
0.027452725
0.44233439
0.44739788
0.02774078
0.016380759
0.0067796915
0.001241281
0.0012480867
0.0068493603
0.01655774
0.028040162
0.45280693
0.45861624
0.028350183
0.016739541
0.0069203565
0.0012554183
0.0012633539
0.0069918715
0.016924824
0.028669595
0.4648979
0.47174775
0.028994955
0.017110826
0.0070626803
0.0012719985
0.001281548
0.0071311885
0.017294026
0.029321515
0.4793025
0.4877638
0.02964412
0.017471382
0.0071963409
0.0012923627
0.001304935
0.0072589931
0.017641456
0.029958018
0.49738358
0.50854951
0.03027109
0.017810095
0.0073247651
0.0013202797
0.0013421981
0.0074171416
0.018032537
0.030674858
0.52226528
0.54000556
0.031416698
0.018462423
0.0075680343
0.0013752763
0.0014156679
0.0078855677
0.019318804
0.032751124
0.56294306
0.58427702
0.035173919
0.020935238
0.0086233487
0.0014611105
0.0015033873
0.0092347114
0.02239026
0.037257156
0.59271116
0.55376605
0.044800682
0.025887556
0.010383909
0.0015457538
0.001551419
0.0098211168
0.024235019
0.041355208
0.55454589
0.53667894
0.037250301
0.021981192
0.0089738775
0.0015065713
0.0014875094
0.0089063112
0.022063017
0.037972459
0.51562068
0.48678144
0.03553145
0.020638999
0.0083088678
0.0014463022
0.001409608
0.0081359898
0.020002262
0.0343418
0.46756915
0.45350163
0.033700425
0.019653622
0.008002877
0.0013842938
0.0013668731
0.0079118321
0.019411702
0.033256909
0.44272202
0.43375797
0.032849179
0.019186373
0.0078306166
0.0013529872
0.0013410661
0.0077497117
0.018967268
0.03245536
0.42606292
0.41931284
0.032073839
0.018752424
0.0076689638
0.0013306152
0.0013212546
0.0075888647
0.018542329
0.031705452
0.41327514
0.40778985
0.031350839
0.018337855
0.0075099678
0.0013127467
0.0013049418
0.0074327099
0.018139793
0.031010464
0.40274581
0.39806082
0.03068345
0.017948143
0.0073573749
0.0012977239
0.0012910047
0.0072841515
0.01776303
0.03036937
0.39367659
0.38954819
0.03006709
0.017584119
0.0072131116
0.0012847135
0.0012787972
0.0071443064
0.017411404
0.029776265
0.38564345
0.38193501
0.029495808
0.017244443
0.0070777013
0.0012732105
0.0012679162
0.0070132479
0.017083136
0.029225397
0.37840301
0.37502935
0.028963986
0.016927001
0.0069508692
0.0012628837
0.0012580896
0.0068905113
0.016775987
0.028711453
0.3718007
0.36870386
0.028466953
0.016629681
0.0068320812
0.0012535115
0.001249131
0.0067754967
0.016487972
0.028230313
0.36572919
0.36286694
0.028000767
0.01635049
0.0067206678
0.0012449315
0.0012408994
0.0066675099
0.016217105
0.027778164
0.36010952
0.3574488
0.027561951
0.016087547
0.0066159454
0.0012370227
0.0012332904
0.0065658854
0.015961657
0.027351919
0.35487886
0.35239325
0.027147627
0.015839231
0.0065172665
0.0012296924
0.0012262196
0.0064700006
0.015720058
0.026948782
0.34998672
0.34765427
0.026755124
0.015604024
0.0064240343
0.0012228641
0.0012196187
0.0063792838
0.015490893
0.026566319
0.34539098
0.34319308
0.026382277
0.01538065
0.0063357163
0.0012164772
0.0012134337
0.0062932585
0.015273004
0.026202551
0.34105609
0.33897669
0.026027193
0.015168011
0.0062518709
0.0012104833
0.0012076193
0.0062114698
0.015065286
0.025855615
0.3369516
0.33704912
0.025860696
0.015068301
0.0062126109
0.0012076619
0.0012105459
0.0062531812
0.015171316
0.026032759
0.33907595
0.34116001
0.026208932
0.015276834
0.006294751
0.0012135135
0.0012165693
0.0063373561
0.015384749
0.02638911
0.34330371
0.34551135
0.026573841
0.015495431
0.0063810801
0.0012197209
0.0012229752
0.0064259673
0.015608854
0.026763152
0.34778573
0.35013123
0.026957502
0.015725328
0.0064721062
0.0012263404
0.0012298236
0.0065195546
0.015844921
0.027157066
0.35255277
0.35505542
0.027362158
0.015967855
0.0065683845
0.0012334332
0.0012371783
0.0066186805
0.01609432
0.027573171
0.35764508
0.36032832
0.027790376
0.016224506
0.0066705236
0.0012410688
0.0012451158
0.0067239842
0.016358627
0.028014201
0.36311229
0.36600461
0.028244935
0.016496871
0.0067791641
0.001249331
0.0012537296
0.0068361577
0.016639585
0.028483244
0.36901438
0.37215109
0.028729322
0.016786892
0.0068950587
0.0012583264
0.0012631407
0.0069559666
0.016939206
0.028983945
0.37542672
0.3788534
0.029247356
0.017096633
0.0070189659
0.0012681931
0.0012735083
0.0070841631
0.017259656
0.029520491
0.38244664
0.3862239
0.029803622
0.017428359
0.0071516265
0.0012791151
0.0012850494
0.0072214248
0.017603231
0.030097772
0.39020753
0.39442389
0.030403371
0.017784365
0.007293594
0.0012913531
0.001298079
0.0073681535
0.017972211
0.030721529
0.39890728
0.40370089
0.03105262
0.018166704
0.0074450082
0.0013052906
0.001313073
0.0075240203
0.018368069
0.031397651
0.40886366
0.41447448
0.031756655
0.018575887
0.0076049104
0.0013215336
0.0013308173
0.0076872494
0.018789536
0.03212936
0.42064167
0.42751923
0.032514228
0.019007682
0.0077704968
0.0013411628
0.0013529873
0.0078546319
0.019230423
0.0329111
0.43533468
0.44440729
0.033323214
0.019461
0.0079415457
0.0013668881
0.0013842267
0.0080401163
0.019711948
0.033773002
0.45524623
0.46915288
0.034396523
0.020056968
0.0081801592
0.0014092462
0.001446993
0.0084022846
0.020712656
0.035574382
0.48848409
0.51674037
0.037865774
0.022106962
0.0089222337
0.0014899283
0.0015169042
0.009401281
0.023179386
0.039847818
0.53818178
0.55550706
0.039311191
0.023150525
0.0094507319
0.0015144187
1.3057216
2.2731376
1.6525499
0.59449651
0.037314742
0.022377087
0.0092067703
0.0015038432
0.0015215336
0.0096528103
0.024018915
0.04168638
0.56122361
0.0016612368
0.011409083
0.02898227
0.051359766
0.4272835
0.3711973
0.048529437
0.027385221
0.010786987
0.0015996955
0.0016106252
0.010781023
0.027437049
0.048684964
0.37002375
0.49226138
0.046537205
0.026492269
0.010566613
0.001579488
0.89252508
1.0683398
2.08534
1.6600977
6.9598821
7.0385158
7.0132637
6.9598459
6.9138606
6.964743
6.9714036
6.9255122
0.0011984797
0.0061134143
0.014789341
0.025335896
0.33650594
0.33852544
0.025504286
0.014890337
0.0061531514
0.0012013019
0.0012042106
0.0061938928
0.014993647
0.025676557
0.34060114
0.34273432
0.025853192
0.015099622
0.0062357065
0.001207212
0.001210311
0.0062786217
0.015208169
0.026034129
0.34492957
0.34719083
0.026219823
0.015319616
0.0063227243
0.0012135137
0.001216826
0.0063680462
0.015433965
0.026410362
0.34952264
0.35192953
0.026606105
0.015551472
0.0064146777
0.001220256
0.0012238105
0.0064626737
0.015672251
0.026807303
0.35441728
0.35699104
0.02701426
0.015796509
0.0065121212
0.001227499
0.0012313307
0.0065630837
0.015924442
0.027227379
0.35965741
0.36242317
0.027446876
0.016056207
0.0066156499
0.0012353162
0.0012394688
0.0066699194
0.016192128
0.027673344
0.36529642
0.36828543
0.02790701
0.016332337
0.0067259808
0.0012438025
0.0012483328
0.0067839353
0.016477211
0.028148582
0.37140081
0.37465387
0.028398279
0.016626882
0.006843878
0.0012530777
0.0012580604
0.0069059371
0.016781839
0.02865702
0.37805858
0.38163041
0.02892513
0.016942227
0.0069702087
0.0012633047
0.0012688416
0.0070368165
0.017108586
0.029203649
0.38538871
0.38935571
0.029492959
0.017281041
0.0071058324
0.0012747047
0.0012809366
0.0071773332
0.017460126
0.029794232
0.39356022
0.39803755
0.030107964
0.017645932
0.007251329
0.0012875877
0.0012947198
0.007327756
0.017838786
0.030435206
0.40283381
0.4080098
0.030776206
0.018038445
0.0074064076
0.001302411
0.0013107655
0.0074869415
0.01824468
0.031131394
0.41364873
0.41986473
0.031499893
0.01845645
0.007568854
0.00131993
0.0013301597
0.0076517101
0.018672958
0.031881038
0.42682267
0.43475791
0.032275138
0.018894477
0.0077356304
0.0013419016
0.0013557676
0.0078237645
0.019126074
0.032688661
0.44398955
0.45506654
0.033155551
0.019387503
0.0079255131
0.0013730288
0.0013982354
0.0080724148
0.019768387
0.033835695
0.46937446
0.48878536
0.035087236
0.02046808
0.0082885929
0.0014344557
0.0014716027
0.0088630279
0.021869518
0.037428477
0.51625048
0.53831758
0.038367584
0.022498888
0.0091234605
0.0014915949
0.0015179401
0.0096181623
0.023953218
0.041575976
0.55759164
0.037809281
0.022631482
0.0093882554
0.0015206888
0.0014955873
0.0089095907
0.021337158
0.035445844
0.60965072
0.52784742
0.040410355
0.023400794
0.0094731001
0.0015429517
0.0015668863
0.010408896
0.026145434
0.046260642
0.48575743
0.56702309
0.039250486
0.02282189
0.0093222162
0.0014924006
0.0015179315
0.0096176888
0.02395229
0.041574686
0.55771013
0.53838833
0.038367184
0.022498167
0.0091230477
0.0014916112
0.0014716134
0.0088624287
0.021868276
0.037426951
0.51628915
0.48880717
0.035084794
0.020466638
0.0082880367
0.0014344594
0.0013982234
0.0080714267
0.019766128
0.033832191
0.46937942
0.45506138
0.03315185
0.019385147
0.0079245163
0.0013730119
0.0013557504
0.0078228259
0.01912381
0.032685039
0.44397512
0.43473534
0.032271358
0.018892121
0.0077346476
0.0013418814
0.0013301345
0.0076506769
0.018670475
0.031877061
0.42679356
0.419831
0.031495801
0.018453905
0.0075677977
0.001319901
0.0013107327
0.0074858609
0.018242076
0.031127218
0.41361218
0.40797126
0.030771997
0.018035829
0.0074053228
0.0013023743
0.0012946808
0.0073266854
0.017836193
0.030431033
0.4027942
0.39799715
0.030103854
0.017643387
0.0072502809
0.0012875474
0.0012808957
0.0071763137
0.01745764
0.029790219
0.39351998
0.38931572
0.029489001
0.017278603
0.0071048344
0.0012746627
0.0012687995
0.0070358459
0.017106199
0.029199771
0.38534945
0.38159182
0.028921337
0.016939905
0.0069692645
0.0012632628
0.0012580188
0.0069050168
0.016779572
0.028653336
0.37802094
0.37461668
0.028394598
0.016624631
0.006842966
0.0012530367
0.0012482914
0.0067830305
0.016474974
0.028144936
0.37136412
0.3682488
0.027903403
0.016330126
0.0067250902
0.0012437615
0.0012394283
0.0066690346
0.016189934
0.027669773
0.36525984
0.36238639
0.027443278
0.016054016
0.0066147722
0.0012352756
0.0012312898
0.0065621978
0.015922227
0.027223746
0.35962038
0.35695322
0.027010599
0.015794276
0.0065112262
0.0012274571
0.0012237687
0.0064617837
0.01567002
0.026803647
0.35437881
0.35188979
0.026602407
0.015549218
0.0064137787
0.0012202138
0.0012167838
0.0063671429
0.015431686
0.026406612
0.34948123
0.34714774
0.026215981
0.015317287
0.0063218
0.0012134704
0.0012102662
0.0062776878
0.015205804
0.026030209
0.34488499
0.34268837
0.025849154
0.015097189
0.0062347516
0.0012071656
0.0012041614
0.0061929131
0.014991146
0.025672378
0.3405537
0.33847723
0.025499906
0.014887728
0.0061521385
0.0012012493
0.0011984217
0.0061123357
0.014786535
0.025331122
0.3364549
0.33448656
0.025166477
0.014687898
0.0060735701
0.0011956725
0.3369908
0.025859673
0.015067752
0.006212427
0.00120766
0.0012105202
0.0062527188
0.015170135
0.026030746
0.33901268
0.34109017
0.026206188
0.015275213
0.0062941116
0.0012134693
0.0012165104
0.0063365415
0.015382711
0.026385679
0.34322496
0.3454208
0.026569755
0.015493001
0.0063801092
0.0012196505
0.0012228935
0.0064248278
0.015606011
0.026758375
0.34768189
0.35001208
0.026951995
0.015722046
0.0064707885
0.0012262475
0.0012297188
0.0065180361
0.015841152
0.027150754
0.35241648
0.35489998
0.027354952
0.015963548
0.0065666485
0.0012333154
0.0012370467
0.0066166844
0.016089399
0.027564945
0.35746821
0.36012658
0.027781033
0.016218906
0.0066682477
0.0012409222
0.0012449526
0.0067213947
0.016352294
0.028003656
0.36288286
0.3657436
0.028233022
0.016489699
0.0067762142
0.0012491515
0.0012535324
0.0068328075
0.016631487
0.028469826
0.36871771
0.37181396
0.028714203
0.016777734
0.0068912406
0.0012581103
0.0012629055
0.0069516156
0.016928848
0.028966911
0.37504344
0.37841756
0.029228185
0.017084936
0.0070140132
0.0012679379
0.0012732335
0.0070785076
0.017246434
0.029498932
0.38195086
0.38566009
0.029779375
0.017413409
0.0071451595
0.0012788217
0.0012847397
0.0072140231
0.017586339
0.030070553
0.38956677
0.39369626
0.030372817
0.017765285
0.0072851224
0.001291032
0.001297752
0.007358432
0.017950663
0.030687311
0.39808176
0.40276673
0.031014343
0.01814236
0.0074338271
0.0013049683
0.0013127721
0.0075111608
0.018340648
0.031355048
0.40781034
0.41329354
0.031709658
0.018545166
0.0075901252
0.0013212768
0.0013306331
0.0076703131
0.018755475
0.032078302
0.4193277
0.42607138
0.032459803
0.018970375
0.0077511338
0.0013410783
0.0013529943
0.0078321452
0.019189666
0.032853777
0.43375686
0.44270655
0.033261584
0.019415139
0.0079135072
0.001366875
0.0013842874
0.008004774
0.019657504
0.033705593
0.45346585
0.46750447
0.034347768
0.020006865
0.008138266
0.0014095892
0.0014462627
0.0083114681
0.020644084
0.035537918
0.486665
0.51540764
0.037979732
0.022067595
0.0089084823
0.0014874393
0.0015064351
0.0089754113
0.021983331
0.037251904
0.53642001
0.55419491
0.04135393
0.024235221
0.009821287
0.001551355
0.0015459085
0.010379947
0.025893629
0.044817253
0.55337946
0.59230627
0.037271083
0.022397939
0.0092376537
0.0015033847
0.001507002
0.0095113263
0.023595463
0.040860409
0.56304609
0.5595775
0.039856371
0.023114408
0.0093463544
0.0014970774
0.0014659833
0.0087432033
0.021085344
0.034872965
0.59118848
0.55510693
0.039307869
0.023149293
0.0094490311
0.0015144297
0.0015362084
0.0096869228
0.023845802
0.040635798
0.55614657
0.59416486
0.037308728
0.022372883
0.0092029497
0.0015039451
0.0015214837
0.0096473696
0.024010182
0.041673558
0.56105378
0.54035497
0.037720765
0.022156508
0.0089917165
0.0014874149
0.001468067
0.0088017991
0.021733295
0.03723623
0.51816785
0.49058694
0.035097041
0.020459851
0.008279493
0.0014332988
0.0013975785
0.0080649321
0.019761594
0.033842818
0.47045728
0.45579699
0.033159429
0.019383299
0.0079213026
0.001372711
0.0013556365
0.0078219675
0.019124744
0.0326926
0.44453471
0.43519036
0.032279722
0.018895067
0.0077352603
0.0013418665
0.0013301844
0.0076522131
0.018674964
0.031886585
0.42718517
0.42017892
0.031506202
0.018459398
0.0075698705
0.001319995
0.001310854
0.0074882056
0.018248076
0.031137977
0.41392473
0.40825216
0.030782622
0.018041919
0.0074077378
0.0013025094
0.0012948186
0.0073290349
0.017842088
0.030441159
0.40304565
0.39822123
0.030113296
0.017648936
0.0072524994
0.0012876815
0.0012810222
0.0071783604
0.017462758
0.02979887
0.39371875
0.38949132
0.029496849
0.017283266
0.0071067012
0.0012747797
0.0012689062
0.0070375304
0.017110411
0.02920684
0.38550418
0.38172804
0.028927682
0.016943692
0.00697078
0.0012633595
0.0012581057
0.006906372
0.016782965
0.028659014
0.37814057
0.37472209
0.028399726
0.016627705
0.0068441964
0.0012531145
0.0012483616
0.0067841371
0.01647774
0.028149542
0.37145699
0.36833064
0.027907536
0.016332609
0.0067260798
0.0012438243
0.0012394845
0.0066699268
0.016192166
0.027673476
0.36533202
0.36245013
0.027446608
0.01605602
0.0066155706
0.001235326
0.0012313348
0.0065629145
0.015924029
0.027226746
0.35967661
0.35700315
0.02701334
0.015795924
0.0065118839
0.0012274984
0.0012238057
0.0064623791
0.015671519
0.026806135
0.35442292
0.35192914
0.026604662
0.015550586
0.006414326
0.0012202469
0.0012168129
0.0063676305
0.015432919
0.026408652
0.34951649
0.34717944
0.026217829
0.015318406
0.0063222447
0.0012134961
0.0012102891
0.0062780908
0.015206819
0.026031889
0.34491398
0.34271491
0.025850679
0.015098112
0.006235118
0.0012071857
0.0012041787
0.0061932477
0.01499199