/*--------------------------------*- C++ -*----------------------------------*\
  =========                 |
  \\      /  F ield         | OpenFOAM: The Open Source CFD Toolbox
   \\    /   O peration     | Website:  https://openfoam.org
    \\  /    A nd           | Version:  7
     \\/     M anipulation  |
\*---------------------------------------------------------------------------*/
FoamFile
{
    version     2.0;
    format      ascii;
    class       volScalarField;
    location    "450";
    object      T;
}
// * * * * * * * * * * * * * * * * * * * * * * * * * * * * * * * * * * * * * //

dimensions      [0 0 0 1 0 0 0];

internalField   nonuniform List<scalar> 
24789
(
300.15335
300.14374
300.13648
300.13034
300.09909
300.10101
300.13344
300.1398
300.14731
300.15725
300.16141
300.15113
300.14336
300.13676
300.10305
300.10516
300.14024
300.1471
300.15516
300.16581
300.1705
300.15944
300.15106
300.14392
300.10733
300.10957
300.1478
300.15524
300.16397
300.17548
300.18081
300.16881
300.15969
300.15191
300.11189
300.11427
300.15627
300.16443
300.17397
300.18653
300.19268
300.17952
300.1695
300.16093
300.11673
300.11926
300.1659
300.17494
300.18548
300.19933
300.20654
300.19192
300.18079
300.17123
300.12186
300.12454
300.17696
300.1871
300.19889
300.21438
300.22294
300.20647
300.19393
300.18313
300.12727
300.13007
300.18979
300.20133
300.21472
300.2323
300.24258
300.22373
300.20938
300.19701
300.13289
300.13573
300.20481
300.21814
300.23359
300.25387
300.26629
300.24438
300.22768
300.21327
300.13855
300.14129
300.22243
300.23807
300.25618
300.27996
300.29499
300.26908
300.24935
300.23231
300.14387
300.14622
300.24292
300.26155
300.28312
300.31143
300.32929
300.29827
300.27464
300.25421
300.14818
300.14957
300.26606
300.2885
300.31444
300.34847
300.36869
300.33135
300.30287
300.27821
300.15013
300.14952
300.29018
300.31726
300.34849
300.38934
300.40941
300.3649
300.33081
300.30119
300.14723
300.14253
300.30994
300.34213
300.37909
300.42716
300.44008
300.38888
300.34929
300.31467
300.13451
300.12152
300.3123
300.3489
300.3905
300.44368
300.42985
300.37738
300.33541
300.2979
300.10069
300.0713
300.26988
300.30652
300.34518
300.38977
300.31195
300.28833
300.25797
300.22521
300.03771
299.9592
300.09199
300.11496
300.13413
300.13518
299.75055
299.755
299.75433
299.75344
299.75525
299.63446
299.60815
299.6047
299.60422
299.60701
299.63535
299.62645
299.62228
299.62018
299.61195
299.57643
299.53595
299.52968
299.52685
299.52664
299.53988
299.53129
299.5356
299.54329
299.57263
299.57991
299.54181
299.53638
299.53654
299.55186
299.62827
299.60665
299.60175
299.60384
299.61968
299.65225
299.62891
299.62698
299.62847
299.63434
299.87288
299.86579
299.85399
299.8427
299.77809
299.95729
300.13154
300.15754
300.18022
300.19074
300.34537
300.31806
300.28636
300.25322
300.03521
300.0678
300.29839
300.33503
300.37355
300.41743
300.45718
300.40687
300.36549
300.32795
300.0974
300.11917
300.34413
300.38105
300.42256
300.47489
300.4712
300.42225
300.38266
300.34743
300.13268
300.141
300.34302
300.3762
300.41374
300.4613
300.44572
300.40056
300.36529
300.3343
300.14608
300.14871
300.32304
300.35177
300.38458
300.42668
300.40637
300.36735
300.33698
300.31045
300.14956
300.14915
300.29737
300.32182
300.34985
300.38593
300.36606
300.33273
300.30687
300.28435
300.14786
300.14596
300.27172
300.29247
300.31634
300.34712
300.32933
300.30088
300.27883
300.25967
300.14365
300.14108
300.24832
300.26603
300.28643
300.31277
300.29747
300.27303
300.2541
300.23769
300.13835
300.13555
300.22779
300.24304
300.26064
300.28336
300.2704
300.24921
300.23281
300.2186
300.13271
300.12989
300.21008
300.22335
300.23869
300.25849
300.24758
300.229
300.21462
300.20218
300.1271
300.12437
300.19486
300.20655
300.22007
300.23754
300.22832
300.21184
300.19908
300.18807
300.12169
300.11909
300.18176
300.19216
300.20423
300.21982
300.21199
300.1972
300.18574
300.17589
300.11656
300.11411
300.17041
300.17977
300.19066
300.20473
300.198
300.18458
300.1742
300.16528
300.11173
300.10943
300.16048
300.16899
300.17891
300.19174
300.18591
300.17361
300.16411
300.15596
300.10719
300.10502
300.1517
300.15951
300.16863
300.18044
300.17532
300.16395
300.15518
300.14768
300.10291
300.10089
300.14389
300.1511
300.15955
300.1705
300.16606
300.1555
300.14734
300.14038
300.09896
300.10027
300.14281
300.14994
300.15831
300.16917
300.17387
300.16261
300.15392
300.1465
300.1022
300.10424
300.15042
300.15814
300.16717
300.17887
300.18421
300.17203
300.16262
300.15457
300.10634
300.10851
300.15897
300.16739
300.17721
300.18991
300.19603
300.18274
300.17247
300.16366
300.11074
300.11304
300.16866
300.17791
300.18867
300.2026
300.20969
300.19505
300.18374
300.174
300.1154
300.11784
300.17972
300.19
300.20192
300.21735
300.22564
300.20935
300.19674
300.18587
300.12034
300.1229
300.19248
300.20401
300.21737
300.23464
300.24442
300.22607
300.21187
300.1996
300.12552
300.12819
300.20728
300.22036
300.2355
300.25506
300.26665
300.24573
300.22955
300.21555
300.13088
300.13357
300.22447
300.23949
300.25683
300.27925
300.29296
300.26887
300.25023
300.23407
300.13622
300.13879
300.24436
300.26179
300.28187
300.30783
300.32389
300.29587
300.27418
300.25535
300.14118
300.14331
300.26699
300.28738
300.31084
300.34113
300.35946
300.32668
300.30128
300.27917
300.14503
300.14613
300.29171
300.31569
300.34321
300.37866
300.39835
300.36004
300.33026
300.30427
300.14635
300.14531
300.31628
300.3444
300.37654
300.41782
300.43592
300.3917
300.35721
300.32692
300.14248
300.1372
300.33498
300.36737
300.40399
300.45028
300.45918
300.41162
300.37304
300.3387
300.12863
300.11505
300.33474
300.37068
300.41101
300.46184
300.44246
300.39428
300.35432
300.31792
300.09312
300.0622
300.28668
300.32199
300.35874
300.40026
300.32577
300.30115
300.27226
300.24065
300.02745
299.95578
300.12878
300.15391
300.17422
300.17842
299.86452
299.85936
299.84671
299.83583
299.77943
299.59199
299.50197
299.49115
299.48686
299.49687
299.73468
299.70587
299.6928
299.6858
299.63837
299.65266
299.72969
299.74031
299.75442
299.77791
299.52414
299.51506
299.52035
299.53163
299.5962
299.68247
299.81183
299.83453
299.8637
299.90427
299.71051
299.67383
299.66015
299.65482
299.62515
299.5859
299.49303
299.48047
299.47411
299.47927
299.82655
299.82774
299.82097
299.81473
299.78703
299.9735
300.12222
300.14691
300.16725
300.17009
300.32958
300.30048
300.26882
300.23535
300.04042
300.07138
300.27555
300.31293
300.35315
300.40151
300.43913
300.38279
300.33951
300.30161
300.10123
300.12237
300.31383
300.35013
300.3918
300.44525
300.43829
300.38754
300.34854
300.31465
300.13545
300.14373
300.30916
300.34041
300.37646
300.42366
300.40518
300.36184
300.32881
300.3002
300.14867
300.15115
300.2894
300.31547
300.34559
300.38512
300.36497
300.32898
300.30155
300.27782
300.15184
300.15128
300.26614
300.28776
300.31275
300.34552
300.32719
300.2973
300.27449
300.25475
300.14982
300.14777
300.24386
300.26193
300.28281
300.31016
300.29448
300.26937
300.25019
300.23359
300.14533
300.14265
300.224
300.23929
300.25697
300.28011
300.26699
300.24558
300.22921
300.21507
300.13982
300.13693
300.20677
300.21991
300.23511
300.25499
300.24404
300.2255
300.21132
300.19908
300.13402
300.13113
300.19195
300.2034
300.21667
300.23403
300.22487
300.20855
300.19608
300.18533
300.12829
300.12552
300.17919
300.18931
300.20107
300.21645
300.20871
300.19416
300.18303
300.17347
300.12281
300.12018
300.16814
300.1772
300.18775
300.20157
300.19496
300.1818
300.17176
300.16314
300.11763
300.11516
300.15847
300.16668
300.17626
300.18882
300.18311
300.17108
300.16191
300.15407
300.11276
300.11044
300.14993
300.15744
300.16622
300.17777
300.17276
300.16166
300.15321
300.14601
300.10818
300.106
300.1423
300.14922
300.15735
300.16805
300.16363
300.1533
300.14545
300.13878
300.10389
300.10189
300.13547
300.14189
300.14946
300.15944
300.1561
300.14623
300.13877
300.13246
300.10032
300.10228
300.1357
300.14224
300.14997
300.16018
300.16451
300.15392
300.14591
300.13911
300.10434
300.10646
300.14271
300.14979
300.15811
300.1691
300.17398
300.16255
300.15389
300.1465
300.10865
300.1109
300.15052
300.15824
300.16728
300.1792
300.1848
300.17233
300.16287
300.15478
300.11321
300.1156
300.15932
300.16782
300.17774
300.19081
300.1973
300.18356
300.17312
300.16416
300.11805
300.12057
300.16935
300.17881
300.18983
300.20433
300.21197
300.19662
300.18495
300.17491
300.12315
300.12579
300.18091
300.19158
300.20399
300.22031
300.22943
300.21202
300.19877
300.18737
300.12848
300.13119
300.19436
300.20658
300.22077
300.23942
300.25041
300.23035
300.21508
300.20193
300.13391
300.1366
300.21012
300.22433
300.24082
300.26249
300.27579
300.25228
300.2344
300.21898
300.13922
300.14168
300.22854
300.24533
300.26479
300.29039
300.30637
300.27841
300.25715
300.2388
300.1439
300.14573
300.24971
300.26982
300.2931
300.32373
300.34236
300.30877
300.28322
300.26115
300.14701
300.14749
300.27286
300.2971
300.32513
300.36196
300.38193
300.34165
300.31094
300.28436
300.14682
300.14451
300.29484
300.32388
300.35738
300.40122
300.41811
300.3708
300.33454
300.30303
300.13984
300.13192
300.30714
300.34096
300.37973
300.43006
300.43265
300.38044
300.33979
300.30414
300.11914
300.09868
300.28902
300.32543
300.36632
300.41783
300.37647
300.33245
300.2949
300.25958
300.0694
300.03504
300.21375
300.24499
300.27412
300.29788
300.12749
300.12678
300.10886
300.08692
299.95745
299.75194
299.75237
299.75325
299.75422
299.75046
299.51419
299.50993
299.51535
299.52611
299.60281
299.62447
299.64604
299.65009
299.65796
299.67247
299.59055
299.58655
299.586
299.58901
299.5987
299.56844
299.51241
299.49861
299.488
299.49484
299.60042
299.51656
299.49315
299.47136
299.44919
299.7626
299.75268
299.73404
299.71789
299.64771
299.66953
299.69731
299.69995
299.69936
299.68337
299.80418
299.78695
299.7697
299.75556
299.67105
299.67299
299.76043
299.77494
299.79524
299.83224
299.63793
299.61299
299.60725
299.60854
299.61675
299.6079
299.53375
299.52332
299.51766
299.52019
299.81473
299.82019
299.81716
299.81271
299.79015
299.97191
300.1096
300.132
300.14957
300.14822
300.30552
300.28246
300.25388
300.22304
300.04153
300.07277
300.26417
300.29882
300.33545
300.37792
300.41515
300.36588
300.32641
300.29115
300.10238
300.12346
300.30487
300.33896
300.3777
300.42724
300.42344
300.37606
300.3394
300.30731
300.13649
300.14465
300.30325
300.33304
300.36716
300.41145
300.39532
300.35439
300.32293
300.29552
300.14953
300.15195
300.28573
300.31084
300.33969
300.37728
300.3588
300.32436
300.29795
300.27498
300.1526
300.152
300.26398
300.28499
300.30916
300.3407
300.32347
300.29456
300.27239
300.25315
300.15052
300.14843
300.24271
300.26039
300.28075
300.30732
300.29235
300.26786
300.24908
300.23279
300.14595
300.14323
300.22347
300.23852
300.25588
300.27854
300.26585
300.24482
300.22871
300.21475
300.14036
300.13744
300.20662
300.21961
300.23462
300.2542
300.24353
300.22522
300.21119
300.19906
300.1345
300.13158
300.19202
300.20339
300.21655
300.23373
300.22473
300.20855
300.19617
300.18548
300.12871
300.12591
300.17939
300.18946
300.20115
300.21643
300.20879
300.19431
300.18324
300.1737
300.12318
300.12052
300.16839
300.17743
300.18795
300.20171
300.19516
300.18204
300.17202
300.16342
300.11795
300.11545
300.15875
300.16695
300.17652
300.18905
300.18337
300.17135
300.16219
300.15435
300.11303
300.11069
300.15021
300.15771
300.1665
300.17804
300.17304
300.16194
300.15349
300.14628
300.10842
300.10622
300.14256
300.14949
300.15763
300.16833
300.1639
300.15357
300.14571
300.13904
300.1041
300.10209
300.13571
300.14214
300.14972
300.15971
300.17017
300.15925
300.15082
300.14364
300.10079
300.10278
300.1474
300.15487
300.16363
300.17496
300.18007
300.16829
300.15918
300.1514
300.10486
300.10701
300.15564
300.16376
300.17325
300.18552
300.19135
300.17854
300.16864
300.16015
300.10923
300.11152
300.16494
300.17384
300.18421
300.19761
300.20434
300.19029
300.17941
300.17006
300.11388
300.11631
300.17554
300.18539
300.19683
300.21161
300.21947
300.20388
300.19182
300.18142
300.11883
300.12141
300.18774
300.19874
300.2115
300.22798
300.23723
300.21975
300.20623
300.19454
300.12407
300.12679
300.20188
300.21432
300.22871
300.24729
300.25825
300.23843
300.22308
300.2098
300.12957
300.13238
300.21834
300.23256
300.24899
300.27019
300.2832
300.26045
300.24283
300.22757
300.13521
300.13801
300.2375
300.25393
300.27289
300.29735
300.31271
300.28633
300.2659
300.24816
300.14074
300.14331
300.25955
300.27874
300.30082
300.3293
300.34712
300.31631
300.29242
300.27162
300.14562
300.14752
300.28428
300.30684
300.33272
300.36606
300.38591
300.34984
300.32179
300.29731
300.14882
300.14924
300.31037
300.33692
300.36728
300.40625
300.42636
300.38439
300.35162
300.3229
300.14839
300.14577
300.33403
300.36496
300.40011
300.445
300.45976
300.41287
300.37559
300.34253
300.1407
300.13239
300.34659
300.38162
300.42082
300.46883
300.47141
300.42024
300.37935
300.34275
300.11892
300.09729
300.32579
300.36274
300.40306
300.45119
300.40817
300.36712
300.33016
300.29443
300.0672
300.03339
300.24674
300.27868
300.30825
300.3323
300.17887
300.1728
300.15159
300.12658
299.95726
299.77721
299.83153
299.84105
299.85108
299.85694
299.57846
299.56884
299.57008
299.5763
299.63336
299.6207
299.60054
299.60045
299.60876
299.6355
299.61125
299.58667
299.58381
299.58715
299.60881
299.62523
299.69947
299.71077
299.72557
299.75193
299.45879
299.47524
299.48937
299.50497
299.59091
299.61302
299.59465
299.59344
299.59483
299.60109
299.60306
299.59904
299.60025
299.60464
299.63077
299.74721
299.74079
299.74026
299.73869
299.73147
300.13185
300.13072
300.11091
300.08794
299.95513
300.03671
300.22372
300.25647
300.28668
300.31026
300.39082
300.34629
300.30764
300.27094
300.07189
300.10123
300.3001
300.3379
300.38014
300.43285
300.44744
300.39372
300.35166
300.31466
300.12179
300.13463
300.31691
300.35196
300.39208
300.44396
300.43083
300.38205
300.34458
300.31197
300.14257
300.14722
300.30296
300.33295
300.36751
300.41266
300.39214
300.35071
300.31909
300.29168
300.14948
300.15007
300.27945
300.30439
300.33321
300.37102
300.3504
300.31596
300.28974
300.26707
300.14949
300.14809
300.25502
300.27564
300.2995
300.33085
300.31268
300.2841
300.26234
300.24355
300.14612
300.14377
300.2328
300.24997
300.26985
300.29597
300.28073
300.25678
300.23854
300.22279
300.14118
300.13844
300.21354
300.22803
300.24482
300.26688
300.25431
300.23392
300.2184
300.205
300.13562
300.13278
300.19713
300.20956
300.22397
300.2429
300.23254
300.21489
300.20145
300.18987
300.12995
300.12716
300.18317
300.19399
300.20657
300.22309
300.21448
300.19895
300.18713
300.17696
300.12442
300.12175
300.17121
300.18078
300.19193
300.20658
300.19934
300.18547
300.17491
300.16586
300.11915
300.11663
300.16087
300.16945
300.17947
300.19265
300.18648
300.17392
300.16437
300.1562
300.11418
300.1118
300.15183
300.15962
300.16873
300.18074
300.1754
300.16389
300.15516
300.14771
300.10949
300.10726
300.14383
300.15097
300.15935
300.1704
300.16572
300.15508
300.14701
300.14016
300.10509
300.10299
300.13668
300.14327
300.15104
300.16131
300.15715
300.14723
300.13973
300.13337
300.10097
300.10028
300.13225
300.13853
300.14593
300.15574
300.15977
300.14962
300.14195
300.13545
300.10224
300.10428
300.13882
300.14557
300.15351
300.16401
300.16851
300.15762
300.14938
300.14236
300.10639
300.10856
300.14609
300.1534
300.16197
300.17328
300.17838
300.1666
300.15766
300.15002
300.1108
300.1131
300.1542
300.16219
300.17152
300.18382
300.18966
300.17679
300.16701
300.15863
300.11546
300.11789
300.16335
300.17216
300.18243
300.19594
300.20272
300.1885
300.17768
300.16839
300.12039
300.12294
300.17379
300.18362
300.19505
300.21007
300.21805
300.20213
300.19001
300.17957
300.12555
300.1282
300.1858
300.19691
300.20981
300.22674
300.23624
300.21816
300.20438
300.19249
300.13088
300.13355
300.19972
300.21247
300.22725
300.24663
300.25803
300.23716
300.22125
300.20751
300.13619
300.13874
300.2159
300.23076
300.24795
300.27051
300.28418
300.2597
300.24105
300.22492
300.14113
300.14326
300.23456
300.25214
300.27245
300.2991
300.31526
300.28617
300.26399
300.24478
300.145
300.14617
300.25546
300.27648
300.30075
300.33257
300.35076
300.31595
300.28938
300.26633
300.14651
300.14569
300.27699
300.30223
300.33129
300.3693
300.38722
300.34589
300.31422
300.28665
300.14321
300.13837
300.29414
300.32406
300.35835
300.40295
300.41414
300.36663
300.32991
300.29776
300.1303
300.11742
300.29457
300.32855
300.36719
300.41675
300.40343
300.35386
300.31463
300.27973
300.09674
300.06686
300.25106
300.28528
300.32184
300.36571
300.29445
300.26843
300.23917
300.20807
300.03076
299.95378
300.09273
300.11686
300.13763
300.13986
299.78274
299.78252
299.77827
299.77394
299.75577
299.5791
299.50176
299.49038
299.48417
299.48795
299.71902
299.70136
299.68928
299.68063
299.63146
299.63994
299.68305
299.68938
299.69728
299.70095
299.69786
299.74674
299.70342
299.58395
299.50003
299.48911
299.48425
299.49133
299.69238
299.65634
299.64467
299.64149
299.61688
299.51706
299.51812
299.52679
299.54152
299.60129
299.64082
299.6301
299.62613
299.62112
299.61028
299.61691
299.6377
299.64354
299.64512
299.64036
299.64937
299.73073
299.75265
299.78558
299.84041
299.69355
299.68966
299.75402
299.73784
299.99334
299.99512
299.98887
299.99331
299.99039
299.98735
299.98874
299.99088
300.15946
300.14947
300.14188
300.13545
300.10183
300.10387
300.1388
300.14547
300.15332
300.16366
300.16811
300.15741
300.14927
300.14234
300.10601
300.10822
300.14607
300.15327
300.16171
300.17281
300.1778
300.16627
300.15749
300.14999
300.11051
300.11286
300.15412
300.16195
300.17109
300.18308
300.18873
300.17622
300.16668
300.15849
300.11529
300.11778
300.16312
300.1717
300.18168
300.19475
300.20122
300.18753
300.17705
300.16805
300.12036
300.12302
300.17329
300.18277
300.19378
300.20818
300.21568
300.20051
300.1889
300.17889
300.12575
300.12854
300.18487
300.19547
300.20775
300.22378
300.23257
300.21557
300.20255
300.19129
300.13139
300.13429
300.19816
300.21016
300.22403
300.24211
300.25249
300.23318
300.21837
300.20554
300.13721
300.14012
300.21345
300.22721
300.24308
300.26376
300.27602
300.25378
300.23672
300.22192
300.14295
300.14565
300.23093
300.24692
300.26533
300.28932
300.3037
300.27773
300.2578
300.24049
300.1481
300.15015
300.25051
300.26931
300.29094
300.31913
300.33553
300.30486
300.28133
300.26085
300.1516
300.15217
300.27127
300.2936
300.31924
300.35263
300.36997
300.33363
300.30569
300.28134
300.15149
300.14907
300.29036
300.31686
300.34722
300.38665
300.40121
300.35869
300.32589
300.29719
300.14423
300.13618
300.3002
300.33099
300.36609
300.41138
300.41312
300.36592
300.329
300.29648
300.12321
300.10215
300.28135
300.31477
300.35212
300.39879
300.3602
300.32129
300.287
300.25433
300.07362
300.04263
300.21356
300.24244
300.26839
300.28635
300.11441
300.11746
300.10225
300.08245
299.96103
299.76653
299.76528
299.76466
299.76242
299.75397
299.6443
299.63983
299.63879
299.64061
299.65435
299.6144
299.59865
299.59695
299.60124
299.61659
299.64437
299.59649
299.58867
299.59219
299.60573
299.73584
299.74656
299.7558
299.73388
299.91782
299.93731
299.90555
299.8722
299.66151
299.64656
299.67368
299.68216
299.69203
299.69344
299.95606
299.91426
299.87789
299.84504
299.70052
299.72191
299.9073
299.93676
299.9668
300.00024
299.6456
299.59779
299.58996
299.59345
299.60672
299.61564
299.59974
299.59798
299.60212
299.61706
299.64497
299.64074
299.63985
299.64176
299.6557
299.76784
299.76654
299.76588
299.76355
299.75495
300.11564
300.11874
300.10358
300.0838
299.9624
300.04398
300.21502
300.24389
300.26982
300.28773
300.36166
300.32278
300.28848
300.25579
300.07485
300.10336
300.28281
300.31627
300.35364
300.40031
300.41469
300.36746
300.33051
300.29795
300.1244
300.13736
300.30168
300.33251
300.36765
300.41297
300.40281
300.36025
300.3274
300.29865
300.14537
300.15018
300.2918
300.31835
300.34876
300.38824
300.37155
300.33515
300.30716
300.28275
300.15257
300.15321
300.27264
300.29503
300.32073
300.35418
300.33703
300.30631
300.28271
300.26218
300.1526
300.15112
300.25179
300.27065
300.29233
300.32059
300.3051
300.27907
300.25909
300.24172
300.14903
300.14654
300.23211
300.24815
300.26661
300.29067
300.27731
300.25501
300.23789
300.22304
300.1438
300.14093
300.21452
300.22832
300.24424
300.26498
300.25365
300.23428
300.21943
300.20656
300.13799
300.13503
300.19913
300.21117
300.22508
300.24321
300.23362
300.21657
300.2035
300.1922
300.1321
300.12921
300.18574
300.19638
300.2087
300.22477
300.21662
300.20141
300.18976
300.17971
300.12638
300.12362
300.17407
300.18359
300.19463
300.20906
300.20207
300.18833
300.17783
300.16879
300.12093
300.11833
300.16383
300.17244
300.18245
300.19556
300.1895
300.17696
300.16739
300.15917
300.11581
300.11336
300.15478
300.16263
300.1718
300.18383
300.17851
300.16696
300.15815
300.15062
300.11099
300.10868
300.14668
300.15391
300.16238
300.1735
300.16879
300.15806
300.14989
300.14294
300.10646
300.1043
300.13938
300.14608
300.15396
300.16432
300.16012
300.15009
300.14248
300.13601
300.10221
300.10023
300.13287
300.13912
300.1465
300.15621
300.10012
300.13231
300.13863
300.14609
300.15598
300.16012
300.14989
300.14216
300.1356
300.10212
300.10421
300.13907
300.14588
300.1539
300.1645
300.16917
300.15816
300.14982
300.14273
300.10636
300.10858
300.14658
300.15399
300.16268
300.17414
300.17946
300.1675
300.15842
300.15068
300.11087
300.11322
300.15502
300.16314
300.17264
300.18515
300.19129
300.17817
300.16819
300.15965
300.11564
300.11814
300.1646
300.1736
300.18411
300.19792
300.20511
300.19052
300.17943
300.1699
300.1207
300.12333
300.17559
300.1857
300.19747
300.21292
300.22146
300.20502
300.1925
300.18173
300.12602
300.12876
300.18836
300.19987
300.21324
300.2308
300.24105
300.22223
300.20789
300.19553
300.13153
300.13431
300.2033
300.21661
300.23205
300.25233
300.26474
300.24282
300.22612
300.21172
300.13706
300.13972
300.22084
300.23648
300.25461
300.27841
300.29345
300.26749
300.24774
300.23069
300.14223
300.14449
300.24127
300.25993
300.28153
300.30992
300.32783
300.2967
300.27301
300.25255
300.14636
300.14766
300.26438
300.28687
300.3129
300.34707
300.36736
300.32985
300.30126
300.27652
300.14813
300.14743
300.28848
300.31565
300.34701
300.38809
300.40817
300.36343
300.32918
300.29946
300.14504
300.14027
300.30814
300.34043
300.37753
300.42582
300.43837
300.38706
300.34738
300.3127
300.13222
300.11927
300.31001
300.34657
300.38812
300.44115
300.42577
300.37386
300.33223
300.29495
300.09858
300.06911
300.26517
300.30126
300.3392
300.38284
300.30131
300.27867
300.24925
300.2172
300.03348
299.95177
300.08056
300.10267
300.1215
300.12164
299.71863
299.72778
299.73057
299.7321
299.74341
299.62458
299.59273
299.58712
299.58442
299.58669
299.58617
299.58241
299.58274
299.58511
299.60864
299.58557
299.49498
299.47839
299.46306
299.44271
299.72547
299.70369
299.69184
299.68274
299.61751
299.60299
299.56914
299.56372
299.56389
299.58455
299.79477
299.7618
299.74569
299.73464
299.66326
299.67441
299.79016
299.80965
299.83539
299.87133
299.76471
299.74374
299.73084
299.72103
299.64926
299.63809
299.6786
299.68444
299.69182
299.69473
299.60851
299.60119
299.59848
299.59964
299.60073
299.58652
299.51366
299.5045
299.50142
299.51094
299.71408
299.67453
299.66002
299.6545
299.62
299.62505
299.61649
299.61793
299.62674
299.65313
299.66089
299.64936
299.64498
299.64531
299.65567
299.76523
299.76807
299.76861
299.76858
299.76574
300.12577
300.12683
300.10968
300.08863
299.96208
300.0435
300.21841
300.24804
300.27455
300.29404
300.3657
300.32579
300.29084
300.25765
300.07442
300.10318
300.28419
300.31798
300.3558
300.40311
300.41657
300.36893
300.3317
300.29891
300.1243
300.13726
300.30227
300.33325
300.36856
300.41415
300.40352
300.3608
300.32783
300.29899
300.14528
300.15006
300.29199
300.31861
300.34909
300.38867
300.37181
300.33534
300.3073
300.28285
300.15241
300.15302
300.27267
300.29509
300.32083
300.35434
300.33713
300.30635
300.28272
300.26215
300.15237
300.15086
300.25172
300.27061
300.29233
300.32064
300.30512
300.27903
300.25901
300.24161
300.14875
300.14625
300.23198
300.24805
300.26654
300.29065
300.27726
300.25492
300.23777
300.22289
300.1435
300.14062
300.21435
300.22818
300.24413
300.26491
300.25355
300.23415
300.21926
300.20637
300.13768
300.13472
300.19893
300.21099
300.22492
300.24309
300.23348
300.2164
300.20331
300.19199
300.13179
300.12891
300.18552
300.19617
300.2085
300.22461
300.21644
300.2012
300.18954
300.17948
300.12608
300.12333
300.17384
300.18336
300.19442
300.20888
300.20187
300.18812
300.1776
300.16855
300.12066
300.11806
300.16359
300.1722
300.18223
300.19535
300.18928
300.17673
300.16714
300.15893
300.11554
300.1131
300.15453
300.16239
300.17157
300.1836
300.17828
300.16672
300.15791
300.15037
300.11073
300.10844
300.14644
300.15366
300.16214
300.17327
300.16855
300.15782
300.14965
300.1427
300.10622
300.10406
300.13914
300.14584
300.15371
300.16408
300.15986
300.14983
300.14222
300.13575
300.10198
300.09998
300.13254
300.13877
300.14614
300.15585
300.10182
300.13542
300.14185
300.14944
300.15943
300.16363
300.1533
300.14544
300.13877
300.10385
300.10598
300.1423
300.14923
300.15736
300.16806
300.17275
300.16166
300.15322
300.14602
300.10818
300.11046
300.14993
300.15742
300.1662
300.17772
300.18299
300.17101
300.16187
300.15404
300.1128
300.11522
300.1584
300.16658
300.17611
300.18861
300.19463
300.18156
300.17158
300.16301
300.11771
300.12028
300.16792
300.17692
300.18738
300.20107
300.20799
300.19361
300.18262
300.17314
300.12292
300.12564
300.17872
300.18871
300.20031
300.21546
300.22353
300.20752
300.19526
300.18467
300.12842
300.13126
300.19106
300.2023
300.2153
300.23227
300.24175
300.2237
300.20987
300.1979
300.13415
300.13705
300.20523
300.21803
300.23279
300.25205
300.26325
300.24263
300.22681
300.21309
300.13995
300.14278
300.2215
300.23625
300.25325
300.2754
300.28858
300.26469
300.24636
300.23044
300.14547
300.14791
300.23991
300.25714
300.27697
300.3028
300.31804
300.29003
300.26853
300.24983
300.14997
300.15142
300.26005
300.2804
300.30377
300.33421
300.35105
300.31794
300.2925
300.27033
300.152
300.15133
300.28024
300.30439
300.33208
300.36808
300.38445
300.34541
300.31534
300.28906
300.1489
300.14404
300.29571
300.32415
300.35664
300.39871
300.40865
300.36383
300.32907
300.29857
300.13594
300.12292
300.29473
300.32696
300.36352
300.41024
300.39581
300.34959
300.31257
300.27944
300.10171
300.07283
300.25218
300.2846
300.31858
300.35723
300.28423
300.26617
300.24055
300.21177
300.04138
299.95988
300.08154
300.10154
300.11731
300.11438
299.75213
299.75764
299.75925
299.75997
299.76315
299.6532
299.63549
299.63369
299.63636
299.64597
299.63513
299.61182
299.6051
299.60531
299.62158
299.63198
299.60934
299.60717
299.60859
299.61904
299.63085
299.62249
299.62067
299.6224
299.64587
299.76916
299.80889
299.81607
299.8238
299.82811
300.16989
300.16302
300.14244
300.11809
299.95365
300.03289
300.24732
300.27966
300.30991
300.33337
300.41033
300.3686
300.33102
300.29488
300.06625
300.09612
300.32602
300.36339
300.40442
300.45386
300.47437
300.42185
300.38024
300.34322
300.1179
300.13132
300.34715
300.38259
300.42245
300.47164
300.46235
300.41441
300.37653
300.34307
300.13956
300.14456
300.3345
300.3658
300.40149
300.44728
300.42833
300.38558
300.35232
300.32325
300.14713
300.14795
300.3106
300.33746
300.36825
300.40791
300.38727
300.3506
300.32216
300.29741
300.14753
300.14625
300.28426
300.30706
300.33328
300.36714
300.34796
300.3167
300.2925
300.27149
300.14439
300.14213
300.25933
300.27871
300.30104
300.32992
300.31314
300.28644
300.26578
300.24787
300.13961
300.13694
300.23716
300.25374
300.27288
300.29763
300.28336
300.26036
300.24258
300.22719
300.1342
300.13144
300.21795
300.23227
300.24883
300.27024
300.25823
300.23823
300.22275
300.20938
300.12868
300.12596
300.20146
300.21397
300.22847
300.2472
300.2371
300.21949
300.20587
300.19412
300.12328
300.12067
300.18732
300.19838
300.21121
300.22781
300.21926
300.20358
300.19145
300.181
300.11812
300.11565
300.17513
300.18502
300.19651
300.21138
300.2041
300.18997
300.17904
300.16965
300.11325
300.11092
300.16453
300.17347
300.18387
300.19734
300.19106
300.1782
300.16826
300.15973
300.10865
300.10645
300.15523
300.16337
300.17289
300.18521
300.17974
300.16791
300.15878
300.15098
300.10432
300.10226
300.14697
300.15446
300.16323
300.1746
300.16978
300.15883
300.15039
300.14319
300.1003
300.10032
300.14312
300.15029
300.15872
300.16963
300.17445
300.16312
300.15437
300.1469
300.10231
300.10439
300.15091
300.15869
300.16779
300.17957
300.18503
300.17276
300.16328
300.15516
300.10655
300.10877
300.15967
300.16815
300.17805
300.19086
300.19711
300.18371
300.17335
300.16446
300.11106
300.11342
300.16957
300.17891
300.18977
300.20382
300.21106
300.19629
300.18486
300.17503
300.11585
300.11835
300.18088
300.19126
300.20331
300.21888
300.22735
300.2109
300.19816
300.18717
300.12093
300.12357
300.19394
300.2056
300.21911
300.23655
300.24656
300.22801
300.21364
300.20123
300.12628
300.12904
300.2091
300.22235
300.23767
300.25745
300.26933
300.24816
300.23177
300.21759
300.13183
300.13463
300.22675
300.24198
300.25956
300.28226
300.29634
300.27192
300.25301
300.23661
300.1374
300.14009
300.24721
300.26491
300.2853
300.31162
300.32816
300.29972
300.27768
300.25854
300.14262
300.1449
300.27056
300.29131
300.31517
300.34594
300.36488
300.33155
300.30569
300.28318
300.14676
300.14802
300.2962
300.32065
300.34868
300.38478
300.40525
300.3662
300.33582
300.30929
300.1484
300.14753
300.3219
300.35064
300.38348
300.42561
300.44473
300.39951
300.3642
300.3332
300.14487
300.13976
300.34197
300.37519
300.41279
300.46045
300.47046
300.4214
300.38173
300.34646
300.13143
300.11792
300.34326
300.38026
300.42185
300.47429
300.45686
300.40636
300.36485
300.32722
300.09615
300.06656
300.29783
300.33458
300.37327
300.41739
300.34567
300.31803
300.28611
300.2528
300.03392
299.95594
300.13123
300.15747
300.18048
300.19137
299.87332
299.86618
299.85391
299.8423
299.77675
299.65084
299.62798
299.6259
299.62705
299.63205
299.6309
299.60781
299.60255
299.60433
299.61848
299.57868
299.54166
299.53649
299.53704
299.55298
299.54262
299.5333
299.53702