/*--------------------------------*- C++ -*----------------------------------*\
  =========                 |
  \\      /  F ield         | OpenFOAM: The Open Source CFD Toolbox
   \\    /   O peration     | Website:  https://openfoam.org
    \\  /    A nd           | Version:  7
     \\/     M anipulation  |
\*---------------------------------------------------------------------------*/
FoamFile
{
    version     2.0;
    format      ascii;
    class       volScalarField;
    location    "370";
    object      alphat;
}
// * * * * * * * * * * * * * * * * * * * * * * * * * * * * * * * * * * * * * //

dimensions      [1 -1 -1 0 0 0 0];

internalField   nonuniform List<scalar> 
25278
(
7.9157792
7.7867461
7.8340813
7.8340611
7.6854504
7.7867175
7.8859487
7.9157555
7.8860072
7.7662379
7.8417787
7.8840767
7.8408522
7.797127
6.9606851
7.833963
7.7866631
7.1015453
6.6272812
7.175182
7.5273523
7.636689
7.733946
7.786035
7.6095183
7.7860115
7.7339459
7.5337803
7.4438612
7.485917
7.3501679
7.3096087
6.9166968
7.1787962
7.2079741
7.1479668
7.1805127
7.0777952
7.0478191
6.7690304
6.9338061
6.9652058
6.8161017
6.8515441
7.1211089
7.4118928
7.6970707
7.5912602
7.2974116
7.2280734
7.1399798
7.0854364
6.4192672
6.6402875
6.9479103
6.9832685
6.8869625
6.8509051
6.4524408
6.6110057
6.6592105
6.5135442
6.3938434
6.818789
6.7758004
6.7314379
6.7756327
6.3253559
6.2508735
6.326084
5.7657407
5.9815579
6.2232829
6.4598881
6.6933462
6.8643024
7.2083704
7.4860984
7.6368453
7.5639449
7.5069973
6.9650448
7.1043811
6.6441176
7.4278232
7.3649152
6.4174975
5.4911843
6.0657172
6.6277326
6.6578084
6.0724185
6.0536059
4.9894547
5.0738979
6.0842678
6.204944
6.7445473
6.7506835
6.2003287
6.1939508
5.179107
5.2850642
6.2100901
5.6172322
5.6314566
5.5047816
3.9321799
3.8637763
2.9408127
4.9774201
4.9433269
2.9054883
2.8862698
4.020021
4.1154719
2.8675296
5.0218442
5.0793289
5.0740425
6.6417666
7.427611
7.6853342
6.0366516
4.9658933
3.8474501
2.9320138
4.9721116
6.4145102
7.3646209
7.5067052
7.5637605
7.1026199
6.9618678
6.055645
5.4818449
5.4951063
4.9370452
2.894853
3.9134027
3.9996561
2.8732793
2.8517522
5.0145263
5.6072132
5.6218996
6.1963986
6.0739186
5.0498839
6.0552266
6.9542603
6.6205986
6.6514011
6.7394685
7.0974373
6.7463157
6.2021835
5.2631377
4.0928569
2.3875793
1.028589
1.0355853
2.4106134
4.058471
5.5796752
5.5961774
5.015202
4.9513824
2.7378774
2.7722179
3.9677298
2.3606634
1.0654933
0.97161192
0.34078672
0.37567042
1.1287809
1.1224226
0.38764633
0.35275603
0.96650921
1.0571627
2.3407864
3.919612
5.1550659
6.179259
6.1863108
5.5452962
4.0066855
2.6413281
2.6856939
4.9451431
6.6077265
5.5614431
4.8768125
5.0517067
2.6145751
0.88170307
0.3229089
0.31098638
0.88336774
2.7229054
5.1235747
5.719427
6.3277917
6.8298131
7.1794552
7.4442701
7.3112885
7.3508294
7.1494972
6.9208931
6.9363777
6.9670854
7.1813609
7.079653
7.0506207
6.7742822
6.8199818
6.8542094
7.0128329
7.278714
7.538865
7.6970769
7.5702515
7.3089126
7.2645094
7.4416683
7.4120975
7.219106
7.2363286
7.0338101
6.8863915
7.1370556
7.1222643
7.0316176
7.2981391
7.5912988
7.5279886
7.1789356
7.2297896
6.9526137
6.6524438
6.6207381
6.6667318
6.9863042
6.8918494
6.8577327
6.4675314
6.525453
6.4095681
6.8250379
7.1423853
7.0904798
6.4387661
6.7843849
6.3459598
6.2715537
6.7399167
6.7816564
6.3412717
6.3960496
6.4595347
6.568359
6.7037013
6.7411846
7.0485375
6.9599058
6.9434155
6.8800464
7.2196213
7.2505703
7.3298746
7.0849314
7.172387
7.1869185
7.2829638
7.0875698
7.0698929
6.9176307
6.9439236
6.804266
7.1006941
7.0159744
7.0016737
6.6501736
6.7748268
6.5862836
6.672102
6.7636525
6.8430064
6.9872058
7.3088683
7.5702155
7.5387473
7.278444
7.2185406
7.2361043
7.1362972
6.884794
7.0331542
7.0115259
6.7760543
6.9373976
6.8056218
6.7272466
6.7039339
6.682685
6.5106093
6.7314836
6.4068438
6.3737724
6.0486096
6.1242392
5.6680978
6.0868351
6.409559
6.7342355
6.69658
6.3362578
6.3773115
6.0614156
6.4684851
6.5175451
6.1345713
5.678806
5.5985495
6.0348041
5.4254281
5.5856529
5.0187786
5.1363229
5.499607
5.7240976
5.9567971
6.1532424
6.3521901
6.5230091
6.5435072
6.4264952
6.604343
6.5834345
6.3951456
6.2007923
6.2286223
6.3766512
6.4674138
6.4900651
6.4010506
6.5699144
6.584008
6.7406052
6.6454405
6.6321949
6.4514104
6.471498
6.2787564
6.4198759
6.2262632
6.2090393
6.177703
6.0128069
5.9730013
5.7427674
5.7785106
5.9857605
6.1417739
6.4695256
6.7775256
6.806413
6.4914311
6.4050926
6.5731634
6.7294947
6.706873
6.6863516
6.5278999
6.5472085
6.4330133
6.6091332
6.5892238
6.4030137
6.210931
6.3577601
6.3813198
6.1836567
6.1596929
5.9857871
6.0235811
6.2371853
6.2625493
6.456641
6.6360685
6.6482499
6.7422613
6.5864648
6.4758199
6.284522
6.4230022
6.2302015
6.213718
6.0516731
6.075991
6.0998715
6.2598752
6.5448778
6.5601155
6.8659403
6.7924511
6.7740344
6.6206337
6.6105372
6.4959085
6.5119299
6.6815204
6.7032885
6.7122886
6.8028001
6.6516982
6.6412867
6.5299367
6.5450309
6.3601316
6.4925385
6.4781534
6.4605894
6.4464749
6.3056129
6.3241338
6.1199434
6.2710794
6.2946002
6.3063064
6.1592849
6.140379
6.3424564
6.214136
6.422935
6.6191388
6.5976372
6.4039519
6.3857547
6.3646828
6.5624041
6.5479289
6.5200229
6.4969808
6.2948485
6.2407787
5.7554902
5.7308143
5.8034607
5.4568879
6.0774327
6.0109566
5.3560876
4.5798222
5.1257607
4.2481877
4.4061411
4.5157094
5.2069688
4.6753216
3.772863
3.6386044
2.7773622
3.9885948
5.0077086
5.8068022
5.1925266
5.6790878
5.7613987
5.8838958
5.112683
4.8624909
4.7442972
3.5128718
2.8725502
1.9294314
1.9244896
2.8370471
4.0723528
3.5605658
4.1400465
4.3544719
4.6077787
4.8598885
5.1084664
5.3340571
5.5551058
5.7565053
5.9630524
5.9914141
5.7562456
5.7283709
5.4906988
5.5382668
5.7905766
5.8226621
6.0234182
6.1825229
6.0187729
6.039599
5.8410498
6.0682605
6.0423049
6.2549004
6.1132141
6.3349338
6.5423697
6.7378072
7.0471074
7.0291964
6.9402735
6.9578287
6.6058263
6.5595481
6.6981805
6.4886896
6.2798978
6.0517014
5.4048557
5.776791
5.7006175
5.2993533
4.9252527
5.0334051
5.8475255
5.7236803
5.635976
4.6565467
4.7770877
3.4001433
3.9281251
4.5888836
5.1687939
5.0852906
4.1849386
4.4931818
3.5410375
4.371774
4.4799446
3.6689064
2.6508475
2.6135672
3.8528847
3.3647721
1.7585154
1.7300364
2.3559564
3.1910341
3.9946883
4.6394488
5.1984947
5.6278734
6.0000759
6.3844311
6.8360009
7.2185806
7.2503534
7.3297211
7.4416045
7.2643083
7.28294
7.186742
7.1718776
6.9167665
7.0696249
7.0874719
6.9435316
6.8034093
7.1003631
7.0840217
7.00056
7.015417
6.6807094
6.6464711
6.7729017
6.5828638
6.6697828
6.7622777
6.8423856
6.8658016
6.7917384
6.7730667
6.6799625
6.5095852
6.6191548
6.6086485
6.4924299
6.3012359
6.4441277
6.544006
6.5595932
6.4769602
6.6404197
6.6511449
6.8023573
6.7115539
6.7019582
6.5282301
6.5439237
6.3584419
6.4916708
6.3051408
6.2927004
6.2686733
6.4585639
6.3207434
6.1154494
6.0935281
6.2565659
6.0689189
6.2318242
6.2609078
6.1091188
6.0847759
5.8933774
5.8686947
5.6268303
5.849149
5.8119356
5.7938698
5.7518604
5.526252
5.4767893
5.2120616
5.2577796
5.5359988
5.266302
5.2212485
4.9083611
4.9697925
5.0141507
5.2988025
5.5632437
5.8116617
5.605895
5.8704266
5.8365447
6.0825265
6.307119
6.5129835
6.4121884
6.3858492
6.1486666
6.2762917
6.0544603
5.8984136
5.9347594
6.1879753
6.2191543
6.4460291
6.4623113
6.557908
6.3581098
6.2454018
6.1345728
6.3796223
6.3601764
6.3240955
6.2936799
6.1987948
6.2309415
5.9540196
6.069054
6.0288863
5.9044364
5.5850004
5.7443066
5.7826403
5.630989
5.2598911
5.4600384
5.653338
5.6000866
5.7973186
5.5304807
5.5667638
5.3427691
5.2933982
4.9405379
5.2292022
5.2771832
5.0069496
5.0564174
5.387688
5.6925195
5.9690256
6.0006127
6.1399356
5.9011978
5.7290348
5.5501923
5.8596644
5.8227425
6.1040351
5.9935603
6.2721722
6.2928755
6.0277475
5.7196354
5.6765619
5.3129737
5.5060349
5.1521228
5.097913
5.047349
5.4060779
5.1906477
4.9883066
5.4351236
5.7959193
6.1193195
6.4478525
6.8756809
6.8963043
6.8571704
6.4421244
6.5011477
6.5477762
6.9402914
6.9573327
6.9210587
6.9038775
6.4924929
6.5341537
6.5862743
6.3126631
6.3748396
6.4516892
6.5293254
6.6173897
6.5951671
6.5033541
6.4909766
6.2710512
6.3806228
6.4002775
6.2930571
6.3154797
6.4201413
6.4378777
6.6286531
6.5400354
6.3349718
6.236966
6.4646479
6.388447
6.1456529
6.120015
6.2143563
6.1891404
6.4247958
6.4098092
6.3278406
6.3437166
6.0906961
6.0612487
6.1635007
5.8941936
6.0294809
6.1649964
6.1881233
6.0564214
5.7949384
5.9559098
5.9294447
5.7627133
5.5913264
5.6303899
5.9259681
5.7986801
5.7600194
5.4146676
5.3642671
5.1770691
5.5849187
5.9293919
6.2239485
6.200016
6.1560294
6.0859159
6.0471598
5.6964371
5.7546256
5.8463027
5.890479
5.8027578
6.1340776
6.1595452
5.8452743
5.783626
6.1187057
6.0912414
6.0411175
6.0161738
5.9741672
5.5914077
5.6530671
5.6866346
5.7376347
5.7055176
6.0675891
6.0955214
5.7523143
5.3264296
5.3730297
5.4648023
5.4100909
5.5356232
5.4836547
5.3534339
5.2992008
4.7877205
4.8688258
5.0567887
5.1170401
4.9339931
5.0001609
4.8580085
4.7872149
5.3140311
5.2538306
5.2038971
5.1465592
4.558217
4.641665
4.7185945
4.0536889
4.2821199
4.5548151
4.8347388
4.7726575
4.2806244
4.6399711
4.7040441
4.3638874
4.429182
4.8960394
4.9566265
5.2025828
5.4295469
5.6403991
5.3585622
5.5949221
5.3347617
5.6032599
5.8152419
6.0433075
5.8497643
5.6044063
5.5737798
5.7972744
5.5763504
5.3063915
5.3413828
5.0542729
5.0918832
5.3685051
5.6365203
5.851761
6.071859
6.0874575
5.8648832
5.6597056
5.8986902
5.8757623
5.633811
5.374317
5.4041918
5.6582228
5.8626381
5.6536492
5.6809426
5.9174386
6.1372006
6.33996
6.2099184
6.2304087
6.1053744
6.0815162
5.8245523
5.9807684
6.0041956
6.1568475
5.9392705
6.1241547
5.9065412
5.8942874
5.6874259
5.8961361
6.1108395
6.1254656
5.907587
5.707979
5.9420654
5.9214075
5.6851623
5.4328893
5.4588812
5.7059639
5.4561251
5.7045264
5.4912422
5.7575725
5.7309989
5.7027929
5.6727874
5.469069
5.5062768
5.1914264
5.4288289
5.3946794
5.1479252
5.1030528
4.8192035
4.7618647
4.3482976
4.7043252
5.015161
5.3189646
4.9677306
4.92299
4.5903956
4.6499644
4.2833711
4.6437427
4.5866926
4.2066358
3.7991852
4.2283367
4.2852684
3.8625482
3.7945229
3.2872055
3.3685154
3.8649285
3.9273384
4.3392771
4.6940489
4.7408703
5.0579118
4.755603
4.3936969
3.989393
4.4088639
3.9976429
4.4958338
4.5653084
5.0167161
5.2514659
5.2988897
5.0769499
5.4629601
5.5094767
5.8347022
5.9560871
5.9840684
5.8682568
5.5527024
5.7017629
5.8522136
5.5742307
5.5411508
5.2322016
5.4607723
5.1726769
5.4287341
5.3991482
5.1268085
5.1598885
5.190657
4.9052553
5.2062238
4.9441468
5.2705441
5.0374171
5.3865494
5.3439316
5.6668495
5.1357191
5.1919852
4.7807653
4.7090783
4.9850115
4.9308818
4.8751062
4.4707026
4.8051434
5.0983069
5.1362858
4.8533708
4.4993964
4.827069
4.7847143
4.4465743
4.0530517
4.1185504
4.532791
4.1508258
4.6364088
4.2977522
4.838829
5.2951249
5.6775617
6.0012635
6.2798183
6.260867
6.200679
6.221178
5.9255576
5.8873906
5.967208
5.6320822
5.5184181
5.5703104
5.1366477
5.067572
5.2358854
4.7643615
4.6925817
4.6234106
4.3532425
4.4281612
3.7356136
4.1288159
4.0548467
3.9857967
3.913375
4.4934094
4.2173972
3.5142329
3.5968209
3.6614978
3.3101209
4.1248682
4.2014515
4.0783987
4.7835438
4.7110098
5.2653643
5.2749551
5.7101015
6.0698075
6.4438408
6.8576143
7.2188289
7.5912713
7.52749
7.1034468
6.6333377
6.2072182
6.7470036
6.2042462
5.6179583
5.0338035
4.9736888
5.6034443
4.1047778
2.7890539
2.8143451
4.0089199
5.1934772
5.2987313
6.2097199
6.7528282
7.1044024
6.2118342
5.6136021
4.119448
2.4479134
1.0059681
1.0977568
2.394102
1.1484722
0.40130192
0.36634005
1.054862
2.8627528
2.8855353
4.0268458
5.6298143
6.6420122
5.0754137
5.5567532
3.9060382
2.3343114
1.1328462
0.39307876
0.35768694
1.0378263
2.379236
0.94099136
1.0335779
2.6618622
2.6123339
3.9916247
5.5393388
6.6058389
4.9358879
4.8666834
5.0422458
2.580169
0.85463395
0.32733197
0.33670533
0.91917004
2.7854833
5.1469978
6.4244527
7.0866348
7.1403789
7.2290543
7.1767015
6.6470536
6.8545989
6.7791988
6.7326308
6.7764655
6.8214391
6.4008482
6.3281688
6.2544217
6.334316
6.4608515
6.5205843
6.8894509
6.9853985
6.9505333
6.6174993
6.6644252
6.7023892
7.0307874
7.2977851
7.3298598
7.2504197
6.9043491
6.9212383
6.9578337
6.9410832
6.8974701
6.8775539
6.8364935
6.3864657
6.4534715
6.5052281
6.5504864
6.4936338
6.5348623
6.587929
6.6821984
7.015825
7.0012555
6.9590011
6.9420787
6.5651213
6.6096291
6.7403928
7.0481107
7.0847232
7.1007024
6.804269
6.7745919
6.6489029
6.3345466
6.2681929
6.2073703
6.1665555
6.1412524
6.139594
6.161346
6.1839419
6.1626243
5.84188
5.8698167
5.8286267
5.7989749
5.3865425
5.4310108
5.4882155
5.4458576
4.9394433
5.0072927
4.9310498
4.8594506
4.1645253
4.2861021
4.5087923
4.5956208
3.918905
3.8202573
4.2092723
3.5856159
4.0710213
3.5675711
3.4953269
3.4296814
3.9281734
3.436223
3.3722909
3.3224046
2.8083515
2.8465753
2.1252489
2.77817
2.7320596
2.0872494
1.529634
1.5104053
2.3605619
3.254232
3.0610535
3.9310942
3.8743658
2.9973706
2.0849422
2.0698852
1.1269599
1.1583348
0.58811787
0.94359132
1.5515943
2.2450282
2.8532468
3.3982927
3.8405823
4.24798
4.6034472
4.9484516
5.2559964
5.3022855
5.589185
5.8546509
6.0965632
6.3172393
6.2881426
6.165729
6.3976843
6.4219674
6.2025955
6.2313769
6.3428782
6.1247002
6.1496525
5.9142669
5.8857261
5.7176607
5.9867825
5.9550837
5.9216977
6.0700856
5.8175101
5.632288
5.6814877
5.5026539
5.8122542
6.0892124
6.3370797
6.3088929
6.0519424
5.9349669
6.218019
6.2474827
5.9800838
6.0161662
6.1213473
6.3710991
6.4540577
6.4688155
6.2553343
6.0154016
5.7503727
5.5831909
5.8817186
6.1486233
6.3883959
6.6113095
6.5090595
6.8989892
6.8598179
6.8399991
6.8399358
7.2194596
7.5912396
7.7866048
7.8339224
7.9155766
7.8858383
7.7971351
7.7338397
7.6366775
7.5278954
7.0902035
7.1420079
6.7395075
6.4367566
6.2701343
6.3400985
6.7810335
6.8240482
6.7831676
6.3432426
6.4069288
6.5228351
6.8907148
7.2295057
7.178181
6.649605
6.8564113
6.463965
6.6180776
6.9513214
6.9855718
6.6645584
6.7020994
6.5662223
6.457353
6.3949407
6.4490415
6.4497188
6.4971739
6.5524543
6.9419273
6.9580371
6.5887151
6.6823667
6.4557002
6.5319685
6.5071385
6.4960694
6.2789301
6.2991144
6.3198261
6.3380513
6.4396005
6.6298015
6.5417525
6.4674406
6.2414879
6.2210638
6.1980467
6.4300453
6.4167622
6.1750808
6.077142
6.3370211
6.3041644
6.2859755
6.2168072
6.175621
6.1420719
5.8322921
5.8785044
5.7908548
6.1075324
6.0725094
5.736968
5.3624041
5.4900115
5.6290161
5.7771754
5.4524346
5.2553995
5.3191267
5.6711083
5.7126091
5.848438
5.5440056
5.367045
5.4126363
5.7503084
6.0464968
5.953514
6.2377505
6.1749171
6.1524404
5.8345037
5.9183399
5.5816649
5.5342499
5.1340983
5.0694125
4.8839676
4.9603603
5.4120875
5.4636669
5.512335
5.6249163
5.242194
5.188748
5.0204589
5.0801453
4.9442055
5.4226947
5.8116865
5.8724119
5.9105065
5.987162
6.2720828
6.2888127
6.3509209
6.1031007
6.1294633
6.3799931
6.3919795
6.1522077
5.8798001
5.9917508
6.1101974
6.2331186
6.0085203
5.9868269
5.9641933
6.1935629
6.1725242
5.9400892
5.7808137
6.0415408
6.0658033
5.808919
5.835342
6.0883346
5.9668414
5.9403832
5.9121294
5.6192102
5.6531765
5.4975372
5.8191365
5.7858345
5.455755
5.0806188
5.2921613
5.4933334
5.6865992
5.6569199
5.625038
5.3419693
5.3779527
5.1396124
5.4578613
5.4205183
5.3792716
5.051008
4.9876269
4.6403473
4.6974419
4.9915459
4.6601119
4.3251062
4.2501823
3.8787101
4.3115395
4.7147135
4.7763482
5.1553499
4.9179393
4.4726446
4.3918527
3.9234375
3.9918936
4.367367
3.945466
3.5011024
3.4160805
2.913109
3.4994569
4.0633798
4.137925
4.6667588
4.4189284
3.7876248
3.6994723
3.0294804
3.084076
3.5579352
2.9724839
2.3721898
2.3119479
1.7616496
2.5924404
3.3904077
3.4632739
4.2009137
4.8156213
5.3147674
5.7237751
6.0634126
6.0254806
5.6693057
5.6296945
5.9978383
6.0360675
5.6868041
5.7350376
5.7701814
6.1101372
6.1343899
6.1092531
6.0841388
6.0836661
6.0350301
5.9968921
5.7582689
5.6756413
5.1848686
4.7380943
4.8549573
5.0976322
5.8773567
5.7996729
4.9924858
3.9632689
3.4993317
2.8527624
1.9099312
1.8997807
3.5441859
4.0429008
2.7947104
2.7421238
3.6069976
4.5558618
5.3422761
6.0044755
5.7455096
6.235542
6.2899422
6.0709724
5.4429128
5.7934149
5.7193169
5.1075187
4.2237339
4.3783825
4.4882101
3.7370983
4.6498698
5.1890618
5.3183547
5.0886797
4.835855
4.5808905
4.3278427
4.1191371
3.998388
4.0060678
4.6498462
4.7397303
5.2629907
5.206238
5.2593201
4.7294766
4.7945675
4.8792408
5.3697157
5.3159569
5.3707411
5.7773282
5.819875
5.8521968
6.1740309
6.2129057
6.2307385
5.943614
6.016916
6.0468209
6.3188903
6.3331066
6.0727072
6.0062857
6.279358
6.2643157
5.9767857
5.6469805
5.7422692
5.8502601
5.5364413
5.684881
5.7146694
5.8600409
5.58573
5.7635852
5.7394644
5.7137859
5.4425113
5.4111426
5.1796256
5.2176042
5.5260246
5.5566977
5.2532051
5.4715491
5.4988128
5.2863127
4.9635861
5.2145417
5.1834727
5.1503031
5.1150596
5.0772721
5.0367176
4.7093198
4.7546661
4.4317985
4.7958886
4.7481823
5.0962913
4.8303119
5.2043253
5.2491422
4.8814386
4.5959363
5.0275381
4.9739902
4.5340563
4.0575302
4.4269877
4.4835807
4.0662904
4.0062237
4.3792179
3.9930474
4.3560299
4.3006541
3.9080181
3.5219
3.9338091
3.8677603
3.7316706
3.6243317
2.5091968
2.6979798
2.8053112
2.0321794
2.8718216
2.7606712
1.9179708
1.0667359
1.6267548
1.6287681
0.64540446
0.73057977
0.38382592
0.3449655
1.0841697
0.55404682
1.1234073
1.7519538
1.7383801
0.94724563
1.1023119
0.42302456
0.81680778
0.72755356
0.38191795
0.21394701
0.23404993
0.57911459
0.22471702
0.20579898
0.20607892
0.21072752
0.21910475
0.24171838
0.39952658
0.76209026
1.815384
3.4071319
4.6773652
5.6451907
5.7320961
5.8654748
5.7837707
4.9679191
5.0770494
4.7995713
3.4505983
4.0172091
3.9301876
2.7232938
2.7821155
1.8008279
2.1320564
3.0343702
3.8992558
4.5732498
5.1558708
5.5963328
5.9771164
6.0182855
6.0490807
6.0081173
5.6424625
5.7005008
5.6575252
5.2127528
5.278062
5.2222541
4.680717
4.7605462
4.6577094
4.7279404
4.8004288
5.3346566
5.7566333
6.0970338
6.1246721
6.0980355
5.7506186
5.7951634
5.8607739
6.1671081
6.143198
6.0960226
6.0587273
6.1320564
6.1675867
5.8661506
5.772745
5.7159046
5.8169399
5.4690441
5.3317682
5.3853513
5.5161118
5.1089724
4.9214457
4.8403139
5.0410761
5.2376733
5.6151401
5.9243504
6.2106768
6.0680329
5.999241
5.7429056
6.2359338
6.29092
5.7985193
5.440819
5.3371989
5.724028
5.1216982
4.5565604
4.2375196
3.6248747
3.7603048
4.6552215
5.203652
4.5216725
4.4125843
5.0339347
5.6022486
6.0605256
6.4669434
6.7727512
7.0498389
7.3505402
7.6366583
7.6969706
7.4120207
7.4416052
7.5701488
7.6094119
7.5387418
7.4859627
7.5337717
7.4441068
7.3104702
6.9195225
7.1490424
7.2084294
7.1811074
7.0790386
6.8189549
6.966699
6.9357232
6.696843
6.8652302
6.7343145
6.5162664
6.134014
6.4106104
6.3787531
6.3357674
6.831393
7.1794231
6.336947
5.4374375
6.0407226
6.0910567
5.6815542
5.1488877
5.6801305
5.6009964
6.0602429
6.378952
6.4103951
6.7340485
6.696474
6.4670808
6.5159835
6.132961
6.1595104
6.4699864
6.9378653
6.7776392
6.6858886
6.8535051
7.1219743
7.1368612
7.236244
7.278633
7.2188477
7.0125756
7.0337851
6.8860045
6.9174712
7.1722387
7.1868602
7.2829225
7.3088365
7.2642938
7.0699391
7.0875395
6.9437789
6.703211
6.6190808
6.5318235
6.4551122
6.3790733
6.3173286
6.2618871
6.2249872
6.2027006
6.201506
6.221382
6.257282
6.2746448
6.3286313
6.0643202
6.0346431
5.9633104
5.9964393
5.9472883
6.2403693
6.2211327
5.9221445
5.8841302
5.9106379
5.5439736
5.6204091
5.720637
5.7609176
5.6675474
5.272207
5.4071476
5.3522653
5.2050193
5.0849375
5.1618083
5.5966365
5.5602097
5.5040716
5.0210814
5.102953
4.4859528
4.5917002
4.7804879
4.9881101
4.9138913
4.6868716
4.0307736
4.3911383
4.4879334
4.1532014
3.8016364
3.6635841
4.482106
4.379737
4.2612014
3.3347517
3.5482433
3.4533956
3.3748485
3.1689155
3.1092013
4.0011304
4.0309747
3.9583758
4.1223887
4.0578916
3.2884294
3.3618587
3.1038248
3.1580259
3.2234324
4.1090437
4.2772249
4.8994036
5.3950224
5.3374129
4.8290506
4.9863649
5.4404407
5.8192542
5.9085943
6.209962
6.2324484
5.9452584
5.612923
5.4929429
5.0507833
5.2240875
5.1670441
5.5658643
5.7032765
6.0093861
6.2814153
6.2413799
6.3333381
6.3040028
6.0456977
6.084017
5.9712293
5.6593307
5.8055433
5.7688483
5.4427602
5.4939855
5.3035619
5.3543572
5.4025479
5.7429526
6.0416666
6.3005024
6.386344
6.3678779
6.1173449
6.1456926
6.2534503
6.4672545
6.4521329
6.4192648
6.3944023
6.4950327
6.5185951
6.3155852
6.1991485
6.1612817
6.2857502
6.0678999
5.9169959
5.9514777
6.0943037
5.8529734
5.6772845
5.626667
5.8152455
5.5535663
5.3287257
5.0969205
4.8382839
4.5716319
4.2977424
4.3664762
4.6341752
4.0997995
3.7225621
3.6307183
4.021977
3.4587784
2.9574441
2.4810474
2.5070485
2.1263687
1.1773922
1.199791
1.6665326
1.6711019
1.6762744
2.5504541
3.428576
4.197224
4.4398395
4.5152192
4.769656
4.702212
4.1719197
3.7961651
3.8768408
3.5052945
2.6036446
2.1621597
2.0832408
2.4062233
2.9473643
3.5052042
2.8828401
2.8269499
2.1416934
2.8919569
2.3803658
2.0731869
1.0828132
1.4847641
1.4559179
2.163805
2.1937154
3.0162803
3.1033563
3.6771656
3.0273282
3.6462847
3.7322359
4.2339282
4.5950883
4.8994517
4.5501816
4.86695
4.5474654
4.8758028
4.8375018
4.7971232
4.4816262
4.841082
4.8842143
4.529722
4.5758204
4.9247168
4.646694
5.0243109
5.371103
5.3325724
4.9784584
4.9306812
4.657186
4.71834
5.1312756
5.180265
5.2262035
5.4067228
5.067149
4.8353002
4.7777449
4.3320288
4.26153
4.5932639
4.5389636
4.1258478
4.1853237
3.7762661
3.701914
4.1914948
4.1233821
3.6316493
3.5650143
3.0329643
3.6275661
4.2064402
4.7313745
4.7942451
4.2771011
3.9329361
4.5575603
4.4873789
3.8569557
3.1457369
3.2158862
3.7003706
3.0993908
2.463686
2.4128375
1.7764174
2.6643384
3.5279094
4.2718447
4.345278
3.6005794
3.3668921
4.206286
4.8605113
4.9289424
5.0092845
5.1394846
5.2935741
5.6662259
5.7051032
5.3435316
5.1983139
5.6035617
5.5587263
5.4739986
5.5238655
5.888525
6.1936527
6.1709296
6.1502883
6.1500435
6.496431
6.9053262
6.9054021
6.9216778
6.5363096
6.2287556
6.2454828
5.9572646
5.9248938
5.8965743
6.2074713
6.2249789
5.9304361
5.5773908
5.6174659
5.686973
5.7766364
5.4367878
5.5726095
5.6066537
5.7420984
5.8834611
6.0289488
6.1788306
6.3324535
6.610296
7.0520342
7.3738849
7.6174809
7.6847106
7.8417496
7.8924937
7.9282984
7.8925144
7.7599834
7.8270893
7.7661836
7.6174635
7.6483387
7.4045664
7.3738042
7.3156908
7.4974105
7.5260372
7.3576225
7.3307035
7.1397307
7.125066
6.9729433
7.222869
7.2348117
6.9977095
7.0263826
7.173832
7.1920848
7.3764798
7.2826328
7.2678065
7.1836962
7.4199123
7.6765777
7.743071
7.4793546
7.5814784
7.6952103
7.7290425
7.5042788
7.4701196
7.4092569
7.4240269
7.2466966
7.2302859
7.0824375
7.3180937
7.3297777
7.1088651
7.1402827
7.2822076
7.4499268
7.6142206
7.4615983
7.3019021
7.3713307
7.3614117
7.2772956
7.5140437
7.284008
7.0065353
6.975296
7.2464559
7.2345021
7.1990127
6.9177688
7.0523795
6.9073414
6.981131
7.1003111
7.4045596
7.6483573
7.5261254
7.4974452
7.3156998
7.3308061
7.2349408
7.2228446
6.9728844
7.1250996
7.1397312
6.9978052
7.0265824
7.2680062
7.357691
7.3765706
7.2827762
7.0526793
7.1921263
7.1738604
6.9574923
6.9230308
6.9016271
6.8222667
6.8319788
6.7416918
6.7330232
6.5618063
6.6734441
6.6823473
6.5761903
6.5931074
6.762126
6.8492855
6.8594945
6.7709445
6.6074829
6.7119058
6.7019323
6.5422048
6.6234516
6.6098851
6.5130246
6.5255199
6.3933954
6.3767354
6.1773888
6.3316032
6.3410913
6.1948311
6.2133076
6.4102437
6.4266949
6.5558204
6.3734593
6.3624879
6.183013
6.330253
6.6234313
6.9230583
6.9016355
6.8225253
6.832096
6.6826026
6.673731
6.5624919
6.733473
6.7417651
6.5765206
6.5931679
6.7020982
6.8492884
6.8594546
6.7119484
6.6073847
6.7707573
6.7619894
6.6802306
6.8611439
7.1503037
7.3902606
7.1372033
6.8340402
6.714928
7.0567987
7.0675031
6.7433987
6.7739213
6.890156
6.7104454
6.7918461
6.8789773
6.9572922
6.6721445
6.6870798
6.6061526
6.7631772
6.7428494
6.8889153
6.8004442
6.6386567
6.6243522
6.7337062
6.576569
6.5558449
6.5422094
6.5259103
6.5134446
6.377872
6.3939416
6.1957
6.3415598
6.3630704
6.3737096
6.2305793
6.426567
6.4104483
6.2135807
6.0008503
6.18321
6.1621281
6.3037729
6.1487572
6.1615562
5.9804577
5.9609563
5.7290246
5.9373165
5.9470929
5.749675
5.7713114
6.0000594
6.0183446
6.230204
6.2488642
6.4439565
6.6245573
6.7919897
6.8790683
6.8891572
6.8005502
6.6387902
6.7429406
6.7337324
6.5765978
6.6721186
6.6871198
6.9811271
6.90742
6.9180742
6.8304071
6.8213355
6.6556983
6.7632806
6.7736284
6.6702705
6.4928942
6.6202513
6.6060902
6.5890923
6.4597069
6.2650858
6.4080011
6.3988534
6.2193358
6.3717108
6.3982124
6.2526175
6.4298668
6.4407285
6.2995991
6.2827145
6.4763325
6.3553711
6.5539918
6.7405127
6.9179686
7.1991688
7.4200215
7.6766795
7.7431639
7.8271381
7.6952488
7.5815564
7.4093282
7.4701343
7.4240362
7.3298462
7.3182305
7.0825554
7.2303754
7.2466815
7.1089306
7.1681744
7.0183165
7.0417657
6.9670356
6.9485754
6.9385253
6.851885
6.8604215
6.7020887
6.8053611
6.7961397
6.6875821
6.5103914
6.6417138
6.7380511
6.7537936
6.6720838
6.8258836
6.8361747
6.9771699
6.8898547
6.8812641
6.7191321
6.7339497
6.5602231
6.68629
6.5096506
6.4985372
6.4760738
6.6544431
6.5263883
6.3346796
6.3180106
6.466794
6.2893121
6.4406608
6.7380234
7.0182301
7.0417929
6.7538429
6.6720076
6.8258209
6.9668956
6.948468
6.9384093
6.9179159
6.7735648
6.6702418
6.8302195
6.821172
6.6554472
6.4764658
6.4595734
6.5889641
6.4081452
6.3989769
6.2488162
6.4437272
6.3214204
6.5218477
6.5049777
6.6900071
6.6053308
6.5964945
6.5741795
6.6602314
6.650457
6.457256
6.4728549
6.3736616
6.3568095
6.5652572
6.4911191
6.5014632
6.2804297
6.2620607
6.1754622
6.418717
6.4288493
6.1952979
6.2160917
6.2994337
6.3914155
6.4895111
6.2870581
6.2694434
6.2516379
6.1306837
6.150139
5.9053702
6.0482977
6.0672686
6.0855381
6.3039384
6.1873074
6.4073614
6.31639
6.5336062
6.5235148
6.4536377
6.4628489
6.2339911
5.9767176
6.0770861
6.0573393
6.1687268
5.926103
5.9459647
5.8134951
5.7911436
5.7674438
6.0365953
6.0148512
5.9067267
5.9317093
5.6371761
5.6651448
5.9547083
5.8644856
6.1434528
6.3976034
6.6545415
7.011449
7.3169032
7.3441179
7.0483706
7.104541
7.1173568
6.8020448
6.7153352
7.0619199
7.0276668
7.0148316
6.9764169
6.9653581
6.9996798
6.6239081
6.5740832
6.6060236
6.6388221
6.6861587
6.4324885
6.4871299
6.5557612
6.6277152
6.6361746
6.7202348
6.537159
6.4405499
6.4247854
6.2051357
6.2227104
6.3381216
6.1215643
6.2649697
6.2828362
6.4298635
6.4407995
6.6201717
6.4926713
6.2994989
6.0904236
6.2655472
6.2525184
6.2314142
6.2193708
6.196242
5.9839924
5.9748239
5.9474112
5.9380161
6.149414
5.9630436
5.9813631
5.7509542
5.730878
5.484149
5.7326143
5.7490595
5.5054768
5.4819287
5.2194422
5.245918
5.5066786
5.5292342
5.7731131
5.9745847
5.9838859
6.1957251
5.7901318
5.5490988
5.7879962
5.5494729
5.7903679
6.0185073
6.0375187
6.0545999
5.8280857
6.0203022
6.0122846
5.8103027
5.5698805
5.8113805
6.0123307
6.0203082
6.2311607
6.0546858
6.0371945
5.8104554
5.8280928
5.8474873
6.0730153
6.0904732
6.2653793
6.0556235
6.0470945
5.8481288
6.0472904
6.0556344
5.8648287
5.8472446
6.0728184
5.9045271
6.1393063
6.3551762
6.5538757
6.7403345
6.7504997
6.5692913
6.4734412
6.6667881
6.6583175
6.4576447
6.2401956
6.2575743
6.3720773
6.1571138
6.0208651
6.0023614
5.983897
5.9651117
6.1034701
5.8671269
5.8478108
5.8281673
5.8077569
5.7862763
5.5243496
5.5479894
5.3456075
5.6371314
5.6121183
5.3169048
4.9989758
5.2434234
5.2701811
4.9753596
4.9446514
4.911426
4.6193832
4.3012023
4.6966872
4.4005569
3.9294628
3.8522644
4.2437107
3.8287927
4.2076876
4.1559014
4.5021118
4.4555552
4.4067708
4.0241095
3.9668302
3.5822376
3.6415741
4.048323
3.6428912
3.5817271
3.5190763
3.4607196
3.0299755
3.4393253
2.9971656
3.0635597
3.4553935
2.9185182
2.5324661
2.4571943
2.1120625
2.6041016
2.6596122
3.0976969
2.603635
3.0293332
2.9612306
2.5263632
2.1435791
2.2050737
1.7878781
2.1738515
2.2284022
2.5880572
2.9764986
3.5183081
3.5801565
3.037489
2.64675
3.1865029
3.1246916
2.7203875
3.15934
3.2204607
2.7195759
3.1535641
3.0902573
2.6599538
2.2595829
2.3158501
2.7807937
2.284767
1.886607
1.8355228
1.3516381
1.656219
1.9453962
2.3148801
2.2740768
1.560831
1.2230943
1.9056143
1.8697161
1.1997909
0.65893703
0.63018469
0.90023266
0.53014175
0.29466657
0.32986683
0.23184958
0.53721641
0.99652214
1.5821918
1.6150817
1.0189844
0.82478537
1.315432
1.2772289
1.7228423
1.2980789
1.6351467
1.9679827
2.3959457
2.4354766
2.008682
1.3352308
1.7530293
1.7303494
1.3066423
1.0546735
1.0779927
1.6686466
1.3366283
0.85606861
0.83031817
0.47021454
0.57830858
0.73544587
1.1039942
1.0706141
1.7691228
2.6195533
2.2902696
3.2458467
4.0640106
4.132815
3.3013636
2.3115102
2.3415196
2.7171119
1.7901225
1.2680372
1.291243
1.3191157
1.3336474
2.2880074
3.1742986
3.1629613
3.232245
4.0553453
4.7240375
5.2559877
5.6848247
5.6274328
5.6645924
6.0226633
6.0606047
5.7191112
5.7660783
5.7330472
5.7758014
6.1081755
6.1320388
6.1071912
6.1493007
6.5071438
6.8983275
6.8592942
6.8790154
6.9427919
7.2978775
7.3297372
7.2504397
6.9215289
6.535847
6.5877707
6.9576239
6.9413404
6.5509106
6.6488815
7.0012502
6.9591831
6.6096409
6.7398517
7.047989
7.0306846
7.1218246
7.4119206
7.6968976
7.4414431
7.172033
7.0844493
7.1003993
7.0155281
6.6814344
6.803416
6.7738662
6.9168195
6.8851803
7.1364304
7.2360991
7.2782709
7.2186831
7.1808841
7.0787731
7.3504263
7.3107041
6.9188158
7.049674
6.772025
6.8182292
6.9658287
7.2075364
7.1486104
6.9346265
6.694248
6.4643691
6.3297391
6.0530657
6.1276946
6.5139327
6.7321739
6.8620873
6.3719544
6.4049339
6.0786172
5.6662308
5.5842563
5.4050762
4.9942463
5.1143329
5.6518635
5.5667735
6.0248127
6.3667892
6.3167667
6.8265886
7.1783648
7.5335207
7.4439997
7.4858718
7.5386563
7.6092854
7.5700354
7.3085446
7.2641384
7.2827016
7.1865204
6.9431657
7.0870563
7.0692579
7.0329857
7.0118839
6.8526532
6.5869608
6.4939728
6.3940328
6.304922
6.2134886
6.137527
6.0685127
6.1035604
5.7838551
5.7297712
5.8243979
5.8712912
6.1714311
6.2129041
6.2342955
6.1715593
5.8668837
5.8072426
5.4148504
5.3675646
5.3126096
4.7889142
4.8550188
4.9295976
4.8651594
5.3614498
5.3063529
5.2549905
5.2028085
4.6443264
4.7264993
4.8015761
4.942098
5.400715
5.350678
4.8654243
5.0511089
5.4778436
5.5224715
5.1155512
5.1709826
5.002022
5.4524357
5.8276107
5.9119204
5.9470626
5.6145062
5.5015207
5.0619933
5.2244264
5.2771003
5.1219416
4.9947949
4.9229986
5.4215349
5.4242448
5.4771236
5.8576544
5.8568733
6.1702197
6.1917019
6.1716485
5.8484246
5.8178061
5.885169
5.9221522
5.8952272
6.2070022
6.2245482
5.9293858
5.9546888
6.2439312