/*--------------------------------*- C++ -*----------------------------------*\
  =========                 |
  \\      /  F ield         | OpenFOAM: The Open Source CFD Toolbox
   \\    /   O peration     | Website:  https://openfoam.org
    \\  /    A nd           | Version:  7
     \\/     M anipulation  |
\*---------------------------------------------------------------------------*/
FoamFile
{
    version     2.0;
    format      ascii;
    class       volScalarField;
    location    "370";
    object      k;
}
// * * * * * * * * * * * * * * * * * * * * * * * * * * * * * * * * * * * * * //

dimensions      [0 2 -2 0 0 0 0];

internalField   nonuniform List<scalar> 
25278
(
1046.9601
987.3895
989.90334
989.90178
934.68671
987.3874
1045.3671
1046.9577
1045.3726
1029.2146
1032.0127
1034.4458
1007.7291
978.05936
897.23841
989.61034
987.28416
924.58014
911.73032
949.35022
966.07534
970.54702
974.27999
1004.0237
995.69558
1004.0226
974.2802
966.66079
957.84575
972.85609
968.51801
953.50427
940.91678
949.23879
963.51087
958.82363
966.79874
964.04509
956.14519
948.55055
952.61741
960.58966
956.8319
964.44623
971.46016
983.23215
1000.7007
996.40918
979.53168
964.62024
961.95941
946.78449
928.80349
933.77086
953.44187
961.49282
958.95827
950.88761
941.01952
944.71946
953.0417
949.61086
946.91918
957.18653
949.01806
947.95643
956.08898
945.42703
936.70814
938.28171
925.16545
929.42167
934.74683
940.21254
945.84514
953.08933
963.52576
972.86465
970.55084
944.76605
917.87956
897.30922
924.63308
911.98877
939.67044
912.87587
882.02068
848.75724
865.30415
881.47565
895.35861
878.8142
865.13953
832.79907
848.54551
878.97087
894.31922
909.26024
923.60184
907.9641
894.16454
865.15474
881.80673
908.10982
892.82165
879.05021
862.88411
808.42378
791.23077
749.88872
834.95583
848.58365
766.21599
784.17947
826.60484
845.08151
802.80729
879.57591
866.09423
866.08722
911.95979
939.6227
934.59245
864.95293
832.65808
791.18584
749.79392
834.93876
881.99153
912.83153
917.75128
944.6219
924.51199
897.19256
865.24588
848.75103
862.90203
848.57328
766.10586
808.44231
826.69271
784.05504
802.6493
879.57314
892.88155
879.09222
894.31011
878.94506
848.48021
878.69075
897.00572
881.34169
895.24783
909.15578
924.35609
923.51371
908.12775
881.91213
845.23276
758.2152
611.19851
611.51318
757.87875
843.87101
892.26588
878.5205
864.94568
878.37148
798.03957
779.70114
825.40469
736.1426
587.65762
598.99551
366.82458
351.76977
598.96644
598.73526
356.32077
371.51248
599.29751
587.12822
736.21785
825.05224
865.17524
894.08661
907.95121
892.20623
843.71539
795.69007
777.26963
864.27115
911.47324
878.34004
877.84931
896.78693
816.62759
615.00243
396.01051
391.42509
613.54247
818.82272
897.0612
909.20254
923.89432
938.11736
949.25714
957.85937
953.54425
968.54507
958.8637
940.99731
952.66979
960.63232
966.82976
964.1016
956.21635
948.64787
956.91174
964.51112
968.09315
978.63683
987.15103
1000.7011
1002.6044
993.25854
988.68834
998.27094
983.24875
974.01187
981.56601
975.62576
971.93089
978.81628
971.50546
969.00496
979.56474
996.41587
966.09457
949.4299
964.67355
953.54321
933.96732
944.87925
953.17482
961.57534
959.07318
951.02938
941.25476
949.80737
947.16912
957.32468
962.03575
946.89671
929.11606
949.18519
938.57996
937.04519
948.14075
956.24258
945.70616
953.49895
954.9455
957.53973
960.8436
968.33533
976.33796
973.86316
966.6137
964.87945
977.10737
991.96368
994.56964
983.61629
986.14252
993.52232
996.37073
990.28679
982.86888
979.19079
986.38361
982.62541
990.96988
988.43238
981.19235
972.18091
975.51473
969.45725
971.52967
973.52878
976.49065
983.19848
993.25228
1002.6016
987.1453
978.6263
973.98613
981.54504
978.78013
971.87944
975.59689
968.05837
961.65302
968.24104
969.37701
966.29199
962.66985
958.57739
948.70612
954.16079
945.52071
937.26477
929.31771
938.61507
926.20965
937.12891
945.56257
954.20675
945.90314
924.01205
937.31405
929.48318
940.34207
948.81532
938.74969
926.34091
916.81316
928.36275
899.4321
916.64973
899.95666
910.78353
927.27441
933.42229
939.75942
945.01574
950.23838
954.6374
958.74193
956.27742
960.61557
956.52127
952.02383
947.1054
951.28364
954.44943
953.58214
960.88851
958.05572
962.43174
966.06496
970.01102
967.93504
964.3266
960.05089
963.59173
958.58978
961.74177
956.50612
952.93534
949.22247
945.57666
941.12926
934.82587
939.13059
944.04301
945.11634
953.6154
961.68991
969.40702
960.91366
958.11919
962.49344
966.34879
962.73347
958.65006
954.71934
958.81281
956.38402
960.70664
956.62205
952.14692
947.24387
950.32535
954.5228
949.29826
945.10626
941.28604
945.70937
951.40348
955.15485
960.14253
964.40564
968.00527
970.06198
966.11988
963.67328
958.67829
961.79486
956.56078
952.9964
949.47706
952.9767
956.39572
960.06042
968.32588
975.10076
983.88203
980.63583
977.14866
973.11913
969.62088
967.17211
970.58276
975.01767
978.53452
982.06821
984.3016
980.16065
976.61025
974.06157
977.51632
972.32676
975.66888
972.08932
968.75205
965.22526
962.12372
965.50446
959.72499
963.43108
966.8249
970.25573
966.45204
963.08475
968.90629
965.6384
971.39327
976.40305
972.94249
967.96416
964.57652
961.11935
965.98353
962.37267
958.67468
954.50614
943.67684
934.98917
909.69226
921.52735
930.97474
923.2873
938.82977
929.81532
913.10348
890.89372
904.42359
864.75253
880.91702
891.87062
914.14314
901.33895
869.98281
857.13278
830.66477
877.90597
906.19138
925.70662
898.0949
923.34283
932.59607
934.86143
916.61008
912.47152
901.66577
868.27475
823.77146
799.8804
814.39395
844.02723
888.82416
879.45659
901.20778
904.60459
909.10032
913.97645
919.3709
924.60472
930.0268
934.98996
939.83995
944.11213
937.68669
933.47913
927.37647
931.99283
939.26602
943.06182
947.82878
952.79371
947.77334
951.3555
946.44894
952.88171
949.36697
955.05128
951.85974
957.46678
962.26468
968.24937
976.28486
968.93865
966.51967
973.79172
964.91393
957.37961
960.7345
954.37028
943.46967
938.48986
922.6687
930.65028
921.15393
912.38545
905.09626
915.64967
934.39583
932.06928
922.73162
900.34974
911.32282
876.41639
886.61547
900.19398
913.67352
903.8917
863.5793
889.63243
855.02911
880.3636
891.34294
868.01984
838.79633
825.49906
875.56085
865.13572
790.34371
804.43491
847.26495
877.22495
899.23025
914.47418
926.89534
936.07522
943.75095
953.27207
963.71363
977.05903
991.93837
994.55215
998.26172
988.67131
996.35802
993.50072
986.11309
979.15015
982.84527
990.26881
986.35149
982.57534
990.93889
983.575
981.13734
988.39386
979.15713
972.08709
975.44594
969.3749
971.46835
973.48388
976.46589
983.86338
980.60055
977.10936
974.9633
970.51956
973.0771
969.57312
967.09855
962.04734
965.18011
968.30666
975.08706
972.05501
976.5757
980.12839
984.27016
982.02466
978.48512
974.00642
977.46848
972.27682
975.63962
970.22762
966.79407
963.3916
968.71339
965.43643
959.65323
956.31093
960.01455
954.76124
959.77815
966.67294
961.49817
958.15298
953.1587
949.84979
942.59047
948.51016
944.94229
941.5817
937.6389
931.85724
927.21736
919.3109
923.78973
931.63083
923.8875
919.42301
909.79754
914.74292
918.66295
927.66834
935.7118
942.95045
937.8665
945.36572
941.54711
948.05966
953.6729
958.555
956.25411
952.05469
946.59949
949.42027
943.88953
940.43038
944.74314
951.00753
954.82373
960.02497
963.6026
965.89089
961.00556
958.35952
955.75926
961.58584
957.98784
954.22109
949.96972
947.88023
952.13389
945.89776
948.37574
944.00553
941.38732
933.86515
937.1478
941.42778
938.27607
929.00071
933.10748
937.34751
932.65352
937.11985
929.74406
934.01563
928.65135
924.14049
913.50584
920.81709
925.39338
918.5173
922.49766
932.56626
941.20328
948.56926
952.10709
955.39266
948.88563
944.74592
940.61242
948.85596
945.29256
952.2174
949.7698
955.95469
959.51743
953.32424
945.77794
942.18872
933.00294
937.0285
927.16623
923.15099
918.67034
928.46194
924.08235
920.31221
931.0393
939.22221
946.18754
954.74141
964.76798
972.05471
970.95768
960.83832
962.29739
969.45957
979.3657
986.62375
985.51233
978.30625
968.00158
975.0282
976.49987
968.27453
969.9219
971.9675
974.03774
976.33881
972.87085
970.54475
967.11744
961.81718
964.47607
967.876
965.19393
968.61084
971.31563
974.74644
979.87047
977.49266
972.01052
969.36046
975.42285
973.31965
966.90889
963.54595
965.98176
962.58205
968.51104
965.07616
963.04784
966.43389
960.15283
956.78888
959.21633
952.27155
955.51613
958.81106
962.17804
958.86528
951.46275
955.6045
952.27419
948.13412
944.03135
947.37217
955.62007
952.57718
949.21727
940.12661
936.65454
933.05836
943.03906
951.18206
957.8886
954.30549
950.48132
949.00513
944.70822
937.32653
941.91627
943.7041
947.60683
945.84806
952.87279
956.43692
949.44255
948.22211
955.52069
951.94254
948.07209
947.5393
943.21832
935.38701
940.00447
940.65106
944.60862
943.97296
951.42855
955.00038
947.59534
938.36973
939.19265
940.78899
937.10286
939.40054
935.43394
933.08587
928.58154
916.85989
922.01781
925.22538
929.32303
926.21331
930.04689
927.8616
923.94285
935.46613
931.4035
930.53806
925.99228
913.15265
918.43997
919.66117
904.34826
907.91246
912.51579
917.70843
912.96322
898.47872
906.37226
911.33461
903.98049
908.3284
921.85736
925.62321
930.81426
936.12827
941.39209
932.81825
939.20243
931.18087
938.95863
944.9773
951.40248
946.54922
939.29632
935.8242
941.62156
935.47302
927.75366
931.253
922.20973
925.58141
934.54845
942.34815
948.53826
954.80122
958.18474
951.68837
945.92731
953.23029
949.9346
942.66974
934.60856
937.86753
945.60985
951.66333
945.86318
949.18047
956.49747
963.02632
968.84849
965.5493
968.94178
965.57456
962.21263
954.7742
958.93627
962.28154
966.40264
959.82692
964.9204
958.34231
955.16942
948.9334
955.18629
961.52454
964.94219
958.35839
952.50558
959.87603
956.5535
949.2304
941.13527
944.39443
952.20914
944.36474
952.46559
946.05835
954.68175
951.3678
948.07237
944.76445
939.52635
942.84861
932.88576
939.49015
936.19887
929.54242
926.11284
919.21841
915.47107
901.67676
910.87182
919.53431
929.28492
915.58585
911.2142
902.02113
906.78616
893.3835
904.5511
899.77987
887.93526
875.7097
892.61905
897.36067
887.31474
882.03246
860.95388
867.34917
881.09754
885.61076
897.59237
908.57669
912.21497
923.11731
914.56592
901.40119
889.716
905.58453
896.18057
912.29107
916.03793
929.19855
934.27392
937.64705
932.65888
943.51037
946.85002
955.91814
958.95438
962.30146
959.25533
950.18096
954.00544
958.09855
949.44624
946.14769
936.19398
942.77546
933.09562
941.10168
937.81682
928.86142
932.11905
935.37779
925.56914
936.37397
928.12269
939.49715
932.95932
944.29273
940.97417
950.68673
936.061
939.42877
926.68112
923.1975
929.60253
926.21472
922.77364
909.27981
918.06434
926.51177
929.82313
921.46027
908.47337
918.99572
915.66086
904.9937
893.59753
897.34177
912.85471
904.08518
919.66278
913.40041
928.09664
940.05604
949.89578
958.02716
964.80735
961.40937
959.99148
963.3609
956.31682
952.93834
954.66091
946.50989
944.30474
947.72167
937.21665
933.68926
936.61032
924.49393
920.76942
916.83382
912.40702
916.5242
899.04081
905.4777
901.23965
896.61148
891.04571
907.73382
902.86966
883.3634
889.5393
894.47195
888.74902
909.01135
913.29501
911.5661
926.72655
922.76601
934.62329
934.65499
943.98401
951.43118
960.83035
970.94521
977.02838
996.34892
966.01744
924.44398
911.73264
894.2034
909.12551
894.17418
878.70471
865.15355
878.60333
892.44009
844.7
799.72395
781.21408
826.28244
865.3155
881.88421
907.93207
923.43045
924.36707
907.94754
892.61977
845.15698
759.93052
606.30658
594.01922
738.26773
602.62813
366.65683
383.5789
615.14922
802.64071
784.29433
826.84768
878.92441
911.71414
865.9224
878.22769
824.72247
735.59278
599.78073
358.68302
373.42407
611.93226
757.56294
594.33589
582.98207
776.39327
794.69822
843.39976
892.11485
911.42395
864.14737
877.72318
896.6891
815.56426
609.24477
397.07802
410.36827
621.72778
820.64954
897.2588
928.81454
946.76394
961.93308
964.53871
949.27923
933.73607
950.83867
948.99461
947.94921
956.07801
957.15652
946.9126
945.42761
936.71985
938.28584
941.00104
949.57564
958.89886
961.40225
953.35952
944.65976
952.9692
960.65
968.84214
979.44506
994.45923
991.90753
978.29301
985.49733
986.57842
979.32308
972.01487
964.73229
963.70109
953.26768
954.72402
962.27007
969.42334
967.98993
975.0135
976.45924
979.08296
988.31651
981.06188
973.72131
966.45347
957.33247
964.8556
968.15795
976.18238
983.46986
990.82883
982.46841
975.34655
972.01935
963.00586
961.38524
959.97946
959.07049
958.56325
958.56634
959.07241
962.44977
961.93024
954.50275
955.11961
951.73432
951.11355
941.93936
942.74386
946.19116
945.4002
934.13151
935.18394
931.58275
930.49073
915.74031
917.37175
920.43366
924.2084
907.64656
903.41563
909.51136
890.75887
900.2083
881.25532
876.88947
872.30807
891.95211
881.56846
876.50223
871.08806
858.91858
864.9021
831.50228
851.32808
844.86399
823.67119
799.49755
806.7446
853.31501
883.54479
880.05125
902.44373
897.22924
873.44534
839.32242
845.33778
783.6011
776.26614
672.27608
732.07768
781.02424
814.67117
837.82929
857.25574
873.03901
887.66587
900.01012
911.52612
921.13057
925.66921
934.25874
941.76049
948.24038
953.82598
949.5906
946.83428
952.23668
956.41729
951.21544
955.00465
957.59736
952.01801
955.53143
949.04546
945.5478
941.49008
948.79762
945.00195
940.72379
944.09475
937.3628
933.03009
937.67366
933.57487
941.78205
948.64828
954.42441
950.1989
944.30853
941.77042
948.16093
952.38481
946.23539
950.06423
952.45477
958.16837
960.16824
963.72696
958.51632
952.30531
944.99452
940.96755
949.12248
955.96449
961.73968
965.04025
962.45494
972.14173
971.0542
963.84019
963.82764
977.07799
996.3547
987.28021
989.6034
1046.6223
1045.2472
977.68622
974.01218
970.394
966.0371
946.87409
962.011
948.13269
929.1049
937.03936
945.69909
956.23623
957.29556
949.16149
938.56736
947.15138
949.76879
959.01939
964.59701
949.36416
933.92838
950.97964
941.22587
944.83703
953.47314
961.49654
953.12094
960.77216
957.49123
954.91897
953.49219
961.00318
961.01494
968.13042
969.57488
979.42947
986.6689
976.58107
979.22386
972.06061
974.11804
970.63902
967.22509
961.95275
965.31088
968.70992
972.09281
974.81259
979.92658
977.56053
975.50016
969.45987
966.10327
962.7278
968.62064
965.20872
959.3891
957.00504
963.20923
959.70672
956.17659
954.55929
950.7693
946.50746
939.66985
944.10445
942.36539
949.32431
945.06462
937.83152
929.30757
931.66393
934.37957
937.54743
928.98712
924.80629
929.64054
938.73395
942.59117
945.60517
937.43703
933.56317
937.14019
946.12846
953.57848
951.48532
958.10856
956.68105
953.15702
946.24585
947.96037
939.89701
935.99573
926.0447
921.22773
917.96684
923.00758
933.73629
937.68208
941.28853
943.4697
933.69471
930.04592
927.09298
930.82091
928.71952
939.7346
948.59308
949.79054
953.23215
954.91786
961.59275
964.957
966.56755
960.33106
963.693
970.03049
973.40775
967.026
959.41208
962.42724
965.67616
969.01641
962.36283
959.03413
955.72483
962.28327
958.92999
952.41512
948.34961
955.68447
959.01083
951.64217
954.92088
962.33554
959.11318
955.81216
952.499
944.33479
947.62689
943.85459
952.82249
949.51574
940.5398
929.80549
934.68998
939.79306
944.92541
941.57801
938.07974
929.51887
933.02735
926.50218
936.43865
932.9221
929.0601
919.02091
914.07884
902.68769
907.3873
915.86071
904.76471
894.00925
888.62531
877.1261
893.815
907.30521
912.18466
923.77833
918.62055
905.30677
899.94328
884.06866
889.21849
898.46919
882.43888
869.89452
863.65912
849.53716
874.30517
893.16639
898.58348
913.7698
909.50852
892.26431
886.28899
863.79222
869.66915
879.58995
855.91836
839.5301
831.78377
812.03658
853.81333
880.78657
886.89348
906.18316
920.75295
932.10496
941.13492
948.41058
944.12802
936.61519
935.93137
943.60061
947.88395
940.49204
944.40353
945.0363
952.24269
955.78308
955.26661
951.73566
951.73002
947.88254
943.59548
932.59054
923.3371
898.09112
901.64923
912.4539
916.60557
934.85215
925.70471
906.19819
877.85887
868.17141
823.56236
799.23979
813.60192
879.32791
888.75136
843.60606
830.37995
857.37587
891.02442
913.16288
929.82073
909.74143
934.99542
943.66553
938.82218
923.33523
931.05239
921.61915
904.64556
864.97411
881.34692
892.32944
870.21981
901.46313
914.36972
924.75754
919.48657
914.03076
909.08412
904.52526
901.11221
899.16416
899.21084
914.37551
915.69483
927.67797
926.77843
931.24677
919.53606
923.74451
924.9178
936.08666
935.25411
938.92007
947.97497
951.4367
952.05343
959.29453
960.1982
963.53078
956.5593
958.24164
961.59545
968.39891
971.77736
964.91517
963.22579
970.33501
966.99526
959.91453
951.389
953.50007
956.11837
947.13063
950.89613
954.16716
958.21679
949.58479
954.76827
951.47805
948.20622
939.63644
936.36923
929.878
933.16166
943.06751
946.32449
936.41165
942.88792
946.15027
939.66158
928.32495
936.4586
933.20881
929.96326
926.68818
923.32586
919.77877
908.76614
912.38188
901.9066
915.03565
911.40382
922.94343
916.22738
927.72293
931.29945
919.88806
913.35736
926.33537
922.66682
909.52935
893.70215
902.68615
906.48439
890.83533
886.84316
898.15855
883.06923
896.40887
892.24804
878.24641
861.32513
878.72192
873.56356
862.61745
851.16994
781.82267
810.23794
823.90978
766.53793
826.11227
812.59089
748.82257
654.89438
749.58437
763.27742
643.83342
640.57513
472.22142
476.10547
672.29323
552.71305
678.61446
772.01375
758.11964
627.13376
661.18021
493.27357
662.71617
667.64804
497.92494
401.19204
388.40432
538.52679
381.90123
396.69682
439.07688
386.77715
399.72724
400.57862
482.14057
648.63708
793.1814
865.78294
900.52002
922.77795
932.10506
934.45664
925.24707
905.41613
915.92088
911.47471
877.10444
887.59541
876.55171
828.53258
841.99955
807.75644
840.69642
873.97995
897.44611
913.24846
926.03387
935.40557
943.22569
947.54629
948.08608
943.77046
936.12961
940.69574
940.01645
930.57605
931.50034
927.00918
914.72952
919.88745
918.52664
922.84438
926.79581
938.39329
947.60195
955.00267
955.52626
951.95437
944.64064
948.2445
949.46522
956.43474
952.8778
949.01964
944.72906
946.20432
950.48733
943.752
941.96804
937.39562
939.28673
931.18183
928.73348
933.21483
935.55145
925.48458
922.2969
917.17215
920.61351
924.32088
933.97822
941.43542
947.88245
938.51915
929.47164
909.32617
934.73263
943.43346
930.69511
922.85224
912.61874
921.23368
904.1399
890.26314
864.35093
856.5312
869.41411
900.764
913.86313
891.74035
880.83737
900.00267
916.66396
929.27753
940.1325
948.44556
956.02921
968.37577
970.38812
1000.5257
983.08155
998.10597
1002.3829
995.38922
986.93211
972.65253
966.37514
957.65127
953.37287
940.79942
958.67146
963.30686
966.6392
963.92152
956.71506
960.4333
952.46903
945.70526
952.88115
954.0096
948.6105
938.54973
945.37895
937.13455
923.82213
937.9204
949.04014
923.81301
899.44022
928.24784
936.98891
926.17894
910.772
926.17946
916.67532
929.27505
937.12832
945.36403
953.96881
945.67275
940.1007
948.56711
938.53093
944.90063
953.41017
968.02144
961.49261
958.45569
964.32246
971.33003
978.64543
981.37546
978.4105
973.82112
967.89363
975.42852
971.74843
979.0129
985.97449
993.35861
996.18121
993.03038
988.49753
982.66985
990.08929
986.20757
978.35862
976.2322
973.94521
971.89245
969.86117
968.23237
966.82722
965.92239
965.42184
965.42869
965.93799
966.85685
970.2246
971.67728
964.78022
961.42178
959.71897
963.07499
961.88561
969.31257
968.78859
961.2727
957.91429
958.52915
949.59349
951.10145
953.24957
956.59555
954.46167
944.09524
946.81549
943.44757
940.67431
938.70577
942.17549
952.97039
952.20336
948.814
937.68787
941.19605
927.5146
928.85818
931.47884
935.07768
931.61612
927.87955
911.7528
917.18073
920.86845
915.7503
911.57266
907.24504
925.11956
921.3043
919.76217
900.09668
902.85092
898.31897
893.62756
890.47883
885.42068
907.18684
907.39001
902.65849
904.86967
899.77558
878.51296
884.79989
880.60729
885.9835
891.04343
911.75324
913.73815
928.02998
939.25541
935.54707
924.13963
926.4539
937.20611
945.88576
947.63544
954.30236
957.87531
951.19423
943.10041
940.86596
930.2471
933.23018
929.5353
939.48966
942.24733
949.7792
955.93564
952.12588
954.18964
949.95065
944.02261
948.37907
945.92342
938.36317
941.47303
937.2135
928.6091
933.22548
929.19663
933.15894
936.77047
945.81248
953.31651
959.48768
961.53446
957.94918
952.20343
955.73187
958.30576
963.53307
959.96137
956.20097
952.0071
954.29599
958.47263
953.61544
950.97747
946.58244
949.36753
943.86202
940.44843
944.74573
948.02068
941.53141
937.38919
932.72395
937.11913
929.78448
924.28775
918.95241
913.40169
908.31106
903.51774
908.52039
913.0475
897.65787
890.85207
884.729
892.1571
873.08365
861.64663
850.18218
856.44054
846.88162
787.84367
779.87817
806.39166
814.32978
821.39394
862.5148
889.99108
909.49479
912.96043
917.01399
921.1725
917.30444
902.2041
895.73248
900.21782
894.83578
868.31794
859.20576
857.39058
864.88827
875.65195
886.27349
862.13632
856.89765
837.65119
870.42793
859.232
851.43097
789.3699
812.93347
818.92581
843.59195
849.42271
880.7214
885.63854
895.10658
872.15559
885.48241
889.57185
907.86014
916.34297
924.80601
911.87795
922.29133
910.41674
922.38217
919.11338
915.79908
905.43714
918.4654
921.79162
908.84315
912.17272
925.06483
916.87366
929.98408
941.2495
937.98947
926.6924
923.34329
916.96845
920.44341
933.16822
936.46815
939.73677
944.50476
933.24888
927.15367
923.82351
908.85052
905.29868
913.51211
910.06039
894.58938
898.19152
887.25446
883.27089
901.61316
897.77345
879.10864
874.70883
861.32444
884.48339
903.04418
917.96084
921.76296
907.11201
901.37033
917.81313
913.85538
897.01149
875.03157
880.0374
888.96435
866.3669
851.59806
845.6858
826.51408
865.70995
891.90811
910.68227
914.79032
896.55628
893.46254
913.06317
927.59202
931.23506
932.32338
934.35136
937.15184
946.87661
950.20429
940.51203
937.77386
948.07998
944.7288
943.20629
946.57732
955.38397
962.63402
962.11785
958.79627
958.78703
968.11776
978.36449
978.37942
985.56109
975.11438
966.08594
969.42687
962.04841
958.73826
958.13225
965.58062
968.90444
961.4397
952.44641
953.2095
954.68438
956.78905
947.09339
950.39761
953.68229
957.4703
961.54913
965.73788
969.90076
973.80671
982.6029
998.0138
1008.6494
1016.9845
1025.8839
1032.0112
1064.3591
1067.092
1064.3608
1057.6474
1062.121
1029.2128
1016.9853
1033.2055
1024.0764
1008.6529
1003.6905
1013.0676
1028.9633
1019.0723
1011.5338
1005.3417
997.73903
993.78652
1000.9774
1008.5663
1001.2336
1008.9764
1013.0291
1021.0556
1027.3214
1024.3249
1016.339
1013.6967
1025.3105
1025.4944
1058.5604
1041.3133
1044.8761
1048.6356
1065.8676
1057.036
1040.4796
1035.1824
1043.6495
1037.4647
1029.1359
1024.9715
1032.3796
1040.6344
1033.1933
1041.7557
1045.8327
1051.7218
1061.8409
1060.4866
1054.7007
1057.5839
1048.9979
1046.3354
1058.3945
1054.8749
1037.6549
1029.1103
1037.9896
1029.7138
1021.6795
1012.7943
1016.8299
1010.5532
1014.3835
1013.8608
1024.075
1033.2059
1028.9621
1013.0641
1003.681
1011.5271
1008.555
1000.9617
993.76222
997.72451
1005.3323
1001.2159
1008.9648
1016.3307
1019.0683
1027.3192
1024.3211
1016.8227
1021.0521
1013.0222
1006.305
998.738
991.06695
987.81657
991.55101
989.23104
985.62406
981.02682
983.7012
987.31604
984.56307
988.21285
992.90368
995.1835
999.02967
996.62522
991.86534
994.70992
990.96855
986.28683
989.67815
982.59118
979.13105
982.77998
979.27906
975.77207
969.8586
973.78427
977.27929
973.31882
976.87255
982.86437
986.49808
990.07163
984.50374
980.85908
975.40368
980.9673
989.68442
998.74762
991.08235
987.84423
991.57562
987.34112
983.72993
981.06916
985.66199
989.26515
984.59947
988.24453
990.99082
995.20572
999.04893
994.73017
991.89258
996.65084
992.93427
990.6789
997.30984
1005.9593
1009.408
998.37251
989.91795
986.45403
995.88666
1003.3581
993.78578
1001.4131
1004.9762
998.12804
1000.4409
1002.7753
1006.3115
997.61669
1005.1315
1001.401
1006.2014
1002.3318
1006.7179
1004.2568
999.41577
995.66217
998.50337
993.79289
990.08893
986.30494
982.80091
979.15714
975.81369
979.31576
973.35089
977.29756
980.8688
984.51253
980.48427
986.5233
982.89496
976.8966
970.20845
975.41284
971.88821
973.7114
968.36002
971.87755
966.66276
963.23675
955.84509
961.93286
965.20552
959.22748
962.73419
970.19002
973.7494
980.46796
984.16668
990.2229
995.64055
1000.4182
1002.7589
1006.7057
1004.2421
999.40251
1002.3218
998.48702
993.7804
997.61315
1005.1298
1014.3798
1010.5448
1014.6051
1012.0779
1008.1322
1003.2874
1006.1945
1010.1592
1007.1722
1001.6836
1005.4164
1001.3962
997.66172
993.97072
987.88051
992.03107
988.29271
982.7337
988.46301
996.21443
990.29208
995.85268
999.74545
995.54909
991.69552
997.8016
994.20795
1000.3298
1005.7814
1012.7858
1021.6732
1025.3081
1025.4956
1058.564
1062.1242
1048.636
1044.8754
1035.1807
1040.4778
1043.6492
1040.6314
1032.3775
1024.9665
1029.1343
1037.4641
1033.1854
1029.9383
1022.2975
1030.7602
1026.7134
1022.6907
1018.5329
1016.0857
1020.1276
1015.1678
1018.2037
1014.1492
1011.1799
1005.6553
1009.3514
1013.4768
1021.4363
1017.4213
1022.28
1026.4611
1030.9819
1028.3748
1024.2175
1019.2769
1023.3813
1017.8288
1021.671
1015.9425
1011.8106
1007.7606
1013.4706
1009.6467
1003.4792
999.51061
1003.7722
998.13485
1004.1801
1013.4791
1022.3001
1030.7669
1021.4408
1017.4283
1022.2835
1026.7173
1022.6909
1018.5353
1014.6102
1010.1624
1007.1764
1012.083
1008.1417
1003.2938
997.80842
993.98231
997.66925
992.03352
988.29764
984.18084
990.24372
986.69988
992.75656
989.03559
994.39256
991.91164
988.27555
984.63617
987.06293
983.46106
978.30982
981.81585
979.02732
975.55606
981.11112
979.01169
982.53026
976.33901
972.89448
970.44233
976.94261
980.39906
973.85826
977.38038
979.87956
982.59656
985.41599
979.4426
975.90966
972.43939
969.06077
972.49272
964.93636
969.16191
972.65355
976.21067
983.03707
979.54759
986.18544
983.44374
989.76784
986.12982
984.02273
987.59836
980.91888
973.05711
976.17521
972.64634
975.9903
968.38718
971.90892
967.72727
964.24103
960.82253
969.18235
965.77883
962.74426
966.11834
957.01047
960.39537
969.55938
966.87274
975.21565
982.33746
991.0644
1001.5704
1006.9305
1022.692
1009.3275
1011.1517
1019.0429
1009.1961
1006.4272
1017.2291
1016.0814
1008.2294
1000.4318
993.02378
994.10312
983.77169
982.28508
989.55457
997.14111
998.66343
989.64476
991.35751
993.49883
995.67469
999.42784
1001.9505
996.49571
993.59475
989.87855
983.18058
986.87678
990.41995
983.53901
987.89016
991.69987
995.85126
999.74586
1005.4184
1001.6861
995.55147
988.75235
994.20267
990.28934
986.50755
982.7347
979.05621
972.31627
968.91203
965.21753
961.94456
968.37942
963.27781
966.6965
959.25326
955.88318
947.72355
955.59874
958.98637
951.06857
947.70157
938.67933
942.03802
951.08605
954.54548
962.49885
968.90642
972.31405
979.0551
966.25913
958.04808
966.02852
958.05572
966.26712
973.76585
977.4278
981.11752
973.58497
979.71245
976.16795
969.92069
961.67215
969.68304
976.16827
979.71248
986.5122
981.11395
977.41821
969.91172
973.58207
977.38151
984.91729
988.75148
994.20479
987.37246
983.69225
977.16631
983.68938
987.37196
981.19628
977.38257
984.91602
979.5218
987.3134
994.21485
1000.3369
1005.7921
1009.7399
1004.2076
1001.2707
1007.1841
1003.3024
997.42008
990.65153
994.49316
998.0738
991.15271
986.75413
982.92699
979.17635
975.50232
979.84466
972.08579
968.48105
964.95054
961.49079
958.10377
949.45845
952.81818
946.26942
956.23555
952.88327
942.94108
931.60659
939.75213
943.09471
932.27842
928.93176
925.63872
915.47108
905.08743
920.18806
912.29103
894.71271
891.06463
901.68058
884.14954
897.64931
894.21038
907.08498
903.67939
900.15563
886.59963
882.63041
865.96379
870.15521
886.99038
872.7114
868.46818
863.77066
858.68531
836.30406
855.17643
835.31155
841.33816
862.40478
843.99264
817.55002
809.95577
780.51081
811.60826
817.48069
842.31212
820.27221
846.9433
840.92933
812.81723
782.35493
789.63633
753.6541
787.93027
794.22313
823.31517
849.34121
867.19086
871.54144
854.29856
828.66285
851.06802
846.42673
823.04807
847.34407
851.91308
831.0914
856.93458
852.14752
825.9086
795.83694
801.52552
828.1031
800.02271
766.98479
760.59529
715.89344
757.20093
793.57931
827.10953
820.93907
788.59372
741.18208
786.79304
779.17132
731.06511
656.04752
663.38588
737.46383
672.37483
540.61577
541.51242
437.10337
594.26757
683.40272
742.20159
749.72049
693.78861
641.90632
707.78224
698.44073
744.37956
701.16958
746.91912
785.08802
820.54666
826.76261
792.62106
752.75591
799.86879
792.28625
742.81061
693.0074
702.89223
754.23014
710.40273
648.78591
636.94565
547.20554
610.47989
677.01916
752.21444
758.63098
819.75652
859.87465
852.41062
883.47124
904.28185
908.86745
888.6386
858.43005
864.23165
871.23479
833.22758
812.6144
805.85342
799.34102
791.35295
846.3348
877.0792
876.95128
883.33402
904.23267
919.51304
931.2358
940.48464
935.92496
936.60347
944.11718
948.3978
941.12279
945.02119
944.40233
947.96649
955.26848
955.76823
952.23357
953.1323
962.42119
972.10429
971.04376
964.84959
966.55156
979.48114
994.47428
991.93194
985.54556
975.0977
976.53294
986.62141
979.38986
969.53529
972.11123
981.11792
973.79722
964.9771
968.24994
976.23982
968.91812
971.38969
983.1029
1000.5235
998.11207
986.00459
983.51138
990.85462
988.35265
979.14288
982.51205
975.41485
979.06044
971.81577
978.68997
981.40574
978.43789
973.86565
966.69461
963.99908
968.41328
953.42661
940.91275
956.11988
948.58143
956.83021
960.51936
963.35387
958.73804
952.56919
945.84501
940.32617
924.02526
929.55919
938.81373
948.78383
954.13331
952.9758
937.33996
945.5768
937.2552
926.55551
917.01824
899.60877
900.34211
911.20289
926.50498
916.91615
928.49217
937.3061
923.90574
938.01829
949.0991
966.38419
957.6789
972.67096
986.9404
995.38758
1002.3818
993.03909
988.51761
996.19089
993.37656
986.23744
990.10822
982.70155
975.47675
967.9614
964.4148
956.56664
954.46253
952.20073
950.1696
948.13315
946.48894
945.04884
949.30733
942.3471
937.82104
939.65794
944.08589
950.73901
954.52698
958.06909
956.65697
949.76398
948.58306
939.71602
938.91484
935.24362
923.72689
927.57019
928.67976
924.87906
936.07367
932.08746
927.66043
926.76775
914.35308
915.65811
920.71701
922.97391
933.72103
929.29483
917.93622
921.22751
931.66002
935.98518
926.04208
930.03663
927.06009
937.65996
946.22638
947.93095
951.45606
943.44603
941.26857
930.78187
933.67808
937.13136
934.31088
932.28173
931.21912
942.40281
942.4132
945.79762
954.77578
954.76554
962.11443
962.61468
959.28176
952.03286
951.43303
955.36586
958.71804
958.1258
965.57105
968.8973
961.42911
962.02508
969.40271
966.06577
966.96312
963.50384
960.16971
953.20688
956.52887