/*--------------------------------*- C++ -*----------------------------------*\
  =========                 |
  \\      /  F ield         | OpenFOAM: The Open Source CFD Toolbox
   \\    /   O peration     | Website:  https://openfoam.org
    \\  /    A nd           | Version:  7
     \\/     M anipulation  |
\*---------------------------------------------------------------------------*/
FoamFile
{
    version     2.0;
    format      ascii;
    class       volScalarField;
    location    "370";
    object      p;
}
// * * * * * * * * * * * * * * * * * * * * * * * * * * * * * * * * * * * * * //

dimensions      [1 -1 -2 0 0 0 0];

internalField   nonuniform List<scalar> 
25278
(
101315.57
101315.02
101316.23
101316.14
101319.6
101314.66
101314.55
101315.5
101314.86
101310.61
101312.19
101313.79
101314.72
101316.69
101324.79
101316.16
101315.02
101322.46
101326.03
101319.66
101314.89
101315.26
101315.4
101312.52
101309.17
101312.33
101315.23
101313.88
101319.14
101312.76
101310.82
101316.6
101312.01
101314.91
101308.99
101315.16
101310.75
101307.36
101311.36
101306
101309.17
101304.39
101304.69
101298.63
101302.86
101305.56
101310.86
101308.53
101304.34
101310.89
101310.51
101319.45
101315.02
101313.49
101315.02
101308.51
101306.51
101312.58
101304.72
101308.92
101303.45
101302.82
101302.61
101307.75
101316.81
101315.56
101306.95
101302.37
101306.8
101309.04
101322.45
101312.62
101316.1
101310.85
101316.61
101308.48
101308.98
101312.69
101315.04
101319.44
101322.91
101324.64
101322.36
101326.3
101319.22
101323.41
101327.67
101331.3
101330.82
101329.77
101324.25
101324.59
101330.94
101334.6
101335.78
101324.63
101330.52
101328.87
101321.95
101322.93
101330.54
101340.29
101336.86
101322.97
101321.73
101330.13
101323.8
101333.34
101332.01
101340.32
101335.3
101327.21
101346.81
101360.81
101338.99
101335.45
101364.79
101329.29
101337.9
101337.1
101325.25
101318.79
101319.3
101330.37
101334.35
101330.49
101339.88
101335.1
101327.06
101323.16
101322.69
101319.02
101321.63
101324.18
101330.38
101330.73
101322.6
101326.64
101346.05
101331.7
101337.15
101359.78
101363.64
101327.9
101320.5
101329.3
101329.35
101323.21
101335.37
101323.23
101324.1
101329.87
101323.64
101328.75
101321.4
101321.17
101321.1
101335.86
101334.29
101308.83
101335.73
101343.86
101311.34
101335.39
101321.79
101330.54
101337.88
101328.66
101361.27
101359.33
101339.26
101327.56
101344.71
101343.54
101435.08
101388.69
101344.85
101339.12
101391.38
101447.16
101341.13
101341.9
101323.95
101336.57
101339.67
101329.86
101321.58
101319.9
101332.28
101368.16
101362.72
101337.96
101325.6
101329.31
101328.95
101326.29
101350.01
101313.95
101465.6
101426.97
101311.69
101345.53
101325.69
101317.58
101319.74
101318.75
101314.89
101319.05
101316.23
101310.27
101315.14
101311.99
101309.12
101304.33
101310.8
101306.92
101311.01
101306.07
101304.63
101298.4
101298.96
101302.75
101308.29
101310.53
101307.36
101301.61
101298.97
101303.88
101304.87
101305.91
101304.28
101297.22
101294.55
101300.3
101302.33
101303.47
101303.85
101307.76
101314.45
101319.37
101310.63
101314.9
101313.51
101309.04
101303.5
101308.51
101305.89
101311.96
101304.89
101302.87
101302.51
101307.66
101309.75
101318.84
101315.11
101316.43
101309.09
101306.71
101314.67
101306.15
101302.16
101293.06
101294.08
101294.98
101296.86
101291.38
101300.18
101296.95
101300.66
101302.25
101301.91
101299.27
101301.75
101294.28
101295.34
101297.14
101300.73
101296.3
101292.75
101291.49
101291.23
101286.82
101295.28
101292.12
101290.57
101283.93
101287.58
101283.2
101282
101287.82
101289.33
101293.86
101301.74
101307.55
101308.45
101302.87
101305.93
101304.34
101300.95
101294.85
101297.46
101299.15
101300.42
101299.16
101295.67
101295.97
101302.65
101304.63
101302.72
101307.04
101300.35
101307.95
101300.63
101300.62
101298.4
101302.17
101300.46
101307.13
101316.52
101319.74
101308.01
101301.13
101310.99
101302.87
101300.94
101298.71
101312.15
101318.59
101325.19
101311.67
101297.08
101296.07
101288.86
101282.86
101297.39
101286.99
101299.09
101293.31
101291.62
101291.94
101294.85
101296.19
101290.92
101292
101288.46
101295.38
101292.28
101286.69
101289.2
101286.38
101286.48
101296.48
101289.63
101288.93
101286.12
101284.18
101279.3
101286.94
101277.21
101278.06
101284.51
101285.14
101282.9
101287.03
101280.78
101289.09
101292.34
101292.34
101300.4
101295.63
101286.76
101289.66
101286.56
101296.28
101302.89
101304.8
101293.5
101291.77
101292.11
101294.57
101296.02
101291.25
101292.45
101299.38
101295.78
101284.83
101287.31
101283.59
101285.6
101288.84
101283.03
101286.25
101288.62
101289.11
101296.67
101286.49
101284.24
101279.57
101287.29
101277.44
101278.42
101277.48
101274.07
101268.67
101269.5
101278.88
101283.62
101291.1
101283.44
101292.05
101284.08
101280.31
101280.19
101279.44
101286.13
101279.18
101286.15
101289.51
101284.78
101278.12
101277.64
101278.68
101272.05
101278.86
101275.17
101281.23
101279.87
101274.9
101273.3
101266.72
101273.92
101266.54
101275.4
101265.67
101264.55
101271.22
101266.55
101273.72
101278.12
101286.07
101275.79
101277.26
101281.55
101291.23
101291.87
101298.33
101302.24
101302.31
101315.91
101317.68
101308.53
101300.01
101299.37
101301.17
101312.89
101299.33
101319.05
101325.75
101321.52
101316.39
101294.27
101297.98
101297.63
101292.69
101292.33
101329.79
101349.54
101311.77
101321.96
101326.97
101320.21
101301.41
101301.83
101301.14
101300.89
101305.67
101343.2
101349.81
101293.54
101288.69
101300.17
101302.67
101301.92
101295.66
101290.82
101294.39
101284.95
101289.61
101286.35
101291.01
101287.74
101297.66
101289.5
101277.1
101283.06
101275.79
101277.61
101281.37
101273.46
101282.17
101281.17
101281.71
101277.68
101267.28
101273.64
101277.01
101282.71
101280.75
101284.3
101291.46
101291.58
101300.39
101303.54
101301.43
101297.87
101288.98
101295.14
101296.95
101302.02
101301.91
101300.58
101298.04
101299.21
101308.06
101297.7
101310.74
101299.44
101301.15
101300.64
101320.02
101303.4
101298.44
101296.11
101299.48
101295.48
101296.81
101325.89
101320.9
101317.34
101288.75
101316.34
101292.75
101289.31
101294.67
101327.7
101350.53
101339.77
101285.74
101278.81
101294.47
101268.48
101293.29
101276.13
101293.07
101285.99
101301.04
101293.76
101301.77
101303.14
101300.88
101302.57
101304.69
101299.11
101300.97
101298.12
101296.11
101292.03
101293.14
101296.78
101292
101287.8
101296
101294.64
101291.75
101293.7
101283.99
101284.68
101288.11
101282.87
101282.55
101287.61
101289.55
101291.35
101283.36
101291.95
101286.99
101279.67
101284.29
101280.36
101280.29
101274.8
101279.5
101278.92
101283.68
101274.98
101278.42
101285.33
101289.65
101287.44
101280.1
101278.12
101279.38
101272.64
101278.88
101275.65
101266.54
101273.87
101280.99
101273.34
101266.58
101268.4
101269.28
101268.69
101273.04
101272.07
101261.34
101269.38
101258.19
101261.2
101252.51
101256.06
101265.51
101268.6
101276.76
101277.08
101275.1
101279.18
101270.97
101277.53
101271.32
101279.81
101265.24
101267.9
101252.51
101260.17
101265.69
101272.88
101269.51
101274.14
101281.57
101286.28
101289.66
101297.93
101291.89
101295.29
101287.78
101293.44
101293.71
101290.21
101284.02
101288.66
101281.54
101285.49
101285.26
101290.92
101281.24
101278.57
101275.68
101287.03
101288.53
101295.15
101301.04
101294.96
101289.84
101285.95
101286.42
101290.25
101284.34
101288.25
101291.87
101281.57
101280.33
101276.26
101276.61
101280.28
101278.2
101286.91
101290.4
101276.88
101274.19
101284.76
101268.86
101281.83
101271.68
101269.89
101255.27
101264.46
101269.98
101277.18
101272.19
101275.97
101268.98
101264.67
101259.77
101268.62
101275.16
101279.79
101277.46
101283.33
101281.57
101273.45
101265.55
101272.31
101263.6
101267.06
101260.56
101269.7
101288.29
101282.25
101272.57
101279.72
101293.39
101288.48
101301.9
101294.43
101302.54
101297.84
101296.81
101285.75
101286.81
101281.7
101291.05
101292.29
101291.34
101289.94
101280.11
101278.88
101280.65
101267.29
101268
101272.42
101273.75
101278.14
101286.03
101281.77
101277.44
101273.98
101277.1
101275.86
101272.37
101270.55
101274.11
101275.26
101284.33
101282.26
101271.63
101267.42
101279.6
101277
101263.87
101262.98
101266.48
101268.46
101281.3
101278.33
101273.21
101276.82
101265.24
101267.8
101270.66
101262.64
101266.79
101271.03
101268.95
101264.16
101254.41
101260.55
101263.29
101258.06
101252.34
101247.67
101259.24
101254.68
101258.73
101247.56
101256.27
101251.11
101262.15
101270.91
101283.55
101286.5
101292.95
101289.42
101297.7
101284.03
101284.42
101284.3
101276.23
101274.92
101283.07
101279.6
101269.7
101268.06
101280.79
101284.93
101291.15
101289.96
101299.78
101284.66
101283.49
101283.38
101274.1
101273.75
101283.81
101279.43
101267.75
101257.6
101258.02
101260.51
101269.36
101270.91
101278.36
101278.16
101290.82
101272.17
101273.9
101273.18
101261.09
101259.46
101249.73
101245.62
101257.45
101268.28
101276.78
101276.86
101292.38
101273.63
101272.1
101271.69
101261.82
101265.22
101264.5
101268.66
101282.09
101260.58
101276.17
101263.91
101263.7
101245.29
101256.69
101244.87
101249.24
101255.94
101261.6
101252.69
101260.1
101251.6
101261.57
101265.9
101278.04
101267.86
101260.67
101266.26
101269.01
101269.51
101260.62
101252.06
101243.08
101232.39
101243.07
101253.6
101256.54
101269.14
101269.67
101260.09
101249.51
101258.51
101261.63
101252.99
101243.49
101238.26
101250.27
101259.65
101249.09
101246.24
101256.02
101264.71
101271.55
101266.69
101267.9
101263.09
101261.94
101252.07
101258.41
101259.76
101266.08
101257.31
101267.12
101261.77
101250.88
101245.73
101251.32
101261.6
101267.2
101262.15
101248.12
101257.01
101255.99
101246.36
101235.13
101236.85
101248.8
101236.94
101248.21
101238.19
101249.78
101248.27
101250.8
101254.82
101248.01
101242.82
101229.16
101239.28
101244.32
101235.9
101246.06
101237.21
101250.02
101240.91
101247.92
101255.06
101261.31
101265.45
101284.41
101276.09
101262.09
101257.73
101260.58
101274.74
101257.01
101267.14
101281.99
101254.94
101253.93
101271.42
101243.79
101248.05
101248.6
101228.08
101237.36
101245.97
101232.07
101242.78
101234.39
101222.11
101206.41
101222.36
101216.52
101232.32
101218.14
101233.96
101240.09
101233.55
101225.67
101241.81
101238.4
101251.82
101256.77
101257.84
101252.76
101238.88
101246.02
101253.12
101241.4
101240.08
101225.49
101236.32
101222.43
101234.99
101237.89
101225.47
101221.5
101223.31
101207.94
101224.82
101210.65
101226.9
101214.24
101232.11
101230.57
101245.05
101221.37
101222.2
101200.61
101201.03
101212.63
101216.63
101225.21
101206.97
101221.96
101232.78
101225.81
101212.83
101194.08
101210.26
101219.39
101206.12
101186.05
101170.47
101195.2
101182.93
101207.23
101186.83
101212.52
101233.96
101249.52
101261.56
101276.92
101274.42
101270.78
101273.36
101259.42
101262.97
101264.71
101254.48
101252.11
101246.43
101230.76
101238.81
101241.06
101223.35
101236.83
101252.94
101251.39
101235.49
101220.09
101220.32
101239.14
101257.76
101274.18
101292.55
101287.53
101259.52
101259.29
101237.54
101231.04
101247.82
101228.02
101227.81
101245.5
101257.12
101267.88
101268.43
101274.12
101283.83
101286.02
101296.88
101303.3
101308.61
101314.99
101322.4
101326.25
101329.38
101328.61
101331.38
101329.47
101339.6
101331.17
101320.67
101331.6
101366.04
101362.41
101335.75
101340.91
101337.75
101323.83
101321.74
101322.48
101322.04
101321.4
101337.85
101308.47
101351.71
101349.47
101324.42
101336.64
101391.17
101442.01
101332.15
101366.61
101361.56
101340.85
101329.48
101326.43
101335.82
101329.41
101335.57
101323.87
101333.97
101393.79
101451.78
101328.82
101310.96
101332.84
101336.87
101360.9
101365.26
101331.82
101320.36
101324.81
101337.05
101327.57
101323.23
101341.26
101302.53
101487.26
101454.85
101328.9
101352.49
101328.66
101316.11
101319.8
101310.64
101310.94
101319.62
101313.16
101312.6
101316.98
101315.83
101307.09
101307.87
101302.87
101302.81
101307.25
101309.09
101304.83
101303.07
101306.65
101308.58
101315.04
101308.97
101303.66
101297.4
101303.77
101304.52
101302.67
101301
101290.05
101291.45
101292.48
101291.35
101298.02
101302.73
101301.85
101293.99
101294.78
101287.3
101282.29
101280.4
101279.15
101281.2
101284.58
101293.98
101292.14
101298.11
101301.68
101295.6
101289.58
101292.15
101300.57
101295
101296.19
101288.28
101288.71
101285.35
101274.27
101275.2
101271.49
101272.07
101270.51
101270.38
101271.57
101273.48
101272.26
101256.17
101256.76
101260.81
101260.32
101247.9
101248.64
101241.87
101240.9
101221.99
101222.71
101232.95
101232.45
101208.26
101209.5
101220.9
101208.48
101186.31
101201.43
101201.84
101171.17
101198.29
101176.88
101200.17
101221.97
101235.79
101226.45
101245.94
101290.03
101277.93
101247.54
101237.78
101236.63
101264.86
101233.84
101254.15
101225
101239.44
101253.96
101254.25
101262.2
101291.36
101261.53
101283.94
101238.01
101221.92
101227.89
101281.17
101332.08
101271.96
101306.19
101267.81
101284.38
101272.52
101284.36
101274.82
101285.02
101282.57
101272.82
101278.05
101282.43
101287.02
101290.1
101293.93
101288.51
101295.18
101291.73
101289.13
101282.01
101284.71
101281.4
101276.58
101269.77
101274.99
101271.18
101278.03
101284.89
101291.08
101294.15
101287.72
101279.76
101281.36
101278.33
101283
101287.2
101295.77
101301.32
101291.16
101285.52
101294.79
101289.72
101286.72
101278.24
101280.56
101289.13
101285.3
101284.8
101278.91
101272.97
101265.77
101261.53
101269.95
101276.33
101287.52
101288.7
101286.31
101297.46
101295.61
101300.64
101300.86
101301.6
101307.32
101314.25
101315.71
101315.19
101314.3
101316.06
101314.47
101314.34
101314.11
101318.57
101309.57
101314.87
101313.61
101306.48
101301.32
101306.28
101306.49
101315.34
101307.29
101300.96
101300.73
101305.08
101309.61
101318.44
101311.8
101311.5
101303.12
101306.64
101313.69
101307.06
101301.02
101293.98
101292.62
101292.43
101292.44
101284.08
101284.84
101278.43
101280.61
101290.34
101291
101278.63
101282.59
101272.35
101272.65
101280.78
101276.97
101274.13
101272.24
101270
101270.61
101274.51
101283.87
101280.54
101278.84
101266.27
101265.96
101268.52
101281.36
101278.83
101271.08
101268.2
101272.7
101281.11
101283.14
101287.35
101293.89
101302.25
101289.75
101285.36
101285.37
101289.25
101297.12
101285.18
101292.13
101294.33
101289.64
101292.64
101283.97
101275.34
101278.18
101281.88
101273.84
101276.47
101268.84
101265.73
101258.28
101267.09
101274.1
101271.93
101284.35
101279.07
101282.74
101275.83
101277.33
101273.07
101280.57
101275.9
101282.47
101275.51
101276.63
101280.33
101271.54
101262.86
101264.54
101254.23
101264.08
101262.44
101252.55
101249.3
101261.01
101268.9
101270.5
101263.44
101265.46
101275.18
101277.12
101275.65
101265.25
101262.28
101266.61
101274.7
101262.41
101251.75
101257
101262.27
101267.32
101259.28
101258.4
101260.95
101269.17
101271.5
101263.94
101259.01
101267.4
101264.45
101255.04
101252.11
101261.74
101256.79
101259.98
101263.78
101253.93
101248.82
101243.27
101255.65
101260.12
101249.44
101237.91
101243.07
101249.69
101255.85
101262.74
101270.59
101262.41
101253.83
101247.8
101257.67
101266.14
101275.77
101271.48
101270.88
101278.26
101263.98
101266.63
101261.37
101259.28
101258.8
101269.19
101283.81
101278.33
101266.69
101272.34
101271.77
101266.95
101264.81
101275.97
101258.4
101258.59
101251.96
101252.25
101248.74
101269.65
101292.97
101278.26
101262.88
101269.16
101270.21
101264.76
101265.63
101284.36
101255.59
101253.3
101244.1
101246.18
101242.63
101262.45
101298.22
101274.63
101260.83
101267.89
101274.75
101279.26
101284.25
101292.06
101301.33
101287.28
101285.36
101298.76
101289.39
101284.22
101274.3
101275.04
101285.7
101281.51
101278.45
101283.04
101283.88
101290.19
101299.68
101300.14
101319.74
101323.49
101305.09
101298.58
101297.68
101299.52
101320.28
101308.19
101346.18
101341.96
101342.14
101290.17
101279.3
101297.31
101297.31
101292.17
101322.51
101285.47
101316.88
101295.83
101311.63
101316.07
101314.07
101299.28
101298.4
101295.6
101296.15
101304.73
101323.32
101320.16
101311.13
101288.56
101286.3
101292.63
101293.15
101281.7
101284.78
101281.01
101289.96
101288.03
101293.4
101293.98
101295.09
101276.83
101279.53
101294.04
101293.56
101279.18
101275.29
101260.49
101261.01
101270.88
101270.22
101260.29
101268.19
101260.33
101261.34
101272.2
101270.17
101271.99
101259.43
101261.82
101258.41
101267.17
101274.09
101258.19
101254.9
101269.79
101262.04
101255.49
101243.28
101247.03
101251.91
101238.78
101245.3
101245.23
101252.48
101241.19
101249.54
101248.58
101251.59
101240.13
101245.38
101237.6
101230.6
101244.22
101240.76
101226.16
101236.69
101238.06
101226.7
101211.01
101224.87
101223.07
101226.95
101234.07
101244.06
101256.22
101246.6
101232.79
101223.74
101236.71
101250.1
101257.04
101252.93
101263.18
101252.17
101240.31
101235.72
101248.54
101260.07
101248.84
101240.91
101244.86
101227.02
101210.34
101231.56
101239.01
101230.88
101239.11
101253.83
101249.88
101247.68
101250.87
101274.53
101291.62
101351.6
101279.99
101330.13
101288.63
101283.07
101289.22
101333.33
101272.33
101372.82
101438.28
101302.14
101301.83
101375.13
101249.17
101281.54
101283.01
101389.57
101300.47
101304.03
101433.4
101312.65
101367.83
101255.59
101387.21
101314.37
101291.41
101451.39
101512.29
101665.56
101474.64
101436.63
101451.52
101199.57
101228.48
101516.26
101265
101388.01
101294.61
101343.59
101305.29
101321.02
101301.52
101301.5
101322.52
101310.17
101299.76
101300.44
101300.73
101299.56
101349.46
101324.22
101293.71
101289.77
101288.33
101263.52
101292.64
101274.25
101292.84
101284.93
101299.8
101290.01
101291.47
101301.34
101286.32
101283.68
101283.91
101277.48
101277.24
101293.36
101276.66
101272.28
101273.16
101258.12
101246.82
101258.35
101268.22
101279.5
101281.18
101285.29
101274.51
101268.54
101270.66
101280.12
101283.47
101289.78
101297.73
101302.2
101293.36
101284.87
101285.02
101284.41
101289.05
101293.74
101290.83
101278.99
101279.13
101274.13
101275
101272.82
101280.5
101273.79
101288.73
101285.1
101295.42
101300.91
101312.52
101316.92
101316.01
101302.15
101299.37
101298.41
101297.96
101307.84
101325.17
101317.22
101318.48
101289.42
101290.26
101295.9
101296.9
101292.75
101314.91
101297.16
101312.05
101301.04
101311.18
101306.26
101311.64
101310.96
101315.28
101310.85
101305.79
101304.81
101307.47
101309.01
101308.51
101312.74
101313.81
101319.14
101316.75
101312.16
101315.18
101308.91
101310.72
101307.55
101304.91
101304.59
101309.26
101316.69
101308.47
101307.13
101303.06
101300.9
101300.48
101307.94
101320.16
101318.62
101314.73
101319.33
101325.62
101318.54
101302.23
101298.75
101296.39
101298.79
101311.69
101300.69
101308.14
101300.54
101307
101316.45
101310.58
101302.61
101300.82
101287.71
101292.68
101299.31
101300.73
101304.8
101299.08
101303.21
101301.2
101304.37
101302.91
101306.07
101299.5
101297.69
101295.32
101292.5
101296.5
101298.31
101300.97
101301.58
101299.3
101293.46
101296.78
101292.33
101281.01
101278.99
101274.88
101273.43
101269.2
101268.25
101264.77
101264.15
101262.8
101262.53
101263.56
101263.83
101272.72
101275.21
101259.95
101259.13
101256.62
101257.18
101254.68
101271.91
101271.07
101254.04
101253.39
101253.92
101238.1
101242.77
101246.46
101247.5
101243.24
101225.62
101231.3
101230.45
101226.26
101217.98
101219.63
101239.34
101238.66
101237.47
101218.8
101221.07
101191.16
101186.47
101201.34
101210.53
101208.13
101202.12
101180.14
101181.16
101184.31
101176.27
101155.14
101141.8
101181.66
101190.98
101188.22
101151.34
101154.49
101181.96
101207.52
101208.18
101230.18
101247.27
101249.17
101264.09
101262.77
101293.89
101269.35
101255.35
101257.51
101233.6
101212.39
101230.22
101229.96
101246.81
101258.73
101268.8
101258.28
101260.94
101270.3
101275.68
101277.02
101287.01
101284.09
101271.83
101263.33
101261.83
101251.8
101252.88
101262.43
101271.8
101273.36
101278.37
101284.1
101290.48
101295.53
101301.32
101290.79
101287.06
101286.6
101281.2
101282.35
101292.29
101282.91
101277.53
101277.26
101265.09
101258.17
101266.89
101274.5
101282.37
101287.54
101289.1
101280.64
101276.62
101279.46
101286.09
101286.41
101292.6
101295.97
101302.27
101298.21
101290.23
101289.24
101288.55
101293.85
101294.06
101290.74
101284.75
101286.88
101282.26
101281.03
101279.24
101287.33
101290.66
101285.44
101288.71
101282.89
101292.99
101287.7
101266.88
101265.85
101259.51
101261.66
101260.97
101275.2
101290.76
101279.27
101296.24
101241.89
101244.46
101231.73
101234.81
101255.34
101227.95
101189.87
101218.18
101233.19
101249.1
101253.43
101238.36
101239.13
101254.61
101241.72
101240.76
101224.67
101211.03
101183.3
101183.42
101174.06
101176.29
101198.44
101197.79
101172.25
101206.96
101205.03
101225.08
101214.11
101210.19
101179.18
101184.93
101136.75
101174.78
101140.65
101172.56
101149.57
101146.56
101098.62
101157.23
101144.2
101173.53
101190.18
101208.25
101187.26
101205.56
101185.93
101205.88
101210.89
101220.08
101207.88
101224.47
101215.27
101195.88
101188.23
101209.83
101193.53
101213.73
101232
101236.17
101219.33
101228.35
101221.57
101210.46
101229.59
101224
101222.87
101232.04
101213.66
101200
101202.43
101180.07
101190.67
101200.52
101212.26
101190.53
101174.96
101161.99
101180.65
101204.89
101222.14
101203.9
101226.26
101215.82
101235.4
101244.93
101258.04
101243.03
101226.83
101225.4
101241.98
101257.01
101243.43
101234.77
101209.65
101209.44
101182.8
101181.62
101213.96
101200.49
101228.24
101239.42
101255.18
101237.46
101216.69
101216.96
101237.92
101248.74
101235.67
101236.89
101241.46
101244.19
101256.81
101251.4
101236.64
101232.94
101248.37
101254.43
101251.88
101244.98
101256.79
101273.45
101270.39
101269.28
101270.05
101277.58
101288.35
101288.26
101289.11
101276.02
101262.95
101269.96
101251.59
101252.47
101251.06
101259.93
101267.15
101249.87
101235.17
101237.44
101241.83
101246.39
101229.87
101237.96
101240.4
101247.68
101254.61
101260.79
101266.68
101268.6
101280.41
101295.22
101301.25
101305.57
101309.81
101312
101313.6
101314.52
101313.71
101312.55
101312.74
101310.18
101305.22
101309.35
101307.31
101300.97
101295.93
101302.99
101308.19
101300.07
101301.29
101300.96
101293.55
101292.33
101293.71
101299.48
101296.2
101300.68
101301.37
101308.21
101305.66
101305.67
101299.48
101297.12
101306.69
101307.77
101311.96
101309.43
101310.31
101310.09
101312.53
101313.37
101310.61
101306.38
101309.6
101313.2
101309.98
101309.61
101307.31
101310.7
101312.73
101315.05
101315.17
101311.47
101313.17
101312.29
101315.35
101313.45
101312.82
101312.11
101312.84
101312.83
101315.62
101313.05
101309.59
101305.83
101303.79
101304.54
101305.59
101295.82
101304.22
101302.96
101307.56
101309.59
101308.99
101304
101296.45
101301.75
101300.73
101294.94
101293.42
101294.33
101301.62
101297.42
101301.97
101300.87
101300.8
101306.16
101306.77
101306.76
101308.8
101302.29
101297.39
101295.7
101288.64
101281.08
101290.06
101290.66
101280.87
101279.65
101279.92
101289.48
101283.24
101285.71
101286.37
101284.53
101293.02
101296.07
101290.32
101295.69
101286.12
101279.36
101293.11
101280.7
101273.74
101281.08
101277.34
101273.34
101267.49
101269.11
101281.96
101272.32
101276.66
101280.64
101286.01
101287.08
101291.26
101278.41
101269.35
101283.32
101292.85
101295.26
101288.03
101280.72
101289.69
101288.69
101279.1
101278.64
101279.44
101289.03
101282.04
101284.28
101284.97
101283.83
101292.4
101294.7
101288.77
101294.27
101284.57
101280.52
101292.96
101297.03
101300.48
101291.26
101288.37
101284.39
101287.89
101295.25
101289.63
101296.53
101298.59
101287.17
101291.55
101288.48
101296.55
101295.43
101306.33
101295.51
101301.15
101301.39
101296.64
101300.3
101296.8
101291.84
101292.53
101285.92
101286.54
101278.59
101280.8
101273.4
101272.39
101276.16
101271.26
101281.44
101277.5
101290.53
101281.61
101284.42
101279.18
101275.29
101269.57
101268.71
101271.1
101273.77
101261.34
101271.22
101265.17
101259.66
101251.18
101255.24
101271.15
101258.48
101265.48
101270.89
101278.4
101283.15
101288.5
101290.22
101293.51
101293.55
101289.59
101297.36
101302.01
101298.41
101302.35
101293.97
101287.11
101295.92
101306.64
101304.65
101296.98
101302.37
101307.65
101301.79
101301.99
101302.55
101308.48
101306.1
101305.18
101302.29
101296.79
101294.45
101295.92
101295.17
101300.65
101290.06
101281.43
101291.71
101302.27
101294.69
101301.93
101309.1
101306.03
101300.53
101300.39
101299.62
101301.2
101297.67
101306.27
101305.12
101307.82
101308.84
101312.54
101313
101310.42
101311.04
101307.13
101310.89
101310.01
101311.44
101308.46
101310.63
101310.76
101313.58
101313.49
101309.57
101307.86
101311.53
101309.34
101306.61
101303.69
101308.75
101311.8
101311.93
101312.88
101309.77
101309.04
101308.8
101305.33
101311.08
101315.12
101311.7
101315
101315.85
101310.1
101314.57
101313.95
101314.19
101315.86
101316.57
101312.92
101318.38
101318.08
101314.77
101308.35
101312.11
101313.88
101310.23
101311.73
101306.17
101309.6
101310.65
101307.15
101311.28
101314.93
101310.73
101314.04
101308.41
101305.94
101302.52
101301.63
101307.64
101304.68
101306.23
101299.95
101300.4
101298.75
101294.26
101293.84
101299.93
101288.82
101286.83
101288.49
101285.84
101289.54
101285.74
101289.48
101290.69
101278.8
101284.11
101285.12
101276.65
101274.78
101278.23
101274.77
101271.2
101272.86
101270.57
101280.57
101270.7
101267.01
101263.14
101266.09
101278.67
101267.13
101271.24
101274.43
101277.95
101280.87
101275.14
101271.91
101267.76
101263.26
101267.63
101259.81
101265.77
101270.54
101277.66
101281.13
101278.26
101283.25
101280.12
101286.11
101275.13
101272.68
101286.53
101277.5
101271.21
101274.62
101267.46
101271.73
101265.72
101273.45
101268.85
101260.28
101253.39
101262.77
101258.11
101252.93
101258.01
101246.68
101254.5
101263.33
101258.68
101267.63
101269.83
101286.53
101293.31
101298.11
101305.86
101293.7
101295.48
101303.73
101303.52
101302.79
101302.26
101302.16
101292.63
101292.11
101284.06
101286.14
101280.6
101277.85
101284.23
101293.28
101294.74
101279.83
101283.33
101283.5
101287.66
101298.32
101295.48
101294.96
101293.73
101287.81
101284.06
101291.3
101292.4
101291.61
101293.54
101298.94
101300.69
101308.48
101301.67
101303.74
101304.63
101304.5
101301.41
101293.61
101290.74
101280.45
101280.1
101284.64
101268.67
101271.38
101255.47
101261.17
101258.93
101264.16
101257.76
101250.73
101241.57
101249.38
101258.22
101250.6
101241.96
101229.89
101240.2
101249.94
101259.08
101262.98
101268.75
101284.66
101280.42
101274.9
101270.69
101273.7
101269.74
101273.69
101276.9
101283.68
101291.38
101291.2
101297.88
101284.96
101281.91
101280.1
101280.38
101285.34
101298.03
101291.07
101292.92
101285.28
101283.19
101292.47
101300.26
101299.54
101305.78
101301.72
101309.57
101301.66
101297.66
101301.13
101309.35
101306.42
101299.05
101298.04
101297.46
101297.88
101297.42
101299.13
101295.84
101301.96
101303.84
101303.69
101305.57
101298.03
101298.54
101297.18
101303.36
101303.06
101304.3
101304.33
101297.22
101289.76
101281.25
101283.98
101280.91
101272.91
101264.43
101258.11
101252.02
101242.04
101249.95
101240.5
101251.26
101244.6
101231.75
101219.5
101231.46
101241.75
101230.9
101217.67
101208.03
101189.33
101165.69
101194.43
101177.14
101140.31
101146.72
101164.97
101131.68
101163.33
101173.64
101192.11
101204.02
101219.57
101207.44
101229.5
101220.49
101195.36
101208.82
101191.83
101222.03
101243.26
101285.76
101270.59
101253.24
101271.46
101237.98
101240.29
101240.21
101240.2
101244.55
101274.6
101288.93
101231.46
101239.08
101241.5
101244.18
101272.92
101246.41
101277.65
101239.54
101252.02
101238.25
101201.2
101205.99
101213.33
101218.57
101187.55
101181.72
101169.81
101172.61
101208.85
101198.73
101209.82
101174.14
101168.42
101185.85
101217.79
101206.33
101202.11
101149.66
101149.11
101149.9
101152.64
101210.12
101192.88
101180.24
101182.7
101194.9
101227.36
101228.81
101227.65
101226.94
101285.82
101222.87
101275.56
101216.85
101217.72
101210.7
101215.92
101191.2
101250.57
101385.41
101274.1
101331.72
101229.65
101238.84
101273.43
101250.57
101333.26
101262.08
101327.64
101331.15
101284
101308.47
101234.33
101228.73
101229.99
101235.99
101280.14
101227.47
101281.39
101244.67
101231.14
101248.6
101271.98
101271.16
101381.33
101383.88
101273.1
101332.31
101223.8
101235.92
101249.59
101251.38
101262.64
101269
101255.38
101239.68
101228.04
101197.23
101196.04
101154.38
101155.4
101200.16
101237.87
101241.8
101292.11
101269.19
101268.34
101260.19
101267.32
101274.08
101278.4
101283.53
101285.35
101285.4
101299.65
101290.18
101283.03
101273.51
101273.77
101267.55
101279.32
101279.41
101283.79
101282.1
101284.41
101296.2
101295.79
101301.01
101299.69
101302.35
101300.23
101298.89
101289.1
101275.06
101276.2
101289.51
101288.8
101278.39
101280.75
101289.11
101295.89
101285.91
101288.08
101298.45
101301.78
101300.51
101303.24
101309.6
101302.15
101292.92
101292.02
101293.09
101290.57
101279.13
101282.84
101283.86
101287.68
101291.13
101298.39
101302.51
101300.01
101304.29
101309.51
101305.36
101309.15
101315.31
101309.93
101309.66
101303.42
101302.11
101301.16
101306.72
101314.2
101306.53
101315.36
101308.9
101318.04
101296.7
101297.31
101299.82
101304.75
101306.2
101304.65
101296.29
101298.59
101294.37
101309.09
101323.23
101290.81
101291.27
101293.93
101308.34
101316.95
101304.64
101318.13
101317.66
101313.24
101312.52
101318.34
101311.51
101306.71
101307.4
101305.7
101298.68
101296.72
101298.49
101294.75
101287.2
101292.08
101288.5
101293.27
101295.42
101295.36
101293
101300.11
101292.77
101299.12
101293.47
101299.99
101296.94
101288.61
101283.11
101283.33
101286.35
101282.63
101291.36
101284.74
101281.45
101278.23
101267.89
101267.35
101259.04
101259.52
101269.61
101259.49
101247.52
101246.89
101258.74
101269.06
101277.59
101292.65
101293.06
101276.65
101276.7
101272.83
101273.11
101277.56
101290.3
101272.63
101277.43
101291.35
101277.09
101271.81
101259.36
101258.7
101268.78
101273.42
101274.11
101268.59
101260.47
101259.7
101248.35
101249.15
101238.5
101236.72
101234.19
101234.3
101249.95
101250.82
101243.69
101255.64
101254.83
101271.17
101271.17
101270.02
101259.57
101259.62
101254.92
101250.32
101250.11
101260.56
101267.72
101248.77
101249.26
101267.54
101260.46
101260.45
101270.82
101269.1
101260.49
101256.25
101257.8
101273.88
101272.03
101261.67
101252.29
101250.89
101249.7