/*--------------------------------*- C++ -*----------------------------------*\
  =========                 |
  \\      /  F ield         | OpenFOAM: The Open Source CFD Toolbox
   \\    /   O peration     | Website:  https://openfoam.org
    \\  /    A nd           | Version:  7
     \\/     M anipulation  |
\*---------------------------------------------------------------------------*/
FoamFile
{
    version     2.0;
    format      ascii;
    class       volScalarField;
    location    "370";
    object      T;
}
// * * * * * * * * * * * * * * * * * * * * * * * * * * * * * * * * * * * * * //

dimensions      [0 0 0 1 0 0 0];

internalField   nonuniform List<scalar> 
25278
(
299.99809
300.00035
299.99963
299.99953
300.00324
300.00004
299.99876
299.99801
299.99904
299.99989
299.99998
299.99921
299.99994
300.00119
300.01719
299.99964
300.0004
300.01096
300.01847
300.00576
300.00185
300.00155
300.00154
299.99997
299.9972
299.99983
300.00142
300.0007
300.00279
299.99864
299.99808
300.00395
300.00713
300.00411
299.99707
299.99949
299.99534
299.99579
300.00062
300.00285
300.00089
299.99549
299.9968
299.99012
299.9914
299.99339
299.99905
299.99783
299.99253
299.99873
299.99964
300.00732
300.01604
300.01198
300.00203
299.99665
299.99795
300.00385
300.0086
300.00546
299.99886
300.00121
300.00354
299.99903
300.00517
300.00614
299.99983
300.00493
300.01277
300.01106
300.02109
300.01674
300.01163
300.00724
300.00358
299.99791
299.99683
299.99839
300.00125
300.00504
300.00808
300.01688
300.01052
300.01742
300.00649
300.01071
300.02572
300.06015
300.04588
300.03063
300.02662
300.04164
300.04593
300.07127
300.06582
300.04131
300.03548
300.02221
300.0163
300.02914
300.03602
300.05923
300.05068
300.02833
300.04215
300.04938
300.05531
300.10201
300.10688
300.13537
300.07198
300.06692
300.12955
300.12479
300.09625
300.08712
300.11964
300.05398
300.06063
300.06295
300.01881
300.00672
300.00323
300.05192
300.07845
300.11438
300.13939
300.07381
300.02716
300.01111
300.00867
300.00524
300.01217
300.01907
300.0509
300.06473
300.06037
300.06896
300.13455
300.11071
300.10624
300.13102
300.12726
300.05672
300.04786
300.05464
300.04095
300.0467
300.07375
300.048
300.02018
300.03492
300.03098
300.02632
300.01318
300.02017
300.03393
300.06017
300.09853
300.21388
300.3533
300.33009
300.19361
300.08845
300.04383
300.05016
300.06047
300.05551
300.12016
300.1222
300.09646
300.19945
300.31567
300.33002
301.31987
301.08775
300.32333
300.34139
301.10588
301.34161
300.34435
300.3261
300.21554
300.10797
300.06797
300.04245
300.03572
300.05231
300.10168
300.13108
300.13125
300.06793
300.0222
300.05801
300.06367
300.05038
300.12479
300.35671
301.59947
301.57441
300.33653
300.11157
300.04176
300.03058
300.01765
300.00834
300.00386
300.00253
300.00339
299.99756
299.99892
300.00629
300.00024
299.9949
299.99483
299.995
299.99974
300.00174
299.99583
299.9893
299.98979
299.99067
299.9956
299.99869
299.99434
299.98716
299.98567
299.99026
299.99289
299.99141
299.98779
299.98447
299.983
299.98619
299.9907
299.99064
299.99174
299.99707
300.00125
300.00492
299.99789
300.00088
300.01048
300.00389
299.9974
299.99557
299.99654
300.00237
300.00648
299.99924
300.00121
299.99741
299.99855
300.00633
300.01421
300.00352
300.00867
300.01036
300.00448
299.99813
300.00251
299.9933
299.99231
299.99096
299.98987
299.98231
299.98535
299.98489
299.99104
299.99149
299.99128
299.98589
299.9877
299.98177
299.98329
299.98168
299.98473
299.97906
299.98096
299.97813
299.97535
299.97229
299.97954
299.97757
299.9806
299.97501
299.97616
299.97427
299.97506
299.97636
299.9765
299.97926
299.98738
299.99463
299.99585
299.99086
299.99187
299.98822
299.98681
299.98367
299.98489
299.99028
299.98944
299.98665
299.98201
299.98375
299.98743
299.99179
299.9992
299.99655
299.99926
300.00819
300.01388
300.00343
300.01058
300.00321
299.99878
299.99595
300.00293
300.01677
300.0077
300.01251
300.00595
299.99802
300.00214
300.00956
300.02205
300.01366
300.0371
300.02312
300.0369
300.02072
300.0013
299.99859
299.9961
299.99431
299.99296
299.99211
299.98712
299.98783
299.98782
299.99259
299.99308
299.99442
299.98823
299.98714
299.98956
299.97908
299.98194
299.98267
299.97806
299.97987
299.97929
299.98368
299.98268
299.97771
299.97623
299.9765
299.9749
299.98142
299.98761
299.98907
299.99619
299.99886
299.9905
299.98839
299.99088
299.98916
299.98895
299.98163
299.97879
299.98119
299.98193
299.98305
299.98665
299.99092
299.99116
299.98627
299.98664
299.98675
299.99139
299.99174
299.99297
299.99199
299.98627
299.98676
299.99337
299.99468
299.98772
299.98694
299.981
299.98165
299.98273
299.97848
299.97927
299.97743
299.97684
299.97528
299.97587
299.9743
299.98069
299.98071
299.97387
299.96751
299.969
299.97094
299.96579
299.97337
299.97177
299.97358
299.97038
299.97382
299.97248
299.9687
299.97185
299.96965
299.96816
299.97064
299.96652
299.96807
299.96582
299.96393
299.95943
299.96257
299.96454
299.96742
299.97155
299.97001
299.96541
299.9619
299.96396
299.96032
299.95784
299.95449
299.95746
299.96181
299.9596
299.96392
299.96809
299.97065
299.96731
299.97161
299.97652
299.97809
299.98277
299.98715
299.99221
300.00101
300.00965
300.02831
300.01865
300.0075
300.01381
300.00444
300.01394
300.02663
300.04642
300.03247
300.06999
300.05478
300.03705
300.01914
300.03121
300.05982
300.08296
300.11623
300.06129
300.034
300.01788
300.039
300.02073
300.0107
300.00822
300.02117
300.02608
300.03974
300.07244
300.10819
300.14467
300.12584
300.09654
300.04717
300.05827
300.0295
300.02518
300.01952
300.01368
300.0084
300.0041
300.00046
299.9974
299.99529
299.98765
299.98933
299.99809
300.00076
299.99124
299.98917
299.98087
299.98063
299.97716
299.98126
299.97365
299.97367
299.97485
299.98189
299.98213
299.98305
299.98326
299.98398
299.98334
299.98619
299.99159
299.9923
299.98601
299.98378
299.99272
299.99113
299.99372
300.00299
300.00727
300.01773
300.01002
300.02105
300.03039
300.03844
300.02618
300.01169
300.01427
300.02393
300.04414
300.03126
300.06539
300.05401
300.03614
300.02192
300.03495
300.07242
300.05085
300.08785
300.05654
300.03924
300.06517
300.10569
300.12378
300.06689
300.07778
300.15051
300.13572
300.08774
300.05738
300.03691
300.0232
300.0136
300.00706
300.00266
299.99558
299.99354
299.99238
299.98722
299.98858
299.99083
299.98611
299.98521
299.98235
299.9839
299.9787
299.98134
299.97947
299.97596
299.97313
299.98041
299.98257
299.98165
299.97872
299.97114
299.97618
299.97701
299.97517
299.97577
299.97689
299.9768
299.97369
299.97225
299.97407
299.97248
299.96932
299.97084
299.97434
299.97321
299.97077
299.97206
299.97113
299.96596
299.96491
299.9685
299.96697
299.97114
299.96879
299.97025
299.96638
299.9645
299.95994
299.96296
299.95815
299.96063
299.96434
299.96785
299.96602
299.9625
299.96828
299.96947
299.96727
299.96618
299.95866
299.95674
299.96119
299.9588
299.96579
299.96317
299.96465
299.97248
299.98133
299.98982
299.99238
300.00199
300.00606
299.99499
299.99144
299.99427
300.00526
300.01119
299.99846
299.98511
299.98348
299.98251
299.98203
299.98388
299.98323
299.99126
299.98984
299.98897
299.98852
299.98963
299.99523
299.99665
299.99469
299.9966
299.99921
299.9919
299.99044
299.98424
299.98467
299.97927
299.97912
299.97771
299.97811
299.9789
299.97966
299.9855
299.99079
299.99669
299.99855
299.99231
299.99425
299.99225
299.99875
300.00122
300.00539
300.00208
299.99444
299.99727
300.00148
299.99752
299.99404
300.00261
299.99907
300.00269
299.99344
299.99718
300.00736
300.01308
300.00693
299.99619
300.00106
299.98852
299.98661
299.98524
299.98449
299.97713
299.97642
299.97528
299.97638
299.97824
299.97839
299.98644
299.98558
299.9872
299.98669
299.98039
299.98002
299.9801
299.98879
299.99135
299.98799
299.99041
300.00197
300.01269
300.00651
300.01122
300.01582
300.00864
300.00351
300.00012
299.99446
299.99298
299.98614
299.98638
299.98536
299.98466
299.97606
299.98125
299.97781
299.97736
299.98114
299.97622
299.96968
299.97006
299.96562
299.96596
299.96662
299.96751
299.96882
299.97143
299.97055
299.97484
299.97239
299.97259
299.96813
299.9673
299.96324
299.96465
299.96233
299.96703
299.96528
299.96044
299.9589
299.96403
299.96292
299.95773
299.96156
299.96222
299.96687
299.97006
299.97482
299.97512
299.96983
299.96681
299.97314
299.97258
299.97059
299.97011
299.97018
299.96469
299.96382
299.96003
299.96099
299.96773
299.96782
299.96864
299.95973
299.96347
299.96362
299.97157
299.9702
299.98077
299.98387
299.98214
299.98133
299.98113
299.98776
299.99366
299.99502
300.0017
300.00566
299.99818
299.99635
299.98893
299.99054
299.98893
299.982
299.98261
299.98364
299.98258
299.98968
299.9959
299.99644
300.00327
300.00792
300.00029
299.99956
299.99176
299.99242
299.99017
299.98297
299.9842
299.98667
299.98578
299.98414
299.99375
299.99136
300.00031
300.00297
300.01158
300.02025
300.00977
300.00585
299.99513
299.99877
299.98702
299.98968
300.00167
299.99562
300.00502
300.0061
300.01477
300.02508
300.01453
300.01285
300.02501
300.0201
300.01406
300.00758
300.01914
300.02955
300.02027
300.00751
300.0154
300.00044
299.9952
299.98217
299.97849
299.97588
299.97434
299.97352
299.97261
299.97181
299.97163
299.97213
299.97313
299.9727
299.97175
299.9815
299.98091
299.98179
299.98282
299.97125
299.97137
299.95793
299.96055
299.9625
299.96438
299.96687
299.96087
299.9572
299.95422
299.95823
299.96503
299.96251
299.96011
299.95003
299.95391
299.9574
299.95471
299.94788
299.9532
299.95794
299.96234
299.96031
299.95736
299.95511
299.95869
299.9536
299.95555
299.95184
299.95493
299.94948
299.95368
299.94811
299.95182
299.94733
299.95167
299.95651
299.95345
299.94798
299.94304
299.94911
299.95278
299.94753
299.94182
299.93629
299.94278
299.93645
299.94332
299.93843
299.94563
299.95022
299.95695
299.96519
299.9654
299.95576
299.95074
299.95237
299.96245
299.96269
299.97554
299.97906
299.99365
299.99805
299.99119
299.98657
299.98492
299.99989
300.0124
300.02037
300.00626
300.01275
300.00465
300.01927
300.02964
300.0427
300.03003
300.01499
300.02631
300.04295
300.0618
300.0405
300.02437
300.00369
299.99471
299.98893
299.9726
299.97292
299.97541
299.97548
299.98126
299.98002
299.98737
299.9843
299.96764
299.96896
299.96662
299.95545
299.9562
299.96016
299.95149
299.95686
299.95753
299.95327
299.95188
299.94506
299.94678
299.94909
299.94209
299.94773
299.94072
299.94408
299.93697
299.94203
299.95034
299.94562
299.93549
299.92867
299.92015
299.93003
299.92353
299.93372
299.92947
299.93904
299.94592
299.95221
299.94504
299.93673
299.92616
299.93686
299.93816
299.95026
299.96432
299.96155
299.95961
299.95951
299.94718
299.94477
299.93752
299.94129
299.95637
299.95599
299.95797
299.93535
299.94378
299.94496
299.95131
299.95446
299.95817
299.96131
299.96424
299.96707
299.96984
299.97553
299.97611
299.97003
299.96751
299.97486
299.97396
299.97296
299.97446
299.9651
299.96285
299.9749
299.97243
299.97247
299.98688
300.00084
300.00653
299.99193
299.99983
299.99148
300.00893
300.025
300.03951
300.02592
300.03237
300.05006
300.0346
300.01817
300.02633
300.01125
299.99641
299.99906
299.99115
300.00329
299.99663
299.99656
299.9924
299.99017
299.98541
299.98644
299.99247
299.99792
300.00194
300.01117
300.01855
300.036
300.02255
300.03626
300.05057
300.06034
300.05548
300.04428
300.08964
300.11995
300.12166
300.09744
300.05969
300.05123
300.02944
300.01672
300.01096
300.02893
300.04281
300.08776
300.19488
300.32607
300.31225
300.20014
300.32404
301.05856
301.28572
300.33164
300.11954
300.12419
300.09641
300.04985
300.01815
300.06098
300.05766
300.10647
300.21003
300.32936
301.08597
301.30474
300.33885
300.20865
300.33979
300.32196
300.13028
300.13034
300.10043
300.05206
300.02229
300.06777
300.06359
300.05031
300.12384
300.35255
301.54797
301.53741
300.33261
300.11235
300.04209
300.01614
300.00737
299.99972
299.99894
300.00594
300.01221
300.00402
300.00531
300.00619
299.99988
299.99917
300.00366
300.00497
300.01283
300.01124
300.00876
300.00137
299.99815
299.99695
300.00228
300.0057
299.99914
299.99152
299.99198
299.99283
299.98895
299.98734
299.98123
299.97747
299.97818
299.98155
299.98637
299.99314
299.99359
299.99562
299.99457
299.98486
299.97641
299.97633
299.96986
299.97057
299.97192
299.97925
299.98212
299.98638
299.99256
299.99295
299.98416
299.98392
299.9867
299.98318
299.98106
299.97405
299.97779
299.97678
299.97559
299.97585
299.97629
299.97661
299.97684
299.97682
299.97652
299.97022
299.97039
299.96825
299.96798
299.97564
299.97608
299.9765
299.97578
299.96597
299.96642
299.96523
299.96448
299.97718
299.97842
299.98299
299.98065
299.97655
299.96084
299.95897
299.97996
299.9731
299.97442
299.96605
299.96371
299.99139
300.01735
300.0077
300.0208
300.04121
300.05814
300.07498
300.05766
300.09366
300.06386
300.08574
300.11786
300.14408
300.12556
300.07302
300.04279
300.04778
300.02779
300.03979
300.06266
300.09727
300.08327
300.15053
300.16779
300.29216
300.24148
300.1819
300.12461
300.08624
300.05938
300.04189
300.02856
300.01818
300.01058
300.00479
299.99411
299.99132
299.98926
299.98803
299.98737
299.99295
299.99437
299.99331
299.98788
299.98838
299.98241
299.98186
299.98145
299.97507
299.97378
299.98145
299.98273
299.98232
299.98947
299.99658
299.99464
299.99693
299.99961
299.99126
299.99385
299.99133
299.98967
299.98869
299.99441
299.99599
299.9979
299.99586
299.9898
299.99116
299.98438
299.98326
299.98361
299.98312
299.97794
299.97654
299.97528
299.97422
299.97524
299.97593
299.9769
299.97803
299.98234
299.98285
299.9848
299.98485
299.99195
299.99205
299.99124
299.99685
299.99987
299.99926
299.99778
299.99861
300.00078
300.00104
300.00105
300.00122
300.0066
299.99865
300.00471
300.01514
300.01081
300.0029
299.9983
299.99793
300.00429
300.01008
300.00226
300.00076
299.99726
299.99813
300.00561
300.01254
300.00344
300.00846
300.00615
300.0021
299.99635
299.99907
299.99095
299.99202
299.99306
299.99357
299.98348
299.98334
299.97446
299.97455
299.97996
299.97639
299.96856
299.97
299.96553
299.96659
299.96956
299.97369
299.97109
299.96623
299.96232
299.95954
299.96161
299.96627
299.96436
299.96294
299.9578
299.96105
299.9655
299.96887
299.97342
299.97091
299.97106
299.97341
299.9784
299.98442
299.98518
299.99084
299.99716
299.99979
299.9928
299.99427
299.99193
299.99849
300.00159
300.00662
300.00413
300.00143
299.99883
300.0027
300.00646
299.99689
299.99346
299.98526
299.98361
299.98459
299.98699
299.97683
299.97697
299.97754
299.97839
299.97885
299.97944
299.98608
299.98687
299.98564
299.98716
299.99586
300.00038
300.01034
300.01413
300.00364
299.99803
299.98902
299.97977
299.97833
299.97894
299.98984
299.99273
299.98125
299.98337
299.98105
299.98009
299.97929
299.97199
299.97145
299.97354
299.96814
299.96837
299.96509
299.96011
299.96463
299.96161
299.95636
299.9504
299.95213
299.95424
299.95669
299.95122
299.95485
299.96008
299.96383
299.96909
299.96653
299.96606
299.96861
299.96263
299.95869
299.95258
299.95773
299.95624
299.96186
299.96856
299.96616
299.9578
299.95748
299.96151
299.96893
299.96683
299.9647
299.96362
299.96339
299.96391
299.97273
299.98198
299.98304
299.9719
299.97285
299.97341
299.98378
299.99409
299.99781
300.00969
300.0171
300.00308
299.99811
300.0035
300.01
300.02688
300.03808
300.02523
300.01561
300.00284
299.99773
300.00215
300.00923
300.02338
300.03629
300.01952
300.01008
300.01953
300.03324
300.05472
300.07629
300.04987
300.03214
300.01737
300.00749
300.01265
300.02582
300.04157
300.06518
300.0474
300.03255
300.05398
300.0808
300.10536
300.13019
300.07744
300.04858
300.0334
300.01712
300.0064
299.99985
299.99549
299.9927
299.99938
300.0029
300.00383
300.00008
299.99329
299.99628
299.98859
299.9879
299.9867
299.97987
299.98023
299.98721
299.98737
299.99349
300.00033
300.01145
300.02156
300.04172
300.04121
300.02748
300.02494
300.01025
300.0203
300.03843
300.06906
300.07522
300.11722
300.15168
300.13235
300.06101
300.0543
300.11095
300.13241
300.10121
300.05652
300.03271
300.01736
300.03361
300.01346
300.00423
300.00738
300.01923
300.0133
300.02522
300.04279
300.08297
300.07125
300.05336
300.07741
300.04099
300.02913
300.01203
300.0162
300.02078
300.0255
300.02955
300.03218
300.03328
300.0324
300.01885
300.0169
300.00851
300.00979
300.001
300.00812
299.99682
299.99521
299.99059
299.99163
299.98192
299.98063
299.9729
299.97252
299.97411
299.97386
299.96808
299.9651
299.96499
299.95951
299.96407
299.9607
299.95529
299.95455
299.95997
299.96371
299.9592
299.9543
299.95455
299.95517
299.94943
299.95075
299.94556
299.94822
299.94122
299.94506
299.94953
299.956
299.95143
299.96117
299.9605
299.94911
299.95425
299.94663
299.93957
299.94343
299.93793
299.93285
299.9227
299.92963
299.93642
299.94637
299.95837
299.97149
299.98492
299.98786
299.97166
299.97307
299.9727
299.98817
299.98548
299.98917
299.98643
299.97491
299.97495
299.9785
299.9773
299.98996
299.99434
300.00091
299.99327
299.97556
299.97672
299.9989
299.99205
299.99793
299.99258
300.01135
300.02171
300.03281
300.01996
300.04006
300.06781
300.08642
300.17006
300.14155
300.11651
300.19163
300.1121
300.1372
300.24711
300.43611
300.22344
300.22095
300.30577
300.25497
300.55255
300.61074
300.394
300.82504
300.37509
300.20665
300.21143
300.32546
300.41762
300.48973
300.25378
300.29548
300.53905
301.67332
301.56009
300.82598
301.6336
301.79544
303.09184
302.80462
302.7193
301.61196
300.51681
300.23843
300.14905
300.0781
300.04435
300.02402
300.01434
300.01181
300.02135
300.03907
300.02645
300.03143
300.0659
300.05487
300.06823
300.12645
300.10763
300.13541
300.09744
300.06294
300.03993
300.02513
300.0148
300.00793
300.00329
299.99645
299.99591
300.00269
300.0071
299.99953
300.00028
300.00608
300.00494
300.01364
300.02335
300.01276
300.01451
300.00318
299.99097
299.98658
299.98417
299.98298
299.98262
299.98968
299.99169
299.98358
299.98258
299.98209
299.98897
299.99505
300.00174
300.00019
299.99373
299.99634
299.99813
300.00568
300.00355
300.00863
300.01158
300.00284
300.0002
300.00564
300.00958
300.02032
300.01585
300.01123
300.00541
300.00129
299.99864
300.00738
300.01691
300.03092
300.01184
300.00322
300.01023
300.01788
300.03077
300.02136
300.03545
300.05167
300.07363
300.08999
300.06666
300.03661
300.02221
300.0399
300.0577
300.03778
300.02366
300.01431
300.00759
300.00321
300.00095
299.9984
300.00173
299.9992
299.99379
299.99124
299.99494
299.99744
299.99622
299.99899
300.00103
300.00308
300.0042
300.00747
299.9999
299.9976
299.99582
299.99619
299.99722
299.99602
300.00135
300.00407
299.9986
299.99714
299.99963
300.00388
299.99993
300.00875
300.01809
300.00885
300.00452
300.01744
300.03783
300.01433
300.00396
300.01108
300.02136
300.01041
300.02287
300.01341
300.00845
299.99967
299.99686
300.00372
300.00686
299.99906
300.00315
299.99455
299.99027
299.98755
299.99018
299.99237
299.99067
299.99187
299.9874
299.98884
299.9915
299.9924
299.99092
299.98567
299.98439
299.97957
299.98455
299.98302
299.98583
299.988
299.98675
299.9822
299.98034
299.97689
299.9714
299.96995
299.96858
299.9676
299.96679
299.96629
299.96595
299.96576
299.96563
299.96555
299.96548
299.96549
299.96177
299.96224
299.95695
299.96128
299.96126
299.95652
299.95637
299.96157
299.96155
299.9564
299.9615
299.96139
299.95723
299.95688
299.95669
299.95101
299.95062
299.94373
299.94403
299.95149
299.95202
299.9528
299.94389
299.95057
299.95067
299.95741
299.95303
299.94414
299.93683
299.93608
299.93538
299.93544
299.94528
299.94641
299.93935
299.93734
299.92432
299.9248
299.92668
299.94292
299.9481
299.964
299.96535
299.96831
299.96547
299.98782
300.00792
300.01323
300.03157
300.01401
300.01386
300.0278
300.02501
300.03727
300.05834
300.04318
300.04784
300.0314
300.01278
299.99875
299.99558
299.98919
299.98555
299.99544
300.00137
299.99836
299.99353
299.99047
299.98893
299.98787
299.98134
299.98141
299.98201
299.9839
299.98645
299.98342
299.99475
299.99119
299.98876
299.98732
299.98689
299.99246
299.99105
299.99687
299.99892
299.99244
299.99433
299.99724
299.99455
300.00219
300.00661
299.99754
300.00135
299.99113
299.98061
299.98018
299.98026
299.98072
299.98015
299.98584
299.98586
299.97934
299.97873
299.97989
299.98514
299.99
299.9955
299.99411
299.98902
299.98946
299.99078
299.99691
299.99509
299.99698
299.99943
299.99219
299.99032
299.99171
299.99427
300.00281
299.99945
300.00305
300.00754
300.01278
300.0192
300.02605
300.03261
300.01995
300.01382
300.02497
300.03482
300.05085
300.04006
300.05928
300.07647
300.08937
300.07412
300.08305
300.14673
300.16485
300.14568
300.12681
300.10263
300.05273
300.02608
300.01085
300.00596
299.99094
299.98601
300.00024
300.00827
300.0177
299.99855
300.00679
300.02787
300.0402
300.04083
300.02878
300.01286
299.99841
300.00864
300.03799
300.06756
300.03677
300.05232
300.06372
300.13247
300.1015
300.07256
300.03551
299.9974
299.98603
299.95705
299.94978
299.94287
299.93603
299.91109
299.92615
299.92835
299.93222
299.92178
299.92869
299.91924
299.92835
299.94077
299.95562
299.954
299.95738
299.94314
299.93613
299.9209
299.93111
299.92625
299.93619
299.9442
299.95313
299.94756
299.96082
299.96244
299.94707
299.95277
299.94242
299.93461
299.93768
299.92794
299.92344
299.93358
299.92229
299.94005
299.94084
299.95771
299.95407
299.93252
299.93098
299.95718
299.96006
299.98079
299.98419
300.00999
300.02791
300.01204
300.00122
299.99435
299.98063
299.98383
299.99062
299.9845
299.99902
300.00914
300.02632
300.00226
299.98955
299.99838
300.02242
300.05435
300.08524
300.04099
300.01655
300.00318
299.98822
299.99766
300.00248
299.99073
299.98479
299.97245
299.97131
299.96967
299.96808
299.96967
299.96157
299.95776
299.95848
299.96192
299.97061
299.97154
299.96243
299.96532
299.9681
299.96816
299.97436
299.97443
299.97445
299.97955
299.97962
299.97561
299.96783
299.96352
299.95954
299.95412
299.95909
299.95907
299.96343
299.95927
299.9539
299.94774
299.94788
299.94829
299.94912
299.94169
299.94335
299.93975
299.94267
299.94591
299.9494
299.95308
299.95677
299.96492
299.98021
299.98906
299.99584
299.99929
299.99987
300.00117
299.99917
300.00127
300.00373
300.00261
299.9995
299.9955
299.99892
299.99435
299.98879
299.98526
299.99156
299.99627
299.99019
299.98737
299.98172
299.97933
299.9751
299.98196
299.98408
299.97737
299.98163
299.98537
299.99028
299.9941
299.9918
299.98733
299.98519
299.99434
299.99834
300.00358
300.00063
300.00131
300.00216
300.00535
300.00611
300.00066
299.99752
300.00137
299.99964
299.99489
299.99274
299.99597
300.00039
299.99806
300.00265
300.00343
300.00429
300.00599
300.00703
300.00681
300.00705
300.00389
300.00371
300.00641
300.0072
300.00216
299.99698
299.99979
299.99485
299.99017
299.98444
299.98708
299.98215
299.98638
299.98831
299.99464
299.99925
299.99699
299.99225
299.9858
299.988
299.985
299.98274
299.97584
299.97981
299.98231
299.97829
299.98266
299.98831
299.99084
299.99474
299.99275
299.98811
299.99092
299.98601
299.9809
299.97641
299.97358
299.97079
299.97145
299.96875
299.96823
299.96372
299.96645
299.96701
299.96411
299.96553
299.96994
299.97261
299.97481
299.97222
299.96792
299.97072
299.96833
299.96419
299.96842
299.96513
299.9622
299.96274
299.95922
299.95887
299.95356
299.95709
299.9577
299.95394
299.95581
299.96083
299.96356
299.96686
299.96242
299.95929
299.95482
299.96068
299.96811
299.97591
299.9732
299.97023
299.9708
299.96641
299.96595
299.96308
299.96753
299.96793
299.96334
299.96463
299.96765
299.97187
299.97397
299.96993
299.96688
299.97115
299.969
299.9667
299.97353
299.98166
299.98873
299.97953
299.97136
299.96833
299.9772
299.97922
299.97028
299.97534
299.97822
299.97141
299.97353
299.97613
299.98035
299.97391
299.98151
299.97665
299.97929
299.97593
299.97926
299.97682
299.97329
299.96978
299.9725
299.96902
299.96614
299.96358
299.96222
299.96179
299.9583
299.95853
299.95334
299.95727
299.95879
299.9618
299.95807
299.96256
299.95999
299.95506
299.94989
299.95444
299.95268
299.95691
299.95237
299.953
299.94828
299.9478
299.94132
299.94642
299.94721
299.94202
299.94484
299.95054
299.9543
299.959
299.96302
299.96702
299.97093
299.97469
299.97702
299.98019
299.97804
299.97451
299.97683
299.97336
299.96982
299.97428
299.98189
299.98694
299.98308
299.98653
299.9849
299.98122
299.97831
299.9802
299.98399
299.98225
299.97985
299.98175
299.97751
299.97374
299.9711
299.96772
299.97034
299.96582
299.96222
299.96789
299.9772
299.9721
299.97463
299.97943
299.97765
299.97265
299.97542
299.9737
299.97668
299.97981
299.98595
299.99145
299.9955
299.9992
300.00413
300.00288
300.00244
300.0019
299.9981
300.0009
300.00185
300.0011
299.99682
299.99366
299.99547
300.00011
299.99882
299.9978
299.99255
299.99815
299.99545
299.99272
299.98943
299.98814
299.9916
299.98972
299.99091
299.98736
299.98606
299.98411
299.98547
299.98911
299.99576
299.99271
299.99398
299.99697
299.99825
299.99749
299.99454
299.99308
299.99616
299.99511
299.99593
299.995
299.99156
299.98793
299.98939
299.98815
299.98686
299.98242
299.98361
299.98204
299.98588
299.98877
299.99204
299.99773
299.99549
299.99208
299.9933
299.99475
299.99194
299.98858
299.98562
299.98311
299.98106
299.98372
299.98
299.97708
299.97421
299.9699
299.97289
299.96959
299.96513
299.96196
299.9659
299.96301
299.96722
299.96413
299.96892
299.96656
299.96429
299.96333
299.96568
299.96541
299.96045
299.96056
299.95796
299.95805
299.96324
299.96155
299.96147
299.95561
299.95593
299.9541
299.95992
299.9596
299.9535
299.9545
299.95672
299.95915
299.9618
299.9567
299.95525
299.95519
299.95234
299.95218
299.9458
299.9495
299.95129
299.95452
299.9594
299.95643
299.96155
299.95916
299.96465
299.96235
299.96038
299.96268
299.95695
299.95101
299.95363
299.95071
299.95361
299.94766
299.95112
299.94784
299.94417
299.94227
299.94933
299.94976
299.9475
299.94675
299.93896
299.94083
299.94802
299.94562
299.95256
299.95887
299.96779
299.97761
299.98654
299.99275
299.98159
299.98305
299.98857
299.98228
299.98065
299.9875
299.98666
299.98048
299.9764
299.97464
299.9757
299.96614
299.96487
299.96622
299.97158
299.97308
299.96406
299.96553
299.96739
299.9692
299.97294
299.97492
299.97099
299.96887
299.96482
299.9603
299.965
299.96735
299.96384
299.96657
299.97148
299.97387
299.97869
299.98092
299.97868
299.97653
299.97467
299.97684
299.97149
299.9667
299.96168
299.95786
299.95328
299.9492
299.94703
299.94629
299.95214
299.94741
299.94777
299.94164
299.94103
299.934
299.94088
299.94168
299.9352
299.93416
299.92607
299.92767
299.93498
299.93856
299.94442
299.94942
299.95357
299.95835
299.9494
299.94437
299.94912
299.94397
299.94875
299.95348
299.95805
299.96338
299.96036
299.96356
299.95783
299.95416
299.95044
299.95446
299.95816
299.96393
299.9673
299.96442
299.95901
299.95494
299.96121
299.96763
299.97004
299.97569
299.97742
299.97541
299.96949
299.96714
299.96912
299.97505
299.97318
299.96676
299.96899
299.96677
299.96926
299.97205
299.97509
299.97829
299.98229
299.9794
299.97796
299.98091
299.97659
299.9733
299.97014
299.97545
299.97693
299.97479
299.97337
299.96729
299.96131
299.95577
299.95879
299.95459
299.94949
299.94551
299.94317
299.9429
299.93545
299.93608
299.93037
299.93861
299.93849
299.92974
299.91926
299.92686
299.92815
299.91931
299.91691
299.91991
299.9103
299.90002
299.91566
299.90879
299.88933
299.90746
299.91368
299.898
299.90874
299.92811
299.93485
299.95328
299.97297
299.9761
299.99967
300.00642
299.97759
299.97448
299.97884
300.00691
300.0329
300.05535
300.07714
300.05707
300.07958
300.05224
300.03715
300.06026
300.08278
300.11653
300.15054
300.10486
300.07349
300.04948
300.07624
300.05287
300.07904
300.11023
300.14662
300.10713
300.14863
300.11098
300.06209
300.04496
300.03017
300.01117
299.98296
299.99642
300.00122
299.98491
300.02032
300.03372
300.01753
299.98218
299.99457
299.98895
300.02266
300.03825
300.05814
300.00151
299.98917
300.00547
300.01282
300.08626
300.1512
300.12414
300.09363
300.06289
300.09806
300.15519
300.23625
300.13807
300.17294
300.27598
300.37857
300.37414
300.23097
300.29873
300.43845
300.39141
300.56463
300.55329
300.37476
300.22404
300.18436
300.33259
300.41153
300.23205
300.29008
300.20154
300.28437
300.21504
300.16164
300.11372
300.08677
300.12621
300.21328
300.13823
300.16529
300.25462
300.35265
300.30956
300.17521
300.22583
300.38598
300.46432
300.73857
300.52993
300.35847
300.22183
300.20942
300.11012
300.0618
300.07047
300.03798
300.01987
300.00586
300.0213
300.05061
300.02776
300.0171
300.05511
300.07848
300.10661
300.12838
300.14991
300.08597
300.05353
300.0547
300.03896
300.02062
300.00869
300.00143
299.99659
300.00418
300.00399
300.00019
299.99335
299.99639
299.98866
299.98884
299.98083
299.98034
299.98025
299.98725
299.98692
299.98321
299.98482
299.98486
299.99182
299.99145
299.99156
299.98702
299.98568
299.97544
299.96766
299.96802
299.97585
299.97973
299.97449
299.97479
299.98018
299.98486
299.98279
299.98264
299.98516
299.99102
299.99093
299.99247
299.99811
299.98928
299.98244
299.98113
299.97839
299.97672
299.96908
299.97101
299.97569
299.97734
299.98305
299.98582
299.98719
299.99013
299.9914
299.99526
299.99567
299.99766
300.00406
300.00836
300.00091
300.00391
299.99735
299.99609
299.99736
299.99984
300.00206
300.00588
300.00955
300.02164
300.01861
300.00729
300.00093
299.99815
299.99987
300.01268
300.00286
300.00958
300.01803
300.03116
300.04703
300.05054
300.03372
300.02021
300.03335
300.02084
300.01375
300.02368
300.0114
300.00523
300.00044
300.00286
299.9982
299.99493
299.99611
299.99324
299.98562
299.98463
299.98323
299.98033
299.97379
299.9773
299.97992
299.98417
299.99034
299.99016
299.9935
299.99447
299.99562
299.99666
299.99788
299.99887
299.99975
299.99295
299.99575
300.00332
300.00213
299.99476
299.99221
299.98631
299.97959
299.98
299.98022
299.98067
299.9819
299.9822
299.99198
299.99729
299.98517
299.98455
299.99663
299.99165
300.00109
300.00997
300.01028
300.01949
300.01889
300.00807
300.00645
300.00009
300.00896
300.01733
300.01472
300.0073
299.99861
300.00419
299.99312
299.99513
299.99075
299.9881
299.98726
299.9796
299.98016
299.98115
299.98324
299.98164
299.97016
299.97123
299.97224
299.97274
299.97241
299.9722
299.9628
299.9655
299.96557
299.96817
299.96815
299.97436
299.97292
299.97304
299.96552
299.95909
299.95907
299.96339
299.95916
299.95382
299.95386
299.95921
299.96341
299.9635
299.96812
299.97421
299.97262
299.96539
299.9653