/*--------------------------------*- C++ -*----------------------------------*\
  =========                 |
  \\      /  F ield         | OpenFOAM: The Open Source CFD Toolbox
   \\    /   O peration     | Website:  https://openfoam.org
    \\  /    A nd           | Version:  7
     \\/     M anipulation  |
\*---------------------------------------------------------------------------*/
FoamFile
{
    version     2.0;
    format      ascii;
    class       volVectorField;
    location    "370";
    object      U;
}
// * * * * * * * * * * * * * * * * * * * * * * * * * * * * * * * * * * * * * //

dimensions      [0 1 -1 0 0 0 0];

internalField   nonuniform List<vector> 
25278
(
(120.02613 0.0076555758 0.007586689)
(120.0158 -0.0032427483 -0.017706737)
(120.01515 -0.002323199 -0.0065694544)
(120.01585 -0.0060474759 -0.0049916789)
(119.9892 -0.019652439 -0.0094419954)
(120.01805 -0.019906763 -0.0073488646)
(120.03116 0.0057759207 0.00086549369)
(120.02677 0.0080431187 0.0062528534)
(120.0289 0.0024817124 0.0066135544)
(120.03528 0.0030612244 0.00083453313)
(120.03233 0.0014849225 0.00061479136)
(120.02801 0.0041875088 0.0023600126)
(120.02155 -0.0059660709 -0.008491755)
(120.00836 -0.012180212 -0.015235869)
(119.891 -0.033665913 -0.060228887)
(120.0155 0.0014668995 -0.0083736887)
(120.01569 0.0011655471 -0.018432197)
(119.9252 -0.046616888 -0.081722969)
(119.8649 -0.017839017 -0.12077895)
(119.95746 -0.024668894 -0.10698327)
(119.99873 -0.0094782992 -0.056166589)
(120.00324 -0.018108137 -0.042429209)
(120.00691 -0.019288643 -0.028990556)
(120.02663 -0.01230751 -0.018372912)
(120.04014 -0.025356067 -0.030826786)
(120.02771 -0.016574647 -0.016864524)
(120.00773 -0.026829806 -0.024772467)
(120.00413 -0.041549141 -0.048010425)
(119.98268 -0.037245133 -0.067701792)
(120.01117 -0.037641451 -0.067759411)
(120.01241 -0.03776107 -0.086484042)
(119.97262 -0.037394974 -0.09195924)
(119.95185 -0.077917359 -0.14263729)
(119.97068 -0.071142518 -0.099019743)
(120.01624 -0.066035153 -0.099912459)
(120.00227 -0.060675427 -0.11690942)
(120.02514 -0.057964069 -0.11353419)
(120.02364 -0.05727558 -0.13460513)
(119.99418 -0.058697782 -0.140205)
(119.98012 -0.088038123 -0.17609051)
(119.9914 -0.088283235 -0.14196789)
(120.02511 -0.083266094 -0.13961029)
(120.02106 -0.083432325 -0.16807287)
(120.06338 -0.075140905 -0.14864064)
(120.053 -0.050203347 -0.11861066)
(120.04819 -0.028561616 -0.067812789)
(120.0312 -0.010073045 -0.02802065)
(120.03644 -0.0082106105 -0.038688469)
(120.05144 -0.022291886 -0.084472773)
(120.00455 -0.02776332 -0.10593175)
(119.99726 -0.010429443 -0.11937949)
(119.94468 -0.0083807024 -0.11598362)
(119.87816 -0.017535439 -0.20258323)
(119.91583 -0.056721181 -0.18955285)
(119.98331 -0.05160661 -0.15664972)
(120.01627 -0.051548923 -0.1543361)
(120.00826 -0.040869155 -0.17624752)
(119.96974 -0.038165786 -0.17805371)
(119.93813 -0.063283675 -0.23517658)
(119.96084 -0.080911613 -0.20357645)
(120.00594 -0.079272016 -0.20177584)
(119.99169 -0.065163134 -0.23267776)
(119.97032 -0.043210212 -0.25628952)
(119.99838 -0.026250668 -0.18988428)
(119.95775 -0.023753256 -0.18545106)
(119.9502 -0.0071170705 -0.19400613)
(119.99308 -0.0082003302 -0.19919515)
(119.9609 -0.014117019 -0.26893253)
(119.9001 -0.013865735 -0.25893871)
(119.9134 -0.039882036 -0.24686889)
(119.82529 -0.059321969 -0.31716646)
(119.87277 -0.091663761 -0.30165003)
(119.91363 -0.11479849 -0.25345228)
(119.94585 -0.12402637 -0.21478969)
(119.96983 -0.11574046 -0.16563223)
(120.00516 -0.11437244 -0.12592774)
(120.01709 -0.093335653 -0.078339776)
(120.01248 -0.06466849 -0.048733761)
(120.00501 -0.043155974 -0.026793727)
(119.9737 -0.041050469 -0.028277594)
(119.95319 -0.030939958 -0.02320028)
(119.89302 -0.057999509 -0.044247922)
(119.92703 -0.078749774 -0.058189974)
(119.87056 -0.1301914 -0.034956505)
(119.96174 -0.056030576 -0.01955885)
(119.93604 -0.040443847 -0.015285927)
(119.83045 -0.094879584 -0.024409644)
(119.60759 -0.13510202 -0.067356625)
(119.72084 -0.089020799 -0.086182829)
(119.82013 -0.06393935 -0.071252691)
(119.83655 -0.081484718 -0.089406567)
(119.7341 -0.095776366 -0.10984937)
(119.71693 -0.074903626 -0.091761951)
(119.53521 -0.12831987 -0.13567369)
(119.56124 -0.14530724 -0.15468436)
(119.73841 -0.10575129 -0.10797364)
(119.76948 -0.12484849 -0.1208598)
(119.85973 -0.088694551 -0.097334013)
(119.88862 -0.1090219 -0.1186097)
(119.79978 -0.13583452 -0.16617848)
(119.76536 -0.10802396 -0.1301027)
(119.58742 -0.17953813 -0.19036726)
(119.63005 -0.22251491 -0.23278672)
(119.80389 -0.15951965 -0.14884364)
(119.70459 -0.24494905 -0.1208468)
(119.66592 -0.18941743 -0.094757764)
(119.62942 -0.15868839 -0.084191996)
(119.26061 -0.28887674 -0.12790309)
(119.22396 -0.24730137 -0.11624492)
(118.87325 -0.26150961 -0.057103974)
(119.49739 -0.12390752 -0.02667126)
(119.51507 -0.13558113 -0.034222996)
(118.89949 -0.29399884 -0.067943586)
(118.90336 -0.37427157 -0.093892326)
(119.29619 -0.36106815 -0.14904337)
(119.35992 -0.44098038 -0.19930942)
(118.91795 -0.48666681 -0.14863983)
(119.58337 -0.23117806 -0.057858497)
(119.55301 -0.15902303 -0.04053755)
(119.54009 -0.183161 0.0081831467)
(119.86693 -0.1523473 0.013787189)
(119.96244 -0.064360275 0.0026905805)
(119.99028 -0.024535141 0.0016075888)
(119.6846 -0.11366168 0.12074266)
(119.48715 -0.1832936 0.16623267)
(119.16936 -0.3177796 0.13055545)
(118.84345 -0.30277198 0.0254126)
(119.48494 -0.14247206 0.0020692587)
(119.8242 -0.11484379 0.0059708829)
(119.93515 -0.048873081 -0.00032793917)
(119.95252 -0.045416462 0.018798587)
(119.97524 -0.05527176 0.023713271)
(119.92384 -0.10761758 0.062004292)
(119.88572 -0.085796437 0.048691109)
(119.69441 -0.13118119 0.10038155)
(119.58191 -0.17909578 0.066948588)
(119.60343 -0.20773783 0.084712589)
(119.50247 -0.15681764 0.004687048)
(118.86631 -0.34358853 0.030947309)
(119.20417 -0.36637056 0.14505616)
(119.2378 -0.44617498 0.17433221)
(118.86578 -0.43349348 0.050669334)
(118.8758 -0.55967551 0.098375933)
(119.57019 -0.26289911 0.020183982)
(119.67911 -0.30337996 0.12428931)
(119.64112 -0.24142734 0.096064729)
(119.74626 -0.17315039 0.13729606)
(119.71237 -0.15172568 0.12357303)
(119.51212 -0.20547884 0.18632675)
(119.70216 -0.13753801 0.14098386)
(119.88093 -0.055620629 0.080190649)
(119.80167 -0.098236504 0.089688593)
(119.81969 -0.11791817 0.10989589)
(119.84558 -0.12497519 0.11801414)
(119.92076 -0.068043771 0.10182206)
(119.87701 -0.14717045 0.14105136)
(119.7826 -0.21269437 0.16790921)
(119.58064 -0.29158406 0.27179554)
(119.29732 -0.53535311 0.23314429)
(118.40356 -0.61725394 0.58228586)
(116.16159 -0.51418909 0.66019211)
(116.27518 -0.43993292 -0.78944316)
(118.55572 -0.4810828 -0.5020442)
(119.33536 -0.19407721 -0.44786841)
(119.68978 -0.10657798 -0.24560454)
(119.65264 -0.080097212 -0.18716773)
(119.52992 -0.013166942 -0.13838147)
(119.55611 -0.027905726 -0.21441648)
(118.8354 -0.10336784 -0.46336746)
(118.83191 -0.0521265 -0.34279302)
(119.27464 -0.14248067 -0.36220106)
(118.39478 -0.39677824 -0.41331435)
(116.14928 -0.45615218 -0.25220778)
(116.00793 -0.654949 -0.41721721)
(103.59958 -1.609268 -1.4910549)
(105.30567 -1.1829466 -1.079018)
(116.35745 -0.29645136 -0.58264793)
(116.25525 -0.37002618 0.46915651)
(105.50044 -1.4485959 1.2398862)
(103.77877 -1.9634501 1.6483363)
(115.67535 -0.89877361 0.39949571)
(115.8686 -0.68916524 0.27709608)
(118.25803 -0.52170006 0.47894055)
(119.18553 -0.18935164 0.42413469)
(119.5376 -0.24532889 0.2248507)
(119.73599 -0.14981435 0.16278193)
(119.77168 -0.17934653 0.20217474)
(119.64326 -0.13822907 0.29575725)
(119.24325 -0.2429123 0.51061741)
(118.68594 -0.16311742 0.53437902)
(118.70442 -0.10664908 0.41831649)
(119.47107 -0.040795837 0.18007683)
(119.8504 -0.032293099 0.15192339)
(119.60681 -0.11193582 0.23361004)
(119.49274 -0.056542835 0.25751588)
(119.60041 -0.072205124 0.34810089)
(118.75622 -0.250476 0.69108822)
(115.50109 -1.1383642 0.8215314)
(101.59315 -2.7266851 2.2126983)
(101.41683 -2.2081075 -2.1065549)
(115.91637 -0.91867858 -0.8046072)
(118.9191 -0.18425153 -0.62296764)
(119.66075 -0.044763474 -0.29678462)
(119.78311 -0.1223362 -0.28683718)
(119.87626 -0.14379424 -0.19082994)
(119.94094 -0.11056842 -0.12112702)
(119.97152 -0.092334983 -0.082575403)
(119.9839 -0.064444408 -0.048007569)
(119.97455 -0.092041581 -0.051150516)
(120.01457 -0.086616441 -0.052100435)
(120.00412 -0.11329644 -0.075895177)
(119.95432 -0.13910161 -0.09334471)
(119.99305 -0.13615722 -0.10381129)
(120.02645 -0.13382388 -0.099680146)
(120.02693 -0.11014088 -0.073724937)
(120.02597 -0.13357369 -0.074912717)
(119.99664 -0.13893895 -0.075761645)
(119.98285 -0.1722654 -0.10574833)
(120.02313 -0.16428338 -0.10211823)
(120.06516 -0.14522571 -0.094991213)
(120.06151 -0.11862264 -0.089922973)
(120.06111 -0.071585192 -0.06186483)
(120.03883 -0.050178343 -0.037943155)
(120.03384 -0.028709147 -0.017258078)
(120.05278 -0.026303913 -0.020768974)
(120.08581 -0.03531399 -0.034880108)
(120.08905 -0.055833981 -0.042366363)
(120.07263 -0.039013724 -0.025561853)
(120.05117 -0.068362047 -0.042310043)
(120.05108 -0.097037886 -0.065563809)
(120.07444 -0.077336549 -0.054700972)
(120.09569 -0.095853131 -0.075646298)
(120.10666 -0.11882875 -0.081841176)
(120.08405 -0.095972528 -0.058982869)
(120.05543 -0.11808419 -0.068099361)
(120.05433 -0.14027698 -0.066333175)
(120.05577 -0.090731692 -0.038190619)
(120.04194 -0.045443603 -0.016479833)
(120.00219 -0.063717194 -0.019875253)
(119.96066 -0.11198523 -0.040135676)
(120.00818 -0.11182395 -0.0441148)
(119.98698 -0.15871034 -0.070126582)
(119.92102 -0.1926815 -0.075093378)
(119.96532 -0.20337529 -0.10046116)
(120.00945 -0.20186386 -0.10018938)
(120.01962 -0.15684745 -0.070872397)
(120.01267 -0.18381423 -0.06172124)
(119.97456 -0.18518276 -0.05827461)
(119.9448 -0.23973224 -0.085245025)
(119.99678 -0.23745905 -0.088375686)
(119.97726 -0.26950229 -0.06793383)
(120.00416 -0.20367461 -0.047623027)
(120.00263 -0.1345623 -0.027046397)
(119.94881 -0.13065058 -0.024630036)
(119.88606 -0.2198533 -0.040303422)
(119.96388 -0.19850888 -0.044529198)
(119.92193 -0.2596439 -0.063408627)
(119.90929 -0.28314932 -0.037775099)
(119.95684 -0.21640328 -0.02691347)
(119.99982 -0.22215331 -0.028513947)
(119.96874 -0.29307135 -0.039124805)
(120.03477 -0.28134806 -0.039896531)
(120.04164 -0.2558724 -0.069563055)
(120.05287 -0.2205079 -0.087751813)
(120.06104 -0.18350682 -0.096623835)
(120.11228 -0.15286559 -0.085245325)
(120.08823 -0.11577034 -0.05813073)
(120.09175 -0.14112553 -0.054156882)
(120.05177 -0.16685365 -0.058948017)
(120.04778 -0.18770143 -0.046702903)
(120.05908 -0.11358389 -0.025240599)
(120.09716 -0.069991182 -0.01959366)
(120.08541 -0.052626591 -0.023908386)
(120.11215 -0.082733001 -0.045721376)
(120.10357 -0.067838677 -0.045769766)
(120.11294 -0.03185681 -0.029107756)
(120.0953 -0.025094204 -0.024518656)
(120.12826 -0.028929819 -0.032259753)
(120.11828 -0.066444084 -0.056594385)
(120.13693 -0.080772928 -0.060632103)
(120.15187 -0.038359588 -0.037226991)
(120.17365 -0.052584164 -0.042099196)
(120.12484 -0.04026564 -0.029438447)
(120.13851 -0.053599513 -0.031887572)
(120.12128 -0.10323165 -0.045017719)
(120.1625 -0.13556869 -0.066506905)
(120.15192 -0.10633585 -0.066494016)
(120.16297 -0.13753889 -0.091991235)
(120.15678 -0.11979978 -0.088460356)
(120.14542 -0.1042572 -0.083846879)
(120.14348 -0.077310585 -0.071843844)
(120.1255 -0.038881489 -0.051068426)
(120.08428 -0.023419775 -0.041052219)
(120.05068 -0.011460408 -0.028776621)
(120.03723 -0.027638 -0.052980167)
(120.06014 -0.049801821 -0.077848423)
(120.04922 -0.049833391 -0.1001716)
(120.07217 -0.038811829 -0.08003921)
(120.08119 -0.040720611 -0.095840553)
(120.10476 -0.060945598 -0.12154601)
(120.09424 -0.058107043 -0.10107625)
(120.06027 -0.073063031 -0.12426336)
(120.064 -0.10161364 -0.15250848)
(120.08038 -0.090604859 -0.10285919)
(120.11041 -0.081205022 -0.12310434)
(120.10237 -0.089426025 -0.15253198)
(120.07879 -0.098790128 -0.16819269)
(120.05313 -0.10514358 -0.17940486)
(120.00242 -0.12606382 -0.21429946)
(120.01503 -0.11517984 -0.16624992)
(119.99953 -0.16653009 -0.20875226)
(119.93709 -0.16931785 -0.20231645)
(119.90032 -0.18350056 -0.26859674)
(119.97729 -0.18333315 -0.27008574)
(119.91656 -0.26845688 -0.33238449)
(119.96594 -0.22555918 -0.23969839)
(120.00055 -0.19716598 -0.18191243)
(120.01632 -0.15769756 -0.1314221)
(119.97155 -0.15742829 -0.13095562)
(119.87965 -0.18315017 -0.15814844)
(119.93853 -0.19149377 -0.18313914)
(119.90487 -0.25915807 -0.19922065)
(119.94946 -0.20836401 -0.14159472)
(120.00499 -0.20746138 -0.14477433)
(119.98033 -0.25987949 -0.20090242)
(119.91967 -0.31926715 -0.28455909)
(119.82821 -0.30761406 -0.26169092)
(119.89297 -0.21566419 -0.22833171)
(119.72155 -0.26813404 -0.2789768)
(119.82378 -0.24715535 -0.31893791)
(119.72252 -0.36271415 -0.37541547)
(119.84663 -0.38233597 -0.3974567)
(119.9813 -0.32525415 -0.34258131)
(120.00171 -0.2781038 -0.31980812)
(120.02195 -0.22641255 -0.28150989)
(120.03613 -0.1897122 -0.25600918)
(120.04661 -0.15207237 -0.22743439)
(120.05094 -0.12798897 -0.20516369)
(120.0829 -0.11981143 -0.19267811)
(120.08207 -0.12328366 -0.21845841)
(120.07936 -0.10036442 -0.18970205)
(120.04825 -0.10637199 -0.2022807)
(120.04599 -0.13192609 -0.23404512)
(120.03764 -0.16277312 -0.26262447)
(120.07915 -0.15593343 -0.24817058)
(120.08297 -0.14509545 -0.21448007)
(120.06549 -0.15075907 -0.19343284)
(120.13313 -0.12374543 -0.16115097)
(120.11718 -0.13218613 -0.19594033)
(120.11151 -0.10888738 -0.17418065)
(120.13988 -0.093293772 -0.15137782)
(120.12559 -0.075667321 -0.13127712)
(120.13336 -0.078241983 -0.14921424)
(120.10634 -0.090664862 -0.17238084)
(120.1141 -0.11152908 -0.19751254)
(120.14641 -0.097389106 -0.17274678)
(120.15802 -0.12432803 -0.19828878)
(120.15128 -0.11388356 -0.17008533)
(120.16506 -0.14258021 -0.1951061)
(120.1232 -0.1645329 -0.22318578)
(120.08159 -0.17943605 -0.24373816)
(120.0757 -0.19040847 -0.28256188)
(120.02498 -0.20139454 -0.29954001)
(120.0033 -0.24623101 -0.33298393)
(120.0625 -0.23844979 -0.31911797)
(120.07338 -0.21837452 -0.27016992)
(120.05499 -0.21400784 -0.23009771)
(120.06605 -0.18097327 -0.16768926)
(120.06487 -0.14373175 -0.11873487)
(120.11123 -0.11449905 -0.099539941)
(120.1334 -0.14780505 -0.1428145)
(120.11791 -0.18556482 -0.1541348)
(120.11247 -0.16599488 -0.1304581)
(120.10369 -0.14650453 -0.11049826)
(120.08028 -0.16194649 -0.11916114)
(120.05487 -0.17295308 -0.12454618)
(120.05259 -0.1968351 -0.14729379)
(120.08416 -0.1843943 -0.14036109)
(120.08372 -0.21137107 -0.1453462)
(120.08114 -0.18482679 -0.12217533)
(120.05046 -0.19711548 -0.12715267)
(120.04831 -0.22679219 -0.15267134)
(120.04021 -0.2536232 -0.18331721)
(120.0483 -0.21739007 -0.17117506)
(120.08421 -0.20428059 -0.1656993)
(120.08272 -0.23117332 -0.1999104)
(120.03782 -0.24393411 -0.20835358)
(120.02787 -0.28832119 -0.22140457)
(120.07751 -0.27105433 -0.21245256)
(120.08087 -0.23908231 -0.17808843)
(120.12017 -0.21790019 -0.16585164)
(120.11526 -0.19074204 -0.13499913)
(120.10782 -0.16791196 -0.11342688)
(120.13472 -0.14528674 -0.10210819)
(120.12691 -0.12563593 -0.097680709)
(120.14066 -0.14342619 -0.11613463)
(120.14724 -0.16638349 -0.12229382)
(120.15841 -0.18955964 -0.15032122)
(120.15175 -0.15975912 -0.1374644)
(120.16519 -0.18169928 -0.16684788)
(120.12375 -0.21015421 -0.18667883)
(120.12309 -0.24737777 -0.19891527)
(120.17012 -0.21593378 -0.18071011)
(120.21216 -0.17643835 -0.15481634)
(120.20029 -0.14894785 -0.14170321)
(120.18338 -0.097253954 -0.1009643)
(120.20904 -0.034745063 -0.052439458)
(120.15913 -0.029058268 -0.039349266)
(120.17037 -0.051198235 -0.052334693)
(120.16132 -0.076112332 -0.066700939)
(120.1838 -0.086631381 -0.07988627)
(120.16399 -0.11737447 -0.099021699)
(120.17482 -0.13506284 -0.104909)
(120.19784 -0.10239884 -0.087344552)
(120.17548 -0.089664371 -0.072745762)
(120.18721 -0.059940917 -0.056315928)
(120.19287 -0.025981863 -0.036612878)
(120.17422 -0.020270484 -0.031429123)
(120.20113 -0.02158242 -0.037402705)
(120.19573 -0.055374335 -0.060935661)
(120.213 -0.063911159 -0.064931319)
(120.22074 -0.027508794 -0.043232927)
(120.25098 -0.026860924 -0.049743817)
(120.22614 -0.02030519 -0.041707617)
(120.21916 -0.059988405 -0.070262354)
(120.20425 -0.095237002 -0.093619032)
(120.17981 -0.13118605 -0.11660375)
(120.19283 -0.15491607 -0.12861646)
(120.22126 -0.11530577 -0.10624046)
(120.24771 -0.1307483 -0.12750563)
(120.23067 -0.10812975 -0.11321643)
(120.25026 -0.068251909 -0.083660548)
(120.25947 -0.020969185 -0.047989793)
(120.28564 -0.026980761 -0.057733908)
(120.27255 -0.0799884 -0.092197123)
(120.24086 -0.071788326 -0.077870491)
(120.25933 -0.088397908 -0.08758869)
(120.2283 -0.078120991 -0.072242488)
(120.19868 -0.070360375 -0.059882176)
(120.18461 -0.10416215 -0.076210052)
(120.20939 -0.12252276 -0.093927303)
(120.18255 -0.15971612 -0.11253151)
(120.15042 -0.19498964 -0.12838476)
(120.1381 -0.16589671 -0.10461829)
(120.10768 -0.19038222 -0.1152026)
(120.07752 -0.20871284 -0.12259157)
(120.04437 -0.21950357 -0.12660679)
(119.97848 -0.26067963 -0.14228702)
(119.92052 -0.24997177 -0.13418053)
(119.79644 -0.284539 -0.13935706)
(119.85665 -0.31518246 -0.19986643)
(119.93245 -0.33768923 -0.20948862)
(119.88327 -0.42145941 -0.1956894)
(119.95113 -0.3164057 -0.12834011)
(119.88403 -0.3025859 -0.11401412)
(119.79168 -0.39399199 -0.17634423)
(119.63181 -0.50653698 -0.24225254)
(119.74488 -0.38630086 -0.27084985)
(119.48511 -0.50250189 -0.27858967)
(119.58644 -0.45554195 -0.41678842)
(119.71133 -0.52778379 -0.45777061)
(119.83238 -0.42915364 -0.30872751)
(119.73823 -0.55825663 -0.30628876)
(119.55991 -0.71161868 -0.49153656)
(119.38812 -0.62605503 -0.41519068)
(119.05367 -0.68061127 -0.43571609)
(119.47163 -0.55844843 -0.20524345)
(119.71392 -0.42501658 -0.13624384)
(119.84035 -0.32703806 -0.083959774)
(119.68532 -0.31172029 -0.074751931)
(119.81644 -0.36221878 -0.04968155)
(119.89315 -0.40167694 -0.054589983)
(119.91209 -0.3636741 -0.097467855)
(119.81025 -0.49452085 -0.15480278)
(119.77278 -0.55575806 -0.082910231)
(119.66583 -0.48465533 -0.078718323)
(119.36008 -0.67810917 -0.12783169)
(119.01286 -0.63451804 -0.23351103)
(118.68017 -0.92884355 -0.35205735)
(118.9216 -1.1666418 -0.34774289)
(119.23615 -0.92608845 -0.50559061)
(119.58036 -0.68178433 -0.26341097)
(119.48511 -0.79925211 -0.14859264)
(119.72661 -0.73909687 -0.16077473)
(119.76616 -0.68913917 -0.21899947)
(119.81375 -0.61887057 -0.25328745)
(119.86924 -0.56046703 -0.27620673)
(119.9129 -0.48901595 -0.28471529)
(119.94964 -0.43092239 -0.28634088)
(119.97972 -0.36852593 -0.27435044)
(120.00655 -0.31990392 -0.26589644)
(120.0236 -0.26776107 -0.24463102)
(120.07449 -0.25549855 -0.23861086)
(120.0658 -0.29191788 -0.2858814)
(120.00294 -0.30412667 -0.29586383)
(119.98294 -0.36328025 -0.32027255)
(120.05354 -0.34504636 -0.30985193)
(120.06458 -0.30517205 -0.26036229)
(120.1223 -0.28097118 -0.24399957)
(120.12405 -0.23392032 -0.22183495)
(120.14758 -0.17573242 -0.19426718)
(120.12357 -0.19968449 -0.24952918)
(120.17373 -0.17391616 -0.21893581)
(120.1793 -0.19408794 -0.261228)
(120.17004 -0.15381268 -0.22775344)
(120.12219 -0.17453801 -0.25912618)
(120.11922 -0.14180632 -0.22691075)
(120.11557 -0.14687425 -0.26134443)
(120.11267 -0.11550354 -0.22633051)
(120.10579 -0.090943354 -0.19265139)
(120.10984 -0.061303355 -0.15060813)
(120.08465 -0.037927993 -0.1117066)
(120.05113 -0.046567746 -0.13711202)
(120.04752 -0.037657068 -0.15847089)
(120.08712 -0.032441505 -0.13132275)
(120.11016 -0.054197379 -0.18012458)
(120.04888 -0.062844568 -0.21443214)
(120.05831 -0.074156601 -0.18255927)
(120.04124 -0.10464427 -0.22288626)
(119.97309 -0.12130611 -0.26459674)
(119.94245 -0.10483263 -0.31587179)
(119.86792 -0.17386149 -0.42710937)
(119.9244 -0.19013254 -0.34625323)
(119.84637 -0.18299411 -0.32257241)
(119.77183 -0.15597178 -0.39864994)
(119.68414 -0.11236232 -0.41927136)
(119.78396 -0.12939644 -0.49214482)
(119.89902 -0.071369696 -0.35437024)
(119.87898 -0.025903731 -0.37748748)
(119.80039 -0.022714347 -0.3378985)
(119.63129 -0.046618963 -0.46173315)
(119.74247 -0.049205435 -0.53508538)
(119.40956 -0.10401736 -0.78676459)
(119.52182 -0.24019466 -0.69074712)
(119.71003 -0.28660239 -0.5715429)
(119.8201 -0.29121759 -0.442451)
(119.731 -0.25569517 -0.39726984)
(119.45844 -0.26737666 -0.51293355)
(119.59937 -0.22197237 -0.51763811)
(119.34124 -0.39466743 -0.64262694)
(119.57342 -0.40432976 -0.46995769)
(119.69912 -0.4398775 -0.54502797)
(119.52012 -0.46845475 -0.72966211)
(119.12648 -0.47837726 -0.94591774)
(118.94534 -0.41483371 -0.6847947)
(119.41544 -0.18274095 -0.56050744)
(119.28701 -0.086143397 -0.66050459)
(118.48324 -0.26887693 -0.92169488)
(118.7278 -0.26310979 -1.1659764)
(119.20806 -0.29842475 -1.1192894)
(119.49002 -0.19811634 -0.91567207)
(119.67113 -0.1269223 -0.7329697)
(119.80092 -0.090567166 -0.61020032)
(119.88163 -0.06193358 -0.49835576)
(119.93884 -0.04602588 -0.42192962)
(119.97277 -0.032833268 -0.34372567)
(120.02793 -0.013843694 -0.25545109)
(120.03885 -0.0076792777 -0.18305824)
(120.05228 -0.0095710685 -0.098886368)
(120.08696 -0.0062067714 -0.055523542)
(120.07907 -0.0095071199 -0.046140959)
(120.06837 -0.012851991 -0.038029172)
(120.08633 -0.026879774 -0.058212913)
(120.09185 -0.0096950921 -0.027111452)
(120.1081 -0.011685631 -0.03064061)
(120.09996 -0.027774458 -0.067090899)
(120.13437 -0.039092071 -0.082610665)
(120.11634 -0.039020355 -0.071251256)
(120.12545 -0.014970627 -0.03323777)
(120.14781 -0.01579536 -0.039428239)
(120.16827 -0.016873258 -0.04741124)
(120.11871 -0.010052492 -0.034823717)
(120.1077 -0.025693047 -0.077876643)
(120.11546 -0.023557902 -0.092391418)
(120.1303 -0.011134369 -0.04185177)
(120.18499 -0.017949988 -0.059031177)
(120.15841 -0.038649124 -0.12498098)
(120.14875 -0.041428884 -0.10247486)
(120.16128 -0.06536654 -0.13812572)
(120.15526 -0.063783331 -0.12313603)
(120.14394 -0.061362563 -0.10959921)
(120.14237 -0.052952886 -0.085726417)
(120.1571 -0.020228256 -0.03693985)
(120.16782 -0.02901732 -0.055704734)
(120.15935 -0.043503093 -0.080960952)
(120.17344 -0.047122896 -0.092287378)
(120.19665 -0.059695891 -0.10747757)
(120.18258 -0.055079647 -0.093904737)
(120.16315 -0.075315482 -0.1250747)
(120.17403 -0.078581978 -0.14079405)
(120.19274 -0.10057695 -0.16317148)
(120.17946 -0.091762424 -0.14147293)
(120.18309 -0.080426306 -0.11104434)
(120.20809 -0.030722247 -0.04860371)
(120.21804 -0.043027708 -0.069716199)
(120.19394 -0.035643369 -0.062275435)
(120.19846 -0.01182979 -0.028017584)
(120.17081 -0.0081055863 -0.02430935)
(120.18882 -0.010499911 -0.027403)
(120.18437 -0.030346436 -0.061945493)
(120.21106 -0.036332374 -0.068217548)
(120.21754 -0.014227842 -0.031225619)
(120.24871 -0.017261867 -0.033096634)
(120.22413 -0.013888048 -0.029582995)
(120.25824 -0.017553046 -0.03436345)
(120.24986 -0.054292712 -0.081900771)
(120.23064 -0.085148847 -0.12181859)
(120.20359 -0.067268932 -0.1051869)
(120.22094 -0.076254546 -0.12292394)
(120.24816 -0.09525494 -0.14200703)
(120.21263 -0.12521878 -0.18808977)
(120.20041 -0.11572071 -0.16262262)
(120.21608 -0.14143568 -0.18310065)
(120.21887 -0.11478486 -0.13549258)
(120.25794 -0.040576644 -0.062728023)
(120.27683 -0.06345769 -0.091920423)
(120.25271 -0.103651 -0.13768952)
(120.27645 -0.11959043 -0.16412526)
(120.23218 -0.15852598 -0.21706277)
(120.25372 -0.19446281 -0.2502199)
(120.23842 -0.17463319 -0.21248961)
(120.18518 -0.21458848 -0.25391529)
(120.12457 -0.24401156 -0.28546251)
(120.0649 -0.26579964 -0.30902747)
(120.05144 -0.28776456 -0.36174839)
(119.97973 -0.30086658 -0.37869829)
(119.94869 -0.36038631 -0.41299146)
(120.02878 -0.35198947 -0.40179438)
(120.05073 -0.31497672 -0.33458407)
(120.03032 -0.38205628 -0.37431957)
(119.95108 -0.39560762 -0.37982223)
(119.90967 -0.43809514 -0.45838136)
(120.00501 -0.42404954 -0.44741076)
(120.0979 -0.39813 -0.4254838)
(120.11098 -0.32796412 -0.37846654)
(120.11828 -0.26650808 -0.3362042)
(120.12129 -0.21926737 -0.29566596)
(120.11105 -0.23417306 -0.34703951)
(120.11564 -0.18572267 -0.30163023)
(120.05969 -0.19909344 -0.3268207)
(120.06807 -0.15850594 -0.28420755)
(120.07477 -0.12546466 -0.24919619)
(120.07507 -0.099437585 -0.21161534)
(120.06959 -0.097405287 -0.23709674)
(120.03087 -0.10139794 -0.25004132)
(120.02247 -0.13182533 -0.29485079)
(120.03533 -0.13263405 -0.26278712)
(120.02211 -0.16364735 -0.29586113)
(120.00375 -0.16501732 -0.33635661)
(120.05575 -0.16115357 -0.32277253)
(120.06726 -0.12507484 -0.27855896)
(120.10813 -0.11575139 -0.25497456)
(120.10386 -0.089489029 -0.21713086)
(120.13879 -0.07912601 -0.18993685)
(120.13648 -0.079051908 -0.16737883)
(120.14946 -0.10151179 -0.19873787)
(120.15024 -0.10317478 -0.22525622)
(120.14716 -0.10245612 -0.25714281)
(120.13774 -0.076636778 -0.21135064)
(120.0992 -0.085564737 -0.23986957)
(120.06151 -0.091753061 -0.26053412)
(120.02122 -0.094575054 -0.27127959)
(120.0068 -0.083324626 -0.2973755)
(120.05177 -0.082647813 -0.28597898)
(120.0412 -0.11000478 -0.3428732)
(120.05407 -0.1199817 -0.31259719)
(120.00724 -0.12464643 -0.32534217)
(119.9889 -0.11271652 -0.35721072)
(119.95592 -0.14508332 -0.41453786)
(119.98186 -0.1576633 -0.37290901)
(120.0363 -0.15644625 -0.36425532)
(120.01619 -0.14728918 -0.40578162)
(119.9875 -0.19699756 -0.48271488)
(120.01544 -0.20460248 -0.42812939)
(120.04289 -0.20609375 -0.37514777)
(119.97885 -0.21408515 -0.39180693)
(120.00398 -0.20741325 -0.33998243)
(119.97365 -0.25374421 -0.38100267)
(120.03978 -0.24959296 -0.37196383)
(120.01502 -0.26295474 -0.43151677)
(119.93932 -0.26485143 -0.44290988)
(119.89679 -0.33943772 -0.51185248)
(119.94184 -0.31750058 -0.43566394)
(120.02124 -0.30947952 -0.42466214)
(119.98963 -0.33209678 -0.49651803)
(120.07975 -0.31710349 -0.46929254)
(120.09364 -0.24922867 -0.406135)
(120.10352 -0.19406518 -0.3493421)
(120.10794 -0.15036641 -0.29917352)
(120.1594 -0.13500233 -0.26492483)
(120.16042 -0.12997685 -0.22966547)
(120.17103 -0.16529851 -0.26664642)
(120.16761 -0.17543705 -0.31145497)
(120.15756 -0.18139674 -0.36379206)
(120.1534 -0.13639787 -0.30509598)
(120.09563 -0.14921269 -0.34081088)
(120.10033 -0.11328225 -0.28844826)
(120.08981 -0.10483329 -0.31965941)
(120.09257 -0.077579479 -0.26541594)
(120.13522 -0.0709883 -0.2362135)
(120.14189 -0.096634642 -0.28761668)
(120.14377 -0.13258773 -0.34764688)
(120.07942 -0.14210951 -0.38386303)
(120.06065 -0.19266056 -0.4602052)
(120.08517 -0.1968347 -0.40297263)
(120.0669 -0.25841349 -0.47427307)
(119.97562 -0.26609691 -0.4980296)
(119.89639 -0.26244377 -0.500236)
(119.94856 -0.2085686 -0.4378129)
(119.91166 -0.19752731 -0.4936656)
(119.86816 -0.17314883 -0.53553038)
(119.92544 -0.12422881 -0.44606773)
(119.96828 -0.095258041 -0.38274946)
(119.9933 -0.069765441 -0.31459025)
(120.03603 -0.043084068 -0.24116137)
(120.0423 -0.024951199 -0.17309746)
(120.08621 -0.021631358 -0.14558977)
(120.08542 -0.0072339691 -0.15587999)
(120.10181 -0.012414465 -0.22261959)
(120.1057 -0.038400682 -0.20723795)
(120.16278 -0.02864102 -0.14769524)
(120.11842 -0.015523747 -0.10393202)
(120.13618 -0.0071378984 -0.048310852)
(120.14018 -0.0040767333 -0.05413503)
(120.12042 -0.0061444606 -0.11264553)
(120.16364 -0.0095223878 -0.16173727)
(120.20106 -0.0054645518 -0.082532047)
(120.19612 -0.014413517 -0.072774789)
(120.22986 -0.031737965 -0.12015696)
(120.22538 -0.035547214 -0.10648475)
(120.21644 -0.034734065 -0.091173018)
(120.20835 -0.034493757 -0.080055355)
(120.19549 -0.031547623 -0.06903624)
(120.18235 -0.048434031 -0.10372441)
(120.19223 -0.050536635 -0.11938497)
(120.16753 -0.066641734 -0.1577224)
(120.18715 -0.086632235 -0.18553248)
(120.18179 -0.083862208 -0.16237448)
(120.20833 -0.063523123 -0.12403261)
(120.21839 -0.06701414 -0.14277885)
(120.24005 -0.04423584 -0.091159348)
(120.22623 -0.040508848 -0.078381181)
(120.235 -0.016161409 -0.034858008)
(120.20154 -0.011362485 -0.029947199)
(120.2164 -0.014532941 -0.035400205)
(120.25151 -0.019971746 -0.041502804)
(120.26592 -0.023718219 -0.05113968)
(120.22651 -0.015931204 -0.041454184)
(120.23791 -0.018476693 -0.051194961)
(120.27866 -0.027198024 -0.064019374)
(120.26067 -0.048861689 -0.12746425)
(120.25141 -0.047589449 -0.10814054)
(120.2255 -0.069213047 -0.16636792)
(120.19775 -0.050321758 -0.13480193)
(120.16962 -0.065152382 -0.17660329)
(120.17122 -0.061566589 -0.19936956)
(120.20332 -0.048928784 -0.15437704)
(120.23038 -0.068402205 -0.19119316)
(120.1889 -0.08432099 -0.24244439)
(120.18931 -0.087747791 -0.21396165)
(120.20788 -0.11784277 -0.25692809)
(120.20666 -0.11414786 -0.22052657)
(120.20136 -0.1078085 -0.18958381)
(120.23494 -0.08197952 -0.14323094)
(120.24651 -0.088661397 -0.16811838)
(120.27782 -0.11658532 -0.198744)
(120.26446 -0.10518632 -0.16710076)
(120.22183 -0.13785189 -0.22114692)
(120.22675 -0.14936724 -0.26066168)
(120.22646 -0.15809325 -0.30855878)
(120.28707 -0.1270214 -0.23898486)
(120.25462 -0.093934077 -0.19856098)
(120.25915 -0.09621705 -0.23368885)
(120.20514 -0.11725977 -0.29699513)
(120.22009 -0.16276903 -0.36312001)
(120.14192 -0.18176079 -0.42109442)
(120.11923 -0.16894474 -0.48453682)
(120.1298 -0.11984035 -0.3924558)
(120.13362 -0.085739155 -0.32087777)
(120.13087 -0.061612358 -0.25741306)
(120.08489 -0.066625506 -0.28672866)
(120.04041 -0.069795551 -0.30690922)
(120.03051 -0.052940981 -0.32636748)
(119.98025 -0.052451592 -0.33388454)
(119.95105 -0.073575219 -0.40686555)
(120.00965 -0.072932776 -0.39824207)
(120.02289 -0.094301159 -0.37443655)
(120.07718 -0.091707632 -0.3525488)
(120.06521 -0.070914742 -0.37830279)
(120.07704 -0.050308344 -0.30696262)
(120.12597 -0.047219536 -0.27806496)
(120.12549 -0.067105975 -0.34722067)
(120.11783 -0.043002862 -0.36931353)
(120.12198 -0.029765317 -0.29142518)
(120.07133 -0.031741596 -0.31978595)
(120.02323 -0.032868916 -0.33851125)
(120.019 -0.0092626407 -0.34435684)
(119.96747 -0.0092661863 -0.3493291)
(119.93184 -0.014074073 -0.42917485)
(119.99167 -0.013672604 -0.42464334)
(119.99728 -0.045766781 -0.41733793)
(120.05534 -0.045192101 -0.39908022)
(120.05009 -0.012778773 -0.40730426)
(120.06776 -0.008363313 -0.326089)
(120.11936 -0.0077156973 -0.29808901)