/*--------------------------------*- C++ -*----------------------------------*\
  =========                 |
  \\      /  F ield         | OpenFOAM: The Open Source CFD Toolbox
   \\    /   O peration     | Website:  https://openfoam.org
    \\  /    A nd           | Version:  7
     \\/     M anipulation  |
\*---------------------------------------------------------------------------*/
FoamFile
{
    version     2.0;
    format      ascii;
    class       volScalarField;
    location    "170";
    object      k;
}
// * * * * * * * * * * * * * * * * * * * * * * * * * * * * * * * * * * * * * //

dimensions      [0 2 -2 0 0 0 0];

internalField   nonuniform List<scalar> 
25201
(
1115.4102
1125.548
1115.4131
1125.5552
1169.5352
1123.9669
1108.3805
1141.8926
1155.0508
1192.7854
1155.0402
1123.9596
1145.4457
1335.2853
1358.0089
1175.4559
1207.0614
1240.4513
1254.8193
1339.4375
1277.6226
1279.2574
1257.8872
1303.4288
1303.8819
1357.9548
1314.5733
1227.3765
1238.7249
1313.6636
1306.3435
1293.9166
1390.4319
1381.0511
1364.957
1356.4169
1294.4989
1306.1796
1370.8558
1379.4107
1313.0437
1316.7852
1317.6439
1394.6026
1383.245
1371.329
1313.7819
1237.9504
1162.9315
1145.4315
1174.3332
1190.8796
1243.32
1227.0812
1203.2182
1194.4605
1181.3051
1209.5878
1219.8045
1294.957
1269.7257
1241.4033
1251.1501
1256.6695
1270.9509
1217.7916
1241.8051
1314.4781
1303.8271
1335.8172
1326.6686
1302.4319
1227.958
1236.3888
1245.9082
1340.4989
1319.1937
1311.6248
1303.5405
1293.0864
1278.0846
1258.6807
1300.2283
1302.2384
1322.7488
1285.6984
1326.5172
1333.732
1377.3379
1353.3074
1376.1101
1388.2016
1392.5007
1396.8043
1403.1908
1381.6994
1385.7691
1408.1744
1448.8522
1423.1069
1418.0251
1441.8191
1433.8261
1411.6377
1405.5006
1424.3685
1463.5201
1439.8394
1416.867
1422.3608
1457.5803
1451.4821
1479.245
1486.8646
1522.4279
1492.8578
1487.2541
1514.9552
1507.6513
1471.5445
1445.4368
1480.7735
1476.2596
1501.0625
1535.5969
1508.0658
1476.0374
1417.6822
1354.5041
1372.5667
1381.2797
1385.2638
1372.4188
1368.9019
1360.6827
1347.9309
1327.179
1301.0409
1241.6519
1181.4836
1194.4994
1251.1653
1295.0733
1269.9061
1209.9025
1219.8948
1227.1185
1203.2237
1174.324
1217.7952
1270.9461
1256.6358
1303.9302
1314.4979
1241.8211
1257.7459
1190.8875
1162.9838
1228.3681
1236.5334
1326.8734
1302.79
1285.9469
1278.8924
1259.3712
1294.0296
1304.561
1312.0394
1354.4637
1343.6152
1323.009
1302.4618
1346.791
1311.0795
1316.6488
1348.0918
1346.6164
1346.6205
1407.9858
1405.671
1451.2797
1434.9926
1435.5463
1458.0727
1453.9303
1486.1364
1465.4493
1470.0963
1494.1762
1529.9713
1502.7767
1468.0178
1408.3089
1347.1721
1388.8505
1377.3013
1379.2114
1509.8622
1482.6809
1447.3666
1413.5429
1406.6728
1425.6484
1393.7835
1398.8006
1435.8298
1473.6875
1464.8104
1440.9341
1477.2405
1502.2995
1536.5547
1508.7062
1513.8005
1520.7263
1484.652
1125.4447
1115.0645
1125.9223
1227.3872
1238.712
1317.6527
1381.1852
1306.3759
1313.7179
1313.0621
1316.794
1383.2531
1394.6144
1390.4395
1379.4855
1370.9609
1306.1998
1294.5115
1293.995
1365.0619
1356.532
1333.8038
1279.3001
1207.0232
135.89974
243.34292
341.60628
432.26415
945.45102
949.06292
438.52972
346.54539
246.98113
137.90126
138.70306
250.16233
351.03211
443.80119
953.53381
956.75008
445.23749
352.24624
251.12693
139.12141
139.28582
251.48041
352.69619
445.75022
959.5136
962.09684
445.98439
352.88439
251.63805
139.4083
139.59518
252.06219
353.48233
446.7191
964.67508
967.3399
447.60543
354.17234
252.53393
139.78342
140.03139
253.21415
355.16536
448.85051
970.08436
972.9536
450.0804
356.12046
253.85639
140.25637
140.52749
254.64547
357.28389
451.54775
975.90338
978.96979
452.91711
358.34929
255.35971
140.76708
141.05153
256.21086
359.60942
454.51044
982.12821
985.38081
455.97983
360.75369
256.9768
141.30291
141.59919
257.8755
362.0849
457.66186
988.70076
992.11194
459.22497
363.30442
258.69188
141.86406
142.17416
259.63976
364.70814
460.99626
995.59684
999.17817
462.65697
366.00417
260.50651
142.45329
142.77469
261.49312
367.46496
464.49845
1002.8063
1006.4868
466.23043
368.81497
262.39452
143.06373
143.39126
263.39911
370.29941
468.09681
1010.1765
1013.8817
469.8591
371.67686
264.32056
143.68701
144.02083
265.34489
373.18937
471.75847
1017.5981
1021.316
473.53816
374.58188
266.27712
144.32009
144.65593
267.30668
376.10127
475.44377
1025.0035
1028.6632
477.20721
377.48258
268.23174
144.95296
145.28396
269.2462
378.97892
479.08145
1032.2428
1035.7234
480.7937
380.31947
270.14294
145.57189
145.88929
271.11015
381.74139
482.56537
1039.0581
1042.2224
484.21207
383.0219
271.95599
146.15897
146.42468
272.77309
384.22526
485.70658
1045.1418
1047.6848
487.05892
385.25992
273.45213
146.63714
1063.8301
445.50099
350.90787
249.52969
138.53447
138.35145
248.93936
349.99897
444.30294
1061.318
1058.2272
442.87211
348.87234
248.18292
138.10974
137.85691
247.38995
347.66263
441.31376
1054.9082
1051.4606
439.68999
346.36807
246.50779
137.56598
137.29496
245.66509
345.09173
438.05271
1047.9354
1044.3331
436.37036
343.75381
244.75498
136.99646
136.72004
243.89438
342.44949
434.696
1040.6561
1036.947
432.99398
341.09889
242.97746
136.41959
136.14436
242.11837
339.79468
431.31625
1033.2102
1029.4705
429.6316
338.46112
241.2149
135.84944
135.57879
240.36708
337.17103
427.96713
1025.7054
1021.9518
426.29419
335.84867
239.4719
135.28699
135.02088
238.63831
334.58043
424.6572
1018.224
1014.5251
423.02778
333.29263
237.76618
134.73622
134.4783
236.95962
332.06367
421.43786
1010.887
1007.4603
419.9346
330.8696
236.1466
134.21031
133.96731
235.3899
329.71263
418.43089
1004.0317
1000.6864
416.97046
328.55786
234.60572
133.7078
133.47316
233.88299
327.45305
415.53349
997.33678
994.08991
414.1235
326.33954
233.12626
133.21937
132.99354
232.44737
325.30526
412.78099
990.95096
987.92341
411.48007
324.27581
231.74422
132.7506
132.53882
231.1355
323.35198
410.28219
985.01377
982.21886
409.19608
322.48519
230.53509
132.31765
132.14003
230.085
321.81071
408.32484
979.49333
976.99795
407.79294
321.36022
229.74653
131.98115
131.87333
229.60697
321.17925
407.56843
974.46376
971.88429
407.31962
320.9253
229.36635
131.73581
131.44241
228.60451
319.89861
406.08362
968.89378
965.2095
402.47573
316.93533
226.45845
130.79649
130.14602
222.55004
311.48731
395.86644
960.78213
951.21609
376.48794
294.07885
209.50755
126.39707
129.92484
222.82806
311.84446
396.25862
961.80613
965.79538
402.73401
317.14574
226.58252
130.62077
131.36728
228.76147
320.12919
406.35696
969.26446
972.04259
407.42357
321.02037
229.44063
131.67469
131.83596
229.67289
321.27509
407.68289
974.57563
977.03374
407.7792
321.35861
229.75817
131.94447
132.11737
230.11407
321.85511
408.38303
979.56966
982.20877
409.15735
322.45353
230.52162
132.28982
132.51438
231.12004
323.33175
410.2631
984.96762
987.83663
411.36426
324.1823
231.68929
132.71867
132.96486
232.39836
325.23628
412.70273
990.8023
993.88952
413.94959
326.19973
233.04008
133.18262
133.44071
233.80836
327.34536
415.40601
997.08306
1000.392
416.75876
328.39223
234.50467
133.67055
133.94093
235.32425
329.61623
418.31517
1003.7911
1007.2837
419.76038
330.73617
236.06873
134.18308
134.46544
236.93267
332.02658
421.39994
1010.8535
1014.4989
422.9255
333.21084
237.72017
134.7197
135.01369
238.62399
334.56068
424.6391
1018.2074
1021.9713
426.23147
335.79798
239.44671
135.27835
135.58037
240.37688
337.18665
427.99243
1025.7575
1029.5565
429.62883
338.45499
241.2184
135.85026
136.15305
242.14881
339.84096
431.38123
1033.3546
1037.1191
433.00848
341.10831
242.9928
136.42527
136.73373
243.93753
342.51524
434.7866
1040.8607
1044.5681
436.41334
343.78425
244.78344
137.00705
137.31328
245.7206
345.17712
438.16965
1048.2057
1051.7636
439.76892
346.42398
246.55161
137.58202
137.88184
247.45997
347.76765
441.454
1055.2081
1058.5234
442.98987
348.97255
248.26606
138.14279
138.42586
249.14066
350.25784
444.58454
1061.6355
1064.5208
446.10072
351.4287
249.89905
138.66247
138.83563
250.43674
352.23213
447.13281
1067.1524
145.37099
269.14009
378.77925
478.86347
1042.368
1039.6595
477.63842
377.84482
268.52317
145.1759
144.91551
267.70127
376.60355
476.05614
1036.578
1033.3184
474.37924
375.25516
266.77395
144.61254
144.3248
265.87908
373.90967
472.66818
1029.9649
1026.5218
470.90005
372.4911
264.90511
144.00215
143.70344
263.97924
371.09818
469.12472
1022.9754
1019.3593
467.30724
369.64476
262.98414
143.3758
143.07215
262.04032
368.22169
465.48838
1015.6696
1012.0791
463.70077
366.79044
261.05933
142.74861
142.44795
260.12073
365.37077
461.87905
1008.3488
1004.6167
460.04782
363.91248
259.12595
142.12248
141.82386
258.19263
362.50226
458.23953
1000.8636
997.12256
456.42431
361.05899
257.20895
141.50212
141.20946
256.29574
359.67906
454.65388
993.43625
989.82395
452.90881
358.29087
255.34835
140.89844
140.61721
254.47304
356.96623
451.20557
986.24965
982.74496
449.52682
355.63256
253.56308
140.31729
140.04864
252.73261
354.37512
447.90796
979.32662
975.98442
446.31701
353.112
251.87
139.76159
139.50621
251.09072
351.93125
444.79431
972.7458
969.59236
443.30413
350.74815
250.28115
139.23211
138.98988
249.55981
349.65526
441.89252
966.56695
963.65506
440.53689
348.57692
248.8182
138.73025
138.5039
248.17669
347.6061
439.28053
960.84097
958.15154
438.15254
346.70327
247.54794
138.2669
138.07768
247.0879
346.01368
437.25948
955.52591
953.13337
436.73689
345.57479
246.75675
137.90718
137.78812
246.65032
345.43762
436.55464
950.71226
948.23771
436.29032
345.17906
246.40665
137.60576
137.21332
245.64865
344.15221
435.04104
945.50296
942.2688
431.30912
341.09852
243.46466
136.36339
135.36313
240.40744
336.47196
425.39824
938.73757
946.57758
433.00758
342.42073
243.98654
135.03582
137.74142
246.65237
346.04095
437.98633
948.78106
953.22109
443.63816
350.90046
250.05534
138.58662
139.09249
251.10849
352.20246
445.15911
956.32626
959.10445
445.54549
352.52727
251.36302
139.22487
139.39186
251.62103
352.84767
445.91623
961.70217
964.32045
446.51096
353.30718
251.94014
139.54309
139.77085
252.51214
354.12905
447.53046
966.99995
969.7499
448.6411
354.99082
253.09339
139.98383
140.24751
253.83888
356.08478
450.0161
972.61748
975.57356
451.34674
357.11356
254.52627
140.48197
140.75769
255.33686
358.30739
452.84775
978.61258
981.76788
454.29377
359.42695
256.0837
141.0048
141.29301
256.94943
360.70583
455.90436
985.02656
988.35493
457.43603
361.89675
257.74509
141.55244
141.85575
258.66692
363.26023
459.15427
991.78185
995.27576
460.78457
364.53052
259.51596
142.1302
142.44796
260.48759
365.96734
462.59338
998.8718
1002.5256
464.31886
367.31075
261.38448
142.73618
143.06435
262.39007
368.79621
466.18503
1006.2409
1009.987
467.96211
370.18416
263.31821
143.36224
143.69914
264.35296
371.71377
469.88495
1013.7643
1017.5263
471.69303
373.12453
265.29545
144.00119
144.33807
266.32801
374.64801
473.6028
1021.2645
1024.9642
475.39571
376.0495
267.26556
144.63922
144.97532
268.29321
377.56393
477.29069
1028.6176
1032.223
479.04807
378.94378
269.21942
145.27387
145.60888
270.24329
380.45216
480.93409
1035.7733
1039.2216
482.64302
381.79411
271.14344
145.89892
146.21896
272.1218
383.23324
484.43568
1042.5512
1045.6708
486.06791
384.50197
272.95964
146.48473
146.74394
273.7518
385.66917
487.51804
1048.5062
1050.9201
488.79204
386.63678
274.38286
146.94177
145.36081
269.10688
378.72728
478.79377
1042.1945
1039.6407
477.62551
377.82965
268.51007
145.17056
144.9138
267.69897
376.60294
476.05923
1036.6177
1033.4033
474.39235
375.26277
266.77768
144.6132
144.32673
265.88531
373.92006
472.68309
1030.0231
1026.5687
470.89595
372.48738
264.90285
144.00202
143.70315
263.97695
371.09582
469.12339
1023.0004
1019.4006
467.29433
369.6336
262.97646
143.37405
143.07243
262.04062
368.22488
465.49666
1015.7357
1012.0558
463.65235
366.7546
261.03703
142.74284
142.44232
260.10208
365.345
461.84949
1008.3196
1004.5999
460.01289
363.88366
259.10605
142.11644
141.81979
258.18022
362.48598
458.22198
1000.8558
997.15532
456.42097
361.05314
257.20345
141.50013
141.21071
256.30079
359.68891
454.66958
993.49585
989.95386
452.94762
358.31757
255.36437
140.90316
140.62552
254.49977
357.00812
451.26179
986.39527
982.92368
449.59507
355.68304
253.59557
140.32767
140.06157
252.77274
354.4364
447.98807
979.51623
976.23786
446.42549
353.19281
251.92208
139.77821
139.52468
251.14683
352.01567
444.90272
972.99051
969.84729
443.42849
350.84179
250.34226
139.25221
139.01078
249.62213
349.74885
442.01255
966.83848
963.90102
440.64232
348.65833
248.87265
138.74913
138.52146
248.22653
347.68044
439.37536
961.05428
958.32555
438.22421
346.75889
247.58557
138.28092
138.09195
247.12791
346.07473
437.33982
955.72963
953.30647
436.79446
345.6192
246.78691
137.91878
137.80082
246.68603
345.49133
436.62486
950.89964
948.45488
436.36381
345.2357
246.44562
137.62066
137.21895
245.67263
344.19279
435.09563
945.6992
942.44834
431.31928
341.11253
243.48773
136.37656
135.25343
240.34305
336.45078
425.39332
939.20206
963.16237
397.39954
313.04361
223.7477
129.47387
130.6374
226.62017
317.09229
402.65823
966.01323
969.60315
406.47876
320.21327
228.80153
131.34776
131.72761
229.57926
321.20985
407.64646
972.40491
974.94273
407.78701
321.34027
229.70952
131.84897
131.99181
229.88285
321.54026
407.99961
977.38244
979.90526
408.46282
321.9011
230.13824
132.12821
132.33322
230.63505
322.61682
409.3517
982.55696
985.30486
410.33691
323.38026
231.14951
132.52681
132.768
231.82608
324.38073
411.60262
988.18388
991.17766
412.82341
325.31856
232.44864
132.98212
133.2322
233.18174
326.40656
414.20031
994.27535
997.46531
415.52688
327.42669
233.85738
133.45644
133.71634
234.63744
328.58624
416.99387
1000.7353
1004.1031
418.41427
329.67941
235.3605
133.95161
134.22176
236.18157
330.90062
419.95835
1007.5521
1011.0857
421.45574
332.05584
236.94625
134.46821
134.74972
237.80819
333.33902
423.07854
1014.6753
1018.3327
424.63979
334.54572
238.60747
135.00623
135.29753
239.50217
335.87884
426.32687
1022.0589
1025.8073
427.9179
337.11552
240.32448
135.56187
135.86336
241.25332
338.50188
429.67553
1029.5843
1033.3656
431.29504
339.76222
242.09198
136.13293
136.43921
243.03288
341.16526
433.07132
1037.1356
1040.8806
434.69662
342.43348
243.87843
136.71235
137.02052
244.82354
343.84095
436.47558
1044.5822
1048.2152
438.07941
345.09324
245.65908
137.29021
137.59184
246.58128
346.46239
439.80416
1051.7484
1055.1456
441.34339
347.66543
247.38412
137.8525
138.13801
248.25661
348.95649
442.95896
1058.3688
1061.3639
444.42466
350.08771
248.99726
138.36949
138.59188
249.67653
351.09122
445.67361
1064.0666
1066.4726
446.87853
352.00551
250.27173
138.78131
1050.7982
488.53706
386.43719
274.24964
146.90085
146.70169
273.62827
385.49546
487.31641
1048.3193
1045.6535
485.95903
384.40789
272.88471
146.45743
146.19855
272.06097
383.14876
484.33259
1042.49
1039.1509
482.65587
381.79974
271.13416
145.89345
145.6018
270.22308
380.42104
480.88854
1035.7499
1032.2076
479.10571
378.98933
269.23941
145.27834
144.97465
268.28893
377.55313
477.26609
1028.5896
1024.9079
475.4375
376.0876
267.28373
144.64473
144.33738
266.32194
374.63443
473.57503
1021.2174
1017.5052
471.7592
373.17955
265.32392
144.00981
143.70593
264.37056
371.73668
469.90519
1013.8027
1010.0858
468.10707
370.29805
263.3847
143.38278
143.08443
262.44899
368.88052
466.28272
1006.4142
1002.7394
464.51073
367.46594
261.48078
142.76704
142.47614
260.56959
366.08479
462.73151
999.11005
995.51217
460.99711
364.70289
259.62462
142.16584
141.8857
258.75215
363.38124
459.29493
992.00499
988.5698
457.64789
362.0692
257.85387
141.58853
141.32248
257.03254
360.82393
456.04142
985.2424
981.98686
454.4919
359.5901
256.18668
141.03921
140.78655
255.41874
358.42477
452.98547
978.84602
975.77972
451.53822
357.27207
254.62641
140.51548
140.27559
253.91881
356.19905
450.14951
972.84021
969.99041
448.88144
355.18219
253.21257
140.02225
139.80577
252.61523
354.27762
447.70674
967.30746
964.65372
446.76489
353.51447
252.07274
139.58598
139.43211
251.74363
353.02356
446.12576
962.07516
959.49398
445.83172
352.76285
251.51731
139.27367
139.13934
251.27025
352.43147
445.42937
956.74904
953.6321
443.98061
351.17183
250.23123
138.6351
137.77486
246.93661
346.42549
438.40943
949.15151
946.76139
433.39504
342.7818
244.28372
135.18922
135.79063
243.5511
341.89221
432.56675
945.79844
949.14978
438.61243
346.62199
247.02545
137.79379
138.61985
250.13711
350.99341
443.73912
953.37906
956.45916
445.2193
352.23665
251.1182
139.07048
139.24221
251.44116
352.62771
445.64526
959.16014
961.71826
445.94787
352.86062
251.62186
139.37936
139.5633
252.01254
353.39889
446.59839
964.31073
966.97321
447.52791
354.11793
252.49914
139.75896
140.00431
253.15866
355.07379
448.72081
969.71025
972.54451
450.00303
356.06248
253.81674
140.23437
140.49829
254.57307
357.16858
451.39008
975.48528
978.50782
452.81376
358.26893
255.30397
140.74251
141.01996
256.12372
359.47217
454.3251
981.65493
984.91172
455.85884
360.66104
256.91399
141.27827
141.57158
257.79602
361.95917
457.49107
988.26008
991.70392
459.12956
363.2312
258.64177
141.84468
142.15227
259.57508
364.60487
460.85464
995.22552
998.82634
462.59184
365.9541
260.47152
142.43963
142.75829
261.44214
367.38203
464.38329
1002.4967
1006.2197
466.18161
368.78332
262.37527
143.05686
143.38699
263.38487
370.27031
468.04791
1009.9794
1013.7612
469.8949
371.70742
264.34011
143.69165
144.02202
265.34924
373.19093
471.75251
1017.512
1021.247
473.59386
374.62637
266.30463
144.32729
144.65833
267.31327
376.10795
475.44684
1024.956
1028.6265
477.26045
377.52626
268.25967
144.96168
145.29216
269.26576
379.00317
479.10521
1032.2386
1035.788
480.88039
380.39541
270.19693
145.59136
145.91821
271.18803
381.84693
482.68808
1039.2431
1042.5946
484.41229
383.20134
272.09395
146.20937
146.52073
273.04678
384.59053
486.12872
1045.8076
1048.7646
487.79619
385.87972
273.88458
146.78325
146.96546
274.44543
386.70596
488.84333
1051.1858
1182.1557
1188.6697
1182.1527
1188.6574
1198.7005
1182.4426
1171.5435
1209.5316
1217.6179
1182.4538
1217.5674
1244.1148
1217.6195
1231.2014
1251.6931
1241.6116
1226.6723
1277.7812
1291.714
1333.6208
1264.136
1249.397
1323.7927
1355.524
1264.7757
1212.603
1243.466
1286.8256
1272.6315
1286.7528
1266.7596
1311.2792
1298.4231
1341.8855
1350.3053
1379.7798
1300.2158
1308.2061
1295.0138
1287.8326
1279.1298
1364.7773
1378.4643
1369.3044
1273.4074
1266.9149
1252.3673
1243.3958
1335.9047
1346.2054
1360.0189
1349.6741
1340.7375
1319.6929
1238.4369
1246.1036
1246.084
1162.9515
1125.441
1115.0569
1123.7096
1145.3469
937.89958
423.85931
335.1965
239.51159
135.5602
136.43382
242.84484
340.15331
430.14678
941.24985
944.57473
434.04253
343.30778
245.05957
137.1663
137.58696
246.04548
344.64399
435.64616
947.42654
950.04397
435.95906
344.92429
246.2874
137.73056
137.88505
246.54222
345.24873
436.33761
952.57036
955.16692
436.87159
345.67494
246.84741
138.029
138.25532
247.43251
346.52184
437.9293
957.85209
960.64321
439.02867
347.37632
248.01016
138.46442
138.72483
248.75394
348.47013
440.4048
963.524
966.50373
441.70494
349.48074
249.43197
138.95541
139.22953
250.24431
350.68332
443.22602
969.57559
972.71559
444.6215
351.77108
250.97362
139.47124
139.75801
251.83946
353.0558
446.24824
975.96843
979.31093
447.73758
354.2192
252.6197
140.01298
140.31447
253.54016
355.58661
449.46869
982.73287
986.23011
451.05444
356.82382
254.36798
140.58234
140.89347
255.32101
358.23784
452.84106
989.78856
993.39476
454.48936
359.52883
256.18693
141.17312
141.49768
257.18468
361.00972
456.35979
997.06651
1000.7639
458.07675
362.35168
258.08283
141.78666
142.11525
259.09186
363.84597
459.95785
1004.4587
1008.171
461.70181
365.20854
260.00343
142.40834
142.7383
261.01505
366.7046
463.58108
1011.8437
1015.4903
465.3126
368.06115
261.9245
143.03146
143.36243
262.9377
369.55857
467.19155
1019.1181
1022.6926
468.89212
370.89723
263.83801
143.65364
143.98391
264.84793
372.38913
470.76297
1026.203
1029.6223
472.43537
373.70241
265.72923
144.26877
144.5862
266.69544
375.12243
474.20231
1032.9184
1036.0614
475.82693
376.39108
267.53715
144.85561
145.12464
268.35893
377.60452
477.33724
1039.003
1041.7003
478.67847
378.62469
269.02355
145.33217
145.04748
268.13743
377.27917
476.9518
1038.4663
1035.9088
475.74397
376.33534
267.50019
144.84341
144.58043
266.67179
375.08304
474.14622
1032.8574
1029.5953
472.46795
373.731
265.74016
144.27345
143.98571
264.85048
372.39248
470.76261
1026.2577
1022.8191
469.0378
371.00377
263.89448
143.66974
143.37678
262.98212
369.62677
467.27485
1019.3613
1015.7803
465.48528
368.1939
262.00082
143.05452
142.75697
261.07189
366.79006
463.68515
1012.1249
1008.4864
461.89896
365.36194
260.09517
142.4369
142.14196
259.1713
363.96153
460.09698
1004.7753
1001.0466
458.29463
362.52484
258.1907
141.82133
141.52718
257.27023
361.13239
456.50437
997.33527
993.65541
454.7358
359.72234
256.30703
141.21198
140.9265
255.41524
358.37213
452.99798
990.044
986.48339
451.31801
357.02996
254.49632
140.62423
140.35282
253.65166
355.74903
449.66457
983.09227
979.65488
448.01695
354.44
252.75863
140.05871
139.79647
251.94854
353.21233
446.43293
976.27671
973.00225
444.87852
351.97546
251.1022
139.51435
139.26347
250.33796
350.81668
443.3807
969.81382
966.79497
441.95805
349.67978
249.55524
138.99649
138.76011
248.85303
348.6143
440.57686
963.82917
960.9263
439.25441
347.55835
248.12396
138.50363
138.2894
247.52489
346.65725
438.0923
958.15427
955.49048
437.14153
345.88489
246.9764
138.07395
137.92858
246.65497
345.4156
436.54111
952.94478
950.44139
436.2716
345.16784
246.43936
137.79086
137.65631
246.19832
344.87479
435.93453
947.84426
944.89651
434.51185
343.65889
245.27069
137.27747
136.59733
243.13139
340.61802
430.76343
941.35957
937.08629
424.59917
335.61461
239.65291
135.76702
133.6377
232.58614
325.59262
412.82467
930.15304
942.70901
443.05165
351.20031
250.81765
142.58432
135.25397
244.18517
342.5543
432.99776
945.91738
947.80947
437.29875
345.53005
246.36797
137.8125
138.62623
249.86242
350.57878
443.20833
952.4934
955.74155
444.65685
351.78663
250.83147
139.08217
139.24971
251.24686
352.34045
445.30001
958.65399
961.33472
445.59111
352.57067
251.43022
139.37395
139.55964
251.87705
353.20495
446.37151
964.01559
966.71459
447.29303
353.91877
252.36197
139.74606
139.98912
253.03931
354.9048
448.52292
969.44338
972.27716
449.78681
355.88036
253.69143
140.21301
140.47844
254.46795
357.02093
451.21812
975.26332
978.35838
452.60336
358.09825
255.1898
140.71853
141.00384
256.04787
359.36784
454.20636
981.5301
984.79099
455.69824
360.52916
256.82448
141.25736
141.55489
257.72864
361.86707
457.38669
988.15443
991.63918
458.97556
363.10627
258.55811
141.82333
142.13701
259.51906
364.53054
460.77376
995.17459
998.77873
462.44308
365.83521
260.39302
142.41862
142.74501
261.39601
367.32111
464.31723
1002.4551
1006.1845
466.05526
368.68179
262.30811
143.0382
143.37467
263.34426
370.21737
467.99167
1009.9508
1013.7163
469.76967
371.609
264.27616
143.67371
144.01143
265.31461
373.14555
471.70396
1017.4752
1021.2045
473.4794
374.53778
266.24822
144.31144
144.65016
267.28818
376.07403
475.40798
1024.882
1028.5381
477.18145
377.46277
268.21846
144.94895
145.2822
269.23902
378.96756
479.06534
1032.1491
1035.6675
480.77133
380.31038
270.14164
145.57315
145.9005
271.1417
381.78245
482.61056
1039.0526
1042.2792
484.25906
383.07956
272.01239
146.18135
146.49262
272.95131
384.4407
485.92855
1045.2612
1047.9169
487.60816
385.73861
273.80143
146.76323
146.94754
274.35512
386.48485
488.5079
1050.1716
145.03291
268.08747
377.20821
476.86273
1038.2593
1035.7586
475.65439
376.25795
267.44292
144.82397
144.55774
266.61231
375.00263
474.05276
1032.7456
1029.5232
472.41468
373.68245
265.70346
144.25733
143.979
264.83724
372.37443
470.74232
1026.2522
1022.8516
469.04009
371.00798
263.89986
143.67072
143.38554
263.0086
369.66058
467.31308
1019.3941
1015.791
465.51547
368.22771
262.03118
143.06651
142.77367
261.11118
366.84015
463.74024
1012.1298
1008.4353
461.89418
365.3679
260.10541
142.44605
142.14386
259.1673
363.95554
460.08951
1004.7076
1000.981
458.2364
362.48118
258.16168
141.81304
141.5178
257.24385
361.09677
456.46355
997.26197
993.56874
454.70164
359.69323
256.28575
141.20466
140.92192
255.40225
358.35569
452.98083
990.02738
986.52173
451.29794
357.01447
254.48593
140.62108
140.35021
253.64159
355.73431
449.64654
983.06049
979.60258
447.97391
354.4089
252.73945
140.05405
139.79035
251.92419
353.17563
446.38645
976.18209
972.88117
444.79949
351.91624
251.06439
139.50475
139.25376
250.30009
350.76106
443.31211
969.6865
966.64872
441.8582
349.60428
249.50643
138.9845
138.74886
248.80574
348.54461
440.49059
963.66788
960.78767
439.1593
347.4844
248.07514
138.49306
138.28104
247.47977
346.59041
438.00965
958.00036
955.39039
437.06565
345.82499
246.93681
138.06907
137.92685
246.61784
345.35857
436.46951
952.81336
950.30529
436.18283
345.09973
246.39646
137.79054
137.66066
246.15806
344.80897
435.84995
947.69299
944.71752
434.44842
343.61163
245.24674
137.29119
136.61963
243.13335
340.60363
430.73767
941.27814
937.09448
424.6613
335.66851
239.70038
135.7933
133.81373
233.3166
326.52349
413.8357
930.46609
951.50637
380.14426
297.48762
212.24818
127.72886
138.33453
240.8993
337.19104
426.46127
939.91735
942.30893
427.80257
338.5583
242.29506
138.64154
135.39532
239.55831
335.34259
424.07921
938.24693
941.39044
430.21183
340.20073
242.88286
136.40529
137.16574
245.14869
343.45251
434.22224
944.67432
947.49992
435.64845
344.63477
246.03258
137.55897
137.74267
246.37041
345.04416
436.09737
950.09629
952.58513
436.3199
345.22529
246.52106
137.86364
138.04684
246.92593
345.78608
436.9971
955.15436
957.82002
437.90162
346.48845
247.40381
138.2365
138.48017
248.06781
347.4529
439.10492
960.59075
963.46931
440.3582
348.42401
248.71845
138.70718
138.97426
249.49315
349.56323
441.79163
966.45405
969.52829
443.18102
350.64104
250.21282
139.21494
139.49395
251.04435
351.86844
444.72828
972.68775
975.93231
446.22266
353.0261
251.81454
139.74569
140.03306
252.68144
354.30545
447.83348
979.2525
982.66846
449.40655
355.5282
253.49649
140.297
140.59943
254.41696
356.88808
451.11812
986.13025
989.68704
452.78437
358.18366
255.27965
140.8769
141.18972
256.23419
359.59283
454.55646
993.29838
996.98737
456.27956
360.93847
257.13312
141.47879
141.80535
258.1335
362.41751
458.141
1000.6931
1004.4268
459.91612
363.80294
259.05809
142.10203
142.43184
260.06752
365.29302
461.78717
1008.1587
1011.8662
463.57742
366.689
260.99839
142.73039
143.05868
262.00007
368.16352
465.42153
1015.5217
1019.149
467.20044
369.55144
262.92601
143.35603
143.68189
263.91797
371.00987
469.02114
1022.7543
1026.2834
470.74536
372.36351
264.82537
143.97474
144.30057
265.81618
373.81945
472.56147
1029.7332
1033.0682
474.25172
375.14737
266.70626
144.58784
144.90338
267.66283
376.54246
475.97282
1036.2828
1039.2932
477.65978
377.85331
268.51987
145.17472
145.3668
269.12134
378.74839
478.80433
1042.0009
1067.724
447.24437
352.28012
250.44643
138.83446
138.65456
249.86655
351.37825
446.04579
1064.9595
1061.8082
444.59895
350.23974
249.10253
138.40731
138.15224
248.30197
349.01896
443.02739
1058.4966
1055.0459
441.41236
347.72808
247.42051
137.86203
137.58902
246.57093
346.43947
439.75828
1051.5264
1047.9349
438.09689
345.11427
245.6672
137.2916
137.01374
244.80005
343.79715
436.40253
1044.2743
1040.6528
434.73631
342.46896
243.89485
136.71627
136.43711
243.02075
341.13828
433.01935
1036.8742
1033.0614
431.29737
339.77248
242.09401
136.13433
135.85368
241.21562
338.43709
429.57591
1029.2325
1025.4176
427.86856
337.0841
240.29784
135.55371
135.27819
239.4358
335.77259
426.17609
1021.6181
1017.8928
424.52842
334.46646
238.54913
134.98783
134.72351
237.72284
333.20726
422.89981
1014.2226
1010.57
421.3412
331.96984
236.88132
134.44681
134.19554
236.09783
330.77259
419.78638
1007.1335
1003.6808
418.30437
329.59691
235.29798
133.93104
133.69139
234.55633
328.46204
416.82689
1000.332
997.01072
415.38873
327.32595
233.78477
133.43409
133.20198
233.07824
326.24659
413.98504
993.73992
990.61175
412.63899
325.18086
232.35112
132.95366
132.73252
231.69964
324.1878
411.34773
987.57928
984.66639
410.17121
323.24945
231.05234
132.50019
132.30063
230.50376
322.41583
409.08532
981.91972
979.20841
408.22005
321.71593
230.00827
132.09918
131.95695
229.70759
321.27237
407.64883
976.59503
974.04753
407.42482
321.06148
229.51772
131.8176
131.69573
229.31655
320.81067
407.13526
971.43242
968.63551
405.90238
319.7508
228.47654
131.30962
130.66852
226.1902
316.43831
401.85959
965.03284
962.28467
396.61303
312.37478
223.23397
129.43891
952.64126
375.76722
293.64168
209.15996
125.76804
130.01787
222.1359
310.74831
394.89629
960.78054
964.63758
401.7107
316.34427
226.0787
130.66568
131.37418
228.35297
319.50203
405.57151
968.17387
971.10828
406.8578
320.56239
229.13537
131.67529
131.83041
229.44005
320.92707
407.25289
973.81582
976.4136
407.48842
321.11384
229.58904
131.93959
132.10555
229.96082
321.62879
408.10612
979.07684
981.8094
408.94373
322.27909
230.40302
132.27997
132.50631
231.02685
323.19262
410.08974
984.63236
987.55622
411.26287
324.09627
231.62866
132.71518
132.96047
232.34397
325.15438
412.59908
990.58939
993.71368
413.91332
326.1626
233.01039
133.18184
133.43529
233.76646
327.28218
415.32518
996.90808
1000.2164
416.73351
328.36435
234.48125
133.66796
133.93316
235.28439
329.55644
418.23896
1003.6275
1007.1175
419.71967
330.70055
236.04221
134.17768
134.45719
236.89747
331.97344
421.33084
1010.6879
1014.3076
422.89417
333.17985
237.69494
134.71264
134.99971
238.57446
334.486
424.54219
1017.9653
1021.699
426.16605
335.7401
239.40388
135.26482
135.5602
240.3106
337.0878
427.86688
1025.4645
1029.2229
429.50469
338.3589
241.15403
135.83042
136.13251
242.08186
339.73834
431.24644
1032.9814
1036.7163
432.90126
341.02273
242.93382
136.40554
136.70706
243.85685
342.3922
434.62626
1040.4283
1044.119
436.26411
343.66734
244.70491
136.97968
137.28244
245.63141
345.04229
437.99516
1047.7536
1051.3259
439.60597
346.29751
246.46663
137.5515
137.85007
247.37585
347.64214
441.29158
1054.805
1058.1695
442.86522
348.87111
248.19457
138.11432
138.40421
249.07455
350.16292
444.46721
1061.3897
1064.3927
446.03632
351.37558
249.8617
138.65328
138.82917
250.41163
352.19581
447.08908