/*--------------------------------*- C++ -*----------------------------------*\
  =========                 |
  \\      /  F ield         | OpenFOAM: The Open Source CFD Toolbox
   \\    /   O peration     | Website:  https://openfoam.org
    \\  /    A nd           | Version:  7
     \\/     M anipulation  |
\*---------------------------------------------------------------------------*/
FoamFile
{
    version     2.0;
    format      ascii;
    class       volScalarField;
    location    "170";
    object      nut;
}
// * * * * * * * * * * * * * * * * * * * * * * * * * * * * * * * * * * * * * //

dimensions      [0 2 -1 0 0 0 0];

internalField   nonuniform List<scalar> 
25201
(
6.8439813
6.8808143
6.8439974
6.8808493
6.9956394
6.9109018
6.8547345
6.8788097
6.9320432
7.0203324
6.9319936
6.9108657
6.9557596
6.8337514
6.7403599
7.0064265
6.9873828
6.9644919
6.9682839
6.8350653
6.9337529
6.9148809
6.9550329
6.8995218
6.9095362
6.8055235
6.8444804
6.9420806
6.8986904
6.7910694
6.8329207
6.8844811
6.5922414
6.6627357
6.7470013
6.7363498
6.8587764
6.8038429
6.6526404
6.5799629
6.7587231
6.7332602
6.7661473
6.5534467
6.5420008
6.5554403
6.728544
6.920457
6.9611967
6.9556951
6.9782955
6.9924812
7.017358
7.044061
7.0443214
7.0308827
7.016013
7.0009262
7.0227068
6.9198348
6.9234515
6.9864578
7.0050851
7.0425155
7.0693086
7.0607035
7.0668275
7.0071721
6.9601263
6.8174236
6.7704926
6.8062948
6.9597052
6.9887943
6.9530309
6.6584401
6.6988911
6.7662969
6.8019063
6.8510036
6.9161492
6.9537765
6.910346
6.9071292
6.8592915
6.8974021
6.8406835
6.8297104
6.7619537
6.7952468
6.7255188
6.675907
6.6857647
6.7133573
6.7190533
6.7689094
6.7857299
6.7378481
6.638646
6.7057613
6.6903589
6.6289227
6.624162
6.6886018
6.6740873
6.6244486
6.4912339
6.5718271
6.6108829
6.6310957
6.6033546
6.5907716
6.507124
6.5163096
6.3721734
6.4776364
6.4624575
6.3638575
6.3583258
6.4993725
6.5849687
6.4629434
6.4516006
6.3535359
6.1918239
6.3242117
6.4137942
6.6127664
6.7982425
6.6568335
6.5844627
6.5468573
6.5584422
6.5927258
6.6675972
6.7439181
6.842883
6.9127825
6.9873137
7.0166884
7.0310504
7.0052182
6.9201426
6.9243448
7.0020424
7.0230138
7.0441681
7.0443549
6.978263
7.0607281
7.069322
7.0424664
6.9602897
7.0071918
7.0668655
7.044884
6.9924837
6.9613748
6.9610401
6.9892271
6.7709856
6.8074148
6.8984877
6.9186518
6.9559841
6.8536925
6.8047174
6.7675156
6.6873121
6.7499881
6.8603162
6.9080842
6.8161812
6.8694688
6.9090368
6.8385022
6.8155634
6.8092245
6.6299425
6.6326678
6.4527715
6.5194213
6.5618202
6.4770986
6.4521551
6.3640659
6.445647
6.4574188
6.3544571
6.1933404
6.3299806
6.4240028
6.6307694
6.8108546
6.6776825
6.7286496
6.7661515
6.3627475
6.4667659
6.5890507
6.6927882
6.6771376
6.627754
6.6892075
6.7178905
6.6285185
6.5038709
6.4943257
6.5744837
6.4538344
6.3563524
6.1939765
6.3257042
6.3342198
6.3350269
6.4263361
6.8808474
6.8439307
6.9442622
6.9423598
6.8987149
6.7661787
6.6629721
6.8331106
6.7912337
6.7588006
6.7332487
6.5419388
6.5534168
6.5921426
6.5799871
6.6527778
6.8039527
6.8590234
6.8848261
6.7472398
6.7365884
6.8301116
6.9153388
6.9877374
0.0012551584
0.0071662524
0.017518927
0.029908722
0.3805208
0.38653161
0.030871122
0.018050896
0.0073794472
0.0012886269
0.001306674
0.0075681455
0.018515202
0.031642158
0.39406095
0.39847285
0.031890127
0.018671382
0.007636295
0.0013148005
0.001317587
0.0076592218
0.018719568
0.031952307
0.40125508
0.4029836
0.031947637
0.018725257
0.0076646919
0.0013187033
0.0013197241
0.0076732602
0.018742682
0.031967248
0.40420766
0.40518857
0.031995829
0.018762345
0.0076822737
0.0013206626
0.0013218572
0.0076962219
0.018796267
0.03205002
0.40606511
0.40691913
0.032102133
0.018827607
0.0077092183
0.0013229375
0.0013242294
0.0077257067
0.018868665
0.032170196
0.40777715
0.40866534
0.032229871
0.018904203
0.0077403194
0.0013253719
0.0013267211
0.0077581577
0.018948747
0.03230413
0.40958431
0.41053759
0.032368298
0.018986947
0.0077738515
0.0013279144
0.0013293145
0.0077926368
0.019033724
0.032446192
0.41151811
0.41253542
0.032514362
0.01907437
0.0078093474
0.0013305662
0.0013320256
0.0078291046
0.019123487
0.032596066
0.41358692
0.41468258
0.032668857
0.019166804
0.0078468537
0.0013333397
0.0013348478
0.0078673805
0.01921782
0.032753769
0.41580968
0.41696937
0.032830136
0.019263071
0.0078858398
0.001336205
0.0013377364
0.0079066465
0.019314657
0.032915879
0.41815106
0.4193533
0.032993355
0.019360629
0.0079254281
0.0013391154
0.0013406635
0.0079465485
0.019413018
0.033080507
0.42058567
0.4218403
0.033158689
0.019459307
0.0079654352
0.0013420435
0.0013435835
0.0079865565
0.019511808
0.033246186
0.42311084
0.4243944
0.033323669
0.019557575
0.0080051932
0.0013449362
0.0013464405
0.0080259101
0.019609236
0.033409994
0.42567955
0.4269603
0.033485787
0.019653758
0.0080439334
0.001347744
0.001349184
0.0080636898
0.019703119
0.03356825
0.42823177
0.42948576
0.033643659
0.019746899
0.0080810321
0.0013504037
0.0013516015
0.0080979628
0.019788697
0.033713276
0.4307051
0.4318231
0.033778039
0.019824975
0.0081119793
0.0013525545
0.4838079
0.030521198
0.018080524
0.0074639662
0.0012915732
0.0012907442
0.0074517379
0.018049212
0.030466053
0.48251388
0.48106771
0.030399049
0.01800912
0.0074354702
0.0012896425
0.0012884901
0.0074184408
0.017966299
0.030327132
0.47957949
0.47807976
0.030251173
0.017920547
0.0073998756
0.0012871573
0.0012859168
0.0073823314
0.017876897
0.030178224
0.47660091
0.47512303
0.030101225
0.017830381
0.0073633284
0.0012845457
0.0012832714
0.0073453963
0.017785992
0.030027354
0.47365912
0.47220916
0.029949962
0.017739153
0.0073262271
0.0012818783
0.0012805943
0.007308332
0.017694931
0.029876467
0.47078816
0.46938462
0.029800337
0.0176488
0.0072894133
0.0012792102
0.0012779332
0.0072715809
0.017604729
0.029727089
0.46799953
0.46663244
0.029650819
0.01755848
0.0072526272
0.0012765534
0.0012752905
0.007234994
0.017514917
0.029578521
0.46530471
0.46400151
0.029504242
0.017469819
0.0072164938
0.0012739391
0.0012727121
0.007199408
0.017427552
0.029434011
0.46274889
0.46157392
0.029366319
0.017386078
0.0071822302
0.0012714367
0.0012702769
0.0071661542
0.017346153
0.029299687
0.46041725
0.45929555
0.029232969
0.017305548
0.0071494582
0.0012690375
0.0012679135
0.0071340581
0.017267224
0.029168973
0.45818946
0.45712259
0.029103996
0.017227765
0.0071178849
0.0012666976
0.0012656103
0.0071034558
0.017192003
0.029044594
0.45610482
0.45511507
0.028984994
0.017155631
0.0070884822
0.0012644401
0.0012634112
0.0070756606
0.017124148
0.028933392
0.45415248
0.45316745
0.028886517
0.01709441
0.0070630534
0.001262327
0.0012614155
0.007053863
0.017073459
0.028855765
0.4520938
0.450837
0.028842925
0.017060121
0.0070465438
0.0012604811
0.0012593521
0.0070405887
0.017051613
0.028841427
0.44908595
0.44633585
0.02879109
0.017010401
0.0070197962
0.0012565955
0.0012491984
0.0069587509
0.016869214
0.028570167
0.4419239
0.4353342
0.02800615
0.016530335
0.0068178876
0.0012329318
0.0012085612
0.0065973409
0.01600589
0.027120101
0.42779429
0.40456125
0.024579114
0.014367979
0.0059044657
0.0011607252
0.0012069918
0.0066108798
0.016039308
0.027165605
0.42853183
0.43600449
0.02803284
0.016547828
0.0068253105
0.0012319214
0.0012487603
0.0069660481
0.016886563
0.028596953
0.44241585
0.44666196
0.028806079
0.017020193
0.0070242396
0.0012562678
0.0012591589
0.0070442804
0.017060524
0.028855477
0.44934424
0.45103275
0.028848421
0.017063825
0.0070484188
0.001260302
0.0012613063
0.007055947
0.01707882
0.028864618
0.45227188
0.45329312
0.028889502
0.017096035
0.0070638457
0.0012621949
0.001263296
0.0070763086
0.017126142
0.028937056
0.45424418
0.45517772
0.028982983
0.017154135
0.0070879933
0.0012642892
0.0012654749
0.007103081
0.017191537
0.029044362
0.45612656
0.45711284
0.029098095
0.017223927
0.0071164652
0.0012665242
0.0012677606
0.0071328837
0.017264653
0.029165144
0.45814108
0.45921737
0.029223741
0.017299984
0.0071474707
0.0012688623
0.0012701521
0.0071649932
0.017343412
0.029295268
0.46033694
0.46150144
0.029357986
0.017381242
0.0071806016
0.0012713072
0.0012726478
0.0071990343
0.017426864
0.02943311
0.46270989
0.4639617
0.029499375
0.017466846
0.0072155235
0.0012738537
0.0012752426
0.0072347591
0.017514456
0.029577807
0.46525826
0.46659553
0.029647188
0.017556259
0.0072519622
0.0012764898
0.0012779074
0.0072716977
0.017605129
0.02972774
0.4679659
0.46936428
0.029799328
0.017647995
0.0072892523
0.0012791696
0.0012805803
0.0073088171
0.01769633
0.029878918
0.4707917
0.47223307
0.029949451
0.017738698
0.0073262312
0.0012818428
0.001283269
0.007346045
0.017787815
0.030030557
0.47370225
0.47519308
0.030101554
0.017830397
0.0073635109
0.0012845277
0.0012859375
0.0073831485
0.017879104
0.03018207
0.47669887
0.47821585
0.030252537
0.017921107
0.0074002871
0.0012871728
0.0012885533
0.0074193431
0.017968394
0.030330659
0.47973975
0.48125917
0.030399816
0.018009889
0.0074363213
0.0012897521
0.0012910555
0.0074550455
0.018055885
0.030474911
0.48274209
0.48417293
0.030546778
0.018097548
0.0074712328
0.0012921428
0.0012929323
0.0074826003
0.018126488
0.03059721
0.48557103
0.0013423822
0.0079963959
0.019504636
0.033176407
0.43259314
0.43134849
0.033114563
0.019470442
0.0079833645
0.0013415127
0.0013403404
0.0079659802
0.019426171
0.033038485
0.43004526
0.428719
0.032958797
0.019378762
0.0079468298
0.0013389679
0.00133766
0.0079283837
0.019332702
0.032881178
0.42740468
0.42608235
0.032798935
0.019283583
0.0079084368
0.0013361849
0.0013348158
0.0078895755
0.019236647
0.03271989
0.42477328
0.42345887
0.032636356
0.019186658
0.0078692047
0.0013333089
0.0013319083
0.0078498982
0.019138657
0.032555596
0.42216214
0.42090612
0.032474451
0.019089784
0.0078298507
0.0013304122
0.001329019
0.0078105737
0.019041763
0.032393501
0.41964316
0.41839183
0.032309695
0.018991481
0.0077900636
0.0013275075
0.0013261167
0.0077708239
0.018943723
0.032229528
0.41716701
0.41595362
0.032146327
0.018893786
0.0077504515
0.0013246155
0.0013232458
0.0077315774
0.018846999
0.032067947
0.41479082
0.4136573
0.031988286
0.018799035
0.0077119424
0.0013217875
0.0013204645
0.0076938064
0.018754053
0.031912895
0.41256371
0.41149507
0.031836015
0.018707789
0.007674882
0.0013190508
0.0013177798
0.0076576479
0.018665054
0.031764438
0.41047878
0.40948367
0.031691429
0.018621125
0.0076396806
0.0013164207
0.0013152065
0.0076235103
0.018580986
0.03162416
0.40854306
0.4076231
0.031555666
0.018539777
0.00760666
0.0013139032
0.0013127459
0.0075917473
0.018502733
0.031493598
0.40675908
0.40591419
0.031431889
0.01846542
0.0075764245
0.0013115051
0.0013104171
0.0075633734
0.018433187
0.031378441
0.40509162
0.40424292
0.031331161
0.018403377
0.0075507568
0.0013092725
0.0013083288
0.007542089
0.018383799
0.03130284
0.40330941
0.40218479
0.031295934
0.018373554
0.0075359107
0.0013073754
0.0013062146
0.0075315055
0.018369403
0.031303161
0.40058774
0.39799788
0.031249661
0.018325948
0.0075099371
0.001303109
0.0012945142
0.0074453584
0.018173566
0.031005365
0.39395588
0.38815439
0.030370133
0.017801304
0.0072944753
0.0012752272
0.0012445818
0.0070824476
0.017276095
0.029436331
0.38202781
0.3817662
0.029959682
0.017569548
0.0071988089
0.0012518283
0.0012884906
0.00736654
0.01801637
0.030821024
0.38615798
0.39407239
0.031644514
0.018517222
0.0075692519
0.0013064604
0.0013148305
0.0076374463
0.018673812
0.031893105
0.39836716
0.40116286
0.03194491
0.018715194
0.0076577417
0.0013173769
0.0013186539
0.0076651462
0.018726475
0.031948701
0.40288841
0.40412132
0.031957448
0.018736634
0.0076710138
0.0013194888
0.0013206055
0.0076823161
0.018762644
0.031995524
0.40510621
0.40597823
0.03203949
0.018789842
0.0076938329
0.0013216356
0.0013228956
0.0077092658
0.018827994
0.03210201
0.40683038
0.40768556
0.032159997
0.018862324
0.0077233011
0.0013240168
0.0013253282
0.0077401947
0.018904242
0.032229323
0.40856504
0.40947604
0.032292829
0.018941772
0.0077555161
0.0013265038
0.001327868
0.0077735726
0.018986597
0.032367146
0.41042723
0.41140267
0.032434026
0.019026328
0.0077898603
0.0013290969
0.0013305265
0.0078090519
0.019073937
0.032513021
0.41242058
0.41346604
0.032584227
0.0191163
0.0078264173
0.0013318194
0.0013333099
0.0078466012
0.019166337
0.032667258
0.41456101
0.41568731
0.032743128
0.019211287
0.007864947
0.0013346607
0.0013361943
0.0078857723
0.019262872
0.032828709
0.41685579
0.41804961
0.032906964
0.019309291
0.0079047216
0.0013375849
0.0013391549
0.0079261437
0.019362521
0.032995598
0.41927812
0.42052117
0.033075781
0.019409854
0.0079453919
0.0013405626
0.0013421301
0.0079666974
0.019462735
0.033163793
0.42178568
0.42305225
0.033243141
0.019509546
0.0079857514
0.0013435304
0.001345089
0.0080068494
0.019561929
0.033330395
0.42433201
0.42562255
0.033407867
0.019607733
0.0080255484
0.0013464691
0.0013480083
0.0080465245
0.019660053
0.033495332
0.42693502
0.42825424
0.033571318
0.01970473
0.0080646448
0.0013493298
0.0013507781
0.008084704
0.019755037
0.033655587
0.42958438
0.4308859
0.033730919
0.019798571
0.0081018627
0.0013519665
0.0013531183
0.0081182735
0.019839448
0.03379952
0.43214381
0.43328671
0.033862071
0.019874016
0.0081314505
0.0013539854
0.0013423243
0.0079956178
0.019502506
0.033172543
0.4325527
0.43136577
0.033114387
0.01947007
0.0079831109
0.0013414724
0.0013403126
0.0079659298
0.019426263
0.03303894
0.43007591
0.4287585
0.032959487
0.019379002
0.0079468492
0.0013389478
0.0013376443
0.0079284091
0.019332868
0.032881552
0.42742751
0.42609888
0.032798055
0.019283044
0.0079082259
0.0013361609
0.0013347938
0.0078893621
0.019236153
0.032719098
0.42477654
0.42346602
0.032634989
0.01918582
0.0078688761
0.001333284
0.0013318973
0.0078497871
0.019138502
0.032555542
0.42217184
0.42089111
0.032471134
0.019087943
0.0078291967
0.0013303771
0.0013289877
0.0078100884
0.019040591
0.032391668
0.41962646
0.4183823
0.032307778
0.018990287
0.0077895825
0.0013274768
0.0013260968
0.0077705505
0.018943142
0.032228727
0.41716019
0.41596304
0.032146408
0.018893662
0.0077503447
0.001324606
0.0013232513
0.0077317123
0.018847496
0.032069011
0.41480882
0.41369569
0.031990581
0.018800179
0.0077123188
0.0013218092
0.001320503
0.007694405
0.01875571
0.031915896
0.41260357
0.41154507
0.031839516
0.018709687
0.0076755789
0.0013190991
0.0013178401
0.0076585085
0.018667307
0.031768367
0.4105284
0.40954908
0.031696868
0.018624141
0.0076408077
0.0013164985
0.001315293
0.0076246916
0.018583976
0.031629192
0.40859928
0.40767957
0.031561484
0.018543088
0.0076079387
0.0013139973
0.0013128437
0.0075930269
0.018505922
0.031498893
0.40681388
0.40595807
0.031436261
0.018468031
0.0075774984
0.001311594
0.0013104996
0.0075643373
0.018435496
0.031382161
0.40512303
0.4042633
0.031333638
0.018404921
0.0075514331
0.0013093382
0.0013083942
0.0075428616
0.018385702
0.031306042
0.40334166
0.40221272
0.031297838
0.018374726
0.0075364255
0.0013074234
0.0013062565
0.0075322054
0.018371086
0.031305901
0.40062414
0.3980534
0.031252389
0.018327621
0.0075106193
0.001303137
0.0012944505
0.0074452382
0.018173414
0.031004992
0.39400483
0.38822595
0.030366118
0.017799514
0.0072938578
0.0012750994
0.0012438198
0.0070783632
0.01726717
0.029420899
0.38223866
0.42970276
0.027212851
0.016089218
0.0066402309
0.0012038113
0.0012318834
0.0068206667
0.016532258
0.028007796
0.43578818
0.44254411
0.028604245
0.01689094
0.0069678677
0.0012488491
0.0012566717
0.0070281639
0.017029572
0.028820742
0.44680042
0.44945891
0.028859919
0.017062827
0.0070453043
0.0012592993
0.0012605562
0.0070512742
0.01707121
0.028860258
0.45112389
0.45234174
0.028865954
0.017079219
0.0070561997
0.0012613677
0.0012624021
0.0070662033
0.017102044
0.028898892
0.45336689
0.45430911
0.028937324
0.017126266
0.0070765807
0.0012633549
0.0012645213
0.0070909
0.017161521
0.028994544
0.45524974
0.45621202
0.02904752
0.017193242
0.0071039078
0.0012655558
0.0012667571
0.0071195398
0.017231849
0.029110735
0.45721454
0.45824831
0.029168851
0.017266575
0.0071337526
0.0012678347
0.0012690773
0.0071504049
0.017307634
0.02923605
0.45932244
0.46043662
0.029298432
0.017344904
0.0071656435
0.001270202
0.0012714877
0.0071831385
0.01738797
0.029368887
0.46159766
0.46279871
0.029434561
0.017427278
0.0071992296
0.0012726598
0.0012739921
0.0072175592
0.017472414
0.029508491
0.46404195
0.46532021
0.029576847
0.017513354
0.0072343221
0.0012752042
0.0012765758
0.0072532878
0.01756012
0.029653649
0.46664752
0.46800101
0.029722776
0.017601763
0.0072704304
0.001277818
0.0012792322
0.0072900897
0.017650414
0.029803004
0.46939094
0.47080623
0.029873333
0.017692713
0.0073074938
0.0012804955
0.0012819307
0.0073273064
0.017741833
0.029954494
0.47225118
0.47371979
0.030025544
0.017784529
0.0073448513
0.0012832109
0.001284652
0.0073648289
0.01783416
0.030107702
0.47521361
0.47671913
0.03017854
0.017876567
0.0073822012
0.0012859106
0.0012873128
0.0074016728
0.017925023
0.030258856
0.47823361
0.479739
0.030327875
0.017966179
0.0074184159
0.0012885165
0.0012898252
0.0074371193
0.018012663
0.03040445
0.48122638
0.48265351
0.030471663
0.01805218
0.007452907
0.0012908762
0.0012918799
0.007466786
0.018085841
0.030526718
0.48400872
0.48528663
0.030583435
0.018117766
0.0074791167
0.0012927266
0.43307771
0.033846342
0.019865363
0.0081282467
0.0013537794
0.0013528974
0.0081154599
0.01983246
0.033787918
0.43194417
0.43078793
0.033725889
0.019795582
0.0081004361
0.0013518085
0.001350646
0.0080833467
0.019751875
0.033650495
0.42951878
0.42821498
0.033571411
0.019704838
0.0080643605
0.0013492582
0.0013479227
0.0080457799
0.019657967
0.033491439
0.4269431
0.42564486
0.033409105
0.019608753
0.0080257425
0.0013464337
0.0013450304
0.008006348
0.019560217
0.033326819
0.4243679
0.42308065
0.03324308
0.019510004
0.0079858361
0.0013435032
0.0013420786
0.0079661696
0.019460958
0.033160233
0.42183057
0.42058062
0.03307782
0.01941134
0.0079458201
0.0013405608
0.0013391535
0.0079262951
0.019362641
0.032995576
0.41936869
0.41815531
0.032914036
0.019313486
0.0079061267
0.0013376561
0.001336271
0.0078869101
0.01926555
0.03283311
0.41698387
0.41581653
0.032752528
0.01921701
0.0078670163
0.0013347935
0.0013334346
0.0078482419
0.01917019
0.032673548
0.41469684
0.41358845
0.03259436
0.019122526
0.0078287315
0.001331981
0.0013306635
0.0078107323
0.019077749
0.032519036
0.41253815
0.41150782
0.032443852
0.019032456
0.0077921647
0.0013292635
0.0013280044
0.0077751982
0.018990237
0.032372819
0.41053566
0.4095785
0.032301871
0.018947518
0.0077576928
0.0013266632
0.0013254616
0.0077418207
0.018907935
0.032235187
0.40867739
0.4077862
0.032168772
0.018867935
0.0077254332
0.0013241724
0.0013230262
0.0077108843
0.018831666
0.032107825
0.40694469
0.40609416
0.032051368
0.018797042
0.0076964884
0.0013218145
0.001320768
0.0076845134
0.018767797
0.032003779
0.40524868
0.40426923
0.031970013
0.018744463
0.0076739944
0.0013196879
0.0013188387
0.0076679017
0.018732977
0.031959177
0.40306016
0.40133551
0.031959589
0.018724339
0.0076612888
0.0013175956
0.0013150197
0.0076414563
0.018683348
0.03190847
0.39857233
0.39423312
0.031660128
0.01852601
0.0075724195
0.0013065643
0.0012881434
0.0073742354
0.01803389
0.030846572
0.38639486
0.3816204
0.029958072
0.017569879
0.0071988594
0.0012510389
0.0012552357
0.0071796195
0.017547533
0.029950325
0.380946
0.38679236
0.030882223
0.018058742
0.0073831448
0.0012881917
0.0013062349
0.0075693007
0.01851685
0.031643232
0.39421233
0.3985419
0.031893864
0.01867402
0.0076374238
0.0013145269
0.0013173688
0.0076595443
0.01871967
0.031951239
0.40128384
0.4029754
0.031950234
0.018727081
0.007665413
0.0013185637
0.0013195746
0.0076729931
0.018741548
0.03196448
0.40419197
0.40515786
0.031995164
0.018762249
0.0076822558
0.001320549
0.0013217319
0.0076955743
0.018794254
0.032045866
0.40602329
0.40685528
0.032100923
0.018827043
0.0077089351
0.0013228353
0.0013240927
0.0077245233
0.018865367
0.032163991
0.40770546
0.40857069
0.032226728
0.018902432
0.0077395366
0.0013252568
0.001326574
0.007756511
0.018944205
0.032295764
0.40947876
0.41042091
0.032363375
0.018984241
0.0077727677
0.0013277992
0.001329185
0.0077910446
0.019029273
0.03243789
0.41140345
0.412421
0.032510174
0.019072107
0.0078084464
0.0013304746
0.0013319207
0.0078277529
0.019119619
0.032588734
0.41347939
0.41457306
0.032665663
0.019165125
0.0078461892
0.0013332696
0.0013347597
0.0078661943
0.019214333
0.032747115
0.4157127
0.41688406
0.032826649
0.019261456
0.0078853148
0.001336152
0.0013376849
0.0079060994
0.019312759
0.032911817
0.41809352
0.41932808
0.032993928
0.01936116
0.0079256392
0.0013390938
0.0013406152
0.0079462697
0.019411993
0.033078283
0.42058034
0.42184567
0.033159717
0.019459991
0.0079656633
0.0013420139
0.001343525
0.0079861713
0.019510573
0.033243769
0.42312647
0.42441044
0.033323605
0.019557703
0.0080052623
0.0013449033
0.0013464055
0.0080256542
0.01960811
0.033407519
0.42570445
0.42700156
0.033485939
0.01965437
0.0080443924
0.0013477642
0.0013492532
0.0080645397
0.019704358
0.03356937
0.42830779
0.42961758
0.033647564
0.019750294
0.0080830074
0.001350581
0.0013519998
0.0081028451
0.019799563
0.033729505
0.43092418
0.43217905
0.033810893
0.019845778
0.0081205048
0.0013531939
0.0013540208
0.0081323157
0.019875699
0.033863346
0.43334003
6.9004428
6.9271027
6.9004277
6.927047
6.9895358
6.94449
6.900071
6.9273089
6.9648068
6.9445441
7.0386868
7.0498223
6.9648097
7.0054783
7.0842848
7.0810359
7.0687227
7.1013351
7.1261816
7.0992278
7.1027868
7.0833238
7.0537694
6.9370006
7.0694111
7.0098682
7.0305229
7.111289
7.112421
7.1242497
7.0905748
7.1639721
7.1475992
7.1387305
7.1727664
7.1066627
7.1278497
7.1188328
7.0989163
7.0758125
7.0943888
6.9983126
6.9107514
6.8413032
7.0477048
7.0169495
6.9875776
7.0175258
6.8176093
6.8760039
6.7731926
6.7092769
6.658942
6.7002027
6.9219223
6.953572
6.95367
6.9615215
6.8808499
6.843933
6.9112194
6.9561021
0.38292332
0.029390874
0.017251401
0.0070721961
0.0012484474
0.0012763517
0.0072789108
0.017761809
0.030302012
0.38800407
0.39346592
0.03093421
0.018130179
0.0074277244
0.0012944537
0.0013030441
0.0074980537
0.01829717
0.031203267
0.39746582
0.40010439
0.031260464
0.018342527
0.0075204853
0.0013059488
0.0013072733
0.0075289732
0.018356617
0.031268738
0.40176618
0.40297901
0.031275295
0.018366375
0.0075350227
0.0013081022
0.0013092188
0.0075469573
0.018394095
0.031316293
0.40396255
0.40486055
0.031360398
0.018421534
0.0075586348
0.0013102331
0.00131148
0.0075742694
0.01846019
0.031423629
0.40573005
0.4066072
0.031480412
0.018494151
0.0075882629
0.0013125851
0.0013138912
0.0076054417
0.018537004
0.031551651
0.40750746
0.4084291
0.031612691
0.018573527
0.0076205021
0.0013150439
0.0013164042
0.0076387757
0.018619097
0.03168858
0.40938855
0.4103835
0.031753579
0.018658049
0.0076548565
0.0013176139
0.0013190376
0.0076742541
0.018706418
0.031834121
0.4114112
0.41247485
0.031903652
0.018747932
0.0076913161
0.0013203019
0.0013217642
0.0077112906
0.018797602
0.031986281
0.41357198
0.41469928
0.032058295
0.018840731
0.0077290632
0.0013230777
0.0013245957
0.0077499507
0.018892755
0.032144965
0.4158645
0.41705792
0.032220628
0.018937781
0.0077683862
0.0013259452
0.0013274754
0.0077894096
0.018990041
0.032307551
0.41827309
0.41951446
0.032384647
0.019035744
0.007808074
0.0013288378
0.0013303672
0.0078290533
0.019087866
0.032471346
0.42076735
0.42203026
0.032547549
0.019133081
0.0078475578
0.0013317226
0.0013332491
0.0078684783
0.019185124
0.032634281
0.42331471
0.42460911
0.032708792
0.019229466
0.0078866786
0.0013345874
0.0013361014
0.0079074913
0.019281425
0.032795634
0.42591594
0.42723015
0.032869755
0.019325186
0.0079253136
0.001337401
0.0013388458
0.0079452139
0.019374802
0.032952346
0.42854653
0.42985452
0.033026797
0.019418293
0.0079625395
0.0013400644
0.0013412773
0.0079796787
0.01946104
0.0330984
0.43114315
0.43238766
0.033165261
0.019498163
0.007993793
0.0013422046
0.0013409191
0.0079758095
0.019452063
0.033085538
0.43097058
0.42982804
0.033028147
0.019418985
0.0079625819
0.0013400043
0.0013388132
0.007945181
0.019374955
0.032952837
0.42857471
0.42727434
0.032872833
0.019327055
0.0079257145
0.0013374133
0.0013360964
0.0079074238
0.019281313
0.032795594
0.42600393
0.42471814
0.032715722
0.019233345
0.0078878317
0.0013346447
0.001333295
0.0078691135
0.01918663
0.032636729
0.42346538
0.42218551
0.032554118
0.019137071
0.0078489074
0.0013318065
0.0013304306
0.0078298314
0.019089497
0.032473779
0.42092211
0.41967163
0.032392361
0.019040536
0.0078098181
0.001328949
0.0013275818
0.0077908941
0.018993326
0.032312588
0.41843861
0.41720414
0.032230166
0.018943735
0.0077706283
0.0013260927
0.0013247232
0.0077515624
0.01889636
0.032150516
0.41600769
0.41482596
0.032069613
0.018847558
0.0077315833
0.0013232519
0.0013219143
0.0077131082
0.018801664
0.031992511
0.41369843
0.41258766
0.031915937
0.018755283
0.0076940365
0.0013204948
0.0013192149
0.0076764854
0.018711663
0.031842577
0.41155826
0.41051092
0.03176651
0.018665887
0.0076577977
0.0013178263
0.0013165826
0.0076409021
0.018623897
0.031695954
0.40950575
0.40853001
0.031624121
0.018580572
0.0076231746
0.0013152442
0.0013140493
0.0076072036
0.018540821
0.031557294
0.40760158
0.40671088
0.031491883
0.018501112
0.0075908533
0.0013127768
0.0013116451
0.0075761942
0.018464579
0.031430506
0.40584597
0.40496599
0.031370206
0.018427696
0.0075609728
0.0013104165
0.001309378
0.0075487202
0.018398147
0.031322793
0.40408518
0.40310215
0.031287849
0.018373823
0.0075377372
0.0013083116
0.0013074738
0.0075311699
0.018361902
0.031277428
0.4019132
0.40023636
0.03127538
0.018351208
0.0075236328
0.0013062253
0.0013033573
0.0075010775
0.018305277
0.031217903
0.39757197
0.39335242
0.030957762
0.018141472
0.0074309939
0.0012949255
0.0012768455
0.007282559
0.017776558
0.030336664
0.38749112
0.38100399
0.029386265
0.017228029
0.0070582702
0.001248331
0.0012054644
0.0066444694
0.016210118
0.027688376
0.36813315
0.38212543
0.031157738
0.018189397
0.0073866758
0.0012704711
0.001255475
0.0072198957
0.017611637
0.030021752
0.38309227
0.38613767
0.030793216
0.018002833
0.00736251
0.0012895306
0.0013067767
0.0075638619
0.018503464
0.031619353
0.39387611
0.39806877
0.031857496
0.018652092
0.0076288595
0.001314796
0.001317491
0.0076534229
0.018704969
0.031927721
0.40089415
0.4026431
0.031925337
0.018711778
0.0076592486
0.0013185695
0.0013195664
0.0076685041
0.018730981
0.031947918
0.40391298
0.40491719
0.031978961
0.018751937
0.007677963
0.0013204902
0.0013216606
0.0076919525
0.018785735
0.032032528
0.4058033
0.4066524
0.032087038
0.018818254
0.0077053194
0.0013227355
0.0013240006
0.0077215563
0.018858395
0.032153155
0.40752572
0.40842466
0.032213763
0.018894486
0.0077363925
0.0013251458
0.0013264991
0.0077544209
0.018939401
0.032288435
0.40934675
0.41029806
0.032353776
0.01897831
0.0077703886
0.001327702
0.0013291071
0.0077892949
0.019025289
0.032431877
0.41129003
0.41232783
0.032501353
0.019066684
0.0078063038
0.0013303741
0.0013318479
0.0078263562
0.019116586
0.032584427
0.41339441
0.41449478
0.032657351
0.019160069
0.0078442232
0.0013331695
0.001334694
0.0078650775
0.019211945
0.032743773
0.4156354
0.41680911
0.032819833
0.019257257
0.0078836668
0.0013360602
0.0013376231
0.0079051566
0.019310839
0.032909309
0.41801589
0.41924134
0.032987471
0.019357245
0.0079241205
0.0013390098
0.0013405724
0.0079455593
0.019410645
0.033076708
0.42048977
0.42175065
0.033154667
0.019456906
0.0079644768
0.0013419581
0.0013435213
0.0079858784
0.019510208
0.033243652
0.42302234
0.42431384
0.03332205
0.019556465
0.008004714
0.0013448977
0.0013464289
0.0080256524
0.019608641
0.033409259
0.42562432
0.426937
0.033484489
0.019653145
0.0080438223
0.0013477613
0.0013492569
0.0080643233
0.01970439
0.033570318
0.42824372
0.42953545
0.033644301
0.019747921
0.0080819341
0.0013505323
0.0013519426
0.0081013702
0.019796025
0.03372363
0.43079072
0.43197103
0.033807673
0.019844293
0.0081200954
0.001353162
0.001353981
0.008134532
0.019873332
0.033852392
0.43305884
0.0013408444
0.007974411
0.01944873
0.033080078
0.43091719
0.42978926
0.03302201
0.019415044
0.0079609217
0.0013399045
0.0013386989
0.0079435336
0.019370906
0.032946337
0.42854662
0.42726897
0.032869932
0.019325222
0.0079249759
0.0013373332
0.0013360664
0.007907395
0.019281272
0.032795519
0.42602498
0.42475535
0.032717616
0.019234524
0.0078883118
0.001334659
0.0013333552
0.0078701512
0.019189239
0.032641059
0.423502
0.42221589
0.032558331
0.019139811
0.0078500806
0.0013318905
0.0013305412
0.0078312054
0.019092987
0.03247962
0.420945
0.41966573
0.032393601
0.019041331
0.0078101479
0.0013290245
0.0013276196
0.0077907
0.01899305
0.032312625
0.41840992
0.4171702
0.032226596
0.018941535
0.0077697705
0.0013260769
0.0013246953
0.0077510127
0.018895031
0.032148574
0.41597519
0.41479508
0.032068303
0.018846674
0.0077311965
0.0013232282
0.0013218993
0.0077128892
0.018801284
0.031992138
0.41368655
0.41259095
0.031915238
0.01875482
0.0076938297
0.0013204836
0.0013192048
0.0076762457
0.018711107
0.031841689
0.41153282
0.41047876
0.031764015
0.018664525
0.0076573014
0.0013178057
0.0013165551
0.007640281
0.018622304
0.031693251
0.40945749
0.40847569
0.031619582
0.018578011
0.0076222163
0.0013152004
0.0013140041
0.0076062691
0.018538526
0.031553567
0.40754504
0.40664743
0.031486314
0.018497921
0.0075896263
0.0013127207
0.0013115923
0.0075750058
0.018461696
0.031425836
0.40577469
0.40490218
0.031364991
0.018424577
0.0075597107
0.001310367
0.001309339
0.0075475231
0.018395296
0.031318231
0.40401326
0.40304286
0.031283511
0.01837115
0.0075366148
0.0013082885
0.0013074641
0.0075300588
0.018359229
0.031273072
0.40183905
0.40016525
0.031269713
0.018347843
0.0075222686
0.0013062174
0.0013033645
0.0074998777
0.01830228
0.031212836
0.3975158
0.39334429
0.030955552
0.018140283
0.0074305485
0.0012949821
0.0012770125
0.0072836434
0.017779105
0.030340709
0.3876042
0.38128643
0.029404546
0.017238372
0.0070624457
0.0012488187
0.0012071392
0.0066792783
0.016295419
0.027824102
0.36941127
0.40912483
0.025098643
0.014704832
0.0060437109
0.0011715996
0.0012432375
0.0070313871
0.017187033
0.02928042
0.3762542
0.3808947
0.029379312
0.017253619
0.0070599297
0.001240856
0.0012473299
0.0070684239
0.017243141
0.029380269
0.38273455
0.38802246
0.030303403
0.017762753
0.0072797256
0.0012760022
0.0012943447
0.0074294729
0.018135425
0.030943368
0.39352242
0.39757645
0.031203802