/*--------------------------------*- C++ -*----------------------------------*\
  =========                 |
  \\      /  F ield         | OpenFOAM: The Open Source CFD Toolbox
   \\    /   O peration     | Website:  https://openfoam.org
    \\  /    A nd           | Version:  7
     \\/     M anipulation  |
\*---------------------------------------------------------------------------*/
FoamFile
{
    version     2.0;
    format      ascii;
    class       volScalarField;
    location    "170";
    object      omega;
}
// * * * * * * * * * * * * * * * * * * * * * * * * * * * * * * * * * * * * * //

dimensions      [0 0 -1 0 0 0 0];

internalField   nonuniform List<scalar> 
25201
(
162.9768
163.57774
162.97684
163.57794
167.1806
162.63679
161.69562
166.00149
166.62487
169.90441
166.62453
162.63658
164.67586
195.39565
201.47425
167.76825
172.74871
178.11081
180.0758
195.96557
184.26134
185.00063
180.85999
188.91582
188.70759
199.53716
192.06327
176.8024
179.55943
193.43987
191.18377
187.94686
210.91944
207.27988
202.30573
201.35785
188.73613
191.97675
206.06192
209.63807
194.27393
195.56428
194.74064
212.80445
211.44066
209.18945
195.255
178.88275
167.05914
164.67535
168.28368
170.3086
177.1778
174.20082
170.80683
169.8877
168.3727
172.7754
173.69435
187.13698
183.39491
177.68709
178.60598
178.44043
179.78433
172.47453
175.72313
187.59038
187.32808
195.94165
195.9486
191.35697
176.43822
176.91017
179.18923
201.32327
196.92717
193.84678
191.6434
188.74408
184.79713
181.00679
188.15676
188.53541
192.84045
186.40329
193.91588
195.28383
203.68935
199.155
204.61026
207.94202
208.27845
208.06346
208.83758
204.12437
204.21813
208.99469
218.24513
212.22153
211.95052
217.50429
216.45396
211.05123
210.59068
215.01692
225.46101
219.09271
214.32342
214.49861
220.7333
220.22946
227.327
228.17588
238.91815
230.46335
230.13754
238.05611
237.11451
226.41332
219.5055
229.11751
228.82067
236.25624
248.00397
238.4591
230.13482
214.38565
199.24327
206.18913
209.77866
211.59219
209.25987
207.63823
204.07392
199.87355
193.95027
188.20799
177.70089
168.38195
169.88918
178.60475
187.14546
183.3973
172.7928
173.69961
174.20347
170.80679
168.28314
172.47444
179.78331
178.43689
187.33849
187.59268
175.72446
178.53323
170.30966
167.06237
176.4633
176.91991
195.96459
191.37808
186.40997
184.84705
181.0486
188.80765
191.7142
193.87313
202.54233
199.05446
192.84957
188.54168
197.58732
190.85602
190.56908
197.13261
197.57961
197.76415
212.36772
211.93146
224.90796
220.11043
218.77257
225.11202
225.34026
233.51996
227.35488
227.66006
235.13829
247.03492
237.40621
228.52072
212.38996
197.79781
207.98391
204.69209
203.83986
237.2972
229.27703
219.66239
211.20389
210.67004
215.10279
208.36302
208.22021
216.61398
226.58621
225.55234
219.17068
228.89346
236.34615
248.07242
238.50408
238.98768
240.05048
231.0262
163.56193
162.9275
162.13706
176.79683
179.55692
194.74104
207.29266
191.18319
193.44318
194.27442
195.56592
211.4439
212.80722
210.92376
209.64866
206.07345
191.97661
188.73116
187.94883
202.31412
201.3678
195.28287
184.99457
172.73448
108272.98
33956.789
19499.27
14452.779
2484.6238
2455.3307
14205.176
19198.238
33468.785
107014.1
106149.71
33054.641
18959.129
14025.63
2419.7623
2401.0421
13961.609
18865.569
32885.965
105811.81
105712.81
32833.677
18841.043
13950.486
2391.2809
2387.4342
13959.855
18845.37
32830.811
105716.2
105776.04
32849.426
18859.751
13974.275
2386.5828
2387.382
13989.493
18876.763
32872.29
105843.4
105935.34
32901.098
18895.527
14004.687
2388.9873
2391.0244
14020.264
18914.803
32928.94
106018.9
106120.2
32960.8
18935.302
14036.214
2393.2273
2395.5293
14052.713
18956.065
32990.849
106209.49
106315.88
33024.704
18978.005
14069.732
2397.8658
2400.2207
14087.235
19000.09
33056.562
106409.66
106520.46
33092.201
19023.334
14105.256
2402.5693
2404.9133
14123.758
19046.732
33125.929
106619.32
106735.3
33163.404
19071.215
14142.696
2407.2252
2409.5012
14162.019
19095.733
33198.849
106839.46
106959.52
33237.635
19121.053
14181.527
2411.6955
2413.8146
14201.295
19146.218
33274.137
107067.2
107189.47
33313.631
19171.939
14221.003
2415.8172
2417.7268
14241.022
19197.562
33350.95
107299.95
107425.04
33391.212
19223.666
14260.92
2419.4787
2421.0964
14280.967
19249.498
33429.074
107537.57
107664.26
33469.578
19275.572
14300.701
2422.5414
2423.8378
14320.368
19301.093
33507.216
107776.83
107902.25
33547.124
19326.552
14339.465
2424.9293
2425.8073
14358.142
19350.979
33583.438
108011.53
108131.5
33621.103
19374.668
14375.649
2426.3919
2426.6751
14392.373
19396.56
33653.621
108233.53
108334.21
33684.162
19416.4
14406.983
2426.5834
2426.1897
14419.396
19433.059
33709.668
108414.96
2198.8687
14596.445
19408.059
33431.246
107260.25
107187.35
33406.886
19391.371
14583.541
2199.5594
2199.7469
14568.617
19371.982
33378.242
107091.49
106991.05
33347.971
19350.821
14551.78
2199.6525
2199.3413
14534.643
19327.986
33312.423
106875.81
106768.15
33277.44
19303.782
14515.523
2198.7691
2198.0267
14496.764
19279.106
33239.721
106649.74
106540.24
33203.707
19253.888
14476.667
2197.057
2195.9485
14457.246
19228.589
33165.428
106421.63
106313.42
33129.087
19202.939
14436.655
2194.6392
2193.2345
14417.005
19177.571
33091.126
106197.9
106092.23
33055.683
19152.299
14396.537
2191.6803
2190.0573
14377.147
19127.434
33018.642
105978.32
105874.61
32983.898
19102.599
14356.945
2188.2952
2186.4694
14337.863
19078.195
32947.604
105763.47
105662.78
32913.765
19053.947
14318.057
2184.5261
2182.6629
14299.872
19030.721
32879.286
105558
105463.07
32847.452
19007.825
14281.07
2180.6996
2178.7418
14263.706
18985.696
32814.476
105361.58
105269.92
32784.004
18963.851
14245.736
2176.6908
2174.6681
14229.094
18942.651
32752.181
105170.62
105082.53
32723.138
18921.894
14211.973
2172.6387
2170.7112
14196.314
18902.004
32693.066
104987.65
104905.53
32666.279
18882.807
14180.231
2168.9054
2167.4524
14165.643
18864.951
32639.578
104820.43
104755.35
32618.297
18848.594
14150.547
2166.571
2167.0758
14138.404
18836.925
32604.145
104706.96
104715.22
32611.899
18835.711
14131.354
2169.8825
2177.4731
14147.419
18866.416
32674.217
104835.49
105221.4
32851.371
18963.457
14213.554
2192.4449
2217.169
14370.977
19172.953
33215.339
106085.74
107686.74
33733.294
19460.793
14596.791
2245.8975
2351.2288
15317.392
20467.656
35482.897
108894.91
107643.51
33706.263
19442.513
14586.777
2244.4217
2215.1042
14366.507
19165.4
33197.393
106030.12
105198.16
32839.491
18957.628
14209.799
2190.8448
2176.2377
14143.666
18861.148
32664.124
104814.19
104701.6
32604.166
18831.49
14128.441
2168.8842
2166.2146
14135.235
18832.743
32597.122
104692.74
104746.47
32612.783
18845.278
14148.222
2165.8867
2166.8292
14162.838
18861.305
32634.011
104809.35
104895.75
32661.103
18879.427
14177.776
2168.3659
2170.2218
14193.303
18898.201
32687.572
104974.92
105071.12
32717.966
18918.394
14209.392
2172.2092
2174.2761
14226.003
18938.754
32746.606
105156
105257.03
32778.939
18960.437
14243.236
2176.3669
2178.4715
14260.966
18982.227
32809.462
105346.78
105452.67
32843.611
19005.271
14279.274
2180.5574
2182.6231
14297.997
19028.339
32875.899
105547.33
105658.01
32911.729
19052.572
14317.207
2184.6379
2186.6005
14336.761
19076.76
32945.658
105757.59
105872.95
32982.991
19101.974
14356.68
2188.4778
2190.2723
14376.793
19126.967
33018.196
105976.84
106095.62
33056.501
19152.751
14397.073
2191.9492
2193.5127
14417.4
19178.099
33092.338
106201.91
106321.37
33131.053
19204.037
14437.645
2194.9296
2196.2017
14457.977
19229.614
33167.504
106429.02
106551.1
33206.649
19255.61
14478.14
2197.2888
2198.1973
14498.033
19280.796
33242.762
106659.47
106780.68
33281.275
19306.176
14517.548
2198.8844
2199.349
14536.596
19330.501
33316.493
106886.99
107005.15
33353.353
19354.409
14554.712
2199.5427
2199.4873
14572.124
19376.718
33385.602
107108.02
107219.13
33419.065
19398.542
14588.543
2199.1775
2198.6376
14603.855
19418.581
33448.167
107312.03
107380.44
33469.213
19431.901
14613.516
2197.7266
108293.29
33657.674
19419.96
14433.856
2409.5805
2410.2541
14423.818
19406.073
33635.339
108218.06
108118.44
33605.565
19386.402
14409.139
2410.3928
2410.2463
14393.1
19364.249
33569.858
108002.99
107893.49
33535.092
19340.787
14375.038
2409.812
2409.2098
14357.175
19316.488
33496.52
107771.12
107657.88
33459.245
19291.209
14337.601
2408.2856
2407.2216
14318.61
19265.719
33419.405
107533.82
107418.92
33381.366
19239.683
14298.26
2405.8756
2404.5247
14278.941
19213.965
33341.546
107296.53
107182.78
33303.665
19187.865
14258.387
2402.8719
2401.1385
14238.693
19161.879
33263.65
107059.65
106946.74
33225.902
19135.745
14218.003
2399.1918
2397.1965
14198.335
19109.934
33186.318
106825.05
106714.46
33149.218
19084.155
14177.829
2395.0295
2392.8599
14158.583
19059.003
33110.77
106596.9
106490.72
33075.051
19034.084
14138.66
2390.539
2388.2302
14120.072
19009.867
33038.043
106377.47
106276.21
33003.948
18986.021
14100.925
2385.8155
2383.4514
14083.209
18962.979
32968.656
106167.88
106071.72
32936.365
18940.397
14065.016
2381.0117
2378.6492
14048.321
18918.682
32902.897
105968.32
105877.21
32872.513
18897.492
14031.186
2376.264
2374.0364
14015.603
18877.281
32841.111
105779.42
105694.51
32812.962
18857.623
13999.438
2371.9103
2370.237
13984.562
18839.112
32784.521
105605.9
105537.44
32761.201
18821.664
13968.684
2369.213
2369.8891
13955.068
18808.272
32744.118
105483.99
105486.59
32749.139
18805.054
13946.024
2373.2934
2382.5195
13961.442
18835.536
32810.748
105598.04
105995.99
32993.53
18936.966
14031.153
2400.0225
2427.5619
14201.753
19161.435
33376.582
106932.62
108761.94
33944.118
19476.158
14451.469
2457.2493
2479.4693
14453.01
19489.445
33892.627
107870.87
106901.38
33482.798
19207.029
14210.635
2456.9765
2418.8984
14019.434
18949.951
33035.675
106077.94
105787.39
32878.593
18860.769
13957.848
2400.6152
2390.8107
13947.308
18836.421
32824.692
105683.4
105707.69
32826.645
18842.183
13957.257
2387.0187
2386.2152
13972.047
18856.492
32843.136
105755.41
105838.46
32869.272
18874.154
13987.284
2387.0282
2388.6746
14002.754
18892.698
32895.619
105917.12
106015.56
32926.466
18912.518
14018.315
2390.7199
2392.9559
14034.415
18932.639
32955.633
106102.86
106205.91
32988.428
18953.809
14050.8
2395.243
2397.6198
14067.946
18975.36
33019.556
106298.08
106405.91
33054.226
18997.919
14085.405
2400.003
2402.4028
14103.585
19020.841
33087.255
106502.72
106616.25
33123.985
19044.848
14122.165
2404.7827
2407.1524
14141.338
19069.094
33158.973
106718.82
106837.84
33197.507
19094.276
14160.766
2409.4688
2411.7301
14180.651
19119.529
33234.106
106945.67
107068.52
33273.858
19145.442
14200.529
2413.8824
2415.95
14220.762
19171.298
33311.51
107179.92
107305.84
33352.027
19197.592
14240.837
2417.8803
2419.6791
14260.979
19223.459
33389.851
107418.47
107544.02
33430.165
19249.505
14280.719
2421.2877
2422.7839
14300.565
19275.154
33467.803
107656.08
107781.21
33507.963
19300.956
14319.983
2424.0867
2425.2075
14339.379
19326.242
33545.299
107892.46
108017.79
33585.095
19351.533
14358.242
2426.0678
2426.6465
14376.648
19375.759
33621.25
108126.95
108247.95
33658.846
19399.267
14393.916
2426.8834
2426.7927
14410.159
19420.693
33690.973
108349.38
108448.72
33720.446
19439.511
14423.815
2426.2901
2425.4612
14434.794
19454.386
33743.409
108525.38
108290.38
33656.796
19419.416
14433.436
2409.4046
2410.114
14423.505
19405.664
33634.766
108217.32
108119.41
33605.49
19386.278
14409.035
2410.3133
2410.2223
14393.196
19364.401
33570.246
108005.1
107896.19
33535.77
19341.158
14375.328
2409.8194
2409.2266
14357.435
19316.835
33497.127
107772.96
107659.44
33459.86
19291.582
14337.907
2408.3261
2407.2784
14318.814
19265.978
33419.825
107534.52
107420.01
33381.876
19240.005
14298.538
2405.977
2404.5549
14278.909
19213.94
33341.484
107295.02
107181.07
33303.347
19187.692
14258.281
2402.898
2401.1531
14238.456
19161.567
33263.15
107057.57
106945.28
33225.473
19135.472
14217.812
2399.2122
2397.221
14198.195
19109.749
33186.066
106824.32
106714.96
33149.292
19084.175
14177.849
2395.0693
2392.9518
14158.781
19059.264
33111.231
106598.71
106493.91
33075.952
19034.636
14139.092
2390.661
2388.3743
14120.663
19010.635
33039.276
106381.44
106281.16
33005.478
18987.013
14101.703
2385.9889
2383.6895
14084.214
18964.247
32970.609
106174.23
106078.78
32938.622
18941.893
14066.206
2381.283
2378.9451
14049.672
18920.353
32905.4
105976.03
105885.25
32875.18
18899.294
14032.638
2376.6113
2374.3857
14017.008
18879.02
32843.643
105786.65
105701.25
32815.37
18859.294
14000.8
2372.2529
2370.548
13985.743
18840.553
32786.567
105611.31
105543.08
32763.15
18823.036
13969.822
2369.5287
2370.155
13956.058
18809.488
32745.884
105489
105492.93
32750.837
18806.255
13947.046
2373.5455
2382.7328
13962.574
18836.907
32812.956
105607.21
106005.56
32997.283
18939.358
14033.083
2400.2224
2427.5769
14203.965
19164.148
33382.572
106953.67
108740.37
33954.608
19484.998
14458.882
2457.1091
2241.4619
14603.377
19456.733
33695.771
107553.29
106046.89
33225.516
19180.216
14376.648
2216.7036
2190.9751
14210.435
18957.694
32836.663
105175.04
104822.61
32665.61
18861.887
14144.204
2176.3742
2169.1476
14129.874
18832.768
32604.627
104700.27
104709.18
32601.604
18835.236
14137.074
2166.5499
2166.2942
14150.331
18847.53
32615.041
104749.95
104826.52
32639.175
18864.226
14164.962
2167.2446
2168.7984
14180.195
18882.123
32664.012
104900.7
104994.67
32693.464
18901.63
14195.864
2170.6413
2172.6251
14212.002
18921.304
32721.235
105078.04
105175.8
32752.361
18942.051
14228.439
2174.6363
2176.6917
14245.569
18963.037
32781.819
105263.28
105365.01
32814.566
18985.047
14263.003
2178.7206
2180.7628
14281.115
19007.278
32845.69
105456.94
105562.77
32879.997
19030.434
14299.43
2182.7496
2184.7202
14318.397
19053.798
32912.722
105659.19
105769.67
32948.561
19078.018
14337.519
2186.6026
2188.4559
14357.169
19102.321
32982.7
105870.29
105984.72
33019.808
19127.365
14376.877
2190.2162
2191.8911
14396.969
19152.372
33055.055
106088.56
106206.96
33093.327
19178.128
14417.188
2193.4474
2194.8852
14437.46
19203.511
33129.276
106312.7
106432.59
33168.106
19229.426
14457.641
2196.1525
2197.2496
14477.56
19254.571
33203.998
106539.27
106659.64
33242.258
19279.907
14497.14
2198.132
2198.8108
14516.256
19304.223
33277.213
106764.98
106882.99
33314.263
19328.421
14534.725
2199.2356
2199.4159
14552.401
19351.106
33347.298
106985.43
107098.24
33380.749
19372.842
14568.886
2199.3158
2199.0182
14584.851
19393.099
33409.414
107190.36
107279.23
33438.286
19412.491
14599.461
2198.4452
2197.6138
14611.783
19428.748
33462.739
107355.5
2426.3503
14433.969
19452.813
33740.32
108511.66
108435.19
33716.915
19437.601
14422.801
2426.9786
2427.3046
14409.08
19418.873
33687.657
108341.85
108243.43
33656.972
19398.095
14393.03
2427.1117
2426.7038
14376.991
19375.94
33621.285
108128.64
108019.4
33585.691
19352.003
14358.551
2425.9671
2425.0443
14340.573
19327.558
33546.979
107898.62
107785.41
33509.527
19302.093
14320.781
2423.8156
2422.4881
14301.848
19276.654
33469.724
107662.37
107547.64
33431.618
19250.565
14281.414
2420.9183
2419.2869
14262.101
19224.822
33391.635
107425.05
107311.02
33353.611
19198.656
14241.46
2417.4496
2415.5758
14222.111
19173.031
33313.999
107189.57
107077.4
33276.528
19147.157
14201.601
2413.5568
2411.4948
14182.439
19121.911
33237.605
106958.15
106848.99
33201.014
19096.566
14162.267
2409.2541
2407.0115
14143.462
19071.9
33163.051
106732.63
106627.79
33127.77
19047.385
14123.879
2404.6382
2402.3111
14105.843
19023.777
33091.43
106516.52
106417.17
33058.005
19000.497
14087.171
2399.8948
2397.5547
14070.142
18978.217
33023.566
106311.24
106217
32992.077
18956.315
14052.516
2395.1558
2392.8709
14036.539
18935.409
32959.499
106115.7
106026.31
32929.921
18914.899
14019.932
2390.5957
2388.585
14005.064
18895.643
32899.754
105931.84
105851.88
32873.29
18876.889
13989.184
2386.9478
2386.1666
13974.498
18859.675
32847.658
105771.96
105723.4
32830.836
18845.033
13959.238
2386.9269
2390.7528
13949.858
18839.802
32829.635
105702.89
105807.79
32882.508
18863.4
13959.597
2400.4402
2418.9548
14023.336
18955.61
33045.083
106106.61
106956.15
33486.402
19209.693
14212.582
2456.4289
2480.8982
14466.72
19509.628
33933.67
108061.57
108179.39
33922.564
19483.776
14442.807
2482.7625
2453.9
14202.748
19194.138
33458.026
106966.84
106121.68
33046.264
18955.352
14023.192
2418.4405
2399.8961
13959.403
18862.39
32879.962
105795.08
105697.21
32827.17
18837.282
13947.668
2390.2287
2386.5433
13957.577
18842.265
32825.61
105705.44
105763.86
32844.098
18856.441
13971.708
2385.7741
2386.6579
13987.361
18873.96
32867.838
105833.99
105924.89
32896.656
18892.678
14002.455
2388.3119
2390.3942
14018.383
18912.289
32925.007
106010.45
106109.1
32956.476
18932.501
14034.02
2392.6226
2394.9536
14050.876
18953.589
32986.985
106200.18
106303.88
33020.48
18975.31
14067.637
2397.3281
2399.7601
14085.64
18997.918
33053.09
106400.33
106510.07
33088.763
19021.177
14103.601
2402.1677
2404.5912
14122.642
19045.153
33123.332
106612.09
106727.28
33160.868
19069.672
14141.532
2406.9532
2409.2891
14161.41
19094.793
33197.201
106834.83
106954.3
33236.166
19120.208
14180.892
2411.5133
2413.668
14201.316
19146.181
33273.911
107066.3
107190.41
33314.135
19172.316
14221.272
2415.6782
2417.5848
14241.86
19198.613
33352.528
107305.14
107429.8
33392.931
19224.761
14261.699
2419.3048
2420.902
14282.205
19251.107
33431.57
107545.3
107670.74
33472.018
19277.136
14301.833
2422.3396
2423.6598
14321.993
19303.2
33510.415
107785.95
107911.15
33550.631
19328.899
14341.239
2424.7777
2425.7242
14360.666
19354.241
33588.234
108024.35
108147.39
33627.217
19378.806
14378.825
2426.3932
2426.797
14396.653
19402.311
33662.464
108256.65
108373.34
33697.643
19424.193
14412.566
2426.8948
2426.69
14427.191
19443.919
33727.531
108471.7
108540.03
33747.513
19456.22
14435.766
2425.7758
171.31592
171.59695
171.31586
171.59656
171.49931
170.27061
169.78717
174.60339
174.82437
170.2709
172.98219
176.47463
174.82452
175.74837
176.68588
175.34321
173.53522
179.93535
181.26314
187.85435
177.97747
176.3857
187.67168
195.40491
178.90822
172.98514
176.86679
180.95532
178.93085
180.6159
178.65401
183.03801
181.65863
187.97256
188.25446
194.15299
182.41347
183.76693
182.42416
182.00491
180.30162
195.0152
199.46663
200.15257
180.68399
180.55067
179.22768
177.18435
195.94914
195.78311
200.79436
201.16535
201.34393
196.96314
178.91517
179.20337
179.19804
167.05421
163.56133
162.92633
162.59209
164.65355
2449.3144
14421.46
19430.103
33866.651
108583.03
106893.6
33362.799
19150.826
14195.321
2425.8763
2400.652
14031.149
18935.708
32992.55
105964.62
105588.88
32814.579
18835.918
13961.556
2383.668
2374.4902
13946.02
18804.621
32748.87
105463.98
105475.31
32745.796
18807.862
13954.436
2370.957
2370.2647
13968.584
18821.076
32760.008
105518.51
105601.39
32785.731
18838.755
13984.072
2371.1408
2372.7756
13999.461
18857.079
32811.503
105679.23
105777.31
32841.971
18876.844
14015.084
2374.7908
2376.9961
14031.104
18896.825
32870.76
105863.92
105967.32
32903.324
18918.015
14047.633
2379.283
2381.6021
14064.652
18939.379
32934.001
106058.24
106166.49
32968.564
18962.026
14082.305
2383.9661
2386.3312
14100.382
18984.794
33001.233
106262.52
106376.4
33037.759
19008.803
14119.086
2388.6877
2391.0066
14138.019
19032.703
33072.1
106477.42
106595.01
33110.023
19057.635
14157.353
2393.2679
2395.4581
14176.966
19082.531
33145.922
106700.56
106823.29
33185.331
19108.368
14196.929
2397.5754
2399.5802
14216.879
19133.798
33222.194
106932.51
107056.79
33262.067
19159.83
14236.853
2401.4424
2403.1853
14256.811
19185.41
33299.304
107167.59
107292.41
33339.286
19211.398
14276.62
2404.758
2406.2025
14296.394
19236.9
33376.562
107403.34
107528.61
33416.589
19262.767
14315.975
2407.4714
2408.5508
14335.354
19287.963
33453.628
107638.99
107764.21
33493.293
19313.362
14354.44
2409.4027
2409.9944
14372.951
19337.584
33529.175
107872.49
107993.17
33566.805
19361.355
14390.548
2410.283
2410.2605
14407.299
19383.324
33599.476
108096.01
108198.83
33630.293
19403.101
14421.762
2409.8794
2409.1814
14433.128
19418.481
33654.055
108278.7
108170.2
33618.835
19395.329
14415.719
2409.5991
2410.0542
14404.198
19379.763
33594.655
108091.76
107991.48
33563.967
19359.17
14388.631
2409.9821
2409.682
14372.596
19337.194
33528.858
107874.99
107765.96
33493.902
19313.648
14354.447
2409.0334
2408.2304
14336.771
19289.613
33455.896
107646.43
107535.68
33419.536
19264.809
14317.454
2407.1891
2406.0048
14298.814
19239.825
33380.547
107413.89
107301.33
33343.233
19214.234
14278.755
2404.542
2403.037
14259.503
19188.638
33303.615
107180.11
107068.32
33265.925
19162.601
14238.939
2401.249
2399.4169
14219.431
19136.925
33226.489
106946.77
106835.28
33189.467
19111.215
14198.975
2397.3962
2395.3549
14179.647
19085.885
33150.652
106715.87
106607.89
33114.437
19060.66
14159.501
2393.1539
2390.9668
14140.835
19036.235
33077.087
106493.58
106391.17
33042.681
19012.155
14121.488
2388.7075
2386.4283
14103.436
18988.651
33006.7
106280.1
106181.31
32973.664
18965.544
14084.856
2384.0366
2381.7155
14067.696
18943.198
32939.321
106074.86
105980.4
32908.014
18921.313
14050.023
2379.3181
2377.1062
14034.031
18900.474
32875.782
105879.76
105790.89
32846.706
18880.165
14017.492
2374.8645
2372.8568
14002.28
18860.651
32816.407
105694.36
105614.57
32790.312
18841.965
13986.374
2371.1691
2370.3433
13971.607
18824.874
32765.324
105535.98
105492.42
32751.216
18811.537
13957.065
2371.0214
2374.7003
13949.362
18808.998
32755.368
105487.82
105616.71
32821.727
18840.185
13964.247
2384.0822
2402.1627
14035.635
18943.274
33006.445
106011.86
106980.31
33385.433
19161.079
14199.433
2429.3707
2459.5183
14448.899
19480.732
33953.49
108758.83
110859.93
35004.472
20085.765
14909.674
2526.6756
2467.0145
14219.634
19307.969
33955.416
112229.49
107731.31
33821.15
19450.452
14422.801
2469.1633
2454.5895
14201.139
19193.093
33462.497
106870.28
106082.57
33033.71
18946.657
14016.996
2418.2563
2400.9458
13957.684
18860.439
32879.289
105782.32
105693.1
32828.039
18836.73
13947.128
2391.2895
2387.5604
13957.288
18842.179
32827.009
105700.88
105761.74
32845.655
18856.725
13971.85
2386.6913
2387.4377
13987.103
18873.718
32868.349
105828.92
105919.12
32896.629
18892.25
14002.108
2388.949
2390.9294
14017.711
18911.444
32924.194
106002.3
106101.5
32955.526
18931.671
14033.401
2393.1332
2395.4439
14050
18952.527
32985.632
106190.98
106297.73
33019.599
18974.615
14067.153
2397.7963
2400.1844
14084.855
18996.905
33051.691
106392.37
106503.75
33087.544
19020.319
14102.998
2402.5733
2404.9776
14121.737
19044.018
33121.708
106604.1
106721.65
33159.628
19068.809
14140.92
2407.3247
2409.6292
14160.459
19093.627
33195.514
106827.09
106949.62
33235.02
19119.413
14180.321
2411.8618
2414.0175
14200.415
19145.083
33272.348
107059.7
107186.15
33312.972
19171.48
14220.647
2416.0584
2417.9778
14240.851
19197.412
33350.85
107298.47
107425.33
33391.558
19223.759
14260.91
2419.7384
2421.3466
14280.928
19249.607
33429.468
107537.97
107664.95
33470.103
19275.758
14300.715
2422.7611
2424.0031
14320.291
19301.176
33507.563
107776.93
107901.87
33547.306
19326.559
14339.299
2425.0237
2425.8087
14358.031
19351.121
33583.74
108011.07
108133.97
33622.375
19375.502
14376.109
2426.3114
2426.5265
14393.494
19398.476
33656.843
108239.8
108357.13
33691.993
19420.095
14409.142
2426.3782
2425.8962
14423.003
19438.264
33718.992
108459.47
108529.99
33727.216
19447.411
14430.528
2425.0089
108165.36
33618.466
19395.005
14415.405
2409.4172
2409.9221
14404.162
19379.712
33594.467
108085.29
107983.77
33563.44
19359.065
14388.633
2409.8792
2409.5436
14372.244
19336.516
33527.353
107869.4
107763.35
33492.35
19312.752
14353.861
2408.9015
2408.0959
14336.011
19288.649
33454.543
107646.01
107537.39
33418.495
19263.952
14316.726
2407.0586
2405.8568
14297.891
19238.837
33379.425
107416.12
107304.96
33342.4
19213.345
14277.884
2404.4228
2402.9488
14258.809
19188.149
33303.52
107180.91
107066.7
33266.24
19162.564
14238.692
2401.2518
2399.4548
14219.2
19136.843
33226.423
106941.79
106830.45
33188.418
19110.673
14198.563
2397.4073
2395.3243
14179.161
19085.237
33149.559
106712.25
106605.63
33113.693
19060.171
14159.129
2393.1824
2391.0407
14140.516
19035.878
33076.626
106492.1
106390.01
33042.401
19011.933
14121.316
2388.7779
2386.4879
14103.189
18988.369
33006.334
106278.23
106178.88
32973.158
18965.195
14084.59
2384.0866
2381.7358
14067.216
18942.622
32938.503
106071.1
105976.66
32907.077
18920.655
14049.509
2379.3358
2377.1175
14033.342
18899.652
32874.666
105875.15
105786.58
32845.617
18879.339
14016.829
2374.8842
2372.8883
14001.576
18859.831
32815.427
105690.28
105611.33
32789.535
18841.252
13985.772
2371.2102
2370.4436
13971.119
18824.352
32764.95
105534.12
105491.89
32751.117
18811.169
13956.72
2371.1318
2374.7821
13949.051
18808.735
32755.605
105488.22
105619.46
32821.611
18839.673
13963.805
2384.0386
2401.7573
14034.588
18941.912
33005.201
106017.83
106983.79
33380.733
19157.524
14196.691
2428.4519
2457.7179
14442.029
19472.17
33940.138
108737.4
110851.95
34931.409
20037.747
14873.282
2518.781
2325.7116
15146.008
20230.603
35118.85
109020.92
111269.6
34260.565
19618.921
14564.725
2498.0913
2473.9355
14561.354
19622.451
34319.754
111730.56
108548.12
33891.334
19447.884
14434.15
2451.43
2426.1236
14196.816
19152.478
33364.288
106900.52
105973.11
32996.781
18938.211
14032.805
2400.5604
2383.1893
13961.39
18835.186
32811.528
105582.01
105470.38
32749.385
18804.712
13945.985
2374.0573
2370.5765
13954.417
18807.428
32743.545
105467.62
105525.6
32760.845
18821.184
13968.527
2369.9277
2370.8362
13984.04
18838.357
32783.792
105594.13
105685.3
32812.301
18857.072
13999.246
2372.4781
2374.5314
14015.127
18876.592
32840.365
105770.45
105871.17
32872.02
18897.085
14031.105
2376.7477
2379.0656
14047.862
18918.033
32902.205
105961.72
106067.04
32935.747
18939.905
14064.863
2381.4058
2383.777
14082.589
18962.098
32967.612
106161.81
106270.25
33002.616
18985.071
14100.413
2386.126
2388.4879
14119.103
19008.558
33036.32
106369.76
106484
33073.309
19032.881
14137.96
2390.8036
2393.0956
14157.484
19057.493
33108.715
106588.72
106706.98
33147.113
19082.717
14176.942
2395.3011
2397.4501
14197.072
19108.266
33184.039
106816.2
106939.77
33223.906
19134.355
14217.132
2399.4749
2401.389
14237.481
19160.304
33261.603
107052.04
107176.97
33301.792
19186.471
14257.458
2403.1458
2404.7636
14277.677
19212.387
33339.612
107290.18
107414.72
33379.635
19238.308
14297.313
2406.1835
2407.4792
14317.225
19263.973
33417.252
107527.6
107651.26
33456.864
19289.473
14336.386
2408.5725
2409.4722
14355.74
19314.647
33493.955
107762.58
107886.3
33533.166
19339.633
14374.372
2410.1117
2410.4881
14392.691
19363.662
33568.934
107995.52
108115.37
33605.603
19386.532
14409.377
2410.5363
2410.2352
14424.413
19406.662
33635.949
108218.72
108292.5
33657.301
19419.857
14433.748
2409.4431
2198.5764
14613.975
19431.48
33467.274
107375.2
107302.4
33445.669
19417.129
14603.171
2199.5133
2199.9517
14588.76
19398.088
33416.566
107203.55
107101.96
33384.774
19376.191
14571.52
2200.0248
2199.8773
14554.157
19352.993
33348.755
106987.17
106879.61
33313.667
19328.604
14534.859
2199.465
2198.9046
14516.261
19304.077
33276.234
106762.99
106654.41
33240.377
19278.899
14496.178
2198.0949
2197.23
14477.111
19253.965
33202.701
106538.35
106429.41
33166.607
19228.494
14456.68
2196.0923
2194.8295
14437.073
19203.055
33128.336
106311.15
106201.5
33091.869
19177.232
14416.26
2193.3641
2191.8092
14396.451
19151.691
33053.657
106084.13
105976.26
33017.591
19126.03
14375.652
2190.0827
2188.3202
14356.153
19101.015
32980.347
105862.51
105759
32945.572
19076.136
14335.867
2186.4264
2184.4939
14317.18
19052.199
32909.99
105650.59
105552.29
32876.971
19028.476
14297.705
2182.5359
2180.5615
14279.87
19005.702
32843.088
105448.68
105355.05
32811.793
18983.204
14261.347
2178.5274
2176.4957
14244.264
18961.439
32779.233
105254.38
105163.71
32749.211
18939.947
14226.559
2174.4014
2172.3924
14210.383
18919.324
32718.119
105066.59
104980.42
32689.872
18899.163
14193.673
2170.4048
2168.6162
14178.711
18880.253
32661.193
104890.01
104813.39
32636.31
18862.132
14163.042
2167.1488
2166.3129
14148.895
18845.842
32612.716
104738.18
104694.93
32599.243
18833.251
14135.192
2166.6822
2169.4149
14128.524
18831.25
32603.033
104686.93
104807.06
32664.694
18860.363
14142.673
2176.7533
2190.9139
14208.032
18954.365
32832.096
105147.23
106004.49
33212.547
19170.833
14369.687
2216.0593
2238.6309
14580.167
19423.764
33637.328
107349.15
2325.0258
15249.81
20357.87
35249.929
108184.22
107477.99
33658.538
19418.096
14569.658
2236.1764
2213.0127
14360.858
19156.492
33186.047
105997.52
105191.6
32842.102
18957.352
14209.762
2191.1694
2177.1179
14144.643
18862.709
32669.381
104813.23
104699.15
32608.211
18832.743
14129.128
2169.7913
2167.0529
14135.896
18833.807
32600.284
104690.63
104741.58
32614.737
18845.84
14148.486
2166.62
2167.4778
14163.237
18861.943
32635.717
104805.31
104892.46
32662.668
18880.125
14178.262
2168.9355
2170.7287
14193.992
18899.052
32689.18
104973.46
105069.33
32719.233
18919.076
14209.918
2172.6516
2174.66
14226.641
18939.475
32747.856
105155.66
105254.82
32779.573
18960.778
14243.507
2176.662
2178.7182
14261.321
18982.577
32810.066
105345.72
105449.56
32843.62
19005.225
14279.234
2180.7465
2182.7774
14298.02
19028.322
32875.93
105545.18
105654.74
32911.346
19052.252
14316.944
2184.748
2186.6651
14336.439
19076.297
32945.074
105754.76
105867.29
32981.585
19100.945
14355.828
2188.4709
2190.2319
14375.833
19125.74
33016.511
105971.18
106087.14
33054.012
19150.962
14395.582
2191.8648
2193.3964
14415.779
19176.162
33089.674
106193.27
106312.07
33127.906
19201.76
14435.743
2194.7857
2196.0531
14455.911
19227.043
33163.856
106419.66
106538.59
33202.126
19252.525
14475.641
2197.1538
2198.1085
14495.59
19277.713
33238.113
106646.28
106765.82
33276.366
19303.023
14515.073
2198.8604
2199.4253
14534.477
19327.683
33311.803
106872.17
106989.92
33349.242
19352.199
14553.148
2199.7428
2199.8237
14571.477
19375.706
33383.384
107094.2
107208.4
33418.341
19398.134
14588.21
2199.5867
2199.023
14603.253
19417.859
33447.225
107306.65
107376.48
33467.664
19430.897
14612.774
2198.0291
108526.98
33743.431
19453.501