/*--------------------------------*- C++ -*----------------------------------*\
  =========                 |
  \\      /  F ield         | OpenFOAM: The Open Source CFD Toolbox
   \\    /   O peration     | Website:  https://openfoam.org
    \\  /    A nd           | Version:  7
     \\/     M anipulation  |
\*---------------------------------------------------------------------------*/
FoamFile
{
    version     2.0;
    format      ascii;
    class       volScalarField;
    location    "290";
    object      omega;
}
// * * * * * * * * * * * * * * * * * * * * * * * * * * * * * * * * * * * * * //

dimensions      [0 0 -1 0 0 0 0];

internalField   nonuniform List<scalar> 
24789
(
96993.24
30169.428
16994.943
12451.959
2055.2771
2062.5341
12487.055
17036.803
30225.168
97174.273
97364.235
30283.65
17080.728
12523.954
2070.0297
2077.7129
12561.994
17126.302
30344.807
97560.989
97766.935
30408.819
17173.98
12601.828
2085.6048
2093.6877
12642.935
17223.447
30475.7
97980.397
98203.603
30545.706
17275.171
12685.923
2101.9923
2110.5056
12730.368
17328.908
30618.93
98435.295
98677.439
30695.625
17385.103
12776.825
2119.2552
2128.2325
12824.96
17443.582
30775.933
98929.204
99192.787
30860.211
17504.797
12875.295
2137.4642
2146.9432
12927.556
17568.621
30948.658
99467.641
99756.038
31041.709
17635.517
12982.238
2156.6895
2166.6946
13039.142
17705.422
31139.621
100058.04
100376.22
31242.93
17778.806
13098.736
2176.9713
2187.5105
13160.885
17855.668
31351.988
100711.28
101065.93
31467.467
17936.501
13226.046
2198.3239
2209.4036
13294.201
18021.434
31589.854
101441.26
101840.19
31719.88
18110.987
13365.813
2220.7586
2232.3821
13440.977
18205.424
31858.246
102264.54
102717.83
32005.927
18305.367
13520.201
2244.2762
2256.4203
13603.736
18411.271
32163.868
103202.85
103724.29
32333.429
18523.939
13692.204
2268.7908
2281.3227
13786.083
18644.14
32516.114
104287.01
104898.33
32714.058
18773.063
13886.238
2293.914
2306.3789
13993.632
18912.114
32929.716
105566.43
106302.54
33166.913
19063.7
14110.061
2318.4432
2329.6514
14238.247
19231.506
33431.447
107123.13
108055.1
33730.23
19421.257
14382.805
2339.2513
2346.2658
14552.992
19645.423
34071.809
109129.16
110451.36
34541.218
19937.415
14763.505
2348.8725
2338.8875
14987.28
20285.748
35234.623
112368.92
115148.79
35754.585
20518.35
15109.506
2302.5422
2232.807
15055.191
20474.425
35721.705
117816.16
119801.65
36563.57
20968.017
15404.044
2203.8241
2193.8923
15559.784
21448.814
37801.469
125500.93
131403
39227.086
22028.643
15784.329
2246.1112
2073.6108
15967.285
21636.815
37763.853
124281.78
121216.52
36650.006
21054.021
15561.133
2051.1491
2071.1098
15660.159
21015.351
36422.855
117583.91
114029.6
35662.15
20703.566
15496.442
2100.2494
2117.5004
15256.756
20340.03
34996.693
111227.29
109369.78
34334.007
19963.361
14990.997
2120.3279
2116.1446
14764.022
19661.378
33862.355
108077.6
107023.13
33504.436
19428.135
14583.609
2109.5232
2101.2576
14433.607
19235.397
33205.942
106118.2
105323.64
32947.238
19068.198
14303.034
2091.8812
2081.9024
14185.977
18919.091
32718.07
104608.69
103956.95
32510.666
18783.104
14078.71
2071.6114
2061.1794
13978.913
18657.263
32320.596
103359.05
102808.02
32145.378
18539.991
13885.422
2050.7336
2040.35
13797.316
18430.1
31983.005
102297.83
101824.05
31832.021
18326.833
13714.116
2030.0804
2019.9505
13635.214
18229.442
31691.189
101382.51
100970.4
31559.602
18137.498
13560.383
2009.9831
2000.1858
13489.122
18050.42
31436.34
100584.46
100222.51
31320.705
17967.932
13421.343
1990.573
1981.1451
13356.593
17889.55
31211.998
99881.972
99561.06
31109.602
17815.098
13294.874
1971.9156
1962.8821
13235.749
17744.144
31013.012
99257.384
98969.708
30921.632
17676.586
13179.31
1954.0551
1945.4268
13125.086
17611.997
30835.051
98695.838
98435.196
30752.848
17550.387
13073.268
1937.0073
1928.7839
13023.366
17491.339
30674.673
98185.885
97947.708
30600.257
17434.95
12975.657
1920.7636
1912.932
12929.615
17380.798
30529.298
97719.061
97500.14
30461.624
17329.039
12885.591
1905.2937
1897.8306
12843.016
17279.263
30397.036
97289.556
97087.914
30335.375
17231.685
12802.336
1890.554
1883.4429
12762.926
17185.887
30276.516
96893.76
96707.904
30220.295
17142.126
12725.321
1876.5143
1869.7493
12688.881
17100.046
30166.774
96528.904
96357.529
30115.5
17059.837
12654.168
1863.1615
1869.7109
12689.845
17101.266
30168.349
96535.118
96713.457
30221.817
17143.286
12726.219
1876.4478
1883.3733
12763.819
17187.013
30277.917
96898.753
97093.13
30336.841
17232.856
12803.253
1890.4782
1897.7457
12843.997
17280.5
30398.565
97294.873
97506.004
30463.31
17330.374
12886.636
1905.1919
1912.8133
12930.749
17382.24
30531.129
97725.23
97954.666
30602.273
17436.523
12976.885
1920.6216
1928.6116
13024.698
17493.047
30676.881
98193.468
98443.773
30755.27
17552.232
13074.692
1936.795
1945.1654
13126.607
17613.97
30837.666
98705.312
98980.329
30924.496
17678.704
13180.923
1953.7324
1962.4876
13237.467
17746.407
31016.092
99269.159
99574.296
31113.014
17817.54
13296.699
1971.4387
1980.5731
13358.526
17892.161
31215.686
99896.459
100238.48
31324.745
17970.75
13423.399
1989.89
1999.3754
13491.3
18053.437
31440.705
100601.64
100988.93
31564.301
18140.725
13562.673
2009.0253
2018.8222
13637.599
18232.852
31696.155
101402.11
101844.67
31837.142
18330.37
13716.55
2028.7555
2038.8026
13799.745
18433.695
31988.179
102319.39
102830.53
32150.421
18543.525
13887.746
2048.9375
2059.1151
13981.013
18660.574
32325.267
103382.23
103980.45
32514.661
18786.008
14080.454
2069.2688
2079.2897
14187.262
18921.424
32721.082
104631.67
105344.8
32948.901
19069.89
14303.878
2089.0293
2098.2469
14434.486
19236.876
33206.217
106134.75
107032.17
33505.487
19431.311
14586.076
2106.4985
2113.2582
14771.017
19670.176
33869.605
108081.5
109371.51
34363.798
19987.117
15008.335
2117.9131
2116.5576
15294.049
20400.773
35096.994
111214.1
114134.87
35931.155
20785.779
15528.382
2098.0932
2064.2507
15591.297
20949.051
36365.959
117735.28
120671.8
36617.323
20998.5
15445.591
2044.6095
2061.742
16369.958
21990.11
38129.442
122436.22
131845.44
39447.606
22127.161
15877.25
2236.0198
2158.575
15324.705
21071.941
36902.197
121344.49
122416.83
36409.325
20489.112
14751.18
2191.7404
2230.1132
15106.896
20609.866
36227.205
119554.9
115881.15
36093.007
20656.523
15210.387
2286.394
2319.0701
15066.998
20364.216
35324.596
112700.76
110590.15
34571.428
19978.321
14819.134
2327.7478
2326.3165
14597.897
19672.475
34080.718
109139.87
107988.35
33707.791
19434.45
14418.671
2320.5707
2312.0121
14268.15
19236.709
33397.154
107024.91
106191.64
33129.033
19065.17
14136.735
2301.7142
2290.4492
14018.578
18911.85
32891.062
105449.35
104777.51
32675.214
18771.746
13910.064
2278.6772
2266.6761
13809.014
18642.003
32477.211
104163.51
103598.41
32294.388
18521.049
13714.32
2254.6388
2242.6749
13625.072
18407.665
32124.67
103075.13
102588.81
31966.571
18301.091
13540.799
2230.8582
2219.2246
13460.899
18200.572
31818.86
102134.89
101710.24
31680.503
18105.638
13385.131
2207.8052
2196.6074
13312.995
18015.705
31550.63
101311.46
100936.53
31428.505
17930.485
13244.39
2185.6493
2174.928
13178.858
17849.475
31313.437
100582.74
100248.53
31204.854
17772.515
13116.409
2164.4593
2154.2352
13056.585
17699.133
31102.162
99931.404
99630.418
31004.898
17629.263
12999.49
2144.2703
2134.5495
12944.654
17562.464
30912.593
99343.408
99069.791
30824.883
17498.754
12892.272
2125.0856
2115.8582
12841.838
17437.694
30741.396
98807.775
98557.3
30661.859
17379.377
12793.629
2106.88
2098.1231
12747.118
17323.391
30586.013
98316.821
98086.548
30513.611
17269.869
12702.65
2089.5992
2081.2798
12659.64
17218.384
30444.46
97864.952
97652.763
30378.379
17169.15
12618.539
2073.1813
2065.2679
12578.705
17121.728
30315.218
97448.403
97252.968
30254.891
17076.424
12540.706
2057.5662
2050.0762
12503.884
17032.819
30197.299
97065.193
97179.316
30226.077
17037.7
12487.861
2062.5502
2070.0392
12524.597
17081.622
30284.848
97368.428
97566.724
30346.278
17127.541
12563.061
2077.737
2085.6182
12602.721
17175.169
30410.448
97772.238
97987.208
30477.599
17224.968
12644.211
2093.71
2101.9925
12687.054
17276.659
30547.767
98210.169
98443.329
30621.268
17330.722
12731.852
2110.4975
2119.2144
12778.209
17386.924
30698.162
98685.533
98938.837
30778.768
17445.719
12826.665
2128.1664
2137.3479
12876.928
17506.967
30863.267
99202.673
99479.284
30952.084
17571.128
12929.503
2146.7794
2156.4515
12984.163
17638.11
31045.417
99768.397
100072.41
31143.76
17708.366
13041.37
2166.3789
2176.5505
13100.977
17781.889
31247.449
100391.84
100729.29
31357.018
17859.125
13163.419
2186.9722
2197.6339
13228.655
17940.183
31473
101085.69
101463.9
31595.99
18025.533
13297.113
2208.5398
2219.6777
13368.846
18115.399
31726.674
101865.41
102293.49
31865.847
18210.332
13444.328
2231.0436
2242.6157
13523.73
18310.695
32014.348
102750.46
103240.48
32173.306
18417.177
13607.597
2254.3736
2266.2647
13696.28
18530.381
32343.952
103767.49
104337.62
32527.981
18651.267
13790.492
2278.2131
2290.0804
13890.883
18780.866
32727.396
104957.73
105637.54
32944.888
18920.779
13998.631
2301.6617
2312.6483
14115.437
19073.388
33184.311
106388.66
107230.1
33452.179
19242.785
14244.333
2322.57
2330.6467
14389.897
19434.916
33756.458
108192.93
109318.28
34106.143
19661.669
14560.87
2335.8517
2336.4278
14770.535
19953.943
34580.326
110719.23
112731.71
35271.514
20301.746
14992.978
2324.9968
2288.4895
15111.081
20538.524
35825.433
115676.08
118937.27
35906.502
20498.126
15021.025
2223.2828
2196.055
15197.248
20856.271
36594.053
120848.22
125410.69
37805.729
21426.814
15521.035
2179.0332
2226.9753
15693.029
21943.107
39177.283
131643.35
2869.0404
14679.023
21400.588
39331.039
135097.06
130054.39
39713.137
22336.238
15884.762
2329.4263
2056.1566
16916.393
22999.907
40072.863
129198.44
124127.86
38203.315
21959.574
16056.203
2162.5958
2151.9099
15258.572
21076.401
37016.429
122316.74
121315.15
36382.71
20647.675
14996.845
2186.1898
2237.8707
15207.083
20697.572
36215.213
118504.16
115195.25
36070.362
20694.044
15253.722
2298.0364
2329.7917
15084.142
20374.607
35296.469
112256.38
110299.33
34561.606
19985.238
14829.081
2336.9931
2333.873
14604.529
19677.287
34075.194
108943.54
107850.77
33702.346
19437.068
14422.938
2326.5838
2316.7449
14270.756
19237.846
33392.276
106925.91
106118.95
33124.476
19065.25
14138.134
2305.4135
2293.3265
14019.1
18911.182
32886.749
105395.28
104736.49
32671.299
18770.671
13910.025
2280.9141
2268.4198
13808.635
18640.732
32473.68
104131.65
103573.37
32291.161
18519.673
13713.726
2255.9995
2243.7374
13624.359
18406.274
32121.764
103055.21
102572.73
31963.966
18299.737
13540.031
2231.6893
2219.8743
13460.11
18199.27
31816.502
102121.73
101699.45
31678.407
18104.417
13384.351
2208.3119
2197.0013
13312.239
18014.57
31548.774
101302.66
100929.35
31426.872
17929.443
13243.675
2185.953
2175.1615
13178.188
17848.52
31311.988
100576.74
100243.5
31203.543
17771.631
13115.773
2164.6364
2154.3682
13055.991
17698.323
31100.994
99927.217
99626.882
31003.862
17628.527
12998.941
2144.3687
2134.6211
12944.157
17561.801
30911.677
99340.393
99067.278
30824.069
17498.158
12891.819
2125.136
2115.892
12841.432
17437.167
30740.694
98805.656
98555.505
30661.26
17378.917
12793.268
2106.899
2098.1306
12746.782
17322.968
30585.464
98315.144
98085.028
30513.118
17269.485
12702.342
2089.5981
2081.2716
12659.352
17218.026
30444.001
97863.525
97651.451
30377.95
17168.818
12618.271
2073.1661
2065.2467
12578.451
17121.413
30314.801
97447.155
97251.841
30254.486
17076.125
12540.47
2057.5378
2050.0383
12503.668
17032.549
30196.946
97064.252
96530.074
30166.633
17100.163
12689.059
1869.6441
1876.4083
12725.24
17142.16
30220.364
96708.385
96895.21
30276.678
17186.15
12763.187
1883.3554
1890.4639
12802.339
17231.824
30335.624
97088.752
97291.227
30397.353
17279.601
12843.314
1897.7493
1905.2039
12885.644
17329.227
30461.94
97501.238
97720.849
30529.65
17381.143
12929.91
1912.8474
1920.6727
12975.73
17435.144
30600.577
97949.031
98187.864
30675.02
17491.667
13023.641
1928.6968
1936.9146
13073.336
17550.562
30753.153
98436.769
98697.9
30835.336
17612.256
13125.303
1945.3386
1953.9652
13179.332
17676.688
30921.853
98971.333
99259.309
31013.169
17744.3
13235.884
1962.8022
1971.8457
13294.836
17815.106
31109.68
99562.437
99883.331
31212.009
17889.587
13356.641
1981.1005
1990.5567
13421.232
17967.821
31320.591
100222.97
100584.22
31436.101
18050.292
13489.056
2000.2159
2010.0679
13560.157
18137.193
31559.123
100968.64
101379.45
31690.487
18229.064
13634.992
2020.1115
2030.3358
13713.723
18326.238
31830.971
101818.84
102290.5
31981.568
18429.339
13796.867
2040.73
2051.2707
13884.771
18538.93
32143.419
102797.74
103345.39
32318.056
18655.938
13978.159
2061.9212
2072.6137
14077.809
18781.475
32507.445
103938.57
104584.19
32714.402
18917.418
14185.196
2083.2403
2093.6309
14302.683
19066.904
32943.593
105290.38
106073.18
33203.208
19235.321
14434.394
2103.4887
2112.2588
14586.636
19430.828
33504.675
106962.2
107998.31
33868.349
19668.892
14770.746
2119.2596
2123.4796
15003.373
19979.051
34350.515
109265.64
111079.46
35041.137
20370.545
15277.243
2120.1065
2099.983
15515.942
20738.572
35767.247
113862.69
117080.12
36328.962
21008.126
15679.452
2066.6434
2044.5606
15738.15
21179.249
36694.295
120378.83
124652.13
37943.853
21733.07
16034.045
2064.8689
2239.7377
15620.888
22022.433
39477.571
132602.57
126801.88
37984.457
21455.004
15487.834
2189.602
2202.8195
15587.785
21169.708
36869.66
119840.74
118432.49
35800.424
20474.132
14989.391
2232.6539
2300.938
15101.777
20525.482
35823.336
115526.71
112586.39
35275.826
20299.864
14993.099
2337.3588
2348.6323
14772.954
19952.747
34571.976
110567.6
109182.75
34086.202
19654.553
14559.655
2346.6954
2339.9064
14386.315
19425.553
33736.593
108078.27
107132.25
33433.128
19232.853
14239.648
2330.322
2319.0554
14110.339
19063.641
33166.589
106304.77
105565.39
32928.698
18911.555
13993.484
2306.9132
2294.3621
13885.9
18772.347
32712.822
104895.53
104283.78
32514.974
18643.504
13785.779
2281.6923
2269.0851
13691.89
18523.365
32332.415
103720.83
103199.82
32163.064
18410.857
13603.54
2256.6538
2244.4526
13519.993
18305.007
32005.273
102715.06
102262.55
31857.761
18205.199
13440.888
2232.5157
2220.8506
13365.674
18110.763
31719.486
101838.48
101440.41
31589.598
18021.336
13294.189
2209.4678
2198.3584
13225.959
17936.379
31467.296
101065.33
100711.41
31351.914
17855.668
13160.937
2187.5311
2176.9741
13098.677
17778.738
31242.868
100376.19
100058.54
31139.643
17705.49
13039.245
2166.6958
2156.6798
12982.198
17635.487
31041.73
99756.215
99468.379
30948.729
17568.726
12927.696
2146.9379
2137.4511
12875.259
17504.777
30860.259
99193.074
98930.039
30776.012
17443.706
12825.126
2128.2283
2119.2458
12776.789
17385.086
30695.677
98677.639
98435.971
30618.993
17329.039
12730.555
2110.5096
2101.9914
12685.878
17275.145
30545.748
98203.668
97981.072
30475.753
17223.587
12643.145
2093.7026
2085.6114
12601.756
17173.926
30408.82
97766.791
97561.458
30344.755
17126.398
12562.19
2077.7312
2070.0331
12523.788
17080.565
30283.475
97363.543
97174.178
30224.792
17036.722
12487.137
2062.5527
2062.5699
12488.124
17038.105
30226.905
97180.617
97369.804
30285.322
17081.994
12524.977
2070.0605
2077.7394
12563.046
17127.591
30346.488
97566.642
97772.703
30410.568
17175.327
12602.913
2085.6209
2093.6967
12644.114
17224.913
30477.619
97986.712
98210.356
30547.815
17276.766
12687.191
2101.9862
2110.4824
12731.759
17330.664
30621.267
98442.718
98685.518
30698.196
17387.026
12778.331
2119.2058
2128.1508
12826.608
17445.698
30778.808
98938.224
99202.6
30863.361
17507.095
12877.058
2137.3368
2146.762
12929.467
17571.129
30952.122
99478.489
99767.858
31045.496
17638.243
12984.289
2156.439
2166.3617
13041.37
17708.406
31143.806
100071.21
100390.68
31247.538
17782.058
13101.127
2176.54
2186.9637
13163.485
17859.242
31357.091
100727.22
101083.14
31473.086
17940.43
13228.871
2197.6414
2208.565
13297.302
18025.785
31596.073
101459.73
101859.78
31726.752
18115.808
13369.209
2219.7382
2231.1485
13444.711
18210.776
31865.799
102285.11
102739.05
32014.164
18311.29
13524.299
2242.7903
2254.6412
13608.236
18417.822
32172.826
103224.46
103745.85
32343.076
18531.162
13697.135
2266.6705
2278.8136
13791.52
18652.136
32526.514
104307.98
104917.84
32725.262
18781.999
13892.318
2290.9654
2302.9445
14000.68
18922.387
32942.029
105583.85
106317.78
33181.244
19076.173
14118.75
2314.4806
2325.1235
14249.904
19248.026
33450.311
107138.32
108079.38
33759.684
19445.118
14399.474
2334.0983
2340.311
14576.449
19680.483
34125.022
109188.57
110570.15
34610.19
19982.272
14793.43
2341.972
2332.0349
15028.992
20351.551
35331.928
112564.36
115584.77
36041.786
20615.195
15153.396
2294.8443
2226.9505
15031.119
20500.678
35910.929
118732.75
120637.75
36595.771
20810.739
15114.409
2196.3023
2179.1933
15730.082
21590.749
37867.675
124026.83
1018.3658
608.09863
820.7805
2058.4144
15954.441
21626.905
37783.762
124552.36
123421.78
37116.546
21052.906
15178.535
2163.9379
133008.06
39230.684
21531.294
14889.86
2878.4728
3194.9996
15203.866
21831.601
39449.773
131669.12
132462.34
40002.733
22041.316
15289.034
3205.9147
2503.6088
15352.788
21764.195
38913.216
128624.45
1472.2257
1267.9135
677.673
840.93983
180.65685
191.01685
189.48555
180.65655
179.7107
184.55233
184.60526
179.35413
97065.359
30197.155
17032.834
12503.948
2050.2229
2057.6875
12540.455
17076.232
30254.697
97251.945
97448.05
30314.965
17121.679
12578.74
2065.3886
2073.2864
12618.242
17168.855
30378.014
97651.333
97864.057
30444.029
17218.21
12659.588
2081.404
2089.7267
12702.296
17269.458
30513.047
98084.653
98315.316
30585.388
17323.076
12746.965
2098.2768
2107.0472
12793.213
17378.851
30661.115
98554.895
98805.59
30740.56
17437.237
12841.59
2116.0634
2125.3197
12891.788
17498.086
30823.878
99066.505
99339.996
30911.513
17561.871
12944.326
2134.8348
2144.6022
12998.982
17628.511
31003.694
99625.857
99926.505
31100.891
17698.457
13056.227
2154.6349
2164.9263
13115.92
17771.711
31203.451
100242.21
100575.76
31311.986
17848.762
13178.521
2175.4838
2186.2975
13243.986
17929.704
31426.967
100928.06
101301.9
31549.073
18015.04
13312.765
2197.3708
2208.6958
13384.913
18104.988
31678.927
101698.82
102121.93
31817.35
18200.111
13460.915
2220.2706
2232.0811
13540.958
18300.784
31965.163
102573.38
103057.03
32123.504
18407.724
13625.613
2244.1134
2256.3296
13715.256
18521.545
32293.543
103576.18
104136.13
32476.988
18643.281
13810.673
2268.6725
2281.0283
13912.648
18774.091
32675.872
104742.72
105404.61
32893.17
18915.866
14022.595
2293.2146
2304.9296
14142.604
19071.518
33133.475
106133.04
106948.61
33404.655
19245.902
14276.186
2315.6682
2324.5932
14428.457
19446.268
33718.141
107887.31
108998.86
34094.098
19685.66
14607.779
2330.6032
2331.8457
14822.42
19985.401
34583.561
110384.93
112413.33
35263.267
20326.252
15039.984
2320.4386
2284.3064
15141.578
20540.164
35796.378
115347.95
118299.71
35861.276
20502.939
15046.636
2224.4003
2193.467
15274.284
20842.04
36483.617
120071.08
123102.25
36989.387
20990.023
15146.76
2177.0826
16929.413
23120.384
40518.401
130510.87
127739.93
40788.894
23484.92
17346.222
2097.1859
2390.6774
16612.975
23026.733
40406.879
126971.5
127689.12
38630.385
21678.86
15280.99
2537.1872
2193.5677
15961.502
21922.781
38155.327
123467.76
123101.3
36987.972
20988.425
15145.166
2176.0638
2192.651
15272.652
20840.625
36482.56
120070.18
118297.78
35860.157
20501.66
15045.252
2223.7147
2283.7057
15140.343
20538.905
35795.058
115345.18
112409.63
35261.818
20325.022
15038.83
2319.9139
2331.3767
14821.303
19984.178
34582.076
110381.09
108994.95
34092.521
19684.426
14606.679
2330.1719
2324.1881
14427.37
19445.04
33716.604
107883.72
106945.42
33403.182
19244.695
14275.117
2315.2813
2304.5551
14141.55
19070.332
33132.076
106130.41
105402.5
32891.855
18914.709
14021.564
2292.8517
2280.6755
13911.645
18772.972
32674.649
104741.16
104134.97
32475.857
18642.211
13809.709
2268.3314
2256.0024
13714.339
18520.543
32292.54
103575.35
103056.31
32122.593
18406.788
13624.752
2243.8035
2231.7904
13540.156
18299.926
31964.374
102572.74
102121.13
31816.618
18199.315
13460.175
2220.003
2208.4521
13384.229
18104.259
31678.281
101697.92
101300.79
31548.477
18014.368
13312.133
2197.1535
2186.1045
13243.409
17929.094
31426.444
100926.74
100574.13
31311.476
17848.191
13177.99
2175.3168
2164.7835
13115.422
17771.179
31202.962
100240.44
99924.374
31100.398
17697.945
13055.762
2154.5157
2144.4999
12998.538
17628.019
31003.206
99623.642
99337.527
30911.008
17561.385
12943.903
2134.7486
2125.2445
12891.368
17497.609
30823.401
99064.11
98803.016
30740.021
17436.741
12841.17
2116.0004
2106.9907
12792.795
17378.363
30660.609
98552.546
98312.862
30584.842
17322.578
12746.552
2098.2255
2089.6762
12701.872
17268.955
30512.528
98082.323
97861.577
30443.452
17217.686
12659.167
2081.358
2073.2388
12617.811
17168.327
30377.441
97648.957
97445.417
30314.337
17121.13
12578.312
2065.34
2057.6249
12539.992
17075.639
30254.003
97249.229
97061.45
30196.392
17032.21
12503.477
2050.1289
2042.8022
12467.968
16990.26
30141.134
96880.489
2062.6164
12487.29
17037.041
30225.261
97176.083
97365.668
30283.982
17081.082
12524.266
2070.1066
2077.7852
12562.31
17126.652
30345.124
97562.459
97768.543
30409.171
17174.343
12602.16
2085.678
2093.7642
12643.255
17223.793
30476.029
97982.049
98205.363
30546.037
17275.508
12686.241
2102.0692
2110.5856
12730.663
17329.215
30619.218
98437.022
98679.224
30695.872
17385.384
12777.104
2119.3395
2128.3241
12825.21
17443.819
30776.115
98930.942
99194.316
30860.342
17504.992
12875.517
2137.5654
2147.0585
12927.746
17568.764
30948.687
99468.908
99756.933
31041.632
17635.609
12982.399
2156.8244
2166.8555
13039.284
17705.471
31139.45
100058.41
100375.94
31242.63
17778.798
13098.85
2177.1689
2187.7529
13160.979
17855.612
31351.569
100710.2
101063.86
31466.895
17936.399
13226.132
2198.6191
2209.7615
13294.276
18021.276
31589.113
101438.09
101835.95
31719.005
18110.781
13365.878
2221.1903
2232.8958
13441.028
18205.16
31857.202
102259.18
102711.43
32004.721
18305.047
13520.244
2244.8799
2257.1229
13603.764
18410.869
32162.469
103195.52
103716.41
32331.838
18523.448
13692.21
2269.6013
2282.2483
13786.089
18643.585
32514.416
104279.02
104890.89
32712.331
18772.5
13886.298
2294.9596
2307.5452
13993.885
18911.724
32928.25
105560.79
106300.77
33166.238
19063.859
14110.8
2319.7214
2331.0168
14240.08
19233.041
33432.807
107128.79
108075.6
33736.203
19425.688
14386.737
2340.6358
2347.4749
14560.039
19654.608
34085.644
109180.54
110565.87
34571.402
19952.795
14773.372
2349.4895
2338.332
14993.572
20299.954
35275.316
112584.52
115524.2
35822.994
20525.675
15102.377
2302.0785
2234.0067
14989.97
20474.518
35800.379
118430.5
119832.21
36869.095
21170.485
15589.092
2204.3734
2191.4636
15490.611
21457.949
37988.333
126780.6
132581.83
39504.193
22026.535
15621.342
2241.9001
2066.7284
16034.778
21734.943
37948.097
124641.03
122308.27
37020.345
21077.454
15257.716
2153.8975
2160.1515
15326.355
21071.73
36896.44
121300.73
122412.81
38129.197
21987.646
16368.254
2063.263
2180.4863
15727.886
21586.898
37865.378
124005.32
125397.82
37799.556
21420.086
15517.088
2179.7899
2059.0161
15949.867
21619.994
37777.414
124550.88
123409.51
37109.168
21048.287
15175.894
2163.9277
2185.0736
15398.409
20959.18
36616.44
119747.87
118018.4
35835.71
20514.613
15066.342
2216.2689
2276.2932
15123.5
20511.131
35741.067
115250.87
112359.61
35256.661
20319.712
15032.784
2315.4699
2328.4364
14820.623
19985.683
34586.55
110359.09
108987.24
34097.638
19687.455
14607.872
2328.0596
2322.5851
14429.11
19448.255
33721.443
107882.7
106948.53
33407.232
19247.509
14276.782
2313.9858
2303.4613
14142.978
19072.683
33135.505
106136.36
105410.16
32894.863
18916.702
14022.781
2291.9107
2279.8632
13912.711
18774.712
32677.361
104749.59
104143.6
32478.341
18643.765
13810.668
2267.6321
2255.4049
13715.218
18521.947
32294.807
103583.78
103064.28
32124.67
18408.065
13625.563
2243.2963
2231.3637
13540.909
18301.088
31966.252
102580.15
102127.9
31818.321
18200.372
13460.87
2219.6461
2208.1562
13384.872
18105.219
31679.808
101704.03
101306.19
31549.859
18015.245
13312.731
2196.9108
2185.9058
13243.95
17929.875
31427.64
100931.52
100578.33
31312.545
17848.896
13178.487
2175.1556
2164.6535
13115.871
17771.812
31203.918
100244.02
99927.457
31101.227
17698.509
13056.17
2154.4122
2144.4201
12998.91
17628.528
31003.95
99626.265
99339.749
30911.677
17561.849
12944.243
2134.6889
2125.2032
12891.678
17498.021
30823.974
99065.961
98804.639
30740.539
17437.111
12841.449
2115.9703
2106.9682
12793.038
17378.679
30661.031
98553.948
98314.116
30585.24
17322.864
12746.771
2098.209
2089.665
12702.07
17269.209
30512.874
98083.449
97862.551
30443.757
17217.915
12659.346
2081.3522
2073.236
12617.984
17168.541
30377.723
97649.902
97446.343
30314.596
17121.328
12578.475
2065.3347
2057.6141
12540.132
17075.807
30254.207
97250.09
97062.494
30196.504
17032.317
12503.577
2050.1031
2042.7713
12468.047
16990.358
30141.31
96881.744
2050.1922
12503.977
17032.947
30197.391
97065.972
97253.597
30255.02
17076.57
12540.811
2057.6758
2065.3743
12578.822
17121.854
30315.303
97448.772
97653.119
30378.445
17169.247
12618.623
2073.2837
2081.3921
12659.73
17218.46
30444.481
97865.159
98086.766
30513.619
17269.922
12702.711
2089.718
2098.2533
12747.183
17323.422
30585.971
98316.906
98557.468
30661.803
17379.393
12793.675
2107.0223
2116.0184
12841.89
17437.695
30741.31
98807.761
99069.714
30824.79
17498.746
12892.314
2125.2633
2134.7509
12944.711
17562.446
30912.461
99343.063
99629.815
31004.759
17629.253
12999.55
2144.4966
2154.4945
13056.688
17699.151
31102.028
99930.374
100247.16
31204.766
17772.584
13116.554
2164.7524
2175.2621
13179.074
17849.609
31313.4
100581
100934.36
31428.554
17930.709
13244.686
2186.0277
2197.0414
13313.409
18016.053
31550.783
101308.65
101706.7
31680.834
18106.157
13385.693
2208.3028
2219.8001
13461.666
18201.324
31819.417
102130.28
102582.78
31967.467
18302.168
13541.839
2231.5267
2243.4595
13626.489
18409.176
32125.966
103066.83
103586.71
32296.264
18523.187
13716.266
2255.569
2267.7896
13811.724
18645.049
32479.899
104146.63
104752.97
32679.079
18776.115
13913.87
2280.0147
2292.0518
14023.97
18918.172
32896.698
105413.52
106139.87
33137.48
19074.272
14144.27
2303.5933
2314.1078
14278.142
19249.2
33409.307
106951.77
107885.71
33723.711
19450.147
14430.636
2322.7003
2328.1648
14609.583
19689.623
34100.275
108989.84
110361.83
34589.798
19988.19
14822.574
2328.5282
2315.5523
15034.985
20322.545
35259.978
112362.2
115254.97
35745.318
20514.552
15125.917
2276.3317
2216.3628
15068.84
20518.443
35841.594
118021.98
119751.6
36623.405
20963.566
15401.14
2185.1306
2036.6665
15845.13
21217.149
36654.546
119619.9
116765.92
35888.523
20793.47
15561.211
2041.0105
2079.8107
15416.094
20600.656
35525.289
113849.96
111210.16
34971.49
20300.353
15216.416
2103.2328
2109.4673
14970.838
19945.146
34322.614
109434.89
108181.32
33867.149
19655.804
14755.312
2107.5458
2102.6666
14581.487
19429.694
33516.785
107130.02
106215.67
33220.129
19240.041
14434.753
2095.7505
2087.4384
14305.566
19073.822
32960.874
105408.36
104681.06
32730.336
18924.779
14189.046
2078.3111
2068.7011
14081.84
18788.457
32521.41
104018.2
103410.98
32330.038
18662.255
13982.03
2058.8228
2048.8229
13888.368
18544.554
32153.638
102851.94
102335.27
31990.29
18434.328
13800.178
2038.8053
2028.8305
13716.761
18330.681
31838.447
101855.9
101410.05
31696.929
18233.036
13637.785
2018.9453
2009.1733
13562.727
18140.756
31564.702
100993.99
100605.06
31440.904
18053.483
13491.42
1999.54
1990.056
13423.404
17970.698
31324.806
100240.28
99897.723
31215.681
17892.17
13358.63
1980.7401
1971.5955
13296.665
17817.446
31112.937
99574.689
99269.699
31016.014
17746.402
13237.563
1962.6388
1953.868
13180.867
17678.592
30924.393
98980.419
98705.772
30837.568
17613.97
13126.712
1945.2955
1936.9119
13074.63
17552.124
30755.17
98443.77
98193.969
30676.81
17493.082
13024.837
1928.7266
1920.7284
12976.836
17436.438
30602.201
97954.634
97725.76
30531.089
17382.316
12930.935
1912.923
1905.2933
12886.586
17330.3
30463.258
97505.828
97295.249
30398.496
17280.569
12844.187
1897.85
1890.5739
12803.14
17232.709
30336.672
97092.57
96898.57
30277.594
17186.949
12763.929
1883.4783
1876.5463
12725.913
17142.885
30221.193
96711.85
96533.624
30167.236
17100.766
12689.661
1869.8189
1869.8473
12689.362
17100.605
30167.293
96532.031
96710.289
30220.877
17142.688
12725.779
1876.5828
1883.5064
12763.37
17186.395
30276.971
96895.666
97089.807
30335.814
17232.162
12802.744
1890.6132
1897.8915
12843.428
17279.724
30397.422
97291.292
97502
30462.005
17329.481
12885.982
1905.356
1912.9988
12930.007
17381.221
30529.644
97720.793
97949.517
30600.581
17435.35
12976.025
1920.8359
1928.8636
13023.739
17491.729
30674.977
98187.612
98436.954
30753.127
17550.757
13073.62
1937.0952
1945.5287
13125.443
17612.353
30835.289
98697.415
98971.182
30921.857
17676.941
13179.667
1954.1726
1963.0197
13236.124
17744.492
31013.177
99258.59
99562.054
31109.778
17815.453
13295.256
1972.0762
1981.3322
13356.994
17889.904
31212.108
99882.532
100222.75
31320.804
17968.304
13421.767
1990.788
2000.4309
13489.579
18050.81
31436.416
100584.21
100969.85
31559.686
18137.913
13560.864
2010.2593
2020.2576
13635.734
18229.887
31691.283
101381.6
101822.9
31832.127
18327.306
13714.667
2030.4178
2040.7184
13797.916
18430.62
31983.162
102296.56
102806.79
32145.608
18540.557
13886.06
2051.1315
2061.6068
13979.594
18657.875
32320.909
103357.88
103956.06
32511.043
18783.754
14079.425
2072.0666
2082.3864
14186.725
18919.776
32718.537
104608.12
105323.52
32947.795
19068.921
14303.815
2092.396
2101.8099
14434.43
19236.163
33206.615
106118.57
107024.1
33505.262
19428.962
14584.48
2110.1189
2116.7923
14764.93
19662.242
33863.302
108079.23
109372.04
34334.852
19964.201
14991.914
2121.0372
2118.2832
15257.657
20340.839
34997.635
111230.24
114031.73
35662.333
20704.134
15497.283
2101.132
2072.1267
15661.331
21016.267
36423.309
117583.7
121213.98
36650.836
21055.383
15562.829
2052.3014
2074.955
15969.403
21639.127
37767.619
124273.63
131386.43
39251.917
22032.408
15785.037
2247.7684
2195.4173
15562.346
21451.216