/*--------------------------------*- C++ -*----------------------------------*\
  =========                 |
  \\      /  F ield         | OpenFOAM: The Open Source CFD Toolbox
   \\    /   O peration     | Website:  https://openfoam.org
    \\  /    A nd           | Version:  7
     \\/     M anipulation  |
\*---------------------------------------------------------------------------*/
FoamFile
{
    version     2.0;
    format      ascii;
    class       surfaceScalarField;
    location    "290";
    object      phi;
}
// * * * * * * * * * * * * * * * * * * * * * * * * * * * * * * * * * * * * * //

dimensions      [1 0 -1 0 0 0 0];

internalField   nonuniform List<scalar> 
74673
(
1.0059836e-06
-0.0022218024
-1.7366622e-07
1.5192361e-06
-0.0026816229
-1.9718435e-07
1.8026703e-06
-0.0030586101
-2.133286e-07
1.9804362e-06
-0.0034414583
-2.31146e-07
-0.05637789
-3.8480856e-06
5.7925909e-07
-2.0424496e-06
-0.056375308
-3.3814449e-06
2.0884835e-06
7.5411738e-07
-1.8523548e-06
-0.0034416633
-1.9994153e-07
2.1475248e-07
-1.5541333e-06
-0.0030589184
-1.8495671e-07
1.9491767e-07
-1.0229493e-06
-0.0026821564
-1.7116541e-07
1.7332246e-07
-0.0022228195
-1.4988502e-07
1.4395465e-07
1.0423735e-06
-0.0022238636
-1.0379677e-07
1.0523714e-07
1.5769464e-06
-0.0026827022
-1.1696369e-07
1.2800974e-07
1.8758767e-06
-0.0030592372
-1.2494617e-07
1.4472379e-07
2.0636016e-06
-0.0034418762
-1.3470635e-07
1.5984959e-07
-0.056373022
-2.3735646e-06
1.5679149e-06
5.828471e-07
-2.1247332e-06
-0.056370969
-1.3026661e-06
9.5305727e-07
4.2135927e-07
-1.9250768e-06
-0.0034420994
-6.9409055e-08
9.2817734e-08
-1.6178227e-06
-0.0030595623
-6.5648923e-08
8.3391962e-08
-1.0684845e-06
-0.0026832608
-6.394191e-08
7.2913931e-08
-0.0022249316
-5.9120809e-08
5.8650674e-08
1.0954739e-06
-0.002226026
-2.2357219e-08
2.0953059e-08
1.6597018e-06
-0.0026838335
-2.0119428e-08
2.835384e-08
1.979234e-06
-0.0030598995
-1.6587027e-08
3.4024018e-08
2.1889342e-06
-0.0034423326
-1.5696133e-08
3.9132983e-08
-0.056369195
-4.2017538e-07
4.5933403e-07
3.7508136e-07
-2.2668314e-06
-0.056367753
1.7684597e-07
1.3248639e-07
5.1535197e-07
-2.0441374e-06
-0.003442579
1.9260298e-08
4.297564e-09
-1.7093539e-06
-0.0030602518
1.5225541e-08
2.1833267e-09
-1.1254449e-06
-0.002684426
8.4127939e-09
-1.9869721e-10
-0.0022271498
1.666551e-09
-3.3607714e-09
1.1557999e-06
-0.002228304
1.5159028e-08
-1.7144312e-08
1.7619448e-06
-0.0026850404
2.4347378e-08
-1.6290553e-08
2.1141305e-06
-0.0030606217
3.3007665e-08
-1.5513432e-08
2.3591654e-06
-0.0034428476
3.8610449e-08
-1.5021896e-08
-0.0563667
5.164805e-07
-4.3318796e-08
8.3343691e-07
-2.4726589e-06
-0.056366179
7.3803638e-07
-1.1750193e-07
1.3304555e-06
-2.2007159e-06
-0.0034431448
4.9332119e-08
-2.4304681e-08
-1.8248314e-06
-0.0030610162
4.2660614e-08
-2.4263298e-08
-1.1948588e-06
-0.0026856794
3.2954111e-08
-2.4273179e-08
-0.0022294972
2.2331949e-08
-2.4058004e-08
1.2377817e-06
-0.0022307479
2.7958871e-08
-1.53885e-08
1.8989137e-06
-0.0026863656
3.9874483e-08
-1.508775e-08
2.3096117e-06
-0.0030614626
5.0547058e-08
-1.4980634e-08
2.6138166e-06
-0.0034434921
5.7927731e-08
-1.4856627e-08
-0.056366493
9.2650418e-07
-7.3521865e-08
2.0746338e-06
-2.8048848e-06
-0.056367653
1.1226242e-06
-1.7606223e-07
3.0185684e-06
-2.4498498e-06
-0.0034438782
6.5303396e-08
-3.4331291e-08
-1.9988641e-06
-0.0030619368
5.6922859e-08
-3.3835882e-08
-1.2921119e-06
-0.0026870848
4.5225684e-08
-3.3140716e-08
-0.0022320401
3.1750059e-08
-3.1660209e-08
1.3608217e-06
-0.0022334011
3.3411819e-08
-3.3622575e-08
2.1302302e-06
-0.0026878682
4.8984458e-08
-3.5181126e-08
2.6426337e-06
-0.0030624757
6.2174972e-08
-3.5842683e-08
3.0613935e-06
-0.0034443323
7.1514703e-08
-3.6245391e-08
-0.05636992
1.3312658e-06
-1.8009278e-07
4.1769234e-06
-3.4109716e-06
-0.056373478
1.5548227e-06
-1.7004967e-07
5.5841969e-06
-2.8992912e-06
-0.0034448816
7.5090762e-08
-3.7619573e-08
-2.3030568e-06
-0.003063099
6.4451996e-08
-3.7554308e-08
-1.4529186e-06
-0.0026887314
4.971214e-08
-3.6981458e-08
-0.0022348504
3.1802978e-08
-3.54668e-08
1.5725381e-06
-0.0022364122
2.5812646e-08
-3.6796583e-08
2.5361256e-06
-0.0026897032
4.6623806e-08
-3.8576507e-08
3.2489793e-06
-0.0030638368
6.3836763e-08
-3.8993947e-08
3.8779922e-06
-0.0034455482
7.6230676e-08
-3.8640594e-08
-0.056378591
1.8012558e-06
-1.5114551e-07
7.3404396e-06
-4.4985355e-06
-0.056385631
2.1028268e-06
-1.2682558e-07
9.5622901e-06
-3.7056791e-06
-0.0034463755
7.3457161e-08
-3.9167656e-08
-2.8414643e-06
-0.0030647201
5.8777702e-08
-3.9759823e-08
-1.7254725e-06
-0.0026908188
3.8795291e-08
-3.9332823e-08
-0.0022381152
1.4641886e-08
-3.7135302e-08
1.9169796e-06
-0.0022399967
1.0715039e-09
-3.6714518e-08
3.2277388e-06
-0.0026921178
2.7770979e-08
-3.9652339e-08
4.2933403e-06
-0.0030657964
5.0906436e-08
-4.0294206e-08
5.2918872e-06
-0.0034474032
6.8772822e-08
-3.9602369e-08
-0.056394949
2.4857674e-06
-1.1334745e-07
1.223766e-05
-6.2612208e-06
-0.056406823
2.8985153e-06
-8.2116763e-08
1.5318461e-05
-5.0052636e-06
-0.0034486839
6.2904264e-08
-3.8293571e-08
-3.6946905e-06
-0.003067109
4.1191384e-08
-3.9266278e-08
-2.1429728e-06
-0.0026936468
1.5306042e-08
-3.8209883e-08
-0.0022420923
-1.3059255e-08
-3.425789e-08
2.4164372e-06
-0.0022444503
-2.864337e-08
-2.9938259e-08
4.2545017e-06
-0.0026954525
2.8143946e-09
-3.5235129e-08
5.8672495e-06
-0.0030687174
3.2406619e-08
-3.6772481e-08
7.4274046e-06
-0.003450267
5.8377297e-08
-3.5379254e-08
-0.056421675
3.39316e-06
-4.6752821e-08
1.8932949e-05
-8.8284259e-06
-0.056439999
3.9923057e-06
-7.8497985e-08
2.3238817e-05
-6.899154e-06
-0.0034522049
5.2688162e-08
-4.42764e-08
-4.9307475e-06
-0.0030706618
2.1236152e-08
-4.552462e-08
-2.7439506e-06
-0.0026975833
-1.355085e-08
-4.3025631e-08
-0.002247109
-4.9486457e-08
-3.5768577e-08
3.1343807e-06
-0.0022501563
-7.870879e-08
-8.8025664e-09
5.7367258e-06
-0.002700133
-3.7835266e-08
-1.4949906e-08
8.1369085e-06
-0.0030730482
2.7590808e-09
-1.6683696e-08
1.0507409e-05
-0.0034546017
4.0616029e-08
-1.4408418e-08
-0.056462544
4.6389934e-06
1.0147466e-07
2.8311718e-05
-1.2521408e-05
-0.056489819
5.3717965e-06
2.1975742e-07
3.4204142e-05
-9.6277313e-06
-0.0034575205
2.0745643e-08
4.2848566e-09
-6.7062814e-06
-0.0030759462
-2.490504e-08
1.3378143e-09
-3.6024205e-06
-0.0027031674
-7.2468241e-08
2.6295841e-09
-0.0022536481
-1.1883798e-07
8.1713506e-09
4.1774957e-06
-0.0022576837
-1.6792381e-07
2.5745663e-08
7.8909782e-06
-0.0027067878
-1.1531987e-07
2.2108561e-08
1.1439636e-05
-0.0030794573
-5.9476182e-08
2.1749613e-08
1.4974021e-05
-0.0034610759
-4.5032678e-09
2.5509684e-08
-0.056522675
6.2680034e-06
3.4505332e-07
4.1217561e-05
-1.7992814e-05
-0.056562254
7.4149011e-06
4.7180132e-07
4.9684287e-05
-1.3675974e-05
-0.0034654075
-3.3547528e-08
4.817946e-08
-9.3566169e-06
-0.0030837201
-1.0035611e-07
4.3702763e-08
-4.8885728e-06
-0.0027111322
-1.6602259e-07
4.2165497e-08
-0.002262389
-2.2518898e-07
4.191746e-08
5.7893684e-06
-0.0022679444
-2.8643727e-07
5.2259187e-08
1.1201803e-05
-0.0027163835
-2.200286e-07
5.8726369e-08
1.6489405e-05
-0.0030889285
-1.4237983e-07
6.3163991e-08
2.1782279e-05
-0.0034707086
-6.0822228e-08
6.9038118e-08
-0.056610039
8.940292e-06
5.94982e-07
6.0032928e-05
-2.6610514e-05
-0.056667982
1.1036476e-05
6.7890583e-07
7.2837959e-05
-2.008041e-05
-0.003477243
-7.5761558e-08
8.0025226e-08
-1.3562446e-05
-0.0030953431
-1.7630852e-07
7.2789768e-08
-6.9347439e-06
-0.0027228072
-2.6876396e-07
6.4582344e-08
-0.0022745863
-3.4354535e-07
5.0740097e-08
8.4213342e-06
-0.0022826546
-3.8154496e-07
2.8398578e-08
1.6605062e-05
-0.0027307426
-2.9477575e-07
4.6432128e-08
2.4708059e-05
-0.0031033204
-1.8314549e-07
5.746857e-08
3.2833181e-05
-0.0034853757
-5.8320294e-08
6.5829242e-08
-0.056738792
1.400774e-05
6.425954e-07
8.899249e-05
-4.0838612e-05
-0.056826381
1.8083164e-05
3.2600202e-07
0.00011001856
-3.0671857e-05
-0.0034955654
2.1649315e-08
1.3317796e-09
-2.0529811e-05
-0.0031133241
-1.3229896e-07
-6.1220851e-09
-1.0338472e-05
-0.0027406489
-2.6906234e-07
-1.6045147e-08
-0.002292587
-3.7911398e-07
-2.6992162e-08
1.2819093e-05
-0.0023049684
-2.9110878e-07
-1.4669117e-07
2.56309e-05
-0.0027531648
-1.4586981e-07
-1.5009662e-07
3.8430573e-05
-0.0031260006
2.370942e-08
-1.4690067e-07
5.1265399e-05
-0.0035084686
2.1237778e-07
-1.4399546e-07
-0.056936187
2.3612447e-05
-5.4735804e-07
0.00013800629
-6.5005142e-05
-0.057076096
3.1594763e-05
-2.2954918e-06
0.00017561503
-4.8650498e-05
-0.0035250071
5.7554856e-07
-3.9176729e-07
-3.2341702e-05
-0.0031422658
3.3879196e-07
-3.824709e-07
-1.6064324e-05
-0.0027691985
1.263595e-07
-3.7019641e-07
-0.0023206394
-4.9168031e-08
-3.4412999e-07
2.036081e-05
-0.0023406851
2.6598787e-07
-5.8133908e-07
4.0882798e-05
-0.0027895339
4.4571909e-07
-6.3242287e-07
6.1509798e-05
-0.0031629188
6.9075009e-07
-6.6473767e-07
8.2220102e-05
-0.0035460036
9.7744587e-07
-6.9123472e-07
-0.057258197
4.0967858e-05
-4.7303245e-06
0.00022808291
-0.00010525141
-0.057506407
5.0822131e-05
-7.5822317e-06
0.00031022191
-7.8427927e-05
-0.0035731836
1.3015697e-06
-9.4523051e-07
-5.1947047e-05
-0.003189472
9.7494369e-07
-9.0288128e-07
-2.5821845e-05
-0.002815529
7.3577586e-07
-8.6628279e-07
-0.0023662776
6.2248073e-07
-8.5177048e-07
3.445043e-05
-0.0024002313
1.0731245e-06
-1.5702282e-06
7.3473373e-05
-0.0028543306
1.0682908e-06
-1.289784e-06
0.00011356278
-0.0032295574
1.2471857e-06
-1.251295e-06
0.00015421055
-0.0036142406
1.7421987e-06
-1.3329742e-06
-0.057844201
7.3305966e-05
-1.322313e-05
0.00043192217
-0.00023389875
-0.058163168
9.6873874e-05
-1.5617992e-05
0.00047160919
-0.00017190213
-0.0036756304
1.0962188e-06
-1.703273e-06
-0.00010874249
-0.0032913052
2.0324498e-07
-1.6153629e-06
-4.8831525e-05
-0.0029121626
-1.3766834e-07
-1.9418692e-06
-0.0024453505
-8.5340236e-07
-2.858952e-06
9.7728105e-05
-0.0025291501
-1.3695015e-05
-2.3309882e-07
0.0001805216
-0.0029850752
-7.9215435e-06
-1.9591841e-06
0.00025724387
-0.0033618616
-4.1813406e-06
-1.9843274e-06
0.00033571901
-0.0037491698
-3.7481843e-06
-1.187479e-06
-0.058283954
6.3280524e-05
1.1524719e-05
0.00038170015
0.00010108339
-0.059675531
3.7025644e-05
-3.0131151e-05
0.0012835994
7.0642284e-05
-0.0037226917
1.1456006e-05
-7.4924633e-06
4.5648918e-05
-0.0033399078
1.0399191e-05
-7.3589608e-06
2.2979945e-05
-0.0029669951
1.2533839e-05
-7.9434374e-06
-0.0025175638
2.2241238e-05
-1.0847522e-05
-2.5156271e-05
-0.0024007709
-0.00010065786
9.0227493e-06
-5.3895183e-05
-0.0028282427
-0.00011319729
3.1845098e-06
-8.9312599e-05
-0.0031850641
-0.00012111392
1.6881956e-06
-0.00013159567
-0.003552501
-0.00012983743
1.9299117e-06
-0.059739579
-0.0018892831
3.0882882e-05
0.0017908527
0.00056350839
-0.056482698
-0.0031116515
6.8256556e-05
-0.00077699371
0.0003915646
-0.0031930223
-0.00020000276
1.2467961e-05
0.00024181042
-0.002860049
-0.0001869686
1.1707701e-05
0.00011064911
-0.0025383623
-0.00017106649
1.2347589e-05
-0.0021607945
-0.00014440129
1.5073939e-05
-2.0473757e-05
0.0020314687
-0.0021307025
-0.0020410869
-4.9551432e-05
0.002413942
-0.0025173124
-0.0024059143
-8.0425415e-05
0.00275539
-0.002855068
-0.002729497
-0.00011159228
0.0031207794
-0.0032094753
-0.0030731595
0.071675457
-0.027759814
-0.034783323
-0.065726611
0.00028741856
0.087105801
-0.01445941
-0.0043700033
0.00018897769
0.0038345673
-0.00081534982
9.9556619e-05
0.0033810969
-0.00072325434
2.8680363e-05
0.002954426
-0.00064067408
0.0024694305
-0.00055368271
-9.7947956e-05
0.0024738345
-7.1129807e-06
-0.00019599485
0.00296349
-2.4214063e-05
-0.0002966861
0.0033965679
-3.5893298e-05
-0.00040687948
0.0038609184
-4.5995016e-05
0.085463843
-0.0016016778
0.00094747274
-0.00025321754
0.085050162
-0.0005557963
0.0012597204
-0.00020268371
0.0038655912
-4.3750516e-05
-0.00015406082
0.0033984856
-4.0141303e-05
-9.4614745e-05
0.0029582702
-4.1692128e-05
0.0024516128
-5.0151865e-05
6.1354709e-05
0.0023824755
-5.9122129e-06
0.00013363361
0.0028890847
-1.1014926e-05
0.00021330794
0.0033274934
-1.2863353e-05
0.00029735957
0.0037907096
-1.2918175e-05
0.084823483
-0.00013098269
0.00071830232
-0.00022236372
0.084370028
-3.2195241e-05
0.00080488755
-0.00015828241
0.0037287286
-1.0040824e-06
-9.735874e-05
0.0032674773
-7.0433284e-07
-4.2057853e-05
0.0028338399
-1.9368621e-07
0.0023384963
1.0679725e-06
3.2223303e-05
0.0023069734
3.7265811e-07
6.9397235e-05
0.0027974263
3.079857e-07
0.00010916232
0.0032287692
1.9022195e-07
0.00015155595
0.0036880029
7.4268969e-08
0.083925772
-3.2896491e-06
0.00067240831
-0.00010616698
0.083597701
8.9940071e-06
0.00047606563
-7.7448849e-05
0.0036598316
7.5478706e-07
-5.0317463e-05
0.0032018753
7.3751267e-07
-2.4575834e-05
0.0027716751
7.4535953e-07
0.0022822852
7.348185e-07
1.9041647e-05
0.0022626592
8.5039286e-07
3.915496e-05
0.0027511365
8.7109102e-07
6.0355485e-05
0.0031804817
8.8387384e-07
8.2699201e-05
0.0036375582
9.071211e-07
0.083352856
8.7690406e-06
0.00035974309
-6.4640388e-05
0.083161525
5.0123901e-06
0.00028255442
-4.705497e-05
0.0036198027
7.4556787e-07
-3.0427145e-05
0.0031634456
7.4701398e-07
-1.4694047e-05
0.0027347828
7.4697172e-07
0.0022471697
7.4626194e-07
1.1515387e-05
0.0022347669
5.9633353e-07
2.3719032e-05
0.0027218616
5.7162947e-07
3.662031e-05
0.0031500203
5.4777935e-07
5.0307049e-05
0.0036058007
5.2768402e-07
0.083009389
2.1785438e-06
0.00022387687
-3.9880301e-05
0.082886617
6.7187398e-07
0.0001800631
-2.906523e-05
0.0035946311
3.7614909e-07
-1.8894769e-05
0.0031393143
4.0323553e-07
-9.244737e-06
0.002711508
4.3458374e-07
0.0022246752
4.6784742e-07
7.5487557e-06
0.0022163629
3.8193365e-07
1.5301073e-05
0.0027031115
3.4938998e-07
2.3437096e-05
0.0031306758
3.1929085e-07
3.2095417e-05
0.003585622
2.9254302e-07
0.082786509
8.4540086e-08
0.00014612674
-2.6126568e-05
0.082704157
-2.6189753e-09
0.00011951731
-1.9138732e-05
0.0035783042
2.5413085e-07
-1.2566822e-05
0.0031236498
2.7778632e-07
-6.2581215e-06
0.002696231
3.0295177e-07
0.0022094323
3.2893174e-07
5.2834478e-06
0.0022035706
2.9183509e-07
1.0480119e-05
0.0026905409
2.7339955e-07
1.5847584e-05
0.0031178863
2.5361073e-07
2.1544279e-05
0.0035723129
2.338332e-07
0.082635974
7.980966e-08
9.8587746e-05
-1.7968564e-05
0.08257934
1.9308391e-07
8.1824432e-05
-1.3283062e-05
0.0035673748
2.1894726e-07
-8.8565168e-06
0.0031131241
2.3528702e-07
-4.521484e-06
0.002685789
2.5084766e-07
0.0021985604
2.6349504e-07
3.9178372e-06
0.002194235
2.3964497e-07
7.5622335e-06
0.0026817986
2.3062188e-07
1.1236597e-05
0.0031091722
2.1803098e-07
1.511059e-05
0.0035632916
2.0476976e-07
0.082532224
3.133055e-07
6.8181101e-05
-1.2770094e-05
0.082493055
4.1790812e-07
5.6893581e-05
-9.5619395e-06
0.0035599156
1.885868e-07
-6.505563e-06
0.0031058918
1.9914366e-07
-3.4219057e-06
0.0026784329
2.095338e-07
0.0021904774
2.1684541e-07
3.0148467e-06
0.0021871903
1.9340929e-07
5.6272844e-06
0.0026755959
1.8674762e-07
8.1695232e-06
0.0031031744
1.7783245e-07
1.0818652e-05
0.0035571372
1.6984187e-07
0.082460627
4.921019e-07
4.7393265e-05
-9.1727399e-06
0.082434085
4.9757321e-07
3.9209195e-05
-6.9924784e-06
0.0035548634
1.4618879e-07
-4.8872762e-06
0.003100938
1.5240173e-07
-2.6645339e-06
0.0026731993
1.6018821e-07
0.0021843097
1.6656203e-07
2.3722585e-06
0.0021817686
1.4011981e-07
4.2572889e-06
0.0026711838
1.3320187e-07
6.0011871e-06
0.0030991004
1.260342e-07
7.7855361e-06
0.0035530161
1.2126533e-07
0.082412616
4.5955879e-07
3.2187718e-05
-6.622143e-06
0.082395446
4.5599567e-07
2.6235085e-05
-5.1688461e-06
0.0035515231
1.0262518e-07
-3.7308257e-06
0.0030975977
1.058622e-07
-2.1237724e-06
0.0026694804
1.1158976e-07
0.0021795141
1.1767389e-07
1.9131876e-06
0.0021775006
1.0138173e-07
3.2937068e-06
0.0026680312
9.6465978e-08
4.481455e-06
0.0030963687
9.2169478e-08
5.6627231e-06
0.0035503202
9.0367818e-08
0.082381971
4.9405085e-07
2.112911e-05
-4.8941818e-06
0.08237175
4.9529433e-07
1.6722325e-05
-3.9316071e-06
0.0035493515
7.9517426e-08
-2.942793e-06
0.0030953584
8.0162891e-08
-1.7488884e-06
0.0026667928
8.3185585e-08
0.0021756791
8.7243312e-08
1.6089872e-06
0.0021740203
7.5574306e-08
2.6620629e-06
0.0026657139
7.2500693e-08
3.4970013e-06
0.0030945167
7.0602612e-08
4.2848424e-06
0.0035485691
7.0830263e-08
0.082364313
5.0072124e-07
1.3022546e-05
-3.8097233e-06
0.082359149
4.9446852e-07
1.003394e-05
-3.1529113e-06
0.0035479235
6.3781941e-08
-2.4408285e-06
0.0030938061
6.2918222e-08
-1.5018346e-06
0.0026647606
6.3849952e-08
0.0021724844
6.5805821e-08
1.4149153e-06
0.0021710457
5.7096615e-08
2.2709921e-06
0.0026638982
5.533798e-08
2.8942453e-06
0.0030931904
5.4574208e-08
3.4478454e-06
0.0035473858
5.5588916e-08
0.082355876
4.5134849e-07
7.6004564e-06
-3.1736937e-06
0.082354227
3.724043e-07
5.5728959e-06
-2.6937507e-06
0.0035469242
4.692855e-08
-2.1362324e-06
0.0030926436
4.6156021e-08
-1.343645e-06
0.0026631039
4.6758727e-08
0.0021696858
4.8063624e-08
1.290852e-06
0.002168381
4.1765497e-08
2.0349493e-06
0.0026623594
4.0276794e-08
2.5452625e-06
0.0030921442
3.9476281e-08
2.9677877e-06
0.0035465196
3.9943172e-08
0.082353942
2.9240136e-07
3.8873212e-06
-2.8077537e-06
0.082354724
2.2092163e-07
2.542928e-06
-2.4225469e-06
0.0035461489
3.4823967e-08
-1.9506313e-06
0.0030916801
3.4844365e-08
-1.2404194e-06
0.0026616462
3.5752182e-08
0.0021671257
3.718181e-08
1.2023634e-06
0.0021659056
3.2795533e-08
1.8817319e-06
0.0026609603
3.0844067e-08
2.3265063e-06
0.0030912389
2.9343548e-08
2.6808925e-06
0.0035458046
2.8480523e-08
0.082356284
1.0465405e-07
1.5325695e-06
-2.5748852e-06
0.082358436
-1.3204292e-07
7.309172e-07
-2.2473439e-06
0.0035454836
1.2576254e-08
-1.8223985e-06
0.0030908142
1.4900467e-08
-1.1667663e-06
0.0026602948
1.8132667e-08
0.0021647182
2.2298364e-08
1.1361709e-06
0.00216356
-4.3240193e-10
1.7707217e-06
0.0026596491
-8.9509932e-09
2.1787416e-06
0.003090405
-1.5507026e-08
2.4890177e-06
0.0035451785
-2.0832191e-08
0.082361042
-5.9906847e-07
6.2117682e-08
-2.4207655e-06
0.082363989
-1.3292031e-06
-4.9971498e-07
-2.1208958e-06
0.0035448827
-7.3609582e-08
-1.7264683e-06
0.0030900085
-6.3644525e-08
-1.1075099e-06
0.0026590181
-5.2062296e-08
0.00216243
-3.6723896e-08
1.0802483e-06
0.0021613278
-8.1888974e-08
1.6870991e-06
0.0026583997
-1.0546175e-07
2.0694002e-06
0.0030896243
-1.2309651e-07
2.3575943e-06
0.0035445988
-1.3895891e-07
0.082367177
-2.2266633e-06
-9.7785858e-07
-2.3649703e-06
0.08237056
-2.9959001e-06
-1.4038977e-06
-2.0663955e-06
0.0035442975
-1.9729011e-07
-1.672922e-06
0.0030892226
-1.7673786e-07
-1.0666621e-06
0.002657776
-1.5377535e-07
0.002160234
-1.2271276e-07
1.0252069e-06
-1.3147392e-07
1.5929777e-06
-1.6328435e-07
1.9477898e-06
-1.8729805e-07
2.2127621e-06
-2.0913515e-07
-3.1556129e-06
-1.9750735e-06
-2.2707732e-06
-0.082365184
-7.1560849e-06
9.5881509e-06
-1.9982719e-06
-0.0035444579
-5.0310443e-07
5.7671879e-07
-1.6354299e-06
-0.0030895003
-4.5674213e-07
5.289515e-07
-1.0520072e-06
-0.0026583018
-4.0535778e-07
4.800507e-07
-0.0021612651
-3.3523244e-07
4.1166716e-07
1.0757044e-06
-0.0021624043
-2.157904e-07
2.7874679e-07
1.6753413e-06
-0.0026589598
-2.6522397e-07
3.2324816e-07
2.0570994e-06
-0.0030899351
-3.0152349e-07
3.5428377e-07
2.3412851e-06
-0.0035447938
-3.3356527e-07
3.852163e-07
-0.082362365
-4.865997e-06
6.4485142e-06
-2.0607412e-06
-2.375297e-06
-0.082359569
-2.8225252e-06
3.6869607e-06
-1.2856192e-06
-2.0878792e-06
-0.0035451135
-1.8458497e-07
2.167184e-07
-1.7046244e-06
-0.0030903537
-1.6544945e-07
2.0063573e-07
-1.097637e-06
-0.0026596093
-1.430417e-07
1.8519136e-07
-0.0021635512
-1.1242501e-07
1.6167584e-07
1.1253247e-06
-0.0021647164
-3.6641994e-08
7.6066116e-08
1.7514265e-06
-0.0026602664
-5.3643859e-08
8.4309903e-08
2.1462506e-06
-0.0030907711
-6.5994085e-08
8.830941e-08
2.4451793e-06
-0.0035454303
-7.5748159e-08
9.3556288e-08
-0.082356947
-1.3211204e-06
1.6592317e-06
-5.1493803e-07
-2.528459e-06
-0.082354702
-3.8537708e-07
3.7495234e-07
2.9330577e-07
-2.2140292e-06
-0.0035457534
-8.1120474e-09
1.6643434e-08
-1.8027089e-06
-0.0030911964
-4.14571e-09
1.790279e-08
-1.157246e-06
-0.0026609351
1.7568435e-09
2.1047125e-08
-0.0021659063
1.0135982e-08
2.2499534e-08
1.1936925e-06
-0.0021671281
3.5794624e-08
-8.2169443e-09
1.8625491e-06
-0.0026616213
3.2045673e-08
-1.4988378e-08
2.2951887e-06
-0.0030916367
2.9526657e-08
-2.2150432e-08
2.6350621e-06
-0.003546095
2.8737004e-08
-2.7119598e-08
-0.082353001
1.325917e-07
-3.5870205e-07
1.1606582e-06
-2.7653604e-06
-0.082352068
4.1097683e-07
-7.7929613e-07
2.2003657e-06
-2.3942632e-06
-0.0035464636
4.8549367e-08
-5.1205603e-08
-1.93293e-06
-0.0030921016
4.7598837e-08
-4.4197574e-08
-1.2356529e-06
-0.0026623326
4.8388824e-08
-3.4807616e-08
-0.0021683891
5.0274487e-08
-2.491493e-08
1.2807286e-06
-0.0021696954
5.9201349e-08
-3.3966053e-08
2.0148612e-06
-0.0026630792
5.7771623e-08
-4.5550295e-08
2.5108808e-06
-0.003092599
5.7375489e-08
-5.6167357e-08
2.9207278e-06
-0.0035468682
5.8947408e-08
-6.4258537e-08
-0.082352175
5.3642022e-07
-1.0356485e-06
3.5267848e-06
-3.1295735e-06
-0.082353558
5.7122381e-07
-1.2079277e-06
5.1489876e-06
-2.663559e-06
-0.0035473278
6.4027577e-08
-7.0580179e-08
-2.1180896e-06
-0.0030931454
6.2550166e-08
-6.1872894e-08
-1.336141e-06
-0.0026638748
6.339391e-08
-5.0052435e-08
-0.0021710608
6.5875829e-08
-3.6625467e-08
1.4021535e-06
-0.0021725023
7.6911082e-08
-3.7981456e-08
2.2453429e-06
-0.0026647375
7.262176e-08
-5.338003e-08
2.8527794e-06
-0.0030937572
7.0714014e-08
-6.6483045e-08
3.3913264e-06
-0.0035478624
7.2022642e-08
-7.604691e-08
-0.082356483
6.085929e-07
-1.3938467e-06
7.100925e-06
-3.7288401e-06
-0.082361334
6.8808244e-07
-1.6374287e-06
9.5288992e-06
-3.0971172e-06
-0.0035484997
8.6847648e-08
-8.142911e-08
-2.4035008e-06
-0.0030944666
8.5951521e-08
-7.0372342e-08
-1.4833438e-06
-0.002665691
8.8534647e-08
-5.5456296e-08
-0.0021740414
9.3449208e-08
-3.766077e-08
1.5841306e-06
-0.002175708
1.1308181e-07
-3.0846393e-08
2.6087455e-06
-0.002666771
1.0730441e-07
-5.2071471e-08
3.4154941e-06
-0.0030953079
1.0403815e-07
-6.9564462e-08
4.1753744e-06
-0.0035492815
1.0448066e-07
-8.2555039e-08
-0.08236851
7.5562591e-07
-1.9035243e-06
1.2499534e-05
-4.734201e-06
-0.082378349
7.7900613e-07
-2.204672e-06
1.5998891e-05
-3.815121e-06
-0.0035502439
1.2197273e-07
-7.8778053e-08
-2.8659796e-06
-0.0030963166
1.2278748e-07
-6.3343577e-08
-1.7083833e-06
-0.0026680131
1.2735729e-07
-4.3118413e-08
-0.0021775311
1.3419916e-07
-1.9486466e-08
1.8646501e-06
-0.0021795487
1.6123758e-07
-8.4475007e-09
3.1907022e-06
-0.0026694595
1.5348151e-07
-3.3238782e-08
4.3238199e-06
-0.0030975415
1.4759656e-07
-5.5915366e-08
5.4484412e-06
-0.0035514396
1.4547574e-07
-7.4439857e-08
-0.082391282
8.1801476e-07
-2.5897426e-06
2.0152493e-05
-6.3367746e-06
-0.08240792
8.8791816e-07
-3.0379988e-06
2.5124892e-05
-4.9579892e-06
-0.0035529232
1.7671028e-07
-7.1944615e-08
-3.5934158e-06
-0.0030990368
1.8040566e-07
-4.9650383e-08
-2.0571828e-06
-0.0026711585
1.8753523e-07
-2.4716709e-08
-0.0021818018
1.9522454e-07
7.2890767e-10
2.2896334e-06
-0.0021843343
2.3226513e-07
1.0907294e-08
4.0853715e-06
-0.0026731627
2.240325e-07
-1.5466415e-08
5.7355877e-06
-0.0031008592
2.1542773e-07
-4.3190996e-08
7.4252414e-06
-0.0035547528
2.0986456e-07
-6.9864295e-08
-0.082428813
9.2194912e-07
-3.5551134e-06
3.0950953e-05
-8.7233004e-06
-0.082454561
8.9388036e-07
-4.1262599e-06
3.7703612e-05
-6.6633259e-06
-0.003556989
2.4114176e-07
-6.5020376e-08
-4.6709746e-06
-0.0031030674
2.492975e-07
-3.3541056e-08
-2.5633275e-06
-0.0026755285
2.6008804e-07
-2.0668181e-09
-0.0021871947
2.6990209e-07
2.7130768e-08
2.8894543e-06
-0.0021904449
3.1396044e-07
4.6700289e-08
5.3666128e-06
-0.002678323
3.0282918e-07
1.4485261e-08
7.7648785e-06
-0.0031057337
2.8971631e-07
-2.172638e-08
1.0271409e-05
-0.0035597149
2.7867005e-07
-5.9295031e-08
-0.082485952
8.8963874e-07
-4.8047822e-06
4.5577689e-05
-1.2106093e-05
-0.082524027
9.5699129e-07
-5.6503829e-06
5.4874101e-05
-9.074125e-06
-0.0035630186
3.2544296e-07
-5.3762666e-08
-6.1926923e-06
-0.0031089459
3.3934916e-07
-8.6294055e-09
-3.2749995e-06
-0.0026816298
3.5491054e-07
3.410536e-08
-0.0021941592
3.6766092e-07
7.1615342e-08
3.7338668e-06
-0.0021984263
4.2865763e-07
1.0450623e-07
7.1760988e-06
-0.0026855452
4.1370446e-07
5.9431582e-08
1.0641669e-05
-0.003112815
3.9537308e-07
8.147601e-09
1.430432e-05
-0.0035670131
3.784654e-07
-4.6637522e-08
-0.082569968
1.0553155e-06
-6.7062743e-06
6.5896688e-05
-1.6991734e-05
-0.08262522
1.1313186e-06
-8.0153059e-06
7.9127183e-05
-1.2559639e-05
-0.0035718438
4.3345562e-07
-3.4912418e-08
-8.385624e-06
-0.0031174751
4.5408801e-07
3.1899581e-08
-4.2967455e-06
-0.002690205
4.765588e-07
9.4232254e-08
-0.0022033678
4.9578249e-07
1.489723e-07
5.0008287e-06
-0.0022091489
5.7367476e-07
2.063558e-07
9.8973809e-06
-0.0026957899
5.4791944e-07
1.403504e-07
1.4955273e-05
-0.0031231175
5.2028618e-07
6.4205515e-08
2.0341746e-05
-0.0035777079
4.9564965e-07
-1.8009102e-08
-0.082691771
1.2399383e-06
-9.6696305e-06
9.5322322e-05
-2.463505e-05
-0.082772228
1.4504797e-06
-1.1858293e-05
0.00011549996
-1.8030652e-05
-0.0035848813
5.7184271e-07
-2.9427101e-09
-1.1838881e-05
-0.003130009
6.008291e-07
9.8834265e-08
-5.9051351e-06
-0.0027025505
6.343827e-07
1.9235013e-07
-0.0022159927
6.6705656e-07
2.7163395e-07
7.098489e-06
-0.0022242051
7.8129737e-07
3.3262834e-07
1.4390473e-05
-0.0027108194
7.4085278e-07
2.360749e-07
2.2065358e-05
-0.0031385058
7.0099986e-07
1.2086487e-07
3.0254224e-05
-0.0035937321
6.6786035e-07
-5.8857212e-09
-0.082870122
1.790104e-06
-1.4808957e-05
0.00014116747
-3.7644161e-05
-0.082990304
2.3516215e-06
-1.8633598e-05
0.00017410776
-2.7384552e-05
-0.0036047422
7.9844191e-07
-4.8062618e-08
-1.7772563e-05
-0.0031490599
8.3448147e-07
1.0765514e-07
-8.6830024e-06
-0.0027210383
8.799797e-07
2.492359e-07
-0.0022341865
9.2560783e-07
3.728148e-07
1.0813343e-05
-0.0022464644
1.1038238e-06
3.6037788e-07
2.2325597e-05
-0.0027338147
1.0582898e-06
2.0572828e-07
3.4543375e-05
-0.0031623226
1.0087898e-06
3.5939361e-08
4.7551685e-05
-0.003618573
9.7232715e-07
-1.4976469e-07
-0.083139579
3.3952756e-06
-2.3227158e-05
0.00021665851
-6.1282973e-05
-0.083327828
5.0354578e-06
-2.8791978e-05
0.00027328895
-4.4497517e-05
-0.003636185
1.1409892e-06
-3.1454632e-07
-2.8679429e-05
-0.0031792175
1.1759853e-06
-9.9148678e-08
-1.3790949e-05
-0.0027500253
1.2223391e-06
9.9635241e-08
-0.0022618026
1.2690913e-06
2.7818767e-07
1.7946459e-05
-0.0022812642
1.4006509e-06
1.1424219e-07
3.7160102e-05
-0.0027705227
1.3075098e-06
-2.3760019e-08
5.7537612e-05
-0.0032006194
1.2519696e-06
-2.2768134e-07
7.9073943e-05
-0.0036584799
1.2307736e-06
-4.72164e-07
-0.083568653
7.1055537e-06
-3.4835258e-05
0.00034762786
-0.00010156357
-0.083891545
7.626824e-06
-3.9131725e-05
0.00045596098
-7.3880268e-05
-0.0036867712
1.0452059e-06
-4.3742374e-07
-4.7780075e-05
-0.0032275904
1.0690452e-06
-1.9845528e-07
-2.3228401e-05
-0.0027962075
1.1908353e-06
-5.8210332e-08
-0.0023058457
1.4513316e-06
-9.821818e-08
3.0414546e-05
-0.0023370408
1.1646563e-06
-3.8458555e-07
6.5396589e-05
-0.0028318269
4.6887198e-07
1.6818182e-07
0.00010332642
-0.003265867
1.6424001e-07
1.8237661e-07
0.00014388134
-0.0037273176
6.7993721e-08
-7.6526122e-08
-0.084345687
-6.7566323e-07
-4.4356788e-05
0.00064305585
-0.00023345841
-0.084828866
-2.4013039e-05
-5.7859952e-05
0.00079851027
-0.00016674985
-0.0037918821
-2.2491665e-06
1.0535828e-07
-0.00010318051
-0.0033278937
-2.0942257e-06
5.5183514e-07
-4.5040127e-05
-0.0028891556
-1.4674824e-06
6.5639282e-07
-0.0023818565
3.2500419e-07
-5.4945981e-07
6.5361397e-05
-0.002446375
-2.3825002e-06
1.5413269e-06
0.00014416928
-0.0029617695
-6.9515524e-06
7.5838859e-07
0.0002298486
-0.0034043168
-8.0878579e-06
-1.1677947e-06
0.00031778358
-0.0038701444
-8.4546419e-06
-1.2179864e-06
-0.085015987
-7.1685871e-05
-7.3492677e-05
0.00065008332
-0.00023605365
-0.085502874
-0.0003556777
0.00012564055
0.0009529787
-0.00018991494
-0.0038898857
-6.0848116e-06
-2.0311481e-05
-0.00014815052
-0.0034211038
-2.9401969e-06
-2.2035959e-05
-9.5424625e-05
-0.0029894359
-8.6275816e-07
-2.4194083e-05
-0.0025090659
-2.894083e-06
-2.9839676e-05
-0.00016556933
-0.0024071653
-4.2023877e-05
0.00010569329
-0.00032351318
-0.0028943316
-5.345199e-05
0.00011629185
-0.00048747466
-0.0033199688
-6.3113853e-05
0.00012594062
-0.00067123678
-0.0037681532
-7.3277811e-05
0.00013530751
-0.088129316
-0.0017359878
0.0020347188
0.001656474
-1.2661071e-05
-0.071815889
-0.014734095
0.0029245995
-0.0044912702
-3.3658292e-05
-0.0031139289
-0.00080489795
0.00017167089
-4.8241877e-05
-0.0027491768
-0.00071373603
0.00015752769
-4.4289089e-05
-0.0024086328
-0.00063123308
0.00014158164
-0.0020249128
-0.00054140652
0.0001148649
1.5832348e-05
0.0021205259
2.9245622e-05
0.0024996108
4.3347919e-05
0.0028220587
5.5134202e-05
0.0031575774
0.056232903
0.00059934256
0.070436011
-0.00013816173
-0.008453967
0.00042289722
0.0037766809
-2.1022011e-05
0.00026375636
0.003347667
-2.0893087e-05
0.00012186249
0.0029393254
-2.2155595e-05
0.0024691759
-2.6438896e-05
-0.00021833562
0.0025699182
7.5569478e-05
-0.00043460222
0.0030343503
6.7789865e-05
-0.0006562796
0.0034415338
6.4696793e-05
-0.00089292065
0.0038760599
6.3984254e-05
0.067645377
0.00034232578
-0.00018060068
-4.5657709e-05
0.06687865
8.6962971e-05
0.00036974391
-4.6592158e-05
0.0038507524
2.015725e-05
-4.8144575e-05
0.0034189276
2.1218507e-05
-3.9270353e-05
0.0030037719
2.0841612e-05
0.0025099823
1.7771481e-05
5.8480838e-05
0.0024375855
1.153361e-05
0.00011765434
0.0029254757
1.2171283e-05
0.00017883469
0.0033379619
1.169761e-05
0.00024221321
0.003767951
1.0968305e-05
0.066731373
1.1848151e-05
0.00030595647
-0.00019433602
0.066340114
1.5662921e-05
0.00054591976
-0.00014017889
0.0037032578
8.2869139e-06
-8.7672176e-05
0.0032746289
8.7321505e-06
-3.8692165e-05
0.0028659384
9.0898446e-06
0.0023901101
9.1082298e-06
2.7979083e-05
0.0023570257
6.2699958e-06
5.8940292e-05
0.0028292746
6.1714576e-06
9.1676236e-05
0.003236152
5.9051233e-06
0.00012609742
0.0036633224
5.5821719e-06
0.06597658
9.6616947e-06
0.00047929324
-9.2613014e-05
0.065724631
5.7289632e-06
0.00034646043
-6.8422966e-05
0.0036365024
3.6752039e-06
-4.5160703e-05
0.0032100579
3.9008802e-06
-2.2596241e-05
0.0028037925
4.1084552e-06
0.002331659
4.2217649e-06
1.8076367e-05
0.0023121151
2.868203e-06
3.6410048e-05
0.0027839914
2.774965e-06