/*--------------------------------*- C++ -*----------------------------------*\
  =========                 |
  \\      /  F ield         | OpenFOAM: The Open Source CFD Toolbox
   \\    /   O peration     | Website:  https://openfoam.org
    \\  /    A nd           | Version:  7
     \\/     M anipulation  |
\*---------------------------------------------------------------------------*/
FoamFile
{
    version     2.0;
    format      ascii;
    class       volScalarField;
    location    "450";
    object      rho;
}
// * * * * * * * * * * * * * * * * * * * * * * * * * * * * * * * * * * * * * //

dimensions      [1 -3 0 0 0 0 0];

internalField   nonuniform List<scalar> 
24866
(
1.1739067
1.173906
1.1739061
1.1739064
1.1739065
1.1739064
1.1739065
1.1739065
1.1739064
1.1739065
1.1739065
1.1739065
1.1739065
1.1739064
1.1739065
1.1739065
1.1739064
1.1739064
1.1739064
1.1739064
1.1739064
1.1739065
1.1739065
1.1739065
1.1739064
1.1739064
1.1739064
1.1739065
1.1739066
1.1739065
1.1739065
1.1739065
1.1739065
1.1739065
1.1739065
1.1739066
1.1739066
1.1739065
1.1739065
1.1739064
1.1739065
1.1739066
1.1739065
1.1739065
1.1739064
1.1739065
1.1739065
1.1739065
1.1739066
1.1739065
1.1739065
1.1739065
1.1739065
1.1739065
1.1739065
1.1739065
1.1739065
1.1739065
1.1739064
1.1739065
1.1739068
1.1739071
1.1739068
1.1739068
1.173907
1.1739073
1.1739069
1.1739068
1.173907
1.1739071
1.1739071
1.173907
1.1739068
1.1739069
1.1739073
1.173907
1.1739068
1.1739068
1.1739071
1.1739068
1.1739068
1.173907
1.1739072
1.1739074
1.1739075
1.173907
1.1739069
1.173907
1.1739069
1.173907
1.1739074
1.1739076
1.1739086
1.1739086
1.1739083
1.173908
1.1739075
1.1739082
1.1739075
1.1739081
1.1739089
1.1739097
1.1739088
1.1739094
1.1739097
1.1739097
1.1739094
1.1739084
1.173908
1.1739072
1.173907
1.1739068
1.1739068
1.1739071
1.1739076
1.1739083
1.1739089
1.1739098
1.1739105
1.1739108
1.1739108
1.1739104
1.1739112
1.1739104
1.1739094
1.1739085
1.1739076
1.1739078
1.1739087
1.1739097
1.1739108
1.1739117
1.1739123
1.1739117
1.1739117
1.1739113
1.1739105
1.1739094
1.1739089
1.173908
1.1739076
1.1739071
1.1739068
1.1739069
1.1739067
1.1739067
1.1739068
1.1739064
1.1739064
1.1739064
1.1739064
1.1739064
1.1739063
1.1739063
1.1739063
1.1739062
1.1739064
1.1739064
1.1739063
1.1739062
1.1739061
1.1739062
1.1739063
1.1739063
1.1739064
1.1739064
1.1739063
1.1739065
1.1739064
1.1739063
1.1739064
1.1739064
1.1739064
1.1739064
1.1739063
1.1739064
1.1739064
1.1739063
1.1739067
1.1739068
1.1739067
1.1739066
1.173907
1.1739067
1.173907
1.173907
1.1739076
1.1739075
1.1739082
1.1739075
1.1739081
1.1739085
1.1739076
1.1739078
1.1739087
1.1739097
1.1739108
1.1739117
1.1739122
1.1739123
1.1739123
1.1739118
1.1739108
1.1739097
1.1739086
1.1739084
1.1739074
1.1739072
1.1739072
1.1739071
1.173907
1.1739064
1.1739063
1.1739065
1.1739063
1.1739061
1.1739062
1.1739062
1.1739061
1.1739063
1.1739061
1.1739061
1.1739062
1.1739062
1.1739062
1.1739061
1.173906
1.173906
1.1739062
1.173906
1.1739061
1.1739061
1.173906
1.1739063
1.1739061
1.1739061
1.1739062
1.1739062
1.1739062
1.1739062
1.1739061
1.1739061
1.1739062
1.1739058
1.1739055
1.1739056
1.1739056
1.1739055
1.173906
1.1739063
1.1739065
1.1739064
1.1739064
1.1739064
1.1739065
1.1739065
1.1739065
1.1739064
1.1739065
1.1739065
1.1739064
1.1739064
1.1739064
1.1739063
1.1739064
1.1739062
1.1739063
1.1739064
1.1739063
1.1739063
1.1739064
1.1739064
1.1739064
1.1739063
1.1739063
1.1739067
1.1739068
1.1739068
1.1739068
1.173907
1.173907
1.1739073
1.1739071
1.173907
1.1739069
1.173907
1.1739076
1.1739075
1.1739086
1.1739097
1.1739108
1.1739117
1.1739113
1.1739117
1.1739117
1.1739112
1.1739104
1.1739094
1.1739089
1.1739097
1.1739104
1.1739108
1.1739108
1.1739104
1.1739097
1.1739104
1.1739094
1.1739084
1.1739074
1.1739072
1.173908
1.1739089
1.1739083
1.1739089
1.1739095
1.1739098
1.1739098
1.1739094
1.1739089
1.1739081
1.1739085
1.1739087
1.1739087
1.1739085
1.1739081
1.1739076
1.1739071
1.1739075
1.173907
1.1739068
1.1739068
1.1739067
1.1739068
1.1739068
1.1739066
1.173907
1.173907
1.1739068
1.1739067
1.173906
1.1739062
1.1739061
1.173906
1.1739062
1.173907
1.1739069
1.1739072
1.1739073
1.1739068
1.173907
1.1739069
1.1739069
1.1739069
1.1739062
1.1739063
1.1739063
1.1739063
1.1739062
1.1739062
1.1739057
1.1739059
1.1739056
1.1739057
1.1739057
1.1739056
1.1739059
1.1739057
1.1739056
1.1739058
1.1739058
1.1739058
1.1739057
1.1739055
1.1739056
1.1739058
1.1739055
1.1739056
1.1739056
1.1739055
1.1739058
1.1739057
1.1739055
1.1739057
1.1739057
1.1739057
1.1739057
1.1739055
1.1739056
1.173905
1.1739052
1.1739048
1.173905
1.173905
1.1739048
1.1739052
1.1739058
1.1739063
1.1739061
1.1739061
1.1739062
1.1739062
1.1739062
1.1739062
1.1739061
1.1739062
1.1739063
1.1739061
1.1739062
1.1739062
1.1739057
1.1739055
1.1739058
1.1739057
1.1739056
1.1739058
1.1739058
1.1739058
1.1739058
1.1739056
1.173905
1.1739052
1.1739054
1.1739049
1.1739051
1.1739051
1.1739049
1.1739053
1.1739052
1.173905
1.1739052
1.1739053
1.1739052
1.1739052
1.1739049
1.1739051
1.1739053
1.1739048
1.173905
1.173905
1.1739048
1.1739052
1.1739051
1.1739049
1.1739051
1.1739052
1.1739052
1.1739051
1.1739049
1.173904
1.1739042
1.1739045
1.1739038
1.1739041
1.1739041
1.1739039
1.1739045
1.1739042
1.173904
1.1739049
1.1739056
1.1739057
1.1739058
1.1739058
1.1739058
1.1739056
1.1739057
1.1739058
1.1739055
1.1739057
1.1739051
1.1739051
1.1739049
1.1739053
1.1739052
1.173905
1.1739052
1.1739053
1.1739053
1.1739053
1.1739045
1.1739042
1.1739044
1.1739046
1.173904
1.1739043
1.1739043
1.173904
1.1739046
1.1739044
1.1739041
1.1739045
1.1739045
1.1739045
1.1739044
1.1739041
1.1739043
1.1739045
1.1739039
1.1739042
1.1739042
1.1739039
1.1739045
1.1739042
1.173904
1.1739044
1.1739044
1.1739044
1.1739043
1.1739032
1.1739027
1.173903
1.1739034
1.1739025
1.1739029
1.1739029
1.1739025
1.1739034
1.1739031
1.1739028
1.1739033
1.1739044
1.1739052
1.1739052
1.1739052
1.1739052
1.173905
1.1739051
1.1739053
1.1739049
1.173904
1.1739042
1.1739042
1.173904
1.1739046
1.1739044
1.1739042
1.1739045
1.1739046
1.1739046
1.1739035
1.1739034
1.173903
1.1739033
1.1739036
1.1739027
1.1739031
1.1739031
1.1739027
1.1739036
1.1739032
1.1739029
1.1739034
1.1739035
1.1739034
1.1739033
1.1739029
1.1739031
1.1739034
1.1739026
1.173903
1.173903
1.1739026
1.1739034
1.1739031
1.1739028
1.1739032
1.1739033
1.1739033
1.1739018
1.1739016
1.173901
1.1739014
1.1739018
1.1739007
1.1739012
1.1739012
1.1739007
1.1739019
1.1739014
1.1739011
1.1739017
1.1739018
1.1739034
1.1739045
1.1739045
1.1739044
1.1739041
1.1739043
1.1739046
1.1739035
1.1739027
1.173903
1.1739031
1.1739027
1.1739035
1.1739032
1.1739029
1.1739034
1.1739035
1.173902
1.173902
1.1739019
1.1739013
1.1739017
1.1739021
1.173901
1.1739015
1.1739015
1.173901
1.1739021
1.1739016
1.1739012
1.1739018
1.173902
1.1739019
1.1739018
1.1739012
1.1739015
1.1739019
1.1739008
1.1739013
1.1739013
1.1739008
1.1739019
1.1739014
1.173901
1.1739017
1.1739018
1.1738998
1.1738998
1.1738996
1.1738988
1.1738993
1.1738998
1.1738984
1.1738991
1.1738991
1.1738984
1.1738999
1.1738993
1.1738988
1.1738996
1.1738998
1.1738998
1.1739019
1.1739034
1.1739033
1.1739028
1.1739031
1.1739015
1.173902
1.1739009
1.1739014
1.1739014
1.1739009
1.173902
1.1739016
1.1739012
1.1739019
1.1738999
1.1739
1.1739
1.1738999
1.1738991
1.1738996
1.1739001
1.1738987
1.1738994
1.1738994
1.1738987
1.1739001
1.1738995
1.173899
1.1738998
1.1739
1.1738999
1.1738998
1.1738989
1.1738994
1.1739
1.1738985
1.1738992
1.1738992
1.1738985
1.1738999
1.1738993
1.1738988
1.1738996
1.173897
1.1738972
1.1738972
1.173897
1.173896
1.1738966
1.1738973
1.1738957
1.1738965
1.1738965
1.1738957
1.1738974
1.1738967
1.1738961
1.1738971
1.1738973
1.1738973
1.1738971
1.1738997
1.1739017
1.1739011
1.1738989
1.1738994
1.1739
1.1738986
1.1738993
1.1738993
1.1738987
1.1739001
1.1738995
1.173899
1.1738963
1.1738973
1.1738976
1.1738976
1.1738974
1.1738964
1.173897
1.1738977
1.173896
1.1738968
1.1738968
1.173896
1.1738977
1.1738969
1.1738963
1.1738973
1.1738975
1.1738974
1.1738972
1.1738962
1.1738968
1.1738975
1.1738958
1.1738966
1.1738966
1.1738957
1.1738974
1.1738967
1.1738961
1.173893
1.1738941
1.1738943
1.1738943
1.1738941
1.173893
1.1738937
1.1738945
1.1738927
1.1738936
1.1738936
1.1738927
1.1738946
1.1738938
1.1738931
1.1738942
1.1738944
1.1738944
1.1738942
1.1738932
1.1738962
1.1738968
1.1738975
1.1738959
1.1738967
1.1738967
1.1738959
1.1738976
1.1738969
1.1738941
1.1738934
1.1738945
1.1738947
1.1738947
1.1738945
1.1738934
1.1738942
1.173895
1.1738931
1.173894
1.173894
1.1738931
1.1738949
1.1738941
1.1738933
1.1738944
1.1738946
1.1738946
1.1738943
1.1738932
1.1738939
1.1738947
1.1738929
1.1738938
1.1738937
1.1738928
1.1738946
1.1738938
1.1738911
1.1738903
1.1738914
1.1738915
1.1738915
1.1738913
1.1738903
1.1738911
1.1738919
1.1738901
1.1738911
1.1738911
1.1738901
1.1738919
1.1738911
1.1738903
1.1738914
1.1738916
1.1738916
1.1738915
1.1738905
1.1738913
1.1738939
1.1738948
1.173893
1.1738939
1.1738939
1.173893
1.1738949
1.1738923
1.1738915
1.1738907
1.1738918
1.173892
1.173892
1.1738918
1.1738907
1.1738915
1.1738923
1.1738906
1.1738915
1.1738915
1.1738905
1.1738923
1.1738915
1.1738906
1.1738917
1.1738918
1.1738918
1.1738916
1.1738905
1.1738913
1.1738921
1.1738903
1.1738912
1.1738912
1.1738902
1.173892
1.1738902
1.1738895
1.1738888
1.1738895
1.1738895
1.1738895
1.1738895
1.1738887
1.1738894
1.1738901
1.1738888
1.1738896
1.1738896
1.1738888
1.1738901
1.1738895
1.1738888
1.1738896
1.1738896
1.1738897
1.1738897
1.1738889
1.1738897
1.1738904
1.1738921
1.1738904
1.1738914
1.1738914
1.1738905
1.1738892
1.1738905
1.1738899
1.1738892
1.1738899
1.17389
1.17389
1.17389
1.1738892
1.17389
1.1738906
1.1738892
1.1738901
1.1738901
1.1738892
1.1738905
1.1738899
1.1738891
1.1738898
1.1738898
1.1738898
1.1738897
1.173889
1.1738897
1.1738903
1.1738889
1.1738898
1.1738898
1.1738889
1.1738897
1.1738904
1.17389
1.1738894
1.1738898
1.1738897
1.1738897
1.1738898
1.1738894
1.1738899
1.1738903
1.1738895
1.1738902
1.1738902
1.1738896
1.1738904
1.17389
1.1738894
1.1738899
1.1738898
1.1738899
1.17389
1.1738896
1.1738902
1.1738906
1.1738899
1.1738891
1.17389
1.17389
1.1738906
1.17389
1.1738908
1.1738904
1.1738899
1.1738903
1.1738902
1.1738902
1.1738903
1.1738899
1.1738904
1.1738909
1.17389
1.1738907
1.1738907
1.17389
1.1738908
1.1738903
1.1738898
1.1738902
1.17389
1.17389
1.1738901
1.1738896
1.1738901
1.1738905
1.1738897
1.1738903
1.1738903
1.1738934
1.173893
1.1738932
1.1738931
1.1738929
1.1738929
1.1738928
1.1738928
1.1738929
1.1738928
1.173893
1.1738931
1.1738929
1.1738933
1.1738933
1.173893
1.1738932
1.1738931
1.1738929
1.173893
1.1738929
1.173893
1.1738931
1.1738931
1.1738933
1.1738935
1.1738933
1.1738936
1.1738905
1.1738918
1.1738905
1.1738918
1.1738916
1.17389
1.1738919
1.173891
1.1738908
1.1738908
1.1738911
1.173892
1.1738935
1.1738933
1.1738935
1.1738937
1.1738934
1.1738937
1.1738937
1.1738933
1.1738936
1.1738934
1.1738932
1.1738933
1.1738931
1.1738931
1.1738932
1.173893
1.1738932
1.1738933
1.1738931
1.1738934
1.1738984
1.1738983
1.1738983
1.173898
1.1738981
1.1738981
1.173898
1.1738979
1.1738978
1.1738979
1.1738981
1.173898
1.1738979
1.1738982
1.1738983
1.1738983
1.1738982
1.173898
1.1738981
1.1738982
1.1738981
1.173898
1.173898
1.1738982
1.1738984
1.1738983
1.1738983
1.1738985
1.1738986
1.1738986
1.1738937
1.1738933
1.1738936
1.1738935
1.1738933
1.1738934
1.1738933
1.1738933
1.1738934
1.1738984
1.1738985
1.1738985
1.1738984
1.1738986
1.1738986
1.1738986
1.1738985
1.1738983
1.1738984
1.1738984
1.1738983
1.1738981
1.1738981
1.1738982
1.1738983
1.1738982
1.1738981
1.1738983
1.1739046
1.1739044
1.1739044
1.1739046
1.1739039
1.1739042
1.1739045
1.1739041
1.1739039
1.1739039
1.1739041
1.1739045
1.1739042
1.1739039
1.1739046
1.1739044
1.1739044
1.1739046
1.173904
1.1739043
1.1739046
1.1739042
1.1739041
1.1739041
1.1739043
1.1739047
1.1739044
1.1739042
1.1739048
1.1739046
1.1739046
1.1739048
1.1738986
1.1738984
1.1738985
1.1738985
1.1738984
1.1738983
1.1738983
1.1739043
1.1739044
1.1739047
1.1739045
1.1739042
1.1739048
1.1739046
1.1739046
1.1739047
1.1739042
1.1739044
1.1739047
1.1739043
1.1739041
1.1739041
1.1739042
1.1739046
1.1739043
1.173904
1.1739105
1.1739114
1.1739111
1.173911
1.1739114
1.1739105
1.1739109
1.1739114
1.1739108
1.1739106
1.1739106
1.1739108
1.1739114
1.1739109
1.1739106
1.1739115
1.1739111
1.1739111
1.1739116
1.1739106
1.173911
1.1739115
1.1739109
1.1739108
1.1739108
1.173911
1.1739116
1.173911
1.1739107
1.1739116
1.1739112
1.1739112
1.1739115
1.1739107
1.1739042
1.1739045
1.1739048
1.1739044
1.1739043
1.1739108
1.1739108
1.1739109
1.1739114
1.173911
1.1739106
1.1739114
1.1739111
1.1739111
1.1739114
1.1739106
1.1739109
1.1739114
1.1739108
1.1739107
1.1739107
1.1739108
1.1739114
1.1739109
1.1739179
1.1739175
1.1739185
1.173918
1.173918
1.1739186
1.1739176
1.1739179
1.1739187
1.173918
1.1739179
1.1739179
1.1739181
1.1739188
1.1739181
1.1739177
1.1739188
1.1739182
1.1739182
1.1739188
1.1739177
1.1739182
1.1739188
1.1739182
1.173918
1.173918
1.1739181
1.1739187
1.173918
1.1739177
1.1739186
1.173918
1.1739181
1.1739184
1.1739175
1.1739179
1.1739111
1.1739115
1.173911
1.1739179
1.1739177
1.1739177
1.1739178
1.1739183
1.1739178
1.1739174
1.1739183
1.1739179
1.1739178
1.1739183
1.1739174
1.1739177
1.1739184
1.1739178
1.1739178
1.1739177
1.1739179
1.1739185
1.1739252
1.1739246
1.1739242
1.1739252
1.1739247
1.1739247
1.1739253
1.1739243
1.1739247
1.1739255
1.1739249
1.1739249
1.1739249
1.173925
1.1739257
1.1739249
1.1739245
1.1739256
1.173925
1.173925
1.1739256
1.1739245
1.173925
1.1739257
1.173925
1.1739249
1.1739249
1.1739248
1.1739255
1.1739246
1.1739243
1.1739251
1.1739245
1.1739245
1.1739249
1.173924
1.1739244
1.1739249
1.1739184
1.1739153
1.173915
1.1739146
1.1739146
1.1739149
1.1739153
1.173922
1.1739248
1.1739242
1.1739239
1.1739247
1.1739243
1.1739242
1.1739248
1.173924
1.1739242
1.173925
1.1739245
1.1739245
1.1739245
1.1739246
1.1739303
1.1739308
1.1739303
1.17393
1.1739309
1.1739304
1.1739304
1.173931
1.1739302
1.1739305
1.1739313
1.1739307
1.1739307
1.1739308
1.1739309
1.1739315
1.1739308
1.1739304
1.1739314
1.1739308
1.1739308
1.1739314
1.1739304
1.1739308
1.1739314
1.1739308
1.1739307
1.1739306
1.1739305
1.1739311
1.1739302
1.17393
1.1739307
1.17393
1.1739301
1.1739304
1.1739296
1.1739299
1.1739304
1.1739299
1.1739244
1.1739243
1.1739243
1.1739243
1.1739298
1.1739303
1.1739297
1.1739294
1.1739302
1.1739298
1.1739298
1.1739303
1.1739296
1.1739298
1.1739306
1.1739301
1.1739301
1.1739302
1.1739349
1.173935
1.1739356
1.173935
1.1739348
1.1739356
1.1739353
1.1739352
1.1739358
1.1739351
1.1739353
1.1739361
1.1739356
1.1739356
1.1739356
1.1739357
1.1739363
1.1739356
1.1739353
1.1739362
1.1739357
1.1739357
1.1739362
1.1739353
1.1739356
1.1739362
1.1739356
1.1739355
1.1739354
1.1739353
1.1739358
1.1739349
1.1739347
1.1739353
1.1739348
1.1739348
1.173935
1.1739343
1.1739345
1.173935
1.1739345
1.1739345
1.1739298
1.1739298
1.1739344
1.1739344
1.1739349
1.1739343
1.1739341
1.1739348
1.1739345
1.1739344
1.1739349
1.1739343
1.1739345
1.1739352
1.1739348
1.1739349
1.173939
1.1739391
1.1739392
1.1739397
1.1739392
1.173939
1.1739398
1.1739395
1.1739395
1.17394
1.1739393
1.1739395
1.1739403
1.1739398
1.1739399
1.1739399
1.17394
1.1739405
1.1739399
1.1739396
1.1739404
1.17394
1.17394
1.1739404
1.1739396
1.1739398
1.1739404
1.1739398
1.1739397
1.1739396
1.1739395
1.1739399
1.1739391
1.1739389
1.1739395
1.1739389
1.173939
1.1739391
1.1739385
1.1739386
1.1739391
1.1739386
1.1739386
1.1739385
1.1739385
1.1739389
1.1739384
1.1739383
1.1739388
1.1739386
1.1739386
1.173939
1.1739385
1.1739386
1.1739393
1.1739389
1.1739426
1.1739427
1.1739427
1.1739429
1.1739433
1.1739429
1.1739428
1.1739435
1.1739432
1.1739432
1.1739437
1.1739431
1.1739432
1.173944
1.1739435
1.1739436
1.1739436
1.1739437
1.1739442
1.1739436
1.1739434
1.1739441
1.1739437
1.1739437
1.1739441
1.1739433
1.1739435
1.173944
1.1739435
1.1739434
1.1739433
1.1739432
1.1739436
1.1739427
1.1739426
1.1739431
1.1739426
1.1739427
1.1739428
1.1739422
1.1739423
1.1739427
1.1739423
1.1739422
1.1739422
1.1739422
1.1739425
1.1739421
1.1739419
1.1739425
1.1739423
1.1739423
1.1739426
1.1739421
1.1739422
1.173943
1.1739461
1.1739458
1.1739459
1.1739459
1.1739461
1.1739465
1.1739462
1.173946
1.1739467
1.1739465
1.1739465
1.1739469
1.1739464
1.1739465
1.1739472
1.1739468
1.1739468
1.1739468
1.1739469
1.1739474
1.1739469
1.1739467
1.1739473
1.173947
1.173947
1.1739473
1.1739466
1.1739468
1.1739472
1.1739468
1.1739466
1.1739465
1.1739464
1.1739468
1.173946
1.1739459
1.1739463
1.1739459
1.173946
1.173946
1.1739455
1.1739456
1.1739459
1.1739455
1.1739455
1.1739454
1.1739454
1.1739458
1.1739454
1.1739453
1.1739457
1.1739456
1.1739456
1.1739459
1.1739454
1.1739455
1.1739484
1.173949
1.1739486
1.1739487
1.1739487
1.1739489
1.1739493
1.173949
1.1739489
1.1739496
1.1739494
1.1739494
1.1739498
1.1739493
1.1739494
1.17395
1.1739496
1.1739496
1.1739496
1.1739497
1.1739502
1.1739497
1.1739495
1.1739502
1.1739499
1.1739499
1.1739501
1.1739495
1.1739496
1.17395
1.1739496
1.1739494
1.1739494
1.1739492
1.1739496
1.1739489
1.1739488
1.1739492
1.1739488
1.1739489
1.1739489
1.1739484
1.1739485
1.1739488
1.1739485
1.1739484
1.1739483
1.1739483
1.1739487
1.1739483
1.1739482
1.1739487
1.1739486
1.1739485
1.1739488
1.1739483
1.173951
1.1739509
1.1739514
1.173951
1.1739511
1.1739511
1.1739512
1.1739517
1.1739515
1.1739515
1.1739522
1.1739521
1.1739521
1.1739524
1.1739519
1.173952
1.1739526
1.1739521
1.1739521
1.1739521
1.1739522
1.1739527
1.1739523
1.1739521
1.1739528
1.1739525
1.1739525
1.1739527
1.173952
1.1739522
1.1739526
1.1739521
1.1739519
1.1739518
1.1739518
1.1739522
1.1739516
1.1739515
1.1739519
1.1739515
1.1739516
1.1739517
1.1739511
1.1739512
1.1739515
1.1739511
1.173951
1.173951
1.173951
1.1739514
1.173951
1.1739509
1.1739514
1.1739513
1.1739513
1.1739515
1.1739538
1.1739532
1.173953
1.1739534
1.173953
1.1739532
1.1739532
1.1739533
1.1739537
1.1739536
1.1739536
1.1739544
1.1739543
1.1739543
1.1739547
1.173954
1.1739541
1.1739546
1.1739541
1.173954
1.173954
1.1739542
1.1739548
1.1739544
1.1739542
1.1739549
1.1739547
1.1739547
1.1739549
1.1739542
1.1739543
1.1739547
1.1739541
1.1739539
1.1739538
1.1739538
1.1739544
1.1739538
1.1739537
1.1739542
1.1739538
1.1739539
1.173954
1.1739534
1.1739536
1.1739539
1.1739535
1.1739532
1.1739531
1.1739532
1.1739536
1.1739533
1.1739532
1.1739538
1.1739537
1.1739536
1.1739556
1.1739558
1.1739553
1.1739543
1.1739547
1.1739543
1.1739545
1.1739545
1.1739545
1.1739549
1.1739548
1.1739555
1.1739563
1.173956
1.1739561
1.1739564
1.1739558
1.1739561
1.1739563
1.1739557
1.1739556
1.1739556
1.1739558
1.1739564
1.1739562
1.1739559
1.1739567
1.1739563
1.1739563
1.1739567
1.1739559
1.1739562
1.1739564
1.1739558
1.1739556
1.1739555
1.1739556
1.1739561
1.1739559
1.1739556
1.1739561
1.1739558
1.1739557
1.173956
1.1739554
1.1739554
1.1739556
1.1739554
1.1739552
1.173955
1.1739552
1.1739557
1.1739555
1.1739553
1.1739559
1.1739556
1.1739558
1.1739558
1.1739559
1.1739555
1.1739556
1.1739554
1.1739555
1.1739555
1.1739556
1.1739558
1.1739558
1.1739563
1.1739562
1.1739563
1.1739564
1.173956
1.1739562
1.1739564
1.1739561
1.1739561
1.1739561
1.1739561
1.1739565
1.1739563
1.1739561
1.1739567
1.1739565
1.1739565
1.1739566
1.1739561
1.1739563
1.1739564
1.1739561
1.1739561
1.173956
1.1739559
1.1739562
1.1739559
1.1739558
1.1739562
1.173956
1.173956
1.1739561
1.1739556
1.1739556
1.1739555
1.1739556
1.1739555
1.1739555
1.1739555
1.1739558
1.1739556
1.1739555
1.173956
1.1739553
1.1739552
1.1739546
1.1739533
1.1739516
1.1739499
1.1739485
1.1739487
1.1739502
1.1739518
1.1739535
1.1739547
1.1739555
1.1739555
1.1739547
1.1739535
1.1739514
1.1739476
1.1739444
1.1739414
1.1739411
1.1739439
1.1739473
1.1739513
1.1739534
1.1739545
1.1739553
1.1739553
1.1739555
1.1739555
1.1739541
1.1739541
1.1739548
1.1739542
1.1739542
1.1739543
1.173954
1.1739548
1.1739543
1.1739556
1.1739554
1.1739542
1.1739542
1.1739541
1.1739545
1.1739542
1.1739533
1.1739528
1.173953
1.1739538
1.1739543
1.1739547
1.1739555
1.1739553
1.1739555
1.1739557
1.1739543
1.173955
1.1739543
1.173954
1.1739546
1.1739541
1.1739538
1.1739535
1.1739546
1.1739532
1.1739539
1.1739538
1.1739555
1.1739565
1.1739564
1.1739552
1.1739538
1.1739533
1.1739542
1.1739535
1.1739534
1.1739547
1.1739547
1.1739543
1.1739541
1.1739544
1.173955
1.1739548
1.173955
1.1739534
1.1739534
1.1739544
1.1739537
1.1739554
1.173954
1.1739539
1.1739515
1.1739518
1.1739513
1.1739518
1.1739523
1.1739519
1.1739524
1.17395
1.1739472
1.1739467
1.1739471
1.17395
1.1739495
1.173948
1.1739494
1.1739467
1.1739463
1.1739467
1.1739496
1.1739492
1.1739465
1.1739462
1.1739489
1.1739511
1.1739533
1.1739517
1.1739524
1.1739536
1.1739504
1.1739526
1.1739502
1.173948
1.1739455
1.1739502
1.1739495
1.1739434
1.1739454
1.1739477
1.1739348
1.1739435
1.1739498
1.1739526
1.173954
1.1739517
1.1739502
1.1739481
1.1739512
1.1739517
1.173953
1.1739562
1.173956
1.1739561
1.1739562
1.1739562
1.1739565
1.1739531
1.1739531
1.1739528
1.1739527
1.1739529
1.1739514
1.1739512
1.1739498
1.1739502
1.1739528
1.1739539
1.1739506
1.1739448
1.1739232
1.1739179
1.1739156
1.1739158
1.1739177
1.173923
1.1739288
1.1739339
1.1739402
1.1739404
1.1739339
1.1739288
1.173923
1.1739179
1.1739159
1.1739161
1.1739179
1.173923
1.1739287
1.1739338
1.1739404
1.1739405
1.1739473
1.1739519
1.1739546
1.1739553
1.1739555
1.1739548
1.1739546
1.1739545
1.1739547
1.1739553
1.1739552
1.1739544
1.1739518
1.1739474
1.1739406
1.1739399
1.1739344
1.1739289
1.1739233
1.1739175
1.1739155
1.1739154
1.1739173
1.1739229
1.1739285
1.173934
1.1739397
1.1739402
1.173934
1.1739291
1.1739216
1.1739029
1.1738872
1.1738763
1.1738771
1.1738806
1.1738805
1.1738769
1.1738764
1.1738877
1.1739034
1.173922
1.1739295
1.1739442
1.1739501
1.1739536
1.1739531
1.1739488
1.1739416
1.1739185
1.1739236
1.1739151
1.173895
1.1738761
1.1738801
1.1738826
1.1738924
1.1739003
1.1739098
1.1739148
1.173915
1.1739101
1.1739009
1.1738928
1.173883
1.1738802
1.1738759
1.1738826
1.1738999
1.1739165
1.1739342
1.1739491
1.1739577
1.1739575
1.1739487
1.1739335
1.1739157
1.1738992
1.1738822
1.1738916
1.1738759
1.1738877
1.1739097
1.1739075
1.1739163
1.1739164
1.1739415
1.1739488
1.1739531
1.1739537
1.1739502
1.1739443
1.1739233
1.1739182
1.1739096
1.1739074
1.1738856
1.1738859
1.1738787
1.1739079
1.1738989
1.1739324
1.1739152
1.1739405
1.1739676
1.1739905
1.174004
1.1740043
1.1739912
1.1739686
1.1739417
1.1739163
1.1738923
1.1738761
1.1738999
1.1739339
1.1739686
1.1740063
1.1740368
1.1740553
1.174055
1.1740359
1.174005
1.173967
1.1739894
1.1739471
1.1739556
1.1739127
1.1739126
1.1738786
1.1739079
1.1739471
1.1739556
1.1740028
1.1740026
1.1740542
1.1740354
1.1740746
1.1740985
1.1740989
1.1740757
1.174037
1.1739913
1.1739489
1.1739092
1.1738792
1.1739142
1.1739577
1.1740047
1.1740559
1.1740995
1.1741261
1.1741257
1.1740983
1.1740986
1.1740544
1.174036
1.1739897
1.1739672
1.1739324
1.1738985
1.1738754
1.1738873
1.1738944
1.1739148
1.1739215
1.1739288
1.1739338
1.1739289
1.1739167
1.1739026
1.1738866
1.1738752
1.1738812
1.1738912
1.1739149
1.1739404
1.1739677
1.1740054
1.1740366
1.1740753
1.1740994
1.1741261
1.1741265
1.1740998
1.1740562
1.1740049
1.1739577
1.1739141
1.1738792
1.1739093
1.173949
1.1739916
1.1740376
1.1740764
1.1740997
1.1740561
1.1740558
1.1740044
1.1739907
1.1739482
1.173933
1.1739151
1.1738985
1.1738814
1.1738795
1.1738752
1.1738755
1.1738915
1.1738991
1.1739088
1.1739138
1.1739572
1.1739573
1.1740046
1.1739914
1.1740375
1.1740068
1.1739688
1.1739339
1.1738996
1.1738756
1.1738919
1.173916
1.1739416
1.1739687
1.1739338
1.1739487
1.173909
1.1739138
1.173879
1.1738789
1.1738854
1.1738871
1.1738942
1.1739025
1.1739213
1.1739289
1.1739364
1.1739277
1.1739216
1.1738984
1.1738928
1.1738719
1.1738706
1.1738712
1.1738722
1.1738936
1.1739001
1.1739226
1.1739343
1.1739292
1.1739365
1.1739294
1.1739218
1.1739147
1.1739092
1.1739069
1.1739068
1.173909
1.1739143
1.1739213
1.1739289
1.1739362
1.173929
1.1739168
1.1739028
1.1738943
1.1738875
1.1738859
1.173886
1.1738876
1.1738946
1.1739032
1.1739173
1.1739217
1.1739231
1.1739007
1.1738942
1.1738734
1.173872
1.1738718
1.1738733
1.173894
1.1739003
1.173923
1.1739292
1.1739321
1.1739226
1.1739217
1.1739033
1.1739072
1.1739011
1.1738897
1.1738906
1.1738916
1.1738814
1.1738778
1.1738755
1.1738862
1.1739036
1.1739003
1.1739074
1.1738938
1.1739147
1.1738944
1.1738871
1.1739093
1.1739069
1.1738853
1.1738851
1.1739069
1.1739091
1.1738867
1.1738939
1.1738751
1.1738795
1.1738818
1.1738919
1.1738996
1.1738756
1.1738752
1.1738865
1.1739024
1.1739214
1.1739145
1.173893
1.1738723
1.1738709
1.1738714
1.1738727
1.1738904
1.1738894
1.1739013
1.1738753
1.1738807
1.1738287
1.1738702
1.1738567
1.1738902
1.173899
1.1738899
1.1738561
1.1739088
1.1739033
1.1738371
1.1738917
1.173905
1.173862
1.1738822
1.1739389
1.1739263
1.1739068
1.1739246
1.1739066
1.1738914
1.1738771
1.173836
1.1738817
1.1739029
1.173939
1.1738609
1.1739045
1.173926
1.1739376
1.173909
1.1738803
1.1738914
1.1738909
1.17389
1.1738892
1.1739005
1.1739066
1.1738991
1.1739027
1.1738849
1.1738741
1.1738766
1.1738803
1.1739163
1.1739166
1.1738644
1.1738526
1.1739
1.1739433
1.1739589
1.1739471
1.173984
1.1739714
1.1739502
1.1739464
1.1739165
1.1739464
1.1739502
1.1739876
1.1739889
1.1740192
1.1739677
1.1739436
1.1738545
1.1739096
1.173917
1.1738658
1.1739007
1.1739584
1.173947
1.1739377
1.1739713
1.1739836
1.1739813
1.1740385
1.1740341
1.174016
1.1740537
1.1740162
1.1740194
1.1739678
1.1739817
1.1740392
1.1740347
1.1740772
1.1740853
1.1740602
1.1740847
1.1740767
1.1741035
1.1741133
1.1741102
1.1740804
1.1740326
1.1739869
1.1739729
1.1739505
1.1739249
1.1739018
1.1739232
1.1739705
1.1739229
1.1739502
1.1739818
1.1740131
1.1740056
1.1739486
1.1739606
1.1740262
1.1740273
1.1739804
1.173889
1.1738527
1.1738553
1.1738569
1.1738782
1.1738925
1.1738794
1.1738818
1.1738855
1.1738854
1.1738907
1.1738916
1.1738898
1.1739013
1.1739076
1.1739036
1.1738862
1.1738754
1.1738776
1.1738813
1.1739168
1.1738657
1.1739004
1.173854
1.1739094
1.1739372
1.1739469
1.1739582
1.173943
1.1739382
1.1738614
1.1739045
1.1738912
1.1738365
1.1738815
1.1739024
1.1739059
1.1739256
1.1739492
1.1739706
1.1739833
1.1739811
1.1739671
1.1740183
1.1740381
1.1740338
1.1740151
1.1739863
1.1739876
1.1739455
1.1739155
1.1739234
1.1739486
1.173945
1.1739661
1.1740178
1.1740591
1.1740843
1.1740763
1.1740526
1.174076
1.1741031
1.1741129
1.174084
1.1740374
1.1740329
1.1740145
1.1739695
1.1739818
1.1739797
1.1739572
1.1739417
1.1739377
1.1739019
1.1739081
1.1738562
1.1738896
1.1738803
1.173875
1.1738285
1.1738698
1.1738557
1.1738892
1.1738981
1.1739053
1.1738904
1.1738763
1.1738354
1.1738809
1.1738598
1.173903
1.1739243
1.1739355
1.1739074
1.1738792
1.1738513
1.1738987
1.173863
1.1739147
1.1739449
1.1739448
1.1739819
1.1740331
1.1740762
1.1741034
1.1741038
1.1740775
1.1740349
1.1739841
1.173947
1.1739585
1.1738638
1.1738999
1.1738526
1.1739091
1.1739376
1.1739439
1.1739388
1.1738598
1.173904
1.1739259
1.1739061
1.173891
1.173835
1.173881
1.173903
1.1739166
1.1739466
1.1739682
1.1739818
1.1740394
1.1740199
1.1740166
1.1739715
1.1739502
1.1739879
1.1739894
1.1739466
1.17395
1.1739242
1.1739058
1.1739159
1.1738992
1.1738817
1.1738889
1.1738544
1.1738689
1.1739083
1.173898
1.1738889
1.1738738
1.1738798
1.1738266
1.173855
1.173835
1.1739026
1.1738811
1.1739391
1.1739255
1.1739036
1.1738758
1.1738906
1.1738601
1.1738523
1.1739437
1.1739681
1.1740199
1.1740609
1.1740855
1.1741137
1.1740856
1.1740774
1.1740543
1.1740165
1.1740348
1.1740393
1.1739818
1.1739837
1.1739712
1.173937
1.1739463
1.1739588
1.1738999
1.1738639
1.1738793
1.1739084
1.1739157
1.1739156
1.1739461
1.1739834
1.1740345
1.174077
1.1740852
1.1741132
1.1740843
1.1740598
1.1740532
1.174015
1.1740183
1.1740375
1.1739798
1.1739663
1.1739695
1.1739485
1.1739865
1.1740156
1.174019
1.174039
1.1739816
1.1739674
1.1739705
1.173949
1.1739457
1.1739881
1.1739451
1.1739155
1.1739229
1.1739047
1.1739241
1.1739355
1.1739423
1.1739568
1.1738986
1.1738624
1.1738791
1.1739144
1.1739074
1.1738513
1.1738586
1.1739376
1.1738802
1.1739021
1.1738343
1.1738758
1.1739026
1.1738899
1.173888
1.173897
1.1739048
1.1739247
1.1739364
1.1739431
1.1739586
1.1738996
1.1738638
1.1738793
1.173908
1.173852
1.1738597
1.1739384
1.1738804
1.1739018
1.1738345
1.1738757
1.1739032
1.17389
1.1738882
1.1738734
1.1738544
1.1739075
1.1738683
1.1738538
1.1738735
1.1738794
1.1738264
1.1738846
1.1738918
1.1738776
1.1738803
1.1738832
1.1738834
1.1738807
1.1738787
1.1738927
1.1738795
1.1738818
1.1738553
1.1738525
1.1738887
1.1738694
1.1738624
1.173871
1.1738813
1.1739287
1.1739435
1.1739497
1.1739513
1.1739537
1.173952
1.173953
1.1739505
1.1739518
1.173952
1.1739515
1.1739519
1.1739504
1.1739482
1.1739458
1.1739481
1.1739456
1.1739278
1.1739276
1.1739285
1.1739351
1.1739423
1.173948
1.1739425
1.1739438
1.1739475
1.1739519
1.1739542
1.1739536
1.1739505
1.1739482
1.1739458
1.1739438
1.1739462
1.1739495
1.1739426
1.1739426
1.1739496
1.1739538
1.1739537
1.1739524
1.1739524
1.1739498
1.1739512
1.1739516
1.1739504
1.1739528
1.173954
1.1739506
1.1739448
1.1739475
1.173952
1.1739544
1.1739547
1.1739536
1.1739514
1.1739472
1.1739441
1.1739413
1.1739413
1.1739442
1.1739473
1.1739515
1.1739537
1.173955
1.1739559
1.1739557
1.173955
1.1739537
1.1739519
1.1739501
1.1739488
1.1739487
1.1739501
1.1739518
1.1739536
1.1739549
1.1739555
1.1739556
1.1739558
1.1739556
1.1739545
1.1739543
1.1739547
1.1739551
1.1739545
1.1739528
1.1739521
1.1739515
1.1739519
1.1739496
1.1739493
1.1739489
1.1739488
1.1739491
1.1739493
1.1739468
1.1739439
1.1739407
1.1739404
1.1739404
1.1739409
1.1739442
1.1739437
1.1739442
1.1739408
1.1739404
1.1739394
1.1739404
1.1739437
1.1739434
1.1739438
1.1739405
1.1739403
1.1739436
1.1739433
1.17394
1.1739393
1.1739396
1.1739402
1.1739382
1.173941
1.1739425
1.1739453
1.1739435
1.173946
1.173949
1.1739479
1.1739454
1.1739449
1.1739474
1.1739415
1.1739436
1.1739414
1.1739396
1.1739377
1.1739423
1.1739427
1.1739394
1.173937
1.1739356
1.1739274
1.1739323
1.1739358
1.1739386
1.1739394
1.1739425
1.1739438
1.1739467
1.1739494
1.173948
1.1739453
1.1739436
1.1739464
1.1739491
1.173946
1.1739436
1.173948