/*--------------------------------*- C++ -*----------------------------------*\
  =========                 |
  \\      /  F ield         | OpenFOAM: The Open Source CFD Toolbox
   \\    /   O peration     | Website:  https://openfoam.org
    \\  /    A nd           | Version:  7
     \\/     M anipulation  |
\*---------------------------------------------------------------------------*/
FoamFile
{
    version     2.0;
    format      ascii;
    class       volVectorField;
    location    "450";
    object      U;
}
// * * * * * * * * * * * * * * * * * * * * * * * * * * * * * * * * * * * * * //

dimensions      [0 1 -1 0 0 0 0];

internalField   nonuniform List<vector> 
24866
(
(120.00024 -0.00061620523 -0.00074733051)
(120.00037 -0.00038913697 -0.00056439298)
(120.00035 -0.00045139266 -0.00047029223)
(120.00013 -0.00023991322 -0.0002415698)
(120.00003 -6.7069784e-05 -7.0917097e-05)
(120.00003 -6.1999244e-05 -8.5198842e-05)
(120.00002 -4.9418181e-05 -9.6818522e-05)
(120.00003 -4.9321834e-05 -9.0638782e-05)
(120.00003 -2.9976445e-05 -9.7737391e-05)
(120.00003 -2.0850111e-05 -0.00011042334)
(120.00003 -6.9052701e-06 -0.00010912659)
(120.00003 5.5600336e-06 -0.00010908459)
(120.00003 1.9694084e-05 -0.00011030095)
(120.00003 2.9287539e-05 -9.7564432e-05)
(120.00003 4.9032445e-05 -9.074277e-05)
(120.00002 4.9598116e-05 -9.5781859e-05)
(120.00003 6.3720797e-05 -8.4508263e-05)
(120.00003 6.8658848e-05 -6.8664656e-05)
(120.00003 7.4237565e-05 -6.7084534e-05)
(120.00003 9.2510285e-05 -5.7697806e-05)
(120.00003 0.00011148156 -5.4826454e-05)
(120.00004 0.00012493931 -4.1210433e-05)
(120.00003 0.00011184322 -2.7263129e-05)
(120.00005 9.8398738e-05 -4.3275443e-05)
(120.00003 0.00012474323 -1.2700066e-05)
(120.00003 0.00013467324 1.298824e-06)
(120.00003 0.00011647177 1.6016436e-05)
(120.00005 9.0930419e-05 4.6030098e-05)
(120.00005 0.00010605247 2.8197358e-05)
(120.00003 0.00010750845 5.5428586e-05)
(120.00003 8.6388399e-05 5.6006971e-05)
(120.00003 7.1634701e-05 6.7224829e-05)
(120.00003 6.8896138e-05 7.0332033e-05)
(120.00003 5.7779461e-05 8.5143791e-05)
(120.00003 5.7294952e-05 0.00010603746)
(120.00005 2.9696509e-05 0.00010479057)
(120.00005 4.7756557e-05 9.0184538e-05)
(120.00003 1.7856807e-05 0.00011547959)
(120.00003 3.1197772e-06 0.00013389971)
(120.00003 -1.0701232e-05 0.00012405718)
(120.00005 -4.1746096e-05 9.7946671e-05)
(120.00003 -2.6364632e-05 0.00011143102)
(120.00004 -4.0312513e-05 0.000124357)
(120.00003 -5.4039363e-05 0.00011089055)
(120.00003 -5.7127987e-05 9.1801011e-05)
(120.00003 -6.6737954e-05 7.3710911e-05)
(120.00003 -6.8249769e-05 6.7845019e-05)
(120.00003 -8.429494e-05 6.2952148e-05)
(120.00002 -9.5445998e-05 4.8636879e-05)
(120.00003 -9.0671063e-05 4.8202113e-05)
(120.00003 -9.7064974e-05 2.8274064e-05)
(120.00003 -0.00010996753 1.8500279e-05)
(120.00003 -0.00010870253 4.4230297e-06)
(120.00003 -0.0001085552 -8.1810572e-06)
(120.00003 -0.00010946555 -2.2279128e-05)
(120.00003 -9.7106402e-05 -3.1500628e-05)
(120.00003 -8.976703e-05 -5.0817422e-05)
(120.00002 -9.5720804e-05 -5.1020117e-05)
(120.00003 -8.380028e-05 -6.3442291e-05)
(120.00003 -6.9874199e-05 -6.8783275e-05)
(120.00003 -0.00012463336 -9.8236515e-05)
(120.00001 -0.00012603592 -0.00012740571)
(120.00003 -9.693968e-05 -0.00012602014)
(120.00003 -0.00010063098 -0.00012000734)
(120.00002 -0.00010415191 -0.00016140829)
(120.00002 -7.6883643e-05 -0.00017910672)
(120.00002 -6.5546832e-05 -0.00016292886)
(120.00003 -5.5737437e-05 -0.00014719259)
(120.00001 -4.181658e-05 -0.00018579034)
(120.00001 -1.4916607e-05 -0.00019669387)
(120.00001 1.3507355e-05 -0.00019667757)
(120.00001 4.0709865e-05 -0.00018572828)
(120.00002 5.5132294e-05 -0.0001470506)
(120.00002 6.5289083e-05 -0.00016284647)
(120.00002 7.6627812e-05 -0.00017880203)
(120.00002 0.00010494792 -0.00016066783)
(120.00003 0.00010231157 -0.00011932291)
(120.00003 9.8384195e-05 -0.00012413472)
(120.00001 0.00012895099 -0.00012559015)
(120.00003 0.00012918282 -9.8761325e-05)
(120.00004 0.00012749739 -0.00010310806)
(120.00001 0.000178086 -0.00010963464)
(120.00002 0.00020841996 -9.0308235e-05)
(120.00002 0.00021522734 -6.6870106e-05)
(120.00002 0.00021316312 -1.4169765e-05)
(120.00001 0.00019303315 -2.8607888e-05)
(120.00003 0.00019203822 -1.3947963e-05)
(120 0.00019919485 9.5068727e-06)
(120.00002 0.0001767154 3.1755953e-05)
(120.00001 0.0001776587 4.8835035e-05)
(120.00002 0.00019651672 4.4471109e-05)
(120.00001 0.00022397984 1.5054591e-05)
(120.00001 0.00025740848 2.366921e-05)
(120.00001 0.0002573014 -3.2660981e-05)
(120.00001 0.00024046788 -8.6524425e-05)
(120.00001 0.00021626449 -0.00012456968)
(120.00001 0.00017309101 -0.00013481615)
(120.00001 0.00017953999 -0.00017828222)
(120.00001 0.00013574009 -0.00016869404)
(120.00001 0.00012029334 -0.00021554359)
(120.00001 0.00015454177 -0.00021712073)
(120 0.00018943637 -0.00019105821)
(120.00001 0.00021837115 -0.00015655451)
(120.00001 0.00024715783 -0.00010966339)
(120.00001 0.00026313306 -4.2077815e-05)
(120 0.00026272951 3.3373268e-05)
(120.00001 0.00024560814 0.00010276112)
(120.00001 0.00024143737 7.7001127e-05)
(120.00001 0.00021080443 0.00011849199)
(120.00002 0.00018773449 8.0514731e-05)
(120.00002 0.00017093156 0.00010556607)
(120.00003 0.00012024307 9.8160521e-05)
(120.00003 0.00012537363 9.6840534e-05)
(120.00001 0.00012593973 0.00012442197)
(120.00001 0.00016970671 0.00013193503)
(120.00001 0.00017790256 0.00017620783)
(120.00001 0.00021611084 0.0001515891)
(120 0.00018844128 0.00018663382)
(120 0.00021584342 0.00012682813)
(119.99999 0.00023138213 4.2470317e-05)
(119.99999 0.00023183527 -5.0712449e-05)
(120 0.0002163627 -0.00013319876)
(119.99998 0.00014887836 -0.00015212523)
(120 0.00012990537 -0.0002181404)
(120.00001 0.00010635315 -0.00024863178)
(120.00001 8.1042844e-05 -0.00024778498)
(120.00001 5.767365e-05 -0.00021508068)
(120.00002 2.2389607e-05 -0.00023513335)
(120.00001 2.8657715e-05 -0.00026618093)
(120 3.7301305e-05 -0.00026611503)
(119.99999 4.5895786e-05 -0.0002337404)
(119.99997 5.2675287e-05 -0.00016312695)
(119.99996 5.6570455e-05 -6.1330582e-05)
(119.99997 0.00015980283 -5.7367303e-05)
(119.99997 0.00015942958 4.983084e-05)
(119.99998 0.00014809917 0.0001462089)
(120 0.00012867284 0.00021400618)
(120.00001 0.00010455027 0.00024388996)
(120.00001 0.00015336488 0.00021439877)
(120.00001 0.00012021683 0.0002092418)
(120.00001 0.0001336451 0.0001680778)
(120.00002 0.00010740699 0.00016955156)
(120.00003 9.9866645e-05 0.00011898732)
(120.00003 9.814234e-05 0.0001238393)
(120.00003 0.00018810013 0.00025543624)
(120.00003 0.00021063005 0.0002398103)
(120.00007 0.0002968305 0.00035915967)
(120.00014 0.00019178387 0.00028999992)
(120.00012 0.00024098071 0.00023796517)
(120.00012 0.00024220004 0.00023625477)
(120.00014 0.000293691 0.00018629856)
(120.00012 0.00032964405 0.00014829672)
(120.00012 0.00038778532 0.00016195764)
(120.00004 0.00022845131 7.0015553e-05)
(120.00005 0.00019481029 8.9437007e-05)
(120.00012 0.00039914415 0.00011962393)
(120.00012 0.0003900945 7.3079768e-05)
(120.00012 0.00040036384 6.6870091e-06)
(120.00013 0.00041612031 -5.7481413e-05)
(120.00011 0.00043877723 -0.00011924556)
(120.00015 0.00052730253 -0.00013269534)
(120.00014 0.00044575678 -0.00019584955)
(120.00013 0.00034462685 -0.00014742975)
(120.00015 0.00030718577 -0.00019216156)
(120.00013 0.0002512427 -0.00023856182)
(120.00013 0.00024660452 -0.00023569869)
(120.00014 0.00020830212 -0.00028387884)
(120.00012 0.00015913858 -0.00029654805)
(120.00014 0.00017058325 -0.00031704258)
(120.00014 9.2200378e-05 -0.0003462198)
(120.00013 6.7477248e-05 -0.0003574846)
(120.00014 1.9442648e-05 -0.00037591993)
(120.00014 -2.350958e-05 -0.00037602996)
(120.00013 -7.0786867e-05 -0.00035759937)
(120.00014 -9.4384568e-05 -0.00034679386)
(120.00014 -0.00017166937 -0.00031736188)
(120.00012 -0.00015812472 -0.00029813899)
(120.00014 -0.00020389349 -0.00028677918)
(120.00007 -0.00030163436 -0.00036072504)
(120.00007 -0.00027628291 -0.00034156407)
(120.00003 -0.00018728801 -0.00026128024)
(120.00003 -0.00021230931 -0.00024270624)
(120.00007 -0.00036303987 -0.00038940309)
(120.00013 -0.00035618228 -0.00042901625)
(120.00007 -0.0003009703 -0.00039793317)
(120.00005 -0.00036469652 -0.00036856295)
(120.00001 -0.00052465371 -0.00043011845)
(120.00001 -0.00016825171 -0.00013607956)
(120.00001 -0.00017693278 -0.0001785578)
(120.00001 -0.00013447086 -0.00016973556)
(120.00001 -0.00012032154 -0.00021602599)
(120.00001 -8.1827345e-05 -0.00024797611)
(120.00001 -5.8614219e-05 -0.00021518805)
(120.00002 -2.375378e-05 -0.00023513468)
(120.00001 -2.9952016e-05 -0.00026621779)
(120 -3.8571161e-05 -0.00026612412)
(119.99999 -4.7321824e-05 -0.00023366324)
(119.99997 -5.4509622e-05 -0.00016293772)
(119.99996 -5.9001492e-05 -6.104802e-05)
(119.99996 -5.9398174e-05 5.450133e-05)
(119.99996 5.6186944e-05 5.4209904e-05)
(119.99997 5.1712889e-05 0.00015747191)
(119.99999 4.4285196e-05 0.00022951168)
(120 3.5127358e-05 0.00026101159)
(120.00001 2.5338727e-05 0.00025589494)
(120.00001 7.8747085e-05 0.00023990665)
(120.00002 4.6200342e-05 0.00019512238)
(120.00002 8.225655e-05 0.00018640519)
(120.00005 0.00022932137 0.00053949137)
(120.00011 0.00018375836 0.00052229989)
(120.00005 0.00010225046 0.00033584946)
(120.00004 7.3357853e-05 0.00022608918)
(120.00012 0.00016743268 0.00038411921)
(120.00012 0.00015341026 0.00032561661)
(120.0003 0.00031961395 0.00064576357)
(120.00035 0.00037956584 0.00056830214)
(120.00033 0.000454391 0.00046396862)
(120.00033 0.00047133613 0.0004456222)
(120.00035 0.00057551504 0.00037028533)
(120.0003 0.00065293531 0.00031068701)
(120.0003 0.00067194061 0.00030381225)
(120.00031 0.00072973031 0.00020099686)
(120.00031 0.00073415484 0.000133783)
(120.0003 0.00076923316 2.0811495e-05)
(120.0003 0.00077189693 -9.1166962e-05)
(120.00028 0.00078840786 -0.00019599095)
(120.00032 0.00084816533 -0.0002380858)
(120.00032 0.0007413944 -0.00035116013)
(120.00031 0.00068198155 -0.00031972695)
(120.00036 0.00059514048 -0.00037542952)
(120.00034 0.00048337107 -0.00044947743)
(120.00034 0.00046273952 -0.00046430013)
(120.00036 0.00039579737 -0.0005605117)
(120.00032 0.00032796171 -0.00061729329)
(120.00035 0.00030830932 -0.00061413021)
(120.00036 0.00018609289 -0.00068223391)
(120.00034 0.00013484586 -0.00072286412)
(120.00035 3.6051678e-05 -0.00076383427)
(120.00035 -4.3101974e-05 -0.00076381153)
(120.00034 -0.00014097426 -0.00072282524)
(120.00036 -0.00019040041 -0.00068250743)
(120.00035 -0.00031027643 -0.0006147619)
(120.00033 -0.00032686877 -0.00061914358)
(120.00065 -0.00059571174 -0.0011087964)
(120.00072 -0.00070897552 -0.0010364457)
(120.00069 -0.00083317992 -0.00086486021)
(120.00069 -0.00085461345 -0.00084543781)
(120.00072 -0.0010257872 -0.00072122356)
(120.00037 -0.0005577041 -0.0003974058)
(120.00014 -0.00028321272 -0.00020872585)
(120.00012 -0.00029440781 -0.00016253084)
(120.00014 -0.0003144664 -0.00017608244)
(120.00014 -0.00034464211 -9.9064655e-05)
(120.00013 -0.00035514583 -7.5129639e-05)
(120.00014 -0.00037417491 -2.7613464e-05)
(120.00014 -0.00037442429 1.5657746e-05)
(120.00013 -0.00035611194 6.3827752e-05)
(120.00013 -0.0003448687 8.8948362e-05)
(120.00013 -0.00031597012 0.00016738175)
(120.00011 -0.00029555306 0.00015631953)
(120.00014 -0.0002826235 0.00020563341)
(120.00013 -0.0002344178 0.00024406242)
(120.00013 -0.00023698133 0.00024920359)
(120.00015 -0.00019029717 0.00030495269)
(120.00012 -0.00014536952 0.00034269276)
(120.00014 -0.0001923734 0.00044327906)
(120.00006 -7.8138332e-05 0.00026122877)
(120.00002 -6.4223659e-05 0.0002680806)
(120.00004 -7.2883885e-05 0.00022846835)
(120.00011 -0.00011515327 0.00043623677)
(120.00013 -5.3214428e-05 0.00041308172)
(120.00011 1.1730723e-05 0.00039787188)
(120.00012 7.8272212e-05 0.00038769655)
(120.00012 0.00012502839 0.00039616982)
(120.00005 9.2877296e-05 0.00019304989)
(120.00004 0.00010629608 0.00030592392)
(120.00009 0.0001516864 0.00048436416)
(120.00011 0.00020866583 0.00050066669)
(120.00015 0.00019899659 0.0005916836)
(120.0001 0.00014082898 0.00052662477)
(120.0001 0.00010854829 0.00055956232)
(120.00009 8.7940569e-05 0.00061767542)
(120.00003 4.9209274e-05 0.00042184825)
(120.00001 5.0625723e-05 0.00017633602)
(120.00002 3.394283e-05 0.00017536335)
(120 1.1195145e-05 0.00019808405)
(120.00001 1.6696959e-05 0.00022268058)
(120.00002 -1.2781376e-05 0.0002121172)
(120.00001 -3.1101883e-05 0.00025584262)
(120.00001 -4.0419984e-05 0.00026144348)
(119.99999 -4.8979714e-05 0.00022994633)
(119.99997 -5.5549132e-05 0.00015778685)
(119.99998 -0.00015041524 0.00014684728)
(119.99997 -0.00016130119 5.0566501e-05)
(119.99997 -0.00016099295 -5.6617222e-05)
(119.99998 -0.00014965455 -0.00015167162)
(120 -0.00013042204 -0.00021800022)
(120.00001 -0.00010694584 -0.00024874243)
(120.00001 -0.00015413799 -0.0002174648)
(120 -0.00018898589 -0.00019083618)
(119.99999 -0.00021614554 -0.00013243177)
(119.99999 -0.00023188338 -4.9401383e-05)
(119.99999 -0.00023207715 4.3832065e-05)
(119.99999 -0.00021658864 0.00012794095)
(120 -0.00018961114 0.00018763758)
(120 -0.00013159329 0.00021448685)
(120.00001 -0.00010813259 0.00024549239)
(120.00001 -8.5073006e-05 0.00023907321)
(120.00002 -6.5467669e-05 0.00021406836)
(120.00002 -8.9071014e-05 0.00020721242)
(120.00001 -0.00012328878 0.00021491957)
(120.00001 -0.00015519187 0.00021677649)
(120.00001 -0.00017712437 0.00017806808)
(120.00001 -0.00021586763 0.00015287838)
(120.00001 -0.00024725695 0.00010454635)
(120 -0.00026463962 3.5389002e-05)
(120 -0.00026453983 -4.0513433e-05)
(120.00001 -0.00024709273 -0.00010883036)
(120.00001 -0.00021579837 -0.00015592458)
(120.00001 -0.00021459092 -0.00012200599)
(120.00001 -0.0002465484 -8.3554179e-05)
(120.00001 -0.00026482798 -3.1680383e-05)
(120.00001 -0.00026488713 2.6972716e-05)
(120.00001 -0.00024659603 7.945549e-05)
(120.00001 -0.00021447785 0.00011880431)
(120.00001 -0.00016778776 0.00013443561)
(120.00001 -0.00012482409 0.00012792278)
(120.00001 -0.0001338056 0.00017188801)
(120.00001 -0.00010859752 0.00017696319)
(120.00004 -0.0001023106 0.00012655279)
(120.00003 -9.8112439e-05 0.00012827063)
(120.00003 -0.00018672709 0.00026269751)
(120.00006 -0.00027417192 0.00034400244)
(120.00007 -0.0003022579 0.00037819862)
(120.00003 -0.0002144315 0.00025272957)
(120.00006 -0.00036567215 0.00040790118)
(120.00007 -0.00030042185 0.0003973625)
(120.00012 -0.00035772088 0.00044009898)
(120.00023 -0.00061348909 0.00076182777)
(120.00036 -0.00037210605 0.00059118237)
(120.00031 -0.00031574934 0.00067816435)
(120.00032 -0.00034547928 0.00073736202)
(120.00032 -0.00023216375 0.00084415354)
(120.00015 -0.00012893464 0.00052456287)
(120.00008 -0.00022350264 0.00063889109)
(120.00014 -0.00016902424 0.00057184488)
(120.00013 -0.00013595257 0.00058736182)
(120.00005 -7.6614493e-05 0.00041764896)
(120.00003 -7.5429021e-05 0.00038268724)
(120.0001 -9.0910546e-05 0.00059476532)
(120.00015 -0.00014917587 0.00065776339)
(120.00008 -0.00011725972 0.00054744571)
(120.00019 -0.00024374045 0.00108092)
(120.00028 -0.00018917258 0.00078423805)
(120.0003 -8.3634217e-05 0.00076759647)
(120.0003 2.9303248e-05 0.00076507052)
(120.0003 0.00014256387 0.00072940053)
(120.00031 0.00020990181 0.00072385434)
(120.0003 0.00031316381 0.00066600542)
(120.0006 0.00055543899 0.0011308314)
(120.0006 0.00058820893 0.0011287602)
(120.00068 0.00070340074 0.0010354281)
(120.00065 0.0008361516 0.00085221217)
(120.00065 0.00086358751 0.00082254298)
(120.00068 0.0010471754 0.00068964952)
(120.0006 0.0011397435 0.00057470091)
(120.00061 0.0011397637 0.00054131923)
(120.00064 0.001285081 0.00034193242)
(120.00061 0.0012971362 0.00023040582)
(120.0006 0.0013442149 4.8883086e-05)
(120.0006 0.0013464449 -0.00012655381)
(120.00059 0.0013436581 -0.0003078206)
(120.00063 0.0013696847 -0.00039614561)
(120.00061 0.0011913538 -0.00058607186)
(120.00061 0.0011649453 -0.00059726832)
(120.00069 0.0010670662 -0.00070597178)
(120.00067 0.0008761204 -0.00083453347)
(120.00068 0.0008460543 -0.00085993557)
(120.00071 0.00071554259 -0.001032029)
(120.00064 0.0005948991 -0.0011069827)
(120.00067 0.00055467183 -0.0010926674)
(120.00069 0.00033950168 -0.0012390279)
(120.00066 0.00024081285 -0.0012740164)
(120.00064 7.0239603e-05 -0.0013175637)
(120.00065 -8.1762133e-05 -0.0013180685)
(120.00066 -0.00025103282 -0.0012744504)
(120.0007 -0.00034713538 -0.0012387934)
(120.00067 -0.0005593346 -0.0010933303)
(120.00109 -0.00090463266 -0.0017666555)
(120.00107 -0.00097256964 -0.0017754618)
(120.00117 -0.001166136 -0.0016861755)
(120.00113 -0.001364363 -0.0014183364)
(120.00113 -0.0014039763 -0.0013812108)
(120.00117 -0.0016711406 -0.0011828845)
(120.00106 -0.0017617979 -0.00098911201)
(120.00065 -0.0010989391 -0.00060771122)
(120.00032 -0.00061266258 -0.00033478809)
(120.00035 -0.00060977399 -0.00031841725)
(120.00036 -0.0006779234 -0.00019840486)
(120.00034 -0.00071875463 -0.00014873035)
(120.00035 -0.00076030029 -5.0691407e-05)
(120.00035 -0.00076045701 2.8922996e-05)
(120.00034 -0.00071983244 0.00012827268)
(120.00035 -0.00067962882 0.00018018004)
(120.00035 -0.00061192279 0.00030245748)
(120.00032 -0.00061522118 0.00032287425)
(120.00036 -0.00055822509 0.00039101109)
(120.00034 -0.0004618998 0.00045829123)
(120.00033 -0.00044669568 0.00047958546)
(120.00066 -0.00082951339 0.00086957061)
(120.00068 -0.00070031343 0.0010603082)
(120.0006 -0.00059062462 0.0011585422)
(120.0006 -0.00057749858 0.0011851086)
(120.00062 -0.00038707658 0.0013632348)
(120.00058 -0.0002973414 0.0013368455)
(120.00059 -0.00011498044 0.0013394963)
(120.0006 6.146373e-05 0.001337154)
(120.0006 0.00024356007 0.0012894211)
(120.00063 0.00035560389 0.0012757222)
(120.00104 0.00057052137 0.0020333775)
(120.001 0.00089367271 0.0017906327)
(120.00098 0.00096386706 0.0017864373)
(120.0011 0.0011611401 0.001678195)
(120.00106 0.0013664099 0.0013972943)
(120.00107 0.0014134354 0.0013474274)
(120.0011 0.0016950898 0.0011422375)
(120.00099 0.0018018721 0.00094520055)
(120.00101 0.0018034054 0.00087411124)
(120.00104 0.002046952 0.0005515177)
(120.00099 0.0020649033 0.00037727069)
(120.00097 0.0021242703 9.1828007e-05)
(120.00097 0.0021268916 -0.00017821127)
(120.00097 0.0020997134 -0.00046417946)
(120.00103 0.0021053826 -0.00061908019)
(120.00101 0.0018399149 -0.00092918199)
(120.001 0.0018205855 -0.00098634797)
(120.00112 0.0017096443 -0.0011740622)
(120.0011 0.001423121 -0.0013726763)
(120.00111 0.0013750612 -0.0014153639)
(120.00115 0.0011696771 -0.0016829173)
(120.00105 0.00096766716 -0.0017745639)
(120.00108 0.00089521772 -0.0017666165)
(120.00111 0.00056329178 -0.0020092995)
(120.00105 0.00039759991 -0.0020382432)
(120.00104 0.00011984886 -0.0020931158)
(120.00104 -0.00013739169 -0.002093267)
(120.00106 -0.0004133949 -0.0020381595)
(120.00112 -0.0005760731 -0.0020080758)
(120.0017 -0.0008970101 -0.0030552553)
(120.00167 -0.0013734496 -0.0026941704)
(120.00163 -0.001491303 -0.0026851496)
(120.00178 -0.0017946112 -0.0025642961)
(120.00173 -0.0020860768 -0.0021768573)
(120.00173 -0.0021577942 -0.0021080249)
(120.00178 -0.0025444165 -0.0018164594)
(120.00162 -0.0026671065 -0.0015129838)
(120.00166 -0.0026788081 -0.0013961994)
(120.0017 -0.0030395671 -0.00091977575)
(120.00112 -0.0019965159 -0.00059331114)
(120.00069 -0.001230975 -0.0003594832)
(120.00065 -0.0012674023 -0.0002628269)
(120.00064 -0.0013116794 -9.3101771e-05)
(120.00064 -0.0013125191 5.9463841e-05)
(120.00065 -0.0012693943 0.0002305446)
(120.00068 -0.0012345564 0.00032994776)
(120.00066 -0.0010887241 0.00054513941)
(120.00064 -0.0011030496 0.00058658495)
(120.0007 -0.001027839 0.00070766882)
(120.00067 -0.0008555606 0.00083850562)
(120.00109 -0.0014084247 0.0013636664)
(120.00108 -0.0013647864 0.0014130803)
(120.00111 -0.0011654333 0.0016993863)
(120.00099 -0.00097646626 0.0018109689)
(120.001 -0.0009170257 0.0018307154)
(120.00102 -0.00060628651 0.002095749)
(120.00096 -0.00044952126 0.0020896407)
(120.00096 -0.00016212058 0.0021166031)
(120.00096 0.00010916824 0.0021136958)
(120.00098 0.00039543746 0.0020535211)
(120.0015 0.00061278924 0.0030918594)
(120.00158 0.00087978347 0.0030648787)
(120.00155 0.0013568853 0.0027027152)
(120.00151 0.0014805123 0.0026828039)
(120.00168 0.0017887869 0.002545696)
(120.00163 0.002087105 0.0021450345)
(120.00163 0.0021668403 0.0020619162)
(120.00168 0.0025685042 0.0017638095)
(120.00152 0.00270353 0.0014558361)
(120.00156 0.0027201969 0.0013310652)
(120.0016 0.0030834224 0.00085466996)
(120.00151 0.003107655 0.00058884435)
(120.00148 0.0031850432 0.0001541579)
(120.00148 0.0031877363 -0.00025415349)
(120.0015 0.0031328133 -0.00068813027)
(120.00159 0.0031214623 -0.00093856855)
(120.00157 0.0027440849 -0.0014037603)
(120.00154 0.0027146971 -0.0015162398)
(120.00171 0.0025761522 -0.0018131574)
(120.00168 0.0021715176 -0.0021036736)
(120.00169 0.0020911758 -0.0021765391)
(120.00175 0.0017923228 -0.0025636903)
(120.0016 0.0014800962 -0.0026862281)
(120.00165 0.0013570475 -0.0026956278)
(120.00169 0.00087681158 -0.003058075)
(120.0016 0.0006167042 -0.0030869488)
(120.00157 0.00018780721 -0.0031611755)
(120.00158 -0.0002133344 -0.0031610123)
(120.00161 -0.00064028768 -0.0030861426)
(120.00238 -0.00095111627 -0.0045065985)
(120.00251 -0.0013352701 -0.004466217)
(120.00247 -0.0020059282 -0.0039498393)
(120.00241 -0.0021930024 -0.0039103418)
(120.00263 -0.0026397715 -0.0037393153)
(120.00256 -0.0030534196 -0.0031966046)
(120.00256 -0.0031722761 -0.0030810662)
(120.00262 -0.0037140026 -0.0026673288)
(120.00241 -0.0038872777 -0.0022204146)
(120.00247 -0.0039298468 -0.0020348111)
(120.0025 -0.0044456519 -0.0013642985)
(120.00237 -0.0044889267 -0.00097962012)
(120.0016 -0.00307279 -0.00066248849)
(120.00105 -0.0020282643 -0.0004300551)
(120.00103 -0.0020842255 -0.00015340413)
(120.00103 -0.002085054 0.0001044801)
(120.00105 -0.0020307346 0.00038262439)
(120.0011 -0.0020023537 0.00054930544)
(120.00107 -0.0017605319 0.00088126251)
(120.00104 -0.0017682563 0.00095539163)
(120.00114 -0.0016762314 0.0011578907)
(120.00173 -0.0025538755 0.0017757611)
(120.00167 -0.0021664012 0.0020751065)
(120.00166 -0.0020923046 0.0021571771)
(120.00169 -0.0018009158 0.002561605)
(120.00152 -0.0015025066 0.0027010839)
(120.00155 -0.0013873039 0.0027310943)
(120.00157 -0.00092133012 0.0031078073)
(120.00148 -0.0006685973 0.0031186666)
(120.00146 -0.00023286252 0.0031732903)
(120.00147 0.00017703604 0.0031702)
(120.00218 0.00027145308 0.00460455)
(120.00223 0.00091355937 0.0044972067)
(120.00236 0.001307986 0.0044580481)
(120.00232 0.0019834835 0.0039420473)
(120.00227 0.0021789637 0.0038922642)
(120.00249 0.0026324085 0.0037068242)
(120.00243 0.0030532627 0.0031516917)
(120.00243 0.0031801269 0.0030208459)
(120.00249 0.0037365093 0.002600298)
(120.00228 0.0039192634 0.002147303)
(120.00233 0.0039651775 0.0019504405)
(120.00238 0.0044825199 0.0012758174)
(120.00225 0.0045183408 0.00088296204)
(120.00221 0.0046246051 0.00024218767)
(120.0022 0.0046268702 -0.00036153714)
(120.00225 0.0045354425 -0.0010002851)
(120.00238 0.0045044797 -0.0013804498)
(120.00236 0.0039782558 -0.0020446678)
(120.00231 0.0039221964 -0.0022284031)
(120.00254 0.0037360464 -0.0026695618)
(120.0025 0.0031783969 -0.003082088)
(120.00251 0.0030503103 -0.003199682)
(120.00258 0.0026292888 -0.0037426246)
(120.00238 0.002173337 -0.0039144823)
(120.00245 0.0019802115 -0.0039536777)
(120.0025 0.0013051778 -0.0044711995)
(120.00237 0.00091724859 -0.0045083877)
(120.00233 0.00028145036 -0.0046125902)
(120.00233 -0.00031748488 -0.0046120516)
(120.00336 -0.00045739953 -0.0065260322)
(120.00343 -0.0013656427 -0.0063750871)
(120.00362 -0.0019161376 -0.0063181872)
(120.00357 -0.0028332052 -0.0056021582)
(120.00349 -0.0031136789 -0.0055102327)
(120.00377 -0.0037449954 -0.0052705558)
(120.00368 -0.0043138724 -0.0045293622)
(120.00368 -0.0044991585 -0.0043478921)
(120.00376 -0.0052391054 -0.003778911)
(120.00348 -0.0054814244 -0.0031474399)
(120.00356 -0.0055768545 -0.0028689551)
(120.0036 -0.0062917997 -0.0019521643)
(120.00342 -0.0063520689 -0.001401183)
(120.00334 -0.0065042174 -0.00049306653)
(120.00231 -0.0045954785 -0.00034582333)
(120.00156 -0.0031486141 -0.00023511414)
(120.00156 -0.003149609 0.00016671679)
(120.00159 -0.0030759414 0.00059611534)
(120.00167 -0.0030479081 0.0008574128)
(120.00163 -0.002686582 0.0013378043)
(120.00158 -0.0026769241 0.0014629745)
(120.00235 -0.0039014534 0.0021503267)
(120.00256 -0.0037289773 0.0026069144)
(120.00248 -0.0031856309 0.0030285057)
(120.00247 -0.0030665434 0.0031587731)
(120.00251 -0.0026529972 0.0037161922)
(120.00228 -0.0022101193 0.0039035754)
(120.00233 -0.0020231122 0.0039604723)
(120.00236 -0.0013579653 0.004485784)
(120.00222 -0.00097504547 0.0045162085)
(120.00218 -0.00033422354 0.0046072708)
(120.00318 -0.00047243509 0.0065019848)
(120.00318 0.00039923889 0.0065000917)
(120.00325 0.0013164683 0.0063486441)
(120.00343 0.0018788183 0.0062918656)
(120.00338 0.0028039425 0.0055777859)
(120.00331 0.0030952398 0.0054756256)
(120.00359 0.0037353212 0.0052222579)
(120.00352 0.0043122976 0.0044693897)
(120.00352 0.0045055834 0.0042713766)
(120.0036 0.0052600086 0.00369482)
(120.00332 0.0055100371 0.003055436)
(120.0034 0.0056076307 0.002762504)
(120.00345 0.0063234331 0.0018384642)
(120.00328 0.0063762356 0.001278187)
(120.00321 0.0065265275 0.00036259142)
(120.00321 0.0065279861 -0.00050675569)
(120.00328 0.0063863822 -0.0014191607)
(120.00347 0.0063321693 -0.0019682322)
(120.00344 0.0056107546 -0.0028820356)
(120.00337 0.005503958 -0.003160137)
(120.00367 0.0052501334 -0.0037870413)
(120.00361 0.0044961365 -0.0043551808)
(120.00362 0.004300534 -0.0045369226)
(120.00371 0.0037242857 -0.0052790856)
(120.00345 0.0030834417 -0.0055185634)
(120.00354 0.002795802 -0.0056093171)
(120.00359 0.0018735198 -0.0063260075)
(120.00342 0.0013187141 -0.0063781979)
(120.00335 0.00040798137 -0.0065270268)
(120.00471 0.00057323118 -0.0089641919)
(120.00472 -0.00063926619 -0.0089626197)
(120.00482 -0.0018994654 -0.0087457558)
(120.00505 -0.0026600572 -0.0086641448)
(120.00499 -0.0038700714 -0.0077016788)
(120.00489 -0.0042764978 -0.0075189757)
(120.00523 -0.0051383573 -0.0071922075)
(120.00513 -0.005893171 -0.0062101585)
(120.00513 -0.0061733904 -0.0059342896)
(120.00522 -0.0071537901 -0.0051793499)
(120.00488 -0.0074835676 -0.0043172816)
(120.00498 -0.0076702227 -0.0039134576)
(120.00503 -0.0086308142 -0.0027038937)
(120.0048 -0.0087161991 -0.0019428703)
(120.00469 -0.0089342588 -0.00068321575)
(120.00468 -0.0089363847 0.0005292236)
(120.00333 -0.0065058719 0.00037268361)
(120.00231 -0.0045967491 0.00025372164)
(120.00235 -0.0044931188 0.00089007067)
(120.00247 -0.0044570596 0.0012793508)
(120.00242 -0.0039408454 0.0019545203)
(120.0035 -0.0055917339 0.0027622445)
(120.00341 -0.0055009313 0.0030532722)
(120.00368 -0.0052607795 0.0036948057)
(120.00358 -0.0045181564 0.0042716569)
(120.00357 -0.0043346568 0.0044699997)
(120.00363 -0.003765334 0.0052236774)
(120.00333 -0.0031364737 0.0054790576)
(120.0034 -0.0028544497 0.0055869604)
(120.00343 -0.0019395789 0.0063071583)
(120.00325 -0.0013872255 0.0063607979)
(120.0046 -0.0019202516 0.0087074844)
(120.0045 -0.00065317505 0.008918311)
(120.0045 0.00056632781 0.0089176581)
(120.0046 0.001836931 0.0087017763)
(120.00482 0.0026120253 0.0086199967)
(120.00477 0.0038333234 0.00766077)
(120.00467 0.0042530619 0.0074677407)
(120.00501 0.005126133 0.0071271698)
(120.00493 0.0058904929 0.0061336596)
(120.00493 0.00617894 0.0058396161)
(120.00502 0.0071744648 0.0050757616)
(120.00469 0.0075109884 0.0042037022)
(120.00479 0.0076985987 0.0037819974)
(120.00485 0.0086600702 0.0025620443)
(120.00463 0.0087371384 0.0017896571)
(120.00454 0.0089518762 0.00052106802)
(120.00454 0.0089522273 -0.00069570362)
(120.00465 0.0087409522 -0.0019600573)
(120.00488 0.0086571146 -0.0027218015)
(120.00484 0.0076921686 -0.0039311416)
(120.00476 0.0074949012 -0.0043355806)
(120.00511 0.0071537076 -0.0051941871)
(120.00504 0.0061602961 -0.0059489199)
(120.00505 0.0058682792 -0.0062236979)
(120.00516 0.0051057552 -0.0072074712)
(120.00484 0.004233598 -0.0075329683)
(120.00495 0.0038185201 -0.0077133129)
(120.00502 0.0026021043 -0.008675749)
(120.0048 0.0018363945 -0.0087507299)
(120.00652 0.0024631979 -0.011586392)
(120.00641 0.00077581651 -0.011883599)
(120.00642 -0.00086179376 -0.011881207)
(120.00654 -0.0025455025 -0.011578706)
(120.00679 -0.0035611136 -0.011470025)
(120.00672 -0.0050816675 -0.010229837)
(120.00662 -0.0056610035 -0.0098941613)
(120.00697 -0.0067995515 -0.0094677832)
(120.00687 -0.0077572458 -0.0082201582)
(120.00687 -0.0081759551 -0.0078064452)
(120.00696 -0.0094214579 -0.0068485347)
(120.00661 -0.0098511931 -0.0057096724)
(120.00671 -0.010191229 -0.0051336588)
(120.00676 -0.011428544 -0.0036137235)
(120.00651 -0.011541315 -0.0025977784)
(120.00639 -0.011844817 -0.00091528808)
(120.00637 -0.011847534 0.00072154435)
(120.00647 -0.011551632 0.0024081953)
(120.00476 -0.0087239117 0.001792373)
(120.00339 -0.0063577731 0.00128381)
(120.00356 -0.0063070041 0.0018400502)
(120.00498 -0.0086506907 0.0025594856)
(120.0049 -0.007689806 0.0037753706)
(120.00479 -0.0075096994 0.0041946695)
(120.00511 -0.0071835174 0.0050675387)
(120.005 -0.0061992613 0.0058306752)
(120.00498 -0.0059224747 0.0061260988)
(120.00506 -0.0051663877 0.007119036)
(120.0047 -0.0043055852 0.0074621879)
(120.00479 -0.0038964416 0.0076608641)
(120.00483 -0.0026859015 0.0086242283)
(120.00653 -0.0035906823 0.011402763)
(120.00628 -0.0025667272 0.011517008)
(120.00616 -0.0008749053 0.011816562)
(120.00616 0.00077138087 0.011817615)
(120.00627 0.0024679837 0.011517921)
(120.00652 0.0035017072 0.011409264)
(120.00646 0.0050374698 0.010173055)
(120.00636 0.0056328789 0.0098269608)
(120.00671 0.0067857358 0.0093861159)
(120.00662 0.0077551841 0.0081262626)
(120.00662 0.0081823641 0.0076921448)
(120.00673 0.0094445643 0.006723448)
(120.00638 0.0098803991 0.0055719928)
(120.00649 0.010220197 0.0049742553)
(120.00656 0.011459286 0.0034403384)
(120.00632 0.011562433 0.0024101038)
(120.00622 0.011861107 0.00071596535)
(120.00622 0.011860029 -0.0009271474)
(120.00634 0.011559966 -0.0026158722)