/*--------------------------------*- C++ -*----------------------------------*\
  =========                 |
  \\      /  F ield         | OpenFOAM: The Open Source CFD Toolbox
   \\    /   O peration     | Website:  https://openfoam.org
    \\  /    A nd           | Version:  7
     \\/     M anipulation  |
\*---------------------------------------------------------------------------*/
FoamFile
{
    version     2.0;
    format      ascii;
    class       surfaceScalarField;
    location    "250";
    object      phi;
}
// * * * * * * * * * * * * * * * * * * * * * * * * * * * * * * * * * * * * * //

dimensions      [1 0 -1 0 0 0 0];

internalField   nonuniform List<scalar> 
76009
(
0.0018862597
1.4786242
-1.4801106
-2.0325471
2.0329015
-36.227727
2.0780687
-2.0795996
-2.0789605
2.0768515
-34.809494
0.00012258521
0.0017693281
2.032926
1.4786806
-1.4800701
-2.032519
-36.227661
2.0769303
2.0781156
-2.0795395
-2.0788614
0.00011149144
-34.809312
-0.0027320229
-9.3252352
-0.0026822638
-0.38314348
0.37472472
0.36797658
-0.39128592
0.36798148
0.37474215
-0.38313787
-0.39128903
-0.01250978
-7.6961619
0.066336469
-7.4066936
0.012561226
-0.012572484
-0.012546998
-10.341755
0.0056796594
-0.054761868
-9.6921711
-0.0056542468
0.38347033
0.37877086
-0.37530863
-0.38008085
0.38347186
-0.38008121
-0.37531292
0.37876615
-9.3275969
7.6961849
-0.05474895
-9.6921843
0.066385587
0.37058238
-0.37688834
0.52390845
-0.53758327
-8.2566802
-0.0017989469
-0.00016620435
-0.57869039
-0.020089469
0.023894113
-0.0249782
0.032518818
-0.00035942675
-0.56502695
0.032715613
-0.025217848
-0.025344532
0.032597269
-0.011145326
-0.0079196984
-2.4811016
0.098726206
0.13262783
-0.12925104
-0.096205051
0.0034823279
-2.6369458
0.09495244
-0.092233331
-0.12670275
0.12818458
-0.13057286
-2.3429597
0.0024101024
-0.47566785
0.001957351
-0.0015275961
-0.0013342407
0.00059357166
-0.57554472
-0.031934991
-0.023520699
0.023748278
0.032302285
-0.52708011
0.0015666244
-0.00062313595
0.00038484157
-0.65448276
-0.0016100904
-0.00048380772
-0.66424556
0.48068397
-0.62374751
0.0096746945
0.0062022853
0.0046330471
-0.13143347
-0.51106871
-0.023282178
0.023542359
0.032667978
-0.032783672
-0.0018190753
-0.13255433
-0.10187887
0.09793702
-0.10187913
-0.13255177
-2.3808403
0.002006371
0.13643671
0.13353043
-0.13111916
-0.13379447
-2.5353241
0.13597936
-0.13344095
-0.12912302
0.13146085
-2.4761833
2.0036517e-05
-3.6695264e-05
0.0015101003
-0.5336209
-0.00068088457
-0.00076147343
0.0015533418
-0.53500672
0.0015199129
-0.53172977
0.00013435234
-0.54560958
-7.8623431e-05
0.0322718
0.032321735
-0.031967634
-0.031966997
6.1291799e-05
-0.54639823
0.032357981
-0.031956839
-0.031981656
0.032313844
-0.54752683
-0.032130967
0.032516676
0.032350322
-0.031962532
0.00290384
-0.00034728922
0.00015972493
0.032718861
0.032602377
-0.025337543
-0.025212817
-0.56501398
-0.00059445327
-0.6589658
-0.0030319836
-0.0001561286
-0.66620753
-0.00016699996
0.032608443
0.03256489
-0.025420159
-0.025343891
-0.56401978
0.0031024821
-3.4005816e-05
-0.025414773
0.032570391
0.032526912
-0.025414847
-0.56311274
0.00055300246
-0.66466849
0.52526763
-0.0031255556
-0.65071833
6.2462586e-06
0.0014711954
6.1038956e-06
-0.54378028
6.1933339e-06
-0.031944671
0.032262172
0.032235152
-0.031933463
-0.56118612
6.6855586e-06
-0.025391645
0.032516306
0.032492177
-0.025377243
0.0047261794
4.7093348e-05
-0.57250107
6.1031159e-06
0.0065355739
-0.12866971
0.00066294043
-0.51799148
6.095059e-06
-0.50009435
0.0024658338
-2.027037
-0.1083833
0.13307446
-0.10489881
2.0139398e-05
0.0018037822
-7.7909147
0.51958003
-0.54584386
-0.52581748
4.7164189e-05
-8.2566283
-0.37686799
0.3706021
0.52392846
-0.5375547
0.012485486
0.54781719
0.3861913
-0.37553734
-0.52876838
-10.433118
0.55326525
4.3888431e-05
-0.53175808
-0.51385292
0.53651522
-9.9015039
-0.0068839342
0.020333034
2.6816345
-2.1402829
-0.0015354871
-0.013378609
2.6566767
-2.1177756
0.015410749
2.6260566
0.0064623413
-1.876236
1.8142267
0.021710198
0.030108317
0.042653213
0.035798661
-2.1038525
-0.085019534
-0.0030430062
0.12974427
0.096548298
-0.10474172
0.040322822
-0.0033430435
0.63392873
0.021545022
-2.3269716
-0.0074768548
0.61579465
0.53952194
0.62215975
0.077642145
-0.098086073
-0.13420494
0.09647006
0.084355271
0.47529316
-0.0045301224
-0.0062091211
-2.0378111
0.094750323
0.12573313
-0.11883647
0.081334986
-2.1869619
-0.19048181
-1.9495409
0.0027628794
0.1450493
-0.004898295
0.0010731033
-0.14280901
-2.1782153
-0.0066023555
-2.6301501
0.0051317555
-0.0024085255
-2.6558696
2.3145111
0.095937609
0.13059943
-0.12957294
-0.095144124
0.00047478387
-2.310601
0.0015368433
0.13181624
0.096403036
-0.094786619
-0.12925641
2.216579
-2.2006537
2.9131255e-05
-0.12991545
0.13279056
0.13216308
-0.12912273
0.62863709
-0.064428652
-0.0018314721
0.63341108
0.54555183
0.54232305
0.098753255
-0.13604494
-0.1352208
0.097951736
0.10543727
-0.0018782494
0.52330625
0.005474549
-0.0037027305
-2.0662036
-0.10883579
0.13347824
0.13067717
0.0018153703
0.061844972
1.6740003e-05
-2.6129008
0.63251969
0.54165127
0.53932003
0.61784341
1.9677768e-05
0.097956448
-0.13491522
-0.13473778
0.097657394
-2.1973014
0.0010895141
-0.0040463951
0.52635236
0.00074091793
0.52775808
-0.0039715294
-0.00029105941
-0.0045682489
-0.00011190107
-0.0008589276
-0.004414511
-0.0023630417
-0.51997541
-0.0032589661
-1.6816042e-05
-0.51582177
0.0098587811
0.0079317957
-0.0030964772
-0.020297225
0.003291958
0.57483088
-0.03789114
-0.0038062392
0.57867987
0.0033477637
-0.00059693893
0.023897024
-0.020085944
-0.024973606
0.03252201
-0.023743365
-0.1176456
0.00056079721
0.16440064
0.00032455077
-0.020340259
0.032730027
-0.029846523
-0.010841601
-0.63286577
-0.15570427
-0.0011187999
-0.0012487388
0.15375459
0.15584377
0.13479914
-0.0070296138
-0.022801218
0.018936969
0.023157292
-0.028232713
-0.0031047722
-0.57767995
0.12946812
-0.00067274265
-0.0011331875
0.1627419
-0.00024689814
5.5919517e-05
0.00014302857
0.13080417
-0.00013509496
-5.1912483e-06
0.11836836
-0.00062756195
0.0001800181
0.00038513409
-0.00014200766
7.5769253e-05
0.00014306685
-0.14567582
-0.00022235964
-8.5557572e-05
-0.13145962
4.0862973e-05
-4.2635148e-05
-0.16408596
-0.00074226113
-0.14542727
-0.00038534766
-4.093131e-05
-0.0003446118
-0.14390242
-0.0012834674
-0.00014367489
-0.13067587
-0.00070012577
-0.00065110508
-0.0052762547
-0.0094407395
-0.00098638719
0.00013252658
0.14496662
0.00027737182
-0.15426356
-0.00055369786
0.028524675
0.13141317
-1.5706129e-05
-0.16506587
0.49534635
0.032995802
0.032205959
-0.032376616
-0.035198403
-0.57716889
0.032562614
-0.032451476
0.031886859
-0.032319455
0.031356324
-0.13149577
-0.00016810835
-0.00014760915
-6.2759116e-05
-0.00057643965
-0.16405031
0.14542826
-0.0004718329
-0.14533478
-6.97552e-05
-0.00026342663
-0.00011744598
0.00018656944
-0.14479465
-0.00026048003
-0.00014009094
-0.13000358
-0.00012410052
-0.00010441228
-0.1621646
-0.00063046271
-0.14492276
-0.00035148073
-9.6654446e-05
0.001190099
-0.0001795987
-0.14554505
-0.00033856053
-4.9645453e-05
-0.00037456133
-8.6972244e-05
-0.00071602569
-0.13056661
-0.00028764913
0.00011164637
-0.00074096573
-0.16232961
-0.00032863506
-0.14475179
-7.5612248e-05
-8.8105104e-06
-0.14377623
0.14392919
-5.1980007e-05
-0.00042080179
0.032658492
-0.16280146
-0.00040562407
0.12979882
0.035202003
-0.59579497
-0.032660104
0.032523609
0.52688512
0.024215223
-0.024826395
-0.024824828
0.024216255
0.032524185
0.010848407
-0.57717211
0.032204674
0.032995892
-0.028526159
-0.032378968
-0.63287176
-0.020341252
0.023743874
0.032729232
-0.029848736
-0.00018493634
-0.56403535
0.032603674
-0.025351092
-0.0254303
0.032557019
-5.675352e-05
-0.5631294
0.032563084
-0.025425008
-0.025428883
0.032515327
-0.56120309
0.032505604
-0.025405554
-0.025395444
0.032476439
-1.8542996e-05
6.8661123e-05
0.0064892336
-1.6660233e-05
0.0047642329
-0.57250856
0.00028017694
0.0066258822
0.0047199526
-0.57468675
0.00073963411
0.0045900095
-0.57601795
0.0069331324
0.0006060768
0.0044300146
-0.57668589
0.0073624793
-0.0098534952
0.0032697373
-0.57483763
0.0033370758
-0.12573061
2.37664e-05
-0.51582619
0.0079243666
-0.035780759
-2.0378186
-0.08435754
0.094751854
-0.11884197
0.081321373
-1.8142368
0.04265613
0.030097107
0.021704601
-2.6260647
-0.021561089
-2.186965
-0.19048447
0.63393469
-0.040300145
-2.3269759
-0.0075124338
0.6221655
0.53952315
0.61579814
0.077640146
-0.098087276
-0.13421093
0.096463985
0.085027578
-0.0062132636
0.47529812
-0.004535288
-2.1038726
-0.0030558325
-0.10475315
0.12973623
0.096541693
-2.6566896
-0.0033618807
-0.013370968
-0.54779902
0.015395435
-2.1177794
0.0068644287
-0.38617949
-1.8762391
0.0064547093
-0.37554798
-0.52878449
0.012468865
-10.433144
0.0048933042
-0.006609397
-2.6301522
1.9495417
0.001060405
-2.1782151
-0.14280662
0.0027472162
0.14505035
-2.31451
0.0015077671
0.096403007
-0.094786239
-0.12925963
0.13181183
-0.0051216248
-2.3105981
0.00045296279
0.095938217
-0.095143247
-0.12957458
0.13059675
-0.0024241783
-2.6558708
0.53177718
-2.6830987
0.0024497755
2.140285
0.0061625532
7.7909906
-9.9015303
-0.5138858
0.53647029
0.55324173
-9.3541889e-07
0.51954792
-0.54588394
0.50003437
-0.52588362
-6.7764112e-06
-2.066228
-0.10545096
0.13066787
0.13346133
-0.1088571
-0.0024930286
0.064385792
-2.6816483
0.0017886231
0.62864685
0.6334183
0.54232169
0.54555561
-2.2165793
-0.0018862049
-0.13604971
0.098746453
0.0979351
-0.13523548
0.0054832906
0.52331452
-0.0018870893
-0.0037148373
0.51998264
-0.0033002697
-0.0023602679
0.00085242354
0.00028259764
-0.52776775
-0.00012618748
-0.0039886816
-0.0011049567
0.0009280845
-0.00087234542
-0.037740678
0.0038169916
-0.037734025
0.0031028036
-0.037900564
-0.020302509
0.11755464
0.50183989
0.0072054535
0.0086862351
-0.65558873
-2.2129176
-0.11755069
0.12601826
0.091428481
-0.10252328
0.09142559
0.12601771
-0.10252779
0.10985033
0.096422311
0.10984558
-0.096302065
-0.098026651
0.096427344
-0.098021838
-0.096296728
-2.6177822
0.65558659
0.0030119954
-0.47148784
0.00038173409
0.50183709
0.008687788
0.0072137861
-0.0041082287
-0.51555548
-0.020968351
0.027461134
-0.030628013
0.031587863
0.018254203
-0.0050633714
-0.050132679
-0.55419491
0.15888567
0.15612116
0.13520017
0.15525177
-0.011972928
-0.0021650229
0.023146982
0.018817238
-0.024690412
-0.033573409
-0.58008459
0.11862879
-0.0013281252
-0.0021845636
-0.00014806631
0.00010909314
-0.13045214
-0.00017484433
-0.00062735077
-0.0022482858
-0.0016435313
0.0012293084
0.14321506
-0.0013610286
-0.010131463
0.1296727
-0.0060041895
1.5766023e-05
-0.00097572826
-0.0013577594
-0.00033804228
-5.5020277e-05
-0.14370952
-0.0011820082
-0.0001874486
-0.032527761
-0.13049139
-0.00081306182
-0.018254719
0.032525701
-0.029845294
-0.025289569
0.024188199
-0.56245295
-0.029842578
-0.02528744
0.02419012
0.0041121981
-0.02097082
0.02745957
0.0315856
-0.030630799
-0.51555699
0.0070224072
0.1557074
0.15584604
0.13480052
0.15375762
-0.0031186509
-0.57768469
-0.022802864
0.018935411
-0.028235932
0.023154629
0.11764799
-0.0012510906
-0.0011202166
0.00032159839
0.00055981715
-0.00017731613
0.0011936964
-0.14554743
-0.00034148924
-5.3354259e-05
0.0007184628
-0.13056814
-0.00028994308
0.00070353125
0.0003726347
-0.13141508
-0.13067828
0.00034307453
-0.00065303568
-0.0052790376
0.00067598456
0.14390564
-0.009444614
-0.00098953215
0.12947129
-0.0011361024
-0.00025084015
5.384551e-05
-0.0012873644
-0.0001461761
-0.14496943
-9.0064182e-05
0.00013506473
0.00027451484
-0.00055784219
-0.15426578
-1.7501462e-05
-0.16506771
0.00010875303
-0.00074241631
-0.16233094
-0.00033077774
-7.9901059e-05
-0.14475348
-5.7411996e-06
0.14393099
-0.00042179678
-5.6762223e-05
-0.14377747
0.12979986
-0.00040582199
-0.1628023
0.16229895
-3.2912646e-05
-0.00023250701
0.032531801
0.12952617
-0.00022227582
-0.00017048781
0.032249287
0.024111287
-0.02465456
-0.032532122
0.032247107
-0.024654255
0.024110509
-0.0016053961
2.0769474
-2.0788567
-2.0794803
2.0782095
-34.809262
1.4787787
2.0330129
-2.0324653
-1.4800066
-36.227523
-0.53058903
-10.422809
-0.36965952
0.3745994
0.058713331
0.0019764193
0.13644477
-0.1337879
-0.13110709
0.13354395
-0.0034520875
-2.5353281
0.13146095
0.13598781
-0.13343339
-0.12912332
-2.4761847
0.0006903528
-0.52526781
0.0014743007
-0.001566169
-0.00014379598
-0.5463991
6.8377372e-05
0.032363003
0.032317639
-0.031978239
-0.031952051
2.6343341e-05
-0.53500715
-0.00075426525
-0.53362113
0.0015186881
0.00054315523
-0.0030952523
0.00016708039
-0.6646695
-0.003122975
-0.65071875
0.54378061
4.6695087e-05
-0.56118678
0.032491933
0.032518432
-0.025389831
-0.02537734
9.0146001e-05
-0.031933669
0.032235053
0.032264556
-0.031942451
-0.5456103
0.032273915
-0.03196521
-0.031963868
0.032325772
0.00017791982
-0.56311441
0.032528507
0.032573964
-0.025411569
-0.025413271
0.0030210165
0.00035600834
-0.56402232
0.032612982
0.032567995
-0.025417173
-0.025339684
0.00060227132
-0.66620922
0.53173016
-0.0028901966
-0.0003769465
-0.65896784
0.0015356082
-0.00155941
-0.54752766
0.032522206
0.032355123
-0.031958034
-0.032125606
-0.00058851629
0.00016629805
-0.56501702
0.032723943
0.032606495
-0.025333566
-0.025207992
0.001594493
0.03252679
0.57554595
-0.024968986
-0.020080743
0.023902838
-0.57868342
-0.0096706234
0.12924024
0.52708081
-0.65448539
-0.00061811696
-2.6369535
0.13264056
-0.096189691
0.098743889
0.011163113
5.9980855e-05
-0.0021558858
1.4674061e-05
-3.6069838e-05
0.00012152271
-0.0026061832
1.8851298e-05
-4.0204493e-05
0.00018915289
-0.0029738507
2.2045721e-05
-4.3933929e-05
0.00026786241
-0.0033463803
2.4772362e-05
-4.8038659e-05
-0.055096264
0.00049715831
-0.00046569732
-0.00017012215
-0.00023299904
-0.055155084
0.00030763797
-0.00020162229
0.00018580418
-0.00016423522
-0.0034105431
1.8329413e-05
-2.293014e-05
-0.00010169693
-0.003032038
1.6962272e-05
-2.1312973e-05
-4.602075e-05
-0.0026578333
1.5760607e-05
-1.9786077e-05
-0.0021984897
1.4447234e-05
-1.7864097e-05
1.9728481e-05
-0.0022157377
3.1989023e-06
-5.6788024e-06
4.0600095e-05
-0.0026763011
3.930353e-06
-6.3334154e-06
6.3652209e-05
-0.0030526267
4.3308218e-06
-6.7937616e-06
8.9784714e-05
-0.0034340866
4.6846712e-06
-7.273368e-06
-0.055422274
0.0001089109
-6.4818369e-05
0.00031288235
-3.5234694e-05
-0.055759371
7.1361331e-05
-2.3870177e-05
0.00032484173
-2.4904594e-05
-0.0034446142
3.2970531e-06
-3.0974864e-06
-1.5564669e-05
-0.0030620836
3.0800418e-06
-2.9610389e-06
-7.2007737e-06
-0.002684728
2.9328643e-06
-2.865269e-06
-0.0022229868
2.8619785e-06
-2.8136522e-06
2.6465459e-06
-0.0022255563
1.5808096e-06
-1.6562236e-06
5.2811655e-06
-0.0026873975
1.7349487e-06
-1.6991504e-06
8.0536152e-06
-0.0030649806
1.8720804e-06
-1.7467555e-06
1.1065499e-05
-0.0034478539
2.0363081e-06
-1.808272e-06
-0.056045571
4.9433878e-05
-1.2850493e-05
0.00026068312
-5.1778739e-06
-0.056241397
3.9972577e-05
-1.129557e-05
0.00017232733
-3.8251152e-06
-0.0034495108
1.8983657e-06
-1.5937667e-06
-2.5081795e-06
-0.0030665229
1.761637e-06
-1.5358545e-06
-1.2307693e-06
-0.0026888381
1.6489917e-06
-1.4848548e-06
-0.0022269117
1.5567838e-06
-1.4320912e-06
9.407679e-07
-0.0022278916
1.2854318e-06
-1.2465085e-06
1.8153364e-06
-0.0026897953
1.4050268e-06
-1.3222637e-06
2.6694374e-06
-0.0030675035
1.5105701e-06
-1.3839287e-06
3.5303374e-06
-0.0034505496
1.6256303e-06
-1.4477053e-06
-0.056355684
3.1247301e-05
-1.0759953e-05
9.7330753e-05
-3.0960765e-06
-0.056414986
2.4403127e-05
-9.7737705e-06
4.7769455e-05
-2.3396697e-06
-0.0034514208
1.3915377e-06
-1.2759153e-06
-1.5884947e-06
-0.0030683392
1.2990513e-06
-1.2137583e-06
-8.1926053e-07
-0.0026906222
1.212216e-06
-1.1528815e-06
-0.0022287481
1.1152972e-06
-1.0779673e-06
7.4263835e-07
-0.0022295092
9.2150339e-07
-9.019363e-07
1.4134426e-06
-0.0026913281
1.0063988e-06
-9.706569e-07
2.0600807e-06
-0.0030690381
1.0782556e-06
-1.0255614e-06
2.7057166e-06
-0.0034521376
1.1522182e-06
-1.080998e-06
-0.056443678
1.9087078e-05
-8.4323097e-06
2.0743065e-05
-2.405815e-06
-0.056457524
1.5202316e-05
-7.0942832e-06
8.1438326e-06
-1.8382451e-06
-0.0034527536
9.508892e-07
-9.0200848e-07
-1.2684683e-06
-0.003069644
8.9122306e-07
-8.546366e-07
-6.7334372e-07
-0.0026919471
8.3251338e-07
-8.07852e-07
-0.0022301957
7.62514e-07
-7.4935035e-07
6.1340176e-07
-0.0022308143
6.2898212e-07
-6.2277297e-07
1.1438072e-06
-0.0026924926
6.8764506e-07
-6.7198496e-07
1.6403473e-06
-0.0030701653
7.3639097e-07
-7.1121476e-07
2.1280314e-06
-0.0034532757
7.8538629e-07
-7.509078e-07
-0.056464805
1.2338324e-05
-5.9236696e-06
2.9951187e-06
-1.9054281e-06
-0.056469199
1.0175871e-05
-4.9555343e-06
1.0791242e-06
-1.4789729e-06
-0.0034537267
6.5245319e-07
-6.2778826e-07
-1.0405754e-06
-0.0030706209
6.1171283e-07
-5.9443718e-07
-5.6289664e-07
-0.002692979
5.7075664e-07
-5.6169556e-07
-0.0022313781
5.214953e-07
-5.2059066e-07
5.2191703e-07
-0.0022318952
4.3267927e-07
-4.3636714e-07
9.5246861e-07
-0.0026934125
4.740998e-07
-4.7059014e-07
1.3443213e-06
-0.003071023
5.0856238e-07
-4.978433e-07
1.7172051e-06
-0.0034541169
5.4286802e-07
-5.2545879e-07
-0.056472187
8.4469823e-06
-4.1376822e-06
3.9682223e-07
-1.5596138e-06
-0.056474327
6.9590114e-06
-3.4259411e-06
1.6700404e-07
-1.2292776e-06
-0.0034544577
4.4844285e-07
-4.3770851e-07
-8.7949668e-07
-0.0030713774
4.1999025e-07
-4.1498899e-07
-4.8661012e-07
-0.0026938032
3.9141178e-07
-3.9287353e-07
-0.0022323741
3.5725758e-07
-3.6497534e-07
4.5960138e-07
-0.0022328179
2.8508746e-07
-3.0019885e-07
8.2055358e-07
-0.0026941537
3.1154851e-07
-3.216703e-07
1.1352209e-06
-0.003071687
3.3401344e-07
-3.3882894e-07
1.4246176e-06
-0.0034547468
3.5627721e-07
-3.5646457e-07
-0.056475779
5.4975328e-06
-2.7510626e-06
1.2984882e-07
-1.314689e-06
-0.05647658
3.8636934e-06
-2.0259129e-06
2.7821295e-07
-1.0547784e-06
-0.0034549881
2.5331239e-07
-2.7167389e-07
-7.6973548e-07
-0.0030719509
2.385492e-07
-2.595246e-07
-4.3333284e-07
-0.0026944653
2.2384177e-07
-2.4818538e-07
-0.0022332243
2.0714727e-07
-2.3414071e-07
4.1646428e-07
-0.0022335964
1.185456e-07
-1.6248732e-07
7.2644359e-07
-0.00269473
1.2252532e-07
-1.6755433e-07
9.8880334e-07
-0.0030721687
1.2767357e-07
-1.7200407e-07
1.2194749e-06
-0.0034551746
1.3317564e-07
-1.7731375e-07
-0.056476746
1.9581429e-06
-1.202916e-06
6.3064748e-07
-1.1412044e-06
-0.056476089
-1.7847046e-07
-4.0287361e-07
1.0659462e-06
-9.3225736e-07
-0.0034552883
-2.8326673e-09
-9.2040849e-08
-6.9252746e-07
-0.0030723171
2.539414e-09
-9.3474636e-08
-3.9912592e-07
-0.0026949351
8.7803872e-09
-9.6131294e-08
-0.0022339148
1.9614491e-08
-1.0033441e-07
3.8933729e-07
-0.0022342114
-7.4785289e-08
-1.7054869e-08
6.6731774e-07
-0.0026951098
-1.0076178e-07
-2.0104443e-09
8.8567008e-07
-0.0030724256
-1.1808018e-07
8.557561e-09
1.0767685e-06
-0.0034553625
-1.340199e-07
1.7214352e-08
-0.056474768
-2.2234599e-06
4.9226253e-07
1.4870782e-06
-1.0125885e-06
-0.056472839
-3.5097336e-06
9.531302e-07
1.6399653e-06
-8.430301e-07
-0.0034553867
-2.175738e-07
7.2577101e-08
-6.3548857e-07
-0.0030724978
-1.9518227e-07
6.0256324e-08
-3.7704912e-07
-0.0026952428
-1.7065687e-07
4.5976523e-08
-0.0022344791
-1.3518535e-07
2.5817672e-08
3.637461e-07
-0.002234732
-1.2879514e-07
1.885393e-08
6.0604306e-07
-0.0026953587
-1.6219685e-07
3.6178355e-08
7.8693799e-07
-0.0030725411
-1.854591e-07
4.8142351e-08
9.3275078e-07
-0.0034553841
-2.0670063e-07
5.824785e-08
-0.056470599
-3.3350597e-06
7.688315e-07
1.2597071e-06
-8.3840577e-07
-0.056468453
-1.437088e-06
-1.6368783e-07
2.9326441e-07
-7.2143191e-07
-0.0034553772
-8.7946832e-08
-3.5563128e-08
-5.6810277e-07
-0.00307258
-7.7278754e-08
-3.6829733e-08
-3.5044087e-07
-0.0026954708
-6.5758794e-08
-3.9098274e-08
-0.0022349899
-4.8689775e-08
-4.3922266e-08
3.3446416e-07
-0.0022352715
1.0350685e-07
-1.5563524e-07
5.2998924e-07
-0.0026956069
1.1414538e-07
-1.7317549e-07
6.5843792e-07
-0.0030726446
1.2359508e-07
-1.8715395e-07
7.4512107e-07
-0.0034553956
1.3280844e-07
-2.0106662e-07
-0.056466817
2.0736808e-06
-1.7566609e-06
-1.2073386e-06
-6.8633648e-07
-0.056465883
6.4481998e-06
-3.6560654e-06
-3.0394184e-06
-6.1973066e-07
-0.0034554698
4.1188086e-07
-4.0398855e-07
-5.1082697e-07
-0.0030727592
3.7820788e-07
-3.7231039e-07
-3.3074478e-07
-0.0026957896
3.4227441e-07
-3.390783e-07
-0.0022356029
2.9535636e-07
-2.9469028e-07
3.2091198e-07
-0.0022359796
4.7798242e-07
-4.2161502e-07
4.8317736e-07
-0.002696019
5.5721382e-07
-4.8986511e-07
5.6956217e-07
-0.0030729225
6.1678934e-07
-5.3963209e-07
6.1079651e-07
-0.0034555976
6.7284976e-07
-5.8629282e-07
-0.056465732
1.0475223e-05
-5.325654e-06
-4.6899676e-06
-5.7534519e-07
-0.056466076
1.2856298e-05
-6.2117621e-06
-5.7248797e-06
-5.5059651e-07
-0.0034557619
8.2274713e-07
-6.8297523e-07
-4.7825502e-07
-0.0030731197
7.5308532e-07
-6.2811073e-07
-3.2365142e-07
-0.0026962831
6.7921119e-07
-5.6926688e-07
-0.0022363956
5.8138442e-07
-4.8906316e-07
3.3733701e-07
-0.0022368528
5.8107777e-07
-4.6093347e-07
4.9691285e-07
-0.0026965853
6.8026892e-07
-5.3752949e-07
5.6941001e-07
-0.0030733534
7.5513794e-07
-5.9378063e-07
5.9128376e-07
-0.0034559633
8.2576163e-07
-6.4623156e-07
-0.056466571
1.2949781e-05
-5.9355299e-06
-5.9283599e-06
-6.6981659e-07
-0.056466568
1.0784312e-05
-4.7868736e-06
-5.3303801e-06
-6.340834e-07
-0.0034561544
6.8435411e-07
-5.2907552e-07
-5.4503148e-07
-0.0030735806
6.2532588e-07
-4.872533e-07
-3.6628409e-07
-0.0026968848
5.6351411e-07
-4.4275014e-07
-0.0022373199
4.8230728e-07
-3.8147069e-07
4.0457309e-07
-0.002237803
3.1057746e-07
-2.3297289e-07
6.1017637e-07
-0.002697177
3.5583315e-07
-2.6964385e-07
7.2131357e-07
-0.0030737931
3.9691542e-07
-2.957971e-07
7.7581555e-07
-0.0034563269
4.3811565e-07
-3.2013252e-07
-0.056465723
6.9708859e-06
-2.8584607e-06
-4.1813839e-06
-8.1115342e-07
-0.056463885
2.3694872e-06
-7.7600135e-07
-2.6202503e-06
-7.6404929e-07
-0.003456417
1.3884665e-07
-9.5403207e-08
-6.5996158e-07
-0.003073929
1.2206883e-07
-8.9747e-08
-4.4338779e-07
-0.0026974134
1.0413515e-07
-8.3366973e-08
-0.0022382586
8.6899059e-08
-7.4686412e-08
3.6660702e-07
-0.0022385966
-8.2793169e-08
5.4178352e-08
5.0519483e-07
-0.0026975382
-8.3533406e-08
6.96762e-08
5.3599967e-07
-0.003073955
-8.601156e-08
8.1148421e-08
5.021563e-07
-0.0034563827
-9.1556631e-08
9.1095153e-08
-0.056461771
-1.4052212e-06
9.433485e-07
-1.1504867e-06
-7.2855362e-07
-3.5998689e-06
2.0741114e-06
-9.4426467e-07
-7.1800037e-07
-2.3770229e-07
2.2043667e-07
-6.5092759e-07
-2.2044226e-07
2.0089209e-07
-4.6263572e-07
-2.0738071e-07
1.7909627e-07
-1.9281112e-07
1.4740582e-07
-1.0727003e-07
0.082486682
-1.9576627e-06
-3.5517866e-06
-2.4268914e-07
0.003562295
-1.2821357e-07
-3.142158e-07
0.0031072205
-1.1400689e-07
-2.7449826e-07
0.0026758896
-9.7790399e-08
0.0021786101
-7.3720201e-08
1.3342758e-07
0.0021782656
1.2817307e-07
6.3121086e-08
0.0026757544
1.2196866e-07
-1.0697745e-07
0.0031071848
1.1979792e-07
-3.4698436e-07
0.0035623233
1.2017915e-07
0.082486809
8.551422e-07
-2.7336346e-06
-2.1259637e-07
0.082488186
4.0261197e-06
-2.8208231e-06
-3.1673901e-07
0.0035622351
3.3115645e-07
-3.6816725e-07
0.003107048
3.1035339e-07
-3.0956824e-07
0.0026755155
2.8442971e-07
0.0021778018
2.4120044e-07
4.5092832e-07
0.0021772564
4.0411019e-07
6.7998348e-07
0.0026751651
4.7677986e-07
8.1416374e-07
0.0031067814
5.2903577e-07
9.0304616e-07
0.0035620077
5.76662e-07
0.082491148
7.7807467e-06
-2.8689172e-06
-9.643068e-07
0.082493783
1.1191984e-05
-2.0783548e-06
-8.445506e-07
0.0035617533
8.1906096e-07
-6.8150043e-07
0.003106494
7.4970536e-07
-4.3225716e-07
0.0026748041
6.7527498e-07
0.0021767327
5.7371405e-07
4.2284024e-07
0.0021762319
6.5908227e-07
6.7398348e-07
0.0026744548
7.7846621e-07
8.4223014e-07
0.0031062149
8.6604107e-07
9.6773726e-07
0.003561506
9.47532e-07
0.082496027
1.3024929e-05
-1.351869e-06
-1.0308945e-06
0.082498262
1.2448571e-05
-7.9610449e-07
-8.8355853e-07
0.0035612807
9.0078236e-07
-6.9483196e-07
0.0031059567
8.2261985e-07
-4.300884e-07
0.0026741301
7.3931493e-07
0.0021757568
6.2639288e-07
4.3789085e-07
0.0021753242
4.728143e-07
7.2734028e-07
0.0026738407
5.5719384e-07
9.4640181e-07
0.0031057348
6.1973873e-07
1.1292561e-06
0.0035610917
6.7896528e-07
0.082500738
9.4422059e-06
-3.1320138e-07
-1.1598205e-06
0.082503317
4.8556025e-06
1.7360348e-07
-9.6200049e-07
0.0035609643
3.414925e-07
-7.2593716e-07
0.0031055655
3.1140358e-07
-4.289427e-07
0.0026736056
2.8047523e-07
0.0021749503
2.4036751e-07
3.9029421e-07
0.0021746301
3.3544666e-08
6.5777382e-07
0.0026734226
2.9635891e-08
8.6704481e-07
0.0031054528
2.7152725e-08
1.0464635e-06
0.0035608927
2.4998701e-08
0.082505715
1.6561127e-07
5.5654277e-07
-9.8280402e-07
0.08250798
-3.555266e-06
8.3610125e-07
-8.0914439e-07
0.003560855
-2.2383587e-07
-6.0719913e-07
0.0031053696
-1.9592823e-07
-3.589102e-07
0.0026732736
-1.6488816e-07
0.0021743431
-1.2053045e-07
3.733219e-07
0.0021740606
-2.1952789e-07
6.3991276e-07
0.0026731217
-2.7681631e-07
8.5891063e-07
0.0031052866
-3.2139509e-07
1.0574908e-06
0.0035608126
-3.6282229e-07
0.082510152
-5.6048287e-06
1.1553277e-06
-1.1774536e-06
0.082511992
-5.8110972e-06
1.6385513e-06
-9.4449163e-07
0.0035607472
-3.8509063e-07
-6.8771128e-07
0.0031051781
-3.4334983e-07
-3.9138874e-07
0.0026729522
-2.973446e-07
0.0021737696
-2.3556361e-07
4.0499369e-07
0.0021734462
-1.5619151e-07
7.1842428e-07
0.0026727446
-2.0661772e-07
9.9250869e-07
0.0031050293
-2.4324303e-07
1.2482884e-06
0.0035606339
-2.7639803e-07
0.082513193
-4.3589787e-06
2.1835915e-06
-1.304236e-06
0.08251362
-2.0897751e-06
2.788357e-06
-1.0275232e-06
0.0035604586
-1.0414245e-07
-7.3655759e-07
0.0031048256
-8.4630896e-08
-4.1082414e-07
0.0026724905
-6.2602803e-08
0.0021730875
-3.2527829e-08
4.2318649e-07
0.0021726914
9.1852998e-08
7.6382861e-07
0.0026721902
8.2321475e-08
1.0741895e-06
0.0031045679
7.5122788e-08
1.3704133e-06
0.0035602262
6.9379632e-08
0.08251324
2.152799e-07
3.4938807e-06
-1.4577061e-06
0.082512098
2.1691664e-06
4.2940632e-06
-1.1324584e-06
0.003559938
2.1632243e-07
-8.0080503e-07
0.0031042642
2.1068505e-07
-4.3795907e-07
0.0026718457
2.0563103e-07
0.002172262
1.9863188e-07
4.6265792e-07
0.0021717977
2.8684679e-07
8.528041e-07
0.0026714611
3.0607024e-07
1.2151278e-06
0.0031039159
3.2011283e-07
1.5741382e-06
0.0035596009
3.3438412e-07
0.082510154
3.7179627e-06
5.2978843e-06
-1.7251676e-06
0.082507262
4.9828931e-06
6.593273e-06
-1.3224044e-06
0.0035592139
4.3276655e-07
-9.1878133e-07
0.0031035204
4.1195701e-07
-4.9625513e-07
0.0026710391
3.9107288e-07
0.0021712959
3.6277336e-07
5.3429273e-07
0.0021707583
4.3696881e-07
1.0053895e-06
0.0026705698
4.7274111e-07
1.4560934e-06
0.0031030794
4.9924783e-07
1.9131735e-06
0.0035587742
5.2558321e-07
0.082503189
6.1387345e-06
8.2951191e-06
-2.1382457e-06
0.082497162
7.4015879e-06
1.0939696e-05
-1.6175706e-06
0.0035582764
6.2970337e-07
-1.1085962e-06
0.0031025846
5.9765948e-07
-5.8659942e-07
0.0026700534
5.6533949e-07
0.0021701713
5.219411e-07
6.4372475e-07
0.002169532
6.2545052e-07
1.2296256e-06
0.0026694774
6.7815645e-07
1.8090557e-06
0.0031020244
7.1743095e-07
2.4057485e-06
0.003557709
7.5618707e-07
0.082487144
8.9187702e-06
1.584394e-05
-2.73931e-06
0.082468092
1.0750725e-05
2.6243243e-05
-2.0446563e-06
0.0035570557
9.0976593e-07
-1.3794609e-06
0.0031013879
8.628607e-07
-7.1571002e-07
0.0026688312
8.1554286e-07
0.0021688266
7.5219181e-07
7.9718596e-07
0.0021680486
9.0252313e-07
1.5545921e-06
0.0026681019
9.7827814e-07
2.3179841e-06
0.0031006679
1.0348917e-06
3.1159887e-06
0.0035563192
1.0907736e-06
0.082428712
1.2872379e-05
4.8710243e-05
-3.6526473e-06
0.08234747
1.5108894e-05
9.4189104e-05
-2.701342e-06
0.0035554682
1.2913629e-06
-1.7958345e-06
0.0030998343
1.2272976e-06
-9.0953648e-07
0.002667265
1.1630768e-06
0.0021671759
1.0784187e-06
1.0632542e-06
0.00216616
1.2374715e-06
2.1159785e-06
0.0026662873
1.3296968e-06
3.1944023e-06
0.0030988682
1.3980869e-06
4.3304174e-06
0.0035544917
1.4661927e-06
0.082190705
1.6922672e-05
0.00017542048
-6.6557762e-06
0.081921582
1.766153e-05
0.00029809104
-4.8465182e-06
0.0035529854
1.5956246e-06
-3.1446687e-06
0.0030973926
1.5356102e-06
-1.5409555e-06
0.002664854
1.4789193e-06
0.0021647641
1.4116761e-06
2.9813775e-06
0.0021619735
1.390599e-06
6.2310584e-06
0.0026618912
1.4482242e-06
9.7980625e-06
0.0030942135
1.484335e-06
1.3793768e-05
0.0035495032
1.5230086e-06
0.081524904
1.6137596e-05
0.00044376756
-3.9454266e-05
0.081054109
1.6526275e-05
0.00056508522
-2.7578352e-05
0.0035391512
1.7743655e-06
-1.718107e-05
0.0030851278
1.7698038e-06
-8.0407241e-06
0.0026539108
1.7757634e-06
0.0021550338
1.7609088e-06
1.9146925e-05
0.0021377337
1.3529184e-06
4.1915563e-05
0.0026335349
1.5375764e-06
6.8150682e-05
0.0030616502
1.5733962e-06
9.8513393e-05
0.0035119168
1.556499e-06
0.080653571
1.8833382e-05
0.000589129
-0.00019638724
0.080541391
7.7881208e-05
0.00053832479
-0.0001351604
0.0034633952
5.624173e-06
-8.2783496e-05
0.0030209942
5.2414705e-06
-3.786609e-05
0.002599726
4.6522256e-06
0.0021106251
3.6897037e-06
5.4930274e-05
0.0020685246
1.8567652e-06
0.00011681918
0.0025531504
3.5430849e-06
0.0001874318
0.0029676631
4.7678958e-06
0.00026917081
0.0034006241
5.8047006e-06
0.080587637
0.00012534993
0.00059473377
-0.0010202844
0.00040116792
0.0017107516
-0.00074505307
4.2010657e-05
-0.00048906874
4.1583343e-05
-0.00024431068
3.7556774e-05
2.6636682e-05
5.564694e-05
-0.0021044331
-5.1849599e-06
1.8862086e-07
0.00011892072
-0.0025925865
-1.548504e-06
-4.1155637e-06
0.00019124813
-0.0030128018
9.1413678e-07
-7.3542624e-06
0.00027522026
-0.0034540695
2.7967534e-06
-1.036065e-05
-0.080378381
0.00016321606
-0.00037128315
0.0005448515
-0.00019144225
-0.080555132
4.9245036e-05
-0.00018874972
0.00050769993
-0.00013145737
-0.0035067197
5.1196119e-07
-7.8437187e-06
-8.0549954e-05
-0.003057089
5.8334213e-08
-6.6754938e-06
-3.7067626e-05
-0.0026296112
-7.61021e-07
-5.6899871e-06
-0.0021345436
-2.1813479e-06
-4.7757672e-06
1.8091137e-05
-0.0021534293
-4.152797e-06
4.9476223e-06
3.9582196e-05
-0.0026519229
-4.2450118e-06
5.0658138e-06
6.4553411e-05
-0.0030828084
-4.3388061e-06
5.0876129e-06
9.3732284e-05
-0.0035364913
-4.4640335e-06
5.0571879e-06
-0.080995321
-3.6143954e-05
1.6859092e-05
0.00055320739
-3.6362521e-05
-0.081486779
-4.3545873e-05
3.2003473e-05
0.00053936383
-2.5249952e-05
-0.0035478587
-3.6962511e-06
3.9514568e-06
-1.5627751e-05
-0.0030927707
-3.4391687e-06
3.7795509e-06