/*--------------------------------*- C++ -*----------------------------------*\
  =========                 |
  \\      /  F ield         | OpenFOAM: The Open Source CFD Toolbox
   \\    /   O peration     | Website:  https://openfoam.org
    \\  /    A nd           | Version:  7
     \\/     M anipulation  |
\*---------------------------------------------------------------------------*/
FoamFile
{
    version     2.0;
    format      ascii;
    class       volScalarField;
    location    "60";
    object      omega;
}
// * * * * * * * * * * * * * * * * * * * * * * * * * * * * * * * * * * * * * //

dimensions      [0 0 -1 0 0 0 0];

internalField   nonuniform List<scalar> 
25278
(
157.61766
160.18077
151.89011
151.88674
157.00321
160.18772
163.81962
157.62136
163.80639
179.55598
166.84172
158.56798
156.61237
153.82294
235.54974
151.84782
160.17482
236.93914
278.26265
239.90229
193.35826
179.7118
164.59311
166.56729
195.04099
166.55433
164.58704
196.05892
206.71564
207.32505
227.64846
225.12657
278.09631
243.76334
248.02028
256.9539
257.01698
272.31726
271.24044
309.37291
287.046
288.38575
309.68336
309.92648
269.3246
223.77745
181.00917
194.80306
238.56955
242.89262
252.58183
249.05403
325.66756
306.99967
283.15863
284.4045
295.34167
293.67606
343.58721
327.47888
329.00301
344.52951
355.72717
302.30601
300.93273
305.25804
306.55604
361.74777
361.0329
354.65945
413.91585
396.50644
373.45253
347.94866
317.68629
294.63284
248.03718
207.33056
179.67854
180.09615
176.56811
235.36458
236.83598
277.72785
195.00238
189.82817
275.42702
343.3851
305.49952
264.06209
272.77051
319.70487
305.98773
381.92037
394.81325
319.19351
322.15477
273.85885
285.96818
340.49176
322.55114
407.00161
421.17809
340.1056
390.29301
366.08243
360.26198
478.93654
459.76479
522.4
371.0555
393.01062
553.71823
586.50239
498.06055
519.28589
623.95158
430.7757
399.73068
399.89398
277.76349
195.00133
156.99853
306.18381
382.25923
460.16197
522.68065
371.15936
275.47439
189.83028
176.56253
180.09346
236.84019
235.38487
305.6606
343.5921
360.50971
393.15933
554.15948
479.45541
498.73692
587.19799
624.9699
431.02214
390.6109
366.36121
322.32184
319.38515
395.19564
319.97373
235.625
264.16001
272.86428
273.93777
237.00382
286.02503
340.28782
421.7067
520.20368
712.35859
972.45622
970.75061
711.94243
522.51013
391.84398
367.53727
402.5085
434.05509
635.13581
595.29335
500.83308
671.66042
878.22844
990.87421
1379.2698
1184.6217
864.37021
865.18634
1176.0416
1366.1723
981.35061
872.30127
671.72491
501.59614
407.45496
322.80465
340.76886
392.48203
523.47519
636.22599
596.00813
403.5184
278.59452
368.10012
435.40096
444.1384
678.09481
1116.8516
1612.141
1631.2333
1132.1311
676.35551
442.5973
399.5107
343.85035
287.17402
243.72976
206.69184
225.10448
227.64859
256.93702
277.97451
286.97215
288.34409
257.01709
272.30334
271.21899
309.17873
309.54951
309.85046
285.43743
243.73471
204.35895
180.99004
204.65949
243.79837
252.15588
224.07448
223.78669
254.22153
254.25666
285.29286
308.49837
269.83019
269.33264
281.41395
238.61209
194.86472
193.35202
239.82986
242.90921
283.05256
306.59327
327.10821
328.71147
284.35076
295.22311
293.5086
342.96336
344.04009
355.03418
302.13931
252.57108
248.94265
324.95041
300.65492
353.80248
360.15209
304.96295
306.37085
361.00882
361.58974
355.81224
345.04131
329.7767
328.10187
281.73513
292.23429
291.7848
298.51303
247.50915
247.24879
238.42321
278.36825
266.69709
266.30492
251.53034
281.35696
282.11657
305.95572
303.66954
322.30784
277.67522
287.55634
288.23568
339.58671
325.21527
357.84497
345.94676
331.16991
315.25726
289.61507
243.74735
204.63237
204.3396
243.69414
254.19769
254.21215
269.78465
308.50866
285.25254
285.43597
319.16816
292.09218
318.56551
333.80963
335.33615
334.9416
351.49713
320.30483
360.65992
355.65178
394.37993
397.6586
446.94953
399.09573
360.50034
320.18861
317.5433
343.50163
355.46864
393.74209
347.54764
351.16318
397.08066
446.31113
441.3527
393.8902
432.1051
442.02548
499.33441
502.26922
475.98048
450.91848
425.1963
402.532
378.79141
357.23073
358.17443
375.54456
350.69677
349.85664
375.68121
399.63057
400.38471
379.73498
359.45879
360.17833
378.51804
356.54479
356.13083
333.41173
348.50368
348.84307
374.4536
373.25447
397.86582
377.63742
401.18499
401.87837
403.63587
425.48157
425.74294
450.82638
451.23261
426.16955
400.59036
359.3367
319.09183
318.54561
360.09961
378.25474
356.36867
333.72375
335.21372
334.77627
356.97701
357.94933
375.17694
350.46564
349.55976
375.25781
399.03429
378.44356
379.41934
403.24915
402.12001
424.97589
424.76292
399.84025
398.90745
374.13707
348.6594
348.37352
333.36896
356.00371
373.01396
397.45525
377.41025
400.88645
401.51286
423.59903
421.94538
419.63908
397.79551
354.98639
353.83839
313.62923
328.46479
330.482
352.82622
353.50321
371.1187
369.57023
345.32136
342.80941
341.96186
327.60711
349.51072
350.46941
367.49016
365.73395
389.18093
370.15089
371.65059
373.74721
374.95298
395.44642
393.53439
417.44968
396.7561
394.00236
392.62778
412.48953
414.89471
391.32718
407.85961
381.85863
354.34515
356.93707
384.0951
385.96879
387.9376
360.29145
360.81016
362.61553
361.66167
378.24745
372.61694
397.95326
427.79552
434.08134
467.52763
400.54917
395.09699
462.13054
538.17205
487.1735
538.25497
560.75981
566.5896
495.23173
546.69935
647.7662
642.46827
742.88834
589.87764
490.46023
411.90901
439.25481
421.96492
427.68859
417.74839
497.24891
517.24621
510.61099
632.37652
662.15835
858.78728
899.58422
763.57047
603.60644
651.67581
610.03313
590.07326
565.64345
541.78837
517.46005
495.21559
472.03395
449.93181
424.76768
425.77383
451.67691
450.59496
477.95403
477.14669
450.35895
448.91687
423.97718
399.69993
424.34766
423.201
447.62827
422.52532
424.26913
399.37683
417.27854
389.83537
361.07573
328.18431
281.68849
281.41875
291.82617
292.23409
343.21925
345.40367
329.97248
362.08876
378.99813
401.85001
470.46619
435.55355
429.30083
465.14501
495.146
501.9708
419.63443
429.79233
424.18923
516.22378
522.90451
666.29917
614.28222
552.31081
497.54471
489.40924
542.04965
543.47803
650.45416
562.97612
569.01973
656.27657
784.65133
761.00764
599.4851
645.22483
890.24204
937.24207
851.97
720.41329
621.79892
554.17004
497.52519
453.37975
411.19118
362.15978
302.59786
247.45908
247.15178
238.36073
224.04244
252.09022
251.46179
266.20916
266.61842
305.90863
282.0454
281.27213
303.56835
322.21058
277.5563
278.27669
288.17735
287.45307
336.13359
339.65485
325.18188
357.97974
346.02422
331.18165
315.22863
313.57512
328.40889
330.45929
345.34462
369.67387
352.86494
353.58964
371.27404
395.77663
375.13878
355.02924
353.84141
371.73239
350.48786
349.47365
327.51724
341.87558
342.77035
367.5275
365.71285
389.25352
370.18246
392.71405
394.15649
396.94718
373.87553
393.76617
417.82508
420.10006
398.04501
420.19576
395.04301
391.82116
415.59859
418.51291
442.22382
444.91212
470.5165
444.69004
448.40583
449.45723
451.99234
477.999
478.83881
506.6196
506.23204
476.53703
505.59883
505.93651
538.56369
536.56198
533.89024
503.9506
476.1091
449.73884
472.89489
444.71936
446.01783
418.36877
390.93918
362.97018
375.06899
374.14254
405.08648
390.56921
416.9823
434.08331
434.83064
404.80708
403.48474
372.83857
372.29297
360.49996
388.35195
401.79236
413.7823
381.58822
382.37426
384.72481
383.9459
393.3677
394.09916
428.57389
417.29869
417.32696
429.20653
464.17433
449.20746
450.25291
464.69351
503.70392
484.71231
465.56791
466.25016
445.67745
473.62297
474.60886
497.82878
497.83949
534.08092
504.78885
504.5133
532.29331
529.73719
495.77067
463.94316
433.50849
431.37066
415.43965
442.54193
461.38263
479.73021
446.14304
448.60882
415.75367
426.7695
391.39375
390.5566
424.54121
459.94315
462.80632
501.42598
482.74267
519.45213
521.96218
521.45125
485.03576
505.02987
523.17226
477.28102
438.96022
400.70103
356.33498
298.59399
298.74891
302.71701
359.25044
353.69889
349.65612
294.55331
293.53346
297.17908
298.26251
354.88459
350.50965
345.57869
388.2722
382.09419
374.00888
365.27239
354.33646
357.00331
368.34869
369.35316
399.43455
386.27738
384.30531
397.18102
394.52362
381.96131
379.7863
353.14361
364.03959
392.07095
402.77065
372.48668
380.44515
412.11842
415.28248
405.57229
408.56588
377.24376
378.51948
387.09514
385.72735
418.67568
421.56652
411.1489
443.11681
428.74589
413.15931
410.74278
425.9137
454.89766
437.03392
439.87766
458.26204
476.08732
472.06815
439.83432
452.70148
456.47624
493.73826
497.96348
515.94588
472.66956
433.90301
397.31372
398.37158
401.22578
407.57974
407.09207
447.59196
446.59363
438.42987
436.39518
444.33722
404.45137
403.33281
441.63029
447.19322
407.06459
408.31496
411.54722
413.8054
413.45565
456.56934
455.46587
452.43188
450.05182
453.00813
410.48925
409.21815
450.07386
496.50953
492.08783
483.71732
487.15831
475.84816
478.02634
489.50917
489.03882
541.06575
539.46146
522.31388
519.80442
536.8618
532.77566
546.38649
550.54718
495.70544
498.18954
502.72562
502.13405
561.86812
560.56013
553.09377
624.42412
601.33275
574.49226
547.48723
547.64153
600.30112
563.9001
562.93331
597.92552
594.88173
544.74218
540.61277
515.82719
492.66791
470.30814
499.32513
473.68574
501.00076
472.23706
448.15161
422.86736
446.91514
472.93481
475.2898
449.16129
474.2038
503.34861
500.43602
530.3295
526.21951
497.41658
468.8172
444.4601
419.91587
418.2831
442.8484
466.84118
441.71727
444.29856
469.84551
496.90711
493.27556
466.14274
443.02618
467.41485
463.92864
439.23121
415.18766
391.48131
408.13397
405.50719
419.83907
422.8914
451.32384
434.03389
430.95867
412.67716
436.31129
413.65934
437.40376
439.30841
462.50744
439.14964
415.41605
413.53236
437.29696
460.26127
436.02728
438.81737
463.44874
489.36288
485.52554
459.6312
485.82078
460.62063
483.49908
456.77097
460.32882
463.86565
467.19626
488.99025
484.96431
516.97477
491.78696
495.71213
521.7354
526.08372
555.73403
559.99276
605.36537
566.62694
533.78469
502.40802
536.48682
536.28321
570.90391
569.73958
610.83769
571.04827
572.40435
614.16865
661.47095
608.77765
608.83732
656.78806
657.1863
727.34857
724.50358
659.96518
656.1437
607.13861
567.83505
563.58874
530.18249
562.34541
602.22003
650.76962
600.51537
648.7843
590.2345
584.2658
535.53873
511.45079
506.60116
529.7004
489.02138
483.9397
448.65033
436.31635
432.77472
444.5055
478.6724
463.43026
447.66882
476.33976
480.72113
511.92173
487.68573
516.59542
489.75801
493.70933
521.81223
517.19937
512.53104
541.97545
511.70125
539.54179
506.71546
531.7625
495.98103
501.38381
467.79842
523.32433
516.58083
560.69257
569.26305
538.4181
544.74362
550.59148
594.58921
557.30579
525.95867
521.42218
551.7328
589.95864
553.36996
558.71164
596.40098
644.10304
636.31392
587.77243
634.05404
577.22398
616.54514
554.74499
505.72665
464.48261
427.37768
392.09495
393.70975
399.41912
397.69828
434.55061
438.07048
430.63489
468.76259
479.47455
474.73378
521.51228
527.58428
511.17498
561.52479
567.23717
571.64972
598.87764
594.5219
677.78437
631.04147
635.61711
638.09361
638.29914
573.60845
600.23845
682.65365
682.11006
681.19183
725.41829
622.58997
618.64273
632.832
553.88607
558.07152
500.20717
499.83568
452.8034
410.39885
359.1608
302.6994
247.43659
194.79943
193.36045
236.9274
278.15322
322.20626
273.91965
322.39452
367.02997
402.1389
433.54794
391.20302
520.8333
633.21681
593.89762
499.49953
406.61492
420.66733
340.20162
285.90778
236.91051
340.03744
390.29052
518.76908
708.96438
986.38109
875.1847
669.32014
861.29949
1180.0181
1372.4723
966.45005
623.35347
586.02351
497.58429
366.19949
277.86018
399.85235
368.38949
502.45421
672.37526
862.97791
1176.3869
1366.7953
969.13113
713.20229
985.87431
875.04083
597.40519
638.16342
524.5708
392.91707
278.67342
403.80382
435.79819
444.60663
680.85902
1124.1597
1612.7344
1621.5905
1125.4118
673.70523
442.00838
325.54537
249.03678
252.55328
242.87626
239.85873
306.80219
293.56746
300.83607
305.21053
306.50868
302.22089
355.4794
361.64084
360.96384
354.38
343.28866
344.24116
295.2161
284.31567
283.04845
327.2421
328.78243
329.77559
281.34307
238.55243
238.34965
247.14041
298.25667
297.16361
293.49352
294.49865
298.68461
298.51731
302.55932
362.0513
356.11064
353.50286
349.49069
354.80685
350.44279
345.46341
335.99735
287.39592
288.09542
292.14259
291.71475
345.14302
342.99899
328.04032
281.62634
278.24022
277.51492
322.1132
325.07026
339.47406
386.68742
393.3031
399.05718
402.79522
404.99817
405.09215
403.04319
401.16484
403.14998
442.35182
439.68883
443.45468
446.22386
491.89079
487.59451
482.53594
486.65337
541.6705
534.46387
540.94774
548.34875
627.11626
612.74076
588.51325
580.98785
663.51537
671.92206
624.65946
706.17497
642.21695
710.13645
716.97434
721.77483
653.74604
715.9868
717.26928
713.22022
783.22007
791.04856
936.24333
813.33504
808.46952
926.23271
1056.2647
1091.6874
870.62198
723.75066
750.03405
637.73649
634.58625
745.92574
901.7263
927.78019
1227.5042
1173.4668
1570.4464
1320.2534
1088.0507
912.25543
800.58418
717.44942
659.44846
610.47494
571.1954
534.52089
502.9919
502.73258
473.04538
444.80941
417.50153
390.37845
389.91939
404.14094
373.54403
374.56075
403.98029
402.75685
389.32916
416.50715
414.79186
441.56265
443.59548
462.21231
432.34363
433.52482
432.6811
416.03951
444.39511
464.26277
463.68699
481.92704
448.41016
416.16234
384.05809
383.17299
416.04766
427.55462
392.37677
393.22288
427.06112
425.39685
414.73769
381.82483
372.41927
371.95625
401.17224
430.35121
459.82317
477.31689
444.62043
412.89343
381.11674
343.01674
353.35497
298.7374
302.69574
302.51429
302.51841
247.49325
194.8529
160.18071
151.85083
157.58027
163.81195
153.77139
164.56004
179.66843
193.34493
248.94794
252.56349
304.98718
325.01166
360.18801
361.04078
306.41015
302.15956
300.69785
353.91109
355.11573
344.04973
295.19878
242.87901
239.81025
306.61276
293.47804
342.99847
327.1301
283.01906
284.30537
328.70242
329.71376
345.02943
355.85949
361.62943
358.88982
358.87378
354.6753
349.46848
294.59304
293.63097
345.56312
336.17355
373.83957
365.20294
368.20152
369.10493
398.93971
396.81828
394.28231
391.94445
379.76309
353.21892
364.05207
372.4214
402.48805
405.14008
407.9702
376.96619
378.1543
410.3988
420.53254
386.56837
389.9037
390.64969
397.47075
400.17577
399.50187
436.913
436.55549
444.40908
406.35363
405.72987
445.21114
485.17393
473.9826
461.56327
447.27134
482.13249
500.96597
499.79849
462.1995
460.48913
446.92583
480.10813
497.67244
494.45609
457.84506
423.32112
432.36752
396.53358
402.40368
403.4039
442.34426
434.69189
472.8612
474.83957
517.12414
517.87521
534.56629
533.09401
485.73258
483.5987
480.38619
469.91374
511.18696
514.754
530.61205
526.79084
539.61653
488.44576
445.2825
439.84856
436.50841
429.29778
393.04306
391.55538
385.3168
417.8119
414.6272
381.78805
380.26975
411.65144
443.52521
432.15013
419.50995
405.34206
430.60479
433.51849
436.38182
410.34484
412.62235
439.0661
456.92624
427.87941
425.23526
453.76659
450.4233
422.38916
435.46762
438.74916
441.79619
473.94286
470.23702
486.22806
451.10339
454.629
490.54302
530.37347
508.17853
487.00561
466.06633
469.00475
471.44177
500.68785
497.76368
523.18551
490.43556
493.34673
495.28249
529.09655
530.79492
567.28235
566.16912
534.70587
569.78901
607.38985
610.71717
654.60111
602.42641
558.63912
557.65537
517.99089
541.62659
589.58862
591.97394
646.46891
645.75556
602.31825
652.83249
711.23975
714.5039
787.0719
696.68435
626.39176
625.75215
566.34777
590.81015
665.06092
666.23667
758.75757
764.33826
699.49009
790.09801
897.33733
890.84543
1004.2842
819.77543
700.51232
702.62258
612.16319
545.96878
494.07468
450.12783
410.27889
409.76101
450.85946
454.12006
412.07771
412.59071
453.2301
450.96538
447.93707
407.22057
406.11565
408.31465
409.45397
409.4895
412.64512
412.11056
427.80334
422.06036
439.53349
510.9177
517.60376
497.98653
417.99515
412.15214
491.14625
591.44888
633.17401
663.60974
861.00083
902.60992
652.71537
605.52261
767.84532
746.30266
645.02541
539.53362
462.77278
395.31972
398.27955
372.78338
378.3639
400.75273
468.18812
434.51862
428.23991
488.09175
539.46895
562.34392
568.34014
650.71646
548.24456
496.21424
496.14769
518.65697
543.27912
567.33676
591.74009
611.33392
623.13532
622.66262
554.70704
546.9542
493.31589
498.00983
498.72409
553.52225
551.17734
543.52749
491.78941
496.43989
493.00853
448.26374
444.64352
441.79807
402.24294
398.63391
397.05778
433.21435
426.26295
422.74913
387.87881
386.10965
419.41781
425.73838
391.18292
393.07556
429.37363
467.36776
458.09924
447.35722
481.6096
466.31895
462.27164
447.00741
475.22733
456.1888
459.56957
462.91109
490.56871
494.27363
519.08911
514.60921
483.23309
479.29098
509.89603
486.65142
482.70695
505.07361
537.43806
510.76477
515.44188
520.05936
524.45696
528.55329
532.07508
566.59549
562.39967
598.85441
558.94611
563.08621
526.64965
554.78843
515.63845
512.23952
550.73746
581.98955
535.09774
538.98328
586.51508
642.39488
598.84776
594.1011
643.49074
648.86703
603.694
650.1283
605.78037
609.67942
656.90732
710.42662
654.51936
657.01201
656.80825
648.08711
749.59023
776.52334
788.18573
963.26272
779.99156
768.72834
951.23344
1241.1953
977.03177
1029.2855
1457.5648
1292.3479
1716.0047
1966.2989
1309.2212
1710.0274
1283.6714
998.73718
950.98599
1102.2859
1219.9867
1647.1731
1230.947
1376.5147
1872.7581
2336.6054
2027.4951
1558.5375
2080.0778
2403.2384
2627.1811
2281.9331
2277.9583
2075.5216
1707.8413
1285.8844
886.4965
643.67981
515.58405
423.95361
429.52885
419.01025
413.31755
493.70839
500.37085
522.12776
664.19403
610.45156
596.41931
754.71909
776.57247
931.94007
898.61346
744.05872
633.54161
561.27751
501.79546
456.37626
413.36008
413.71923
411.24961
410.88227
452.83904
451.90563
455.24129
502.35881
497.19573
496.5938
552.49322
551.31854
559.87971
557.34079
553.11359
496.10836
449.86851
409.13413
406.80612
408.05235
449.51333
446.66069
440.88977
402.94676
404.05017
407.15524
406.65123
400.19895
400.73697
437.59142
445.81993
446.8327
438.10012
475.89698
487.79518
488.18111
476.58152
519.94363
537.12151
538.84206
520.8969
502.98197
462.87617
428.39152
392.86182
401.21924
395.8804
398.81167
372.98137
378.51524
434.63204
469.02499
463.80157
428.41017
487.94914
540.98467
539.96948
646.16864
651.33924
549.4025
495.94117
566.78356
560.90951
498.48342
441.31441
393.87465
347.66586
309.20755
271.18429
227.63874
179.69756
180.98002
223.7775
224.04005
204.69074
195.08103
204.39526
207.36134
196.11227
206.73785
225.11318
277.99596
256.9278
248.03547
257.00096
272.26366
309.54419
288.32943
286.96855
317.55508
294.59208
320.19199
351.23719
397.1967
360.43913
355.4019
343.55547
287.08823
243.74998
343.43154
431.57389
393.637
398.84589
446.23887
501.48644
446.09925
441.09485
393.67435
355.3635
360.40471
320.16188
317.50642
347.56088
351.17649
397.03772
402.06201
359.26693
292.09093
319.08659
334.79622
309.82412
269.28199
269.75569
254.21701
243.74714
254.20219
285.40759
285.25036
308.4305
305.85245
266.60189
266.19694
251.47755
243.80581
252.09798
282.05112
281.27417
303.50995
342.6711
354.19331
365.03348
373.7211
381.74037
387.9261
393.23898
396.67764
398.68933
398.77385
396.90729
393.55963
391.49536
386.34692
420.07773
423.62473
430.45028
426.55118
431.16264
394.67867
396.47347
433.54053
437.85779
435.34513
476.96347
469.5664
459.83937
455.08624
464.21186
507.46382
493.51429
499.76597
514.714
527.06435
518.97148
471.13511
474.80029
480.85874
533.93873
525.42431
597.21817
583.93057
562.07452
538.72617
547.06548
572.065
652.38253
606.83192
595.80327
638.73542
687.25798
702.21536
595.22673
604.92137
619.23545
746.36479
713.16324
720.36116
724.34611
754.65002
753.80927
636.39835
634.96999
636.48264
621.18
618.97892
715.35985
717.83716
747.69613
750.97617
751.23703
631.20147
614.56078
544.3424
491.03641
494.678
548.61295
534.38447
485.78753
443.57316
435.56382
397.9185
396.87918
433.09588
471.22269
482.32739
530.20601
513.43816
517.31879
474.38264
461.48338
425.97847
390.94361
393.61445
384.28936
383.49443
416.61355
416.61858
427.74395
463.36406
449.14986
448.09909
483.35016
483.03144
501.60838
499.30253
495.86046
458.66088
423.78405
390.122
381.20749
381.98513
415.09718
413.1641
401.30792
371.98199
372.49239
374.69766
373.73042
361.76228
362.67128
390.54877
404.24623
404.48493
390.11359
416.34489
433.20406
433.98954
417.76632
445.14431
464.29225
464.94375
444.75096
472.41444
496.08086
519.09486
544.61533
570.09458
596.70433
597.31019
570.64206
631.99793
675.23527
676.61455
632.77909
705.28261
773.92945
843.665
860.05038
923.60543
1221.8181
1169.1334
1042.9372
1074.303
1105.2783
869.03892
718.3517
618.90575
594.45072
589.74223
562.94648
567.54254
628.90116
673.34374
668.89803
715.95284
874.60291
958.78164
965.8451
892.11659
795.31506
712.35894
813.62215
814.89208
949.15448
794.61435
882.56841
947.74844
1294.721
1129.055
1168.5505
959.72277
967.6458
792.80209
786.40171
697.41148
802.00567
701.3406
690.52596
624.50547
580.19003
545.7767
582.98106
547.76342
582.27725
546.86656
552.35189
557.57579
593.19541
554.10233
548.80485
586.95244
580.27932
543.1927
574.99938
534.68497
498.91749
503.68399
540.46177
545.86997
576.34959
569.83396
525.04394
519.28609
513.2615
494.0059
528.679
555.0938
562.64059
614.36592
623.11751
581.97947
588.39701
636.94827
629.44815
686.88272
695.63744
630.83151
637.32561
702.71251
707.97487
789.84442
697.26724
622.92013
563.53364
559.28864
618.24442
659.23996
583.90918
588.22649
663.30433
765.54192
763.7455
692.75355
786.77857
910.41979
905.54629
1059.1501
842.04462
702.90699
610.06755
606.02877
700.49987
729.8195
620.20023
547.28093
542.14664
534.57372
521.97116
506.77149
466.29896
462.36552
501.81436
516.44392
472.11097
476.44254
484.28004
479.6206
438.27669
400.51705
402.54107
404.35164
404.36733
354.68245
298.31008
298.31576
297.27456
350.4509
396.40521
394.33669
430.28992
434.18252
436.80006
398.31058
396.16077
432.75002
472.99766
469.19374
462.48328
453.7263
490.79775
476.82306
471.9798
458.19173
443.55479
427.63008
409.7766
389.24185
348.04462
283.84162
238.5594
201.89752
193.62736
166.86241
169.46198
161.84741
169.43099
192.7927
181.00495
179.59091
201.92661
202.39357
238.33682
238.61879
248.36794
219.75828
220.00196
245.89959
247.9716
276.81061
277.44481
300.61997
262.50625
262.21359
298.17043
295.0688
273.51032
272.40917
245.16816
258.37451
259.04298
269.4565
232.84058
191.34725
192.23795
228.4471
216.3474
200.25714
200.89023
233.74338
233.61024
242.31052
242.14057
267.82594
268.61729
289.10816
254.87089
254.67119
286.45988
283.22924
264.81928
240.63708
216.80776
241.18112
264.02072
252.43582
252.09744
261.30494
228.30555
261.60639
297.79708
301.64427
264.15992
264.69702
268.45423
308.76404
292.37337
315.4858
302.07423
280.50581
238.28672
202.36293
219.91415
219.73578
248.2986
247.90114
262.09476
262.40071
300.48322
277.34905
276.71865
298.01323
294.91415
258.916
245.83479
245.0887
258.25194
292.22265
272.32689
273.42048
304.10988
307.79744
309.58514
325.0477
324.09149
338.22288
339.14304
363.39596
346.64273
345.66599
361.56665
359.32317
335.61832
322.01182
321.03398
334.58922
357.41855
342.12386
343.23554
363.65479
346.60525
348.01161
367.36831
365.84801
384.56157
386.7787
409.87157
389.29322
387.94699
407.40706
404.75722
382.20786
379.95098
362.02375
383.67547
385.17464
405.60689
383.08116
346.64106
307.8762
309.6663
325.157
324.22844
345.771
346.71191
363.47728
339.26502
338.38631
361.69055
359.48184
343.36482
322.16815
321.20134
342.27786
357.60055
334.79092
335.80875
346.63501
315.7163
272.93136
233.22083
273.60966
318.86867
332.15725
282.8607
282.18243
328.52222
324.42884
312.12884
342.52238
332.07204
318.77337
304.17988
341.11941
339.48264
355.50815
335.84599
338.34937
317.66764
330.95215
353.30152
355.24941
339.50077
359.37555
362.13266
363.72101
365.88987
367.37591
386.77211
384.62282
407.36714
387.93466
385.16113
383.70174
402.34788
380.08185
382.31323
404.75923
427.38131
405.57202
408.42956
386.50249
410.37487
408.498
430.36637
433.19166
457.03672
433.43365
431.57095
453.82365
450.49206
427.45
424.70563
402.31069
399.60842
377.48856
355.06873
331.85215
318.60474
317.51819
330.76788
353.15501
338.23395
339.35267
359.27899
341.08564
339.44446
302.00255
315.35327
314.21626
326.92001
328.10177
350.8412
335.74237
334.49445
348.84669
370.62721
353.7178
355.42965
357.66691
375.25697
397.23977
379.00976
380.39963
400.59739
377.96327
374.63812
396.05397
376.29159
374.77014
392.3315
394.69534
372.8841
387.09885
363.30336
338.17643
308.56631
268.27376
232.70848
191.26841
192.12187
180.98415
200.20692
216.22891
242.2105
233.53367
242.05459
254.49271
254.73777
288.94044
268.54457
267.7642
286.22456
274.84159
298.00365
295.88785
308.41806
310.58326
311.75126
324.16799
322.95372
344.43216
330.46519
331.69715
346.42991
368.15531
350.97972
333.77937
332.1418
347.07722
327.97992
326.56099
307.23179
318.91445
320.2893
342.03724
339.82706
361.05515
345.23492
365.95108
367.54138
370.18872
349.33126
365.91428
387.43745
389.73359
371.57208
391.31557
369.73054
333.82586
298.08531
296.0551
332.2157
347.23322
328.12259
308.57931
310.66925
311.84383
314.32545
334.57898
348.962
327.05131
328.26025
350.94908
372.99609
375.37317
357.74561
379.04076
380.42598
399.6813
377.63597
392.39442
368.20156
370.67263
345.31818
355.31211
356.6633
359.72752
349.32573
350.49276
377.39412
375.27309
386.90761
389.27925
360.92693
369.16718
367.67554
396.8548
399.52874
408.3462
376.65096
375.07087
405.34551
402.08284
393.90285
384.23549
372.89692
397.60492
400.20726
402.72552
416.54953
413.64016
440.14948
424.7264
421.8166
418.9536
395.03978
407.79461
381.79804
391.19998
362.90612
364.48113
371.54883
369.88132
399.11001
428.27153
418.7947
422.05566
410.69012
436.77497
433.4871
446.3892
450.21493
454.15475
425.41873
428.73841
439.6225
435.79098
467.1924
462.50573
431.98104
440.51874
408.8496
376.84885
337.00268
287.81163
241.19235
240.72583
283.66308
278.13282
277.10208
320.65548
328.45849
282.40329
285.53373
286.82602
291.14812
292.1396
288.73308
341.07791
345.64708
341.31438
336.63185
332.55974
371.31911
366.36114
359.67902
352.16634
350.74841
341.12776
365.94211
376.61446
379.06294
404.88218
402.04048
389.82172
413.33585
397.31941
394.76998
376.30487
374.81506
353.78184
370.70985
392.40774
414.21969
394.26297
396.04399
398.77444
400.57872
403.67183
426.17805
427.95587
431.5349
433.3469
410.29551
433.01936
430.27772
453.671
456.81597
481.5818
455.91263
453.11775
477.99842
481.79603
507.85759
503.35232
477.86226
474.16619
449.65616
427.9964
426.20623
403.70997
447.50217
470.79465
447.05092
470.7557
447.44054
424.70534
421.87119
419.31104
441.66819
420.93116
422.55191
444.36914
467.42492
443.75943
422.58167
420.93837
398.80585
419.2899
421.84563
444.36614
441.65805
438.83875
416.65509
414.16373
394.24653
416.14886
417.70328
438.43193
417.68776
416.1609
436.36831
438.86066
416.67041
434.04536
410.60205
387.21562
363.43889
338.35849
336.87707
361.1566
371.44705
346.14735
347.64381
373.89465
399.19653
396.4281
384.66024
407.90642
421.20765
424.13231
427.15523
430.2482
416.09985
439.87849
443.00105
446.1605
449.44142
452.77271
478.7405
474.88883
495.49215
467.1672
471.15976
500.24107
531.65309
506.11032
501.55429
530.15445
535.63181
541.23538
573.37308
612.39869
567.68737
604.88028
665.17674
676.60299
621.18446
674.38707
622.62808
630.54722
588.9156
595.14634
600.84281
646.89461
652.52233
705.56051
699.19043
644.48787
700.02026
706.06364
710.60516
711.11041
780.30771
715.48346
784.37752
781.9944
717.18144
800.14756
882.42818
886.16578
977.89417
861.08309
861.25419
777.66692
870.7039
786.36957
787.20507
874.7054
970.52979
969.5749
1100.3516
976.76463
973.68734
879.75475
797.63456
712.77332
706.80623
792.88103
874.50971
770.44333
777.1239
856.15763
772.73596
766.01113
862.30512
778.06338
783.27366
867.74532
966.47478
960.57233
848.97427
967.73102
1094.338
1099.2066
1309.7244
1162.0445
1043.5489
927.68357
923.4079
1114.2017
1297.6604
1037.9784
1027.4592
1271.2342
1631.8462
1744.879
1402.755
1728.1049
2324.0725
2072.6991
2427.4966
1878.1442
1434.1456
1143.5424
1157.1234
1465.5625
1647.4395
1302.5037
1290.6842
1103.7322
1278.8412
1124.0947
1003.8866
887.83348
897.0378
1013.0515
1247.2823
1065.4826
1043.558
1223.402
1389.1436
1419.8738
1137.2651
1290.2667
1609.1083
1580.1831
2005.298
1789.1851
1540.1946
1245.5246
1316.2214
1031.8928
834.37813
887.38996
727.8925
625.33682
623.8301
730.2622
902.60786
915.08533
846.48474
1084.5365
1266.0938
1207.5884
1153.2754
1109.0677
865.99834
724.96296
725.85192
728.97511
625.89522
553.79219
498.86392
453.29662
454.18214
451.08669
409.8747
410.39101
450.35779
448.15823
451.06495
448.3281
408.38681
406.22371
407.35175
403.52907
353.37236
298.73125
302.70688
298.54078
291.73538
238.5791
238.38381
247.22844
297.26326
350.4365
345.51533
293.59955
294.58882
349.46056
339.51365
288.16937
292.18553
342.94913
328.00842
281.64127
281.34653
269.27429
223.76167
180.98493
224.04162
266.60002
278.2731
277.56988
287.48787
336.06931
322.15279
325.08625
305.81913
308.37885
269.74525
254.18032
243.68634
254.17433
256.97545
272.27782
227.61451
225.08239
277.96934
271.17407
309.16758
309.5033
288.29533
247.97896
256.90008
286.94179
317.56584
347.62758
343.64321
394.01993
397.33022
351.2077
320.17878
294.62269
355.60907
360.59891
399.35346
446.87779
441.93414
432.68886
500.34186
503.29004
447.5087
442.62451
394.20366
355.82267
344.09141
287.19457
243.72104
196.05758
206.68548
207.3155
204.3486
195.07092
204.65772
243.7446
252.06573
251.45033
266.21625
303.5064
281.22869
281.96706
285.17274
285.35572
309.77719
349.54726
361.67424
373.59074
383.26648
392.49076
399.67231
405.88683
406.51377
444.70022
445.53555
437.2434
436.86768
400.29746
397.58342
396.61946
402.53476
440.10647
445.5218
488.88952
493.18709
496.58665
551.49554
547.59869
540.49272
544.37588
492.25623
494.49909
493.71418
498.1352
554.94121
547.71833
546.77394
534.13747
486.31638
485.72672
535.56027
518.93061
474.56991
475.42994
518.2209
515.8656
531.71558
484.16494
442.62773
434.95022
432.62246
470.4607
480.96588
527.90008
512.27909
507.85147
523.08504
535.46211
542.50218
488.89324
488.73933
483.9067
441.0312
441.0851
402.58103
400.58765
402.35128
441.97743
444.72212
438.46027
434.34575
436.86123
398.31545
396.17785
432.7839
430.41819
394.36882
396.45929
393.15006
397.16661
398.73649
436.75955
433.42922
426.46756