/*--------------------------------*- C++ -*----------------------------------*\
  =========                 |
  \\      /  F ield         | OpenFOAM: The Open Source CFD Toolbox
   \\    /   O peration     | Website:  https://openfoam.org
    \\  /    A nd           | Version:  7
     \\/     M anipulation  |
\*---------------------------------------------------------------------------*/
FoamFile
{
    version     2.0;
    format      ascii;
    class       volVectorField;
    location    "60";
    object      U;
}
// * * * * * * * * * * * * * * * * * * * * * * * * * * * * * * * * * * * * * //

dimensions      [0 1 -1 0 0 0 0];

internalField   nonuniform List<vector> 
25278
(
(120.04023 -0.004872934 -0.011057561)
(120.03224 -0.0091662132 -0.044703563)
(120.02888 -0.021114653 -0.031450699)
(120.02916 -0.031401066 -0.022459415)
(119.99461 -0.057332178 -0.015838707)
(120.03287 -0.046577046 -0.011039714)
(120.04777 -0.012110473 -0.00021417388)
(120.04057 -0.010978148 -0.0055913205)
(120.04637 0.00049884004 -0.0111365)
(120.05993 -0.012444452 -0.036734636)
(120.05211 -0.020248487 -0.031176059)
(120.04342 -0.01893888 -0.019859239)
(120.0353 -0.034544345 -0.035795471)
(120.01768 -0.045298928 -0.046567154)
(119.81836 -0.10469994 -0.15213114)
(120.02861 0.020949242 -0.030926338)
(120.03208 0.0099901192 -0.04405598)
(119.85084 -0.11379462 -0.1692863)
(119.77175 -0.049516613 -0.22663855)
(119.87888 -0.059894272 -0.2118555)
(119.98174 -0.018109999 -0.12591205)
(119.994 -0.04885513 -0.1012918)
(120.01036 -0.054145941 -0.07632821)
(120.04155 -0.041547083 -0.060481934)
(120.04787 -0.076210181 -0.078632732)
(120.0419 -0.05996712 -0.044043069)
(120.01033 -0.075916557 -0.056427084)
(119.9809 -0.10263712 -0.10447014)
(119.93729 -0.097392227 -0.14813354)
(119.97215 -0.10034027 -0.15067462)
(119.94632 -0.092140491 -0.18309067)
(119.90277 -0.087113804 -0.18932951)
(119.8314 -0.14682949 -0.25330758)
(119.87952 -0.15426099 -0.18754367)
(119.93101 -0.15021312 -0.19987521)
(119.90179 -0.13310333 -0.22904851)
(119.92639 -0.13599797 -0.23703572)
(119.90783 -0.12460722 -0.26932282)
(119.87754 -0.1209365 -0.26373159)
(119.82625 -0.1610774 -0.30465645)
(119.85414 -0.17548959 -0.2587651)
(119.88855 -0.1757363 -0.27224663)
(119.86646 -0.16195126 -0.31144798)
(119.90765 -0.16358509 -0.30789753)
(119.94421 -0.1210778 -0.26320458)
(120.00424 -0.083206995 -0.16374905)
(120.04363 -0.034973624 -0.080845611)
(120.04793 -0.011976516 -0.10143469)
(119.99617 -0.058966991 -0.191035)
(119.92613 -0.065007633 -0.21320028)
(119.9155 -0.022436525 -0.2340961)
(119.86174 -0.019834775 -0.23356042)
(119.7451 -0.036304055 -0.34653981)
(119.77702 -0.10777065 -0.30998181)
(119.85772 -0.10503668 -0.28705891)
(119.89115 -0.10837926 -0.29803634)
(119.87817 -0.083610772 -0.32972037)
(119.83866 -0.079595718 -0.31766606)
(119.76723 -0.10946196 -0.38164944)
(119.79493 -0.14162151 -0.340245)
(119.83804 -0.14420733 -0.35632597)
(119.81899 -0.113573 -0.39813627)
(119.80015 -0.072950285 -0.43259876)
(119.86861 -0.054133598 -0.35036422)
(119.82843 -0.051630901 -0.33330559)
(119.8213 -0.014432904 -0.34644287)
(119.86401 -0.015768138 -0.36407444)
(119.79313 -0.022330055 -0.44981047)
(119.73789 -0.02058055 -0.42129916)
(119.74784 -0.069527983 -0.40576196)
(119.61979 -0.089684902 -0.48967211)
(119.65303 -0.14395304 -0.45907027)
(119.69802 -0.18447475 -0.40150536)
(119.74845 -0.21104421 -0.35425357)
(119.79756 -0.21789238 -0.28964042)
(119.86522 -0.23091254 -0.23242162)
(119.93011 -0.19977467 -0.15328234)
(119.97125 -0.151287 -0.10417181)
(119.99333 -0.10311157 -0.052340797)
(119.95164 -0.11079809 -0.056397871)
(119.92495 -0.10923723 -0.052498812)
(119.81691 -0.15340439 -0.10675033)
(119.84936 -0.17066394 -0.11633072)
(119.76648 -0.23293368 -0.052050817)
(119.92851 -0.13579695 -0.021709484)
(119.89771 -0.12940737 -0.020068563)
(119.73315 -0.20041074 -0.046587187)
(119.49791 -0.25662833 -0.11645275)
(119.60579 -0.20985914 -0.15352568)
(119.72438 -0.16203489 -0.16218855)
(119.72951 -0.17606435 -0.17609499)
(119.60108 -0.16735511 -0.22699839)
(119.60731 -0.15206538 -0.20859267)
(119.4132 -0.21529961 -0.21661142)
(119.39574 -0.23408291 -0.23564815)
(119.59931 -0.22858662 -0.16893646)
(119.60911 -0.24728876 -0.17972192)
(119.74125 -0.18144979 -0.18149821)
(119.75432 -0.20475452 -0.20502994)
(119.61857 -0.2086871 -0.28158244)
(119.61117 -0.17800907 -0.2454979)
(119.38462 -0.27184895 -0.27367334)
(119.38661 -0.31957363 -0.32157322)
(119.61624 -0.28333083 -0.21086013)
(119.47941 -0.36932445 -0.16746742)
(119.48611 -0.31278251 -0.13966865)
(119.48515 -0.2823707 -0.13014131)
(119.13334 -0.33203024 -0.20636344)
(119.17254 -0.29702566 -0.1841199)
(118.97462 -0.35579069 -0.081322487)
(119.41312 -0.28805734 -0.042970132)
(119.39355 -0.3156501 -0.046628865)
(118.9176 -0.39733522 -0.092729327)
(118.86829 -0.47257023 -0.10845543)
(119.10195 -0.39648447 -0.2394988)
(119.08477 -0.47934496 -0.29327999)
(118.83669 -0.57127695 -0.13452182)
(119.38217 -0.40979492 -0.058037764)
(119.39464 -0.345497 -0.048091832)
(119.39454 -0.34624056 0.045921576)
(119.76649 -0.23313923 0.050757133)
(119.92844 -0.13595114 0.020736731)
(119.99466 -0.057509855 0.015563952)
(119.60332 -0.15458194 0.20945038)
(119.4081 -0.2189077 0.21580503)
(119.16835 -0.29937029 0.1825185)
(118.97184 -0.357918 0.077964838)
(119.41243 -0.28892543 0.040382889)
(119.73303 -0.20080779 0.0450825)
(119.89767 -0.12958033 0.019144805)
(119.92476 -0.1098488 0.051812703)
(119.95155 -0.11152158 0.055654396)
(119.84872 -0.1721078 0.11541891)
(119.81614 -0.15461586 0.10587747)
(119.60369 -0.21194924 0.15237468)
(119.49641 -0.25784007 0.11457963)
(119.48401 -0.28323635 0.12818385)
(119.39307 -0.31654551 0.044126289)
(118.91495 -0.39997452 0.089306349)
(119.12972 -0.33415416 0.20478503)
(119.09921 -0.39798763 0.23761452)
(118.86641 -0.47531666 0.10529721)
(118.83709 -0.57379426 0.13152883)
(119.38272 -0.41029436 0.056138066)
(119.47922 -0.36884964 0.16513164)
(119.48544 -0.31300731 0.13765829)
(119.6074 -0.24957324 0.17819159)
(119.59733 -0.23086545 0.16759872)
(119.39067 -0.23840698 0.23451538)
(119.59692 -0.17041745 0.2281956)
(119.81604 -0.10662515 0.15298353)
(119.72242 -0.16383408 0.16204087)
(119.72752 -0.17811204 0.17606532)
(119.73924 -0.18356002 0.18150959)
(119.8487 -0.11621922 0.17043206)
(119.75215 -0.20714982 0.20514132)
(119.61476 -0.28565783 0.20900714)
(119.38275 -0.32497494 0.31913764)
(119.08322 -0.48000941 0.29050872)
(118.41787 -0.56098582 0.5603743)
(117.44527 -0.78124206 0.42474273)
(117.46273 -0.77039566 -0.44207963)
(118.4316 -0.56516871 -0.55970793)
(119.09368 -0.2921184 -0.47745148)
(119.48678 -0.16533444 -0.36247226)
(119.49229 -0.13790479 -0.30672927)
(119.4072 -0.044396677 -0.33881983)
(119.39875 -0.053381494 -0.40242527)
(118.87121 -0.12354173 -0.5769295)
(118.89231 -0.10013085 -0.47789175)
(119.10979 -0.23793647 -0.39504527)
(118.49162 -0.43877784 -0.43532462)
(117.6898 -0.29639251 -0.60948357)
(117.54506 -0.4115886 -0.78387264)
(112.99909 -1.2489118 -1.4109194)
(114.61669 -0.78474505 -0.89907287)
(117.65047 -0.59738284 -0.31911102)
(117.63043 -0.60477323 0.30424101)
(114.50081 -0.80700448 0.82704143)
(112.78978 -1.2863688 1.2888712)
(117.46559 -0.44133466 0.81130453)
(117.639 -0.31205629 0.6243184)
(118.47597 -0.43819883 0.43634295)
(119.09626 -0.24573354 0.39599955)
(119.38002 -0.27688663 0.27201503)
(119.60704 -0.18134515 0.24685744)
(119.61441 -0.21253869 0.28292151)
(119.47785 -0.17032421 0.36777831)
(119.08151 -0.30133487 0.47774549)
(118.83698 -0.14287798 0.57723917)
(118.8623 -0.11229758 0.47983835)
(119.39239 -0.048813248 0.34740784)
(119.76607 -0.052079149 0.23101774)
(119.48391 -0.14189239 0.31131031)
(119.38111 -0.060169721 0.41270827)
(119.45571 -0.070636425 0.4873668)
(118.88948 -0.1870489 0.7484696)
(117.4093 -0.62652512 1.1803295)
(110.46204 -1.9328536 1.9022264)
(110.81618 -1.8998998 -2.0890994)
(117.51955 -0.57359321 -1.1404673)
(118.92497 -0.15946253 -0.74435404)
(119.47456 -0.0622208 -0.47626972)
(119.5504 -0.18552271 -0.42005211)
(119.68142 -0.23285537 -0.31312802)
(119.80165 -0.21233462 -0.21304061)
(119.87876 -0.18764758 -0.15652367)
(119.93638 -0.14880193 -0.10041053)
(119.90042 -0.1924287 -0.09049914)
(119.94393 -0.18641397 -0.096698965)
(119.89981 -0.23093716 -0.1367899)
(119.82898 -0.25575666 -0.15013106)
(119.8521 -0.26021179 -0.17893061)
(119.88642 -0.2737982 -0.1799626)
(119.92437 -0.23919485 -0.14045753)
(119.90453 -0.27346899 -0.12941555)
(119.8743 -0.26750126 -0.12474763)
(119.82281 -0.3078815 -0.16498472)
(119.86299 -0.31482025 -0.16682145)
(119.904 -0.31162977 -0.16980749)
(119.92954 -0.26938198 -0.17780959)
(120.00082 -0.18017034 -0.14013069)
(120.01754 -0.1314772 -0.091834374)
(120.04412 -0.082622712 -0.03914599)
(120.05696 -0.0983692 -0.071981291)
(120.07087 -0.13518345 -0.10748476)
(120.03665 -0.19459409 -0.11686247)
(120.06092 -0.12779306 -0.07240801)
(120.0025 -0.16747646 -0.089002175)
(119.95813 -0.23114699 -0.13601155)
(119.99863 -0.22004764 -0.13018894)
(119.98344 -0.26071848 -0.17228263)
(119.96216 -0.30433432 -0.16676144)
(119.9859 -0.25892544 -0.12311559)
(119.94095 -0.26784167 -0.12692486)
(119.92835 -0.30013416 -0.11328006)
(119.99286 -0.20005146 -0.065128845)
(120.04824 -0.10856917 -0.016079617)
(119.97966 -0.13186504 -0.021165405)
(119.87524 -0.21780486 -0.063074041)
(119.92206 -0.22052306 -0.069543708)
(119.85335 -0.29284539 -0.10894064)
(119.77181 -0.31646826 -0.11107994)
(119.78977 -0.34567854 -0.14587097)
(119.83253 -0.36264768 -0.14961797)
(119.88649 -0.30472182 -0.1134258)
(119.87158 -0.33952187 -0.088532384)
(119.83239 -0.32609437 -0.083174303)
(119.75959 -0.38979687 -0.1135892)
(119.81119 -0.40752356 -0.11909867)
(119.78944 -0.44550116 -0.078065944)
(119.8603 -0.36292166 -0.058413619)
(119.90921 -0.24564607 -0.025667917)
(119.85609 -0.24230702 -0.022134555)
(119.73574 -0.35560715 -0.039238261)
(119.82057 -0.34350647 -0.054758826)
(119.73747 -0.41596424 -0.073333529)
(119.72528 -0.43378023 -0.023947774)
(119.81184 -0.35874228 -0.016885688)
(119.85404 -0.37923252 -0.01899511)
(119.78026 -0.46546291 -0.026441466)
(119.845 -0.47884061 -0.028370289)
(119.85205 -0.45579365 -0.083316495)
(119.86567 -0.41325589 -0.12466237)
(119.8823 -0.36437927 -0.15446554)
(119.95033 -0.35752642 -0.15360241)
(119.97943 -0.29075235 -0.11023444)
(119.97747 -0.32580341 -0.086779996)
(119.9186 -0.33562208 -0.088392138)
(119.91176 -0.36026179 -0.059683039)
(119.98997 -0.2228708 -0.024598385)
(120.07489 -0.15964585 -0.020260797)
(120.06525 -0.14789135 -0.050330779)
(120.03014 -0.25919164 -0.099492199)
(120.03115 -0.23162841 -0.11079837)
(120.07282 -0.19052448 -0.091763416)
(120.07089 -0.15724196 -0.095967701)
(120.08461 -0.18778775 -0.12845593)
(120.03743 -0.23205765 -0.15573781)
(120.02518 -0.27694225 -0.15313517)
(120.08252 -0.22941909 -0.12823693)
(120.0928 -0.26514415 -0.11723761)
(120.07781 -0.21095575 -0.080979801)
(120.0901 -0.23137411 -0.063872107)
(120.03558 -0.28868998 -0.078593959)
(120.03185 -0.3666899 -0.11727734)
(120.0249 -0.32453988 -0.14201464)
(119.98865 -0.39965391 -0.19709489)
(119.99066 -0.36746193 -0.20337997)
(119.99655 -0.33349864 -0.20896293)
(120.03556 -0.27107963 -0.19764811)
(120.08428 -0.15926123 -0.163358)
(120.07113 -0.1020957 -0.13615229)
(120.0568 -0.066910529 -0.098164071)
(120.01805 -0.087340856 -0.13109329)
(120.00159 -0.13584532 -0.18066373)
(119.96007 -0.13076956 -0.22890376)
(120.00024 -0.12380127 -0.21752525)
(119.9888 -0.11582123 -0.25353719)
(119.96561 -0.15882137 -0.29998375)
(119.98539 -0.16569547 -0.2590754)
(119.93163 -0.17262269 -0.26788739)
(119.89788 -0.22552192 -0.3122135)
(119.97058 -0.22136469 -0.22409847)
(119.96772 -0.21577583 -0.30308221)
(119.9268 -0.21398477 -0.34972636)
(119.8945 -0.21698869 -0.35274252)
(119.86544 -0.21329277 -0.3479516)
(119.80033 -0.22510834 -0.37381936)
(119.84115 -0.22790186 -0.30848572)
(119.77834 -0.30685371 -0.36412451)
(119.7139 -0.29621975 -0.33537816)
(119.64465 -0.29264082 -0.42276484)
(119.72192 -0.30926556 -0.44832565)
(119.59181 -0.43733191 -0.52965)
(119.69579 -0.39657029 -0.39876222)
(119.77701 -0.36363623 -0.31013812)
(119.83932 -0.30917125 -0.23158891)
(119.79566 -0.2905039 -0.22080807)
(119.67896 -0.31470259 -0.23553471)
(119.71253 -0.33542078 -0.29858858)
(119.64114 -0.42453819 -0.29637633)
(119.74491 -0.35694573 -0.21472531)
(119.79696 -0.37641514 -0.22986075)
(119.71866 -0.44968029 -0.31421519)
(119.5894 -0.5290461 -0.44182628)
(119.50415 -0.48414388 -0.38755547)
(119.62509 -0.36362058 -0.36485623)
(119.43308 -0.39423276 -0.39592023)
(119.50681 -0.38462379 -0.48383784)
(119.32787 -0.53899283 -0.54083511)
(119.44926 -0.6020748 -0.60529199)
(119.61819 -0.5669489 -0.57072483)
(119.66968 -0.49619673 -0.54111299)
(119.72589 -0.41317465 -0.48934483)
(119.76752 -0.35292026 -0.45318877)
(119.80918 -0.29026219 -0.41468706)
(119.83706 -0.25137581 -0.38316692)
(119.8744 -0.25137409 -0.38906945)
(119.86126 -0.24110748 -0.42315598)
(119.88012 -0.20590743 -0.38211895)
(119.84479 -0.20266936 -0.37955661)
(119.8189 -0.24103747 -0.4206466)
(119.78438 -0.28807244 -0.46065557)
(119.83281 -0.29502235 -0.46880743)
(119.85213 -0.29487308 -0.42233099)
(119.85304 -0.30955233 -0.37265423)
(119.95395 -0.29879611 -0.3681178)
(119.89961 -0.29330927 -0.42426724)
(119.91266 -0.24937336 -0.38759247)
(119.95681 -0.24421172 -0.38372644)
(119.96412 -0.21046497 -0.34539066)
(119.95531 -0.20214837 -0.37682447)
(119.91459 -0.20448273 -0.38125009)
(119.90056 -0.24197896 -0.42565793)
(119.94803 -0.23805642 -0.42157401)
(119.94351 -0.29316378 -0.47367096)
(119.95336 -0.28727842 -0.42127641)
(119.95001 -0.34743637 -0.46644997)
(119.88284 -0.35410847 -0.46724151)
(119.82518 -0.35441736 -0.46504215)
(119.80693 -0.35241323 -0.52112159)
(119.74199 -0.34933883 -0.51166401)
(119.68698 -0.42037643 -0.56147883)
(119.76428 -0.43554297 -0.57958519)
(119.79277 -0.42361555 -0.50489713)
(119.79581 -0.41782392 -0.42098246)
(119.85172 -0.37167422 -0.31385012)
(119.89604 -0.31268694 -0.23008451)
(119.96596 -0.30339935 -0.22193457)
(119.95265 -0.36631118 -0.30508174)
(119.89674 -0.4251083 -0.30092413)
(119.90967 -0.38943618 -0.25662062)
(119.92382 -0.35232313 -0.22094867)
(119.89146 -0.35520359 -0.22311528)
(119.86244 -0.35017687 -0.21860158)
(119.83403 -0.38483572 -0.25673377)
(119.87135 -0.39086819 -0.25760863)
(119.85703 -0.42631465 -0.24800974)
(119.87596 -0.38607173 -0.21251711)
(119.84063 -0.38322802 -0.20830011)
(119.81468 -0.42365046 -0.24693242)
(119.78007 -0.46292914 -0.29424566)
(119.80628 -0.41567985 -0.29569197)
(119.84922 -0.42326216 -0.30131517)
(119.82242 -0.46480534 -0.36101934)
(119.76479 -0.45318373 -0.35840635)
(119.73768 -0.51284911 -0.35579894)
(119.80261 -0.52215634 -0.36019994)
(119.8285 -0.4710917 -0.30243153)
(119.88134 -0.47784456 -0.3061831)
(119.89631 -0.42920219 -0.25020647)
(119.91044 -0.38561926 -0.21214561)
(119.95137 -0.38174271 -0.21104862)
(119.96134 -0.34834234 -0.21856226)
(119.95395 -0.38581553 -0.25269975)
(119.94392 -0.4255223 -0.24761257)
(119.93922 -0.47649378 -0.30371883)
(119.95057 -0.4222037 -0.29630004)
(119.94735 -0.46573364 -0.35694334)
(119.88012 -0.46671618 -0.36201934)
(119.86391 -0.53184119 -0.3669355)
(119.93724 -0.53279875 -0.36427425)
(120.01229 -0.51849058 -0.35249567)
(120.01184 -0.44840892 -0.34108675)
(120.05344 -0.32589257 -0.26736036)
(120.14216 -0.25428327 -0.20744673)
(120.09764 -0.21456639 -0.15937825)
(120.06701 -0.28449498 -0.17969339)
(120.03519 -0.3120873 -0.19588347)
(120.04295 -0.34719688 -0.22590448)
(119.99743 -0.37028243 -0.24174811)
(119.99222 -0.41152816 -0.23945969)
(120.04149 -0.38795427 -0.22556165)
(120.03311 -0.34562062 -0.19204097)
(120.06867 -0.31543476 -0.17553674)
(120.10158 -0.2761641 -0.15366472)
(120.09612 -0.24849061 -0.15607575)
(120.11572 -0.27519342 -0.17713468)
(120.08167 -0.31466188 -0.20537624)
(120.08475 -0.3517772 -0.20413511)
(120.12248 -0.30931961 -0.1784099)
(120.15622 -0.34486352 -0.21344154)
(120.14151 -0.29856814 -0.20202772)
(120.10164 -0.34487525 -0.23721432)
(120.05653 -0.38017001 -0.26318274)
(120.00173 -0.40670265 -0.28299555)
(119.99982 -0.462818 -0.29331988)
(120.05902 -0.43608195 -0.27551653)
(120.08589 -0.48840156 -0.33039917)
(120.0793 -0.41931931 -0.3164391)
(120.13536 -0.37902282 -0.28353214)
(120.18333 -0.32404548 -0.23865993)
(120.20399 -0.38141251 -0.25234302)
(120.15092 -0.44166572 -0.29491629)
(120.11224 -0.39593745 -0.2473316)
(120.12919 -0.44429675 -0.24867849)
(120.09492 -0.39031407 -0.20425859)
(120.07346 -0.34191931 -0.17107323)
(120.03517 -0.37562175 -0.18636566)
(120.0466 -0.43119947 -0.22411774)
(119.99238 -0.45720699 -0.23695516)
(119.9383 -0.47169887 -0.24302758)
(119.94631 -0.41486798 -0.20294096)
(119.90104 -0.41869854 -0.2030765)
(119.86257 -0.41815895 -0.20147659)
(119.82429 -0.41199263 -0.19722665)
(119.74571 -0.44189092 -0.20395652)
(119.69216 -0.40651045 -0.18878393)
(119.54246 -0.42692466 -0.18869312)
(119.55961 -0.49350622 -0.27220158)
(119.63659 -0.54703394 -0.29489631)
(119.57766 -0.64659607 -0.24401451)
(119.70788 -0.50953503 -0.16516034)
(119.64361 -0.46717065 -0.14826923)
(119.48143 -0.58264741 -0.21945947)
(119.2502 -0.71444191 -0.30879346)
(119.37318 -0.58350681 -0.37171541)
(119.11765 -0.6101469 -0.37429698)
(119.12802 -0.67702679 -0.55459001)
(119.24787 -0.8145313 -0.64708806)
(119.4528 -0.67513693 -0.43502915)
(119.3535 -0.83168357 -0.38001275)
(119.09353 -1.0614398 -0.61190015)
(118.92607 -0.88468158 -0.49998512)
(118.763 -0.97954899 -0.37354608)
(119.15761 -0.77586959 -0.20874951)
(119.4241 -0.62523231 -0.14065758)
(119.60575 -0.49991233 -0.094103663)
(119.45541 -0.48507007 -0.067584425)
(119.58706 -0.52310822 -0.032101518)
(119.65609 -0.59263253 -0.037764)
(119.67146 -0.56292465 -0.10587317)
(119.52283 -0.72343416 -0.16034243)
(119.5032 -0.7646682 -0.056784979)
(119.39739 -0.65660292 -0.04877775)
(119.11745 -0.82467084 -0.073613651)
(118.87943 -0.7444394 -0.17384643)
(118.67917 -1.0822142 -0.15377795)
(118.87595 -1.4044612 -0.2038627)
(118.93469 -1.2733177 -0.47835142)
(119.26345 -0.95314488 -0.26237615)
(119.2365 -1.0205991 -0.098684112)
(119.4688 -1.0342841 -0.13693351)
(119.47951 -0.99863316 -0.2165837)
(119.49707 -0.93614166 -0.28427133)
(119.52834 -0.87210539 -0.3392789)
(119.56048 -0.78675484 -0.38002476)
(119.59828 -0.71189325 -0.40734077)
(119.63691 -0.62794241 -0.41863414)
(119.683 -0.56146626 -0.42672547)
(119.7236 -0.48828256 -0.41835806)
(119.79051 -0.50331463 -0.42996844)
(119.75448 -0.5586676 -0.51054657)
(119.6683 -0.53874955 -0.50084039)
(119.62512 -0.62555142 -0.51424983)
(119.72555 -0.64477402 -0.52861541)
(119.7603 -0.57912666 -0.44335056)
(119.84312 -0.59462513 -0.45435184)
(119.86264 -0.50913672 -0.43353686)
(119.9327 -0.41028074 -0.41529224)
(119.86492 -0.42583207 -0.51122612)
(119.94621 -0.42009682 -0.51162326)
(119.93866 -0.44227194 -0.59908616)
(119.94161 -0.35291056 -0.53167312)
(119.86835 -0.35738791 -0.53079604)
(119.88574 -0.29720088 -0.4753403)
(119.87491 -0.28740353 -0.52716796)
(119.89135 -0.23406815 -0.46854906)
(119.90638 -0.19482469 -0.4121318)
(119.95593 -0.14444045 -0.34828081)
(119.98359 -0.1022991 -0.28164921)
(119.93297 -0.10705732 -0.29240294)
(119.92519 -0.082230086 -0.32412279)
(119.98358 -0.078681708 -0.31176819)
(119.95336 -0.11583746 -0.39130235)
(119.87407 -0.1173797 -0.40171535)
(119.88805 -0.14751765 -0.35688746)
(119.8296 -0.19121395 -0.40677238)
(119.75196 -0.19826062 -0.43635337)
(119.71754 -0.15894548 -0.50040638)
(119.59012 -0.23608189 -0.63855661)
(119.64385 -0.28836883 -0.54274228)
(119.56643 -0.26730091 -0.4894354)
(119.49392 -0.2137886 -0.57533575)
(119.44447 -0.13400535 -0.61556682)
(119.54299 -0.15112292 -0.71037094)
(119.68582 -0.099620051 -0.54974322)
(119.67419 -0.031982478 -0.57583572)
(119.60479 -0.027348241 -0.50998752)
(119.42506 -0.039900228 -0.64316184)
(119.53064 -0.046412877 -0.74695126)
(119.27876 -0.078470694 -1.001942)
(119.29117 -0.2493517 -0.94108115)
(119.36836 -0.37084064 -0.82609058)
(119.4602 -0.42838957 -0.67307537)
(119.37984 -0.36742533 -0.58074135)
(119.12713 -0.37232099 -0.60749004)
(119.26508 -0.3036122 -0.70875518)
(118.94334 -0.49427041 -0.8836736)
(119.13273 -0.55113125 -0.67674325)
(119.25312 -0.6416769 -0.81541143)
(119.10874 -0.60264987 -1.0600766)
(118.96891 -0.46167925 -1.2633713)
(118.8052 -0.36282824 -0.97579317)
(119.18645 -0.20072256 -0.76757828)
(119.16048 -0.058223913 -0.81155637)
(118.75476 -0.12119804 -1.071927)
(118.94095 -0.16203413 -1.3845224)
(119.242 -0.24583116 -1.4678926)
(119.39684 -0.16983738 -1.2330881)
(119.4999 -0.11923367 -1.0156453)
(119.59915 -0.090549264 -0.87158967)
(119.66406 -0.06944933 -0.74248852)
(119.72387 -0.057122715 -0.65395616)
(119.76497 -0.047584 -0.56665578)
(119.85877 -0.023071644 -0.45860203)
(119.91792 -0.01487596 -0.35920885)
(119.99529 -0.020112965 -0.20780278)
(120.07627 -0.014558497 -0.14175186)
(120.06599 -0.04270778 -0.13770875)
(120.06112 -0.06544058 -0.12379827)
(120.03775 -0.10976624 -0.19211183)
(120.07121 -0.088278231 -0.1547619)
(120.07357 -0.082612856 -0.18447784)
(120.03318 -0.10247395 -0.22582231)
(120.02788 -0.14345605 -0.27193739)
(120.03887 -0.14807369 -0.23048729)
(120.0853 -0.11988636 -0.18624734)
(120.08385 -0.11740848 -0.22415897)
(120.09507 -0.10433746 -0.25317773)
(120.07901 -0.07081706 -0.20033001)
(120.03315 -0.090326337 -0.24910559)
(120.03997 -0.069215675 -0.27296885)
(120.0919 -0.053307012 -0.21442108)
(120.11413 -0.082983987 -0.27489664)
(120.03844 -0.10493357 -0.34879488)
(120.02933 -0.13068332 -0.3135449)
(119.99333 -0.18616807 -0.39141547)
(119.99427 -0.19335996 -0.36209708)
(119.99909 -0.1999767 -0.33044135)
(120.03702 -0.19008815 -0.27098599)
(120.09837 -0.15065219 -0.21470575)
(120.06863 -0.16908962 -0.28117214)
(120.03731 -0.18588823 -0.30876658)
(120.03616 -0.18088151 -0.33978394)
(120.04478 -0.21326288 -0.38315092)
(120.0452 -0.21515632 -0.34483727)
(120.00004 -0.23216861 -0.36812258)
(119.99603 -0.22842833 -0.40709075)
(120.00387 -0.28098479 -0.45964823)
(120.00433 -0.27271937 -0.40582675)
(120.05457 -0.25931167 -0.32838107)
(120.14277 -0.19771136 -0.25750768)
(120.10339 -0.22451634 -0.34402153)
(120.08339 -0.19379309 -0.3123103)
(120.1168 -0.16484925 -0.27274709)
(120.09705 -0.14488749 -0.2450513)
(120.10296 -0.14102207 -0.2698611)
(120.071 -0.16354172 -0.30932701)
(120.08731 -0.19064258 -0.34662499)
(120.12405 -0.16415542 -0.30399055)
(120.15799 -0.19691288 -0.34087525)
(120.14262 -0.18842519 -0.29766619)
(120.18442 -0.22357842 -0.32555685)
(120.13713 -0.26959175 -0.3803715)
(120.08149 -0.30382676 -0.42045664)
(120.05876 -0.25152193 -0.37920551)
(120.06258 -0.26158103 -0.43256387)
(120.08961 -0.314969 -0.4869756)
(120.01648 -0.33902525 -0.51721471)
(120.01437 -0.33011342 -0.44935623)
(120.02277 -0.40098943 -0.49437718)
(120.06797 -0.36528184 -0.37211114)
(120.18834 -0.2781143 -0.28671528)
(120.16776 -0.32593478 -0.41667745)
(120.10281 -0.36958887 -0.46238734)
(120.12279 -0.39668274 -0.55023797)
(120.03258 -0.42670502 -0.58468752)
(120.05366 -0.52120899 -0.65981566)
(120.03744 -0.48827586 -0.55513528)
(119.9416 -0.50898853 -0.57362489)
(119.84118 -0.51153521 -0.57084416)
(119.75598 -0.50463025 -0.56186057)
(119.72885 -0.52106775 -0.64696811)
(119.62838 -0.50826055 -0.62703459)
(119.56163 -0.60177976 -0.67678619)
(119.67612 -0.6353231 -0.70880719)
(119.71567 -0.58933406 -0.59428693)
(119.67423 -0.70490826 -0.64194306)
(119.5597 -0.67394222 -0.60696223)
(119.49028 -0.72959498 -0.73378915)
(119.63413 -0.76707892 -0.77262322)
(119.77486 -0.80616511 -0.81342861)
(119.79917 -0.66111678 -0.73937553)
(119.82365 -0.53672213 -0.6675002)
(119.84731 -0.4446277 -0.59536262)
(119.8327 -0.44560858 -0.68111921)
(119.85629 -0.35538904 -0.59781678)
(119.78166 -0.3469688 -0.58303434)
(119.81231 -0.28234179 -0.51732145)
(119.845 -0.23145244 -0.46434133)
(119.86802 -0.19437971 -0.41233245)
(119.85754 -0.17904578 -0.44649271)
(119.81308 -0.17557714 -0.44244099)
(119.782 -0.21354742 -0.49728761)
(119.79919 -0.22940989 -0.45676531)
(119.75804 -0.27448613 -0.5027301)
(119.73598 -0.25774258 -0.55369114)
(119.79864 -0.26699486 -0.56821196)
(119.83483 -0.21585451 -0.50262818)
(119.88427 -0.21865622 -0.50857725)
(119.89982 -0.17910216 -0.44672578)
(119.95005 -0.17853832 -0.44159929)
(119.9514 -0.19324202 -0.40742597)
(119.94395 -0.23233167 -0.4649684)
(119.94341 -0.21815775 -0.50491224)
(119.94335 -0.199988 -0.5517209)
(119.94966 -0.16312506 -0.47362751)
(119.89478 -0.16317544 -0.47923541)
(119.84853 -0.16164213 -0.47865164)
(119.80182 -0.15853537 -0.47113935)
(119.78754 -0.13385195 -0.50563132)
(119.8399 -0.13750732 -0.51287161)
(119.81343 -0.16763608 -0.58646829)
(119.82193 -0.19518621 -0.54759101)
(119.76619 -0.19246227 -0.536436)
(119.75125 -0.16423551 -0.57623847)
(119.69689 -0.20043524 -0.64985216)
(119.71528 -0.23314637 -0.59976312)
(119.78263 -0.24197387 -0.62210167)
(119.77158 -0.21100902 -0.67393273)
(119.7351 -0.27162281 -0.78506811)
(119.74661 -0.30732202 -0.71782877)
(119.76643 -0.33334843 -0.64876597)
(119.68265 -0.32491971 -0.63051347)
(119.70981 -0.33958363 -0.56407028)
(119.64316 -0.41123485 -0.62673456)
(119.73121 -0.43104238 -0.65754711)
(119.70986 -0.42202631 -0.74265889)
(119.6074 -0.398862 -0.70902938)
(119.52999 -0.50918014 -0.81553891)
(119.5752 -0.5106591 -0.70826284)
(119.68809 -0.53353459 -0.7455347)
(119.66384 -0.53501657 -0.85515195)
(119.79527 -0.56296109 -0.89700172)
(119.82206 -0.43909769 -0.77380588)
(119.84728 -0.34335905 -0.66862517)
(119.86698 -0.27256364 -0.5811094)
(119.94082 -0.2732353 -0.58213694)
(119.94023 -0.28626284 -0.52710658)
(119.93964 -0.35524812 -0.60164185)
(119.94229 -0.34606379 -0.67504256)
(119.94597 -0.32556495 -0.75286477)
(119.94218 -0.25215271 -0.64086891)
(119.86006 -0.2496414 -0.63833218)
(119.87818 -0.19930433 -0.55505056)
(119.87292 -0.17147397 -0.59596027)
(119.88996 -0.13832622 -0.51397585)
(119.95009 -0.13892372 -0.50814075)
(119.94456 -0.17285021 -0.59281136)
(119.94489 -0.22196392 -0.69783595)
(119.85464 -0.21836167 -0.69377834)
(119.83444 -0.28500303 -0.81662123)
(119.8398 -0.32005336 -0.74322428)
(119.81341 -0.41794776 -0.87188369)
(119.68436 -0.39580188 -0.83189602)
(119.57292 -0.37028181 -0.78216085)
(119.65708 -0.2969376 -0.688262)
(119.6351 -0.25954355 -0.75364572)
(119.61493 -0.21085005 -0.80158398)
(119.67981 -0.16193664 -0.6879276)
(119.73778 -0.1325856 -0.6088827)
(119.77768 -0.10902142 -0.52953878)
(119.86329 -0.076500734 -0.43951381)
(119.92005 -0.054229315 -0.34517254)
(119.984 -0.051840794 -0.33126821)
(119.98573 -0.013533724 -0.34435295)
(119.95369 -0.022082614 -0.44588033)
(119.95264 -0.075856174 -0.42777348)
(120.04809 -0.068788487 -0.37804998)
(120.04479 -0.045704428 -0.28757431)
(120.10088 -0.034759095 -0.2217829)
(120.10838 -0.0077303987 -0.22702998)
(120.04972 -0.01133422 -0.29757864)
(120.05456 -0.019073953 -0.39233134)
(120.14304 -0.01399112 -0.29990374)
(120.13218 -0.053445949 -0.29204361)
(120.12493 -0.094933462 -0.42225242)
(120.11479 -0.11479571 -0.40315539)
(120.10001 -0.13456944 -0.37888521)
(120.08925 -0.14656629 -0.35684835)
(120.0765 -0.15785255 -0.33238409)
(120.03915 -0.17409204 -0.36660693)
(120.0477 -0.16154774 -0.39568572)
(119.99702 -0.17243669 -0.42375116)
(120.0028 -0.21178139 -0.48834708)
(119.99762 -0.22459557 -0.44954747)
(120.05119 -0.21015617 -0.42275572)
(120.06244 -0.19880131 -0.45830928)
(120.11463 -0.1785976 -0.41132074)
(120.09847 -0.1889043 -0.38112435)
(120.13871 -0.16166706 -0.3318742)
(120.11151 -0.13541847 -0.2879622)
(120.12759 -0.12509417 -0.30612677)
(120.1589 -0.15254111 -0.35533787)
(120.18067 -0.14018056 -0.38149031)
(120.1414 -0.11462427 -0.32218299)
(120.15958 -0.096926401 -0.33968207)
(120.20312 -0.12107382 -0.40458547)
(120.1508 -0.14315953 -0.47608677)
(120.13244 -0.16506222 -0.4455556)
(120.07496 -0.1835228 -0.49927766)
(120.0555 -0.1484268 -0.42243297)
(120.00028 -0.15824142 -0.45377888)
(120.00573 -0.13489267 -0.486302)
(120.06613 -0.12662388 -0.45155608)
(120.0883 -0.15951876 -0.53561119)
(120.01627 -0.16917867 -0.572956)
(120.00922 -0.19516473 -0.53316508)
(120.02757 -0.24686848 -0.62437131)
(120.01737 -0.26593461 -0.56686417)
(120.00856 -0.27691477 -0.51278039)
(120.07429 -0.2585326 -0.48278749)
(120.09112 -0.24917181 -0.53306145)
(120.1332 -0.31639232 -0.62225433)
(120.10845 -0.3211326 -0.55381699)
(120.02579 -0.34440808 -0.5876963)
(120.03962 -0.33789534 -0.66067545)
(120.05531 -0.32007851 -0.73789981)
(120.16021 -0.30096241 -0.6943975)
(120.1097 -0.23205493 -0.58623321)
(120.12854 -0.20609591 -0.63807561)
(120.03844 -0.21848974 -0.68030235)
(120.07154 -0.28964527 -0.81425934)
(119.95158 -0.29244083 -0.82953496)
(119.95642 -0.24427423 -0.9009872)
(119.94727 -0.18222685 -0.75055379)
(119.94537 -0.14163267 -0.63415249)
(119.95046 -0.1146248 -0.536058)
(119.88629 -0.11396678 -0.54214799)
(119.83252 -0.11197891 -0.54053524)
(119.82734 -0.080000449 -0.56511649)
(119.76886 -0.077703741 -0.55394643)
(119.72894 -0.095486009 -0.63658607)
(119.79832 -0.097969532 -0.65297332)
(119.80305 -0.13564531 -0.62526359)
(119.86859 -0.1398982 -0.63660031)
(119.86605 -0.10043852 -0.66597558)
(119.88371 -0.080304119 -0.56715745)
(119.95149 -0.080710278 -0.56101078)
(119.94718 -0.10161397 -0.66384267)
(119.94859 -0.060276134 -0.68547451)
(119.95241 -0.049432992 -0.57553145)
(119.88257 -0.049435184 -0.58187245)
(119.82453 -0.048459288 -0.57963843)
(119.82362 -0.011826104 -0.58641264)
(119.76283 -0.011872433 -0.57349265)
(119.72227 -0.014482463 -0.66169986)
(119.79417 -0.01444272 -0.68092583)
(119.79454 -0.057977748 -0.67332553)
(119.86499 -0.059739647 -0.68724147)
(119.86542 -0.013635767 -0.69496354)
(119.88258 -0.01075963 -0.58849854)
(119.95357 -0.010062425 -0.58181592)
(119.95038 -0.012807979 -0.69287148)
(119.95622 -0.016527135 -0.82962873)
(119.95322 -0.077378519 -0.81951987)
(119.95064 -0.13337375 -0.79175362)
(119.84832 -0.13018124 -0.78421862)
(119.8502 -0.17808147 -0.74446512)
(119.75919 -0.17011353 -0.72067976)
(119.75357 -0.12502952 -0.75741841)
(119.66954 -0.11740936 -0.7224285)
(119.60415 -0.15451146 -0.8465815)
(119.71615 -0.16444533 -0.8937589)
(119.72066 -0.22228276 -0.84572383)
(119.8305 -0.23597417 -0.88386414)