/*--------------------------------*- C++ -*----------------------------------*\
  =========                 |
  \\      /  F ield         | OpenFOAM: The Open Source CFD Toolbox
   \\    /   O peration     | Website:  https://openfoam.org
    \\  /    A nd           | Version:  7
     \\/     M anipulation  |
\*---------------------------------------------------------------------------*/
FoamFile
{
    version     2.0;
    format      ascii;
    class       volScalarField;
    location    "90";
    object      k;
}
// * * * * * * * * * * * * * * * * * * * * * * * * * * * * * * * * * * * * * //

dimensions      [0 2 -2 0 0 0 0];

internalField   nonuniform List<scalar> 
25278
(
1091.9561
1134.4841
1053.1178
1053.0849
1110.3229
1134.5907
1156.2538
1091.9961
1156.1162
1313.5679
1205.2553
1118.3103
1109.0369
1090.2968
1603.4842
1052.8828
1134.5405
1669.2448
1834.0742
1730.1713
1419.8614
1322.559
1197.7366
1210.5772
1441.932
1210.5002
1197.7401
1446.7549
1529.6355
1547.7405
1690.8614
1650.7161
1950.3873
1765.2373
1818.4772
1875.3341
1893.7992
1986.5762
1958.5424
2156.5069
2044.6669
2076.8142
2189.6455
2216.837
1983.3433
1674.9748
1332.3399
1435.6124
1771.164
1783.2739
1836.5457
1776.2167
2127.3706
2070.3752
2018.0752
2051.9657
2104.5923
2065.7927
2289.7657
2232.703
2278.035
2337.7413
2372.456
2134.9277
2094.669
2111.4254
2151.8697
2388.2942
2336.2782
2320.7433
2501.8937
2473.3779
2413.5893
2327.4655
2195.3467
2086.0378
1819.0924
1548.1317
1322.5189
1317.69
1277.116
1603.6673
1669.7875
1836.1897
1412.0026
1352.7116
1735.5904
1878.4394
1816.8806
1712.325
1791.3129
1919.4412
1816.7215
1935.3635
2044.5726
1919.6326
1990.6349
1836.9969
1942.4594
2131.015
1989.5807
2162.8822
2306.7896
2132.4987
2243.3854
2080.1911
1991.5684
2075.5573
1957.6885
1921.7969
1892.1023
2011.2121
2036.1779
2165.1384
2208.0509
2365.6448
2318.3361
2279.0587
2104.6455
2104.0717
1835.6631
1411.9083
1110.2893
1815.5885
1934.0254
1956.6605
1921.0623
1891.725
1735.1793
1352.6337
1276.9602
1317.6187
1669.1602
1603.0535
1816.0317
1877.7529
1990.6331
2010.816
2035.1671
2074.2449
2206.2909
2163.9492
2316.6932
2278.2759
2241.7628
2079.1252
1989.4319
1918.6729
2042.954
1918.3764
1602.9257
1711.5787
1790.4865
1836.1688
1668.8489
1941.4646
2131.0252
2304.8014
2363.4215
2254.1417
1943.0997
1946.1571
2256.0005
2360.7305
2239.2945
2077.8086
2099.7603
2272.1139
2304.1894
2153.7067
2204.3462
2107.5684
1831.9906
1919.4618
1260.0922
1262.2945
1852.3037
1850.4232
1269.1124
1268.1538
1926.0348
1835.9135
2106.1682
2202.5319
2161.1061
1988.4382
2129.7431
2237.601
2358.5082
2301.3129
2151.2621
2097.4443
1833.4212
2076.4573
2269.5
2405.611
2467.6692
2026.7833
1279.5454
1270.1374
2016.9295
2471.1618
2408.3808
2364.6038
2224.9407
1994.1036
1765.597
1529.8925
1651.8072
1691.9066
1876.6458
1952.114
2046.095
2078.2462
1895.0115
1988.6488
1960.7812
2158.8931
2192.0183
2219.1353
2078.8919
1807.5792
1531.0675
1332.3888
1530.2745
1808.376
1881.8279
1676.4343
1675.8111
1887.2179
1892.3381
2089.0427
2228.5984
1995.8943
1985.2541
2055.2082
1772.8459
1436.4249
1420.3206
1731.939
1785.2474
2020.8964
2073.7096
2236.2008
2281.5712
2054.7615
2108.1411
2069.4131
2294.3456
2342.447
2377.8443
2138.9035
1838.8721
1778.3897
2131.7425
2098.4734
2325.9632
2341.8472
2115.2545
2155.8091
2393.7898
2439.3386
2422.6957
2385.0177
2319.6206
2333.2058
2067.6298
2124.8903
2109.376
2141.2285
1826.437
1828.3461
1773.0925
2054.2318
1981.9924
1978.3086
1876.3587
2072.1797
2076.7459
2223.2391
2213.2646
2320.0709
2050.1516
2107.817
2110.5327
2399.7729
2330.268
2519.728
2458.9319
2375.5459
2275.7437
2103.6905
1807.8009
1529.8897
1530.6318
1806.9238
1886.034
1891.1861
1994.0616
2226.4182
2087.6299
2077.4815
2267.117
2106.8591
2282.8866
2371.9294
2368.1636
2348.6054
2392.5974
2245.7737
2428.4476
2357.0605
2496.0286
2576.1055
2722.4455
2579.7913
2429.3231
2247.0358
2196.6141
2226.6126
2357.8847
2498.4729
2329.9428
2395.1245
2578.4357
2724.1216
2623.7212
2493.3166
2457.4242
2621.8738
2715.0485
2826.1313
2868.963
2804.6898
2728.3358
2648.541
2553.797
2458.8819
2484.3289
2566.8015
2446.9496
2422.6316
2543.4009
2641.3087
2673.117
2583.761
2465.0461
2496.7554
2595.3473
2491.2656
2500.3469
2378.9036
2460.8232
2452.0946
2579.2784
2586.8101
2698.6775
2605.1315
2707.9504
2695.0306
2682.0494
2766.46
2734.5129
2808.9388
2847.0369
2765.7484
2642.9172
2465.9303
2268.29
2284.0875
2497.6072
2597.1563
2493.2475
2373.961
2370.2449
2350.7179
2461.0207
2486.3291
2569.6584
2449.7371
2425.3693
2546.3841
2644.2149
2555.7449
2585.5986
2683.7712
2650.3256
2737.4052
2769.0856
2675.8692
2692.284
2581.9625
2454.7473
2463.3836
2380.9069
2502.2889
2589.4821
2701.1629
2606.7833
2709.447
2696.4511
2787.8677
2798.8256
2802.6748
2707.3486
2489.4618
2490.0596
2269.7563
2367.6432
2375.4759
2499.4151
2497.8844
2589.7982
2589.1397
2460.3574
2451.5267
2448.2278
2363.6803
2488.308
2491.6632
2583.8682
2578.2049
2694.039
2596.1483
2600.3168
2605.5723
2604.508
2703.5116
2703.4552
2803.8074
2710.8273
2705.0753
2702.8008
2796.1246
2800.7643
2699.6181
2772.8574
2654.4485
2512.8934
2521.1415
2658.8705
2659.3089
2657.4273
2522.9405
2513.7581
2506.8636
2479.1633
2501.59
2417.4867
2369.4376
2586.1391
2687.7816
2746.0049
2567.2911
2479.0486
2638.8953
2724.1031
2694.2276
2540.3293
2749.3968
2870.0364
2812.9071
2844.2105
2849.9091
2726.3447
2663.3892
2716.1571
2657.5399
2508.7919
2416.1021
2522.0274
2614.0828
2601.1751
2767.4463
2769.9815
2660.2083
2697.7048
2487.7539
2582.203
2687.9386
2776.83
2834.2551
2811.3336
2919.1369
2927.2671
2933.6859
2934.089
2924.0266
2903.1042
2863.8153
2811.4403
2729.6716
2767.0992
2845.535
2805.4118
2877.442
2915.8268
2849.1692
2870.4225
2782.6995
2679.5252
2781.5816
2795.237
2880.9933
2796.5381
2785.4912
2689.5632
2757.697
2645.6033
2510.2915
2329.8801
2065.0734
2052.4799
2105.9555
2121.8006
2397.0935
2380.3624
2316.0932
2475.6839
2497.4773
2561.3163
2738.5761
2683.1273
2581.625
2631.6787
2648.1702
2757.5157
2593.8491
2606.492
2514.7723
2649.8828
2759.1592
2794.3924
2820.403
2835.4384
2808.3398
2689.769
2534.6816
2715.5712
2716.8631
2746.1548
2866.4718
2839.9296
2756.1655
2644.448
2703.2099
2682.0808
2553.2736
2656.146
2824.094
2886.2364
2904.0096
2881.6028
2822.1251
2738.3935
2616.7124
2433.9485
2154.4816
1824.3619
1826.6099
1771.7606
1675.6508
1880.6567
1875.3278
1976.7131
1980.198
2221.1935
2075.3778
2070.9091
2211.2787
2317.2649
2048.017
2051.8337
2107.7102
2105.34
2386.7925
2395.7654
2327.0722
2516.5544
2456.4543
2373.5911
2274.4848
2268.6499
2365.7739
2373.5889
2457.9587
2586.6325
2497.5607
2496.0387
2587.1035
2701.1566
2602.9775
2488.6894
2489.3201
2598.8604
2490.036
2486.5898
2361.8286
2445.8254
2449.0442
2581.4192
2575.8352
2691.7796
2594.6974
2701.5478
2703.8932
2709.4845
2604.0387
2701.0498
2801.6082
2800.3004
2705.9286
2796.1796
2681.6729
2679.2254
2795.2815
2799.5248
2888.8118
2886.5237
2958.5096
2880.3062
2878.2004
2862.4012
2844.7616
2913.9598
2875.3398
2924.8087
2967.4067
2911.8708
2968.462
2925.8916
2960.9942
3004.511
3031.4535
2992.5837
2937.2183
2868.4754
2927.6485
2851.3718
2829.3822
2738.4541
2630.4821
2503.3819
2551.8885
2522.2392
2650.1581
2601.6539
2700.3243
2748.4141
2786.4553
2679.1274
2695.5275
2559.5103
2570.6133
2519.6711
2653.9819
2705.1055
2742.4778
2606.0962
2594.5064
2585.8512
2554.6595
2580.7637
2612.6779
2739.6183
2714.6576
2682.9661
2707.7603
2801.2505
2779.1322
2819.962
2841.7212
2918.4364
2902.3761
2873.7057
2835.4431
2791.6314
2860.0894
2903.6076
2940.8145
2897.5882
2943.8406
2917.8
2960.7122
2987.5246
3014.5062
2966.3264
2897.0541
2807.1331
2818.552
2767.8414
2863.438
2910.4711
2941.2014
2854.128
2841.6374
2732.1332
2757.745
2621.6054
2634.1845
2768.7646
2877.2653
2864.2602
2943.5851
2926.8256
2987.9086
2961.5951
2916.607
2861.9335
2877.5558
2883.7873
2813.1162
2723.1947
2597.7843
2417.2968
2137.3966
2153.6671
2171.5372
2452.7007
2435.4092
2435.3083
2140.4296
2137.8218
2156.0395
2158.151
2453.0249
2445.1528
2426.8222
2647.931
2628.2339
2598.9841
2561.8378
2509.8673
2518.0975
2570.2164
2567.4485
2707.837
2655.9456
2655.6069
2708.1798
2704.277
2651.1934
2645.4821
2506.3401
2559.2938
2699.142
2739.0666
2596.5048
2626.5701
2767.7226
2771.7724
2743.7015
2747.0296
2606.7917
2603.7508
2631.9951
2635.9697
2774.6524
2772.8926
2746.067
2860.1766
2823.6974
2771.9564
2772.4656
2824.8904
2919.9732
2870.7665
2869.0683
2917.2024
2949.0235
2952.5214
2862.165
2886.8517
2884.0161
2967.314
2958.63
2965.8067
2890.9019
2786.0557
2652.5578
2639.7698
2630.2875
2642.5551
2609.7623
2733.1276
2765.9818
2755.9256
2774.5515
2784.7248
2652.1058
2665.3907
2796.5121
2802.3485
2672.7333
2659.3996
2649.6272
2653.153
2620.1285
2740.8627
2773.9559
2771.3168
2790.288
2792.9574
2663.0321
2676.5308
2805.0754
2901.3166
2900.3017
2897.555
2883.6155
2877.2384
2854.3721
2860.5701
2819.5399
2883.7075
2925.0752
2924.8495
2950.2793
2950.5023
2966.338
2964.0163
2947.9293
2886.1252
2863.0925
2863.9483
2823.1109
2879.6476
2920.77
2922.5108
2946.4138
2956.7092
2965.841
2968.8615
2924.3158
2946.7023
2952.5501
2997.0521
2992.0298
3020.0579
2995.7768
3012.4578
3003.9133
2981.2268
2941.4654
3001.8267
2951.606
3008.2371
2948.9042
2878.9302
2796.2822
2882.9497
2953.1375
2938.8093
2863.0254
2933.1429
2993.5834
3009.136
3048.142
3058.3133
3016.7453
2954.4194
2880.9093
2797.18
2800.5062
2886.1748
2963.4197
2890.6077
2888.3906
2959.8464
3017.6313
3022.2404
2958.8643
2885.4694
2962.0647
2961.4704
2887.157
2798.7302
2697.3204
2769.5361
2764.2751
2818.0098
2822.6567
2919.1568
2869.1886
2864.7779
2794.0953
2883.1777
2792.6363
2880.5555
2881.4454
2957.3707
2881.9481
2796.1444
2793.5229
2881.135
2960.0046
2884.8823
2888.783
2962.6005
3022.9558
3021.1952
2955.4482
3020.4681
2958.7793
3013.775
2947.9655
2951.0999
2951.6778
2948.6307
2989.7185
2993.801
3046.5851
3014.8126
3010.5796
3040.9016
3031.0292
3042.2217
3024.78
3037.0821
3041.5862
3027.3544
2986.5078
3000.3806
2954.5016
2967.9568
3013.3709
3018.1221
3021.2947
2976.0847
2971.4527
2950.0559
2963.0126
3008.404
2987.0426
2941.9881
2906.1559
2953.287
2995.3641
3024.6874
3046.9747
3049.4471
3067.3848
3044.2234
3059.3763
3066.0801
3044.7335
3055.8224
3035.3725
3038.3791
3050.5477
3023.0486
3013.3489
3018.6699
3029.3023
2971.7955
2972.9435
2886.195
2860.6495
2856.8197
2882.9552
2971.398
2950.1375
2915.5827
2992.2729
2994.5287
3048.8658
3015.7868
3062.5068
3022.3007
3021.2937
3064.0714
3066.3949
3065.8514
3091.1473
3061.9518
3083.1535
3048.3073
3065.0645
3019.5892
3020.478
2952.6051
3032.5084
3032.9736
3067.2148
3064.1144
3064.0645
3060.2611
3053.4438
3068.7196
3070.8799
3054.3206
3060.2804
3078.1679
3088.0723
3086.2321
3079.0255
3078.9171
3059.1999
3070.0198
3077.6032
3060.028
3058.8315
3045.174
3028.9349
2980.5305
2901.6891
2792.8977
2655.2301
2650.9815
2663.9208
2668.7293
2804.2588
2801.5035
2790.7584
2898.1497
2905.4447
2909.457
2982.5
2976.3217
2975.1426
3021.3484
3010.0408
2992.7267
2983.4636
3001.039
2998.222
3022.0273
3003.4639
2975.4165
2931.5361
2921.6989
2913.0433
2907.5149
2951.8714
2979.306
2955.3319
2972.9367
2990.5782
2984.0794
2962.1805
2946.1014
2887.0204
2887.6857
2793.3362
2663.3555
2453.0333
2171.7483
1824.4591
1435.7289
1420.0238
1670.2656
1834.6124
1992.664
1838.9658
1991.5131
2079.0413
2100.3517
2272.8834
2240.6843
2363.0148
2306.4171
2155.5335
2206.5986
2164.9843
2308.0503
2132.1967
1943.44
1671.1101
2133.3853
2243.7925
2366.6048
2259.7035
1925.7315
1836.4632
2111.051
1857.3989
1272.9562
1273.618
1951.4864
2318.8637
2167.1596
2210.084
2082.1416
1837.5342
2106.3915
2075.9927
2201.7026
2105.3937
1853.4072
1272.129
1272.0895
1946.2591
2252.8656
1921.5408
1832.8559
2150.1639
2299.5433
2357.423
2237.2757
1833.3783
2096.9775
2268.8965
2405.0969
2465.4115
2020.3181
1284.5487
1287.6992
2025.0898
2473.9905
2409.3101
2127.8178
1776.4625
1836.6729
1783.8927
1730.6587
2071.2802
2066.6378
2095.2616
2111.5259
2151.9531
2135.5693
2373.3741
2388.5852
2336.7353
2321.4878
2290.8373
2338.8159
2105.2485
2052.8384
2018.8925
2233.8484
2279.1966
2317.25
2053.3009
1771.621
1772.1261
1826.6914
2158.4139
2156.1428
2138.1563
2140.8703
2154.2094
2137.9826
2154.5839
2434.2116
2418.2776
2436.3452
2436.0472
2453.2797
2445.2832
2427.4377
2387.3931
2105.6791
2108.1171
2122.3557
2106.5489
2381.4813
2398.121
2330.988
2065.7643
2052.5131
2048.4532
2317.8618
2328.0224
2396.5701
2633.431
2652.4628
2665.1513
2672.5026
2675.6333
2675.42
2671.515
2676.4355
2680.3503
2813.5336
2810.5245
2807.6315
2810.4305
2909.6212
2908.4467
2912.9528
2914.2255
2979.986
2981.1343
2974.3432
2972.7597
2996.9763
3003.1215
3013.1029
3021.6852
3023.5885
3012.2621
3035.3055
3015.2303
3049.6074
3019.5919
3003.5901
2982.5089
3015.8814
2979.9924
2951.7055
2909.2831
2865.3194
2906.2789
2813.8133
2892.2473
2849.7002
2770.5054
2693.5851
2727.4567
2860.2154
2928.5899
2914.1478
2940.0044
2897.9328
2871.6881
2795.9571
2830.1418
2662.3861
2631.4655
2376.789
2502.698
2639.1639
2760.7472
2847.4091
2914.5223
2955.4987
2977.1558
2977.7901
2957.2694
2921.1694
2963.9199
2907.0394
2833.1373
2742.3063
2634.3429
2605.4695
2655.0854
2526.6815
2556.3272
2684.0379
2700.2354
2649.1382
2761.3809
2771.5236
2866.9139
2854.8188
2902.2391
2812.1376
2791.4763
2753.5477
2704.1901
2795.4513
2840.9546
2878.9143
2909.2982
2826.4422
2720.7488
2591.1765
2559.9939
2688.9544
2715.0335
2586.9718
2618.913
2746.7044
2764.6302
2738.0231
2599.7745
2563.825
2574.7413
2709.5794
2823.3686
2915.451
2947.6998
2860.1639
2748.0365
2611.0056
2401.5418
2440.4896
2157.1972
2175.0084
2158.3526
2158.1422
1826.1843
1436.3391
1134.5697
1052.9063
1091.77
1156.2533
1090.0741
1197.6534
1322.4274
1420.2269
1778.2111
1838.6239
2115.1176
2131.3237
2341.4684
2393.361
2155.7544
2138.2368
2097.9287
2325.0283
2376.7721
2340.5987
2107.0207
1784.6564
1731.3655
2072.4313
2068.2492
2292.63
2234.5012
2019.6798
2053.528
2279.7358
2317.5496
2383.1029
2421.4362
2438.9776
2457.2973
2457.7748
2457.3833
2439.6998
2143.5029
2140.506
2430.6954
2390.2458
2602.9972
2565.4171
2574.0262
2571.3629
2712.1253
2712.3157
2708.1847
2702.8461
2648.5462
2509.3011
2562.6998
2600.2874
2743.2652
2748.2673
2751.8818
2611.0226
2608.4132
2751.2771
2779.1129
2637.3722
2639.9109
2627.7325
2646.5271
2637.1283
2604.4765
2731.1278
2763.9573
2774.4712
2649.6803
2616.8749
2741.5627
2829.5731
2822.1042
2809.1742
2785.6892
2868.8636
2886.4496
2927.1789
2849.6041
2872.0581
2847.9936
2933.4874
2952.0236
2966.8314
2884.7614
2775.2867
2793.5555
2659.0016
2672.1242
2659.2473
2793.1219
2782.4401
2886.3183
2863.471
2935.2103
2894.0146
2895.4154
2936.8017
2870.5171
2893.5955
2907.0903
2899.5839
2975.7943
2960.357
2962.0108
2977.6957
2975.891
2910.0632
2810.5888
2804.6651
2809.1073
2797.7562
2656.8207
2660.499
2640.8831
2780.2527
2776.9929
2632.6022
2630.6257
2772.4195
2888.4032
2861.4944
2822.0481
2767.3812
2867.8343
2872.3535
2874.2106
2775.8703
2775.414
2872.5768
2922.1977
2828.258
2829.3632
2924.6006
2923.5431
2826.8981
2865.7824
2867.6663
2865.8891
2955.2964
2958.5506
2979.2202
2893.311
2891.1356
2975.0715
3031.7806
3020.1646
2994.5686
2951.9325
2944.7509
2930.9091
2989.4288
3004.8023
3035.9159
2986.1025
2971.3102
2946.0094
2992.621
2949.1148
2973.1353
3018.4284
3002.8423
3022.9742
3022.4279
2975.917
2958.0113
2971.0585
2960.2997
3004.8165
2968.8141
2978.4103
3002.5792
2957.3078
2953.9447
2998.9765
3016.3553
3003.4467
2966.2191
2919.1354
2869.362
2925.7783
2945.5265
2989.6025
2977.8354
2970.7839
2969.5178
2924.8739
2887.5458
2928.9918
2968.3057
2912.2543
2843.2689
2799.75
2732.1988
2850.9942
2906.196
2948.8241
2961.7456
2934.851
2873.3176
2780.1313
2656.9428
2623.885
2747.0051
2749.2306
2627.0895
2660.1665
2782.375
2801.1694
2798.9328
2666.6109
2679.683
2683.0818
2669.9497
2669.6732
2659.9392
2626.7499
2613.4528
2521.3963
2415.0952
2659.4682
2769.0633
2765.0353
2599.4678
2507.2515
2655.3608
2713.2567
2696.4995
2485.5735
2579.8229
2685.0706
2809.8702
2830.9659
2771.7222
2658.9459
2722.3744
2720.7381
2636.1476
2476.942
2367.4344
2415.3945
2499.0942
2564.8414
2742.8615
2684.7815
2583.3507
2691.1299
2537.4402
2745.9944
2866.2643
2845.2724
2840.2978
2809.4465
2899.3204
2920.0085
2930.0844
2930.0518
2924.2297
2917.0983
2912.1874
2912.9004
2891.7243
2893.8266
2832.2655
2833.0385
2873.8941
2932.8097
2957.954
2960.0445
2896.1701
2896.9123
2910.7268
2813.0571
2817.807
2815.4624
2677.8793
2670.0862
2674.2723
2811.0387
2799.2675
2796.4804
2652.6881
2650.8132
2792.2472
2804.786
2665.1295
2666.5056
2808.4771
2917.6759
2908.7504
2892.1564
2979.8809
2958.4079
2955.3125
2919.7327
2996.3198
2950.7416
2954.1376
2954.817
3017.6063
3013.244
3045.731
3051.0854
2998.3278
2998.8473
3053.0209
3018.2281
3016.2054
3052.1001
3086.805
3063.6621
3064.3133
3062.1631
3056.4931
3046.4887
3029.7967
3051.0372
3068.9202
3070.1782
3063.9673
3046.2496
3019.3777
3032.3082
2995.0118
3010.8129
3049.6207
3048.5326
3021.523
3005.0369
3030.4001
3027.5136
3044.8984
3063.4858
3052.3078
3032.367
3051.1269
3033.6104
3051.6792
3022.8069
3001.435
2962.6806
3004.2543
2958.4685
2849.8398
2729.305
2427.7837
2629.9176
2745.3487
2550.177
2754.2369
2638.5565
2434.1131
2126.7347
2453.7439
2542.0262
2247.841
2212.7018
1673.423
1665.68
2204.3494
1772.4046
2227.8761
2570.1054
2479.3498
2050.8472
2148.1348
1737.688
2265.6298
2310.2176
1740.0836
1251.0704
1262.1896
1730.8717
1225.8783
1213.8416
967.30317
948.00462
963.99515
1240.9342
1683.2888
2219.3124
2556.461
2683.5957
2650.6707
2515.3219
2607.1228
2595.2922
2503.0163
2650.1111
2759.7662
2760.0662
2796.2596
2824.1001
2706.2618
2650.0304
2762.9141
2660.3473
2798.2062
2873.0497
2898.8348
2880.2673
2823.564
2741.1741
2620.4134
2653.4688
2650.5902
2617.506
2739.516
2772.6149
2774.1415
2864.434
2864.56
2823.4352
2883.4062
2924.5839
2921.4154
2946.9214
2963.1127
2901.8093
2805.4386
2676.8243
2673.8017
2660.4727
2791.5555
2803.6135
2798.2972
2666.6994
2653.4748
2643.8625
2610.9541
2599.337
2631.9243
2758.0506
2767.6173
2734.733
2725.119
2815.4605
2821.7173
2862.8408
2856.8242
2927.9993
2927.8252
2886.1278
2886.6724
2880.5147
2803.6656
2709.9249
2582.3946
2563.0137
2474.8044
2366.144
2415.0025
2498.8911
2685.0867
2740.8911
2633.8687
2583.4292
2691.9116
2718.5618
2537.1231
2720.9635
2844.5357
2838.6294
2810.4919
2868.8194
2748.2697
2716.0563
2623.2858
2497.3317
2328.6781
2157.4921
1959.4919
1691.4508
1322.791
1332.4324
1675.5201
1676.1147
1530.6956
1442.5991
1531.4495
1548.4553
1447.5766
1530.3485
1651.3862
1951.2886
1876.2033
1819.3277
1894.6192
1987.4249
2190.6256
2077.7984
2045.6128
2196.3541
2086.6987
2246.7722
2393.8326
2577.4832
2429.2843
2357.8439
2225.9639
1994.7288
1766.0417
2227.0528
2458.3976
2494.2541
2580.4993
2723.6118
2827.0562
2724.2461
2623.9629
2498.415
2358.3383
2429.6138
2247.2668
2196.94
2330.0403
2395.0341
2578.2064
2650.3018
2466.2076
2107.5847
2268.0859
2349.8253
2217.8657
1984.135
1994.7942
1891.9177
1807.8936
1886.875
2078.4869
2088.6193
2227.3488
2222.0051
1980.8666
1977.2458
1875.9446
1808.6525
1881.2907
2076.2259
2071.5511
2211.7752
2449.9885
2510.9018
2562.7175
2599.9557
2629.0815
2648.8824
2662.3134
2670.1845
2673.6782
2673.5528
2669.5745
2661.5419
2660.6499
2646.3935
2787.1726
2790.6506
2802.4745
2799.4948
2806.513
2668.8484
2672.9321
2809.747
2812.1735
2809.1551
2914.2262
2910.2063
2901.6744
2899.3476
2908.5875
2986.5121
2982.4087
2982.6697
2985.5774
2985.1207
2986.6799
2913.1147
2914.9805
2915.6481
2984.2292
2986.2621
3020.5492
3024.7294
3031.48
3035.6521
3033.5012
3027.5402
3032.8552
3052.4762
3057.7805
3040.5675
3021.1217
3011.3781
3019.3992
3012.4487
3006.8291
2986.9449
3000.727
2988.6362
2974.1372
2959.1568
2940.4519
2966.232
2967.4514
2941.0381
2949.1562
2906.4195
2890.0072
2932.8497
2915.7336
2942.3758
2961.4046
2985.2646
2993.8836
2966.2269
2901.845
2887.6734
2949.9681
2953.4527
2885.9103
2786.4398
2776.6489
2641.4326
2654.1585
2788.0726
2893.3471
2899.8244
2969.4043
2968.9694
2953.3287
2879.6965
2866.7768
2759.8256
2623.3496
2614.3732
2587.5325
2556.3259
2685.0734
2716.8471
2741.5659
2844.1924
2822.3265
2781.3661
2864.4477
2905.006
2921.3428
2946.5818
2961.6382
2879.6595
2770.7497
2635.7689
2607.6612
2596.2258
2734.2613
2744.5123
2706.9167
2572.0743
2560.9991
2553.4315
2523.6734
2476.9898
2504.737
2632.3853
2681.0253
2651.9664
2603.3082
2702.1767
2750.4338
2788.6222
2740.3842
2831.3217
2875.7994
2837.555
2793.3923
2861.8679
2899.8709
2919.4699
2927.733
2925.3906
2916.6396
2960.4931
2969.8195
2980.6717
2957.1254
2912.1215
2936.1976
2915.5167
2872.1149
2829.8569
2867.0348
2832.7365
2666.9525
2635.3997
2703.0665
2738.5958
2761.7402
2893.4219
2960.0428
2975.8129
2987.5364
3005.3338
3014.3875
2996.8928
3008.9733
2985.315
3004.6648
2979.499
2913.5832
2875.5838
2871.7639
2904.3309
2953.3214
3000.2074
2942.1114
2920.9857
2839.9537
2933.3862
2885.516
2853.6282
2677.48
2748.3882
2764.3041
2860.1667
2877.2275
2969.4003
2982.8602
3027.4881
2974.2105
3032.6607
3043.0564
3067.9661
3083.2392
3082.2095
3093.8197
3090.242
3098.1345
3091.4507
3087.5794
3080.3916
3083.0059
3075.221
3082.2296
3091.7308
3097.1774
3085.8282
3089.7665
3070.3615
3026.4456
3024.9628
3066.986
3060.3819
3060.4717
3068.3028
3037.6394
3040.2779
3039.9975
3025.041
3070.8064
3075.2201
3072.8021
3077.9337
3070.7087
3084.4518
3075.9562
3066.518
3076.9312
3044.3216
3031.766
3060.5009
3046.7529
3016.031
2995.3696
2940.7649
2996.6512
3017.3213
3004.6372
3021.6499
3035.8693
3015.7335
3014.7505
2997.4602
2996.9119
2956.3767
2976.3655
3016.4029
2961.9233
2890.9807
2869.9846
2790.8248
2914.2298
2975.62
2988.2149
3005.5498
2994.248
2979.208
2998.649
2973.7306
2983.6118
2985.7147
2987.1239
2984.6922
2906.3744
2909.3662
2989.5683
2992.6605
2917.7749
2914.2522
2917.5834
2921.2954
2817.5113
2682.137
2685.6822
2681.5049
2681.1186
2456.9316
2161.1049
2161.3318
2158.6446
2448.6948
2674.5867
2673.2445
2811.7286
2815.1449
2817.9641
2678.2078
2676.911
2814.584
2920.719
2919.4973
2915.1645
2905.568
2989.752
2977.6568
2972.934
2949.6618
2913.3388
2860.6874
2787.8284
2689.9012
2462.7239
2064.8404
1769.0001
1505.1549
1422.9241
1205.4406
1221.5224
1140.7313
1221.2261
1408.8457
1318.3935
1313.9575
1505.4928
1500.002
1753.2559
1769.5093
1853.1973
1640.8073
1629.6929
1823.8782
1842.684
2035.1668
2046.7675
2193.6642
1952.5227
1942.5699
2174.0605
2147.7511
2009.0078
1991.161
1810.2198
1901.7354
1917.0436
1984.0235
1714.949
1402.4461
1399.1852
1673.8221
1595.7444
1479.7668
1477.5417
1696.3198
1711.4328
1785.0038
1771.6937
1939.9378
1959.111
2088.7843
1871.3415
1855.5366
2058.5918
2024.444
1911.9636
1754.6255
1586.3373
1746.0328
1893.2197
1816.7467
1830.06
1883.7783
1656.242
1867.0011
2105.9008
2146.863
1913.2622
1932.8411
1965.9325
2219.5277
2121.043
2274.4687
2176.8308
2027.9759
1752.7696
1499.6689
1628.801
1640.2382
1852.2357
1841.8067
1941.1694
1951.0654
2191.7739
2045.5517
2034.0851
2172.2464
2146.1141
1915.6579
1823.0893
1809.4278
1900.4938
2119.5786
1990.2771
2007.9823
2200.1162
2228.6145
2245.1379
2348.7768
2341.2609
2426.3458
2432.7625
2565.9186
2473.1928
2466.4564
2556.8026
2544.3306
2411.5387
2328.1813
2318.945
2402.1879
2532.0298
2443.0376
2452.5704
2562.2803
2448.795
2461.9508
2582.5208
2574.4358
2673.4808
2682.9105
2785.8487
2688.7465
2682.4874
2777.0831
2765.6156
2661.7561
2648.8541
2551.2086
2659.3613
2669.3249
2762.7087
2640.1315
2449.3794
2229.5825
2246.2468
2350.5776
2343.0705
2468.1777
2474.8844
2568.3047
2435.1013
2428.681
2559.1213
2546.6024
2454.3024
2330.0057
2320.7549
2444.8041
2534.2677
2404.4531
2413.8786
2475.1494
2278.9089
2011.7301
1732.409
2023.6435
2300.848
2370.7252
2079.2637
2067.5158
2348.0651
2317.7778
2250.4015
2446.7489
2386.6869
2303.9876
2200.9259
2413.6391
2390.6342
2503.159
2395.6836
2414.2303
2291.5288
2374.3049
2502.8187
2518.2058
2426.7832
2535.0551
2552.6534
2563.5957
2575.8079
2583.9246
2685.068
2675.6406
2778.8682
2683.5893
2670.1783
2660.247
2754.584
2650.8171
2663.8316
2767.186
2858.3255
2763.3126
2775.9114
2659.1818
2782.1291
2775.2543
2867.7711
2875.944
2952.4844
2870.3083
2864.9137
2945.1892
2935.0939
2857.1054
2844.8234
2753.1368
2737.4481
2633.2202
2516.1141
2384.3496
2302.2094
2289.9812
2372.3323
2501.0732
2412.8891
2425.1388
2533.7709
2413.1571
2390.2164
2176.0593
2273.051
2259.3725
2338.6129
2352.9841
2483.0039
2394.4914
2380.0676
2465.3842
2580.5609
2485.8253
2502.1857
2519.5623
2617.1695
2721.5081
2627.5471
2640.6886
2734.8662
2608.0661
2577.7089
2702.0628
2608.809
2592.9091
2684.452
2703.2436
2599.1448
2671.2817
2551.2045
2411.2264
2217.5095
1964.1413
1713.5766
1401.6467
1398.0862
1318.1305
1479.278
1594.5828
1784.0674
1710.7626
1770.8618
1853.9291
1870.0629
2087.2465
1958.3794
1939.204
2056.5092
1974.447
2141.3711
2112.9315
2204.8322
2224.0261
2239.6223
2317.1369
2300.9219
2425.2552
2342.2939
2358.5653
2444.6907
2559.6846
2464.3911
2347.136
2318.4653
2425.4675
2321.1978
2303.0195
2188.548
2260.2687
2278.7254
2403.2099
2381.0288
2493.1806
2405.2409
2510.3659
2530.1675
2552.2025
2446.0805
2538.9907
2642.3206
2663.1931
2569.8226
2663.3157
2537.6417
2347.5927
2142.0947
2114.3268
2319.2356
2426.7502
2322.3576
2206.1444
2224.8899
2240.6287
2260.5393
2381.0344
2466.6958
2340.0362
2354.6761
2484.3327
2600.5244
2618.699
2520.598
2628.2352
2641.4251
2738.8598
2635.1215
2708.8933
2588.4148
2604.4322
2464.7247
2517.7719
2527.8915
2543.5127
2489.9439
2496.8931
2639.5281
2629.992
2684.6483
2693.9283
2549.7318
2587.7229
2581.084
2725.6416
2734.7385
2764.2832
2617.8862
2611.9212
2755.4135
2743.1986
2713.1801
2672.0757
2617.6705
2738.1075
2749.8471
2759.2886
2814.567
2805.2625
2904.8341
2851.7113
2840.5772
2827.4529
2724.6383
2780.0721
2658.8213
2699.8418
2555.1229
2565.5209
2596.1135
2585.9786
2729.9882
2849.645
2820.8147
2834.1779
2793.5769
2893.9941
2881.0607
2918.9365
2931.5168
2941.6716
2845.5889
2854.3731
2882.0061
2873.6336
2965.8619
2956.347
2862.7642
2881.6601
2764.1582
2616.9473
2388.4833
2099.1138
1783.5125
1763.9297
2067.999
2036.9025
2017.5505
2284.6463
2322.9504
2047.0991
2063.739
2085.0737
2116.7514
2129.4086
2111.6745
2411.3975
2429.6352
2406.8275
2375.6437
2357.5627
2587.2065
2566.5404
2536.1931
2498.7395
2485.2556
2433.2464
2571.8929
2625.4071
2642.2126
2764.2476
2746.7525
2691.7202
2795.3266
2722.7801
2704.3338
2609.2244
2593.4808
2486.5865
2581.5625
2685.3871
2778.029
2685.3964
2702.2241
2720.914
2735.2061
2752.3956
2842.9403
2852.2962
2865.4808
2870.7631
2782.9833
2877.7061
2869.4209
2946.3728
2953.8536
3016.4727
2948.3551
2941.873
3009.1857
3015.6963
3062.6074
3057.2986
3009.9044
3000.8645
2931.0735
2851.9792
2842.7162
2752.0089
2923.791
2989.4565
2920.4534
2990.0311
2924.4682
2846.0287
2830.8903
2814.8734
2894.8934
2812.379
2825.3101
2910.0754
2976.7513
2905.4385
2825.2422
2812.2399
2720.7661
2814.0781
2829.784
2909.278
2894.264
2876.7233
2796.289
2777.3061
2685.1106
2776.9275
2792.8083
2873.3163
2792.849
2777.0905
2858.9648
2877.208
2796.8142
2865.2445
2776.754
2672.8195
2552.8626
2413.189
2397.1054
2533.7503
2585.8922
2447.3791
2463.8384
2605.6397
2727.3659
2706.7178
2652.782
2756.63
2809.5362
2829.893
2848.8064
2865.7325
2812.1702
2899.5115
2914.1477
2926.3739
2936.6673
2944.7083
3011.5141
3004.6723
3042.7621
2983.9184
2991.2027
3048.594
3085.1575
3060.5463
3054.9667
3086.8176
3090.702
3092.2355
3100.0012
3089.4513
3092.3224
3082.6382
3061.8849
3054.0457
3084.3806
3054.1445
3086.1385
3078.4806
3092.5451
3083.6901
3070.7385
3051.0175
3030.7076
2992.564
3013.7676
3053.5373
3015.7823
2994.6951
2965.1389
2921.5639
2856.4472
2914.5656
2852.0336
2896.5589
2958.0179
2891.4323
2802.446
2754.6813
2644.5899
2769.5059
2809.8681
2901.0805
2813.837
2904.555
2860.6085
2766.3328
2651.9796
2694.3395
2542.3323
2687.2824
2717.7481
2832.5509
2921.0678
2987.7127
3009.0472
2943.2791
2856.1223
2949.0347
2926.4656
2840.186
2931.0226
2953.357
2867.1016
2956.0223
2933.8972
2843.7185
2724.6917
2749.5634
2863.8528
2742.6834
2599.0346
2572.98
2376.2894
2552.5234
2702.2751
2826.8055
2798.2234
2673.6542
2494.7464
2673.4228
2634.1761
2455.1245
2236.5139
2247.1447
2518.1129
2372.6576
1972.0037
1996.0541
1630.069
1967.3239
2260.8728
2489.2457
2522.8076
2294.6343
2080.1214
2346.2831
2308.3354
2495.1849
2319.1934
2507.4636
2655.8052
2782.5819
2820.4699
2695.4104
2533.8328
2709.9292
2674.7202
2494.0458
2298.083
2330.7863
2540.7899
2357.16
2108.9153
2069.0336
1761.0628
2033.2559
2301.5
2555.7266
2574.3421
2767.9419
2888.2434
2859.8268
2934.5004
2955.0733
2981.3908
2960.7234
2884.1056
2902.3501
2933.4119
2808.921
2739.3733
2726.1674
2708.8559
2675.8322
2824.3179
2891.8007
2890.9247
2933.5266
2954.3296
2932.0335
2873.2791
2781.8531
2748.7313
2745.8797
2622.9338
2655.9468
2778.9802
2797.7133
2800.8556
2812.5337
2683.001
2678.7134
2665.7564
2657.653
2439.1636
2156.5028
2174.8652
2140.6659
2108.2014
1772.3202
1772.6659
1828.0968
2158.4236
2448.198
2429.4152
2139.8404
2142.9323
2438.3624
2397.8647
2109.4199
2123.7838
2399.4125
2331.1273
2066.2531
2053.8907
1984.18
1675.4373
1332.4061
1676.0992
1980.8593
2052.9931
2048.97
2106.8135
2388.4428
2318.1091
2328.1859
2221.5028
2226.7525
1994.7538
1891.4747
1807.0224
1886.4568
1894.1947
1987.6433
1691.3489
1651.2703
1950.9958
1959.6351
2157.3266
2190.3228
2076.9802
1818.2794
1875.7413
2044.8276
2195.1633
2328.0066
2224.8772
2496.1263
2576.0798
2393.0352
2245.4911
2084.9955
2356.117
2427.4456
2577.7852
2721.5073
2621.173
2455.2328
2712.2145
2823.3234
2720.305
2619.7472
2491.4262
2355.6284
2223.6881
1993.0795
1765.0194
1446.7938
1529.6684
1547.9026
1530.9577
1442.2812
1530.2917
1807.9433
1880.9167
1875.6128
1977.3363
2211.5106
2070.9526
2075.2521
2087.6105
2077.5509
2217.3967
2423.1591
2476.727
2524.0978
2557.4798
2584.5347
2602.6045
2615.4473
2648.2307
2772.502
2739.822
2728.755
2761.4944
2634.9085
2644.327
2656.7041
2670.5596
2802.581
2809.5109
2908.5836
2910.2863
2896.2851
2957.314
2972.9725
2974.0357
2958.3149
2894.8775
2871.8372
2830.8565
2832.4068
2890.9485
2892.2346
2933.1661
2934.1171
2868.3178
2827.4057
2892.8211
2890.9148
2819.3422
2860.5529
2932.0414
2957.1112
2959.356
2891.1612
2791.1096
2779.6881
2790.8643
2896.433
2904.7466
2974.8325
2972.3208
2981.251
2984.2042
2983.7263
2982.9455
2917.8405
2918.451
2922.2373
2820.1419
2819.6541
2685.4822
2681.1481
2677.0003
2814.0801
2817.3951
2816.3292
2814.0144
2817.5471
2677.7926
2676.6399
2814.0565
2810.558
2672.2548
2673.5831
2665.1627
2672.8838
2668.4844
2807.0973
2809.0133
2796.7716
2658.4421