/*--------------------------------*- C++ -*----------------------------------*\
  =========                 |
  \\      /  F ield         | OpenFOAM: The Open Source CFD Toolbox
   \\    /   O peration     | Website:  https://openfoam.org
    \\  /    A nd           | Version:  7
     \\/     M anipulation  |
\*---------------------------------------------------------------------------*/
FoamFile
{
    version     2.0;
    format      ascii;
    class       surfaceScalarField;
    location    "130";
    object      phi;
}
// * * * * * * * * * * * * * * * * * * * * * * * * * * * * * * * * * * * * * //

dimensions      [1 0 -1 0 0 0 0];

internalField   nonuniform List<scalar> 
76358
(
36.224602
-0.01044648
2.0245291
1.4736887
-1.4798696
-2.0328152
0.059352427
-34.805773
-0.00013761304
2.1450437
2.1315366
-2.0914255
-2.098678
-1.4912521
1.4740071
2.0331116
-2.0562933
-0.058516607
-36.224744
-1.4914119
1.4738185
-2.0563122
2.0331189
-34.679235
-2.0380835
2.0211516
-2.0303465
1.9957058
0.00022858994
-34.806331
2.1316461
-2.0913972
-2.098075
2.1457846
0.00017040198
0.010118905
-8.9730923e-06
-2.0829173
2.0774336
2.0785343
-2.0875675
1.4735804
2.0245238
-2.0328493
-1.479937
2.0773796
2.0781191
-2.0875185
-2.0828532
-3.5290899e-05
-0.053964576
10.410669
0.36981131
-0.37450614
-0.5387747
0.53291373
-0.0097732692
-8.2589961
-0.0060264999
9.6668086
-0.007127205
-7.6830904
10.341373
0.0061777036
-7.406308
7.4265014
-0.03401012
-0.033782376
0.0018173642
0.0020832577
-9.2546069
0.37667942
-0.38670369
-0.52541166
0.51713609
-0.0593169
-36.22427
1.4739874
2.0329709
-1.4912391
-2.0563535
-2.0987345
2.1449518
2.1313387
-2.0915485
-34.805569
0.012220089
-2.4920881
-2.5112008
-2.1907405
-2.3378101
0.38574424
-0.38160458
-0.38868056
0.53506136
-2.5288195
-2.4589006
-2.197586
-2.217385
-0.38706808
0.54466956
0.54434599
-0.38210585
-0.00015770462
-0.42695204
-0.016152916
-2.0479596
-0.00020614057
-0.037548794
0.010179228
-7.8105208
-0.52108237
-0.50214368
0.41350664
-0.0001494168
0.12870048
0.32618426
-0.37471692
-0.52700144
0.42003233
-8.2484862
-7.6940155
-0.12916271
-0.022622922
-0.094887464
0.022840764
9.3841771
0.37693626
0.3688119
-0.38033477
-0.38600797
-0.38614852
-0.38049548
0.36863854
0.37679714
-9.3878379
7.6940567
-0.09442894
-9.6668816
-0.12939633
-0.12816353
0.33213751
-0.37540771
0.41665088
-0.36650513
-0.36637164
-0.37523475
0.41677697
0.33229295
-1.8165706
-0.003092147
-0.014103592
-0.046629085
-0.044333281
-2.4757329
2.086158
0.087046163
-0.097455607
-0.13027957
0.10717621
-2.6283129
0.0020370917
-0.024255511
0.018336069
-0.6395344
-0.61802745
-0.55920525
-0.61056323
0.023263501
0.17073474
-2.082458
0.16553127
0.083912156
-0.096536263
0.10185275
-0.12882679
-0.11049223
-2.3432061
-0.47657605
0.0021238494
0.0058761212
-0.0039621628
-0.0018305159
-0.66477524
0.52118291
0.00068960718
-0.65489031
-0.0012239412
0.0072751904
0.0051803207
-1.7184227e-05
-0.57111845
0.0050366265
0.014168944
-0.5158278
0.012976262
-0.012944258
-0.62300319
-0.010537667
-0.57630017
0.00013233234
-0.0072052625
-0.0013612088
-0.5758173
0.010574664
-0.023832335
0.020727065
-0.032336497
0.025801609
-5.6165206e-05
-0.12903104
0.0012870768
-0.52781356
-0.00069398284
-0.52718948
-0.0063404631
-0.0069045529
0.095470227
-0.097217801
-0.13114803
-2.0840138
-0.0094575478
-0.37274177
0.36708309
-0.53620306
0.53426398
0.51300784
-0.51873725
-0.53900891
-0.00011418691
-9.9080678
2.5263605
-0.1318854
0.13109704
0.13388281
-0.13476844
-0.0022936933
-1.9944693
0.0031012741
0.10787287
-0.13096629
-0.13403914
0.11338688
2.012672
-0.13374823
0.1128691
0.10774047
-0.12927721
-2.4692309
-6.7689598e-05
-0.032869243
-5.8782855e-05
-0.0061763909
-0.64112037
-0.61809821
-0.56413353
-0.57381438
0.17297869
-9.1101114e-05
-0.62622753
-0.64140174
-0.57344668
-0.56829733
0.17152657
-0.52557888
0.0051886598
0.0072158801
0.00020630275
0.0013925588
-0.65936798
0.53185575
0.0013864485
0.00029253538
-0.66736757
0.0073974834
0.0016320643
-0.0047311777
-0.57660305
0.0017287789
0.013556249
-0.57468598
0.013909978
0.0014495187
-0.56281119
-0.011799418
0.00054453443
-0.5625053
-0.011806316
-0.0014480491
-0.00031099517
0.5756755
-0.011648371
-0.56172355
0.53071769
0.00032941977
-0.66595085
-0.0033449116
0.0074433929
-0.521309
0.0076287935
-2.2450273e-05
0.0014602387
-0.65169375
-2.327329e-05
0.57238827
-0.011530356
-0.55968159
-2.7080623e-05
0.0024757118
0.013438659
-3.0839187e-05
0.013509009
-0.0017363274
0.58412887
0.011039792
-0.57722167
-0.0027016479
-0.0050889063
0.58371321
-0.57793045
0.01112607
-0.0045542281
0.57981163
-0.57801813
0.011581799
0.0016014976
0.57162353
-0.57491508
0.011304764
-0.10039151
0.62515014
-0.5201034
0.0099225225
0.11057998
2.2109989
-2.3682856
-0.12794229
-0.092367365
0.087943439
-0.092333471
-0.12789542
0.10043743
0.087980679
0.044348826
2.0824401
0.083964857
0.10190423
-0.12877365
-0.096481106
-2.3431949
0.37473362
1.816561
-0.046446047
-2.4757345
10.416977
0.32617758
0.42016499
-0.52685651
-8.2485704
-0.0096759793
8.3780635
-0.1972113
-0.0091332873
-0.0594905
-0.01257328
-9.2543852
-0.0017750626
0.5172163
0.37664097
-0.38674899
-0.52529315
0.012972996
0.53513942
0.38568155
-0.38167029
-0.38859866
-2.3378119
-2.492091
-2.5111275
-2.1906303
0.29679636
8.7965182
-0.38679477
0.54486857
-0.3814631
0.54485405
0.00019308366
-2.5287839
-2.2172142
-2.4587733
-2.197228
8.3853361
0.00013769009
-10.128157
-0.071011311
0.00012570586
0.51995166
-0.5260405
0.51828585
-0.52178526
0.00019191914
-0.0040153384
-2.0935626
0.0040383725
0.0014622004
-0.0054790367
0.0023289848
-2.0916334
-1.8930261
0.0053937168
-0.0020910553
-0.001986266
-2.6624015
2.0917214
0.0047686942
-2.6256761
0.0023181707
-2.3235622
0.0040106292
-0.0047645576
-2.3248746
0.005492461
-2.6255795
0.0019021423
-0.007365568
0.01434797
-2.1019021
0.0044796276
-1.9055933
0.0072520279
-0.014543259
-0.014413654
-2.6399113
2.1019676
-0.012033925
-0.00023029591
-2.4929272
0.014363491
0.0042414147
-2.3059886
0.0049941607
0.0048312356
0.012067443
0.00085403891
0.00066305836
-2.331607
1.0906544e-05
-2.4928579
2.1029462
-0.00028548165
0.0027692379
-2.4922138
2.6273072
0.023354411
0.0016327843
0.0082241345
0.001382085
2.3131923
0.0033844751
-2.3125464
0.0030306478
-0.0050582388
-2.304597
0.00018122624
-2.0869438
0.00011216505
0.009792077
-2.617286
0.00014695421
-2.3042749
0.00025342969
-0.003449518
-2.2895275
-0.025896766
0.00033255805
0.014266305
-2.2981902
0.010542821
0.0043609872
0.0090293209
-2.3110119
-0.0040298031
0.00043922752
0.014537182
-2.2961131
2.0968617
0.00017795643
-2.4797634
0.0001658169
-0.54481353
2.6171302
0.025978552
-2.0967021
-0.001427273
0.29665644
8.7962897
-0.012721525
-0.38142703
-0.38661876
0.54495896
-2.4587631
-2.1971876
-2.5287229
-2.2170846
2.0303101
8.3852821
0.0093074395
-10.128106
1.995724
2.0213258
-2.0378646
-34.679218
0.0023690334
-2.0914331
-0.51720584
-0.0055473918
0.0039482238
-0.0025069449
-2.3231258
0.0027709468
-0.004204389
-2.3126641
-0.0051124453
-2.3042658
-0.5182614
-0.0013143957
-2.0868421
0.070881183
0.0020260386
0.52003083
-0.52585969
-0.52177211
0.012733091
-8.3779965
-0.059201114
-0.19688455
-10.416945
9.2540305
0.53522133
0.38580976
-0.38148276
-0.3884218
-2.5110828
-2.1905032
-2.3376836
-2.4920485
0.51728759
-0.52512579
0.37674992
-0.38657391
0.0039320069
-2.0914232
-0.0054719001
-2.0933468
0.0011936263
0.0084122383
-2.6270141
-0.0017982854
0.009856571
-0.0030255209
-2.3038395
-2.311936
-0.0053943828
0.0029813279
-0.02356012
-2.2974697
0.010981039
-0.0048685678
-2.2889445
0.014397485
-0.0041570026
-0.0037764761
0.014766162
-2.295338
-0.0025356754
-2.4795725
2.1026753
9.2815408e-05
-5.9644154e-05
-2.4918629
-0.0043671996
2.6253059
-0.0073497123
-2.1016596
0.014557592
0.0049595205
0.0019990509
-0.0048037331
-2.3244069
0.52521746
0.0019178072
-2.6253189
0.37666653
-0.38666015
-9.2540481
-1.8928754
-2.6621926
-0.3857276
-1.9054335
0.0074285813
-0.38155744
0.53513108
-0.38851643
0.01286312
-2.3376992
-2.1905187
-2.5110855
-2.4920494
-0.01442165
-0.014345709
-2.6397064
-0.011836182
-2.4925741
0.00070747815
2.3054822
0.012009523
0.0010169189
-2.3310523
0.0095326512
-2.310131
0.011445984
0.012937267
2.2701146
-0.0089922366
-2.275973
-0.0010148638
2.2341029
0.025253074
-2.232129
-0.012494053
0.024917818
2.2359264
-2.2348278
-0.0090262801
2.2716852
0.011831611
-2.2779552
0.00050763813
0.0038619826
2.2983201
-2.3110529
2.1031288
0.0024414569
-2.492361
0.0013583209
0.023116889
-2.0972599
0.025237964
-0.00010391111
0.0033556972
-2.4801503
-0.0001297153
2.2898463
0.013760763
-2.2961808
-0.0002085894
-0.0030410464
0.013503665
-0.00014774365
0.010491644
0.0094737038
0.0099471804
-2.2350487
0.018255934
-0.00021847071
0.023559206
-2.2327443
-0.00027127593
2.0692855
-0.00070344589
-2.019203
-0.00090203324
-0.019352736
-0.00062529462
-0.00066832892
0.0006421139
0.019488651
-0.0092388953
-2.0696402
-0.019003447
-0.00087480463
-0.02409615
-2.0197226
-0.0012717792
2.2331231
-0.014242308
-2.2306122
0.00057246973
-0.010366494
-0.014061464
0.00033338671
-0.010515304
-0.0051553137
-2.2974562
0.0035013914
-0.023321807
-0.014390974
-2.1016695
0.0045193101
4.7166315e-05
-2.4925693
-0.00031862381
0.38680033
2.1026821
0.0027574184
-2.4918741
0.004393676
-2.3101438
2.2887007
-0.0038665331
-2.2950121
0.00032934056
-0.025747702
0.00024133084
-0.54468157
-0.001622452
-2.0966366
0.00012106492
0.54476633
-0.38155261
0.00010906354
-2.2171084
-2.1971465
-2.5287107
-2.458718
-2.479436
0.00013765451
0.010459339
0.0001571837
-0.57242342
-0.5788212
-0.0058424677
-0.58403603
-0.57547443
-0.17345495
0.020767637
0.00042223708
-0.56729895
-0.56984513
-0.0072287002
-0.58259044
-0.57877945
0.030628087
0.00083985981
-0.01681214
-0.56635922
-0.55619633
-0.54095072
-0.56099407
0.00079652889
-0.0016912484
-0.032888694
-0.53381762
-0.50378353
-0.41796571
-0.49974428
-0.030541113
-0.0012045851
-0.032013547
-0.50452438
-0.53554746
-0.50013371
-0.41444167
-0.020255074
-0.00028903034
-0.01569439
-0.5572549
-0.56684578
-0.56134459
-0.5416016
-0.0099234949
-0.0066348591
-0.57012649
-0.58276304
-0.57905027
-0.56769211
-0.0002456396
-0.0054943714
-0.57899692
-0.5756186
-0.57269619
-0.00016014485
-0.015148677
-0.57790524
-0.57881059
0.0090605324
0.049034086
-0.59858723
-0.5737109
-0.017303391
-0.16545481
-0.048892255
0.014113068
-0.018162726
-0.0029464706
-2.0861116
-0.024155384
0.016357974
0.08705487
-0.097447212
-0.13023235
0.10721744
-2.628289
0.0022821331
0.63953256
0.0058851617
-0.47656867
0.0021706739
-0.61055682
-0.61800298
-0.55916467
0.023502482
0.1708061
-0.51581723
6.8758232e-05
0.012981044
0.0018211768
-0.012886995
-0.62299107
-0.010533988
-0.0039085223
-0.66476729
0.52116598
0.00072010481
-0.65487238
-0.0011545715
0.0073046375
0.0052464671
-0.57109784
0.0051071125
0.014199453
-0.57627942
0.00019448656
-0.0071797985
0.010511167
-0.57580013
-0.0013906564
1.4930158e-05
-0.023830013
0.020729047
-0.032324691
0.025810924
-0.12457292
0.00043313886
-0.48116232
-0.0071778048
-0.005827588
-2.0755293
0.091253334
-0.095316144
-0.12861869
0.12320679
-0.36705723
-1.7527793
0.007086344
-0.37277784
-0.53610051
0.52731547
-0.009017589
-10.410873
-0.011370005
-0.017457771
-2.4770641
0.093591021
-0.093722642
-0.12633153
0.12693816
-0.1299734
-2.3434089
-0.098244014
0.6646854
0.0013204053
-0.47527375
0.0011029783
2.0840235
-0.00073665367
0.13228616
-0.13022111
-0.09660322
-2.640551
0.095473389
-0.097214636
-0.13110153
0.12907176
-0.0060927014
-0.47637725
-0.0012301737
-0.0017246186
-0.0024980152
-0.0014105655
-0.60476638
-0.0053286822
0.00089479267
-0.00037647646
-0.57739343
0.023437406
0.032041976
-0.032145599
-0.023669362
0.52780197
-0.0015041443
-0.65900259
-0.00061947511
-0.1311364
0.65934482
0.0028577034
-0.53241462
0.0007290201
-0.53444326
2.5263177
-0.13184009
-0.13466107
0.1339753
-0.002102134
-1.9944756
7.8106217
0.51339118
-0.51839027
-0.53886439
0.00014519484
-9.9084393
0.42715717
-0.52087411
-0.5017298
0.41387857
0.00014120353
-2.0478919
-0.037311325
-6.5447994e-05
0.10792133
-0.13091757
-0.13393638
0.11348065
0.0032857957
0.62621866
0.0072675978
-0.52555705
0.0052385944
-0.56826418
-0.64136481
-0.57336529
0.0064067341
0.17178312
-0.57465515
0.0047940285
0.013971656
-0.0014508101
0.0015170875
-0.56278133
-0.011745612
0.00026481646
0.53182227
0.0014755897
0.0003621692
-0.66733159
0.0074788819
0.0016978258
-0.57655999
0.0018079874
0.013659625
0.00061461679
-0.56246367
-0.01171826
-0.0015726742
0.57561812
-0.00024613189
-0.56166753
-0.011517167
0.13363885
0.53067844
0.00038029065
-0.66590809
2.012557
0.11297421
0.10787867
-0.12912401
-2.4691504
5.94056e-05
-0.032447329
4.4093877e-05
-0.64109943
-0.57373764
-0.56400757
-0.61805219
0.17355845
6.9788621e-05
0.0075525288
-0.003301485
-0.0024159542
0.013656952
-0.007766937
-0.57231276
0.013633968
2.2206462e-05
-0.52125739
1.5442754e-05
0.0016176308
-0.65163747
1.8740504e-05
-0.55960806
-0.011354672
2.1472808e-05
-0.00015292728
-0.0031317178
2.7298943e-05
-0.54438708
-0.032274945
0.026275399
0.026266694
-0.032230784
-0.00045623917
-0.0030895951
-0.54623721
-0.032357034
0.026282375
-0.032268145
0.026305391
-0.00067913885
-0.0030036309
-0.032427123
0.026195778
0.026310639
-0.032320571
-0.54699586
-0.54799101
-0.032526738
0.026079228
0.02622877
-0.032378091
0.00062230969
-0.54919508
-0.032367356
0.032242014
0.032135318
-0.032139447
0.00033475791
-0.00059761222
-0.66453894
0.53592303
-0.67069922
-0.00056544719
8.2959542e-05
0.00029212402
-0.13360567
-0.53457257
-0.00052731005
-1.9568385
-0.13421592
-0.12971319
0.12922873
7.1814885e-05
-0.0015504055
0.13618597
-0.13383138
0.13172076
-0.12938153
-2.4784526
8.0425364e-05
0.13374165
-0.13155009
-0.13424784
0.13660914
-2.5401799
-0.00079523298
-0.53195805
0.0007450428
0.0012109532
-0.52721616
0.0010249064
0.00099290716
0.001040747
-0.00069250328
-0.65877842
0.00010823499
-0.66471494
0.48120386
0.00066150473
-0.00339197
-0.60469669
0.00030414686
0.0041744814
-0.57722437
0.00027674327
0.03262917
0.02396914
-0.023595284
-0.032119779
0.00034278393
0.024017494
0.032711539
-0.032194374
-0.02366974
-0.57672982
-0.0011475077
0.54924324
0.032860741
0.0002644751
0.032782646
-0.032461453
-0.032268867
-0.54893049
-0.00053433765
-0.66481381
0.53484438
3.7411987e-05
0.0011994778
-0.67086344
0.0012966421
0.00020269536
-0.00033292042
0.54761539
0.0003061411
-0.54766384
-0.032142638
0.032753199
0.032818208
-0.032056891
0.032854549
-0.032332326
-0.032104823
0.032785538
-0.000254746
-0.13128831
0.00036824118
0.16386714
0.00016221816
-0.00030125962
0.16342011
0.00031014521
-0.13105458
-0.023597004
0.1651478
-0.11859202
0.00070911164
-0.13131464
0.64868436
-0.00021514363
-0.51336793
-0.023497798
-0.032659085
0.032947722
0.12985363
2.128823
0.099073874
-0.097916243
-0.13074638
0.13125434
-0.13081114
0.099026984
-0.097969073
-2.391877
0.011338521
2.0755286
0.093527682
-0.093783112
0.12687891
-0.12639194
-2.3433936
1.7527669
-0.017633492
-2.4770321
0.0058510605
0.091196813
-0.095378226
-0.12867813
0.12452061
0.12330967
-0.4763808
-0.00044032423
-0.0025593616
-0.0017305254
-0.66468694
-0.00092316656
-0.0015859109
-0.65901188
0.0014778018
0.023436836
-0.023670863
-0.032157707
0.032032364
-0.00045124522
-0.57740765
0.48116993
-0.0053273446
-0.60477344
-0.0071783101
-0.13220278
-0.51117678
-0.023919316
0.019887701
0.64606428
0.025853475
-0.032954363
0.0012694757
-0.13186251
0.10188679
-0.0987915
0.10192268
0.13225121
-0.13180604
-0.098749509
0.02317559
0.00079849995
0.03246815
-0.032609896
-0.023506701
-0.64869227
0.16440852
0.00046824525
-0.11841064
0.00014630102
0.11797427
-0.00062765906
-0.00068974024
0.15591711
0.001824105
0.00084781916
0.014885257
0.0080805112
-0.15528221
-0.15402989
-0.14226867
0.0024117709
0.0023661732
0.52675599
-0.014955883
-0.030158749
-0.57164255
-0.0014446274
0.027479353
-0.57890977
0.011238939
0.003820075
0.0076622249
-0.15350836
-0.15624307
-0.14444327
-0.14247044
0.0032177626
0.0121387
0.58066943
0.00032372413
-0.14778424
-0.15563971
-0.14307885
0.003844904
-0.14281173
0.030181522
-0.012102114
0.58256669
-0.61866614
-0.0023593775
0.52675099
-0.014906808
-0.57163676
0.52009487
-0.014829556
-0.6460541
0.6251479
0.0099167959
-0.0015513513
-0.59859086
-0.57368141
-0.57159587
-0.017344844
0.015416811
-0.0013986674
0.027456273
-0.011319962
-0.57889647
0.01124134
0.0038950141
-0.5748964
0.0046286756
0.0080935428
-0.15591598
-0.15528053
-0.15402248
-0.14225874
0.0024784237
0.0076603944
-0.14443617
-0.15624279
-0.15350853
-0.14246312
0.0032804948
0.58066525
0.00030306761
0.0038999011
-0.14307364
-0.15564019
-0.14778724
-0.14280887
-0.00023449348
0.58510301
0.0031158359
0.0039222365
0.63706878
0.00019903796
-0.58512039
-0.57757234
0.0094039216
0.0092053343
0.0031328655
0.0038541546
-0.58075207
0.0047370479
0.0046913862
-0.15628598
0.0042339705
0.0041951975
-0.14432252
-0.14431897
-0.14362698
-0.0064279793
-0.0064200891
0.0012420639
-0.14593052
0.001250537
-0.0012801657
-0.022426054
-0.13188402
0.0013780217
-0.0021590457
0.0014204471
-0.13012262
-0.026058661
-0.0011663696
-0.025715146
-0.1300483
0.0012624141
-0.0020386551
0.00111493
-0.13111296
-0.025372753
-0.13062511
0.00098182361
-0.00059556057
0.00025357292
-0.16386514
0.00024340634
0.14353949
0.0006802812
-0.14537432
0.0003155783
0.13003538
-0.16283205
1.3843893e-05
0.0016295217
0.0010253921
0.0023816079
0.0015005581
-0.14400203
0.0012980405
0.0017572546
0.00062601684
0.00079243272
-0.14515294
0.00041274763
0.032914519
-0.16368062
0.00053273134
-0.49390922
-0.032095989
0.039345546
0.032257514
-0.032496816
-0.031737138
0.032042556
-0.031763609
-0.56020472
-0.00049515731
-0.13149464
0.00049550622
7.1188756e-05
-0.13146271
3.8802694e-05
0.00031851499
0.00022269025
4.7133253e-05
-0.16466094
-0.00011856397
-0.16515113
0.13085341
0.0002801581
-0.16342625
1.6411342e-05
0.00012217378
7.7850165e-05
-0.14570665
0.00036010683
0.00013320241
0.00038655757
-0.14578181
0.00019145199
-0.00027542563
0.00047568228
0.14545217
-0.14552103
0.00025516057
0.00025770031
-0.16447745
0.12995971
0.00032178471
0.00033572098
-0.16209665
0.16170065
0.00065015397
0.00014697068
-0.00050448851
0.00059357351
0.14363083
0.00079698789
-0.1446438
0.00050393227
0.0018298927
0.0018909479
-0.14296004
0.0012029839
0.0019285479
0.00017942777
0.00068321549
-0.14365205
0.00062634664
0.03219233
-0.16186823
0.00032628042
-0.039317682
0.026070771
-0.03217967
-0.023688754
0.022435421
-0.52523573
-0.023697339
-0.0012595766
-0.49390496
0.025387017
-0.032899561
-0.03208274
0.025728058
-0.51116961
-0.023903011
0.019902428
0.025868405
-0.032938488
0.00078541027
0.032483681
0.023192132
-0.023488827
-0.032592369
0.03227292
-0.032479407
-0.031721713
0.032056112
-0.56019979
-0.031797179
-0.0004957789
0.16367753
8.8398452e-05
-0.13149173
0.00049450667
-0.00047027927
0.16386117
5.6155122e-05
-0.13145915
0.16440481
0.00016224313
-0.1184078
0.11797176
-0.00062526627
-0.00067469878
0.0018263404
0.00086090821
-0.13062204
0.00099591332
0.002040341
-0.00057938967
0.00025477218
0.0002374522
0.14353416
0.00068464616
-0.14536895
0.00033330124
0.13003023
-0.16282569
3.3521071e-05
0.0016351745
0.0010444131
0.002387029
0.00151948
-0.0011288015
0.0013007142
-0.14399739
0.0017763301
-0.13111052
0.0011662843
0.00053228065
-0.00061005756
0.13004644
-0.00048928232
-0.16169816
0.00059054378
0.0012755142
0.002156737
-0.14362719
0.0018308906
0.0019094071
-0.00079488778
-0.14464001
0.00079712193
0.00052130556
-0.14514818
0.0004304925
-0.00036417065
-0.14544714
0.00053685011
0.00021467699
-0.00012799345
-0.14570115
0.00015217898
-0.13084824
9.8772801e-05
0.00010155919
0.0002858886
3.8828125e-05
-0.00031663105
0.00024133764
4.7400987e-05
-0.16465688
0.00039042764
-0.14577639
0.00021203728
-0.0002941497
0.00047725089
-0.14551587
0.00027605799
0.00025622415
-0.16447412
0.12995725
0.00035409581
-0.16209365
0.00031682302
0.00016354785
0.00064615245
-0.14481359
0.00058559082
0.00028838026
-0.14486685
0.000542458
0.00034215126
-0.00023989089
-0.0004306206
-0.14499926
0.00049335572
0.00030956551
-0.032399663
-0.00038345561
-0.13013314
0.00058271483
-0.49558757
-0.032562618
0.032768083
-0.031853334
0.033494708
-0.0011551373
-0.032526576
0.03297114
0.032526602
-0.031908539
-0.031978942
-0.56143236
0.023899281
-0.0234275
-0.032599952
0.033232113
-0.64976537
0.16519967
0.00048771849
-0.11848689
0.00071628535
-0.00029797573
-0.00018746476
0.13166885
0.00010110236
-0.16474819
2.1184206e-05
0.00010231257
0.00056648118
-0.14592253
0.000369218
0.00018937388
-0.00028420317
-0.14603263
0.00032474087
0.00017066434
-0.16368606
4.0034363e-05
-0.1310267
0.00025413939
0.00028576111
7.1490347e-05
0.00019109957
1.6134987e-05
-0.1634998
-0.00035572061
-0.16515692
0.13162405
0.0002298319
-7.9729217e-05
-0.16472982
0.00027840433
0.00054584625
-0.14596404
0.00028122506
0.00018273669
0.0002094193
0.00014311366
-0.14589565
-0.00022671437
0.00022787629
0.14571932
0.0001609743
-0.14567204
0.13167814
8.6442838e-05
-0.1645976
0.16458341
0.0003284694
0.00028324074
0.13169472
0.00015595437
0.00019130467
0.00017171407
-0.14565184
0.00024628121
0.00037351552
-0.14576082
0.00021616432
-0.00021025695
-0.14510899
0.00042489032
0.00026861554
-0.16225063
0.00024520516
-0.13016794
0.000293649
0.00047873341
0.00022936992
6.6473587e-05
-0.16228589
0.14509
0.00024449844
0.00018273302
-0.14505998
-0.0003125286
0.00034329187
0.00024388874
0.0002104324
-0.00030741799
-0.14438026
0.00035026004
0.14435161
0.00019624035
-0.00027052479
0.14562186
0.00016127044
-0.14563728
0.16402853
0.00013741931
-0.13128997
0.00033147147
0.00011645818
0.1455558
0.00018941787
0.00037877735
0.14546489
0.00021294494
0.00043557516
-0.00033521915
0.14533542
0.00045213935
0.00022458868
0.13107332
0.00013008059
0.1630929
0.00015082398
0.00017037971
0.13067423
-0.00029289435
0.00021834897
0.15571638
0.0017088723
0.00037261445
0.57798848
0.0080762022
0.0023104644
-0.14398861
-0.14303743
-0.15489992
0.57980684
0.011622883
0.0051590931
-0.57788545
-0.58366757
-0.57873699
0.0092451193
0.0058378711
-0.57950961
0.0043839619
0.012758095
0.0025394611
0.0074690111
-0.14489458
-0.14609761
-0.14420279
-0.1429664
-0.0079448911
0.57799787
0.0072588406
0.0011987813
-0.14481472
-0.14512395
-0.14319413
-0.14283835
0.57788767
0.00092395192
-0.1550968
-0.14322149
-0.14294148
-0.15490454
0.011205598
0.0018332202
0.012895706
0.0019547375
-0.0033841752
0.58297981
-0.57468725
0.0057324577
0.002254858
0.58559436
0.0050454302
-0.57734364
-0.57622629
-0.57084462
0.0071773106
0.016104879
-0.57528864
0.0031545709
0.0056902586
-0.005985302
0.0036411333
-0.14363879
-0.14457727
-0.14317876
-0.14240161
0.0050859307
0.0029028435
-0.14350363
-0.14483512
-0.14389495
-0.14262918
0.0061411265
0.0017546819
-0.14336626
-0.14377331
-0.14287959
-0.14240221
0.57209352
0.0028632133
-0.14268417
-0.14348547
-0.14293041
-0.14199839
0.0059239697
0.0032088438
0.006927079
-0.0058493057
0.5702746
0.0017100077
-0.57012287
0.0071964149
-0.012913118
-0.00010577117
0.58284516
-0.57342072
-0.011164742
0.57893311
-0.57710673
-0.0016200179
0.58410935
-0.0026226344
-0.57716129
-0.57554208
-0.57252594
0.010551683
0.0001917667
-0.57567133
0.011104647
3.5940072e-05
9.8833018e-05
0.0080676603
-0.15476783
-0.14291869
-0.14287128
-0.15467077
3.6066229e-05
0.008037608
-0.15496721
-0.14302043
-0.15480534
-0.14290029
0.00024681377
0.0073390755
-0.14479391
-0.1449257
-0.14295168
-0.14278494
0.57603849
0.0074107302
6.9788783e-05
-0.14276336
-0.14283139
-0.14483139
-0.1447784
0.012920215
7.6968797e-05
0.57901789
0.006129789
-0.57247357
0.00014033612
-0.56771376
0.00054755112
0.020919752
-0.56847844
0.00030048853
0.0083039878
-0.0019343026
-0.0067595492
-0.14149919
-0.1427718
0.00029009241
0.0077961189
-0.1410556
-0.1425442
-0.0064631565
-0.14216419
-0.14312396
-0.14271853
-0.14151545
0.0067913283
0.00083511436
-0.14330747
-0.14351537
-0.1425509
-0.1422515
-0.14336994
-0.14231416
0.00014273527
-0.14327706
-0.14216885
-0.00026304261
0.0013408691
-0.1428327
0.0001228915
-0.0017379588
-0.00029219677
-0.0017175404
-0.14287589
0.0013151185
-0.00047220681
-0.001675944
0.0012596462
-0.14291907
-0.00045069356
-0.0016308305
-0.14296776
0.0012108191
-0.00077687618
-0.0015942221
0.0011641338
-0.14301704
-0.00074649368
-0.0015602875
-0.14310803
0.0011343104
-0.0019462229
0.001263093
-0.14317938
-0.0017191062
-0.0014324529
0.001201358
-0.14295787
-0.1301216
0.0012764664
0.00032165175
-0.00016551743
-0.16186686
0.13188386
0.00019522988
-0.0088413737
-0.14660482
0.0013884184
-0.14360936
0.0015500929
0.001840173
-0.00068061574
0.00068553661
-0.14417172
0.0007526657
-0.14364966
0.00064277013
-0.00030748477
-0.14378548
0.00062277128
0.00040612821
-0.032426736
-0.12950057
0.00039911145
0.032412693
-0.032101719
-0.59124201
-0.023833694
0.024720041
-0.023822561
-0.032085835
0.024729836
-0.12950217
0.0004047277
0.00029206395
0.00042587575
-0.16217393
0.00046594459
-0.00054386502
-0.14384741
0.14378835
0.00041596375
0.00061283086
0.14481774
-0.14487133
0.00032112605
-0.00053487615
0.0005862215
0.0002695655
0.00019565158
-0.00041079589
0.00061184033
0.14377734
0.00029455542
-0.14407729
-0.00014084034
0.14498122
0.00022428059
-0.14534226
-0.032235942
0.16309983
0.00015195238
-0.13107883
0.00068195949
0.00025178331
0.54801595
-0.54921642
0.032117176
-0.032161628
-0.032376011
0.53242936
-0.00066771535
-0.664551
0.00066570081
0.0027987383
-0.53594745
0.0029120653
0.0002163291
-0.00066021843
-0.67072125
-2.1378506e-06
0.54703081
-0.54764598
-0.0321967
0.032088399
0.032156718
-0.032114923
0.00027323524
-0.00060096907
-0.032445068
0.026178611
0.026282567
-0.03235255
0.00037498885
0.026070548
-0.032535845
-0.032399176
0.026210834
0.15571833
-0.13067971
0.00035754376
0.0016997805
0.002232625
0.0080355481
-0.15490937
-0.14305273
-0.14399352
0.0078688882
0.00083620293
-0.15509975
-0.15491605
-0.14323053
-0.14296291
-0.0024587593
0.57802507
0.0010943627
0.0072032482
-0.14482367
-0.14512215
-0.14319646
-0.14285275
0.57953107
0.0074456455
-0.14609726
-0.14490304
-0.1429775
-0.14420437
0.0043040448
0.012723663
0.0018287573
0.01281584
-0.57714697
-0.0017420381
0.01276064
-0.0079118932
0.0001188657
0.0072287886
-0.14295498
-0.14492197
-0.14480455
-0.14280686
-0.00018943539
-0.14303518
-0.1549716
-0.15481941
-0.14293011
0.57576113
0.0078810574
-0.14294331
-0.15477603
-0.15468909
-0.14291306
-4.0486427e-05
0.010921831
-4.2288817e-05
-0.57612299
0.012672842
-6.6255871e-05
0.0072134503
-0.14284471
-0.1448305
-0.14479645
-0.142806
-5.8847963e-05
-0.00064551121
0.57248015
0.0065658664
-0.14228426
-0.14334242
-0.14328182
-0.14218847
-9.0084984e-05
-0.0016315548
0.0063921836
0.57337725
-0.14252289
-0.14349223
-0.14329988
-0.14223961
-0.0028229427
0.5746677
0.0061185986
-0.14376298
-0.1433644
-0.14239662
-0.14286765
0.57734376
0.0059851162
-0.14483201
-0.14350738
-0.14263107
-0.14389081
0.58557634
0.0033032833
0.0050419547
-0.58298436
-0.57081251
-0.57620318
0.016154478
0.0056992335
0.0021032296
-0.0030848027
-0.57200178
0.003045527
0.0069277803
-0.5752709
0.0057162657
0.0035733097
-0.14457193
-0.14317573
-0.14363145
-0.14239473
0.0051099368
0.0027336974
-0.14265512
-0.14346168
-0.1429063
-0.14196248
0.0059419983
0.56988938
0.0016596002
-0.14305834
-0.14265784
-0.14207867
-0.14142014
0.0067918855
-0.0057521194
0.0014597753
0.0071007614
-0.00027403344
0.0059238589
-9.5176762e-05
-0.56819367
0.0080442606
-0.00015906999
-0.14266357
-0.14134396
-0.14248691
-0.14096793
0.0076344919
-0.00014033197
-0.0018159533
-0.0004620672
0.0016720023
-0.14224725
0.00018970406
-0.0013038076
-0.00032018159
-0.14259818
0.00012196473
-0.0016871215
-0.1428227
-0.00020939066
7.298909e-05
-0.001354247
-0.00014954209
4.8171888e-05
-0.14307622
-0.002728595
-0.00010178202
-0.14338271
2.8345582e-05
-0.0018924917
-7.3698165e-05
1.7354195e-05
-0.14372307
-0.026234749
-4.2936641e-05
-0.13039041
-4.2291775e-07
-0.0029655804
-7.6757611e-05
-0.54444893
-0.032318797
-0.032290615
0.026214175
-2.9829987e-05
-0.12908923
0.00058329766
-0.52612929
-2.4112084e-05
-1.9568432
0.13351055
-0.13432738
-0.12987957
-6.6372802e-05
-0.0013568873
0.13608375
-0.13393084
-0.1295369
0.13156372
-5.9804816e-05
-2.4783435
0.00098283318
-0.13158564
0.13370288
0.13650957
-0.13434548
-2.5400993
0.098244021
-0.096600882
-0.1302607
0.1322439
-2.6404939
-0.47527196
0.0012576103
0.0010991132
-0.0010550199
0.00010567545
-0.66470661
0.52721815
0.0010149812
-0.00077733385
-0.65877151
0.00099754234
0.00071023235
-0.00023239862
-0.57723282
0.00019514502
0.032619006
0.023969194
-0.023595929
-0.032132314
-0.48120681
0.0041789909
0.0005874154
-0.0033857228
-0.60469476
0.00025695207
0.024017941
-0.023669602
-0.032206741
0.032700513
-0.57672948
-0.0010883985
0.00016729926
0.54925687
0.032760767
0.032854293
-0.032469133
-0.032293374
-0.54893138
0.53196071
-0.00060828495
-0.6648038
0.00067193665
0.0011508902
-0.53485217
0.0011992283
0.00011320322
0.0011010987
-5.2957857e-05
-0.67085407
0.5476839
0.00011754709
0.032764487
0.032736844
-0.032318963
-0.032281039
-0.54743438
-0.00024139579
0.00020919711
-0.032161667
0.032738293
0.032787076
-0.032094351
0.032848543
-0.032340696
-0.032128629
0.032765879
-0.0002307674
0.16387369
-0.13129308
0.00014094226
0.00035775866
-0.00028322624
-0.13105915
0.00030436398
-0.023578773
-0.11859393
0.00070754202
-0.51337231
-0.023518184
-0.03267918
0.032930414
-0.00019845333
0.023878554
0.0011750983
0.033212126
-0.032620988
-0.023448461
-0.6497655
0.16520178
0.0007150206
-0.11848799
0.00046767901
-0.00020674733
-0.0002995096
0.00027833057
-0.16369092
1.4375275e-05
-7.9261944e-05
0.14592765
-0.14603719
0.00032088653
0.00014625228
0.13167182
-0.16475146
2.168775e-05
8.2100065e-05
0.00056673581
0.00036540493
0.00016689529
-0.00015105948
-0.14565694
0.00042932742
0.0002230426
-0.03274998
-0.13169726
0.00038546635
-0.495591
-0.031872234
-0.032583561
0.032383602
0.033537018
0.03294931
-0.032549741
-0.031930033
0.032506855
-0.031928103
-0.56143326
-0.00054680936
-0.13168001
0.00033139474
0.16458614
0.00025859691
-0.13162629
0.00025517102
0.00035691993
0.0002056896
-7.8625635e-05
-0.16473127
-9.2128327e-05
-0.165157
0.13102973
0.00018515003
-1.17695e-05
-0.16350198
0.00024815565
0.00025884632
-0.14596769
0.00015653383
0.00027729025
0.00020546688
0.00011560541
-0.14589793
-0.0002007032
0.14572331
0.00013079317
0.00022681702