/*--------------------------------*- C++ -*----------------------------------*\
  =========                 |
  \\      /  F ield         | OpenFOAM: The Open Source CFD Toolbox
   \\    /   O peration     | Website:  https://openfoam.org
    \\  /    A nd           | Version:  7
     \\/     M anipulation  |
\*---------------------------------------------------------------------------*/
FoamFile
{
    version     2.0;
    format      ascii;
    class       volScalarField;
    location    "130";
    object      T;
}
// * * * * * * * * * * * * * * * * * * * * * * * * * * * * * * * * * * * * * //

dimensions      [0 0 0 1 0 0 0];

internalField   nonuniform List<scalar> 
25278
(
299.99507
299.99521
299.99625
299.99621
299.99861
299.99514
299.99373
299.99502
299.99393
299.99094
299.99268
299.99424
299.99453
299.99613
300.01998
299.9963
299.99522
300.00965
300.01674
300.00156
299.99464
299.9951
299.99544
299.99258
299.9886
299.99254
299.9955
299.99551
299.99855
299.99325
299.99375
300.00056
300.00775
300.00331
299.99496
299.99857
299.99295
299.9938
300.00026
300.00474
300.00233
299.99506
299.99637
299.98845
299.98815
299.98717
299.9905
299.98805
299.98566
299.99374
299.99331
300.00189
300.01294
300.01166
300.00112
299.99404
299.99392
300.00171
300.00754
300.0064
299.99738
299.99753
299.99703
299.99349
300.0017
300.00148
299.99298
299.9963
300.00728
300.00765
300.01677
300.01625
300.01395
300.01056
300.00648
299.99876
299.99537
299.99362
299.9954
300.00036
300.00568
300.02116
300.01068
300.02032
300.0025
300.00949
300.03427
300.07965
300.06219
300.04123
300.0352
300.05411
300.0605
300.09264
300.08596
300.05587
300.04581
300.02716
300.0201
300.03549
300.04397
300.07569
300.06425
300.03726
300.0543
300.06292
300.07355
300.12542
300.1282
300.15406
300.09367
300.08859
300.15588
300.1496
300.11732
300.10601
300.13743
300.06704
300.07653
300.07672
300.0211
300.00275
299.99868
300.06417
300.09563
300.129
300.15283
300.09364
300.03486
300.00972
300.00626
300.00089
300.01226
300.02263
300.06425
300.0807
300.075
300.08865
300.15445
300.12655
300.11926
300.14829
300.13711
300.06763
300.05681
300.06472
300.04857
300.05837
300.08947
300.05831
300.02267
300.04375
300.03805
300.0301
300.01226
300.02344
300.04071
300.06932
300.10931
300.20249
300.30317
300.3115
300.19986
300.10025
300.04922
300.05801
300.06706
300.05692
300.12029
300.13374
300.11178
300.19791
300.26046
300.27906
300.68458
300.39282
300.28707
300.27781
300.37403
300.65395
300.28439
300.26454
300.19925
300.11803
300.07984
300.04843
300.04055
300.05615
300.10781
300.1312
300.14346
300.07529
300.02117
300.06419
300.06614
300.04823
300.10788
300.28779
301.03077
301.08065
300.28261
300.09558
300.03883
300.03438
300.02191
300.01023
300.00379
299.99902
300.00175
299.99475
299.99965
300.00935
300.00348
299.99605
299.99388
299.99527
300.00196
300.00668
299.99799
299.98986
299.98936
299.98592
299.98909
299.99047
299.98458
299.97688
299.97765
299.981
299.98784
299.98917
299.982
299.97957
299.9791
299.98093
299.98941
299.98938
299.98684
299.98819
299.99557
300.00354
299.99545
300.00344
300.01492
300.00924
299.99989
299.9961
299.99682
300.00496
300.01171
300.00113
300.00191
299.99718
299.99607
300.00505
300.01858
300.00579
300.01308
300.01413
300.0065
299.99759
300.00247
299.99047
299.99037
299.99054
299.99051
299.97779
299.97976
299.97834
299.98928
299.98907
299.98612
299.97581
299.97806
299.97317
299.97535
299.97022
299.97356
299.96653
299.97277
299.96942
299.96238
299.95751
299.96724
299.96404
299.97083
299.96269
299.96602
299.96458
299.96649
299.96826
299.96646
299.96691
299.97678
299.98455
299.98886
299.98564
299.98839
299.9814
299.97993
299.97799
299.97892
299.98853
299.98881
299.98246
299.97576
299.98046
299.98627
299.99325
300.00098
299.99757
300.00228
300.01393
300.02048
300.0076
300.01687
300.00825
300.0029
299.99848
300.00755
300.02346
300.01467
300.02238
300.0126
300.0027
300.00917
300.01793
300.03391
300.02238
300.04867
300.03252
300.051
300.03007
300.00768
300.00397
300.00152
299.9989
299.99708
299.9951
299.98716
299.98824
299.98725
299.99464
299.99691
299.99898
299.98869
299.98734
299.9904
299.97115
299.97811
299.97967
299.9702
299.97249
299.97163
299.98045
299.97925
299.96939
299.96566
299.96692
299.96255
299.9763
299.98736
299.98859
300.00112
300.00378
299.98868
299.98726
299.99217
299.99092
299.98957
299.97635
299.97153
299.97905
299.98072
299.98157
299.98745
299.99461
299.99645
299.98835
299.98987
299.98888
299.99647
299.99876
300.00078
299.99836
299.98844
299.98828
299.99999
300.00275
299.98995
299.99023
299.97886
299.98065
299.98189
299.97285
299.97343
299.97108
299.97056
299.9667
299.96769
299.96314
299.97705
299.97641
299.96178
299.94842
299.95293
299.95653
299.94371
299.95787
299.95757
299.96132
299.95586
299.96411
299.96153
299.95296
299.95867
299.95416
299.9495
299.95341
299.94595
299.95075
299.94644
299.94153
299.93163
299.93773
299.94328
299.94955
299.95918
299.9556
299.94534
299.93616
299.9411
299.93374
299.92707
299.91995
299.92671
299.93739
299.93181
299.94215
299.95102
299.9561
299.94946
299.95893
299.96915
299.97177
299.98171
299.98928
299.99766
300.00671
300.01722
300.03913
300.02976
300.01626
300.02141
300.00943
300.02132
300.03721
300.05856
300.04626
300.08989
300.0716
300.04857
300.02937
300.03898
300.06873
300.09828
300.10804
300.06409
300.04098
300.02377
300.04846
300.02542
300.01214
300.0111
300.02456
300.02627
300.04344
300.06596
300.11305
300.10436
300.0804
300.08266
300.0452
300.04738
300.01682
300.01636
300.01509
300.01391
300.01238
300.01022
300.00814
300.00516
300.00236
299.98795
299.98786
300.00444
300.00748
299.98921
299.98978
299.97344
299.97481
299.967
299.97426
299.9582
299.95543
299.96095
299.97531
299.97757
299.97665
299.97853
299.97991
299.97608
299.97837
299.9876
299.98678
299.97632
299.97364
299.98739
299.98833
299.99535
300.00382
300.00497
300.01615
300.01317
300.02623
300.03102
300.03171
300.0163
300.00469
300.00372
300.0164
300.0307
300.01467
300.03114
300.03487
300.03333
300.02652
300.04278
300.08439
300.05147
300.09146
300.06926
300.04674
300.06377
300.07122
300.09355
300.05163
300.04777
300.07778
300.05661
300.02115
300.01139
300.00437
300.00021
299.99769
299.99514
299.99293
299.98492
299.98504
299.98411
299.97491
299.97758
299.98075
299.97723
299.97334
299.96982
299.97464
299.96863
299.9723
299.96626
299.96189
299.95677
299.96667
299.97217
299.96936
299.96319
299.95191
299.96091
299.9648
299.96329
299.96546
299.96748
299.96603
299.95763
299.95707
299.96067
299.95783
299.95218
299.95527
299.96338
299.96057
299.95478
299.95855
299.95627
299.94358
299.94291
299.9503
299.94562
299.95305
299.94902
299.95349
299.94584
299.9411
299.93131
299.93747
299.92691
299.9335
299.94076
299.94905
299.94471
299.93572
299.9478
299.95247
299.94595
299.94531
299.92892
299.92397
299.9325
299.92533
299.93964
299.93043
299.9381
299.95291
299.97201
299.98749
299.98844
300.00648
300.01035
299.98911
299.98851
299.98949
300.0109
300.01463
299.98972
299.96321
299.96641
299.96959
299.97262
299.97088
299.97403
299.98905
299.98913
299.98852
299.98723
299.9869
299.99553
299.9983
299.99787
300.00032
300.00102
299.98874
299.98813
299.97731
299.97885
299.96835
299.97026
299.96765
299.96551
299.9632
299.96657
299.97769
299.98613
299.99551
299.99501
299.98515
299.98625
299.98737
299.99825
299.99773
300.00074
300.00114
299.98796
299.98676
299.98656
299.9878
299.98857
300.00365
300.00281
300.00615
299.98927
299.98888
300.00728
300.0113
300.00924
299.98908
299.98894
299.96497
299.96875
299.97219
299.97518
299.96079
299.96343
299.95805
299.95478
299.95152
299.95802
299.97337
299.97579
299.9741
299.9762
299.96449
299.96089
299.95533
299.97145
299.96806
299.97015
299.9666
299.98838
300.00829
300.00401
300.0037
300.00285
299.99997
299.99701
299.99444
299.98606
299.98584
299.97476
299.97358
299.9697
299.97131
299.95771
299.96736
299.96091
299.95939
299.96594
299.95577
299.94607
299.94816
299.93771
299.94017
299.94335
299.94655
299.9502
299.95507
299.95178
299.96082
299.95467
299.95771
299.9485
299.94469
299.93697
299.94141
299.93622
299.94538
299.94126
299.93136
299.92682
299.93784
299.93438
299.92277
299.92899
299.93276
299.941
299.94898
299.95841
299.95597
299.946
299.93762
299.94874
299.95161
299.9436
299.94732
299.95112
299.93998
299.93522
299.92382
299.92975
299.94313
299.93839
299.93394
299.91834
299.93069
299.92668
299.94021
299.93008
299.94854
299.94602
299.95293
299.95877
299.96285
299.97486
299.98417
299.98306
299.99364
299.99603
299.98379
299.98505
299.97241
299.97087
299.97349
299.96115
299.95695
299.95552
299.96004
299.97244
299.98225
299.98153
299.9923
299.99434
299.98185
299.98268
299.96958
299.96869
299.97168
299.95918
299.95458
299.94826
299.94933
299.95092
299.96782
299.96953
299.98541
299.98399
299.99883
300.0017
299.9837
299.9852
299.96607
299.96435
299.94408
299.94252
299.96277
299.96633
299.98265
299.98165
299.99672
299.999
299.98098
299.98216
299.98342
299.98511
299.98638
299.98746
300.00834
300.0147
300.01312
299.98909
299.9891
299.96188
299.96467
299.94105
299.94407
299.94772
299.95168
299.9444
299.94914
299.94242
299.94812
299.9531
299.9586
299.956
299.94943
299.97011
299.97229
299.96966
299.96664
299.94249
299.93527
299.90907
299.92015
299.92995
299.9382
299.94624
299.93269
299.92222
299.91347
299.92553
299.94
299.93054
299.92011
299.90026
299.91219
299.92217
299.91348
299.90057
299.91433
299.92641
299.93691
299.93125
299.92507
299.91899
299.92568
299.91228
299.91925
299.91196
299.91979
299.90664
299.91654
299.90332
299.91194
299.89979
299.91195
299.92409
299.9166
299.90329
299.8915
299.90664
299.91442
299.90049
299.88504
299.87483
299.89043
299.87501
299.89165
299.87932
299.89675
299.90527
299.91775
299.93371
299.92792
299.91042
299.89499
299.904
299.92298
299.91596
299.93976
299.93591
299.96307
299.96061
299.96162
299.96378
299.96732
299.9901
300.01437
300.01757
299.99075
299.99378
299.99147
300.02
300.02631
300.03328
300.02135
299.99242
299.99455
300.02489
300.04256
300.00461
299.99828
299.96015
299.95917
299.96057
299.92847
299.93658
299.93138
299.92299
299.92033
299.92779
299.92676
299.9334
299.90615
299.91863
299.92274
299.90392
299.89875
299.9137
299.90052
299.91592
299.92048
299.91334
299.90841
299.89144
299.89738
299.90435
299.88725
299.8966
299.87846
299.88923
299.87113
299.88519
299.90038
299.88608
299.86833
299.85668
299.83765
299.85962
299.84476
299.86743
299.85683
299.87868
299.88889
299.90591
299.88266
299.8716
299.84828
299.86201
299.86913
299.88734
299.91013
299.89645
299.90275
299.91103
299.88857
299.87757
299.85819
299.87163
299.89817
299.88855
299.88199
299.84773
299.86867
299.86317
299.88186
299.87954
299.89546
299.91021
299.92341
299.93476
299.94376
299.95393
299.95216
299.94171
299.9325
299.94417
299.94621
299.93734
299.93509
299.92094
299.90783
299.9249
299.92705
299.91586
299.93885
299.96298
299.9617
299.93756
299.93309
299.93239
299.96134
299.98902
300.01457
300.00758
300.00645
300.01437
299.98864
299.96151
299.9609
299.96029
299.93644
299.9357
299.94145
299.96164
299.96528
299.96472
299.96826
299.97136
299.96932
299.97339
299.98394
299.98806
299.99452
300.00882
300.01615
300.04463
300.02613
300.04267
300.05701
300.0668
300.05621
300.04767
300.09838
300.11942
300.13408
300.11068
300.07409
300.06183
300.03354
300.01867
300.01008
300.03556
300.05279
300.10343
300.19775
300.2811
300.26397
300.19709
300.28697
300.40151
300.68775
300.31109
300.1355
300.14837
300.11551
300.06189
300.02016
300.07614
300.06477
300.11865
300.20085
300.28401
300.40595
300.68628
300.31006
300.20473
300.28662
300.26696
300.14352
300.13156
300.10929
300.05716
300.02156
300.07538
300.06641
300.04867
300.10924
300.29079
301.04628
301.06326
300.28106
300.0934
300.03764
300.0123
300.00163
299.99308
299.99314
300.00089
300.01031
300.00063
300.00091
300.00123
299.99272
299.9927
299.99582
299.99584
300.00691
300.00645
300.00591
299.99582
299.99283
299.9928
299.99985
300.00452
299.9955
299.98657
299.98651
299.98524
299.97755
299.97488
299.96582
299.95935
299.96081
299.96698
299.97418
299.98512
299.98481
299.98448
299.98487
299.97027
299.95697
299.95548
299.94594
299.94786
299.95157
299.9631
299.96888
299.97555
299.98579
299.98574
299.97225
299.97467
299.97756
299.9717
299.96663
299.95652
299.96392
299.95998
299.95431
299.95242
299.95096
299.9501
299.94982
299.95008
299.9509
299.94042
299.93954
299.92994
299.93091
299.94263
299.94167
299.93238
299.93343
299.91928
299.91826
299.9057
299.90649
299.92338
299.92244
299.91334
299.91366
299.91447
299.89384
299.88009
299.90541
299.90454
299.89436
299.89331
299.88078
299.92238
299.96464
299.96132
299.9635
299.99685
300.02605
300.02679
299.99872
300.01917
300.01208
300.04761
300.05333
300.04424
300.01823
299.99722
299.98701
299.98554
299.98209
300.00286
300.0094
300.01768
299.99524
300.0135
300.03442
300.03944
300.07175
300.09138
300.07897
300.06794
300.05155
300.03888
300.02891
300.02065
300.01561
300.01091
299.99032
299.99088
299.99094
299.9912
299.99065
300.00026
300.0014
299.99847
299.98953
299.99085
299.97962
299.98035
299.97837
299.96479
299.95915
299.97551
299.97417
299.9774
299.99144
300.00419
300.00271
300.00504
300.00674
299.99111
299.99119
299.99145
299.99079
299.98929
299.99909
300.0021
300.00255
299.99935
299.98909
299.99049
299.9777
299.97869
299.9805
299.98113
299.97029
299.96741
299.96252
299.95618
299.95331
299.9602
299.96557
299.9689
299.97612
299.97477
299.97739
299.97701
299.98913
299.98949
299.98647
299.9883
299.99516
299.99616
299.99496
299.99369
299.99613
299.99569
299.99577
299.99579
300.00536
299.99643
300.00679
300.01932
300.01458
300.00306
299.99795
299.99834
300.00681
300.01462
300.00362
300.00363
299.9985
299.9965
300.00454
300.01689
300.00644
300.01391
300.01195
300.00532
299.99817
300.00284
299.9936
299.99319
299.9922
299.99113
299.97502
299.97431
299.95926
299.96023
299.96928
299.96204
299.94973
299.953
299.94456
299.94756
299.95306
299.96239
299.95618
299.94586
299.93786
299.93197
299.93674
299.94598
299.94198
299.9387
299.92752
299.93382
299.94242
299.95052
299.96035
299.95347
299.95105
299.95835
299.96739
299.97962
299.97897
299.9888
299.9996
300.00282
299.99024
299.99004
299.98864
299.9997
300.00304
300.00677
300.00642
300.00593
300.00518
300.00809
300.0091
299.99101
299.9912
299.97508
299.97622
299.97273
299.97148
299.95089
299.95812
299.96383
299.96243
299.9663
299.96537
299.9784
299.9763
299.97687
299.97416
299.99103
299.99104
300.00977
300.01055
299.9912
299.99093
299.97365
299.95557
299.95652
299.94924
299.97063
299.97038
299.94854
299.94867
299.9553
299.9611
299.96149
299.94781
299.94911
299.95683
299.94606
299.9479
299.93937
299.93028
299.94164
299.93543
299.92361
299.90877
299.91369
299.91935
299.92542
299.91208
299.91955
299.93024
299.94076
299.95216
299.94389
299.93929
299.94861
299.93614
299.92432
299.91251
299.92631
299.92118
299.93178
299.94518
299.93501
299.91884
299.91426
299.92801
299.9422
299.93144
299.91904
299.92307
299.92828
299.93411
299.95243
299.97204
299.96809
299.94475
299.9401
299.94865
299.97033
299.99113
299.99075
300.01382
300.01963
299.99204
299.99089
299.99184
299.99445
300.02763
300.03565
300.02463
300.01682
299.99175
299.99152
299.99176
299.9929
300.01994
300.02977
299.99758
299.99441
299.99938
300.00625
300.04615
300.05391
300.03361
300.02209
299.99471
299.99235
299.99316
299.99684
300.02492
300.03806
300.00665
300.00186
300.0153
300.02508
300.06333
300.06146
300.03781
300.02551
299.99871
299.99409
299.99161
299.99109
299.99008
299.98862
299.9999
300.00325
300.00369
300.00016
299.9889
299.99042
299.97638
299.97612
299.9782
299.965
299.96512
299.97835
299.97887
299.98933
300.0006
300.01308
300.02604
300.04978
300.04433
300.02785
300.02869
300.0137
300.02588
300.04427
300.06854
300.06693
300.11527
300.10712
300.08676
300.05031
300.05209
300.09501
300.11615
300.10706
300.06447
300.04166
300.02431
300.04232
300.0208
300.01093
300.0131
300.02692
300.02234
300.03484
300.05269
300.09434
300.08007
300.06009
300.08126
300.04733
300.03789
300.01931
300.02131
300.02239
300.02276
300.02237
300.02097
300.01934
300.01809
300.0119
300.01094
300.00706
300.00765
299.9916
299.99244
299.9715
299.97064
299.97357
299.97405
299.95574
299.96131
299.94736
299.94722
299.95518
299.95572
299.94458
299.93532
299.93696
299.92747
299.93951
299.9331
299.9205
299.91831
299.93122
299.93785
299.92554
299.91112
299.91334
299.91675
299.90057
299.90603
299.89715
299.90433
299.88674
299.89657
299.90524
299.91788
299.90376
299.92297
299.9157
299.89432
299.91037
299.89631
299.87762
299.88888
299.87886
299.8664
299.84329
299.859
299.87057
299.88807
299.91072
299.93659
299.96416
299.96065
299.9283
299.92231
299.93116
299.96212
299.96603
299.96457
299.96875
299.94526
299.93629
299.93401
299.94271
299.96765
299.96409
299.96246
299.96131
299.92726
299.91883
299.9599
299.95915
299.95866
299.95863
299.99539
300.00073
300.01103
300.00089
300.03948
300.08037
300.1038
300.19801
300.15194
300.12583
300.24398
300.1284
300.15683
300.29319
300.4237
300.1639
300.16153
300.0871
300.10455
300.35233
300.32218
300.41359
301.01472
300.40908
300.16971
300.17893
300.31535
300.43087
300.39607
300.14574
300.12365
300.34174
301.59575
301.34387
300.86197
301.27866
301.56279
302.3687
302.03831
302.01562
301.33083
300.359
300.10251
300.07607
300.04693
300.02997
300.01586
300.00298
300.00281
300.01514
300.02946
300.01345
300.01347
300.02918
300.03073
300.04904
300.08934
300.06488
300.05303
300.01637
300.00845
300.00209
299.99838
299.99621
299.99393
299.99195
299.98124
299.98123
299.99193
299.99382
299.9814
299.9814
299.98108
299.98101
299.99607
299.99812
299.98008
299.98026
299.96091
299.94071
299.9477
299.95417
299.95891
299.95912
299.97148
299.96832
299.95432
299.9551
299.95979
299.97201
299.98154
299.99208
299.99244
299.98217
299.98249
299.98178
299.99405
299.99441
299.99678
299.99641
299.98143
299.98215
299.9811
299.98046
299.9986
299.9988
299.99911
299.9971
299.99475
299.9927
300.00237
300.01403
300.03222
300.01143
300.00102
300.00916
300.0123
300.02784
300.02271
300.03843
300.04744
300.08117
300.08572
300.05642
300.02792
300.02116
300.04005
300.06381
300.04607
300.02839
300.01707
300.00809
300.00288
299.99896
299.99314
299.99495
299.99059
299.98682
299.98081
299.98475
299.9888
299.98873
299.99287
299.9953
299.99803
299.99983
300.00628
299.99743
299.99403
299.99193
299.99258
299.99454
299.99352
300.00071
300.00442
299.99725
299.99552
299.99839
300.00401
299.99945
300.01118
300.01961
300.00874
300.00228
300.02154
300.04545
300.01913
300.00481
300.01224
300.02457
300.01384
300.03016
300.01958
300.01225
300.00043
299.99694
300.00589
300.0108
300.00099
300.00637
299.99707
299.98872
299.98156
299.98699
299.99107
299.98685
299.98713
299.97921
299.9809
299.98515
299.98756
299.98722
299.97804
299.97678
299.96795
299.97426
299.96986
299.9735
299.97695
299.97703
299.97187
299.96636
299.9618
299.95298
299.94956
299.94577
299.9425
299.93927
299.93686
299.93485
299.9337
299.93317
299.93333
299.9342
299.93556
299.92958
299.93182
299.91944
299.92584
299.92339
299.91687
299.91512
299.9282
299.92736
299.91413
299.9207
299.92171
299.90772
299.9095
299.91225
299.90444
299.90148
299.88365
299.88686
299.89646
299.89363
299.89212
299.88174
299.89954
299.89834
299.90658
299.89097
299.88032
299.86056
299.86211
299.86336
299.86652
299.87851
299.87612
299.85703
299.85821
299.84264
299.83977
299.84047
299.85994
299.87578
299.89366
299.89379
299.88629
299.88314
299.90672
299.93346
299.93394
299.9604
299.95924
299.95831
299.98118
299.98081
300.00182
300.00806
299.98373
299.98436
299.95916
299.93264
299.93472
299.93367
299.94038
299.94771
299.96467
299.96064
299.96109
299.96527
299.96891
299.96993
299.97295
299.96109
299.95646
299.94988
299.94846
299.94086
299.94209
299.962
299.96632
299.96786
299.97129
299.97405
299.98286
299.98366
299.993
299.99504
299.98425
299.9833
299.98304
299.98405
299.99724
299.99916
299.983
299.98194
299.96356
299.9443
299.95199
299.95831
299.96254
299.96454
299.9754
299.97284
299.96055
299.96293
299.96636
299.97658
299.98437
299.99294
299.9928
299.98481
299.98551
299.98498
299.99502
299.99471
299.99657
299.99708
299.98485
299.98543
299.98461
299.98383
299.99878
299.99821
300.00077
300.00162
300.00259
300.00289
300.00275
300.00273
299.98107
299.98132
299.98287
299.98361
300.00954
300.00852
300.01884
300.02076
300.01679
299.99277
299.99352
300.00964
300.03205
300.03752
300.01108
299.98359
299.9642
299.95752
299.95759
299.95758
299.93341
299.93386
299.9579
299.95516
299.95639
299.92792
299.92999
299.93373
299.93996
299.94205
299.93823
299.93407
299.92861
299.9302
299.97259
299.98445
299.96725
299.96871
299.96964
299.99532
299.99102
299.96067
299.94666
299.90618
299.90055
299.86819
299.86306
299.84703
299.84251
299.81068
299.8384
299.84649
299.8578
299.83442
299.85105
299.82959
299.85056
299.87114
299.8978
299.88731
299.9019
299.87633
299.85666
299.83293
299.85648
299.84395
299.86752
299.88821
299.90359
299.88601
299.9095
299.90524
299.87981
299.89818
299.88155
299.8699
299.87766
299.85488
299.84502
299.85947
299.83428
299.85944
299.86629
299.89479
299.87932
299.84444
299.83688
299.87629
299.89083
299.92605
299.91986
299.96416
299.97269
299.96591
299.9649
299.96726
299.94141
299.93382
299.93605
299.94157
299.96777
299.96712
299.97186
299.93545
299.9285
299.92731
299.94361
299.98588
299.99746
299.97761
299.96971
299.96881
299.94272
299.93937
299.9431
299.94461
299.94958
299.92863
299.92769
299.92775
299.92895
299.93992
299.92513
299.911
299.90927
299.92333
299.93853
299.93804
299.92264
299.93454
299.9439
299.94388
299.95522
299.95579
299.96
299.96889
299.96852
299.96095
299.94833
299.93701
299.93027
299.91714
299.92457
299.92452
299.9369
299.93006
299.91695
299.9009
299.90099
299.90227
299.90491
299.88624
299.89098
299.88657
299.89302
299.90046
299.90851
299.91683
299.92504
299.94076
299.9647
299.97653
299.98519
299.98884
299.9926
299.99402
299.99431
299.9941
299.99354
299.99375
299.9907
299.98511
299.98781
299.98167
299.97649
299.9736
299.98068
299.98443
299.97764
299.97457
299.96692
299.96551
299.95998
299.96958
299.97062
299.96156
299.96652
299.97105
299.97682
299.98164
299.97905
299.97423
299.97164
299.98209
299.98856
299.9937
299.98858
299.98955
299.99125
299.99477
299.99474
299.98862
299.98554
299.98981
299.98816
299.98235
299.98027
299.98385
299.98886
299.98676
299.99197
299.99228
299.99284
299.99458
299.99592
299.99612
299.99596
299.99252
299.99244
299.99475
299.99623
299.99187
299.98591
299.98833
299.98267
299.97718
299.97005
299.9732
299.96655
299.97173
299.97391
299.98183
299.98803
299.98485
299.98077
299.97355
299.97473
299.97082
299.96946
299.95982
299.96541
299.96706
299.96172
299.96693
299.97464
299.97791
299.98203
299.97962
299.97379
299.9772
299.97129
299.96401
299.95813
299.95591
299.95245
299.95164
299.94704
299.94789
299.93895
299.94432
299.94363
299.93845
299.94024
299.94875
299.95332
299.9554
299.95119
299.94347
299.94824
299.94533
299.93744
299.94412
299.94071
299.93589
299.93526
299.92836
299.9287
299.91678
299.92496
299.92454
299.91671
299.9198
299.93066
299.93481
299.94093
299.93188
299.92728
299.91763
299.92968
299.94403
299.95802
299.95601
299.95268
299.95171
299.94368
299.94453
299.93921
299.94819
299.94715
299.93853
299.94013
299.94525
299.95325
299.95517
299.94801
299.94317
299.95092
299.94867
299.94505
299.95624
299.96752
299.97733
299.96629
299.95437
299.94938
299.96283
299.96429
299.95163
299.95839
299.96209
299.95155
299.9546
299.9586
299.9638
299.95272
299.96434
299.95748
299.96182
299.95676
299.96239
299.95892
299.9529
299.9477
299.95198
299.94559
299.94068
299.93735
299.93527
299.93604
299.92887
299.92836
299.91662
299.9245
299.92716
299.93162
299.92475
299.93446
299.93049
299.91956
299.90755
299.9175
299.91404
299.92437
299.91427
299.91411
299.90368
299.9033
299.88802
299.90064
299.90093
299.88905
299.89462
299.90784
299.91472
299.92514
299.93234
299.94061
299.94816
299.95502
299.9589
299.96283
299.9595
299.9535
299.9572
299.95231
299.94592
299.95288
299.96459
299.97207
299.96704
299.97174
299.96945
299.96422
299.95944
299.96231
299.96795
299.96546
299.96162
299.96456
299.95797
299.95179
299.9472
299.94049
299.94533
299.93792
299.93066
299.94186
299.9574
299.94814
299.95267
299.96073
299.95781
299.94918
299.9544
299.95152
299.95691
299.96223
299.97097
299.97798
299.98278
299.98904
299.9942
299.99399
299.99146
299.98998
299.98591
299.98878
299.99018
299.98941
299.98442
299.98089
299.98271
299.98852
299.98734
299.98585
299.97957
299.9871
299.98396
299.98036
299.97583
299.97413
299.97906
299.97684
299.97821
299.97292
299.97132
299.96856
299.97042
299.97523
299.98537
299.9815
299.98252
299.98692
299.98785
299.98721
299.98306
299.98182
299.98631
299.98588
299.98645
299.98616
299.98046
299.97477
299.97646
299.975
299.97347
299.96596
299.96754
299.96536
299.9716
299.975
299.97925
299.98677
299.98515
299.98101
299.98201
299.98344
299.9798
299.9753
299.97118
299.96738
299.96469
299.96871
299.96357
299.95874
299.95366
299.94655
299.95133
299.94489
299.9376
299.93179
299.94009
299.93521
299.94365
299.93863
299.94752
299.9438
299.94096
299.93911
299.94329
299.94442
299.93404
299.93337
299.92839
299.92902
299.94023
299.93684
299.9357
299.92383
299.92439
299.92032
299.93342
299.93236
299.91982
299.92242
299.92617
299.93044
299.93517
299.92427
299.9218
299.92224
299.91587
299.91556
299.90068
299.90849
299.91197
299.91807
299.92886
299.92369
299.93435
299.93054
299.94091
299.93782
299.93454
299.93803
299.92722
299.91507
299.91905
299.9131
299.91842
299.90479
299.91187
299.90632
299.89822
299.89346
299.9098
299.90999
299.90488
299.90478
299.88713
299.89249
299.90848
299.90476
299.91942
299.93232
299.94839
299.9623
299.97468
299.98022
299.9673
299.96893
299.97533
299.96755
299.96583
299.9742
299.97341
299.96622
299.96106
299.95942
299.96068
299.94579
299.94412
299.94681
299.95441
299.95577
299.94137
299.94312
299.94568
299.94821
299.95347
299.95626
299.94948
299.94638
299.93992
299.93079
299.93897
299.94251
299.93525
299.9398
299.94841
299.95221
299.96019
299.96399
299.96081
299.95698
299.95347
299.95699
299.94774
299.93909
299.93038
299.92312
299.91262
299.90533
299.90084
299.9006
299.91427
299.90322
299.90348
299.8888
299.88784
299.8709
299.88715
299.88815
299.87305
299.87108
299.85251
299.85573
299.87284
299.88017
299.89378
299.90544
299.91279
299.92335
299.90343
299.89162
299.90281
299.89133
299.90303
299.91428
299.92309
299.93295
299.92603
299.93226
299.92159
299.91395
299.90485
299.9137
299.92179
299.93253
299.93948
299.93363
299.92365
299.91448
299.92664
299.93905
299.94406
299.95427
299.95744
299.95382
299.94284
299.93838
299.94258
299.95352
299.95039
299.93839
299.94331
299.93968
299.94495
299.95045
299.95595
299.96137
299.96697
299.96253
299.9607
299.96523
299.95905
299.9535
299.94775
299.95651
299.95841
299.95453
299.95271
299.94213
299.9313
299.92101
299.92611
299.91653
299.90631
299.89826
299.89336
299.89272
299.87479
299.87639
299.86425
299.8836
299.88256
299.86199
299.83864
299.85474
299.85767
299.83744
299.8327
299.83713
299.81722
299.79822
299.82864
299.81601
299.78131
299.80523
299.81715
299.7873
299.80754
299.83606
299.85379
299.88514
299.92093
299.91566
299.95895
299.962
299.91057
299.91492
299.91269
299.96243
300.01046
300.05303
300.07925
300.05709
300.07872
300.02841
300.01025
300.02405
300.05427
300.11175
300.16779
300.11434
300.05737
300.028
300.05245
300.02403
300.07024
300.1117
300.1663
300.0995
300.17127
300.1018
300.0245
299.99325
299.97454
299.96344
299.91483
299.9221
299.92725
299.91259
299.97205
299.98928
299.97087
299.91068
299.92177
299.9178
299.97234
299.98959
300.02132
299.93583
299.91694
299.94007
299.96811
300.07569
300.1706
300.0854
300.02923
299.9932
300.04142
300.05953
300.12721
300.08918
300.1397
300.17184
300.13438
300.11686
300.05833
300.03803
300.01529
300.01383
300.01405
300.25001
300.29087
300.2219
300.16627
300.24744
300.44283
300.28175
300.36993
300.261
300.36402
300.21828
300.14024
300.08442
300.04199
300.08559
300.12187
300.06154
300.09931
300.17232
300.28158
300.23137
300.15924
300.27346
300.4116
300.52115
300.57324
300.25192
300.1486
300.09006
300.06897
300.0305
300.01
300.013
300.00082
299.99542
299.97041
299.97262
299.98289
299.9513
299.94367
299.96156
299.97604
300.00605
300.03287
300.0612
300.03952
300.02749
300.02932
300.00322
299.99705
299.99358
299.99244
299.99104
300.00421
300.00502
300.00119
299.99013
299.99197
299.97817
299.97709
299.96206
299.96564
299.96675
299.97976
299.98087
299.97677
299.97867
299.97741
299.99023
299.99096
299.9878
299.97871
299.97607
299.96127
299.949
299.95156
299.96303
299.97048
299.96227
299.96554
299.97246
299.98013
299.97897
299.98101
299.98182
299.99141
299.99152
299.98887
299.99055
299.98159
299.97713
299.97502
299.96867
299.96536
299.95548
299.96013
299.96914
299.97236
299.98229
299.98299
299.98374
299.98777
299.99123
299.99606
299.99747
299.99598
300.00297
300.01175
300.004
300.00957
300.00112
299.9991
299.99761
300.00171
300.00632
300.01118
300.01639
300.02737
300.0275
300.01523
300.00706
300.00257
300.00252
300.01954
300.00856
300.01545
300.02607
300.04053
300.05453
300.05959
300.04046
300.02593
300.04026
300.02845
300.0195
300.02728
300.01369
300.00596
299.99635
300.00012
299.99467
299.98981
299.98876
299.98484
299.9779
299.97917
299.97458
299.97154
299.96471
299.96841
299.97527
299.98247
299.99234
299.99303
300.00056
300.00172
300.00235
300.00273
300.00258
300.00233
300.00178
299.99091
299.99301
300.00572
300.00642
299.99415
299.99189
299.9822
299.96985
299.96802
299.96502
299.96334
299.95832
299.95677
299.97499
299.9728
299.951
299.9528
299.97442
299.97634
299.99358
300.0093
300.00832
300.0128
300.0141
299.99502
299.99646
299.99485
300.01015
300.01517
300.01582
300.01089
299.99609
299.99777
299.97814
299.97627
299.978
299.97957
299.98111
299.96704
299.96265
299.96033
299.955
299.95748
299.93773
299.93464
299.93207
299.93014
299.93954
299.93844
299.92297
299.93461
299.93544
299.94444
299.94574
299.95693
299.94957
299.94817
299.93697
299.92695
299.92533
299.93743
299.93056
299.91772
299.91939
299.93191
299.93877
299.94051
299.94737
299.95844
299.95154
299.93914
299.94189
299.94975
299.96041