/*--------------------------------*- C++ -*----------------------------------*\
  =========                 |
  \\      /  F ield         | OpenFOAM: The Open Source CFD Toolbox
   \\    /   O peration     | Website:  https://openfoam.org
    \\  /    A nd           | Version:  7
     \\/     M anipulation  |
\*---------------------------------------------------------------------------*/
FoamFile
{
    version     2.0;
    format      ascii;
    class       volScalarField;
    location    "20";
    object      alphat;
}
// * * * * * * * * * * * * * * * * * * * * * * * * * * * * * * * * * * * * * //

dimensions      [1 -1 -1 0 0 0 0];

internalField   nonuniform List<scalar> 
25201
(
9.2180428
9.8103158
9.2136211
9.8129991
10.846056
10.538437
9.9611782
9.8547989
10.488099
10.841083
10.486879
10.538006
10.791241
10.723335
10.691938
11.03474
11.025284
10.876971
10.91802
10.70555
10.900686
10.860405
10.876712
10.783733
10.798428
10.647198
10.69024
11.010402
11.010782
10.875437
10.880341
10.882301
10.648573
10.656467
10.668134
10.697968
10.839723
10.834823
10.685883
10.67411
10.827672
10.82482
10.873268
10.644596
10.668644
10.668744
10.798035
11.009448
10.882398
10.793942
10.765163
10.859103
10.989251
11.006545
10.99523
10.979981
11.024275
11.025925
10.985856
10.693737
10.721727
10.877621
10.810634
10.844457
10.814013
10.985235
10.984001
10.670977
10.671247
10.585826
10.620814
10.678162
11.010244
10.969726
10.964727
10.590836
10.657858
10.680808
10.812887
10.81502
10.847866
10.856628
10.791412
10.740169
10.73924
10.736705
10.742271
10.730725
10.61139
10.65076
10.592059
10.57021
10.582885
10.58562
10.554303
10.591479
10.576263
10.533025
10.430563
10.490687
10.508964
10.463595
10.498391
10.538183
10.550669
10.533653
10.417871
10.455434
10.491347
10.501276
10.414819
10.432714
10.37854
10.350169
10.280958
10.347852
10.357143
10.301677
10.31848
10.402125
10.451421
10.374663
10.373167
10.328572
10.243143
10.298668
10.357991
10.489926
10.646412
10.680328
10.669304
10.664324
10.671218
10.67631
10.693156
10.704014
10.745503
10.791721
10.878595
11.023432
10.978393
10.812188
10.692133
10.726723
11.025478
10.983213
11.002998
10.993988
10.761879
10.983634
10.814688
10.845655
10.666703
10.667728
10.980147
10.962248
10.853714
10.877029
11.008326
10.966096
10.618416
10.679293
10.741463
10.847904
10.856452
10.813469
10.811026
10.681163
10.678362
10.682648
10.743258
10.744443
10.613905
10.669001
10.621727
10.60181
10.612082
10.655393
10.501716
10.457714
10.364617
10.414088
10.455392
10.419052
10.395589
10.347619
10.373015
10.38434
10.337412
10.245314
10.302889
10.35214
10.50221
10.656876
10.571513
10.590076
10.600037
10.314606
10.370188
10.445221
10.529474
10.549493
10.532592
10.581581
10.575359
10.490343
10.396548
10.417108
10.454586
10.372532
10.328245
10.243482
10.298696
10.298971
10.283412
10.355439
9.8146996
9.2147201
10.883807
11.0127
11.011831
10.873453
10.6577
10.882868
10.876634
10.828671
10.825057
10.668404
10.644592
10.649303
10.67416
10.686638
10.836976
10.842749
10.884544
10.66992
10.699332
10.733076
10.863231
11.027494
0.0022609394
0.017280667
0.041935195
0.070277959
0.85971998
0.86293754
0.071897677
0.042804766
0.017614841
0.0023111329
0.0023470497
0.01796123
0.043640873
0.073300833
0.8749701
0.88350272
0.073747516
0.04391927
0.0180815
0.0023603304
0.0023633372
0.018103859
0.043959542
0.073781878
0.88895304
0.89204435
0.073670752
0.043906849
0.018087731
0.002362527
0.0023621283
0.018078238
0.043876839
0.073601709
0.89367621
0.89448802
0.073543404
0.043845605
0.018067456
0.0023613713
0.0023615427
0.01806709
0.04384398
0.073534479
0.89484391
0.89501567
0.073516495
0.043832184
0.018062717
0.0023611873
0.0023615357
0.01806523
0.043839309
0.073525727
0.8950846
0.8951498
0.073513367
0.043830317
0.018061864
0.0023612493
0.0023616991
0.018065876
0.043841703
0.073530771
0.89520302
0.89526975
0.07352102
0.043834128
0.018063048
0.0023614475
0.0023619212
0.018067273
0.043845707
0.073538484
0.89530743
0.89536324
0.073529698
0.043839038
0.018065026
0.0023617356
0.0023623245
0.01807027
0.043852437
0.073549488
0.89542664
0.89556419
0.073547865
0.043850302
0.018070045
0.0023623307
0.0023631112
0.018077334
0.043868191
0.073574598
0.89573956
0.89597995
0.073583212
0.043871915
0.018079417
0.0023633057
0.002364139
0.018087108
0.043890304
0.073610294
0.89623584
0.89650841
0.073621034
0.043895513
0.018089931
0.0023643989
0.002365264
0.018098065
0.043914663
0.073649108
0.89682358
0.89715505
0.073660396
0.043920214
0.018101059
0.0023655213
0.0023663671
0.018109286
0.043940059
0.073689998
0.89750586
0.89788869
0.073700984
0.043944953
0.018111713
0.0023665492
0.0023672996
0.018119382
0.043964611
0.073731434
0.89824657
0.89856444
0.073741254
0.04396825
0.018120782
0.0023673152
0.0023677923
0.018126096
0.043983554
0.073765327
0.89877985
0.89887506
0.073771672
0.043983926
0.018124989
0.0023674589
0.0023671087
0.018122015
0.043978439
0.073760916
0.8988167
0.89826362
0.073740681
0.043959396
0.018111518
0.0023655756
1.003987
0.066866152
0.040261533
0.016718825
0.0022347943
0.0022362976
0.016729604
0.040281869
0.066890573
1.0047169
1.0047483
0.066891421
0.040282506
0.016730391
0.0022365063
0.0022368122
0.016732431
0.040284454
0.066890985
1.0046895
1.0045637
0.066884349
0.040281272
0.016731713
0.0022366652
0.0022368281
0.016732161
0.04028039
0.066880307
1.0043647
1.0040495
0.066858458
0.04026713
0.016726758
0.0022363127
0.0022361304
0.016723792
0.040259482
0.066844612
1.0036839
1.0033018
0.066820639
0.040244018
0.016716945
0.0022354257
0.0022351188
0.016712957
0.040234709
0.06680499
1.0029285
1.0025373
0.066781412
0.040219049
0.01670575
0.0022343469
0.0022339815
0.016701375
0.04020894
0.066764477
1.0021394
1.0017799
0.066741736
0.040193943
0.016694502
0.0022332127
0.0022329463
0.016691543
0.040187098
0.06672996
1.0014986
1.0012353
0.066712964
0.040175681
0.016686235
0.0022323185
0.0022321856
0.016684554
0.04017156
0.066705333
1.0010799
1.0010662
0.06670495
0.040169743
0.016683021
0.0022318674
0.0022318855
0.016682501
0.040167339
0.066698881
1.0009937
1.0009158
0.066691134
0.040161904
0.016679971
0.0022315263
0.0022315571
0.016679779
0.040160223
0.06668629
1.0007652
1.0006518
0.066677025
0.040154086
0.016677088
0.0022311813
0.002231282
0.016678066
0.040155657
0.066678181
1.0005676
1.0004584
0.066674172
0.040152454
0.016676508
0.0022309884
0.0022312099
0.016679224
0.040158894
0.066684774
1.000297
0.99993479
0.066699966
0.04016542
0.016681051
0.0022311428
0.0022317368
0.016689609
0.04018901
0.066745156
0.99913822
0.99767156
0.066824746
0.040227168
0.016701956
0.0022323314
0.0022329745
0.016715851
0.04027111
0.066918476
0.99472822
0.98957069
0.06690795
0.040246754
0.016699308
0.0022303431
0.002218529
0.016594093
0.040004534
0.066525378
0.98128041
0.9715534
0.06552404
0.039413037
0.01634709
0.0021899448
0.0021448777
0.015920888
0.038400113
0.063804932
0.96150089
0.91274736
0.057903525
0.034628732
0.014300594
0.0020172644
0.0021476015
0.01596741
0.038516917
0.063973176
0.964316
0.97393732
0.065635185
0.039481402
0.016376381
0.0021918188
0.0022203161
0.016617765
0.040060884
0.066617514
0.98303073
0.99091751
0.066979037
0.040290033
0.016718358
0.002231919
0.0022345784
0.01673445
0.040314238
0.066987561
0.99595004
0.99878977
0.066878698
0.04026115
0.01671771
0.0022338072
0.0022334082
0.016707847
0.040230472
0.066810128
1.0003024
1.00104
0.066757846
0.040201949
0.016697803
0.0022327266
0.00223281
0.016696446
0.040197721
0.066744995
1.0013929
1.0015173
0.066723381
0.040184089
0.0166914
0.0022324219
0.0022327179
0.016693574
0.040190327
0.066731333
1.0015407
1.0015394
0.066716676
0.040179965
0.016689559
0.0022323783
0.0022326992
0.016692209
0.040187623
0.066727591
1.0015168
1.0015255
0.066715673
0.04017878
0.016688781
0.0022324036
0.0022327927
0.016692265
0.040188491
0.066730155
1.0015383
1.0015696
0.066721212
0.040181521
0.016689671
0.0022325742
0.0022330528
0.016694007
0.040192841
0.066737919
1.0016148
1.001687
0.066732306
0.040188334
0.016692688
0.0022329677
0.0022336253
0.016698849
0.040203482
0.066754621
1.0018277
1.0020443
0.066756263
0.0402037
0.016699678
0.0022337382
0.0022345777
0.016707909
0.040223417
0.066785442
1.0023066
1.0026119
0.066796497
0.040228993
0.016710808
0.0022348266
0.0022356004
0.016718316
0.040246499
0.066821514
1.0029409
1.0032439
0.066827827
0.040249565
0.016720367
0.0022357756
0.0022365414
0.016728158
0.04026807
0.066854836
1.0035644
1.0038939
0.066859685
0.040270096
0.016729696
0.0022366569
0.0022373399
0.016736965
0.040288016
0.066886769
1.0042111
1.0045036
0.066888658
0.040287338
0.016736862
0.0022372612
0.0022376569
0.016740178
0.04029659
0.066902897
1.0047407
1.0049666
0.066897369
0.040291625
0.01673844
0.0022375551
0.0022382038
0.016744842
0.040307643
0.06692005
1.0051957
1.0053605
0.066949778
0.040322386
0.016748727
0.0022381644
0.0022368386
0.016740111
0.040307674
0.066932789
1.0054012
0.0023415936
0.017837694
0.043222081
0.072376465
0.89768187
0.89750638
0.072373116
0.043226867
0.017842978
0.0023427412
0.0023428231
0.017840603
0.043217006
0.072352726
0.89723217
0.89695747
0.072335575
0.043206944
0.017836875
0.0023423818
0.0023423558
0.017835951
0.043203599
0.072328344
0.89674095
0.89647281
0.072309314
0.043191918
0.017831056
0.0023418315
0.0023416776
0.017828333
0.043184846
0.072296398
0.89618352
0.89585709
0.072273657
0.043170338
0.017821888
0.0023409826
0.002340694
0.017818105
0.043161303
0.072258111
0.89554964
0.8953319
0.072242636
0.043150343
0.01781269
0.0023400438
0.0023397227
0.017808396
0.043139909
0.072224617
0.89502415
0.89473502
0.072201181
0.043124442
0.017801325
0.0023389398
0.0023386162
0.017797442
0.043115251
0.072185542
0.89446271
0.8941995
0.07216386
0.043101075
0.017791017
0.0023378824
0.002337691
0.01778871
0.043095596
0.072154331
0.89406138
0.89396152
0.07214299
0.043087733
0.01778493
0.0023371847
0.0023371838
0.017784516
0.043086143
0.072139049
0.89390636
0.89384928
0.072130802
0.04308061
0.017781984
0.0023368126
0.0023369456
0.017782976
0.043082046
0.072131441
0.89384973
0.89380259
0.072125162
0.043078015
0.017781248
0.0023366608
0.0023368642
0.017783
0.043081169
0.072128591
0.89382378
0.89379872
0.072125256
0.043078823
0.017781955
0.002336635
0.002336882
0.01778433
0.04308369
0.072131925
0.8938282
0.89378801
0.072134374
0.043084314
0.017784308
0.0023367167
0.0023370164
0.01778768
0.043092278
0.072147727
0.89367807
0.89336011
0.072169485
0.043102088
0.017790637
0.0023370246
0.0023377213
0.017800555
0.043129873
0.072223795
0.89261606
0.89120381
0.072320453
0.043176063
0.017815519
0.0023384899
0.0023393402
0.017832585
0.043229853
0.072435511
0.88841214
0.88353654
0.072427214
0.043205043
0.01781553
0.0023365247
0.0023235575
0.017703974
0.042943392
0.072005467
0.87613164
0.86596377
0.070701217
0.042173962
0.017391409
0.0022897631
0.0022281177
0.016839523
0.040813584
0.068360526
0.8524115
0.86133216
0.07027752
0.041953718
0.017303109
0.0022579748
0.0023131335
0.017606021
0.042788773
0.071889062
0.8633138
0.87631698
0.073404702
0.043703247
0.017986862
0.0023491821
0.0023623876
0.018101853
0.043968361
0.073824971
0.8842655
0.88958592
0.07383236
0.043989004
0.018116683
0.0023645023
0.0023641481
0.01810394
0.043945346
0.073730261
0.89262253
0.89427661
0.073641042
0.043899783
0.01808864
0.002363099
0.0023629721
0.018083416
0.043883166
0.073600952
0.89511376
0.89548053
0.073573381
0.043867052
0.01807771
0.0023625396
0.0023628279
0.01807904
0.043870315
0.073574394
0.89566601
0.89574412
0.073566822
0.043863643
0.018076359
0.0023625717
0.0023628834
0.01807836
0.043869096
0.073572693
0.89578392
0.89581657
0.073568044
0.043863778
0.018076099
0.0023626446
0.0023629829
0.01807861
0.043870773
0.073577021
0.89586126
0.89587434
0.073571852
0.043865349
0.018076402
0.0023627571
0.0023631596
0.018079544
0.043873668
0.073582986
0.89591464
0.89591624
0.073578276
0.043869124
0.018078028
0.0023630265
0.0023636035
0.018082852
0.043880773
0.073594059
0.89599212
0.89609387
0.073598764
0.04388196
0.018083815
0.0023636907
0.0023644272
0.018090213
0.043896608
0.073618519
0.89626756
0.89647126
0.073627918
0.04390124
0.018092912
0.0023646859
0.0023656005
0.018101402
0.043920811
0.073655783
0.8967439
0.89700823
0.073669954
0.043928202
0.018105258
0.0023659378
0.0023668131
0.018113538
0.043947028
0.07369624
0.89731413
0.89757789
0.073707363
0.043952417
0.018116517
0.0023670459
0.0023677738
0.018123316
0.043968049
0.073728882
0.89781535
0.8980283
0.07373282
0.043968947
0.018124344
0.0023678403
0.0023684989
0.018130737
0.043984768
0.073755911
0.89828214
0.89853829
0.073760475
0.043985235
0.018131003
0.0023684533
0.0023689786
0.018136328
0.044000276
0.073783672
0.89884248
0.89910337
0.073795113
0.044003209
0.018136107
0.0023687664
0.0023685898
0.018136276
0.044007171
0.07380176
0.8993133
0.89916147
0.073802335
0.043997829
0.01812826
0.0023671362
0.00234115
0.017833003
0.04321128
0.072359032
0.89746552
0.89756759
0.072373275
0.043225238
0.017841453
0.0023425084
0.002342675
0.017839667
0.043216411
0.072354112
0.89734894
0.89709229
0.072335873
0.0432056
0.017835698
0.0023422345
0.0023421867
0.017834449
0.043201305
0.072326622
0.89679701
0.89649667
0.072302574
0.043186614
0.01782842
0.0023415741
0.0023414029
0.017825632
0.043179621
0.072289739
0.89614476
0.89582544
0.072264865
0.04316384
0.017818716
0.0023406682
0.0023404253
0.017815632
0.043156848
0.072252848
0.89550661
0.89520052
0.072227302
0.043140326
0.017808245
0.002339636
0.0023393448
0.017804687
0.043132332
0.072213836
0.89487799
0.8945918
0.072188656
0.043115934
0.017797312
0.0023385427
0.0023382651
0.017794087
0.043108591
0.072176114
0.89431484
0.89410775
0.072157501
0.043096065
0.017788297
0.002337585
0.0023374548
0.017786635
0.043092112
0.072150173
0.89398313
0.89392136
0.072139202
0.043084357
0.017782936
0.0023369663
0.0023370124
0.017783063
0.043084175
0.072137497
0.89386388
0.89384304
0.072131536
0.043079799
0.017780971
0.0023366799
0.0023368373
0.017782135
0.043081458
0.072132069
0.89383305
0.89381945
0.072128933
0.043078989
0.017780968
0.0023365974
0.0023367763
0.017782216
0.043080488
0.07212882
0.89379144
0.89376761
0.072127405
0.043078876
0.017781355
0.0023365534
0.0023367648
0.01778319
0.043082079
0.07213055
0.89376612
0.89368796
0.072129318
0.043080343
0.017782232
0.0023365194
0.0023367874
0.01778537
0.043087799
0.072141556
0.89354656
0.89320612
0.072161015
0.04309609
0.017787713
0.0023367388
0.0023374875
0.017798455
0.043126203
0.07221933
0.89252459
0.89109771
0.072312875
0.043170648
0.017812835
0.0023382159
0.0023390965
0.017830428
0.043225884
0.072430123
0.88833717
0.88348878
0.072419247
0.04319968
0.017812809
0.0023362425
0.0023232784
0.017702123
0.042940822
0.072000813
0.87614845
0.86585045
0.070673832
0.042157021
0.017382411
0.0022892739
0.0022290884
0.016856961
0.040862393
0.068428153
0.85393018
0.96321597
0.063755312
0.038403329
0.015953084
0.0021409571
0.0021881709
0.016313384
0.039330241
0.065404025
0.97076592
0.9824024
0.066584924
0.040039476
0.016609231
0.0022193487
0.0022317571
0.016715651
0.040284228
0.066967386
0.99047864
0.99559776
0.066967588
0.040299605
0.016727946
0.0022338706
0.0022335579
0.016715319
0.040257921
0.066872834
0.99843595
0.99989994
0.066784443
0.040211593
0.016699256
0.0022324961
0.0022322956
0.016693168
0.040193487
0.066743933
1.0006266
1.0009178
0.066710272
0.040174066
0.016686242
0.0022318165
0.0022321432
0.016688198
0.040178981
0.066714633
1.0010605
1.0011329
0.066707119
0.040172665
0.016685635
0.0022319203
0.0022322263
0.016687761
0.040178476
0.066714188
1.0012048
1.0012324
0.066709352
0.040173335
0.01668554
0.002232007
0.0022323071
0.016687666
0.040179009
0.066716019
1.0012433
1.0012547
0.066714393
0.04017563
0.016686104
0.0022321293
0.0022324381
0.0166882
0.040180849
0.066720014
1.0012845
1.0013297
0.066719128
0.040178304
0.016687228
0.002232333
0.0022327775
0.016690836
0.040186841
0.066729864
1.0014048
1.0015221
0.066732879
0.040187014
0.016691188
0.0022327992
0.0022333895
0.016696448
0.040199367
0.066749932
1.0017253
1.0019638
0.066752773
0.040200304
0.016697584
0.0022335213
0.0022343453
0.01670568
0.040219579
0.066781355
1.0022761
1.0026188
0.066788642
0.040223289
0.016708034
0.0022345768
0.0022354336
0.016716689
0.040243977
0.066819618
1.0029897
1.0033742
0.066826495
0.040247513
0.016718984
0.0022356545
0.0022365173
0.016727927
0.040269474
0.066860316
1.0037855
1.0041867
0.066868721
0.040273103
0.016729839
0.0022366541
0.0022372683
0.016736297
0.040290172
0.06689585
1.0045565
1.0048324
0.06689396
0.040286615
0.016734703
0.0022371045
0.0022375585
0.016739162
0.040299043
0.06691306
1.0050428
1.0051243
0.06691573
0.040298359
0.016738131
0.0022372817
0.0022367984
0.016734158
0.040290036
0.066899074
1.0049149
1.0042052
0.066885557
0.040274467
0.016724736
0.0022353403
0.89809836
0.07370761
0.04393954
0.018103418
0.0023648291
0.0023667986
0.01811992
0.043975848
0.073760263
0.89876338
0.89913019
0.073800242
0.043999696
0.018130057
0.0023678153
0.0023682891
0.018131901
0.043998908
0.073792599
0.89899766
0.89872751
0.073777638
0.043990307
0.018129008
0.0023680343
0.0023678729
0.018125088
0.043977413
0.073751882
0.89848257
0.89809242
0.073727588
0.043961999
0.018118505
0.0023671913
0.0023668184
0.018113327
0.043948134
0.073702293
0.89774347
0.89733485
0.073679065
0.043932992
0.018106454
0.0023660351
0.0023656149
0.018101145
0.043919848
0.073655997
0.89703145
0.89670862
0.073641989
0.043909499
0.018095786
0.0023649282
0.0023645495
0.018090852
0.043897055
0.073619637
0.89646729
0.89617777
0.073605031
0.043886491
0.018085519
0.0023638708
0.0023635646
0.018081495
0.043876198
0.073586311
0.89596914
0.89573453
0.073573578
0.043866949
0.018076839
0.0023629602
0.0023627569
0.018073895
0.043859021
0.073558597
0.89558737
0.8954312
0.073548109
0.043851411
0.018070118
0.0023622404
0.0023622127
0.018069316
0.043848609
0.073541629
0.89537928
0.89530807
0.073537592
0.043845178
0.018067435
0.0023618732
0.0023619719
0.01806785
0.04384482
0.073534658
0.8953009
0.89523408
0.073531745
0.043842376
0.018066579
0.0023617007
0.002361845
0.018067486
0.043843028
0.073530411
0.89522904
0.89513935
0.073527985
0.043840856
0.018066355
0.0023615815
0.0023617608
0.018067957
0.043843632
0.073531016
0.8951034
0.8949279
0.073543274
0.043849036
0.018069453
0.0023616671
0.0023620328
0.018073828
0.043859954
0.073563033
0.89462988
0.89380916
0.073610819
0.043882262
0.018080859
0.0023622774
0.0023632858
0.018095497
0.043924682
0.073696283
0.89220058
0.88911785
0.073800688
0.043971118
0.018109052
0.002363683
0.0023614287
0.018092979
0.043946133
0.073787824
0.88371424
0.87549857
0.073364484
0.043679478
0.017976588
0.0023480353
0.0023109073
0.017589052
0.042745715
0.071815228
0.86201633
0.85882281
0.070120946
0.041860529
0.017264389
0.0022541068
0.0022650383
0.01733372
0.042056802
0.07047015
0.86227819
0.86498074
0.07202465
0.042884089
0.017649031
0.0023137651
0.0023486172
0.017980577
0.043685414
0.073372606
0.87631647
0.88447908
0.073816924
0.043962134
0.018099698
0.0023619027
0.0023646933
0.018118322
0.043991651
0.073832137
0.88975098
0.89273607
0.073731719
0.043945281
0.018104423
0.0023640685
0.0023635069
0.018092254
0.043907303
0.0736484
0.89437924
0.8951839
0.073598912
0.043881379
0.018083387
0.0023628996
0.0023629752
0.018081466
0.043874958
0.073581432
0.89555328
0.89568213
0.073572773
0.043868624
0.018078937
0.002362738
0.0023628991
0.018078918
0.043868566
0.073569702
0.89576143
0.89575017
0.073565374
0.043864083
0.018076934
0.0023626801
0.0023628854
0.018077653
0.043866198
0.073566723
0.89577016
0.89576868
0.073564326
0.043862756
0.018076087
0.0023627013
0.0023629949
0.018077826
0.043867416
0.073569992
0.89580065
0.89582074
0.07357154
0.043866347
0.018077291
0.0023629084
0.002363303
0.018079917
0.043872479
0.073578797
0.8958676
0.89592287
0.073586317
0.043875336
0.018081172
0.0023633841
0.0023639252
0.018085245
0.043884273
0.073597587
0.89606726
0.89623335
0.073608795
0.043890045
0.018088107
0.0023641768
0.0023649439
0.018094746
0.043904942
0.073629546
0.89647753
0.89676248
0.07364944
0.043915613
0.018099504
0.0023653327
0.0023660587
0.018105681
0.043928788
0.073666689
0.89704812
0.89734193
0.073683949
0.043938177
0.018110059
0.0023663965
0.002367063
0.018115953
0.043951045
0.073701145
0.8976479
0.89791997
0.073713324
0.043957274
0.018118974
0.0023672746
0.0023678801
0.018124459
0.043969906
0.073730902
0.8982017
0.89846875
0.073742363
0.043975438
0.018126899
0.0023680125
0.0023685594
0.018132341
0.043989717
0.073764979
0.89873451
0.89897189
0.073774023
0.043992914
0.018133286
0.0023685506
0.0023690493
0.018137652
0.044005116
0.073792549
0.89926788
0.89949908
0.073831389
0.044022853
0.018141768
0.002368984
0.002367336
0.018129305
0.043997648
0.073796471
0.8994233
8.9591452
9.5543054
8.9653895
9.551339
10.687234
10.334898
9.6553102
9.5267233
10.271811
10.337456
10.848594
10.868241
10.267545
10.671043
11.044962
11.008228
11.00333
10.868537
10.860632
10.709221
11.013389
11.013086
10.682771
10.590972
10.996926
10.809404
10.823758
11.05426
11.062011
11.069449
11.055393
10.93032
10.92907
10.740385
10.775191
10.680761
11.066574
11.057015
11.046727
10.98863
10.994592
10.614831
10.578872
10.555171
10.991946
10.954339
10.980093
10.985004
10.581693
10.579244
10.544888
10.54935
10.588399
10.65759
11.005223
10.959069
10.959024
10.875228
9.8093592
9.2211004
10.536045
10.787502
0.85562655
0.068331525
0.04080491
0.016838112
0.0022318363
0.002289211
0.017369686
0.042120242
0.070602347
0.86640282
0.87533389
0.071870994
0.042861037
0.017669095
0.0023210627
0.0023347715
0.017791184
0.043150324
0.072339184
0.882459
0.88737743
0.072350982
0.043174808
0.017808194
0.0023372753
0.0023371899
0.017798982
0.043140264
0.072264815
0.89023096
0.89183255
0.072163995
0.043089746
0.017782551
0.0023361158
0.0023362134
0.017780481
0.043081459
0.072138632
0.8926701
0.89312294
0.07211286
0.043066576
0.017775394
0.0023358376
0.0023361884
0.017777792
0.043072601
0.072118591
0.89333172
0.89347804
0.072108085
0.043064854
0.01777495
0.0023359473
0.0023363691
0.017778778
0.043075724
0.072124643
0.89358087
0.89363076
0.07211078
0.043066125
0.017775295
0.0023360785
0.0023365513
0.017779865
0.043079088
0.07213136
0.89369311
0.89374989
0.072118262
0.043070008
0.017776682
0.0023362983
0.0023368779
0.017782349
0.043085337
0.072142254
0.8938093
0.89389369
0.0721363
0.043080358
0.017780775
0.0023367529
0.0023373645
0.017786508
0.043095048
0.072158437
0.89398657
0.89408604
0.072151717
0.043090591
0.017785666
0.0023373494
0.0023381988
0.017794038
0.043111277
0.072183156
0.89425817
0.89446693
0.072187519
0.043113118
0.017795654
0.002338369
0.0023392286
0.017803974
0.043132755
0.072215902
0.89467504
0.89493273
0.072224312
0.043136834
0.017806479
0.0023394427
0.0023402055
0.017813933
0.043154093
0.072248381
0.89515001
0.89533512
0.072248846
0.043153654
0.01781474
0.0023402611
0.002340905
0.017821155
0.043168871
0.072270226
0.89551403
0.89569256
0.072262607
0.043163562
0.017819924
0.0023407889
0.0023413829
0.017826158
0.043179802
0.072287532
0.89586658
0.89604229
0.072281756
0.043174153
0.01782401
0.0023411491
0.0023415486
0.017827785
0.043185187
0.072298453
0.8961979
0.89638777
0.072300858
0.04318368
0.017826311
0.0023413031
0.0023413702
0.0178288
0.043192984
0.072315652
0.89659259
0.896752
0.072331942
0.043193622
0.017824864
0.0023403032
0.0023389799
0.017809043
0.043153932
0.072264429
0.89604331
0.89662452
0.072308951
0.043183328
0.017822217
0.0023405506
0.0023410509
0.017824438
0.043184654
0.072307287
0.89671862
0.89667368
0.072303353
0.043182207
0.017823789
0.0023409291
0.002341258
0.017826278
0.043186043
0.072306687
0.8966957
0.89654242
0.072301236
0.043182471
0.017824784
0.0023410438
0.002341021
0.017822935
0.043176236
0.072287972
0.89636213
0.89604877
0.072268488
0.043163631
0.017817371
0.0023404238
0.0023401482
0.017813293
0.043153058
0.07224917
0.89572414
0.8953666
0.072228486
0.043139122
0.017806827
0.0023394229
0.002339016
0.01780139
0.04312565
0.072205006
0.89498401
0.89457119
0.072179648
0.043108622
0.017793482
0.0023381613
0.0023377856
0.017788984
0.043097968
0.07216113
0.89427362
0.89399858
0.072145606
0.043087088
0.01778364
0.0023371063
0.0023369164
0.017781303
0.043081171
0.072134469
0.8938509
0.89369023
0.072130402
0.043076894
0.017778649
0.0023364849
0.0023364531
0.017777569
0.043073316
0.072122407
0.89369198
0.89351148
0.072106164
0.043062806
0.017772997
0.002335918
0.0023358937
0.017772341
0.04306038
0.072100303
0.89337792
0.89327594
0.072092935
0.043055073
0.017769813
0.0023355063
0.0023355751
0.017770119
0.043054627
0.07209
0.89321951
0.89315088
0.072089101
0.043053077
0.017769112
0.0023353109
0.0023354505
0.017770171
0.043054316
0.07208906
0.89306804
0.89284286
0.072090304
0.043053459
0.017769359
0.0023351954
0.0023355741
0.017774227
0.043066293
0.072114037
0.89251036
0.89173553
0.072162028
0.043088693
0.017781328
0.00233585
0.0023369509
0.017797012
0.043134295
0.072253668
0.8902455
0.88738627
0.072359395
0.043180946
0.01781053
0.0023373644
0.0023349311
0.017793982
0.043155697
0.07234707
0.88241407
0.87467564
0.071903167
0.042878477
0.017674971
0.0023214945
0.0022895309
0.01738022
0.042153062
0.070667949
0.86472303
0.8504088
0.068328409
0.040765609
0.016812387
0.0022301724
0.0021371982
0.015959127
0.038762385
0.065058564
0.82871902
0.85876041
0.073240815
0.043554291
0.017852967
0.0023223836
0.0022576061
0.017274849
0.041877765
0.070163576
0.86154434
0.8617173
0.071720668
0.042688159
0.017564258
0.0023099093
0.0023458008
0.017947575
0.043614079
0.073257831
0.87450409
0.88242325
0.073677916
0.043873221
0.018059689
0.0023586454
0.0023617917
0.018085526
0.043921624
0.073726292
0.88794921
0.89115697
0.073626711
0.04387598
0.018072555
0.0023612605
0.0023611291
0.018066234
0.043852684
0.07356784
0.8929913
0.89396467
0.073524855
0.043830745
0.018059359
0.0023606808
0.002360957
0.018060171
0.043830538
0.073516283
0.89441693
0.89460883
0.073509985
0.043825445
0.01805838
0.0023607813
0.0023610623
0.018059858
0.043828881
0.073511766
0.89474241
0.89484876
0.073503378
0.04382233
0.018057558
0.0023608626
0.0023613354
0.018061809
0.043833684
0.073519905
0.89491508
0.89496346
0.073512457
0.04382774
0.018059726
0.002361143
0.0023616272
0.018063949
0.043838865
0.073528796
0.89501762
0.89511342
0.0735239
0.043834447
0.018062606
0.0023615143
0.0023621269
0.018068216
0.043848649
0.073544827
0.89519411
0.8952998
0.073543587
0.043846722
0.018068066
0.0023621305
0.00236286
0.018074746
0.043862849
0.073567057
0.89544376
0.89564652
0.0735698
0.043863817
0.018076087
0.0023630195
0.0023639537
0.018085192
0.04388581
0.07360292
0.89591172
0.89620144
0.073611253
0.043890176
0.018087914
0.0023642126
0.0023651208
0.018096945
0.043911847
0.073643867
0.89650971
0.89678567
0.073649127
0.043914349
0.018098938
0.0023652913
0.00236608
0.018106669
0.04393261
0.073675415
0.89701171
0.89725255
0.073681189
0.043934673
0.018108106
0.0023661588
0.0023667624
0.018113969
0.043949177
0.073702306
0.89751667
0.89779413
0.073701246
0.043946916
0.018113409
0.0023666753
0.0023672405
0.018119247
0.043963225
0.073727473
0.89805456
0.89829617
0.073726872
0.043960274
0.018117614
0.0023670239
0.0023674
0.018121657
0.043972726
0.073745521
0.89845123
0.89835339
0.073785824
0.043991234
0.018125855
0.0023671741
0.0023650889
0.018113404
0.043946963
0.073706836
0.89777266
0.0023384698
0.017804277
0.043143821
0.072248268
0.89585846
0.89656593
0.072298673
0.04317641
0.017818639
0.0023401297
0.002340726
0.017821795
0.043179503
0.072299316
0.89672572
0.89671314
0.072300115
0.043179831
0.017822448
0.0023407503
0.0023411101
0.017824817
0.043183494
0.072303514
0.8967234
0.8965736
0.072298247
0.043179715
0.017823177
0.0023409012
0.002340987
0.017822718
0.043177215
0.072291511
0.89638984
0.89605068
0.072268099
0.043162663
0.017816617
0.0023403778
0.0023401819
0.017813687
0.043155685
0.072255727
0.8957085
0.89534002
0.0722267
0.043137105
0.017805426
0.0023393167
0.0023389909
0.017801662
0.043128353
0.072211474
0.89498973
0.8946523
0.072180685
0.043109013
0.017793277
0.002338112
0.0023378491
0.017790236
0.043102096
0.072168907
0.89436352
0.89408353
0.072151345
0.043089984
0.017784471
0.0023371645
0.0023369905
0.017782311
0.043084792
0.072141853
0.89396651
0.89385308
0.072133348
0.043078114
0.017778846
0.0023365061
0.0023364497
0.017777601
0.043074325
0.072125107
0.89373527
0.89354938
0.07210312
0.043060652
0.017771887
0.0023358281
0.0023357943
0.017771375
0.043059081
0.072099301
0.89337103
0.89326113
0.072085691
0.04305033
0.017767604
0.0023353163
0.0023354219
0.017768662
0.04305239
0.072087751
0.89319841
0.89313242
0.072080473
0.043047555
0.017766553
0.0023350902
0.0023352727
0.017768404
0.043051329
0.072085525
0.89302391
0.89283342
0.072083467
0.04304888
0.017767123
0.0023349974
0.0023354153
0.017772542
0.043063324
0.072110369
0.89246814
0.89173064
0.0721555
0.043084279
0.017779208
0.0023356813
0.0023367791
0.017794801
0.043129726
0.072247115
0.89016655
0.88730953
0.072347333
0.04317333
0.017807222
0.0023371308
0.0023347224
0.017791276
0.043149696
0.072337756
0.88235732
0.87469325
0.071897069
0.042874515
0.01767314
0.0023213828
0.0022897566
0.017382845
0.042160556
0.070680151
0.86498655
0.85088171
0.06835378
0.040777376
0.016815632
0.0022310276
0.0021442031
0.01607748
0.03906124
0.065511835
0.83345873
0.92607039
0.059457787
0.035606171
0.014718866
0.0020461398
0.0022322818
0.016844767
0.040784182
0.068176368
0.84571559
0.8592907
0.068971991
0.041273621
0.017001819
0.0022436957
0.0022336296
0.016867324
0.04088333
0.068453902
0.85695376
0.86673169
0.070622655
0.042129681
0.017372115
0.0022895551
0.0023222484
0.017683488
0.04289696
0.071927166
0.87590856
0.88293695
0.072360506
0.043162734
0.017796993
0.0023351651
0.0023382019
0.017818447
0.04319924
0.072387615
0.88777854
0.89054241
0.072276185
0.043146924
0.017802638
0.0023374459
0.0023369498
0.017791546
0.043111352
0.072195907
0.89208427
0.89288029
0.072146243
0.043085299
0.0177827
0.0023363377
0.0023364532
0.017781451
0.043080564
0.072131375
0.89329435
0.893473
0.072120645
0.043073131
0.017778709
0.0023362274
0.0023365566
0.017780883
0.043078841
0.072127275
0.8936161
0.89370415
0.072123244
0.043074571
0.017779167
0.002336392
0.0023367796