/*--------------------------------*- C++ -*----------------------------------*\
  =========                 |
  \\      /  F ield         | OpenFOAM: The Open Source CFD Toolbox
   \\    /   O peration     | Website:  https://openfoam.org
    \\  /    A nd           | Version:  7
     \\/     M anipulation  |
\*---------------------------------------------------------------------------*/
FoamFile
{
    version     2.0;
    format      ascii;
    class       volScalarField;
    location    "20";
    object      omega;
}
// * * * * * * * * * * * * * * * * * * * * * * * * * * * * * * * * * * * * * //

dimensions      [0 0 -1 0 0 0 0];

internalField   nonuniform List<scalar> 
25201
(
170.95105
184.6014
170.93415
184.61226
251.10115
197.49033
177.74576
180.02597
199.27759
248.22428
199.21401
197.4741
222.46633
415.29887
430.66873
273.67957
302.75211
333.84244
352.14111
422.96792
371.32515
367.63418
349.64415
387.35134
392.66893
434.09623
394.77716
319.05465
326.89879
394.90458
390.66471
383.20919
453.97505
449.33575
440.50639
428.24489
378.92604
386.17916
436.63612
441.33678
390.40075
392.5875
397.13043
455.92233
443.38784
429.28749
385.05609
315.17386
238.97619
222.44316
223.19753
240.00138
299.50302
285.81676
264.63124
268.12642
267.62131
293.0642
290.64227
361.04817
348.6577
323.905
322.45646
316.34844
319.27098
266.10813
288.34565
358.6243
358.82113
383.10804
384.70422
374.1636
308.01388
304.16918
311.24248
394.28169
385.28608
380.06165
378.49646
371.91478
360.56505
344.65854
378.92893
374.78231
390.47943
361.33163
400.17317
412.63268
449.40255
425.96084
444.72715
446.96809
456.49
463.81741
471.9187
455.7988
461.29293
478.04633
504.72165
485.95674
480.33913
497.62776
488.87988
472.88717
464.75829
477.98489
503.62358
487.81009
468.73791
475.00792
505.7806
500.3014
518.81662
525.28517
541.68386
523.10267
519.01785
536.4881
530.79784
511.68595
494.15528
513.57295
509.25417
525.05419
543.17452
527.27717
506.3881
469.71531
427.92889
438.90908
443.5856
445.68893
430.3908
428.34004
423.34829
415.68585
401.16598
380.37376
324.39167
268.07116
268.21303
322.44141
361.26738
348.92796
293.70346
290.804
285.88485
264.63607
223.18828
266.12763
319.22608
316.26722
359.05964
358.7417
288.43318
301.93952
239.95143
239.07994
308.72177
304.37067
384.99141
374.71351
361.66749
362.07261
346.06912
373.55368
380.09769
380.6415
412.45376
405.82154
390.79249
375.09492
411.1665
383.56605
379.48869
407.54589
410.97464
415.5888
458.47712
453.56534
485.37743
479.01924
481.95468
496.77284
491.23992
510.70118
497.83536
503.11197
518.52669
538.63089
522.65879
498.77191
458.86926
416.41801
447.76701
446.52515
452.37856
532.57188
515.33145
496.29018
475.43831
466.25246
479.42099
458.23246
466.68933
491.33923
513.77376
504.8376
488.99736
510.13536
525.99735
543.76474
527.77193
531.81783
536.91965
513.45678
184.6012
170.88699
227.78985
318.93961
326.84888
397.08852
449.20968
390.49157
394.85914
390.26035
392.57251
443.34742
455.90338
453.82988
441.25584
436.47806
385.98424
378.62458
383.09183
440.31931
428.04812
412.30326
367.4092
302.52096
167343.94
53227.497
31743.672
23978.817
4221.7313
4207.2497
23602.366
31272.983
52350.933
164375.37
163157.78
51824.173
30931.559
23327.423
4157.3189
4122.2917
23210.954
30773.535
51561.443
162541.44
162252.13
51444.634
30708.065
23170.325
4099.6891
4086.8933
23160.345
30683.158
51387.961
162077.94
162018.46
51368.384
30674.46
23158.969
4080.0348
4076.7062
23159.341
30670.9
51355.493
161969.29
161975.99
51355.782
30670.111
23159.57
4075.1697
4074.5061
23159.654
30669.39
51351.648
161959.78
161978.32
51354.908
30669.329
23159.318
4074.192
4074.0666
23159.188
30668.908
51351.872
161965.11
161988.98
51356.855
30669.765
23159.476
4074.0696
4074.1542
23159.688
30669.771
51354.442
161976.83
162001.2
51360.169
30671.329
23160.613
4074.3604
4074.7072
23162.117
30672.892
51359.824
161993.3
162025.58
51368.917
30676.838
23164.955
4075.2184
4075.8894
23168.972
30681.638
51373.507
162031.48
162077.84
51387.531
30688.766
23174.212
4076.6839
4077.5701
23180.475
30696.502
51396.76
162097.84
162149.44
51413.105
30705.25
23186.895
4078.4687
4079.3883
23194.425
30714.649
51424.731
162176.2
162233.03
51442.668
30724.44
23201.562
4080.1874
4080.908
23209.433
30734.447
51455.364
162263.76
162322.42
51473.31
30743.955
23216.176
4081.405
4081.681
23222.411
30752.075
51483.617
162348.39
162399.56
51497.436
30758.314
23226.437
4081.6407
4081.2811
23228.432
30761.104
51500.54
162411.31
162440.61
51505.203
30760.675
23227.015
4080.6177
4079.689
23223.395
30755.943
51496.726
162423.17
162392.47
51481.025
30744.414
23214.086
4078.2153
4076.5099
23198.28
30723.012
51445.301
162301.67
3699.4094
23345.66
30451.572
50465.954
158818.54
158908.98
50503.21
30475.116
23363.612
3701.177
3702.3332
23373.475
30487.241
50518.903
158929.96
158953.58
50529.103
30492.803
23377.373
3702.953
3703.3093
23379.583
30494.406
50528.119
158948.39
158951.96
50528.249
30493.261
23378.27
3703.4881
3703.5383
23376.152
30489.105
50517.867
158913.34
158889.31
50509.279
30482.286
23370.615
3703.3163
3702.9645
23364.874
30473.686
50492.764
158835.78
158801.94
50480.092
30463.907
23356.905
3702.4183
3701.8776
23350.152
30454.261
50462.444
158746.36
158713.05
50449.985
30444.463
23341.965
3701.1986
3700.5033
23335.399
30435.23
50433.198
158661.63
158638.03
50423.116
30426.875
23328.255
3699.7426
3699.0953
23323.58
30420.128
50410.188
158598.34
158584.97
50404.138
30414.493
23318.52
3698.4853
3698.1695
23317.321
30412.258
50398.472
158568.06
158565.43
50397.021
30409.787
23314.717
3697.8529
3697.7154
23314.176
30408.258
50391.695
158545.39
158543.99
50390.941
30406.48
23312.269
3697.5531
3697.5191
23311.92
30405.09
50385.538
158522.35
158525.51
50386.138
30404.076
23310.584
3697.5489
3697.7934
23310.903
30403.693
50382.537
158508.93
158520.21
50385.826
30403.964
23310.176
3698.3246
3699.5909
23311.266
30405.904
50387.579
158521.77
158568.99
50401.423
30410.557
23311.647
3702.205
3707.7077
23317.543
30424.107
50428.528
158653.64
158844.16
50492.357
30454.406
23332.01
3717.8296
3735.8881
23380.488
30529.01
50624.796
159188.38
159877.89
50897.24
30691.632
23500.476
3763.9811
3797.3722
23743.948
30999.797
51401.926
161290.14
163632.69
52111.055
31420.586
24088.353
3830.2423
4002.6851
25025.265
32534.672
53603.173
163274.7
163949.03
52168.346
31441.602
24107.146
3830.9078
3797.532
23767.421
31030.765
51452.774
161453.13
160013.98
50941.241
30718.616
23521.208
3764.99
3737.1754
23399.066
30553.483
50664.143
159305.44
158962.16
50531.792
30479.129
23351.128
3719.2981
3709.2358
23336.508
30448.925
50467.565
158765.5
158696.99
50444.758
30437.983
23332.904
3703.8841
3701.2995
23332.464
30433.583
50431.115
158648.19
158649.72
50429.864
30431.993
23331.875
3700.054
3699.4939
23331.599
30430.834
50424.95
158631.08
158648.68
50427.952
30430.806
23331.258
3699.2052
3699.0735
23330.485
30429.443
50423.308
158631.08
158647.64
50426.159
30429.23
23329.94
3699.0282
3699.0798
23329.382
30428.122
50421.958
158630.58
158649.96
50426.035
30428.741
23329.55
3699.2303
3699.5177
23330.077
30428.932
50423.726
158637.34
158663.01
50430.509
30431.474
23331.819
3699.9367
3700.5179
23334.597
30434.502
50432.371
158661.03
158701.27
50444.511
30440.588
23339.106
3701.2087
3702.0162
23344.808
30447.443
50452.288
158716.33
158773.21
50469.866
30457.011
23351.968
3702.8734
3703.7359
23359.529
30466.267
50481.491
158802.46
158859.54
50499.367
30476.058
23366.688
3704.5078
3705.2366
23374.287
30485.578
50511.3
158887.96
158946.6
50529.426
30495.509
23381.527
3705.807
3706.2384
23388.004
30503.66
50539.271
158969.53
159020.32
50554.169
30511.226
23393.238
3706.4501
3706.4801
23397.132
30515.938
50558.646
159026.03
159049.79
50566.869
30519.597
23399.381
3706.3073
3705.819
23400.381
30520.798
50566.1
159042.19
159076.31
50570.79
30520.547
23399.199
3704.7633
3703.1722
23393.052
30513.247
50561.28
159077.99
158994.37
50522.946
30486.298
23370.957
3700.9909
161660.08
51215.642
30625.839
23171.176
4050.5744
4052.8272
23190.283
30649.581
51249.274
161724.03
161724.78
51257.535
30655.634
23195.349
4054.0356
4054.7797
23196.533
30655.578
51252.889
161701.03
161698.88
51251.609
30653.478
23194.633
4055.1125
4055.3542
23192.939
30649.977
51242.59
161666.28
161647.71
51235.887
30644.34
23188.302
4055.2146
4054.9698
23183.679
30637.144
51221.476
161600.03
161569.85
51210.022
30628.145
23176.339
4054.3497
4053.8267
23170.67
30619.859
51194.691
161523.56
161490.09
51182.224
30610.195
23162.711
4052.9356
4052.1061
23156.06
30600.723
51164.747
161435.78
161405.39
51152.873
30591.451
23148.352
4051.0908
4050.2334
23142.765
30583.427
51137.611
161357.93
161339.63
51129.695
30576.686
23136.919
4049.3288
4048.7124
23134.156
30572.455
51120.524
161310.87
161308.11
51118.268
30569.396
23131.107
4048.0824
4047.74
23130.621
30568.059
51113.321
161290.04
161297.49
51114.814
30567.482
23129.511
4047.4109
4047.3566
23130.406
30567.832
51112.252
161284.98
161296.07
51115.329
30568.344
23130.197
4047.268
4047.3966
23131.598
30569.275
51113.595
161285.22
161296.46
51116.87
30569.868
23131.457
4047.5028
4047.9192
23132.819
30570.894
51115.592
161287.25
161299.18
51119.027
30571.176
23132.048
4048.5324
4050.09
23132.491
30572.519
51120.269
161300.78
161345.03
51132.146
30575.378
23131.102
4053.1474
4059.7772
23134.127
30586.322
51156.85
161427.43
161618.21
51218.531
30613.565
23144.925
4071.7746
4093.1474
23191.711
30687.944
51353.331
161972.66
162733.11
51648.634
30861.847
23319.074
4125.3252
4170.0459
23598.02
31208.239
52193.188
164122.67
166254.93
53011.349
31745.921
24050.995
4228.3156
4222.8432
24010.084
31766.344
53202.783
167038.07
164336.43
52381.095
31295.688
23621.918
4212.5118
4156.934
23333.613
30940.67
51842.225
163235.92
162637.2
51587.874
30787.526
23221.046
4123.4294
4101.0522
23182.737
30724.094
51468.064
162321.38
162178.68
51419.702
30701.147
23173.671
4088.4076
4081.6575
23173.723
30693.495
51395.912
162093.96
162078.35
51390.538
30691.007
23174.225
4078.334
4076.8458
23175.373
30690.586
51385.527
162057.8
162074.17
51388.573
30690.735
23175.44
4076.1678
4075.8919
23175.921
30690.87
51386.321
162065.09
162081.23
51389.219
30690.56
23175.224
4075.6988
4075.6658
23175.337
30690.346
51386.622
162070.9
162086.34
51389.371
30689.936
23174.597
4075.6696
4075.8351
23174.956
30689.951
51386.949
162074.91
162093.49
51391.337
30690.808
23175.328
4076.1193
4076.6427
23177.491
30693.037
51391.952
162088.53
162120.48
51401.436
30697.358
23180.593
4077.3239
4078.2164
23185.828
30703.575
51408.179
162133.39
162179.33
51422.836
30711.362
23191.54
4079.1808
4080.2982
23199.441
30721.154
51434.979
162207.19
162268.39
51454.681
30732.158
23207.54
4081.3929
4082.4781
23216.685
30743.658
51469.35
162304.4
162365.23
51488.669
30754.443
23224.462
4083.3458
4084.1125
23232.358
30764.402
51500.784
162394.18
162443.5
51516.154
30772.625
23238.098
4084.6028
4084.9105
23243.447
30779.356
51523.354
162457.55
162498.99
51534.811
30784.491
23246.657
4084.8512
4084.4664
23248.729
30787.152
51536.751
162502.66
162533.94
51542.905
30787.912
23248.296
4083.6445
4082.4241
23245.706
30784.744
51537.626
162526.01
162513.89
51524.652
30773.374
23235.848
4080.4403
4077.8205
23215.922
30747.481
51484.738
162424.21
161628
51204.656
30618.708
23165.712
4049.7329
4051.9885
23186.245
30644.463
51242.059
161707.67
161713.53
51252.437
30651.88
23192.318
4053.3361
4054.1921
23193.759
30652.169
51248.212
161689.38
161685.21
51246.577
30649.996
23191.936
4054.5982
4054.8578
23189.607
30645.627
51235.955
161646.41
161625.87
51228.537
30639.562
23184.727
4054.7795
4054.5438
23179.547
30631.684
51213.079
161575.13
161547.08
51201.91
30622.773
23172.311
4053.9861
4053.3445
23165.473
30612.975
51183.915
161490.68
161458.45
51171.179
30603.038
23157.362
4052.4763
4051.629
23150.393
30593.236
51153.297
161402.86
161375.14
51141.983
30584.237
23142.916
4050.6511
4049.8257
23137.747
30576.857
51127.955
161331.92
161317.55
51121.289
30570.858
23132.466
4048.9796
4048.4148
23129.923
30566.976
51112.7
161290.09
161289.8
51111.184
30564.37
23127.256
4047.8186
4047.5019
23127.142
30563.571
51107.196
161274.78
161282.98
51109.015
30563.252
23126.258
4047.2099
4047.228
23127.588
30564.184
51107.446
161273.77
161282.37
51110.083
30564.567
23127.332
4047.165
4047.3061
23128.873
30565.648
51108.586
161272.45
161280.68
51111.112
30565.876
23128.479
4047.4485
4047.8134
23129.196
30566.034
51108.29
161266.19
161276.05
51110.886
30565.809
23128.069
4048.3886
4049.8733
23128.064
30566.565
51111.129
161274.5
161322.64
51123.753
30569.763
23126.906
4052.9479
4059.4704
23129.718
30580.447
51147.991
161403.71
161598.31
51210.032
30607.786
23140.618
4071.4042
4092.5948
23187.037
30681.695
51344.376
161955.71
162730.92
51639.472
30854.271
23313.284
4124.1373
4168.9277
23592.951
31201.282
52187.615
164134.62
166375.09
53013.41
31730.516
24036.574
4220.5604
3831.6445
24151.573
31496.482
52253.324
163648.99
161145.66
51426.511
31026.955
23769.816
3804.2633
3763.8748
23507.111
30699.404
50907.292
159885.86
159238.75
50639.975
30536.95
23386.292
3736.0979
3718.3772
23340.677
30464.849
50507.081
158888.46
158724.99
50450.423
30435.945
23326.282
3708.4314
3703.2011
23322.731
30424.11
50420.835
158625.07
158599.67
50412.086
30419.447
23321.345
3700.6155
3699.4464
23321.389
30417.71
50405.045
158571.88
158591.45
50409.01
30418.551
23321.984
3698.921
3698.7017
23322.411
30418.615
50406.815
158583.05
158599.64
50409.856
30418.504
23321.831
3698.5366
3698.5046
23321.838
30418.117
50407.1
158589.34
158603.6
50409.755
30417.841
23321.19
3698.5097
3698.6628
23321.701
30417.988
50407.751
158595.07
158609.17
50411.084
30418.372
23321.64
3698.8693
3699.2672
23323.597
30420.325
50411.6
158606.01
158631.05
50418.872
30423.375
23325.68
3699.7366
3700.3736
23329.723
30427.982
50423.339
158638.55
158675.55
50434.825
30433.853
23334.013
3701.0461
3701.8229
23340.119
30441.211
50443.263
158692.81
158748.78
50460.588
30450.742
23347.247
3702.5915
3703.3569
23354.828
30460.132
50472.249
158775.83
158836.41
50491.178
30470.614
23362.542
3704.0218
3704.5911
23369.856
30479.795
50502.471
158861.96
158920.85
50520.208
30489.248
23376.62
3704.9524
3705.1154
23381.674
30495.697
50527.784
158938.11
158977.57
50539.513
30501.037
23385.095
3705.0121
3704.7271
23386.633
30503.027
50540.135
158970.63
158993.47
50543.814
30502.973
23385.835
3704.0286
3702.8425
23381.505
30497.193
50533.85
158977.79
158951.19
50517.493
30484.225
23370.611
3701.1477
3699.4354
23353.049
30461.503
50481.689
158865.95
4076.5557
23189.959
30712.291
51427.57
162247.08
162363.34
51470.049
30737.232
23208.6
4078.2566
4079.8766
23221.391
30753.707
51494.717
162426.35
162457.62
51508.457
30761.505
23226.705
4080.8288
4081.613
23231.107
30765.469
51509.651
162447.73
162434.05
51507.609
30764.208
23230.289
4081.9731
4082.2721
23229.175
30761.059
51497.904
162392.96
162363.41
51488.334
30753.885
23223.4
4082.0205
4081.6858
23218.346
30745.92
51472.482
162312.39
162276.01
51458.965
30735.574
23209.907
4080.9238
4080.2395
23204.037
30726.881
51442.976
162229.16
162194.31
51429.601
30716.414
23195.286
4079.2423
4078.3903
23189.317
30707.787
51413.777
162148.15
162119.25
51402.292
30698.613
23181.54
4077.4034
4076.6822
23177.069
30691.999
51389.402
162080.18
162060.94
51381.708
30685.402
23171.275
4075.8545
4075.3232
23168.556
30681.087
51372.171
162030.26
162025.32
51369.15
30677.483
23165.071
4074.7536
4074.527
23164.737
30676.239
51364.309
162008.01
162012.32
51364.946
30675.116
23163.201
4074.2611
4074.2949
23164.17
30675.438
51362.183
161999.31
162005.67
51363.968
30675.183
23163.366
4074.246
4074.4738
23164.473
30675.62
51361.21
161991.32
161997.72
51363.032
30675.267
23163.509
4074.6754
4075.4453
23164.985
30676.695
51362.736
161993.09
162011.59
51367.872
30677.245
23163.54
4076.8961
4080.2863
23163.96
30680.568
51374.668
162034.02
162119.57
51399.06
30688.581
23163.827
4086.9753
4099.6888
23173.22
30711.618
51447.602
162264.54
162576.99
51566.253
30774.203
23210.505
4122.0256
4155.8221
23323.612
30927.924
51822.215
163181.5
164297.33
52359.184
31280.699
23609.858
4211.6604
4225.948
24013.011
31771.443
53216.611
167105.22
167486.11
53254.577
31760.237
23990.996
4220.2357
4206.8791
23623.647
31301.515
52398.054
164544.48
163281.18
51865.161
30957.173
23346.652
4157.9212
4123.3153
23229.024
30797.444
51599.83
162659.66
162353.98
51479.039
30729.807
23186.646
4100.8556
4088.2986
23178.186
30706.694
51425.339
162190.84
162123.78
51404.51
30697.429
23176.218
4081.4945
4078.2731
23177.99
30695.606
51394.488
162084.77
162088.39
51394.414
30694.729
23178.044
4076.7348
4076.0996
23179.128
30695.156
51392.218
162080.27
162089.54
51393.301
30693.915
23177.771
4075.7191
4075.5728
23178.07
30693.835
51390.827
162080.31
162089.43
51391.895
30692.492
23176.576
4075.4562
4075.5255
23176.964
30692.527
51389.625
162079.88
162092.9
51392.282
30692.233
23176.362
4075.6508
4076.0066
23177.964
30693.742
51392.173
162088.66
162108.64
51397.823
30695.58
23179.083
4076.4692
4077.1843
23183.163
30700.227
51402.429
162117.45
162150.16
51412.926
30705.343
23186.789
4077.9651
4078.9669
23193.809
30713.904
51423.422
162174.44
162227.02
51440.695
30723.345
23200.72
4079.9899
4081.0786
23209.925
30734.81
51455.703
162265.65
162320.43
51473.813
30744.951
23217.288
4081.967
4082.82
23226.592
30756.634
51489.031
162360.34
162413.79
51506.102
30765.964
23233.211
4083.4304
4083.9508
23240.734
30775.426
51517.904
162444.14
162490.04
51531.2
30781.935
23245.057
4084.1374
4084.1152
23249.207
30787.274
51537.598
162508.89
162543.32
51545.886
30789.7
23249.967
4083.7917
4083.2716
23250.756
30790.688
51545.626
162541.1
162560.26
51548.031
30789.191
23248.747
4082.34
4080.9295
23242.911
30782.13
51538.373
162557.41
162451.92
51493.788
30752.521
23219.36
4078.1799
176.25327
186.36525
176.2762
186.35161
219.14327
197.23077
180.77092
183.53273
198.8402
197.3251
245.19081
241.40832
198.79984
219.29366
258.55735
263.18586
262.00198
313.85964
316.21519
356.12993
285.44139
283.28231
357.12537
381.71813
296.76476
234.12447
234.24257
293.4189
280.11432
281.04926
258.66734
311.07351
309.99298
353.67531
351.74951
376.21558
294.18691
301.5212
300.45618
306.04262
299.14481
380.7372
390.53449
391.54196
303.54031
309.01823
306.39504
299.62783
383.30113
382.97907
392.6942
392.95406
394.57651
385.93777
316.00283
311.60998
311.49869
239.00485
184.627
171.00175
197.49688
222.47091
4207.3648
23967.305
31623.886
52802.156
165668.81
163864.52
52099.8
31150.565
23558.206
4160.9142
4122.1302
23293.639
30824.518
51583.838
162516.25
161828.44
51307.443
30657.66
23169.624
4091.777
4071.0504
23124.307
30584.884
51171.079
161465.25
161314.21
51119.038
30560.245
23114.488
4059.2846
4052.9419
23113.864
30551.547
51092.915
161220.61
161218.63
51091.312
30551.565
23116.584
4049.9096
4048.5024
23118.157
30551.772
51087.452
161202.16
161222.52
51091.54
30552.717
23118.918
4047.8838
4047.5973
23119.349
30552.971
51089.695
161214.19
161237.32
51094.35
30553.823
23119.655
4047.4883
4047.4504
23119.488
30553.42
51091.397
161223.84
161248.54
51096.728
30554.713
23120.205
4047.5546
4047.7545
23120.549
30554.907
51094.574
161235.86
161266.79
51102.346
30557.847
23122.629
4048.1391
4048.6324
23124.618
30560.06
51103.279
161263.22
161297.95
51113.217
30564.684
23128.021
4049.294
4050.0811
23132.302
30569.886
51118.439
161304.4
161358.16
51134.699
30578.52
23138.771
4051.0151
4051.965
23145.421
30586.836
51144.89
161380.78
161439.01
51163.089
30596.878
23152.87
4052.9099
4053.7744
23160.514
30606.565
51175.312
161468.68
161523.85
51192.479
30616.093
23167.453
4054.4966
4055.0741
23173.926
30624.287
51201.936
161544.38
161591.13
51215.982
30631.783
23179.228
4055.4544
4055.5918
23183.19
30636.835
51220.544
161596.4
161635.54
51231.172
30641.665
23186.368
4055.5049
4055.0971
23187.213
30642.682
51230.159
161626.89
161647.68
51234.06
30642.638
23186.429
4054.3611
4053.1892
23183.614
30639.132
51227.826
161634.04
161634.01
51218.723
30630.103
23175.576
4051.4192
4049.0911
23157.434
30606.933
51184.373
161564.4
161455.86
51148.774
30584.081
23139.625
4046.6631
4048.7363
23159.842
30610.105
51188.91
161555.68
161589.2
51207.089
30621.692
23168.649
4050.014
4050.97
23174.352
30627.706
51212.226
161591.98
161611.4
51218.033
30630.201
23175.943
4051.4303
4051.9167
23177.925
30631.353
51216.239
161600.83
161591.53
51213.467
30628.363
23175.3
4052.0294
4052.039
23172.379
30623.198
51201.983
161551.41
161521.47
51191.3
30614.924
23165.676
4051.5939
4051.2176
23159.875
30606.201
51174.753
161469.66
161429
51160.718
30595.795
23151.442
4050.5324
4049.9341
23144.619
30585.928
51142.414
161369.77
161334.15
51128.977
30575.623
23136.109
4049.0344
4048.2846
23130.304
30567.305
51113.728
161289.98
161269.45
51104.657
30559.687
23123.747
4047.424
4046.9134
23121.219
30555.619
51096.033
161244.15
161236.12
51092.402
30551.663
23117.41
4046.4088
4046.0824
23115.256
30548.033
51083.568
161204.47
161198.16
51080.61
30544.8
23112.264
4045.682
4045.5753
23111.743
30543.242
51075.102
161177.71
161178.13
51074.806
30541.712
23110.001
4045.3804
4045.5803
23110.845
30541.914
51072.063
161165.43
161169.72
51073.51
30541.445
23109.791
4045.7357
4046.4166
23110.219
30541.638
51071.126
161156.8
161178.67
51077.145
30542.754
23109.229
4047.7925
4051.1048
23110.464
30547.441
51086.499
161208.77
161311
51116.785
30558.89
23112.65
4057.6052
4069.9219
23126.423
30588.345
51176.493
161488.6
161866.89
51317.838
30663.768
23172.783
4091.2946
4124.0279
23301.071
30837.371
51606.806
162595.65
164029.11
52138.472
31167.316
23563.991
4166.0494
4224.1812
24003
31694.716
52928.056
165978.6
169186.23
54302.741
32514.061
24662.648
4310.3271
4222.6039
23867.734
31843.558
53921.215
173481.47
166254.71
52971.149
31635.502
23909.849
4202.0453
4202.5516
23551.388
31198.326
52221.325
163876.82
162917.19
51730.151
30868.515
23280.469
4151.086
4119.9247
23176.541
30726.823
51489.694
162337.9
162084.85
51386.818
30670.324
23142.468
4098.3812
4086.3294
23138.496
30653.439
51342.511
161943.66
161911.12
51332.633
30651.201
23141.957
4079.8912
4076.7712
23146.261
30652.896
51328.206
161889.67
161909.3
51332.99
30655.21
23148.754
4075.3044
4074.7695
23151.287
30657.608
51333.809
161909.47
161926.56
51337.659
30658.293
23151.42
4074.5516
4074.5329
23152.703
30659.736
51337.508
161922.13
161949.28
51343.767
30661.613
23153.786
4074.6089
4074.8119
23154.934
30662.785
51343.068
161942.59
161968.69
51349.673
30665.057
23156.404
4075.1294
4075.6191
23158.759
30667.745
51351.178
161967.04
162002.16
51361.094
30672.23
23161.999
4076.2245
4076.9814
23166.202
30677.25
51366.022
162009.44
162054.5
51379.867
30684.416
23171.485
4077.847
4078.8205
23178.196
30692.805
51389.951
162075.67
162138.42
51409.469
30703.459
23186.054
4079.8174
4080.7778
23194.148
30713.75
51422.565
162169.48
162233.58
51442.392
30724.652
23202.097
4081.6112
4082.3172
23209.601
30734.209
51454.08
162260.69
162316.66
51471.197
30743.41
23216.183
4082.8025
4083.0777
23221.824
30750.563
51479.334
162335.19
162374.73
51490.474
30755.648
23225.04
4083.0318
4082.7313
23227.317
30758.67
51492.761
162376.32
162408.57
51500.122
30760.571
23227.965
4082.085
4081.052
23226.447
30758.862
51496.357
162397.19
162414.26
51495.157
30754.04
23221.541
4079.4743
4077.3365
23210.983
30740.078
51474.876
162397.88
162262.3
51400.045
30699.172
23180.647
4074.4153
161423.07
51136.985
30576.093
23133.476
4045.5458
4047.5164
23154.168
30602.892
51178.937
161531.61
161569.81
51198.135
30615.196
23163.58
4048.8108
4049.8836
23169.9
30621.96
51204.232
161575.32
161592.71
51210.998
30625.242
23172.086
4050.6393
4051.2722
23173.93
30626.411
51209.407
161580.34
161576.28
51207.831
30624.025
23171.731
4051.5399
4051.5935
23168.208
30618.288
51195.512
161533.01
161508.22
51186.208
30610.805
23162.128
4051.2943
4050.8563
23155.859
30601.709
51169.218
161452.58
161421.99
51156.724
30592.079
23148.137
4050.1126
4049.3652
23140.946
30581.803
51137.732
161362.32
161332.29
51125.59
30572.503
23133.417
4048.5004
4047.8226
23128.364
30565.154
51111.617
161288.02
161269.37
51103.829
30558.429
23122.546
4047.1171
4046.6165
23119.588
30553.924
51094.517
161240.9
161231.28
51090.236
30549.69
23115.751
4046.0972
4045.7108
23112.756
30545.044
51079.747
161193.93
161187.21
51076.422
30541.614
23109.716
4045.3004
4045.1044
23108.283
30538.967
51069.177
161160.46
161163.95
51069.494
30537.806
23106.907
4044.9693
4045.1431
23107.089
30537.275
51065.581
161146.43
161154.02
51067.634
30537.183
23106.429
4045.3141
4045.9712
23106.626
30537.222
51065.059
161140
161165.22
51072.115
30539.112
23106.324
4047.3907
4050.7689
23107.632
30543.992
51081.724
161194.65
161297.3
51112.376
30555.871
23110.292
4057.3226
4069.6138
23123.985
30585.26
51171.848
161472.22
161854.84
51312.98
30660.475
23170.292
4090.7885
4122.9869
23298.128
30833.497
51601.363
162590.05
164031.6
52128.95
31159.291
23557.439
4164.0182
4221.1578
23991.607
31681.232
52912.33
165951.34
169570.9
54248.188
32442.941
24597.108
4288.136
3946.3139
24767.673
32229.708
53263.374
164150.31
169600.47
53700.685
32104.406
24314.613
4277.8244
4219.4389
24297.132
32108.552
53881.992
171227.99
165954.74
52878.019
31655.167
23985.639
4205.6722
4162.5941
23572.76
31170.609
52133.801
163970.6
162629.02
51611.767
30838.75
23303.572
4122.2217
4091.7627
23177.796
30668.315
51322.314
161879.14
161533.76
51190.115
30595.109
23131.661
4071.043
4059.3174
23121.292
30568.969
51130.183
161345.9
161278.42
51109.318
30560.146
23120.044
4052.9763
4049.9529
23121.997
30558.398
51099.36
161239.48
161243.9
51099.617
30557.912
23122.419
4048.5021
4047.9207
23123.698
30558.678
51098.049
161236.68
161255.05
51101.672
30559
23123.578
4047.6195
4047.5313
23124.296
30559.636
51100.644
161249.7
161270.21
51105.023
30560.293
23124.362
4047.4916
4047.5896
23125.116
30560.91
51104.029
161265.46
161279.86
51107.087
30560.987
23124.817
4047.7157
4048.083
23126.325
30562.477
51107.077
161275.71
161298.3
51113.42
30564.862
23127.937
4048.558
4049.2568
23131.669
30569.154
51117.586
161305.62
161338.24
51127.985
30574.368
23135.461
4050.0488
4051.0462
23141.883
30582.246
51137.403
161358.47
161413.48
51154.998
30591.997
23149.14
4052.0722
4053.1318
23157.751
30602.778
51168.921
161448.12
161508.01
51188.264
30613.723
23165.764
4054.0657
4054.912
23174.622
30624.89
51202.624
161544.97
161597.18
51219.323
30634.193
23181.228
4055.4972
4055.9345
23187.981
30642.625
51229.43
161623
161656.02
51239.365
30647.419
23190.989
4056.0503
4055.9846
23194.023
30651.165
51242.411
161659.91
161685.98
51248.817
30653.028
23194.747
4055.6065
4054.9832
23194.683
30652.855
51246.904
161678.43
161697.24
51248.591
30650.505
23191.753
4053.9405
4052.3895
23185.624
30643.101
51239.015
161696.66
161617.95
51200.989
30616.316
23163.882
4049.8746
3701.8556
23368.487
30482.472
50516.411
158976.95
159051.87
50552.969
30507.521
23388.491
3703.8237
3705.0845
23396.879
30516.847
50561.801
159049.32
159052.09
50565.733
30519.267
23398.573
3705.8253
3706.3927
23400.025
30519.579
50561.778
159031.85
159027.59
50560.047
30517.058
23397.584
3706.6068
3706.7339
23395.877
30513.573
50551.642
158999.64
158982.36
50544.605
30507.035
23390.228
3706.5059
3706.2725
23385.468
30499.798
50531.185
158941.44
158907.09
50518.405
30489.521
23376.945
3705.6621
3704.9691
23369.156
30478.461
50498.92
158847.64
158807.9
50483.599
30466.527
23359.274
3704.0321
3703.1313
23351.611
30455.871
50464.968
158752.61
158721.48
50452.453
30445.814
23343.093
3702.1222
3701.3289
23338.091
30438.707
50439.423
158683.82
158669.29
50432.782
30432.551
23332.526
3700.5329
3699.978
23331.188
30430.049
50426.677
158651.53
158650.41
50425.403
30427.55
23328.38
3699.5369
3699.313
23328.918
30427.395
50422.462
158639.19
158641.01
50422.972
30426.35
23327.417
3699.1515
3699.145
23327.574
30425.602
50418.511
158622.06
158621.85
50418.336
30424.231
23326.005
3699.0787
3699.227
23326.479
30423.864
50414.633
158605.78
158609.05
50415.637
30423.03
23325.173
3699.4164
3700.0259
23326.511
30424.215
50415.158
158604.08
158619.75
50420.002
30424.805
23325.233
3701.2283
3703.8678
23326.257
30428.52
50427.063
158641.04
158729.3
50453.683
30438.573
23328.2
3709.106
3719.0544
23342.575
30467.011
50509.595
158891.53
159237.02
50642.039
30539.021
23388.029
3736.6482
3763.5093
23508.185
30699.656
50905.325
159875.23
161101.31
51410.998
31020.328
23765.963
3801.9516
3822.9473
24123.487
31458.969
52194.923
163518.8
3965.8759
24959.712
32428.229
53324.765
161986.27
163058.82
51951.336
31325.577
24029.235
3815.6101
3789.1625
23715.456
30957.202
51330.174
161071.2
159767.99
50860.245
30668.582
23485.057
3761.383
3735.4287
23369.4
30513.242
50600.185
159108.08
158793.95
50476.956
30444.307
23325.153
3718.2621
3708.5763
23313.889
30418.575
50420.254
158623.78
158558.46
50398.951
30408.764
23310.997
3703.3492
3700.8949
23312.701
30407.191
50389.897
158524.2
158537.57
50392.58
30408.104
23314.02
3699.7414
3699.2798
23315.94
30409.733
50392.393
158535.49
158558.08
50397.522
30411.12
23316.577
3699.0504
3699.028
23318.057
30412.585
50397.779
158558.62
158572.75
50400.752
30412.651
23317.593
3699.005
3699.1536
23318.885
30413.817
50400.489
158570.94
158584.78
50403.752
30414.164
23318.719
3699.3154
3699.699
23320.944
30416.497
50404.984
158584.09
158612.22
50413.106
30419.977
23323.316
3700.1572
3700.7712
23327.521
30424.787
50418.102
158622.64
158655.63
50428.693
30430.109
23331.314
3701.4107
3702.2083
23337.678
30437.734
50438.016
158678.7
158722.53
50452.113
30445.289
23343.138
3702.9596
3703.743
23350.527
30454.37
50463.465
158750.07
158803.85
50480.421
30463.721
23357.352
3704.4127
3705.0176
23364.655
30472.717
50491.432
158831.23
158876.19
50505.649
30480.456
23370.148
3705.431
3705.7134
23375.902
30487.554
50513.564
158893.84
158933.19
50525.048
30493.198
23379.672
3705.7548
3705.6402
23382.623
30496.736
50527.922
158937.61
158960.75
50533.686
30498.328
23383.146
3705.238
3704.6437
23383.177
30498.246
50531.805
158952.75
158971.59
50533.613
30496.167
23380.463
3703.6615
3702.2559
23374.178
30488.595
50523.429
158968.55
158884.36
50484.943
30461.67
23352.215
3700.1213
162281.2
51435.259