/*--------------------------------*- C++ -*----------------------------------*\
  =========                 |
  \\      /  F ield         | OpenFOAM: The Open Source CFD Toolbox
   \\    /   O peration     | Website:  https://openfoam.org
    \\  /    A nd           | Version:  7
     \\/     M anipulation  |
\*---------------------------------------------------------------------------*/
FoamFile
{
    version     2.0;
    format      ascii;
    class       volScalarField;
    location    "20";
    object      p;
}
// * * * * * * * * * * * * * * * * * * * * * * * * * * * * * * * * * * * * * //

dimensions      [1 -1 -2 0 0 0 0];

internalField   nonuniform List<scalar> 
25201
(
101312.11
101310.57
101312.11
101310.6
101307.71
101308.85
101310.16
101310.7
101309.49
101308.39
101309.49
101308.82
101307.79
101309.03
101310.85
101307.05
101305.05
101306.95
101302.5
101307.73
101304.98
101307.58
101305.86
101309.31
101306.79
101308.44
101308.08
101305.05
101304.92
101307.98
101307.63
101305.81
101313.93
101312.29
101310.13
101311.14
101307.79
101309.51
101312.9
101314.2
101309.45
101310.36
101309.01
101315.09
101315.12
101316.72
101310.59
101306.44
101307.38
101307.86
101308.71
101308.35
101308.12
101308.06
101307.65
101307.73
101306.35
101306.06
101308.05
101309.09
101306.78
101308.08
101308.82
101308.91
101307.92
101307.49
101307.5
101308
101308.95
101309.51
101310.08
101308.19
101306.17
101308.25
101308.81
101310.82
101309.14
101309.32
101309.74
101308.22
101308
101305.75
101309.77
101309.93
101311.71
101308.55
101310.93
101309.26
101308.44
101310.42
101309.51
101313.33
101313.75
101313.74
101314.06
101308.3
101306.06
101313
101322.55
101315.56
101315.95
101321.86
101320.77
101316.03
101314.64
101319.63
101324.1
101316.93
101316.72
101315.75
101319.63
101319.24
101329.2
101330.66
101340.65
101328.57
101328.09
101338.26
101335.19
101327.06
101319.36
101327.01
101324.28
101331.83
101339.85
101329.22
101321.73
101316.68
101310.34
101312.56
101313.85
101314.81
101316.86
101315.9
101314.59
101312.72
101310.85
101309.67
101308.02
101306.26
101307.7
101308.81
101309.12
101306.71
101305.95
101308.04
101308.09
101307.64
101308.7
101307.48
101307.92
101308.91
101308.99
101308.04
101307.53
101307.36
101308.36
101307.27
101306
101308.23
101310.18
101308.12
101308.53
101307.88
101305.58
101308.03
101309.61
101309.34
101314.52
101312.46
101311.74
101309.92
101310.78
101309.31
101309.4
101310.26
101310.78
101311.12
101316
101314.59
101316.93
101313.29
101315.23
101321.18
101318.29
101325.09
101319.25
101322.95
101328.23
101335.27
101327.09
101319.67
101315.96
101311.05
101313.32
101309.42
101308.15
101335.05
101326.87
101319.13
101315.82
101314.61
101319.56
101313.66
101313.51
101320.57
101326.87
101324.03
101316.85
101324.25
101331.78
101339.85
101329.2
101332.38
101334.3
101322.63
101310.61
101312.13
101307.89
101305.14
101304.95
101309.06
101312.59
101307.88
101308.15
101309.53
101310.39
101315.16
101315.16
101314.13
101314.32
101313.08
101309.65
101307.95
101306.11
101310.49
101311.36
101309.49
101307.76
101305.18
101422.98
101420.91
101417.22
101415.15
101453.79
101520.41
101513.56
101512.77
101511.76
101510.67
101462.84
101462.87
101462.86
101462.99
101465.14
101448.16
101446.42
101446.24
101446.12
101446.07
101421.08
101421.11
101421.15
101421.27
101423.15
101405.59
101404.03
101403.93
101403.88
101403.84
101387.93
101387.96
101387.99
101388.07
101389.49
101376.42
101375.24
101375.18
101375.15
101375.13
101364.08
101364.1
101364.12
101364.18
101365.17
101355.74
101354.89
101354.85
101354.83
101354.81
101346.89
101346.9
101346.91
101346.95
101347.66
101340.76
101340.15
101340.12
101340.11
101340.1
101334.29
101334.3
101334.31
101334.33
101334.84
101329.74
101329.3
101329.28
101329.27
101329.26
101324.9
101324.91
101324.92
101324.94
101325.32
101321.45
101321.12
101321.1
101321.1
101321.09
101317.74
101317.75
101317.75
101317.77
101318.04
101315.01
101314.78
101314.77
101314.76
101314.76
101312.07
101312.08
101312.08
101312.09
101312.28
101309.79
101309.61
101309.6
101309.6
101309.6
101307.3
101307.3
101307.31
101307.32
101307.5
101305.39
101305.22
101305.21
101305.2
101305.19
101303.25
101303.25
101303.26
101303.28
101303.41
101301.45
101301.31
101301.3
101301.29
101301.28
101299.41
101299.42
101299.43
101299.45
101299.57
101297.74
101297.67
101297.66
101297.64
101297.63
101295.91
101295.92
101295.94
101295.96
101295.92
101294
101294.09
101294.08
101294.07
101294.06
101291.73
101291.74
101291.73
101291.73
101291.86
101290.08
101289.71
101289.71
101289.72
101289.72
101288.67
101288.66
101288.65
101288.63
101288.61
101285.91
101285.58
101285.59
101285.62
101285.63
101286.2
101286.24
101286.27
101286.3
101286.33
101289.87
101289.86
101289.9
101289.91
101289.13
101290.49
101290.9
101290.85
101290.79
101290.75
101291.64
101291.67
101291.7
101291.73
101291.82
101293.77
101293.56
101293.57
101293.58
101293.57
101295.38
101295.38
101295.37
101295.37
101295.7
101297.56
101297.15
101297.14
101297.15
101297.14
101298.95
101298.95
101298.95
101298.95
101299.39
101301.31
101300.91
101300.91
101300.92
101300.92
101303.02
101303.02
101303.02
101303.02
101303.31
101305.33
101305.08
101305.07
101305.07
101305.07
101307.15
101307.16
101307.16
101307.17
101307.43
101309.71
101309.42
101309.41
101309.41
101309.4
101311.85
101311.86
101311.86
101311.87
101312.19
101314.91
101314.58
101314.56
101314.56
101314.56
101317.54
101317.55
101317.55
101317.56
101317.93
101321.32
101320.89
101320.88
101320.87
101320.87
101324.63
101324.64
101324.65
101324.67
101325.16
101329.54
101328.96
101328.94
101328.93
101328.92
101333.87
101333.88
101333.89
101333.92
101334.6
101340.46
101339.63
101339.6
101339.59
101339.58
101346.27
101346.28
101346.29
101346.33
101347.3
101355.27
101354.09
101354.05
101354.04
101354.02
101363.05
101363.07
101363.09
101363.14
101364.55
101375.59
101373.89
101373.82
101373.8
101373.77
101386.2
101386.23
101386.26
101386.34
101388.39
101404
101401.58
101401.48
101401.44
101401.41
101418.02
101418.05
101418.08
101418.19
101421.04
101444.43
101441.08
101440.93
101440.88
101440.84
101461.43
101461.41
101461.42
101461.54
101463.57
101510.3
101493.94
101494.05
101494.59
101494.59
101492.59
101492.55
101490.97
101489.32
101487.62
101565.57
101487.59
101464.51
101439.1
101415.34
101544.03
101543.77
101542.36
101540.83
101537.14
101538.46
101523.06
101523.25
101523.99
101524.21
101482.75
101482.64
101482.64
101482.76
101484.37
101458.77
101456.29
101456.19
101456.17
101456.18
101428.78
101428.77
101428.78
101428.85
101430.88
101410.89
101409.09
101409.02
101409
101408.99
101391.71
101391.72
101391.74
101391.79
101393.38
101379.3
101377.95
101377.91
101377.9
101377.88
101366.14
101366.15
101366.16
101366.2
101367.34
101357.4
101356.42
101356.39
101356.38
101356.37
101348.04
101348.05
101348.06
101348.09
101348.92
101341.7
101341
101340.97
101340.97
101340.96
101334.93
101334.94
101334.94
101334.96
101335.56
101330.3
101329.8
101329.78
101329.77
101329.77
101325.3
101325.31
101325.31
101325.33
101325.76
101321.8
101321.44
101321.42
101321.42
101321.41
101318
101318
101318.01
101318.02
101318.33
101315.24
101314.98
101314.97
101314.97
101314.97
101312.24
101312.24
101312.24
101312.25
101312.48
101309.97
101309.75
101309.75
101309.74
101309.74
101307.45
101307.45
101307.45
101307.46
101307.68
101305.56
101305.31
101305.31
101305.31
101305.31
101303.18
101303.18
101303.17
101303.17
101303.49
101301.45
101301.01
101301.01
101301.01
101301.01
101298.98
101298.98
101298.98
101298.99
101299.49
101297.61
101297.13
101297.12
101297.13
101297.12
101295.33
101295.33
101295.33
101295.33
101295.7
101293.69
101293.52
101293.53
101293.54
101293.54
101291.56
101291.59
101291.62
101291.64
101291.75
101290.35
101290.66
101290.62
101290.58
101290.54
101289.73
101289.73
101289.75
101289.77
101289.07
101286.65
101287.15
101287.16
101287.17
101287.19
101283.2
101283.19
101283.18
101283.18
101283.58
101283.29
101283.28
101283.27
101283.27
101283.56
101286.62
101286.91
101286.91
101286.9
101286.9
101288.5
101288.51
101288.53
101288.54
101288.58
101290.19
101290.08
101290.07
101290.07
101290.05
101291.67
101291.68
101291.7
101291.71
101291.8
101293.88
101293.9
101293.9
101293.89
101293.89
101295.76
101295.76
101295.76
101295.77
101295.84
101297.68
101297.47
101297.46
101297.45
101297.45
101299.29
101299.29
101299.3
101299.31
101299.54
101301.49
101301.27
101301.26
101301.26
101301.26
101303.27
101303.27
101303.27
101303.28
101303.48
101305.52
101305.33
101305.32
101305.32
101305.32
101307.43
101307.44
101307.44
101307.45
101307.64
101309.94
101309.75
101309.74
101309.74
101309.74
101312.24
101312.25
101312.25
101312.26
101312.46
101315.22
101314.99
101314.98
101314.98
101314.97
101318.01
101318.02
101318.02
101318.03
101318.31
101321.79
101321.47
101321.45
101321.45
101321.44
101325.33
101325.34
101325.34
101325.36
101325.74
101330.29
101329.84
101329.82
101329.81
101329.81
101335
101335.01
101335.01
101335.04
101335.56
101341.74
101341.11
101341.08
101341.07
101341.06
101348.18
101348.19
101348.2
101348.24
101348.98
101357.48
101356.61
101356.57
101356.56
101356.55
101366.39
101366.4
101366.41
101366.46
101367.49
101379.55
101378.33
101378.28
101378.27
101378.25
101392.27
101392.29
101392.31
101392.37
101393.8
101411.64
101410.03
101409.96
101409.94
101409.92
101430.53
101430.52
101430.52
101430.58
101432.42
101461.96
101460.36
101460.34
101460.36
101460.42
101492.39
101491.95
101491.54
101491.24
101491.8
101563.94
101571.32
101571.89
101572.42
101573.43
101653.7
101653.43
101654.33
101654.56
101628.92
101475.16
101435.38
101438.89
101444.26
101449.16
101540.37
101541.76
101543.57
101545.14
101547.54
101470.4
101465.26
101465.28
101465.49
101465.61
101451
101451.07
101451.17
101451.34
101453.32
101426.28
101424.2
101424.1
101424.08
101424.05
101406.14
101406.18
101406.22
101406.31
101407.9
101391.17
101389.75
101389.68
101389.65
101389.62
101376.41
101376.44
101376.47
101376.53
101377.69
101366.14
101365.15
101365.1
101365.08
101365.06
101355.58
101355.6
101355.62
101355.66
101356.49
101348.24
101347.53
101347.5
101347.48
101347.47
101340.55
101340.56
101340.57
101340.6
101341.2
101335.18
101334.66
101334.63
101334.62
101334.61
101329.54
101329.54
101329.55
101329.57
101330.01
101325.53
101325.15
101325.13
101325.12
101325.12
101321.27
101321.28
101321.28
101321.3
101321.62
101318.19
101317.91
101317.89
101317.89
101317.88
101314.88
101314.89
101314.89
101314.9
101315.14
101312.4
101312.19
101312.18
101312.18
101312.17
101309.71
101309.71
101309.72
101309.73
101309.91
101307.61
101307.44
101307.43
101307.43
101307.43
101305.3
101305.31
101305.31
101305.32
101305.46
101303.44
101303.32
101303.31
101303.3
101303.3
101301.38
101301.38
101301.39
101301.4
101301.5
101299.59
101299.49
101299.48
101299.47
101299.47
101297.58
101297.59
101297.59
101297.61
101297.7
101295.84
101295.74
101295.73
101295.72
101295.71
101293.87
101293.88
101293.88
101293.9
101293.99
101292.06
101291.93
101291.92
101291.91
101291.91
101289.93
101289.94
101289.94
101289.94
101290.14
101288.27
101288.15
101288.14
101288.13
101288.12
101286.25
101286.26
101286.27
101286.28
101286.22
101283.49
101283.18
101283.18
101283.19
101283.2
101283.34
101283.32
101283.31
101283.31
101283.57
101286.65
101286.97
101286.97
101286.96
101286.97
101288.56
101288.57
101288.59
101288.61
101288.63
101290.19
101290.06
101290.06
101290.05
101290.03
101291.62
101291.64
101291.65
101291.66
101291.79
101293.85
101293.85
101293.84
101293.84
101293.83
101295.68
101295.68
101295.69
101295.7
101295.8
101297.63
101297.4
101297.39
101297.38
101297.38
101299.19
101299.2
101299.2
101299.21
101299.48
101301.44
101301.2
101301.19
101301.19
101301.19
101303.22
101303.22
101303.22
101303.23
101303.44
101305.5
101305.3
101305.29
101305.29
101305.29
101307.41
101307.41
101307.41
101307.42
101307.62
101309.92
101309.74
101309.73
101309.72
101309.72
101312.23
101312.23
101312.23
101312.24
101312.44
101315.2
101314.98
101314.96
101314.96
101314.96
101317.98
101317.99
101317.99
101318.01
101318.28
101321.75
101321.42
101321.4
101321.4
101321.39
101325.29
101325.29
101325.3
101325.31
101325.7
101330.24
101329.79
101329.77
101329.76
101329.75
101334.93
101334.94
101334.95
101334.97
101335.5
101341.66
101341.03
101341
101340.99
101340.98
101348.07
101348.08
101348.09
101348.12
101348.87
101357.35
101356.47
101356.43
101356.42
101356.41
101366.2
101366.22
101366.23
101366.28
101367.31
101379.31
101378.11
101378.05
101378.04
101378.02
101391.97
101391.98
101392
101392.06
101393.49
101411.24
101409.65
101409.58
101409.56
101409.55
101429.93
101429.91
101429.9
101429.95
101431.82
101461.15
101459.44
101459.42
101459.46
101459.53
101489.28
101488.82
101488.32
101487.97
101489.46
101563.34
101568.85
101569.46
101570.1
101571.03
101646.04
101645.28
101645.13
101644.5
101624.36
101537.49
101535.38
101537.83
101540.35
101542.54
101543.72
101544.01
101544.46
101544.9
101548.88
101481
101480.37
101480.44
101480.62
101480.88
101456.18
101456.14
101456.16
101456.23
101457.7
101429.53
101427.69
101427.65
101427.66
101427.68
101408.11
101408.11
101408.13
101408.18
101409.87
101392.55
101390.99
101390.94
101390.93
101390.92
101377.28
101377.3
101377.31
101377.35
101378.67
101366.84
101365.7
101365.66
101365.65
101365.64
101355.99
101356
101356.01
101356.04
101357.01
101348.62
101347.79
101347.76
101347.76
101347.75
101340.74
101340.75
101340.75
101340.78
101341.48
101335.38
101334.78
101334.76
101334.76
101334.75
101329.63
101329.64
101329.64
101329.66
101330.16
101325.64
101325.21
101325.19
101325.19
101325.19
101321.32
101321.32
101321.32
101321.34
101321.71
101318.24
101317.92
101317.91
101317.91
101317.9
101314.88
101314.88
101314.89
101314.9
101315.16
101312.4
101312.16
101312.16
101312.15
101312.15
101309.66
101309.67
101309.67
101309.67
101309.89
101307.6
101307.37
101307.36
101307.36
101307.36
101305.22
101305.22
101305.22
101305.23
101305.49
101303.42
101303.08
101303.08
101303.08
101303.09
101300.93
101300.93
101300.92
101300.93
101301.38
101299.43
101298.9
101298.89
101298.89
101298.89
101297.07
101297.07
101297.07
101297.08
101297.57
101295.71
101295.33
101295.32
101295.33
101295.33
101293.6
101293.6
101293.59
101293.59
101293.76
101291.82
101291.73
101291.71
101291.68
101291.65
101290.67
101290.71
101290.76
101290.8
101290.44
101289.16
101289.87
101289.85
101289.82
101289.83
101287.12
101287.09
101287.08
101287.07
101286.62
101283.49
101283.05
101283.05
101283.07
101283.08
101283.38
101283.02
101283.02
101283.03
101283.04
101286.19
101286.18
101286.18
101286.17
101286.22
101288.61
101288.48
101288.51
101288.52
101288.53
101289.58
101289.58
101289.56
101289.55
101290
101291.85
101291.69
101291.7
101291.71
101291.71
101294.08
101294.08
101294.1
101294.11
101294.02
101295.91
101295.97
101295.94
101295.92
101295.91
101297.66
101297.67
101297.69
101297.71
101297.75
101299.59
101299.52
101299.49
101299.47
101299.46
101301.34
101301.35
101301.36
101301.39
101301.49
101303.44
101303.32
101303.3
101303.29
101303.29
101305.22
101305.23
101305.24
101305.25
101305.43
101307.54
101307.33
101307.33
101307.32
101307.32
101309.65
101309.65
101309.65
101309.66
101309.86
101312.38
101312.17
101312.16
101312.15
101312.15
101314.88
101314.88
101314.88
101314.89
101315.14
101318.19
101317.89
101317.88
101317.88
101317.87
101321.26
101321.26
101321.27
101321.28
101321.63
101325.54
101325.13
101325.12
101325.11
101325.11
101329.52
101329.53
101329.53
101329.55
101330.03
101335.21
101334.65
101334.62
101334.62
101334.61
101340.53
101340.54
101340.55
101340.57
101341.23
101348.27
101347.49
101347.46
101347.45
101347.44
101355.55
101355.56
101355.57
101355.6
101356.54
101366.21
101365.08
101365.04
101365.03
101365.02
101376.4
101376.41
101376.42
101376.47
101377.81
101391.37
101389.71
101389.65
101389.64
101389.63
101406.19
101406.2
101406.22
101406.29
101408.21
101426.84
101424.31
101424.25
101424.26
101424.28
101451.44
101451.44
101451.49
101451.6
101454.18
101473.06
101467.48
101467.61
101467.93
101468.14
101544.08
101545.25
101546.77
101547.94
101549.97
101499.17
101461.06
101465.02
101470.86
101476.19
101447.69
101444.79
101440.77
101438.66
101483.97
101540.04
101533.99
101533.39
101532.58
101531.63
101474.11
101473.97
101473.93
101474.06
101477.9
101457.11
101454.73
101454.59
101454.5
101454.49
101426.9
101426.89
101426.91
101426.99
101429.27
101409.91
101408.1
101408.03
101408.01
101407.99
101390.97
101390.98
101391
101391.06
101392.64
101378.76
101377.47
101377.42
101377.41
101377.4
101365.79
101365.8
101365.82
101365.86
101366.94
101357.09
101356.19
101356.16
101356.15
101356.14
101347.88
101347.89
101347.9
101347.93
101348.7
101341.56
101340.91
101340.88
101340.88
101340.87
101334.88
101334.89
101334.9
101334.92
101335.46
101330.22
101329.75
101329.73
101329.73
101329.72
101325.27
101325.28
101325.28
101325.3
101325.69
101321.75
101321.42
101321.4
101321.4
101321.39
101317.99
101317.99
101317.99
101318.01
101318.29
101315.22
101314.98
101314.97
101314.96
101314.96
101312.23
101312.23
101312.24
101312.25
101312.45
101309.94
101309.75
101309.74
101309.74
101309.73
101307.42
101307.42
101307.43
101307.43
101307.63
101305.51
101305.33
101305.32
101305.31
101305.31
101303.37
101303.37
101303.38
101303.39
101303.51
101301.55
101301.44
101301.42
101301.41
101301.4
101299.5
101299.51
101299.52
101299.54
101299.65
101297.78
101297.68
101297.67
101297.65
101297.64
101295.89
101295.9
101295.92
101295.93
101295.94
101293.98
101294.03
101294.02
101294.01
101294.01
101291.68
101291.69
101291.67
101291.67
101291.85
101290
101289.61
101289.61
101289.62
101289.61
101288.55
101288.53
101288.52
101288.51
101288.56
101286.28
101286.32
101286.32
101286.31
101286.31
101283.19
101283.18
101283.18
101283.18
101283.51
101311.18
101308.84
101311.18
101308.85
101307.51
101308.47
101309.4
101309.42
101308.16
101308.46
101307.3
101305.9
101308.16
101306.71
101304.51
101305.55
101306.67
101307.07
101305.36
101305.05
101305.16
101306.72
101306.66
101306.43
101306.35
101306.97
101306.03
101303.07
101304.07
101302.59
101303.43
101302.06
101304.16
101303.17
101301.16
101299.88
101301.39
101301.32
101302.93
101304.56
101304.61
101304.49
101304.38
101306.47
101306.46
101307.6
101308.65
101308.15
101309.62
101308.21
101308.48
101310.2
101311.06
101309.11
101306.32
101308.87
101308.92
101307.31
101310.6
101312.15
101308.94
101307.9
101556.58
101577.61
101576.32
101574.66
101574.21
101529.88
101529.07
101528.6
101528.16
101522.58
101465.24
101463.83
101464.01
101464.33
101464.65
101441.74
101441.73
101441.75
101441.86
101443.92
101419.65
101417.38
101417.28
101417.26
101417.24
101400.53
101400.57
101400.61
101400.71
101402.57
101387.06
101385.43
101385.34
101385.31
101385.28
101373.04
101373.06
101373.09
101373.15
101374.51
101363.66
101362.52
101362.46
101362.44
101362.42
101353.5
101353.52
101353.53
101353.58
101354.55
101346.7
101345.88
101345.84
101345.82
101345.81
101339.22
101339.23
101339.24
101339.27
101339.97
101334.19
101333.61
101333.58
101333.57
101333.56
101328.68
101328.69
101328.7
101328.72
101329.21
101324.88
101324.47
101324.45
101324.44
101324.44
101320.72
101320.73
101320.74
101320.75
101321.11
101317.77
101317.47
101317.45
101317.45
101317.44
101314.52
101314.53
101314.53
101314.54
101314.8
101312.12
101311.91
101311.9
101311.89
101311.89
101309.49
101309.49
101309.5
101309.51
101309.69
101307.44
101307.29
101307.28
101307.28
101307.27
101305.21
101305.21
101305.22
101305.22
101305.34
101303.36
101303.26
101303.25
101303.25
101303.24
101301.35
101301.36
101301.36
101301.36
101301.45
101299.58
101299.49
101299.49
101299.49
101299.49
101297.64
101297.64
101297.64
101297.65
101297.73
101295.88
101295.77
101295.77
101295.76
101295.76
101293.87
101293.87
101293.87
101293.88
101294
101292.07
101291.91
101291.9
101291.9
101291.89
101289.92
101289.93
101289.94
101289.96
101290.1
101288.18
101288.11
101288.09
101288.07
101288.05
101286.17
101286.18
101286.2
101286.21
101286.12
101283.39
101283.08
101283.08
101283.09
101283.1
101286.02
101285.99
101285.97
101285.95
101286.04
101288.67
101288.89
101288.87
101288.84
101288.84
101290.33
101290.35
101290.38
101290.4
101290.37
101291.87
101291.69
101291.68
101291.66
101291.64
101293.72
101293.72
101293.72
101293.72
101293.84
101295.76
101295.61
101295.61
101295.61
101295.61
101297.37
101297.37
101297.37
101297.37
101297.58
101299.4
101299.16
101299.16
101299.16
101299.15
101301.07
101301.07
101301.07
101301.07
101301.29
101303.21
101303.05
101303.04
101303.05
101303.05
101305.19
101305.19
101305.2
101305.22
101305.29
101307.43
101307.35
101307.33
101307.31
101307.3
101309.44
101309.45
101309.46
101309.47
101309.68
101312.04
101311.73
101311.72
101311.72
101311.71
101314.38
101314.39
101314.39
101314.4
101314.72
101317.72
101317.39
101317.38
101317.37
101317.37
101320.68
101320.69
101320.69
101320.71
101321.07
101324.85
101324.43
101324.41
101324.41
101324.4
101328.62
101328.63
101328.64
101328.66
101329.16
101334.13
101333.54
101333.52
101333.51
101333.5
101339.12
101339.13
101339.14
101339.17
101339.88
101346.59
101345.75
101345.71
101345.7
101345.69
101353.29
101353.31
101353.32
101353.36
101354.37
101363.4
101362.19
101362.14
101362.12
101362.1
101372.57
101372.59
101372.61
101372.68
101374.11
101386.48
101384.73
101384.65
101384.62
101384.6
101399.39
101399.42
101399.45
101399.55
101401.56
101417.86
101415.38
101415.27
101415.26
101415.24
101437.73
101437.71
101437.71
101437.8
101440.22
101460.49
101458.68
101458.87
101459.19
101459.45
101516.33
101515.62
101515.04
101514.51
101511.23
101541.28
101561.03
101560.23
101558.67
101558.01
101451.42
101459.88
101468.34
101476.94
101547.73
102065.78
102221.7
102239.21
102251.7
102261.06
101407.61
101402.8
101397.64
101394.32
101434.31
101520.92
101520.21
101518.77
101516.95
101515.51
101444.58
101444.45
101444.21
101444.16
101449.03
101437.5
101435.52
101435.35
101435.24
101435.17
101411.28
101411.3
101411.33
101411.44
101413.77
101398.42
101396.58
101396.48
101396.44
101396.4
101382.03
101382.06
101382.09
101382.18
101383.74
101371.91
101370.61
101370.54
101370.51
101370.48
101360.42
101360.44
101360.46
101360.51
101361.64
101352.96
101352
101351.96
101351.94
101351.92
101344.57
101344.59
101344.6
101344.64
101345.43
101339
101338.34
101338.3
101338.29
101338.27
101332.83
101332.85
101332.86
101332.89
101333.45
101328.62
101328.14
101328.11
101328.1
101328.09
101323.97
101323.98
101323.98
101324.01
101324.42
101320.74
101320.39
101320.37
101320.37
101320.36
101317.15
101317.16
101317.16
101317.18
101317.47
101314.56
101314.31
101314.29
101314.29
101314.29
101311.7
101311.7
101311.71
101311.72
101311.93
101309.53
101309.34
101309.33
101309.33
101309.32
101307.12
101307.13
101307.13
101307.14
101307.31
101305.23
101305.08
101305.07
101305.07
101305.06
101303.1
101303.11
101303.11
101303.12
101303.26
101301.35
101301.22
101301.21
101301.21
101301.2
101299.35
101299.35
101299.35
101299.36
101299.49
101297.64
101297.5
101297.49
101297.49
101297.49
101295.64
101295.64
101295.65
101295.65
101295.79
101293.91
101293.77
101293.76
101293.75
101293.75
101291.83
101291.83
101291.84
101291.85
101292
101290.08
101289.94
101289.92
101289.91
101289.91
101288.09
101288.1
101288.11
101288.13
101288.18
101285.99
101286.02
101286.01
101286
101285.99
101282.92
101282.91
101282.9
101282.91
101283.26
101285.33
101285.33
101285.32
101285.32
101285.68
101288.26
101288.18
101288.18
101288.17
101288.16
101290.02
101290.02
101290.03
101290.04
101290.19
101292.1
101292.04
101292.04
101292.03
101292.03
101294.12
101294.12
101294.13
101294.14
101294.11
101295.96
101295.98
101295.97
101295.95
101295.95
101297.75
101297.76
101297.77
101297.77
101297.76
101299.6
101299.65
101299.64
101299.63
101299.63
101301.43
101301.43
101301.45
101301.46
101301.45
101302.96
101302.7
101302.68
101302.67
101302.65
101304.61
101304.61
101304.62
101304.62
101304.89
101307.15
101306.86
101306.85
101306.86
101306.86
101309.49
101309.48
101309.48
101309.48
101309.69
101312.05
101311.69
101311.68
101311.67
101311.67
101314.26
101314.27
101314.28
101314.29
101314.65
101317.59
101317.26
101317.24
101317.24
101317.23
101320.53
101320.53
101320.54
101320.56
101320.91
101324.64
101324.23
101324.21
101324.21
101324.2
101328.36
101328.37
101328.37
101328.4
101328.89
101333.79
101333.2
101333.18
101333.17
101333.16
101338.71
101338.72
101338.73
101338.77
101339.46
101346.05
101345.2
101345.16
101345.14
101345.13
101352.59
101352.61
101352.62
101352.67
101353.68
101362.51
101361.3
101361.25
101361.23
101361.21
101371.47
101371.5
101371.53
101371.6
101373
101385.06
101383.36
101383.28
101383.24
101383.21
101397.69
101397.73
101397.78
101397.88
101399.79
101415.58
101413.27
101413.16
101413.13
101413.11
101434.96
101434.94
101434.93
101435.02
101437.24
101457.21
101455.71
101455.92
101456.24
101456.5
101510.45
101509.75
101509.11
101508.45
101505.44
101539.18
101557.68
101556.55
101554.68
101553.85
101443.55
101450.31
101455.71
101461.77
101544.4
101548.73
101439.88
101421.19
101402.01
101380.94
101869.48
101872.96
101879.13
101882.02
101786.65
101923.65
102065.98
102075.03
102079.91
102085.15
101576.06
101576.11
101576.71
101576.78
101558.68
101529.7
101532.83
101533.18
101533.67
101534.37
101466.99
101466.64
101466.24
101465.99
101468.29
101447.18
101444.93
101444.85
101444.86
101444.88
101419.74
101419.73
101419.74
101419.82
101422.11
101404.49
101402.6
101402.51
101402.49
101402.47
101386.77
101386.79
101386.81
101386.88
101388.54
101375.66
101374.29
101374.23
101374.22
101374.2
101363.32
101363.34
101363.35
101363.4
101364.57
101355.26
101354.3
101354.25
101354.24
101354.23
101346.39
101346.4
101346.41
101346.45
101347.27
101340.41
101339.72
101339.7
101339.69
101339.68
101333.9
101333.91
101333.92
101333.94
101334.53
101329.49
101329
101328.98
101328.97
101328.96
101324.66
101324.66
101324.67
101324.69
101325.11
101321.28
101320.93
101320.92
101320.91
101320.91
101317.59
101317.59
101317.6
101317.61
101317.91
101314.91
101314.66
101314.65
101314.64
101314.64
101311.98
101311.98
101311.98
101311.99
101312.21
101309.76
101309.57
101309.56
101309.56
101309.56
101307.32
101307.33
101307.33
101307.34
101307.49
101305.38
101305.26
101305.25
101305.25
101305.25
101303.26
101303.26
101303.27
101303.27
101303.38
101301.45
101301.36
101301.36
101301.35
101301.35
101299.46
101299.46
101299.47
101299.47
101299.57
101297.71
101297.61
101297.6
101297.6
101297.6
101295.73
101295.73
101295.74
101295.74
101295.87
101294
101293.85
101293.84
101293.83
101293.83
101291.87
101291.88
101291.88
101291.89
101292.08
101290.13
101289.96
101289.95
101289.94
101289.93
101288.1
101288.11
101288.13
101288.15
101288.22
101286.18
101286.29
101286.27
101286.25
101286.25
101283.24
101283.23
101283.22
101283.22
101283.47
101283.5
101283.16
101283.16
101283.17
101283.18
101286.33
101286.34
101286.36
101286.37
101286.23
101288.34
101288.31
101288.29
101288.27
101288.27
101290.11
101290.12
101290.13
101290.14
101290.27
101292.19
101292.03
101292.02
101292.01
101292.01
101293.92
101293.92
101293.92
101293.93
101294.08
101295.9
101295.75
101295.74
101295.74
101295.74
101297.58
101297.58
101297.58
101297.59
101297.72
101299.57
101299.45
101299.44
101299.44
101299.44
101301.34
101301.34
101301.35
101301.35
101301.47
101303.41
101303.28
101303.27
101303.27
101303.27
101305.28
101305.28
101305.28
101305.29
101305.43
101307.57
101307.39
101307.38
101307.38
101307.38
101309.63
101309.64
101309.64
101309.65
101309.86
101312.34
101312.09
101312.08
101312.08
101312.07
101314.76
101314.76
101314.76
101314.78
101315.07
101318.1
101317.75
101317.74
101317.73
101317.73
101321.08
101321.09
101321.09
101321.11
101321.52
101325.4
101324.91
101324.89
101324.89
101324.88
101329.24
101329.25
101329.26
101329.28
101329.85
101334.98
101334.3
101334.27
101334.26
101334.26
101340.1
101340.11
101340.12
101340.15
101340.95
101347.94
101346.98
101346.95
101346.94
101346.92
101354.91
101354.93
101354.94
101354.98
101356.12
101365.65
101364.28
101364.23
101364.22
101364.2
101375.31
101375.33
101375.36
101375.42
101377.05
101390.32
101388.33
101388.26
101388.23
101388.2
101404.34
101404.37
101404.4
101404.49
101406.77
101424.91
101422.24
101422.15
101422.13
101422.11
101448.22
101448.25
101448.3
101448.44
101451.02
101470.24
101468
101467.99
101468.14
101468.31
101526.5
101526.97
101527.61
101528.32
101535.54
101493.56
101479.33
101481.62
101484.32
101485.87
101561.79
101497.2
101473.92
101448.21
101425.96
101507.85
101507.82
101507.35
101506.59
101493.08
101503.15
101489.67
101490.15
101490.96
101491.13
101458.12
101458.03
101458.04
101458.12
101459.03
101440.22
101437.61
101437.49
101437.46
101437.44
101414.85
101414.86
101414.88
101414.97
101417.18
101400.78
101398.84
101398.75
101398.72
101398.69
101383.89
101383.91
101383.93
101384
101385.71
101373.48
101372.04
101371.98
101371.96
101371.94
101361.57
101361.59
101361.61
101361.66
101362.88
101353.93
101352.9
101352.86
101352.84
101352.83
101345.27
101345.28
101345.29
101345.32
101346.21
101339.59
101338.84
101338.81
101338.8
101338.79
101333.24
101333.25
101333.25
101333.28
101333.91
101329
101328.47
101328.45
101328.44
101328.43
101324.24
101324.25
101324.25
101324.27
101324.72
101320.98
101320.6
101320.58
101320.58
101320.57
101317.33
101317.33
101317.33
101317.35
101317.68
101314.73
101314.45
101314.44
101314.44
101314.43
101311.82
101311.82
101311.83
101311.84
101312.07
101309.65
101309.45
101309.45
101309.44
101309.44
101307.23
101307.24
101307.24
101307.25
101307.41
101305.32
101305.18
101305.17
101305.17
101305.17
101303.2
101303.2
101303.2
101303.21
101303.33
101301.42
101301.3
101301.3
101301.29
101301.29
101299.42
101299.42
101299.43
101299.43
101299.55
101297.7
101297.58
101297.57
101297.57
101297.57
101295.7
101295.7
101295.7
101295.71
101295.85
101293.98
101293.81
101293.81
101293.8
101293.8
101291.85
101291.85
101291.86
101291.87
101292.06
101290.11
101289.92
101289.91
101289.9
101289.89
101288.07
101288.08
101288.09
101288.11
101288.2
101286.1
101286.18
101286.17
101286.16
101286.15
101283.06
101283.06
101283.05
101283.05
101283.4
101283.03
101283.02