/*--------------------------------*- C++ -*----------------------------------*\
  =========                 |
  \\      /  F ield         | OpenFOAM: The Open Source CFD Toolbox
   \\    /   O peration     | Website:  https://openfoam.org
    \\  /    A nd           | Version:  7
     \\/     M anipulation  |
\*---------------------------------------------------------------------------*/
FoamFile
{
    version     2.0;
    format      ascii;
    class       volScalarField;
    location    "30";
    object      alphat;
}
// * * * * * * * * * * * * * * * * * * * * * * * * * * * * * * * * * * * * * //

dimensions      [1 -1 -1 0 0 0 0];

internalField   nonuniform List<scalar> 
25278
(
8.8547474
9.7093248
9.0498638
9.0478638
9.7645956
9.7060039
9.5044893
8.8552545
9.5053397
10.602668
10.169359
9.467699
9.6441101
9.7097522
9.8788623
9.0501748
9.7120838
10.254754
9.745975
10.586218
10.719133
10.650779
10.345738
10.335424
10.822935
10.333529
10.344513
10.723975
10.787862
10.935078
10.890888
10.710849
10.291505
10.562228
10.72542
10.686341
10.794874
10.702595
10.595809
10.272048
10.456877
10.564964
10.401599
10.507076
10.815561
11.030505
10.704229
10.841559
10.973608
10.803161
10.744662
10.51333
9.7756414
9.9940471
10.494219
10.617636
10.536322
10.407487
9.9585405
10.108923
10.247104
10.115665
10.005903
10.480459
10.338067
10.298747
10.442905
9.94105
9.7666713
9.838785
9.2680612
9.4812633
9.717037
9.9583821
10.207829
10.416023
10.723668
10.932518
10.646254
10.55063
10.360658
9.8785049
10.253707
9.7520013
10.51261
10.263351
9.2931485
8.3053799
8.8868806
9.5157531
9.6363192
8.9822757
8.882882
7.8197032
7.9731551
8.9852066
9.2181562
9.8384858
9.9744868
9.3587695
9.211937
8.1743575
8.4328007
9.3665265
8.7475409
8.618396
8.393524
6.8744978
6.7732507
5.9875904
7.8451859
7.8824971
5.9815102
6.0107482
7.0233993
7.2269351
6.0696129
8.1823863
8.101062
8.0906447
9.7439393
10.510666
9.7633682
8.8397808
7.771444
6.7358505
5.9721312
7.8356748
9.2840836
10.261141
10.354638
10.546463
10.241716
9.8630268
8.8569477
8.2808452
8.3676823
7.8727303
5.9636749
6.8344984
6.9801935
5.9906906
6.0455874
8.1695065
8.7189273
8.5925242
9.1891981
8.955284
7.9234048
8.9385577
9.8533297
9.487921
9.6101167
9.814904
10.234084
9.9531182
9.3375734
8.3800432
7.1786294
5.1791603
3.4382438
3.4616274
5.2291118
7.1859065
8.71973
8.5993656
8.0660142
8.1334722
5.9693918
5.9332403
6.9924278
5.1830388
3.6205865
3.3719171
1.6250668
1.9438689
3.6882032
3.6688567
1.9447737
1.6299457
3.3623313
3.5983871
5.1379261
6.9244121
8.1236718
9.1700126
9.3170398
8.6552433
7.1117381
5.8876051
5.857812
7.9864993
9.7032989
8.5384885
8.046377
8.3719743
5.9480053
3.121006
1.358906
1.3494649
3.1162577
6.0393798
8.4642721
9.0367799
9.6681489
10.203311
10.561994
10.785561
10.708119
10.888295
10.685533
10.293437
10.458332
10.565537
10.79334
10.702257
10.595094
10.27644
10.404949
10.50907
10.67947
10.894383
11.023822
10.701878
11.052564
10.953923
10.992159
11.07638
11.028143
10.887845
10.929544
10.736742
10.587515
10.856692
10.814802
10.740204
10.970512
10.835008
10.710149
10.58433
10.80021
10.496502
10.003098
10.118141
10.255214
10.618989
10.539625
10.411188
9.9730669
10.1286
10.022335
10.48454
10.741252
10.511239
9.7895462
10.343797
9.8571878
9.783181
10.302586
10.445338
9.9555643
10.101838
10.162897
10.258249
10.371101
10.46131
10.79084
10.729095
10.672698
10.623967
10.934289
11.016534
11.039152
10.872962
10.934977
10.955393
11.018299
10.840021
10.813786
10.650029
10.695721
10.582775
10.900382
10.853505
10.821781
10.436074
10.52896
10.36274
10.435473
10.520812
10.611585
10.722923
10.956988
11.055491
11.025982
10.896572
10.889968
10.932269
10.858446
10.587166
10.738542
10.680256
10.464601
10.61833
10.538711
10.450805
10.398478
10.345934
10.113077
10.341034
10.060177
9.915551
9.5896228
9.7919719
9.3980079
9.7874687
10.063642
10.343864
10.211001
9.6762047
9.9196473
9.6031539
9.967194
10.120746
9.8039277
9.4101638
9.1717971
9.5973402
8.7722777
9.1587745
8.5660311
8.8629011
9.3839884
9.5878169
9.7805584
9.9374389
10.08315
10.216842
10.271665
10.163741
10.305396
10.25077
10.095645
9.9469157
10.019318
10.149101
10.219449
10.2957
10.203455
10.327881
10.355816
10.478299
10.389573
10.363423
10.215601
10.251928
10.113866
10.238328
10.103952
10.069729
10.007749
9.8627011
9.7767945
9.5904248
9.6802406
9.8632096
9.9608316
10.222333
10.465836
10.538682
10.2979
10.209509
10.332015
10.452654
10.400995
10.349327
10.222345
10.276334
10.17203
10.311008
10.25743
10.105003
9.9593121
10.090296
10.155688
10.016126
9.9458948
9.7926407
9.8774654
10.030862
10.084688
10.222985
10.368018
10.393148
10.479301
10.359125
10.258453
10.123794
10.243724
10.111168
10.077422
9.9357412
9.9777608
10.013892
10.156963
10.390005
10.419844
10.64724
10.566884
10.534322
10.414243
10.401353
10.290946
10.314206
10.448015
10.484289
10.494734
10.579182
10.460307
10.447753
10.340744
10.362292
10.236233
10.351017
10.331802
10.302585
10.283943
10.15673
10.183258
10.04366
10.174757
10.210388
10.229505
10.104709
10.074932
10.210335
10.10158
10.251764
10.414873
10.378993
10.223776
10.197172
10.164325
10.320914
10.292288
10.234181
10.172997
9.9067276
9.7349224
9.0675241
9.2660977
9.4793843
9.1118351
9.6998236
9.5100238
8.8685376
8.0516126
8.6684063
7.5111186
7.8504542
8.1204726
8.9099414
8.281266
7.1522786
6.8949401
5.9255489
7.4190625
8.500647
9.3057358
8.5178274
9.1741561
9.3724159
9.5033468
8.7258236
8.4477187
8.2253641
6.9390282
6.1639607
5.0796306
5.0438703
6.0070289
7.5674445
7.0173445
7.6976171
7.9503451
8.2713864
8.5882525
8.9009514
9.167534
9.4076902
9.6075668
9.7888407
9.8713227
9.6798545
9.5935969
9.3724763
9.4784658
9.6965881
9.7604948
9.9353805
10.069898
9.9278649
9.9677308
9.7914697
9.9645907
9.9215428
10.073752
9.9473466
10.114054
10.284971
10.457629
10.791554
10.739066
10.671116
10.728149
10.350247
10.247035
10.364467
10.163009
9.8898235
9.6717794
9.0586097
9.4501811
9.2365627
8.8155572
8.4281517
8.6501167
9.4661409
9.335975
9.1368326
8.1489326
8.3677946
6.8714148
7.4391185
8.1989089
8.8703652
8.6307793
7.4609621
7.9753544
6.8082828
7.8194598
8.085061
7.0558375
5.8383187
5.7789205
7.3048551
6.8108119
4.8964206
4.8345297
5.5469499
6.5892647
7.5585998
8.2878988
8.8980662
9.3380404
9.7020305
10.089078
10.587973
10.93882
11.023133
11.043363
11.079301
10.995293
11.021899
10.959283
10.937343
10.651169
10.816739
10.843171
10.698365
10.584204
10.904353
10.875318
10.822672
10.856599
10.498132
10.430903
10.528054
10.357688
10.432782
10.520177
10.612093
10.648864
10.567757
10.534433
10.446432
10.309915
10.412222
10.398825
10.285507
10.148008
10.279156
10.388386
10.418937
10.328725
10.446779
10.460161
10.580897
10.495357
10.48348
10.337684
10.360572
10.231579
10.348831
10.225688
10.205456
10.169062
10.298469
10.175655
10.032954
10.001748
10.150201
10.012016
10.153603
10.207594
10.075449
10.038109
9.8686163
9.832195
9.6287384
9.8381758
9.7865718
9.7477784
9.6738648
9.4625847
9.3559188
9.0928925
9.1999847
9.4833641
9.2109167
9.104107
8.7518757
8.8787146
8.9562121
9.274162
9.5319672
9.7445757
9.5386968
9.7608887
9.6987059
9.8892359
10.059485
10.225173
10.139192
10.07388
9.8736871
9.987934
9.8124946
9.6660565
9.749997
9.9541373
10.01188
10.203302
10.233714
10.314481
10.153257
10.053888
9.9492567
10.162968
10.129026
10.062863
9.9910179
9.9025611
9.9757884
9.7275085
9.8432872
9.7611473
9.6372939
9.3397974
9.5104139
9.595066
9.4279962
9.0561312
9.2962841
9.5117518
9.4098226
9.6102726
9.3785957
9.4706948
9.2221819
9.121298
8.7500217
9.0915141
9.1960332
8.8712467
8.9446738
9.2923239
9.576697
9.810703
9.856934
9.9900763
9.8073248
9.6271015
9.4177175
9.7087789
9.6591003
9.9039934
9.7907515
10.045912
10.081001
9.8385657
9.5461806
9.4933861
9.1235721
9.3636581
8.9980725
8.9268931
8.834733
9.1984498
8.9473415
8.7078378
9.1728139
9.5237706
9.8253146
10.148471
10.621143
10.685079
10.654709
10.205243
10.25991
10.349977
10.783891
10.825585
10.803654
10.758159
10.30097
10.387704
10.429281
10.155389
10.212795
10.280788
10.342614
10.412673
10.375276
10.299994
10.281053
10.091418
10.187695
10.215926
10.123371
10.157528
10.245607
10.272838
10.428405
10.360415
10.189623
10.106102
10.304064
10.240914
10.019388
9.9729293
10.067087
10.027318
10.235373
10.212013
10.13499
10.161214
9.9262035
9.883915
9.9903401
9.7535174
9.896714
10.025944
10.058308
9.9343959
9.7165726
9.8843921
9.847006
9.6717946
9.4685026
9.5216878
9.7976651
9.6476538
9.5959753
9.2365388
9.1799227
8.9256275
9.3774805
9.7280609
10.013199
9.9754272
9.9033101
9.8296472
9.7512483
9.41433
9.5090509
9.6125428
9.6776627
9.5751186
9.9043164
9.9427512
9.6269327
9.5499605
9.8980119
9.8582228
9.7824286
9.7544858
9.6740282
9.2953246
9.38986
9.4303276
9.4968493
9.4565907
9.8311183
9.8710212
9.5098406
9.0297673
9.0952172
9.2191635
9.1637957
9.3225893
9.2564559
9.0988975
9.0149996
8.463901
8.565702
8.8039526
8.8687389
8.6254551
8.6800569
8.4821201
8.4307237
9.03978
8.9763189
8.9122493
8.834557
8.1853557
8.2752583
8.3764403
7.5925932
7.8783873
8.2284464
8.5905811
8.4980248
7.9130241
8.3772068
8.479861
8.0248835
8.087202
8.6580048
8.71647
9.0560298
9.3469907
9.5895266
9.3239161
9.5828057
9.330065
9.6046533
9.7921482
9.9749452
9.8064885
9.5976037
9.547198
9.7533165
9.556529
9.2850122
9.3405875
9.0170161
9.0740044
9.3808165
9.6527842
9.8432787
10.018555
10.04415
9.8702733
9.6837889
9.8810797
9.8460836
9.6424418
9.3909605
9.4403444
9.6912188
9.8655197
9.6709015
9.716695
9.9068941
10.065719
10.20408
10.09077
10.123265
10.013005
9.9730013
9.7634918
9.9226706
9.9621033
10.097238
9.9447498
10.102398
9.9416763
9.9119661
9.7380417
9.9159477
10.080442
10.106634
9.9450309
9.7718894
9.9537694
9.9177271
9.7277062
9.4932543
9.5481193
9.7794461
9.5410092
9.7623495
9.5417191
9.7728652
9.7245167
9.6783781
9.6343686
9.3981974
9.4512234
9.124491
9.4265565
9.3748423
9.0618433
9.0041529
8.611989
8.5510896
8.0247679
8.5289257
8.9403217
9.2681277
8.8632733
8.7612768
8.3421382
8.4524242
7.9682505
8.4673095
8.3530369
7.8363712
7.2733825
7.8696876
7.9539708
7.3693131
7.2922219
6.561403
6.6569281
7.3665644
7.4336928
8.0451394
8.5469159
8.6120334
9.0009878
8.592255
8.1120201
7.4956101
8.086735
7.4752202
8.1448379
8.211558
8.7796277
9.1135956
9.1773143
8.8535736
9.2990163
9.3697601
9.703827
9.8445982
9.8940483
9.7643309
9.4481206
9.6427634
9.8131374
9.5710105
9.5087487
9.1942388
9.4823766
9.1856174
9.4848578
9.4308252
9.1330709
9.1972148
9.2659055
8.9098737
9.2574241
8.9023626
9.2707941
8.9343178
9.3288218
9.2490816
9.57965
8.9409835
9.0407376
8.519757
8.3980066
8.8364768
8.7500664
8.6762386
8.1557719
8.6567232
9.0583824
9.1190983
8.7287934
8.263249
8.7462609
8.6763144
8.1821271
7.567167
7.6553533
8.2384304
7.6287421
8.2950887
7.764967
8.4896952
9.0573403
9.4905472
9.8250401
10.099934
10.069301
10.002883
10.036213
9.7316075
9.6793275
9.7771047
9.4316558
9.2766998
9.3411877
8.8195681
8.742506
8.9861748
8.4075047
8.3427522
8.287874
7.9243972
7.9705506
7.0712145
7.6162608
7.570805
7.5257783
7.4546993
8.1586576
7.8186432
6.9617802
7.0280685
7.0469222
6.5995032
7.62491
7.6597336
7.486119
8.3749549
8.3260013
8.9745717
8.9829186
9.4618375
9.8341894
10.208969
10.656035
10.940586
10.843316
10.720225
10.26132
9.7512984
9.2269157
9.8478229
9.2242734
8.6129869
8.0731946
8.1432154
8.7357657
7.2091216
5.9875064
5.9470844
7.0116198
8.187455
8.4431353
9.3692034
9.9814037
10.26094
9.3709772
8.7463182
7.231035
5.2508378
3.390891
3.6339319
5.2011611
3.7036641
1.9560876
1.6384316
3.47832
6.070915
6.0176858
7.032626
8.6243657
9.7567747
8.1049587
8.5364319
6.9168793
5.1331236
3.6789055
1.9435081
1.6286677
3.4501095
5.1718756
3.3459051
3.5871905
5.8482837
5.8731555
7.101369
8.6523209
9.704505
7.9826904
8.0413058
8.3665439
5.9278961
3.0981585
1.3575637
1.364853
3.1403218
6.0637579
8.476283
9.7802388
10.51507
10.746692
10.807002
10.590576
10.003011
10.414356
10.34338
10.300485
10.444646
10.48558
10.015374
9.9444496
9.7695813
9.8480839
9.9697688
10.127046
10.543097
10.624234
10.501174
10.119037
10.257097
10.374138
10.745599
10.977284
11.046711
11.024279
10.75953
10.804743
10.828908
10.788065
10.689578
10.626048
10.589603
10.092718
10.15785
10.268837
10.35761
10.304196
10.39032
10.43516
10.504929
10.860863
10.828071
10.734046
10.677632
10.258275
10.360283
10.46538
10.796979
10.879966
10.908568
10.589657
10.53485
10.439366
10.150391
10.08471
10.01598
9.9690432
9.9369766
9.9340749
9.959641
9.9956184
9.9709218
9.6223374
9.6596915
9.6041883
9.5651397
9.0895573
9.1542333
9.2225313
9.1594263
8.5168664
8.6236559
8.5439863
8.4361115
7.5344344
7.7133955
8.0318484
8.116586
7.1948379
7.1170293
7.6782224
6.8149926
7.5413607
6.805674
6.7450505
6.7000734
7.423042
6.7387414
6.714849
6.6965216
6.0603734
6.0445141
5.005419
5.8526969
5.8388673
5.0188602
4.3547286
4.2348502
5.4574617
6.6098808
6.3700837
7.4351757
7.4093378
6.3572579
5.2266449
5.1047347
3.7397201
3.8949888
2.7436575
3.3124643
4.114116
5.0451699
5.871769
6.6645436
7.3094165
7.8978034
8.3712445
8.7896892
9.1225457
9.2273023
9.4994066
9.7227741
9.9078352
10.072697
10.002168
9.8944378
10.088322
10.152281
9.9735666
10.030118
10.126051
9.9647547
10.006494
9.8294869
9.7838661
9.6129318
9.837235
9.7773112
9.6942207
9.8317258
9.6348953
9.4476707
9.5483989
9.3488723
9.6332639
9.869876
10.080241
10.00969
9.7888576
9.6726189
9.9258274
9.9981421
9.7614005
9.8239216
9.9295607
10.145316
10.21518
10.244333
10.070709
9.8820072
9.6619235
9.4688226
9.7448039
9.9732335
10.177908
10.358445
10.272038
10.686434
10.654972
10.589335
10.587775
10.933332
10.834264
9.7058088
9.0490532
8.8569272
9.5050441
9.7084761
10.342423
10.643184
10.70906
10.508974
10.739694
10.300185
9.7832904
9.7792454
9.9518105
10.442454
10.478954
10.337291
9.8467219
10.012743
10.117345
10.533425
10.796879
10.579553
9.9914822
10.404631
9.9603598
10.105088
10.48887
10.612792
10.243936
10.362233
10.248473
10.154234
10.098311
10.213083
10.216037
10.308289
10.358176
10.783407
10.822562
10.43247
10.499555
10.28933
10.347662
10.307091
10.28992
10.106435
10.136272
10.168007
10.197644
10.27692
10.429113
10.36351
10.31012
10.118565
10.083146
10.046466
10.246237
10.22504
10.012281
9.9133846
10.152799
10.10099
10.06721
10.000403
9.9292184
9.8521607
9.5649617
9.6531128
9.5533163
9.8575553
9.7800794
9.4592584
9.08178
9.2324539
9.3896091
9.5488778
9.2508115
9.0173848
9.1263603
9.4778725
9.5431437
9.6964953
9.4158885
9.1941324
9.2498279
9.5942424
9.8701553
9.7667939
10.036944
9.9688015
9.9314162
9.619142
9.7176351
9.3838042
9.3171747
8.8911688
8.7926271
8.5612756
8.6657272
9.1668553
9.232729
9.2874854
9.4373634
9.0147249
8.9576253
8.728359
8.7843813
8.5919473
9.1653319
9.5930868
9.6698436
9.719666
9.8133558
10.090685
10.118424
10.176437
9.9522004
9.9949806
10.224898
10.249823
10.036831
9.7942814
9.9154377
10.026976
10.131608
9.9751564
9.9386354
9.9029127
10.070979
10.040669
9.8675971
9.7047949
9.9198164
9.9549526
9.746327
9.7895804
9.9904183
9.8707581
9.8280481
9.7870705
9.5171413
9.566518
9.3617733
9.6889688
9.6412803
9.3037261
8.8737534
9.1796736
9.4411911
9.6602964
9.6167461
9.56665
9.2991263
9.3542687
9.057304
9.3918114
9.3378825
9.267988
8.9242901
8.8027353
8.396356
8.5076841
8.8919273
8.4866901
8.0165747
7.8834416
7.3551008
7.9550417
8.4558566
8.5615407
8.9944582
8.6835372
8.1401021
8.0238921
7.4168508
7.5006648
8.0435086
7.4537212
6.7901612
6.6874456
6.0092273
6.8597826
7.5967137
7.6770542
8.3470018
8.0176651
7.2102445
7.132168
6.2607705
6.2622076
6.8909583
6.0368706
5.2365255
5.2335589
4.5964028
5.7682604
6.7740415
6.8086018
7.7410461
8.4808026
9.0457454
9.474744
9.8098327
9.7301625
9.3826881
9.335265
9.698521
9.7777886
9.429051
9.4956186
9.5411395
9.8848234
9.9236915
9.892767
9.8535201
9.8510842
9.7749096
9.6957448
9.3655398
9.1674504
8.5034686
8.214602
8.4353992
8.6949698
9.4862094
9.2884747
8.4709878
7.3758777
6.9223316
6.1348303
5.0568132
5.0166047
6.9974646
7.5187557
5.9425037
5.8682988
6.8236381
7.9966987
8.8313011
9.4884783
9.0386265
9.7133118
9.886765
9.6786013
9.0737453
9.4435872
9.2287244
8.6131329
7.4551085
7.7748409
8.0399853
7.0723241
8.221047
8.8523533
9.1146265
8.8451852
8.5320883
8.2193003
7.9071906
7.6683431
7.5305325
7.5405222
8.2791576
8.3887295
8.9656101
8.8963949
8.9752758
8.3719597
8.425896
8.538605
9.1101968
9.0385908
9.0932431
9.548027
9.6011048
9.6449501
9.982789
10.026329
10.056389
9.7675451
9.8570031
9.9058881
10.169807
10.199916
9.9548301
9.8776146
10.147075
10.112777
9.8218026
9.468746
9.6023215
9.7398798
9.4257519
9.6193692
9.6759966
9.8348511
9.6010533
9.7901418
9.7451583
9.701917
9.4536255
9.4037983
9.1136281
9.1730956
9.4909213
9.5441456
9.2380957
9.50626
9.5620182
9.3085094
8.9449952
9.2777323
9.2090609
9.145172
9.0862681
9.0296764
8.9692903
8.566549
8.6316956
8.1624276
8.6485999
8.5848423
8.9979126
8.6345935
9.0663712
9.1238508
8.6961971
8.267424
8.8121069
8.7529353
8.2067811
7.5610222
8.1174026
8.1814266
7.5886392
7.5237474
8.0947626
7.5271374
8.079852
7.9982345
7.4191641
6.8029372
7.4490623
7.3392881
7.0682081
6.8531548
5.3428842
5.5945095
5.7466889
4.3916496
5.815811
5.6583959
4.2576449
2.9257879
4.2669813
4.1792031
2.780743
3.0817347
1.7838227
1.5479431
2.8581948
1.7783546
2.9422697
4.3323984
4.4044379
3.2304038
3.000495
1.9105598
3.275141
2.9928697
1.6848449
0.94981034
1.1126344
1.9115484
1.0536791
0.892456
0.55166028
0.6380434
0.64439032
1.06447
1.7997968
3.1020019
4.9172696
6.8276114
8.1595391
9.1429468
9.3429494
9.4833825
9.28294
8.4548667
8.6813409
8.3811011
6.8938649
7.4889276
7.3440287
5.8287611
5.9019801
4.8626338
5.2447014
6.3732142
7.422047
8.1946514
8.8412539
9.299773
9.6769481
9.757239
9.7921982
9.7111057
9.3517076
9.444791
9.3945539
8.9196666
8.9974063
8.9170552
8.3155453
8.4070124
8.2860697
8.338317
8.3884151
9.0382021
9.5151658
9.8737542
9.9076111
9.8677634
9.5118631
9.5651476
9.6485937
9.9562495
9.9182321
9.8434344
9.7647869
9.8416009
9.9199317
9.6366613
9.5296156
9.4339864
9.546914
9.2045656
9.0428238
9.1291465
9.2905775
8.8511476
8.6082511
8.5024115
8.7514
8.9900539
9.3712141
9.6607456
9.9191958
9.6904408
9.4985617
9.0547026
9.7316355
9.9047236
9.4729291
9.0902367
8.8442479
9.2578497
8.6581634
8.0150947
7.4896824
6.8550008
7.1129521
8.2461752
8.9009896
8.1173592
7.8471485
8.5772871
9.1734487
9.6025762
9.9681042
10.279374
10.601131
10.894817
10.655185
10.708427
11.034153
11.083152
11.05613
10.824476
11.027622
10.937608
10.726764
10.792125
10.716019
10.297684
10.69091
10.729591
10.798572
10.707526
10.408272
10.569738
10.462195
10.214044
10.419443
10.34676
10.12209
9.8041926
10.066618
9.9226605
9.6777468
10.209291
10.568952
9.6782808
8.7814284
9.6033448
9.7925367
9.4119717
8.8734724
9.4098077
9.1726204
9.6010613
9.9222428
10.065438
10.345664
10.213333
9.9662706
10.119365
9.8010585
9.9444529
10.223966
10.621103
10.468982
10.352379
10.512824
10.820343
10.862541
10.934933
10.898885
10.892766
10.684363
10.741559
10.592081
10.655438
10.941036
10.962219
11.023815
10.957488
10.997425
10.819011
10.84503
10.701963
10.489143
10.419956
10.352335
10.292294
10.225519
10.167943
10.10762
10.066659
10.038446
10.03588
10.058595
10.09657
10.135164
10.189098
9.9330017
9.878539
9.7913473
9.8529887
9.7911592
10.100633
10.07979
9.7585632
9.688479
9.7238011
9.3026773
9.4153675
9.5562758
9.6285352
9.4982441
9.0225839
9.2352218
9.1404838
8.913072
8.7237348
8.8433174
9.3932472
9.3370862
9.2423068
8.6195782
8.7440113
7.877098
8.0560278
8.3663129
8.7120589
8.5913376
8.2281382
7.3115297
7.8803701
8.0246158
7.4698695
6.9233455
6.7717878
7.9085052
7.7947168
7.6127089
6.3633017
6.6723627
6.6171495
6.5963983
6.3193467
6.340456
7.4583106
7.4761563
7.4505087
7.6345769
7.5947271
6.6368024
6.6654665
6.3898997
6.3644747
6.3482273
7.5061883
7.7140085
8.5182411
9.118629
9.0622236
8.4639318
8.6717765
9.195664
9.5963539
9.7022598
9.9917321
10.029098
9.7524504
9.413451
9.2521235
8.7292432
8.9775437
8.9186405
9.3580105
9.5275519
9.8146632
10.062441
9.992311
10.078257
10.006414
9.7824087
9.8645316
9.7509531
9.4610811
9.6240249
9.5382019
9.2353844
9.3346411
9.100746
9.1702754
9.2275227
9.5799436
9.8620351
10.096882
10.177597
10.143787
9.9252049
9.969896
10.070562
10.245982
10.216166
10.152361
10.087664
10.174278
10.23617
10.073129
9.9716495
9.8913384
10.001999
9.8300583
9.6889068
9.7731277
9.9066132
9.7207425
9.5417144
9.4395497
9.6320746
9.4040981
9.1570787
8.880077
8.5515278
8.2149194
7.8697265
7.9366057
8.2911865
7.6052601
7.1032462
7.0261942
7.5246431
6.7766358
6.1352854
5.6015765
5.5238875
5.1270821
3.7583651
3.9112508
4.4114929
4.3029728
4.1755491
5.465107
6.665104
7.6725826
7.9894871
8.0419842
8.4156595
8.3560632
7.6591955
7.1340241
7.1705318
6.6746314
5.4177656
4.9212908
4.8868289
5.3147056
6.0083831
6.7669176
5.8590928
5.8530119
4.9405535
6.0225701
5.3833787
4.9928954
3.535345
4.0904154
3.9433404
4.8807732
4.8360669
6.0172919
6.0591692
6.8932271
5.9401768
6.8904433
7.0030662
7.7417477
8.337306
8.8109447
8.3567016
8.8244569
8.3887909
8.8411308
8.7645266
8.695525
8.2325502
8.7120303
8.7815735
8.3117458
8.4020384
8.8592893
8.4241442
8.9093751
9.3048595
9.2390379
8.8293313
8.7588767
8.3347529
8.4153217
8.9431785
9.0230105
9.111983
9.3764515
8.9979354
8.6204405
8.5107697
7.884396
7.7760719
8.3305374
8.2502753
7.6615011
7.7490296
7.0484835
6.9594829
7.6879916
7.6185507
6.8925645
6.8408461
6.0501891
6.9273209
7.7300709
8.4110766
8.4686217
7.782844
7.2785013
8.1221419
8.0707113
7.2418404
6.2592901
6.2661108
6.9672931
6.0713012
5.1577782
5.191824
4.3754194
5.6489791
6.8137619
7.7820083
7.8238803
6.8267881
6.5377846
7.6399893
8.476404
8.53631
8.6528802
8.8452258
9.073123
9.4886665
9.5426911
9.1390824
8.9171651
9.4014751
9.3419184
9.2218222
9.2851781
9.6960647
10.015394
9.9876521
9.9535862
9.9514187
10.305935
10.755519
10.7566
10.799468
10.390206
10.074704
10.112575
9.8156673
9.7547011
9.7154643
10.049104
10.08896
9.7791548
9.376855
9.4391397
9.5426206
9.6666757
9.2983626
9.4955524
9.5702518
9.7356367
9.8819439
10.012698
10.136844
10.268898
10.495067
10.814613
11.03245
11.057129
10.788836
10.169524
10.085974
9.3735329
10.083044
10.703445
10.513771
10.600877
11.054021
11.020089
11.02007
11.028507
11.065023
11.119626
11.101527
11.095642
11.063288
10.908878
10.900224
10.740583
11.015214
11.018258
10.780121
10.826432
10.960172
10.969734
11.096838
11.072484
11.070084
11.035955
11.102682
10.779648
10.701125
11.108536
11.093595
10.988589
10.920796
10.954152
11.034731
11.114535
11.074321
10.989421
11.007419
10.900722
11.105628
11.072745
10.921477
10.934606
10.997613
11.059326
11.013204
10.991083
10.95535
10.999073
11.072542
11.05602
11.024908
10.974505
10.88805
10.869348
11.055748
11.083668
11.045892
10.79146
10.864819
10.742873
10.809429
10.858628
11.022892
11.023119
11.10728
11.122495
11.068652
11.067321
11.023951
11.020038
10.74463
10.903714
10.912309
10.78503
10.831895
11.076163
11.099593
11.101975
11.078833
10.871069
10.973427
10.96349
10.785648
10.73295
10.706532
10.615239
10.625102
10.542289
10.531551
10.388009
10.496385
10.506185
10.410266
10.438564
10.578668
10.655703
10.669129
10.591849
10.462957
10.553082
10.539017
10.428721
10.518069
10.494812
10.383126
10.399606
10.287502
10.260486
10.131307
10.26593
10.283141
10.162681
10.196654
10.316674
10.34519
10.449235
10.339045
10.318135
10.204135
10.325077
10.517576
10.730791
10.704294
10.612901
10.621987
10.504851
10.495741
10.388495
10.529841
10.539298
10.409494
10.436727
10.53708
10.651956
10.665056
10.550425
10.460427
10.587629
10.574848
10.515326
10.685892
10.977978
11.104995
10.965682
10.634287
10.563436
10.929651
10.947382
10.625656
10.691136
10.740796
10.570991
10.625328
10.699582
10.783187
10.588139
10.608263
10.528348
10.632785
10.599241
10.711267
10.63873
10.513819
10.489311
10.587056
10.482404
10.447831
10.428175
10.400019
10.384307
10.263597
10.288956
10.166656
10.285155
10.319698
10.33946
10.229936
10.344288
10.316747
10.199053
10.067377
10.205944
10.17007
10.275139
10.14155
10.167287
10.023472
9.9847747
9.8113795
9.9898672
10.02031
9.8588574
9.9075515
10.063409
10.101226
10.228557
10.261904
10.375125
10.492203
10.629823
10.703724
10.715606
10.643041
10.516469
10.601763
10.589839
10.483699
10.588852
10.609489
10.812066
10.746655
10.759431
10.694303
10.680541
10.545954
10.635382
10.649139
10.570958
10.458726
10.549688
10.529968
10.501159
10.402335
10.291151
10.394582
10.378245
10.268181
10.387946
10.429399
10.3232
10.427622
10.444983
10.349644
10.321606
10.431276
10.357825
10.483413
10.631809
10.797974
11.053415
11.109453
10.784712
10.70232
10.514518
10.991196
11.098043
11.119808
11.038056
11.078714
11.079393
11.111972
10.907308
11.011464
10.991829
10.928458
10.895888
10.855664
10.862662
10.824904
10.798692
10.790636
10.730541
10.742386
10.623852
10.693757
10.683724
10.600015
10.487032
10.581482
10.670603
10.672088
10.620766
10.723289
10.733099
10.83057
10.785635
10.775761
10.651572
10.67446
10.561775
10.635531
10.528137
10.518057
10.491162
10.595551
10.511939
10.402428
10.37794
10.479863
10.374619
10.47836
10.66922
10.852039
10.857994
10.671206
10.616325
10.717901
10.818364
10.794406
10.786891
10.755522
10.646345
10.567775
10.689956
10.676108
10.54308
10.429483
10.400804
10.499592
10.394386
10.378184
10.262169
10.373652
10.292194
10.420107
10.388922
10.532397
10.48248
10.462563
10.420943
10.478146
10.464196
10.304971
10.330848
10.261475
10.230352
10.403957
10.353379
10.375769
10.195068
10.157458
10.083294
10.299131
10.326326
10.128306
10.176725
10.236032
10.296138
10.360272
10.22656
10.193726
10.162602
10.064866
10.103462
9.9300731
10.050602
10.08921
10.127237
10.258943
10.182309
10.329003
10.274642
10.444634
10.420152
10.37681
10.405661
10.222135
10.028535
10.106341
10.058611
10.142799
9.9784098
10.025632
9.9178859
9.8582107
9.7967843
10.00982
9.9620385
9.8515715
9.9105308
9.6473715
9.7251117
9.9699529
9.8791343
10.118607
10.340556
10.581938
10.92753
11.099693
11.103575
10.997447
11.014299
11.027933
10.749661
10.721896
11.015685
11.006723
10.98671
10.913364
10.885122
10.903204
10.507751
10.474278
10.55592
10.637272
10.656311
10.428298
10.45585
10.489847
10.525384
10.545461
10.588603
10.448804
10.397231
10.364421
10.220871
10.258261
10.324028
10.199687
10.290851
10.320862
10.426944
10.443675
10.547567
10.456243
10.348
10.232265
10.34317
10.322923
10.291296
10.268851
10.232168
10.097103
10.067555
10.022393
9.9926048
10.144791
9.9921099
10.028803
9.8647544
9.8188988
9.606157
9.8286498
9.8720739
9.659541
9.6001299
9.338324
9.4122008
9.6640078
9.7220913
9.9203386
10.066064
10.096079
10.230656
9.952663
9.7743655
9.9615592
9.7765882
9.9553574
10.103529
10.139821
10.172221
10.03551
10.164674
10.14043
9.9979022
9.8276149
10.005178
10.139848
10.164447
10.290717
10.171648
10.138307
9.9963749
10.034644
10.070953
10.204141
10.233292
10.343914
10.221679
10.201824
10.076352
10.201995
10.221217
10.101161
10.070908
10.203821
10.098064
10.233414
10.355882
10.480373
10.627029
10.645439
10.509233
10.464472
10.607905
10.587873
10.432262
10.294747
10.329788
10.386772
10.265438
10.191134
10.153693
10.113809
10.071038
10.164139
10.020492
9.9768104
9.9312454
9.8841481
9.8367929
9.6204624
9.67971
9.4600813
9.7214229
9.6604462
9.3831677
9.0368785
9.3503276
9.4243489
9.1056157
9.0136372
8.9243885
8.5029086
7.973086
8.5296159
8.0112678
7.2979727
7.1614783
7.85323
7.2117316
7.8618786
7.7598221
8.2987335
8.2194049
8.1485746
7.5651774
7.4958411
6.8759722
6.9449859
7.5964691
6.9341293
6.8700665
6.8023685
6.730787
6.0213257
6.6751383
5.9849874
6.0653435
6.7324238
5.9303994
5.2217464
5.1405178
4.4762178
5.3062934
5.3510474
6.1044785
5.3052405
6.046844
5.9835764
5.2215745
4.519585
4.5672614
3.8053571
4.5248919
4.5592869
5.2567903
5.96715
6.7974837
6.8595061
6.006931
5.2972179
6.1879069
6.1259777
5.4051147
6.1665489
6.2291464
5.384549
6.1340583
6.088779
5.3421783
4.6017289
4.6427087
5.4622831
4.600225
3.8612694
3.8293455
2.9896436
3.6101461
4.2577601
5.0027405
5.0152814
4.0356017
3.2435067
4.2688032
4.2803166
3.2877179
2.428667
2.2599977
3.1111431
2.4758716
1.5666842
1.7895109
1.2608957
1.8502436
2.6826528
3.633876
3.6106456
2.63714
2.1321867
2.988696
2.9888
3.7462954
3.0293145
3.7185661
4.4040876
5.2023908
5.1814236
4.3971701
3.4110805
4.2464667
4.3162122
3.4536823
2.8086147
2.7587006
3.6945339
3.0293411
2.2110474
2.2272412
1.5402293
2.0050358
2.6266051
3.545411
3.3508996
4.4961671
5.6998451
5.3406622
6.5603382
7.5751408
7.6062911
6.5447445
5.2487092
5.1650361
5.6081902
4.2612978
3.6177249
3.8083526
3.9974079
4.1371244
5.4428508
6.5345102
6.5222331
6.5463101
7.5642025
8.363465
8.9691598
9.4247098
9.3310014
9.3708354
9.721732
9.8013377
9.4628796
9.5295304
9.491467
9.5440397
9.8900844
9.9157726
9.8763731
9.9197442
10.264662
10.68247
10.653364
10.6185
10.668008
10.967956
11.03762
11.015873
10.798811
10.388668
10.428872
10.820092
10.779983
10.352005
10.42995
10.818586
10.724837
10.350614
10.454474
10.787167
10.734795
10.809912
11.024594
10.69939
11.073648
10.932445
10.870386
10.898657
10.850935
10.495654
10.580108
10.524148
10.646862
10.58237
10.853269
10.926792
10.890272
10.883211
10.787671
10.695026
10.883932
10.702141
10.281417
10.587812
10.2644
10.395123
10.557294
10.717387
10.677973
10.447578
10.195537
9.9478085
9.6496966
9.5701175
9.7746443
10.104035
10.331242
10.403038
9.8932502
10.040922
9.7518974
9.3621181
9.1220319
8.7176251
8.4943923
8.791734
9.341497
9.0991439
9.5578072
9.8843721
9.6303867
10.186087
10.552365
10.718269
10.779301
10.927542
11.019577
10.817365
11.048389
10.951599
10.990026
11.016396
10.953117
10.693936
10.838851
10.812397
10.733395
10.673458
10.501407
10.24517
10.158976
10.072615
9.9930716
9.9092089
9.8368029
9.7676187
9.8451963
9.5355987
9.4412618
9.5430851
9.6320187
9.9142128
9.9860887
10.023487
9.9573314
9.6535775
9.5819289
9.1491762
9.0874565
9.0325375
8.417544
8.4679074
8.5686169
8.5153727
9.0936687
9.02888
8.9491854
8.8903234
8.2711048
8.3661445
8.4577806
8.6315481
9.1421004
9.0571373
8.5275792
8.7520295
9.2026857
9.2876024
8.8507248
8.9180582
8.6944661
9.2081817
9.6019224
9.6974076
9.7475219
9.4099084
9.2638924
8.7508233
8.9762038
9.0364828
8.8125461
8.6296177
8.5277917
9.1448594
9.1505185
9.2157145
9.6540804
9.6508852
9.9856003
10.009106
9.975416
9.6344928
9.5972956
9.6866834
9.7464025
9.7123517
10.047235
10.087377
9.7764281
9.8083084
10.107816
10.068916
10.105149
10.04705
10.01589
9.7044097
9.7537461
9.8412469
10.107636