/*--------------------------------*- C++ -*----------------------------------*\
  =========                 |
  \\      /  F ield         | OpenFOAM: The Open Source CFD Toolbox
   \\    /   O peration     | Website:  https://openfoam.org
    \\  /    A nd           | Version:  7
     \\/     M anipulation  |
\*---------------------------------------------------------------------------*/
FoamFile
{
    version     2.0;
    format      ascii;
    class       volScalarField;
    location    "30";
    object      T;
}
// * * * * * * * * * * * * * * * * * * * * * * * * * * * * * * * * * * * * * //

dimensions      [0 0 0 1 0 0 0];

internalField   nonuniform List<scalar> 
25278
(
299.99731
300.00257
299.99972
299.99974
300.00595
300.00269
299.99788
299.9973
299.99787
300.00238
300.00037
299.99882
300.0006
300.00312
300.0032
299.99972
300.00254
300.01501
300.02391
300.0176
300.01558
300.01156
300.00777
300.00476
300.01473
300.00483
300.00785
300.01541
300.01449
300.01897
300.02077
300.01535
300.01697
300.01655
300.02411
300.01721
300.02311
300.02215
300.01571
300.01426
300.01575
300.02304
300.02069
300.03195
300.02995
300.02679
300.00925
300.01408
300.03224
300.0236
300.0272
300.02023
300.02892
300.02142
300.01626
300.02358
300.02679
300.01861
300.01935
300.01521
300.02214
300.02654
300.03159
300.02972
300.02054
300.02255
300.03196
300.03515
300.02664
300.02335
300.03523
300.02763
300.01871
300.01526
300.01612
300.02766
300.02423
300.01918
300.01193
300.01158
300.00812
300.00393
300.01549
300.02495
300.01606
300.01068
300.00844
299.95977
299.95942
299.97093
299.9959
299.99302
299.95828
299.95124
299.99989
299.99519
300.01387
300.00658
300.01563
300.02555
300.01312
300.03649
300.05613
300.02585
300.04667
300.02996
300.00523
300.03393
299.96499
299.98873
299.96601
300.02099
300.07678
300.15275
300.09022
300.12749
300.21006
300.07356
300.05145
300.05264
300.02573
300.0162
300.00598
299.96275
299.95685
299.97012
299.99123
299.96729
300.00932
300.01087
300.0086
300.01188
300.01669
300.00542
299.96261
299.9626
300.00864
300.02224
300.08021
300.04073
300.09878
300.15663
300.21497
300.07528
300.05089
300.03372
300.01783
299.99892
300.00721
299.99831
300.00551
299.97387
299.99904
300.00951
300.01728
300.01853
300.02984
300.06528
300.13801
300.34569
300.60833
300.59698
300.32273
300.12774
300.04649
300.02747
300.048
300.07279
300.21029
300.15117
300.08886
300.22821
300.4182
300.60134
301.31516
300.91289
300.4198
300.42762
300.91956
301.31778
300.63651
300.44512
300.24534
300.10228
300.04478
300.01876
300.03153
300.05639
300.14529
300.23535
300.16974
300.05933
300.02813
300.03592
300.08624
300.0874
300.30257
300.90251
301.77824
301.78696
300.84867
300.26858
300.07346
300.04616
300.02462
300.01751
300.01669
300.01473
300.01564
300.0211
300.01732
300.01709
300.01577
300.02315
300.02333
300.02236
300.01582
300.0143
300.02076
300.03221
300.03283
300.03335
300.02086
300.00948
300.01861
300.03556
300.03962
300.02793
300.02722
300.02904
300.03693
300.04565
300.0484
300.04096
300.03027
300.03315
300.03289
300.01463
300.01622
300.01801
300.02404
300.01633
300.02153
300.01512
300.02218
300.02382
300.02704
300.01867
300.01927
300.0266
300.03166
300.03001
300.02774
300.02072
300.02911
300.02064
300.02324
300.02644
300.0227
300.0323
300.03529
300.05317
300.04872
300.04192
300.03533
300.0555
300.04593
300.05306
300.03801
300.04207
300.03895
300.04154
300.03497
300.05231
300.04603
300.04638
300.03866
300.05344
300.05269
300.06034
300.06356
300.0751
300.05289
300.06044
300.06035
300.08291
300.07089
300.07786
300.07155
300.06611
300.068
300.05748
300.03533
300.01837
300.02066
300.03318
300.0288
300.03651
300.04038
300.04783
300.04527
300.03262
300.03695
300.04764
300.05589
300.04506
300.03561
300.02574
300.02116
300.02472
300.03041
300.02063
300.02697
300.03129
300.05519
300.03791
300.03048
300.02477
300.01612
300.02459
300.02063
300.02687
300.01531
300.02118
300.03134
300.05526
300.0473
300.02699
300.06307
300.04749
300.09666
300.10265
300.07975
300.06402
300.04788
300.03904
300.03058
300.02668
300.03803
300.03704
300.0343
300.02336
300.02508
300.03022
300.04512
300.04448
300.04734
300.07707
300.06017
300.05095
300.06635
300.05773
300.06048
300.04574
300.05296
300.06991
300.08554
300.07899
300.09764
300.07439
300.05565
300.05895
300.04227
300.05643
300.07769
300.0682
300.05934
300.04744
300.03713
300.05626
300.07733
300.06052
300.0513
300.04544
300.03587
300.02589
300.02673
300.03826
300.03726
300.03453
300.02346
300.02509
300.03027
300.03065
300.04474
300.05585
300.03913
300.0423
300.05932
300.04543
300.06538
300.05346
300.0462
300.06122
300.05832
300.06695
300.07067
300.08643
300.07964
300.09828
300.07485
300.08314
300.10823
300.12886
300.11419
300.09645
300.10055
300.07056
300.07652
300.0736
300.08759
300.07811
300.08528
300.09597
300.08075
300.08491
300.08523
300.07641
300.09186
300.09176
300.10164
300.10215
300.12252
300.10832
300.10856
300.10409
300.0929
300.1041
300.11662
300.14289
300.12722
300.132
300.13021
300.14683
300.14884
300.12278
300.1376
300.11272
300.09268
300.08812
300.10655
300.09466
300.07811
300.06621
300.04933
300.03646
300.02421
300.02425
300.01861
300.04605
300.03921
300.04425
300.06752
300.03359
300.02749
300.06252
300.12299
300.07604
300.15632
300.15946
300.18198
300.09139
300.14456
300.29339
300.26425
300.35294
300.16308
300.08162
300.03507
300.07341
300.04161
300.05133
300.04395
300.09232
300.1096
300.09742
300.19434
300.2675
300.42886
300.4997
300.41289
300.20051
300.23918
300.20491
300.18836
300.16428
300.14033
300.11311
300.09092
300.06977
300.05662
300.048
300.0684
300.08748
300.06419
300.08101
300.10443
300.07828
300.10659
300.09065
300.09981
300.09023
300.11735
300.13489
300.10722
300.08247
300.06486
300.07299
300.058
300.0488
300.0547
300.04518
300.03279
300.03751
300.05206
300.06433
300.04154
300.03506
300.02415
300.02432
300.03365
300.06754
300.04431
300.03948
300.06288
300.08182
300.09222
300.04405
300.05132
300.04188
300.09737
300.10941
300.23887
300.20042
300.14447
300.09119
300.07628
300.15651
300.12374
300.26478
300.15988
300.1821
300.29417
300.41524
300.35619
300.16411
300.1949
300.43253
300.50451
300.43921
300.3099
300.20387
300.14021
300.09055
300.06393
300.04793
300.0526
300.04441
300.03807
300.04024
300.03408
300.02738
300.03915
300.0381
300.04552
300.0453
300.05952
300.05218
300.05284
300.06256
300.07357
300.05171
300.05131
300.05902
300.05883
300.08468
300.0812
300.06965
300.07672
300.07063
300.06544
300.06753
300.06995
300.07561
300.07276
300.07961
300.09476
300.08672
300.07738
300.08429
300.10293
300.09215
300.09607
300.10009
300.10759
300.09078
300.0908
300.07541
300.08389
300.08368
300.1003
300.10072
300.12104
300.10729
300.12923
300.13105
300.1263
300.10319
300.11531
300.14149
300.12764
300.11346
300.1355
300.12832
300.13348
300.15399
300.14977
300.17305
300.15818
300.19595
300.16664
300.14538
300.11361
300.08732
300.104
300.08094
300.10854
300.13744
300.10662
300.13777
300.10884
300.15189
300.18209
300.22519
300.17558
300.1367
300.10579
300.12615
300.09552
300.06883
300.05067
300.04009
300.0362
300.04038
300.02739
300.03196
300.02673
300.03384
300.04218
300.06006
300.04607
300.06577
300.05449
300.07275
300.06532
300.07712
300.08667
300.09747
300.08
300.06041
300.04542
300.03112
300.03642
300.05155
300.06215
300.05363
300.03803
300.04587
300.06313
300.05159
300.0716
300.08445
300.12062
300.10131
300.0837
300.06386
300.04986
300.06948
300.09414
300.1168
300.09052
300.13518
300.10253
300.12993
300.16358
300.20414
300.15196
300.11314
300.08469
300.11008
300.09635
300.12324
300.14304
300.16497
300.12548
300.09833
300.07502
300.085
300.06792
300.08874
300.10876
300.14143
300.11289
300.15449
300.13319
300.18108
300.14311
300.1126
300.07877
300.09717
300.11329
300.07336
300.05268
300.04049
300.04824
300.04149
300.05719
300.06083
300.07884
300.07334
300.09123
300.06452
300.06339
300.06656
300.06834
300.09707
300.09854
300.09358
300.12467
300.11794
300.10871
300.10065
300.09113
300.08669
300.09603
300.08531
300.1043
300.09333
300.10496
300.11659
300.12249
300.11095
300.11105
300.09126
300.10012
300.12173
300.132
300.10744
300.11542
300.14155
300.1451
300.13401
300.12865
300.10435
300.09327
300.10264
300.11385
300.14055
300.12809
300.11611
300.14751
300.13115
300.11593
300.12939
300.14509
300.18169
300.16063
300.14592
300.16709
300.18965
300.2034
300.16139
300.17722
300.16398
300.21221
300.18762
300.20892
300.15643
300.11926
300.09569
300.074
300.05696
300.06235
300.0452
300.05937
300.07771
300.07047
300.09451
300.10277
300.08012
300.10259
300.12827
300.1347
300.10686
300.08397
300.06587
300.06805
300.04993
300.06674
300.08617
300.08327
300.10888
300.11211
300.08638
300.10946
300.13819
300.18351
300.17851
300.16927
300.13896
300.12686
300.0969
300.1079
300.08365
300.12925
300.15607
300.13944
300.17504
300.19296
300.22729
300.24046
300.20621
300.14798
300.11614
300.12064
300.09488
300.1469
300.17557
300.16879
300.24378
300.22489
300.19979
300.17183
300.13964
300.21001
300.16884
300.20212
300.24426
300.29023
300.21209
300.24937
300.21757
300.18671
300.15849
300.20368
300.17013
300.21316
300.17344
300.1458
300.11798
300.136
300.17114
300.13748
300.11397
300.13833
300.1761
300.21387
300.26637
300.29474
300.24104
300.1982
300.16714
300.13618
300.15055
300.18247
300.21221
300.17446
300.15951
300.19721
300.24182
300.25568
300.21376
300.18197
300.21103
300.21361
300.17788
300.14739
300.12134
300.13564
300.13449
300.14803
300.15074
300.18562
300.16607
300.16233
300.14535
300.17302
300.15078
300.17902
300.18548
300.21581
300.18599
300.15479
300.15157
300.17953
300.20543
300.17438
300.17926
300.21479
300.25419
300.23864
300.20611
300.23799
300.20435
300.22991
300.19426
300.20223
300.19898
300.18394
300.213
300.22698
300.28146
300.24511
300.23109
300.27032
300.24298
300.28591
300.24592
300.3298
300.27136
300.2193
300.16714
300.17625
300.14093
300.18726
300.22472
300.30503
300.23724
300.19906
300.26665
300.33552
300.23499
300.28001
300.34062
300.29403
300.42307
300.46961
300.38316
300.43756
300.35708
300.28553
300.32897
300.25998
300.3137
300.40077
300.47946
300.37235
300.433
300.33025
300.35274
300.27443
300.24382
300.25544
300.2827
300.22438
300.22293
300.18008
300.16582
300.161
300.17274
300.20893
300.19502
300.17919
300.21482
300.22726
300.27542
300.24435
300.29148
300.25347
300.25492
300.30539
300.29739
300.27303
300.30641
300.268
300.29531
300.2541
300.27521
300.23354
300.25148
300.20494
300.27364
300.24928
300.2917
300.33127
300.30502
300.31818
300.31168
300.39458
300.34006
300.28815
300.29899
300.34537
300.41796
300.36031
300.35579
300.42302
300.49379
300.47529
300.39174
300.43517
300.35298
300.38306
300.30661
300.24301
300.19144
300.15118
300.12111
300.10992
300.11707
300.12812
300.15998
300.14822
300.13901
300.17911
300.1918
300.20313
300.25823
300.25036
300.233
300.3024
300.27937
300.24191
300.26819
300.30522
300.40813
300.37207
300.33316
300.28579
300.24675
300.16356
300.18759
300.28385
300.32342
300.3715
300.3993
300.28755
300.32376
300.33395
300.24773
300.21345
300.15288
300.15296
300.11224
300.0864
300.07884
300.06083
300.03805
300.01401
300.01559
300.0152
300.02435
300.01318
300.00595
300.0131
300.02868
300.04897
300.07371
300.04792
300.13027
300.2121
300.15259
300.09113
300.03681
300.05837
300.02691
300.01613
300.01533
300.0268
300.04819
300.13025
300.32518
300.60245
300.42142
300.23034
300.41481
300.90339
301.29726
300.5924
300.2115
300.15179
300.09096
300.02908
300.02469
300.04962
300.03567
300.10071
300.24053
300.41918
300.90703
301.29337
300.59722
300.33964
300.62851
300.44041
300.16783
300.2331
300.1427
300.05543
300.02804
300.05941
300.08587
300.08657
300.29892
300.88813
301.73728
301.7564
300.85147
300.27068
300.07436
300.02933
300.02035
300.02725
300.02366
300.01781
300.02209
300.01899
300.02083
300.02272
300.03208
300.02992
300.03201
300.0354
300.02683
300.02399
300.02014
300.02712
300.02709
300.02378
300.01667
300.01595
300.02264
300.03527
300.03281
300.03213
300.03381
300.04014
300.06828
300.06645
300.06299
300.06428
300.0571
300.04159
300.04445
300.05273
300.0485
300.07328
300.09089
300.09696
300.09834
300.09305
300.08389
300.05832
300.05865
300.0519
300.03762
300.04182
300.06422
300.0545
300.04493
300.05086
300.05109
300.07263
300.06898
300.08069
300.10214
300.10949
300.1168
300.12124
300.12404
300.12406
300.12142
300.13232
300.13486
300.16935
300.16614
300.15474
300.1582
300.20562
300.20084
300.21128
300.21564
300.27455
300.26872
300.26263
300.26931
300.35113
300.3421
300.32594
300.32599
300.40715
300.42142
300.39019
300.49789
300.44894
300.5647
300.56177
300.52495
300.39276
300.45367
300.40108
300.34655
300.4014
300.45652
300.63815
300.55701
300.50249
300.58618
300.64521
300.69961
300.49868
300.35193
300.36738
300.2544
300.21423
300.32615
300.46326
300.52167
300.73237
300.68271
300.93991
300.8852
300.79928
300.67774
300.56785
300.44701
300.35338
300.26252
300.1992
300.1412
300.10283
300.13074
300.095
300.06942
300.05101
300.0403
300.02672
300.03194
300.02743
300.04067
300.04632
300.06652
300.05864
300.07379
300.09752
300.12472
300.09665
300.11446
300.0857
300.06058
300.04231
300.0339
300.05008
300.06413
300.08449
300.10231
300.07225
300.05394
300.04577
300.03108
300.03796
300.0458
300.03644
300.05191
300.06263
300.0861
300.07591
300.06107
300.05511
300.07385
300.08795
300.11169
300.14512
300.16773
300.12757
300.09904
300.08128
300.06539
300.07463
300.05839
300.06217
300.045
300.04505
300.03899
300.01466
300.00269
299.99973
299.99728
299.99787
300.00318
300.008
300.01209
300.01629
300.02086
300.02782
300.02277
300.02966
300.02673
300.03553
300.03242
300.0303
300.02104
300.02404
300.03225
300.02749
300.02752
300.02433
300.01848
300.02287
300.01933
300.02048
300.01643
300.01713
300.02437
300.02318
300.03602
300.04246
300.04907
300.05327
300.08034
300.08033
300.09947
300.09337
300.06614
300.06531
300.09623
300.0868
300.11106
300.10263
300.09784
300.08676
300.10602
300.11866
300.12477
300.12409
300.11292
300.09293
300.10223
300.10994
300.13487
300.13682
300.13121
300.10651
300.09496
300.11823
300.13063
300.10466
300.09026
300.0687
300.0749
300.05741
300.04052
300.05271
300.071
300.07849
300.06297
300.0453
300.05958
300.08387
300.07362
300.06332
300.05165
300.07915
300.09772
300.12192
300.08529
300.11448
300.09966
300.13511
300.15698
300.19119
300.14406
300.11067
300.12142
300.09739
300.10452
300.08116
300.10432
300.09582
300.12879
300.09791
300.1411
300.11423
300.13019
300.15807
300.10922
300.14132
300.17281
300.15953
300.21334
300.17811
300.19656
300.23239
300.24617
300.18244
300.13741
300.13075
300.15156
300.14197
300.1122
300.124
300.11643
300.14365
300.14848
300.12075
300.11835
300.14495
300.17657
300.16424
300.15066
300.13652
300.16444
300.16818
300.16265
300.13123
300.1175
300.14774
300.16962
300.13325
300.14752
300.18454
300.18855
300.15336
300.16913
300.16447
300.15023
300.1931
300.20716
300.22913
300.18107
300.16736
300.21671
300.28016
300.248
300.216
300.18596
300.16023
300.12755
300.16845
300.2055
300.24578
300.18923
300.15383
300.118
300.16482
300.1359
300.18764
300.22574
300.17718
300.23755
300.30577
300.26674
300.33521
300.23526
300.16945
300.20376
300.14474
300.17374
300.24648
300.21116
300.29421
300.34262
300.28163
300.38375
300.47076
300.42258
300.50059
300.34672
300.24774
300.28848
300.20232
300.22779
300.32659
300.28497
300.40105
300.45961
300.4039
300.55834
300.63985
300.58308
300.63971
300.43879
300.31061
300.35532
300.24712
300.17095
300.11753
300.08403
300.06654
300.04807
300.06421
300.06698
300.05005
300.06879
300.08707
300.11388
300.11053
300.08514
300.10891
300.11162
300.08762
300.08761
300.06886
300.05015
300.05178
300.04226
300.07513
300.09849
300.11062
300.09488
300.04513
300.03668
300.08485
300.16916
300.19672
300.27358
300.43404
300.50513
300.2414
300.20619
300.42611
300.36741
300.28079
300.13152
300.06696
300.02966
300.04991
300.02095
300.02607
300.03525
300.07117
300.0478
300.04378
300.08423
300.16841
300.17565
300.19719
300.30981
300.15238
300.0988
300.09582
300.11805
300.1451
300.16843
300.19177
300.20713
300.21612
300.21544
300.14796
300.14136
300.09101
300.09524
300.12211
300.17786
300.21744
300.21025
300.15065
300.15552
300.18747
300.14092
300.16184
300.15832
300.12413
300.11963
300.13134
300.16393
300.15476
300.15861
300.12783
300.1245
300.15344
300.16011
300.13022
300.13474
300.16685
300.20754
300.19717
300.18413
300.22772
300.20881
300.19859
300.18202
300.21771
300.19636
300.20443
300.20117
300.24722
300.23324
300.27368
300.28486
300.23016
300.23039
300.27867
300.24642
300.23183
300.25691
300.29782
300.26941
300.29316
300.30077
300.28993
300.26152
300.22052
300.28617
300.32995
300.40299
300.31646
300.27344
300.20639
300.24876
300.1837
300.22111
300.28999
300.33593
300.25413
300.21544
300.29434
300.39682
300.33294
300.37667
300.48356
300.44023
300.3586
300.46238
300.36612
300.31236
300.40462
300.52832
300.40506
300.3533
300.32928
300.27035
300.43144
300.45618
300.54428
300.92338
300.54218
300.45479
300.80699
301.17154
300.63469
300.79551
301.00309
300.79883
301.56852
301.8229
301.40024
302.13926
301.38702
300.78645
300.62775
300.83712
301.16059
301.52159
300.78345
300.97989
301.76879
302.59644
302.23006
301.72915
302.28259
302.64798
302.09177
302.02657
301.96625
302.29387
301.58184
300.8034
300.43513
300.19593
300.09816
300.04228
300.05168
300.04479
300.03638
300.08349
300.09382
300.11021
300.2401
300.20298
300.16652
300.35978
300.41888
300.50677
300.46451
300.32694
300.21472
300.1474
300.09518
300.06702
300.05009
300.06818
300.06608
300.04834
300.06449
300.08357
300.08649
300.12098
300.11673
300.0914
300.14123
300.16954
300.17609
300.21379
300.24804
300.18373
300.13827
300.1095
300.10679
300.0841
300.10908
300.13475
300.12824
300.10251
300.08024
300.06272
300.04579
300.04114
300.05734
300.07101
300.07836
300.06022
300.05363
300.07467
300.08471
300.10876
300.09784
300.14067
300.15743
300.13092
300.11512
300.09893
300.0646
300.04687
300.03716
300.03473
300.02899
300.04783
300.02004
300.02542
300.0461
300.06967
300.06491
300.04154
300.07909
300.12668
300.16009
300.2694
300.29799
300.14774
300.09402
300.1858
300.16421
300.10044
300.05013
300.02891
300.01645
300.01502
300.01607
300.02075
300.01151
300.00912
300.0266
300.02703
300.01806
300.0145
300.02042
300.01885
300.01532
300.01451
300.01548
300.01753
300.01742
300.02413
300.02312
300.0223
300.0211
300.02326
300.01625
300.01693
300.02803
300.02519
300.02205
300.03286
300.03149
300.02212
300.02598
300.0181
300.01682
300.026
300.06592
300.02888
300.03951
300.05773
300.10597
300.0579
300.05033
300.02905
300.02212
300.03159
300.02531
300.01698
300.01649
300.02218
300.03318
300.0405
300.04794
300.04728
300.03711
300.02622
300.03207
300.02992
300.04006
300.03613
300.03285
300.02868
300.0326
300.04483
300.04752
300.05879
300.0448
300.04487
300.03747
300.03468
300.03862
300.05144
300.05189
300.06159
300.08238
300.08986
300.09943
300.10758
300.11697
300.12387
300.13069
300.13469
300.13728
300.13739
300.13506
300.13128
300.12661
300.12121
300.14962
300.15477
300.16263
300.15596
300.16017
300.12973
300.13153
300.16222
300.1708
300.16803
300.20921
300.20239
300.19248
300.1825
300.18991
300.22808
300.2201
300.23835
300.25042
300.25875
300.23311
300.19476
300.19701
300.21275
300.26331
300.23511
300.27327
300.27259
300.26836
300.26107
300.29214
300.30607
300.36785
300.35264
300.30251
300.30621
300.30756
300.37814
300.31551
300.3387
300.34648
300.43246
300.42145
300.44202
300.43379
300.44795
300.41491
300.29826
300.29873
300.25498
300.24508
300.20544
300.31159
300.35335
300.36856
300.41588
300.44925
300.3347
300.32498
300.2411
300.17881
300.14845
300.20708
300.19384
300.13956
300.10311
300.09476
300.07419
300.09553
300.11913
300.15645
300.16944
300.22781
300.20924
300.17592
300.12742
300.11332
300.08529
300.06806
300.05202
300.0458
300.03188
300.03905
300.05429
300.06297
300.08551
300.07265
300.05308
300.08057
300.10265
300.12213
300.15521
300.18765
300.14142
300.10863
300.08854
300.07971
300.06065
300.07527
300.09722
300.08637
300.07243
300.05465
300.04085
300.0282
300.02491
300.03658
300.04065
300.04676
300.03309
300.02776
300.03527
300.04372
300.06107
300.05156
300.07
300.08508
300.06576
300.05168
300.0717
300.09281
300.11488
300.14193
300.16561
300.18944
300.22661
300.20149
300.28747
300.32556
300.28641
300.24932
300.34917
300.40423
300.44173
300.50063
300.52327
300.7348
300.68503
300.64773
300.7022
300.7457
300.55058
300.40136
300.2889
300.26947
300.30632
300.27996
300.2431
300.33453
300.37322
300.41004
300.43612
300.57806
300.59491
300.59259
300.57393
300.54036
300.4907
300.64017
300.61118
300.68854
300.50854
300.54784
300.56943
300.76962
300.74245
300.74991
300.7082
300.68217
300.5389
300.50029
300.47167
300.57277
300.52897
300.4594
300.39435
300.36436
300.32928
300.38686
300.34267
300.39556
300.34373
300.36147
300.35695
300.42588
300.34344
300.34866
300.42081
300.3895
300.33231
300.36935
300.3098
300.25582
300.25987
300.32314
300.31668
300.35994
300.36001
300.28863
300.27925
300.25385
300.2373
300.27906
300.29658
300.33779
300.40193
300.44334
300.39703
300.40008
300.49925
300.48039
300.53724
300.57383
300.45744
300.43979
300.56876
300.52896
300.61721
300.45994
300.3386
300.24616
300.28545
300.37992
300.41799
300.31256
300.27328
300.37802
300.51638
300.55383
300.50058
300.65164
300.7246
300.69706
300.754
300.55784
300.40699
300.29325
300.3321
300.4455
300.45923
300.34225
300.25346
300.27636
300.26981
300.25686
300.23855
300.18319
300.196
300.24884
300.26487
300.20821
300.19648
300.20589
300.21661
300.17031
300.13573
300.13832
300.12686
300.12678
300.09941
300.07016
300.07014
300.06884
300.10155
300.13871
300.13355
300.16453
300.17242
300.17526
300.14114
300.13548
300.16669
300.20187
300.19962
300.19465
300.18689
300.22497
300.2132
300.18937
300.1795
300.1673
300.15344
300.13866
300.12447
300.0901
300.04232
300.02531
300.01283
300.00466
300.0004
299.99856
299.99806
299.99857
299.99926
299.99878
300.00251
300.01304
300.00435
300.011
300.02552
300.0349
300.02112
300.00909
300.01971
300.02629
300.0374
300.04855
300.05823
300.04201
300.03254
300.04668
300.03382
300.02769
300.01662
300.01146
300.01471
300.0241
300.02664
300.01094
300.00374
299.99836
300.00361
300.00323
300.00105
299.99881
299.99884
300.00267
300.00749
300.00286
300.00403
300.01001
300.01256
300.00913
300.00399
300.00589
300.00176
300.00099
300.00098
299.99938
299.99921
299.99895
299.99935
300.00126
300.00091
299.99902
299.99892
300.00114
300.00578
300.00399
300.00957
300.01603
300.02395
300.02162
300.03098
300.02129
300.01874
300.01086
300.00423
300.00875
300.02058
300.03435
300.02581
300.03174
300.04113
300.05719
300.04793
300.03684
300.0457
300.03299
300.0234
300.01929
300.01118
300.01422
300.02102
300.01628
300.0272
300.03551
300.04881
300.06371
300.07353
300.06728
300.07515
300.0818
300.09733
300.08813
300.08073
300.08979
300.08038
300.06854
300.06145
300.05212
300.05845
300.06906
300.06204
300.07302
300.08402
300.06698
300.08963
300.1033
300.09411
300.10577
300.11578
300.13721
300.12354
300.11069
300.12355
300.10741
300.09341
300.07926
300.07085
300.08099
300.09805
300.11006
300.08604
300.06737
300.04935
300.06433
300.07454
300.06828
300.08178
300.08918
300.09877
300.08316
300.0765
300.09122
300.08176
300.07404
300.06243
300.05303
300.06299
300.07037
300.0597
300.06988
300.07531
300.05409
300.03659
300.02627
300.04758
300.06823
300.07721
300.05367
300.04033
300.05963
300.04089
300.03831
300.05531
300.05198
300.04687
300.03598
300.04671
300.02602
300.03809
300.03513
300.04345
300.0373
300.04166
300.04812
300.0595
300.05446
300.06105
300.07175
300.08498
300.0951
300.10433
300.11725
300.10722
300.12492
300.11159
300.09887
300.08176
300.09071
300.08056
300.09479
300.10868
300.1225
300.11071
300.12688
300.11702
300.14216
300.1262
300.14231
300.16068
300.1864
300.16655
300.14537
300.16178
300.13512
300.12143
300.09912
300.08952
300.07256
300.06565
300.05826
300.05078
300.04599
300.03656
300.04064
300.04705
300.04269
300.05356
300.0602
300.04638
300.0258
300.02097
300.03032
300.02247
300.02502
300.03332
300.0372
300.03446
300.02564
300.02814
300.02956
300.02731
300.03745
300.04744
300.05207
300.05607
300.05193
300.06786
300.07363
300.05642
300.03005
300.0416
300.04021
300.02813
300.0296
300.0419
300.04014
300.04095
300.03859
300.03482
300.02299
300.01534
300.01039
300.00344
299.99835
299.99878
300.001
300.00306
300.00726
300.00259
300.00275
300.00378
300.00876
300.01213
300.00977
300.00391
300.00562
300.0041
300.01202
300.00452
300.00916
300.01255
300.01814
300.0196
300.01376
300.01471
300.01365
300.01976
300.02097
300.02116
300.0204
300.01291
300.00351
300.00873
300.00935
300.00548
300.00548
300.00605
300.00982
300.00981
300.00582
300.00431
300.00452
300.00255
300.00701
300.01233
300.01356
300.01408
300.01213
300.01999
300.02012
300.01902
300.0131
300.01306
300.01224
300.00464
300.0036
300.00896
300.00958
300.0094
300.01285
300.01858
300.02298
300.02615
300.02889
300.02573
300.03422
300.03811
300.04108
300.05313
300.04815
300.05254
300.06857
300.07368
300.06688
300.07083
300.06343
300.07587
300.06406
300.0682
300.08114
300.08977
300.08283
300.09032
300.10855
300.09971
300.10764
300.11825
300.09884
300.10549
300.09508
300.11461
300.12723
300.13533
300.11285
300.10048
300.12053
300.10373
300.0998
300.09484
300.08876
300.1029
300.11748
300.12955
300.14132
300.12669
300.1469
300.13675
300.11737
300.09666
300.08658
300.09086
300.08022
300.08339
300.07099
300.08516
300.08939
300.07346
300.08556
300.09461
300.09349
300.11445
300.10947
300.12387
300.1002
300.10135
300.12803
300.15486
300.13447
300.15205
300.16129
300.14061
300.16035
300.12972
300.11781
300.11957
300.10643
300.09194
300.06328
300.04254
300.03044
300.01202
300.02965
300.0287
300.01655
300.02453
300.0242
300.01661
300.01655
300.0303
300.04399
300.06012
300.05743
300.08395
300.08761
300.06513
300.04263
300.04211
300.06245
300.06177
300.06019
300.05839
300.04584
300.04405
300.05082
300.05229
300.06616
300.07305
300.05622
300.05552
300.05856
300.05708
300.04278
300.04074
300.02855
300.02778
300.03029
300.03032
300.02877
300.0285
300.04201
300.05578
300.07418
300.09048
300.10014
300.12509
300.14581
300.16699
300.14292
300.16199
300.14353
300.16268
300.18742
300.2129
300.1884
300.16279
300.1803
300.21233
300.23734
300.19609
300.18078
300.14702
300.13662
300.12473
300.09983
300.08991
300.10754
300.11335
300.10796
300.11376
300.10822
300.10015
300.07922
300.05949
300.05997
300.05835
300.08
300.08308
300.08381
300.08338
300.07972
300.0581
300.05535
300.05865
300.07824
300.08235
300.05932
300.0404
300.04213
300.02814
300.02819
300.02693
300.04202
300.04092
300.04225
300.02712
300.02531
300.04097
300.04285
300.04109
300.0428
300.04219
300.03978
300.03595
300.02679
300.0298
300.02959
300.02707
300.03698
300.04026
300.04175
300.02939
300.03055
300.02942
300.02676
300.04074
300.05778
300.07794
300.07699
300.08126
300.10541
300.13137
300.15673
300.1796
300.20723
300.17646
300.18621
300.16726
300.19538
300.22419
300.25151
300.23448
300.19392
300.20663
300.25891
300.3073
300.33767
300.36086
300.32151
300.33824
300.37352
300.46724
300.43166
300.49234
300.44685
300.49917
300.42794
300.43353
300.41108
300.50466
300.46181
300.58782
300.62588
300.50627
300.61165
300.57236
300.51193
300.44638
300.60759
300.47873
300.60862
300.6725
300.51195
300.63223
300.83728
300.78036
301.00315
300.77738
300.86142
300.67251
300.83632
300.63244
300.56618
300.77723
301.00094
301.07841
301.3568
301.07903
301.12045
300.88976
300.68947
300.57058
300.60811
300.71735
300.89958
300.75874
300.73169
300.91691
300.73252
300.76093
300.90573
300.72435
300.69299
300.89246
301.12311
301.10685
300.92665
301.10155
301.31541
301.37717
301.62557
301.32085
301.047
300.80778
300.75556
300.87143
301.16505
301.00678
300.93967
301.11711
301.24711
301.27006
300.95688
300.99731
301.29256
301.32484
301.69344
301.61127
301.45125
301.21227
301.30253
301.50659
301.90222
301.64421
301.5839
301.30183
301.57967
301.20628
300.93325
300.67416
300.75534
301.00559
301.16414
300.87113
300.79266
301.10532
301.43955
301.51055
301.30281
301.64558
301.91182
301.89236
302.09163
301.58764
301.22562
300.87386
300.95615
300.70143
300.50222
300.52496
300.37128
300.25782
300.30401
300.42248
300.57921
300.60953
300.59154
300.77367
300.79244
300.7804
300.73341
300.67625
300.46279
300.32702
300.32789
300.37197
300.25825
300.17831
300.1224
300.08729
300.06728
300.06476
300.04847
300.0668
300.08439
300.11065
300.11391
300.14088
300.1116
300.10884
300.08527
300.08134
300.07472
300.05847
300.06219
300.04225
300.03833
300.03308
300.03517
300.04157
300.06886
300.10153
300.09625
300.06545
300.06617
300.09332
300.083
300.06051
300.05324
300.06565
300.0559
300.04626
300.0336
300.03077
300.02752
300.00955
300.02822
300.04647
300.05261
300.05329
300.0607
300.08702
300.07559
300.07121
300.06093
300.04899
300.04139
300.03748
300.03416
300.02963
300.02397
300.02298
300.02148
300.0162
300.01849
300.01662
300.01559
300.02183
300.02417
300.02514
300.01817
300.01706
300.01808
300.01751
300.02811
300.03105
300.03444
300.02293
300.02635
300.02957
300.02413
300.03322
300.04258
300.06142
300.05455
300.07245
300.11031
300.11477
300.06388
300.05721
300.03254
300.02501
300.02986
300.01987
300.01785
300.01594
300.01525
300.0196
300.02123
300.01505
300.01892
300.03643
300.04021
300.03931
300.04692
300.06434
300.05446
300.05353
300.04643
300.0337
300.03298
300.02457
300.02535
300.02857
300.03219
300.03746
300.0413
300.04591
300.06334
300.07911
300.0605
300.0539
300.07176
300.05805
300.07524
300.09741
300.10449
300.13051
300.13721
300.18205
300.18733
300.15558
300.21751
300.25318
300.24555
300.21033
300.15073
300.11814
300.0919
300.09575
300.14868
300.14266
300.1718
300.15948
300.11004
300.08534
300.13247
300.11687
300.0754
300.09903
300.1428
300.17854
300.19686
300.14162
300.10455
300.09616
300.12126
300.1591
300.17235
300.23164
300.21265
300.2368
300.25514
300.26853
300.27593
300.21043
300.21068
300.22084
300.17353
300.1733
300.13822
300.13541
300.12391
300.15793
300.1617
300.16971
300.17191
300.17507
300.14105
300.13544
300.16654
300.16418
300.13339
300.13844
300.13439
300.13098
300.11941
300.15101