/*--------------------------------*- C++ -*----------------------------------*\
  =========                 |
  \\      /  F ield         | OpenFOAM: The Open Source CFD Toolbox
   \\    /   O peration     | Website:  https://openfoam.org
    \\  /    A nd           | Version:  7
     \\/     M anipulation  |
\*---------------------------------------------------------------------------*/
FoamFile
{
    version     2.0;
    format      ascii;
    class       volScalarField;
    location    "310";
    object      nut;
}
// * * * * * * * * * * * * * * * * * * * * * * * * * * * * * * * * * * * * * //

dimensions      [0 2 -1 0 0 0 0];

internalField   nonuniform List<scalar> 
24866
(
7.9871355
7.993963
7.9907857
8.1778771
8.34244
8.3402624
8.336201
8.3404646
8.3397338
8.3348703
8.3351306
8.3351673
8.3348938
8.3397677
8.3405475
8.3361861
8.3400876
8.3413815
8.3405199
8.335994
8.3259471
8.340359
8.3708345
8.3582262
8.3324997
8.3285499
8.3363989
8.3604137
8.3556675
8.3291457
8.3383246
8.3413921
8.3413931
8.3383329
8.3291933
8.355715
8.3605212
8.3364912
8.3284418
8.3323263
8.358159
8.3707893
8.3403494
8.3259497
8.3360188
8.3405699
8.3414015
8.3401627
8.3361954
8.3404709
8.3398509
8.3349902
8.335128
8.3351426
8.3349533
8.3397322
8.3403457
8.3360847
8.3402264
8.3424874
8.3463461
8.3431123
8.3463375
8.3430537
8.3368247
8.339565
8.3453971
8.3420151
8.334427
8.3344147
8.3344391
8.3344307
8.3420667
8.3454462
8.3395725
8.3366941
8.3425454
8.3453011
8.3417844
8.342912
8.3376679
8.3299889
8.3283386
8.33909
8.3427738
8.3480367
8.3326385
8.328703
8.3364108
8.3485094
8.3426931
8.3379986
8.3369822
8.3377791
8.3361347
8.3335112
8.3360501
8.3350034
8.3385973
8.3361764
8.3339798
8.3336445
8.3336961
8.3343288
8.3350399
8.3350421
8.3348628
8.3377238
8.336793
8.3364936
8.3331123
8.3401472
8.3441446
8.3419295
8.3378152
8.3354802
8.3346241
8.3341175
8.3344671
8.3347832
8.3347132
8.3341972
8.3345921
8.3338336
8.3333659
8.3340015
8.3360048
8.3335509
8.332843
8.3330735
8.3339658
8.3348381
8.3353571
8.3351047
8.3351934
8.3348855
8.3344705
8.3348677
8.3346264
8.3367968
8.3378182
8.3331203
8.3401505
8.3441465
8.2387928
8.2354673
8.1650566
8.1703746
8.1771267
8.1771236
8.1703663
8.1680425
8.1366847
8.2614392
8.2641287
8.1430927
8.1679657
8.1698923
8.1639898
8.1380045
8.0966436
8.1118257
8.157695
8.1688359
8.1759798
8.1755516
8.1747241
8.172708
8.1718563
8.1691773
8.1670743
8.1591506
8.1591111
8.1670622
8.1690821
8.1715924
8.1731114
8.1744523
8.1675744
8.1752216
8.2404414
8.238721
8.1677431
8.103295
8.1763665
8.1780563
8.1699248
8.3391132
8.3357885
8.3391203
8.336225
8.3339466
8.3359588
8.333528
8.3328141
8.3330321
8.333902
8.334748
8.3352506
8.3353619
8.3354649
8.3351981
8.3347911
8.335051
8.33699
8.3377288
8.3427039
8.336504
8.1702162
8.1797998
8.2019915
8.2614965
8.1366384
8.1680224
8.0008546
7.988646
7.9903556
7.9903519
7.9886381
8.000864
7.9665347
7.9658603
7.9851511
8.0061589
7.9844737
7.9615816
7.9478302
7.9643313
7.9899558
7.9881485
7.9893654
7.9881994
7.994196
8.005631
7.9885321
7.9860219
8.0009507
7.9921028
7.9921616
8.0010426
7.9859979
7.98828
8.0060849
7.8414165
7.8316427
7.8254413
7.8256754
7.8313787
7.9936716
8.1741974
8.1732224
8.1714279
8.1691631
8.1670555
8.1591279
8.1591318
8.167194
8.168937
8.1719934
8.1727216
8.1749448
8.1754874
8.1761251
8.1688123
8.1577348
8.1118734
8.2303159
8.2760796
8.2633094
8.1381029
8.1641246
8.1699918
8.1678302
8.1428759
8.2641617
8.2086385
8.1431594
8.1401221
8.1017471
8.1681591
8.1637739
8.19572
8.234489
8.3485552
8.3364455
8.3286825
8.3380038
8.3427634
8.337788
8.3350531
8.3347259
8.3351142
8.3346056
8.3348465
8.3347517
8.3343156
8.333669
8.3332815
8.3340404
8.333503
8.3336716
8.3339088
8.3339768
8.3338497
8.3336654
8.3342145
8.3343471
8.3361493
8.3390853
8.3283483
8.3335361
8.3337205
8.335032
8.3340041
8.3333832
8.3330863
8.3330418
8.3332864
8.3340402
8.3362193
8.3339545
8.3328266
8.3328582
8.3340185
8.3362044
8.3386353
8.3418123
8.3360815
8.3300213
8.3377099
8.3429501
8.2372554
8.1723979
8.1621117
8.2333943
8.1640301
8.1730706
8.0994355
7.9851883
7.9881126
7.9900028
7.9643728
7.9478596
8.0967939
8.1228754
8.1330299
8.1837903
8.1918783
8.2021104
8.1662845
8.0995572
8.1359747
7.9686188
7.9616075
7.9844899
8.0061797
7.9851343
7.9658567
7.9665531
7.812359
7.8362577
7.8261057
7.8251504
7.8251472
7.8261007
7.8362682
7.8123483
7.8073366
7.8213868
7.8439421
7.8209393
7.8017341
7.7997498
7.8185987
7.8287092
7.8253444
7.8239421
7.8231551
7.8317995
7.8409836
7.8266018
7.8238703
7.8402485
7.8349076
7.8348739
7.8402674
7.8239005
7.8264246
7.6804906
7.6913915
7.6851706
7.6789084
7.6790875
7.684952
7.6915053
7.8415516
8.0062138
7.988128
7.9861447
8.0008612
7.9921124
7.9922197
8.0011116
7.9859166
7.9887352
8.0055498
7.9944494
7.9881209
7.9895321
7.8240786
7.8253023
7.8287507
7.8186433
7.7997688
7.8017597
7.8209729
7.843975
7.8213521
7.8073113
7.6656859
7.6713634
7.6867356
7.6799576
7.6785363
7.6785333
7.6799541
7.6867444
7.6713546
7.6657076
7.6753452
7.6955552
7.6744095
7.6588499
7.662146
7.6796599
7.6816202
7.679045
7.6772073
7.6768552
7.6851403
7.6909639
7.6805898
7.6782801
7.6919811
7.6886768
7.6886985
7.6920763
7.6783482
7.5459957
7.5475966
7.5548582
7.5515295
7.5460851
7.5462143
7.5513577
7.5549435
7.5474832
7.5460068
7.6784074
7.824004
7.8401368
7.8349278
7.8349404
7.8402851
7.8238249
7.8268322
7.8408865
7.8320262
7.8230823
7.6767963
7.6773081
7.6790028
7.6816513
7.6797005
7.6621544
7.6588692
7.6744437
7.6955892
7.675313
7.5430169
7.5364758
7.5417793
7.5509676
7.5469087
7.5455846
7.5455812
7.546906
7.550974
7.5417729
7.5364949
7.5430452
7.5598191
7.541426
7.5289904
7.5346253
7.5498879
7.5477604
7.5459214
7.5442369
7.5441869
7.5512966
7.554426
7.5476165
7.5458873
7.5563424
7.5543957
7.5544447
7.5564814
7.4331723
7.4255226
7.4266069
7.4311113
7.4297447
7.4253977
7.4254872
7.4296126
7.4311686
7.426502
7.4254881
7.4329221
7.5562455
7.6918765
7.6887019
7.6887616
7.6920582
7.6782804
7.6808191
7.6908763
7.6853235
7.551438
7.5441419
7.5443059
7.5458818
7.5477812
7.5499219
7.534628
7.529005
7.5414595
7.5598522
7.4362389
7.4229307
7.4185053
7.4230268
7.4280216
7.4258164
7.4247975
7.424794
7.4258138
7.4280256
7.4230225
7.4185221
7.4229548
7.436208
7.4206998
7.4109342
7.4173037
7.4301548
7.4262448
7.4248488
7.4234797
7.4236084
7.4293335
7.4306648
7.4265531
7.4253821
7.433006
7.4319454
7.4320115
7.3205078
7.3211459
7.3157099
7.3163624
7.318933
7.3187842
7.3155259
7.315586
7.3186826
7.3189661
7.3162624
7.3156378
7.3208938
7.3204403
7.4319598
7.5544178
7.5544961
7.5564466
7.5459286
7.5478341
7.5543635
7.4306296
7.4294411
7.423575
7.4235238
7.4248127
7.4262567
7.4301816
7.4173033
7.4109454
7.4207315
7.3109783
7.3238276
7.3136705
7.3106941
7.3143167
7.3165764
7.3155373
7.314869
7.3148655
7.3155345
7.3165782
7.3143141
7.3107088
7.3136905
7.3237994
7.310949
7.3033941
7.3096974
7.3202937
7.3158121
7.3146477
7.3136
7.3138183
7.3182269
7.3184649
7.3162415
7.3155436
7.3209633
7.3204317
7.2184988
7.2185798
7.2189358
7.215139
7.215451
7.216728
7.2172838
7.2149786
7.2150178
7.2172045
7.2167411
7.2153532
7.2150381
7.2186883
7.2185034
7.2185985
7.3205346
7.432049
7.4331283
7.4254574
7.4267567
7.3164318
7.3184543
7.3183094
7.3137941
7.313626
7.314615
7.3158169
7.3203135
7.3096953
7.303403
7.20491
7.2106946
7.2212482
7.2137112
7.211729
7.2144811
7.2150069
7.2146568
7.2143048
7.2143015
7.2146538
7.215007
7.2144796
7.2117419
7.2137275
7.2212227
7.2106677
7.2049029
7.2107794
7.2193962
7.2149323
7.2138752
7.2130926
7.2133393
7.216612
7.2162341
7.21527
7.2149507
7.2187437
7.1248392
7.1247328
7.1248167
7.1250384
7.1224184
7.1224706
7.1229137
7.1238376
7.1223105
7.1223352
7.1237741
7.1229108
7.1223728
7.1222962
7.1247981
7.1247343
7.1248273
7.1249825
7.218883
7.3210964
7.3156457
7.2150726
7.2154488
7.2162441
7.2166771
7.213322
7.213106
7.2138456
7.2149316
7.2194099
7.2107763
7.11936
7.1140595
7.1184135
7.1270461
7.1216007
7.1202986
7.1222729
7.1217319
7.1217545
7.1216537
7.1216506
7.1217513
7.1217307
7.1222722
7.1203097
7.1216138
7.1270232
7.1183891
7.1140536
7.1193637
7.1262988
7.1221157
7.1210947
7.1205032
7.1207363
7.1230804
7.122393
7.1222364
7.1222099
7.0361385
7.037956
7.0379035
7.037989
7.0381605
7.0363656
7.0362256
7.0361538
7.0372291
7.036308
7.0363225
7.0371765
7.036138
7.0361264
7.0362281
7.0379284
7.037903
7.0379922
7.0381013
7.0362841
7.122346
7.1224057
7.1224195
7.1231339
7.1207243
7.120508
7.1210675
7.1221108
7.1263072
7.0399115
7.0343704
7.0296692
7.0328917
7.0399419
7.036122
7.03528
7.0365932
7.0354244
7.0356147
7.0356944
7.0356915
7.0356112
7.0354221
7.036593
7.0352896
7.0361323
7.0399214
7.0328697
7.0296643
7.0343745
7.0399076
7.0361057
7.0350793
7.0346093
7.0348017
7.0364121
7.0356079
7.0359453
6.9554519
6.9558042
6.9570691
6.9570277
6.9571137
6.9572775
6.9560485
6.9557717
6.9554019
6.9564921
6.9560247
6.9560322
6.9564468
6.9553757
6.9556705
6.9559005
6.9570543
6.957026
6.9571101
6.9572148
6.9559558
6.9556073
7.0361069
7.0356473
7.036458
7.0347935
7.0346082
7.035054
7.0360975
6.9559045
6.9593149
6.9549305
6.950812
6.9531477
6.9589046
6.9563224
6.9557855
6.9565572
6.955048
6.9552764
6.9554729
6.9554701
6.9552727
6.955045
6.9565572
6.9557937
6.9563305
6.9588863
6.9531279
6.950808
6.9549352
6.9593147
6.9559154
6.9548604
6.954455
6.9545909
6.9556362
6.9548336
6.879268
6.8800253
6.8804874
6.8813868
6.8813383
6.8814243
6.8815981
6.8807474
6.8803786
6.8798552
6.8808777
6.8807376
6.8807402
6.8808372
6.8798206
6.8802751
6.8805926
6.881384
6.8813361
6.8814146
6.8815315
6.8806423
6.8801754
6.879325
6.954883
6.9556774
6.9545856
6.9544499
6.9548364
6.879668
6.8807731
6.8837955
6.880353
6.8767771
6.8784242
6.8831284
6.8814718
6.8811306
6.8814729
6.8798099
6.8799979
6.8802589
6.8802563
6.8799941
6.8798064
6.881473
6.8811375
6.881478
6.883112
6.8784064
6.8767739
6.8803583
6.8837985
6.8807861
6.8796911
6.8793084
6.8793804
6.8799999
6.8089116
6.8082875
6.8090916
6.8096245
6.8102902
6.8102306
6.8103162
6.8105038
6.8098987
6.8094729
6.8088898
6.8097982
6.8098846
6.8098839
6.8097606
6.8088485
6.8093672
6.8097399
6.8102986
6.8102284
6.810301
6.8104329
6.8097806
6.8092371
6.8083501
6.8089482
6.8800381
6.8793771
6.8793006
6.8085904
6.8089663
6.8101126
6.8127786
6.8100967
6.8070135
6.8081308
6.8119795
6.8110026
6.8107809
6.810793
6.8090953
6.8091993
6.809485
6.8094825
6.8091954
6.8090916
6.8107932
6.8107869
6.8110075
6.8119651
6.8081152
6.8070112
6.8101026
6.8127844
6.8101275
6.8089888
6.8086001
6.8086066
6.7418146
6.7418918
6.741391
6.7421839
6.7427577
6.7432808
6.7432129
6.7432979
6.743496
6.7430445
6.7425885
6.7420049
6.7427767
6.7430122
6.743009
6.7427407
6.741958
6.7424809
6.742884
6.7432996
6.7432113
6.7432778
6.7434205
6.7429133
6.7423253
6.7414578
6.7419274
6.7418139
6.808605
6.8121363
6.8152414
6.8122232
6.8130571
6.8147598
6.8137286
6.8142657
6.814716
6.8154295
6.8155017
6.8141412
6.7470971
6.7443047
6.7440707
6.7424122
6.7424115
6.7426934
6.7426911
6.7424078
6.7424087
6.7440712
6.7443102
6.7444633
6.7449343
6.7417799
6.7410782
6.7437296
6.7458029
6.7434647
6.7422835
6.7418712
6.6787367
6.6786214
6.678537
6.6781623
6.6789095
6.6795017
6.6799433
6.6798727
6.6799567
6.6801595
6.6797991
6.6793327
6.678784
6.6794122
6.6797387
6.6797339
6.6793773
6.6787327
6.6792237
6.6796386
6.6799716
6.6798718
6.6799323
6.6800793
6.6796554
6.6790468
6.6782319
6.678572
6.6786216
6.6787245
6.7418601
6.7422612
6.743448
6.7457945
6.7437225
6.7410791
6.741793
6.7449465
6.744459
6.6814605
6.6813386
6.6809276
6.6793522
6.6792407
6.6794999
6.6794981
6.6792378
6.6793497
6.6809295
6.6813452
6.6814659
6.6815951
6.6790066
6.6786077
6.6808709
6.6824586
6.6804019
6.6791824
6.6193457
6.6188626
6.6186943
6.6184976
6.6182439
6.6189262
6.6195205
6.6199209
6.6198536
6.6199366
6.6201375
6.6198266
6.6193639
6.6188698
6.6193565
6.619732
6.6197258
6.6193222
6.6188151
6.6192542
6.6196676
6.6199579
6.6198537
6.6199084
6.6200526
6.6196712
6.6190595
6.618315
6.6185318
6.6186943
6.6188485
6.619321
6.6791597
6.6803829
6.6824469
6.6808614
6.6786058
6.6790158
6.6816036
6.6215855
6.6216775
6.6215653
6.6210326
6.6195645
6.6193453
6.6195707
6.6195696
6.6193444
6.6195652
6.6210389
6.6215769
6.6216885
6.6215851
6.6194583
6.619284
6.6212073
6.6224085
6.6205981
6.56375
6.5624691
6.5619479
6.5617323
6.5614595
6.5613181
6.561926
6.5625106
6.5628961
6.562838
6.5629197
6.5631123
6.5628233
6.5623744
6.5619444
6.5622964
6.5626911
6.5626841
6.5622625
6.5618872
6.5622645
6.5626669
6.5629408
6.5628392
6.5628882
6.5630229
6.5626573
6.5620549
6.5613892
6.561492
6.5617307
6.56193
6.5624389
6.5637182
6.620575
6.6223909
6.6211918
6.6192753
6.6194593
6.5628199
6.5645684
6.5648136
6.5646963
6.5640857
6.562737
6.5624176
6.5626041
6.5626048
6.562422
6.5627463
6.5641038
6.5647225
6.564841
6.5645869
6.5628376
6.5628268
6.5644527
6.5653465
6.5109891
6.5095767
6.5082679
6.5077093
6.5074512
6.5071275
6.5070894
6.5076191
6.5081851
6.5085735
6.5085303
6.5086105
6.5087887
6.5085026
6.5080742
6.5077124
6.5079371
6.5083306
6.508323
6.5079035
6.5076535
6.5079649
6.5083497
6.5086253
6.5085325
6.5085761
6.5086949
6.5083269
6.507743
6.5071591
6.5071568
6.5074448
6.5076827
6.5082247
6.5095253
6.5109314
6.5653165
6.5644224
6.5628014
6.5089131
6.5088133
6.5102513
6.5105888
6.5104558
6.5098023
6.5085783
6.5081678
6.5083156
6.5083203
6.5081847
6.508608
6.5098494
6.5105186
6.5106567
6.5103136
6.5088741
6.5089777
6.5103414
6.4586195
6.4590657
6.4578075
6.4564644
6.4558674
6.4555693
6.4552113
6.4552697
6.4557199
6.4562605
6.4566656
6.4566428
6.4567215
6.4568792
6.4565808
6.4561781
6.4558853
6.4559878
6.4563664
6.4563585
6.4559546
6.4558254
6.4560702
6.4564323
6.4567237
6.4566463
6.4566846
6.4567815
6.4563969
6.4558383
6.4553363
6.4552344
6.4555523
6.4558227
6.4563926
6.4577141
6.4589483
6.4584779
6.5102764
6.5127432
6.5133887
6.5137201
6.5142291
6.5140124
6.5125185
6.4606861
6.4585681
6.4578998
6.4568031
6.4563095
6.4564232
6.4564369
6.4563542
6.4568784
6.4580119
6.4587132
6.4588848
6.4585006
6.457316
6.4574931
6.4081462
6.4090467
6.4093175
6.4081799
6.4067833
6.4061411
6.4058013
6.4054182
6.4055715
6.4059411
6.406451
6.4068871
6.4068916
6.4069688
6.4070988
6.4067728
6.4063994
6.4061753
6.4061546
6.4065092
6.406501
6.4061218
6.406115
6.4062934
6.4066291
6.406951
6.4068966
6.4069299
6.4069975
6.4065819
6.4060539
6.4056329
6.4054305
6.4057639
6.4060608
6.4066537
6.4080013
6.409079
6.4087481
6.4078172
6.4573418
6.457161
6.458342
6.4587258
6.4089463
6.4087526
6.4080924
6.4071255
6.4065529
6.4066416
6.4066737
6.4066547
6.4072942
6.4083384
6.4090676
6.4092926
6.4089075
6.407933
6.3605344
6.3607458
6.3614143
6.3615137
6.3604528
6.3589643
6.3582598
6.3578698
6.3574647
6.3577177
6.3580055
6.3584813
6.3589665
6.3590068
6.3590821
6.3591756
6.3588037
6.3584617
6.3583058
6.3581526
6.3584759
6.3584676
6.3581202
6.3582454
6.358358
6.3586651
6.3590359
6.3590139
6.3590426
6.3590717
6.358607
6.3581125
6.3577716
6.3574593
6.3577963
6.3581146
6.3587269
6.3601145
6.3610468
6.3608185
6.3600809
6.3598245
6.4075856
6.4085523
6.3606103
6.360984
6.3607381
6.3601041
6.3592704
6.3586171
6.3586938
6.3587603
6.3588259
6.3596143
6.3606024
6.3613743
6.3616843
6.3613355
6.3156707
6.3150126
6.3151818
6.3155933
6.3154972
6.31445
6.3128079
6.3120081
6.3115509
6.3111221
6.3114859
6.3116911
6.3121327
6.3126892
6.3127768
6.3128509
6.3128974
6.3124567
6.3121456
6.3120567
6.3117544
6.3120389
6.3120305
6.311722
6.3119958
6.3120436
6.3123229
6.3127647
6.3127864
6.3128106
6.3127904
6.3122541
6.3117931
6.3115306
6.3110912
6.3114205
6.3117564
6.3123881
6.3138376
6.3146348
6.3144806
6.313933
6.3136749
6.3143063
6.3146327
6.3143129
6.3137168
6.3130186
6.312277
6.3123565
6.3124816
6.3126677
6.3136625
6.3146503
6.3155046
6.3159451
6.2721281
6.2719656
6.2714254
6.2715119
6.2716273
6.2712775
6.2701473
6.268269
6.2673243
6.2667737
6.2663187
6.2668039
6.2669322
6.2673463
6.2679962
6.2681428
6.2682169
6.2682066
6.2676762
6.2673899
6.2673621
6.2668956
6.267133
6.2671241
6.2668623
6.2672997
6.2672886
6.2675457
6.2680792
6.2681541
6.268174
6.2680946
6.2674656
6.2670318
6.2668408
6.2662577
6.266567
6.2669183
6.267574
6.2691091
6.2697885
6.2696918
6.269333
6.2690898
6.2695872
6.2698451
6.2694306
6.2688736
6.2683053
6.2674669
6.2675609
6.2677756
6.2681325
6.2694127
6.2704922
6.2715008
6.229715
6.2305826
6.2305563
6.2301129
6.2300899
6.2298719
6.2291586
6.227788
6.2255828
6.2244321
6.2237628
6.2232841
6.223884
6.223965
6.2243728
6.2251212
6.2253305
6.2254068
6.2253396
6.2247169
6.2244384
6.224446
6.2238245
6.2240081
6.2239985
6.2237891
6.2243805
6.2243356
6.2245873
6.2252147
6.225344
6.2253593
6.225219
6.2244941
6.2240689
6.2239213
6.2232005
6.2234781
6.2238421
6.2245314
6.2261604
6.2267686
6.2267372
6.2265457
6.2263112
6.2266875
6.2268694
6.226359
6.2258247
6.2253527
6.2244219
6.224532
6.2248627
6.2254497
6.2271031
6.2284291
6.1891319
6.1909226
6.1920654
6.192158
6.1917911
6.1916744
6.1911083
6.1898181
6.1879148
6.1852929
6.1838869
6.1830948
6.182598
6.1832551
6.1833875
6.1838346
6.1846415
6.1849114
6.1849938
6.1848773
6.1842058
6.1838958
6.1838506
6.1831477
6.1832872
6.1832765
6.1831088
6.1837798
6.1837889
6.1840724
6.1847496
6.1849291
6.1849412
6.1847442
6.1839656
6.1835074
6.1833121
6.1825228
6.1827729
6.1831475
6.1838715
6.1855581
6.1862424
6.1863289
6.1862133
6.1859156
6.1861774
6.1863021
6.185749
6.1851874
6.1846981
6.1837236
6.1838422
6.18429
6.185152
6.1872683
6.1504567
6.1535219
6.1562356
6.1576213
6.1577366
6.1574318
6.1573185
6.156449
6.1541807
6.1510889
6.1479567
6.1463053
6.145427
6.1448988
6.145387
6.1459084
6.1464525
6.1471543
6.1475877
6.1476929
6.1474304
6.1468619
6.1464677
6.1460493
6.1455178
6.1456697
6.1456572
6.1454742
6.1459716
6.1463554
6.1467205
6.1472807
6.1476113
6.1476349
6.1472828
6.1466017
6.1460576
6.1454938
6.1448894
6.1451678
6.1455523
6.1462813
6.1478529
6.1490921
6.1493769
6.149077
6.1485184
6.1487563
6.1488096
6.1483867
6.1476915
6.146812
6.146008
6.146143
6.1466656
6.1477857
6.1135341
6.1166457
6.1226534
6.1272484
6.1283822
6.1282544
6.1280155
6.1281788
6.1275062
6.1232955
6.1172827
6.1137313
6.1120626
6.1111801
6.1105347
6.1102498
6.1121029
6.1127641
6.11298
6.113975
6.1140631
6.113261
6.1132118
6.1127115
6.110994
6.111241
6.1115528
6.1115394
6.111193
6.1109083
6.1125915
6.1130626
6.1131257
6.1140036
6.1140011
6.1130961
6.1129339
6.1122901
6.1104364
6.1106477
6.1111065
6.1115254
6.1121293
6.1132067
6.1164451
6.1166911
6.1154103
6.1144515
6.1151524
6.1146924
6.1146623
6.1138161
6.1116783
6.1116196
6.1118662
6.1123691
6.0860941
6.0863016
6.0886727
6.0977116
6.1055428
6.1054381
6.1051079
6.1048897
6.1053279
6.1058634
6.0983532
6.0893653
6.0865608
6.0859168
6.0850036
6.0838597
6.083612
6.0845865
6.0852745
6.0851896
6.0848659
6.0849759
6.0855067
6.0857541
6.085228
6.0844175
6.0846322
6.0854702
6.0854573
6.0845733
6.084313
6.0850892
6.0856121
6.08534
6.0849019
6.0849165
6.0853291
6.0854872
6.0848157
6.0838459
6.0840916
6.0850836
6.0857301
6.0857827
6.0874923
6.0930411
6.094264
6.0896888
6.0872736
6.0865201
6.0870024
6.0871939
6.0862794
6.0850558
6.084871
6.085662
6.0643508
6.0646179
6.0652871
6.0670673
6.0654912
6.065746
6.0661172
6.065916
6.0660007
6.0659512
6.0678265
6.0655959
6.0645346
6.0637106
6.0631214
6.0641588
6.0631587
6.063716
6.0651095
6.0646363
6.0647554
6.0654362
6.064194
6.0638318
6.0649927
6.063983
6.0643042
6.064287
6.0639165
6.0648956
6.0636844
6.0640331
6.0652665
6.0646702
6.0646927
6.0652521
6.0639107
6.0634356
6.0644464
6.0634812
6.0640249
6.0647686
6.0655582
6.0676585
6.0640753
6.0637184
6.0679915
6.067843
6.0667004
6.0670632
6.065723
6.064851
6.0656015
6.0640976
6.0616532
6.0608397
6.0677349
6.0756315
6.0809807
6.08409
6.0818082
6.0817607
6.0832664
6.0809494
6.0763182
6.0678796
6.0607212
6.0615093
6.0677516
6.0760402
6.0844286
6.0893786
6.0812006
6.0589432
6.0583738
6.0809723
6.0893131
6.083894
6.0758292
6.0693053
6.0632582
6.0611171
6.0728576
6.0741053
6.0850815
6.0856465
6.097593
6.0845781
6.083735
6.0895622
6.0842466
6.0967313
6.084028
6.0724768
6.0725802
6.0833984
6.0833295
6.0882183
6.0679856
6.0705181
6.0753228
6.0755871
6.0757458
6.0731046
6.0711325
6.069523
6.063062
6.0615401
6.0729246
6.0732989
6.084112
6.0967987
6.083683
6.0843765
6.0845993
6.0893409
6.0925759
6.090611
6.102122
6.0936283
6.094006
6.090362
6.0851408
6.0796428
6.0790988
6.0851698
6.0905676
6.0888994
6.1025677
6.0911675
6.0884937
6.0798969
6.0656868
6.0696338
6.0695868
6.0685884
6.0626533
6.0623593
6.0737673
6.0848924
6.0860353
6.0996547
6.0857041
6.0740534
6.085292
6.0896186
6.1182017
6.1182234
6.1213326
6.1157598
6.1147947
6.1179649
6.1158634
6.1504564
6.1884721
6.1935306
6.1877023
6.1494398
6.1545338
6.1635972
6.1522257
6.1910109
6.1962463
6.1895466
6.1517638
6.1533956
6.1915413
6.1921966
6.1540109
6.1194032
6.0901174
6.0970142
6.0955725
6.0921058
6.1032602
6.0952048
6.1253363
6.1357565
6.1413367
6.1256135
6.12804
6.1402592
6.1056867
6.1074255
6.1023837
6.1125614
6.105802
6.0958906
6.0905416
6.1192519
6.1263863
6.1370875
6.1264329
6.126148
6.1006575
6.0850932
6.0840753
6.0840086
6.0837984
6.084166
6.0855421
6.1010807
6.1015077
6.1013872
6.1015078
6.1014695
6.1282785
6.1286984
6.1323697
6.1311711
6.0971999
6.073486
6.082279
6.0807569
6.0288135
5.9705379
5.9609704
5.9612839
5.9711475
6.0295086
6.0425
6.0774619
6.0832348
6.0838506
6.0784397
6.0445217
6.0320029
5.9731491
5.963768
5.963803
5.9732039
6.0321198
6.0448023
6.0790918
6.0846681
6.0846804
6.090738
6.0823916
6.0711797
6.0617766
6.0618999
6.068175
6.0694256
6.0694296
6.0681233
6.061768
6.0616074
6.0709627
6.0821844
6.0904941
6.0838924
6.0834356
6.0775342
6.0418092
6.028166
5.9667711
5.9563462
5.9554548
5.9656559
6.027399
6.0411138
6.0769176
6.0827617
6.0824131
6.0765003
6.0418457
6.0079524
5.9794796
5.8995092
5.7394514
5.5517306
5.4350811
5.4363142
5.5549469
5.7431961
5.9019522
5.9810278
6.0097474
6.0449271
6.0837445
6.0867197
6.0768544
6.0781213
6.0857397
6.0627962
5.9748395
6.0325463
5.9876346
5.9341675
5.7468356
5.5981252
5.4810608
5.3212427
5.2146396
5.1066783
5.0641093
5.0635023
5.1051457
5.2121925
5.3172593
5.4763017
5.5939263
5.7416485
5.4773519
5.3412969
5.1596018
5.0388218
4.9102058
4.860107
4.8607058
4.9119105
5.0416489
5.1637214
5.3466907
5.4821668
5.3252635
5.5638353
5.8099304
5.8876037
5.8721449
5.9657916
5.9659815
6.0628674
6.0857493
6.0781284
6.0769214
6.0867793
6.0838328
6.0329088
5.9752279
5.888188
5.8722477
5.7776554
5.7774172
5.4505663
5.1157975
5.2211682
5.0476548
5.1670022
4.9993763
4.8410698
4.7021753
4.6306089
4.6301778
4.7001593
4.8376176
4.9950754
5.1609109
5.3196831
5.5571625
5.2149457
5.0406731
4.8386885
4.6316613
4.4636764
4.372727
4.3731176
4.4654325
4.6353395
4.843967
4.7071439
4.9202096
4.8702565
5.0737616
5.0733927
5.4506417
5.1148099
4.919487
4.8697966
4.6363063
4.6370033
4.3766148
4.46774
4.2719848
4.1633603
4.1629597
4.2704625
4.4642828
4.701709
4.9126853
5.1087663
5.4419969
5.0668932
4.8623336
4.6311554
4.3726381
4.1627107
4.0460098
4.0463356
4.1644853
4.163681
4.3760166
4.4662444
4.7056046
4.8423823
5.0467001
5.2204378
5.5646052
5.8106902
5.9350135
5.9880709
6.0103585
6.0453242
6.0791813
6.0713456
6.0540803
5.9818722
5.9036621
5.7488705
5.4839425
5.3251057
5.1668847
4.9985413
4.8399484
4.6330145
4.463254
4.2695733
4.161087
4.0453166
4.044782
4.1616335
4.3721615
4.6306029
4.8623658
5.0669042
5.4426506
5.1086145
4.9123549
4.7003907
4.462362
4.2678983
4.1603636
4.3705714
4.3708418
4.6294282
4.7004862
4.9130639
5.0428498
5.1647816
5.3485186
5.4829698
5.5993764
5.7475458
5.5607278
5.3222044
5.216011
5.1081624
5.0658302
4.862092
4.8619427
4.6288515
4.6995425
4.4615691
4.6302576
4.8376632
5.0405719
5.2152293
5.5587372
5.3209494
5.1618739
4.9949863
4.8373774
5.0409448
4.9119272
5.1074786
5.0654536
5.4441409
5.4444311
5.7732941
5.8068651
5.9336625
5.9810908
6.0094798
6.0712201
6.0799421
6.0855364
6.0791114
6.003033
5.9858028
5.8616562
5.8498162
5.8497743
5.8613716
5.9856672
6.0029441
6.0778114
6.0783637
6.070028
6.0788162
6.069779
6.0073519
5.9838677
5.8800612
5.862924
5.8615441
5.8781061
5.9824579
6.0058863
6.0685938
6.0776625
6.0685805
6.0506906
5.9770041
5.9274296
5.79855
5.7637619
5.7653433
5.8008953
5.9296263
5.9788702
6.0522854
6.0642652
6.0777788
6.0007869
5.9829066
5.8553363
5.8428743
5.8412671
5.8533394
5.9815105
5.9994337
6.0764988
6.0833833
6.0995591
6.0765976
6.0627918
5.9849969
6.0045655
5.9457928
5.8076029
5.8460451
5.7813357
5.4593192
5.5724569
5.754305
5.9139414
5.9875761
6.0019581
6.0073527
5.984439
5.9852736
5.9313243
5.8075291
5.8858038
5.8699014
5.7740233
5.7748302
5.8703349
5.8866629
5.8087483
5.9330331
5.744921
5.5966317
5.4795791
5.3198101
5.2146896
5.5592548
5.7454827
5.9024101
5.9808885
6.008865
5.9862482
5.9851518
5.8624341
5.8505264
5.8501093
5.8618062
5.8553205
5.8165481
5.9494153
5.7568477
5.5848885
5.5113923
5.4643945
5.4372134
5.4825991
5.3455206
5.4836413
5.4375501
5.3588466
5.1284621
5.2028286
5.2970436
5.2106853
5.1323073
5.1235728
5.0460509
5.0386512
5.1462058
4.9884799
5.1476474
5.2998082
5.5784392
5.2044577
5.1254999
5.1294626
5.0477951
5.1337493
5.2134169
5.0405125
4.8999318
5.0897757
5.4669241
5.7912583
5.7920362
5.8557086
5.8173706
5.9505963
6.0076921
6.0023417
5.9881893
5.9155513
5.7587984
5.5790993
5.4673575
5.0553648
5.055329
4.9476857
4.9754611
4.8985499
4.8834532
4.84956
4.8551546
4.6232228
4.6936862
4.8329031
4.8299587
4.9858289
4.8291706
4.83169
4.6185495
4.6048327
4.4283269
4.6874354
4.8814507
4.9730695
5.085733
5.0517161
4.9452922
4.8958079
4.8471891
4.85282
4.8973005
4.6919926
4.6222117
4.6168443
4.3340601
4.3542045
4.4466927
4.24892
4.4474312
4.4285689
4.688717
4.6177645
4.3338012
4.3540569
4.13886
4.1104355
4.2232197
4.1112016
4.1389947
4.0194817
3.9878986
3.9537261
4.0806743
4.3112821
4.6140149
4.6852623
4.829806
4.9895418
4.9794958
4.8111593
4.5729219
4.8124978
4.8305762
4.5895053
4.4077427
4.3861064
4.6682022
4.5917142
4.286835
4.2657933
4.6014543
4.8793527
5.5187101
5.6326045
5.8014385
5.9515642
5.9354988
5.791991
5.6228805
5.5179939
5.5195209
5.8479487
5.7829825
5.8096428
5.9476828
6.0058755
5.9863446
5.915514
5.7573496
5.5753003
5.4604383
5.0523556
4.9457788
4.8964801
4.9735623
5.0870965
4.8988595
4.8534332
4.8477315
4.882105
5.0485454
5.1342613
5.2128149
5.3004516
5.2051834
5.1256798
5.130402
5.1495446
5.0410856
4.8348695
4.69397
4.6225277
4.6170994
4.6888389
4.4294709
4.3340224
4.3545088
4.4482403
4.6218409
4.6076999
4.8313876
4.98867
4.99183
4.8374033
4.8336054
4.6923763
4.4312952
4.2246904
4.1112636
4.13936
4.2501337
4.1404369
4.0196837
3.9879229
4.1115933
4.33652
4.3574535
4.4503011
4.6979686
4.6280428
4.6215451
4.8559716
4.8897679
5.0534327
5.1346847
5.3632388
5.4413453
5.4867949
5.5887742
5.759312
5.5147832
5.4678649
5.4411429
5.4881242
5.350136
5.152971
5.3050841
5.5809714
5.2089132
5.1301364
5.1384314
5.2192653
5.0465114
4.9064213
5.0963795
5.4700036
4.9809378
4.9041374
4.9525231
5.0616825
4.8619146
4.8615032
4.6270652
4.3569892
4.1394881
4.0186638
4.0181163
4.1376757
4.3536588
4.6225446
4.8552379
4.8495686
4.9472874
4.898039
4.9745173
5.0893329
4.899414
4.8827488
5.0469619
5.13309
5.2133658
5.039879
5.147635
5.3001588
5.2033694
5.123992
5.1281717
4.9838908
4.8280409
4.687112
4.6169616
4.3327065
4.4261099
4.4451149
4.692031
4.8312778
4.6165717
4.6020827
4.8264936
4.8304223
4.9873037
5.1476378
5.1616201
5.3442224
5.4803086
5.4860833
5.4391039
5.4651912
5.3600211
5.3474681
5.4855355
5.7573986
5.5870599
5.5118852
5.4380212
5.2023952
5.1283042
5.1229994
5.0458683
5.0396375
5.2127669
5.5758962
5.2991195
5.1311802
4.9716386
4.8806225
4.6843278
4.424461
4.2204491
4.1090841
3.9863093
4.1077257
4.1361044
4.2459512
4.4439024
4.3513382
4.3295383
4.6129924
4.6194838
4.6901525
4.8977779
4.8534626
4.846615
4.8942298
4.9430688
5.463249
5.0875917
5.0531667
5.0534933
4.8536026
4.6200281
4.3516145
4.136768
4.1077732
3.9867562
4.1106206
4.2213444
4.2474135
4.4485979
4.4286726
4.3353372
4.6203154
4.6903223
4.6962502
4.8351089
4.618788
4.445429
4.4253148
4.3297105
4.61301
4.6847098
4.6909282
4.8325861
4.8278673
4.6036172
4.8304694
4.9857119
4.989983
5.151777
5.0450932
4.9054621
4.8881563
4.8547559
4.9025128
4.9514923
5.4698498
5.0611248
5.0950636
4.9789641
5.1366303
5.0509747
5.1272626
5.1316618
5.2060845
5.5808577
5.2180406
5.3038771
5.4891709
5.3510818
5.1494766
5.0412481
4.8987207
4.8809372
4.8466751
4.8943068
4.9431895
5.4634239
5.0881488
4.971387
5.1324514
5.0471624
5.1237491
5.1290736
5.202934
5.5768468
5.213739
5.3008468
5.4883538
5.758677
5.4407
5.3630567
5.4671466
5.4411196
5.7600855
5.5895067
5.5139846
5.915979
5.9370505
5.7964829
5.6296712
5.5270059
5.5272726
5.630318
5.7964995
5.9368309
5.794499
5.6254139
5.634656
5.5197773
4.8800273
5.1238417
5.1286124
5.6669627
5.8738588
6.1136305
6.1397129
6.1262981
6.1184627
6.0901266
6.095988
6.093947
6.1240188
6.1200186
6.119334
6.1207954
6.1162176
6.1252533
6.1351762
6.1403333
6.10645
6.1052826
6.0754161
6.0748795
6.1132243
6.1418519
6.1507161
6.1402347
6.1508256
6.1122881
6.0886845
6.0805012
6.0720946
6.0954724
6.103652
6.1069594
6.1424435
6.1413427
6.1052075
6.0801462
6.0605395
6.0606153
6.0801327
6.0735266
6.0736046
6.0975206
6.0974542
6.1322957
6.1285742
6.1282574
6.1311869
6.0972723
6.0736483
6.0823173
6.0808593
6.0888193
6.0806845
6.0724551
6.0697335
6.0760263
6.0840805
6.0901496
6.0832752
6.0618923
6.061965
6.0835419
6.0906954
6.0849361
6.0763947
6.0681695
6.0619556
6.0610043
6.0679896
6.0764179
6.0824162
6.0867349
6.0855272
6.0854451
6.0864626
6.0819128
6.0757
6.067569
6.0612061
6.0634903
6.0741289
6.0728685
6.0837254
6.0845616
6.0856359
6.0975324
6.0851278
6.1158025
6.1195761
6.1267364
6.1265453
6.1578
6.1598094
6.1604654
6.1606112
6.1598733
6.1574218
6.1932941
6.2324867
6.2742293
6.2803009
6.2749136
6.2713728
6.2288983
6.2343177
6.2283574
6.2710227
6.2767825
6.2878415
6.2742292
6.2317213
6.2370118
6.2300861
6.272749
6.2746784
6.2321103
6.2327525
6.2752467
6.2884267
6.2859517
6.2794222
6.3008919
6.2577083
6.2452608
6.2038894
6.2154914
6.174239
6.1573829
6.1628701
6.2023896
6.2045465
6.1647643
6.1809691
6.1811847
6.2237452
6.2246466
6.2693506
6.2458325
6.2434663
6.2672472
6.3115788
6.3148349
6.3191661
6.3358751
6.3303484
6.3089513
6.2880977
6.2456805
6.2328132
6.1926651
6.154685
6.1645598
6.2045457
6.2165528
6.1985399
6.1609061
6.1757269
6.1828019
6.166827
6.2049308
6.1956759
6.1964703