/*--------------------------------*- C++ -*----------------------------------*\
  =========                 |
  \\      /  F ield         | OpenFOAM: The Open Source CFD Toolbox
   \\    /   O peration     | Website:  https://openfoam.org
    \\  /    A nd           | Version:  7
     \\/     M anipulation  |
\*---------------------------------------------------------------------------*/
FoamFile
{
    version     2.0;
    format      ascii;
    class       surfaceScalarField;
    location    "60";
    object      phi;
}
// * * * * * * * * * * * * * * * * * * * * * * * * * * * * * * * * * * * * * //

dimensions      [1 0 -1 0 0 0 0];

internalField   nonuniform List<scalar> 
74922
(
-0.16878478
0.32441321
-16.374623
21.541817
-2.5336802
-2.7891421
0.10482594
-16.282796
-1.2116245
17.023612
-17.608953
17.97529
-0.0031953239
-18.152828
0.2277087
0.29988887
-0.00033920509
0.62101418
0.02448299
-0.42243613
0.68734276
-0.63341867
16.347728
-1.9077212
-2.0911203
29.524304
-0.32733311
-0.83791658
21.548364
1.7766534
-0.62127108
17.64161
-0.49266507
-2.1458189
24.774335
-0.083308982
-1.6720783
27.797492
0.35616058
-1.6744066
27.855658
-1.8442471
-2.1532336
24.916306
0.33654678
-0.61022594
17.773733
1.8326288
-0.82977476
21.696958
-0.46549571
-2.0874938
29.813346
-0.74564549
-0.65229177
16.494229
0.46974996
-0.48619826
18.423589
0.40254195
-0.51027976
18.294961
0.26307469
-0.77015522
16.693476
-6.5420298
-0.6984592
29.909622
-7.2600259
1.6403605
27.551483
3.6774656
-0.13930776
28.554126
7.101642
1.5484384
19.843717
4.5903705
-1.9582113
25.435741
-2.6570904
-3.9659348
26.016442
-3.397952
-1.3277355
22.480654
0.85307536
1.3414994
17.491787
7.6451982
2.1683724
24.760341
-0.74006841
-0.22297516
28.387577
0.042650908
-0.68468849
16.418521
0.00042645843
-0.6235457
17.933222
-0.042351417
-0.62374014
17.93325
0.73959525
-0.68544331
16.419172
-7.6303801
-0.22541623
28.3793
-0.85285087
2.16273
24.752603
3.407362
17.464771
1.337001
2.6603156
22.441046
-1.332263
-4.6055908
26.057071
-3.9595225
-7.09713
25.497166
-1.9439754
-3.6749357
19.860156
1.5667701
7.2702048
28.579463
-0.1117259
6.5571049
27.577232
1.6594919
-0.27135281
29.92721
-0.68728917
-0.37630574
16.706759
-0.76452535
-0.493785
18.293556
-0.50803742
0.7876202
18.425187
-0.48367976
0.41954776
16.46295
-0.65222925
-1.7986134
29.797284
-2.0810956
-0.41584969
21.629036
-0.83396713
1.7884005
17.688173
-0.6018765
-0.50471839
24.848292
-2.1445234
-0.094066823
27.820947
-1.6636237
0.35360132
27.847289
-1.6709659
-1.8041175
24.901743
-2.1663552
0.25815224
17.680383
-0.61639852
1.9775138
21.629812
-0.80909553
-0.73628791
29.61701
-2.0749483
-0.55145025
16.38117
-0.62594904
-0.42366205
18.148266
-0.3976564
0.80853225
7.5353532
0.3997221
31.279015
-0.1885787
-0.16751654
0.83380155
7.5332426
1.4033561
5.8003078
-3.8803913
-1.1922563
33.055911
-0.51147443
-3.4947244
1.5315716
36.000241
1.3807716
7.9752567
2.5995373
5.9192068
-0.18844206
-1.6743939
25.936296
-0.051174709
-3.1563321
29.026377
0.10603769
-3.1559776
29.069171
-2.6459078
-1.6889288
26.042709
-1.3989932
5.9497159
0.5260414
8.0252196
3.9655339
-3.5102693
1.548541
36.145331
-1.2445218
-1.2742513
33.179936
-0.80326892
5.8264323
-0.37211838
7.5761627
0.66140402
-0.73793379
-0.3874602
30.998681
0.68930812
7.44111
0.80102006
5.7529929
-5.9263687
-1.0620053
31.556681
-7.1498783
-3.5013254
38.344508
-1.3464891
-5.1814464
40.892675
1.3771611
4.4511452
-6.0320934
44.687654
7.0939689
8.4631123
4.9152551
8.9894203
-3.4712815
-0.56725744
25.331223
-4.6545168
8.2509326
0.55361435
7.8798864
2.8206655
-4.9125795
3.2238519
42.347414
-5.7929664
47.733114
0.020373219
-6.9508659
1.3099933
42.821294
2.0453503
-7.03369
42.419819
3.9928505
-6.4070685
40.547069
3.9007176
-5.1108661
38.071625
-3.5995966
38.401797
3.6417309
-3.8636727
-4.2659225
38.119903
-2.6701933
38.875578
-4.8273347
-1.9686952
37.59901
-5.0853484
-3.0636319
39.689285
5.0981928
-4.2079053
-3.8841081
41.554209
-3.827757
40.038876
-2.3002114
-5.9554626
41.79535
-0.28921178
-6.3815735
43.06614
1.7036736
-6.3665832
43.265163
6.2879958
3.3791239
-5.937861
42.281699
2.8772151
41.255515
3.3715017
3.6986531
-5.0757995
38.646034
6.8876611
38.196824
-0.80499353
-0.78586912
32.884351
-0.42562447
5.7043675
-0.4924373
7.3718292
-0.7518269
-0.75192826
0.49390557
30.68679
-3.6578893
38.7218
-4.1357856
-4.1386968
3.6572715
38.423759
-5.1478135
40.570122
-3.9447479
-3.9569886
5.1393619
42.300034
-1.9784736
-4.4092562
43.726332
0.29376009
-4.6474468
44.43379
2.4826824
-4.6540414
44.245899
-4.4097428
43.206569
4.544792
-2.2430678
-2.6237775
44.211071
5.6770524
-2.0034456
42.60237
5.6799843
-1.5764994
40.479255
4.414275
-0.90258171
38.127751
-0.3402676
37.3836
-4.9345537
0.044272143
33.541201
-6.0776526
0.05389601
37.835386
-5.9600485
0.075646669
40.790039
-4.7011046
0.10517736
43.050965
-2.679511
0.138652
44.645662
2.3397835
0.17390264
-0.2520325
45.554339
-0.27318939
45.165849
2.1795891
-2.3231567
45.382937
4.3869331
-2.2058716
44.865009
5.9211811
-1.9930442
43.732175
3.3841698
-1.7102353
6.2772587
42.29041
5.0712104
40.573537
3.6983166
-2.8779553
3.3717781
38.65001
0.78874173
38.72345
-0.80439407
-6.8836552
32.884938
-0.42618396
5.7045628
7.3719784
0.40009091
4.3917768
2.5801107
2.2013263
3.9033274
0.13705309
2.427207
-0.30316338
-0.059770441
-0.13564561
0.52839409
16.271316
-9.006425e-05
17.657028
0.14033894
0.13514495
17.657342
0.14018738
0.52686475
16.270625
-0.13701491
0.83548061
30.98871
-2.6865605
-16.82425
0.12822518
19.126142
-1.5553238
1.5311173
6.3720709
14.352328
4.6192927
-0.55792708
16.015047
-1.1441991
0.11022748
23.826725
-1.9870648
-1.3182125
30.995661
-3.4519535
-0.36997014
27.870672
-2.5638968
2.5541426
23.614197
-22.90519
-2.5094079
-0.24171546
16.020671
-11.401979
-1.7454843
-3.9936791
19.393827
-14.046243
-1.7535284
-1.024574
30.12243
-2.7584352
-0.43709215
16.482562
-0.20608735
-0.23829486
17.878253
0.23385292
0.1418527
17.796227
0.21511611
0.34058571
16.430485
-0.04860137
-0.26648395
32.04446
-1.483109
0.18652956
20.946366
0.24074658
0.6310566
17.271889
-0.030600469
0.015502766
26.824176
-1.3789721
0.057881375
29.012385
-1.2233334
0.076021011
28.987092
-1.2225269
-0.58631813
26.739955
-1.3775563
-0.17979671
17.187038
-0.033571588
0.25014432
20.820885
0.24052605
-0.43916862
31.809074
-1.4666059
-0.04576974
-0.081070962
-2.2016826
-0.21243021
2.4494141
-2.5674022
3.0834163
-0.29719617
0.43554263
4.5302977
4.0341679
4.8223362
-0.1701561
-0.83044246
-6.0194566
-1.9565111
-2.4893128
32.337412
-2.4757075
1.9501119
-38.983271
37.994185
-1.9151598
-2.6787449
3.0936783
-3.3903486
-2.5676681
1.1748453
3.4177063
-3.6878239
-3.7282685
38.165193
-2.5403598
38.965133
-1.9517416
-4.7306158
37.514775
4.4073544
-0.97733928
-5.6438162
38.026857
-0.40814358
37.274838
-4.9327912
33.503248
-6.0680993
37.79444
-5.9356178
1.6783873
40.730292
-4.6640253
2.1460372
42.948591
-2.6428436
2.4348836
44.48439
-0.23028199
2.5894346
45.342814
-0.21005088
2.2859095
2.6399268
45.56301
2.2829599
45.79118
4.6128227
0.24592224
45.390907
6.3397095
0.27862411
44.447139
6.9319779
0.28247552
43.280639
1.3120627
5.78046
0.018201571
42.836415
4.9072567
41.264067
3.2224797
-0.551209
2.8208427
42.351857
38.196828
4.8951849
3.0688596
-3.5503647
38.839219
-5.0560705
-2.7171701
1.0377672
6.2132377
0.36135006
-6.3704067
0.49357425
3.1596623
16.806402
1.5332059
-0.83683384
0.12804898
-1.5513381
19.136218
30.993335
-2.6847167
1.0299319
2.2136938
29.789816
-2.1755848
0.049161632
17.036386
0.029058893
-0.00051571632
18.060799
-0.41811601
-0.049942624
18.061268
-0.41847349
-1.031183
17.036516
0.02914368
2.2114076
29.790242
-2.1769242
0.03924592
21.75482
-0.57138248
-0.98952105
17.363537
-0.38762534
-1.7506535
25.614079
-0.96811043
1.2537948
29.469573
-1.4935541
1.2094946
29.120151
-1.3232544
0.39609143
25.26865
-1.1332976
-0.16161865
17.343083
-1.0614116
-1.3170698
21.75883
-1.3286845
0.47175767
29.846168
-1.6453602
-0.25020902
17.021465
-0.041950149
-0.28957907
18.10453
-0.27797088
-0.23167105
18.0974
-0.4150908
-1.3230428
17.133928
0.20122482
1.665983
30.201361
-1.2819538
0.037292733
22.415658
0.15827297
-0.99920218
18.148847
0.19288855
-0.075803105
26.500066
-0.54905068
0.037616557
29.997751
-1.0812292
0.14051834
29.939375
-1.0824826
1.0232374
26.417192
-0.55394009
-0.0375007
18.093639
0.18757805
-1.7083583
22.32969
0.1610182
30.053939
-1.3006613
0.13417246
0.11790711
30.800695
-0.97799633
0.067823439
17.514079
-0.39478987
-0.0022763887
18.694474
-0.62884731
-0.068810583
18.696207
-17.979432
-0.62988935
-17.034094
17.518995
-0.13049575
-0.39381269
-16.299325
-1.2093636
0.10738597
0.17135442
0.44514513
-0.21762537
-0.042844811
-0.2379979
31.852859
-1.4618544
0.20859969
20.865204
0.25385058
0.63980158
17.235129
-0.033090106
0.021348177
26.791264
-1.3821219
0.07550376
29.009172
-1.2216756
0.10127843
29.011145
-1.2158494
-0.57385024
26.790504
-1.3702022
-0.14618474
17.244265
-0.023597227
0.28026899
20.909577
0.23241483
-0.33159556
31.994282
-1.4767107
-0.1453986
16.41642
-0.047628189
0.23857706
17.792041
0.21735694
0.43197911
0.23557784
17.880359
1.0233759
-0.20274505
16.488744
3.9920802
30.132786
-2.753496
-14.049903
19.395516
0.24152855
-1.7542486
-12.006458
11.417609
14.234158
9.7699461
6.8441953
22.947865
6.3555058
0.36952175
2.550844
-2.5133299
23.605486
1.3139587
27.844681
-2.5657601
-0.11445259
30.971938
-3.4527236
0.54914332
23.851192
-1.9845328
-14.31794
-1.1403472
16.038192
4.6187604
2.762298
2.3500367
-0.090568497
1.9737004
-0.26118113
2.555523
-4.5994706
15.341932
-2.1492651
-3.1647351
-3.538752
3.9643619
0.58986013
-4.2173668
6.8409873
0.69345073
-6.4818064
-7.8793059
0.12318712
4.6591168
3.4721724
8.2521262
-0.55844836
25.338566
-4.9195098
-4.4529765
47.748412
-6.0121696
1.3456139
44.712502
1.3517501
-7.0064488
2.0439728
42.441068
-6.3443356
2.2942546
43.088065
-4.6070396
2.4686575
44.266563
2.5981635
45.181949
-2.179177
4.5225941
4.353576
44.232839
0.20520321
4.6669771
44.661308
2.4985769
4.6178078
44.492391
4.4134994
4.3580249
43.712714
5.5883528
3.8424721
42.30935
3.0354522
40.327241
-4.8666647
39.542308
-3.900669
4.8214184
41.122373
-2.21227
5.5456318
42.317286
-0.17353564
5.8998997
42.962727
1.9375892
5.9328947
43.069834
3.8256367
5.658259
42.624747
-4.1955806
5.0509916
5.0737529
41.578706
5.9104822
43.231815
6.3736493
3.8222945
41.821141
5.1572954
3.9919176
40.571827
7.153191
40.921177
-3.4792787
5.9285405
38.371608
-5.0759408
3.8983514
38.09632
4.2602581
40.064006
-3.82216
3.6341685
3.5695924
38.13769
-3.0131379
4.814432
39.705558
-1.5208549
5.6625842
40.495233
0.13259996
6.056835
40.807356
1.7351527
6.0444274
40.748841
3.0865866
5.6165536
40.343954
4.701136
39.552996
-1.98371
3.4801439
37.541015
-1.0096062
4.3961037
38.05594
-0.083345011
4.9210697
37.817438
0.87290674
4.9180851
37.846497
1.9392329
4.3952739
38.129167
2.643891
3.4935203
37.598173
0.37084846
1.2607936
38.877976
-0.73682633
0.6540331
31.006903
0.36298164
1.0422374
38.422762
-0.80317849
31.578018
-0.67669133
5.7562863
7.443209
2.5916542
0.447291
4.4042638
0.10379112
-0.34028651
3.0637275
-2.2356452
-0.27719473
2.413886
3.9679321
-0.16292359
4.8016159
-0.94795489
6.0493118
-2.1482581
16.328541
0.038888478
0.27723494
-2.7248832
21.510349
-2.7730479
-0.47444295
-0.24798621
17.024512
1.3148125
29.852167
-1.6408469
0.16064761
21.762562
-1.3287442
-16.007953
-0.40227698
17.345605
-1.0624107
-1.7492843
-3.1753663
20.110032
-6.2040405
-3.4265717
-4.0463833
3.8921428
0.40544587
-2.3610574
0.92450807
6.9938873
-8.9839097
0.43675459
2.5241222
4.2681381
5.2921791
0.37944213
-2.2229909
-2.5396962
18.717905
1.136588
27.341554
-1.4563459
-8.223167
-0.080723887
-1.2103785
25.271296
-1.2539344
29.123183
-1.3269102
1.7478366
29.470651
-1.495195
0.99258027
25.610651
-0.96653425
-0.040681739
17.360015
-0.38562852
21.753342
-0.56876298
-0.35673888
0.032117674
22.832852
-0.75177015
0.0044546891
30.725117
-1.288466
0.011047025
17.535742
-0.47525401
-0.0006082328
18.753126
-0.65877923
-0.011827521
18.753509
-0.65912649
-0.0056290708
17.535905
-0.47492964
0.35516101
30.725379
-1.2880972
0.031053234
22.833077
-0.75178345
-0.34784839
18.468349
-0.69324889
-0.34611872
26.819296
-1.1639288
0.18338964
30.325649
-1.3479438
0.47203545
30.294946
-1.4116769
0.25551439
26.789413
-1.2337671
-0.1328775
18.470016
-0.69435942
-0.59779568
22.842172
-0.61866303
-0.24869034
30.714035
-1.20208
-0.19168306
17.512943
-0.50976975
-0.24299662
18.74751
-0.56495476
-0.17709798
18.749431
-0.69491514
-0.22762032
17.573702
-0.35885313
0.064541141
30.884855
-0.95427982
0.00202042
23.044104
-0.60038034
-0.17446907
18.668888
-0.41483029
-0.129374
27.039847
-0.62720907
0.019981364
30.490969
-0.64775218
0.1560739
30.483864
-0.64710175
0.1859523
27.011495
-0.62745445
-0.0099669243
18.632956
-0.41822873
22.990249
-0.59186686
-0.042391096
0.014012606
23.236513
-0.21784918
0.020919241
31.091207
-0.35062014
0.0033547421
17.685774
-0.15317758
-0.0012796325
18.910917
-0.21227162
-0.0043161026
18.911602
-0.21279804
-0.01854949
17.687075
-0.15276253
-30.81427
31.0953
-0.35030534
0.054325865
-30.082501
-0.97684129
0.13537131
1.7289453
-1.2975299
0.06358819
0.17509688
22.355988
-0.97507173
18.115022
0.18530079
-0.05470848
26.472678
-0.55438449
0.061062499
29.991261
-1.0810267
0.16698596
29.954991
-1.0775518
1.0553926
26.450397
-0.54379926
-0.0048952184
18.130489
0.2005928
-1.6340247
22.393723
0.14456481
1.3303386
30.177962
-1.2793512
0.23313923
17.125322
0.20174367
0.28740263
18.093915
-0.41326245
18.105341
0.1902824
-0.2421077
18.748639
-0.56472733
0.24672617
17.514942
-0.50811456
0.59568379
30.717554
-1.199488
0.13190391
22.844391
-0.61856206
-0.25665911
18.471172
-0.69353914
-0.47322682
26.790244
-1.2330376
-0.18444632
30.295224
-1.4108024
0.34512421
30.325605
-1.347453
0.34657127
26.819069
-1.1647119
18.468094
-0.69450335
-0.0092688637
-0.095864039
18.802789
-0.22706052
-0.11691263
23.205207
-0.26275327
-0.040453054
31.087619
-0.43536125
-0.026561301
17.703909
-0.18073618
-0.00063019698
18.944399
-0.21616016
0.025934547
18.944452
-0.21644833
0.039631285
17.704015
-0.18048156
0.11591711
31.08779
-0.43509275
0.0086871545
23.205322
-0.26304237
-0.096506102
18.802935
-0.22687281
-0.099252087
27.219545
-0.39472612
0.019546156
30.673815
-0.4605951
0.1086192
30.683318
-0.46828463
0.059683898
27.241151
-0.39832385
-0.065962527
18.81856
-0.22278867
-0.25187999
23.21369
-0.18673175
-0.17588116
31.065481
-0.42413764
-0.13357185
17.679537
-0.20766389
-0.14782028
18.929577
-0.16647086
-0.076909897
18.929509
-0.25002479
-0.087623455
17.713275
-0.12673686
-0.0022283244
31.135117
-0.33165788
0.0020727959
23.267467
-0.22646608
-0.033739552
18.858402
-0.15164053
-0.028443036
27.275199
-0.23466883
0.0066706307
30.702837
-0.23972306
0.037993511
30.695151
-0.23904845
0.032186703
27.255031
-0.23512721
18.836549
-0.1554942
-0.025925782
0.018236071
18.879469
-0.03652868
-0.044355777
23.287597
-0.033476138
-0.018093445
31.143492
-0.078375976
-0.0094674273
17.711558
-0.034383773
-0.0014560734
18.942195
-0.039380364
0.0079796797
18.942037
-0.039937588
0.018206813
17.710895
-0.033940607
0.049578895
31.142378
-0.078107509
0.032840803
23.287825
-23.242219
-0.029500519
-18.839556
18.878627
0.031505462
-0.038128758
-18.644503
-0.0061285309
-0.028234316
-0.15926352
-0.14624929
-0.42340876
-0.031061025
-0.10211007
27.019041
-0.6329105
0.04806394
30.484307
-0.64906469
0.1860479
30.494164
-0.64399202
0.21811486
27.035915
-0.61985575
0.02282322
18.659501
-0.4079625
-0.040381833
23.030921
-0.61239145
0.23609282
30.873939
-0.95160177
0.17905124
17.570121
-0.35760614
18.748149
-0.69431235
0.1470539
-0.078133568
18.930151
-0.25003441
0.13242541
18.931123
-0.16653864
0.17429057
17.68112
-0.20680668
0.25020292
31.067838
-0.42288942
0.065303797
23.215074
-0.18689852
-0.060291976
18.819343
-0.22244668
-0.1091983
27.241756
-0.39809571
-0.020134741
30.683556
-0.46821048
0.098631107
30.673805
-0.46060169
27.219407
-0.39483009
0.014125732
-0.032683662
27.317154
-0.080723394
-0.017338009
18.87954
-0.047202391
-0.060120337
23.291559
-0.045271821
-0.038211754
31.159766
-0.094100104
-0.020184889
17.726999
-0.040899334
-0.00035917949
18.963219
-0.038225488
0.019777632
18.963155
-0.038413647
0.037716409
17.727033
-0.040740214
0.059559812
31.159847
-0.093949658
0.017022857
23.291599
-0.045442159
-0.014467635
18.879602
-0.047093925
-0.033017042
27.317214
-0.080654058
-0.025129268
30.759093
-0.093718712
-0.013472884
30.764867
-0.09304683
-0.024153069
27.329748
-0.078683682
-0.047314813
18.88781
-0.047713619
-0.11495377
23.293525
-0.014587366
-0.093664921
31.139101
-0.095041483
-0.066680365
17.707597
-0.055052886
-0.069908943
18.948109
-0.014954306
-0.030163465
18.948431
-0.058301218
-0.02216801
17.725191
-0.019433438
0.011239155
31.169453
-0.067348472
0.012391916
23.308308
-0.042200831
0.0076052154
18.895781
-0.032447081
0.0026848958
27.331951
-0.051254467
-0.0028150784
30.762264
-0.054181999
-0.0096909797
30.755104
-0.055000347
27.315052
-0.053859866
-0.029774143
0.022370834
27.346287
-0.026689439
-0.029487352
18.897649
-0.020231805
-0.046420031
23.305286
-0.0020786032
-0.024525666
31.153898
-0.032714011
-0.011057521
17.71381
-0.01625947
-0.0015667693
18.943221
-0.010985741
0.0090782044
18.942701
-0.011774269
0.022688794
17.712414
-0.015639438
0.046198801
31.150766
-0.032255045
0.030869879
23.303114
-0.0011527371
0.033447241
18.895378
-0.02044848
-27.313634
27.3438
0.028354129
-0.026598957
-27.25705
0.029123737
-0.054942879
8.9171957e-05
-0.23965114
0.036196951
30.694437
-0.24126881
0.067904452
30.702234
-0.23724396
0.062048076
27.275041
-0.22943332
0.014435932
18.856601
-0.14695452
0.018390698
23.263047
-0.23520517
0.093313731
31.133008
-0.33039908
17.713279
-0.12599781
0.030276528
-0.024492088
17.727113
-0.019218979
0.068830635
18.950215
-0.058286761
0.065647953
18.94987
-0.015224885
0.0923783
17.708977
-0.054585855
0.11373681
31.140855
-0.094495031
0.046829023
23.294421
-0.01480632
0.023757339
18.88831
-0.047514351
0.013153455
27.330138
-0.078542451
0.024823441
30.765031
-0.092987167
30.759116
-0.093723058
0.01250404
-0.027559645
30.800719
-0.028552312
-0.0060124026
27.359849
-0.026221547
-0.018965561
18.909132
-0.018499896
-0.041698099
23.321221
-0.0086540807
-0.026712233
31.178213
-0.034093699
-0.012746304
17.729644
-0.017162932
-0.00016336537
18.961192
-0.010921789
0.012519938
18.961134
-0.011028553
0.026435295
17.729641
-0.017075116
0.041407304
31.178232
-0.034018424
0.018804541
23.32124
-0.0087558678
0.0058407048
18.90916
-0.018453933
-0.01266193
27.359866
-0.026194527
-0.027721002
30.800698
-0.028554632
-0.035298152
30.798644
-0.027637788
-0.037594643
27.355459
-0.024853154
-0.036093913
18.904231
-0.019236932
-0.062692477
23.311738
0.0067454618
-0.045122797
31.154324
-0.033365001
-0.028928474
17.712784
-0.022050894
-0.026444374
18.946657
-0.0015129234
-0.0075284642
18.948536
-0.01947098
0.0019638284
17.724212
-0.0089930769
0.022294767
31.175791
-0.027139056
0.016034807
23.323889
-0.010334016
0.014331146
18.913332
-0.016545356
0.0058723437
27.363974
-0.024127474
-0.0084695971
30.800695
-0.026926304
30.792735
-0.027780113
-0.022197237
0.010503143
30.835344
-0.034499583
-0.02699664
27.380753
-0.032429398
-0.026310902
18.919121
-0.024073345
-0.040889886
23.326025
-0.0078436224
-0.02011461
31.170299
-0.038098081
-0.0093344893
17.722081
-0.020099659
-0.0015538011
18.949946
-0.015474384
0.0072139159
18.949352
-0.016388738
0.017273335
17.720694
-0.019388471
0.037600646
31.167036
-0.037534305
0.024554154
23.323324
-0.0087891338
0.025140882
18.916781
-0.023608948
0.020455301
27.378469
-0.031927998
-30.791184
30.834618
0.0089215329
-0.034042256
-30.752742
0.015581829
-0.027421738
0.025078881
-0.055267175
0.017512776
30.762047
-0.053714793
0.006898175
27.334329
-0.049856774
-0.0041614972
18.897325
-0.030424656
-0.0034874397
23.308906
-0.046898559
31.172159
-0.066913748
-0.002318355
0.021004713
31.180149
-0.027197929
0.0067622387
17.72669
-0.0091580458
0.025069233
18.950619
-0.019161363
0.028004091
18.948312
-0.001850253
0.044091693
17.713928
-0.021702501
0.061803733
31.15563
-0.033058248
0.035742908
23.312316
0.0065427817
0.037322386
18.904543
-0.019115945
0.035104779
27.355696
-0.024772586
30.798744
-0.027603739
0.01853246
-0.027545181
30.837684
-0.031934507
0.0042092957
30.845055
-0.03238735
-0.0085055166
27.400319
-0.029986117
-0.016183001
18.936355
-0.021513006
-0.031056855
23.347959
-0.013699851
-0.016441044
31.200243
-0.037777326
-0.0079571327
17.739804
-0.019775149
-8.6607929e-05
18.968562
-0.016249449
0.0078410901
18.968499
-0.01630196
0.016289482
17.739791
-0.019729956
0.030899515
31.20023
-0.037743715
0.016099433
23.347954
-0.013753735
0.0084187837
18.936359
-0.021488867
-0.0042938122
27.400321
-0.029974171
-0.018622348
30.845038
-0.032388283
-0.027666452
30.837628
-0.031950685
-0.028663023
27.384005
-0.029390154
-0.025654087
18.921565
-0.021916254
-0.039240953
23.328783
-0.0051253948
-0.021511435
31.171383
-0.035824284
-0.012379208
17.723095
-0.02061074
-0.008222592
18.954235
-0.012800694
0.00091599522
18.957448
-0.019111299
0.0072165579
17.73349
-0.01670789
0.023030933
31.194174
-0.035285384
0.014189864
23.346261
-0.015106949
0.010614962
18.936444
-0.020997102
0.0025368513
27.400929
-0.030295483
30.844719
-0.033798236
-0.0099233724
0.00044664442
30.883858
-0.032393514
-0.017920818
30.873681
-0.032882929
-0.020447214
27.411694
-0.030819799
-0.02002377
18.939089
-0.022552048
-0.030924791
23.345308
-0.010500775
-0.0140659
31.187999
-0.036116135
-0.0067958886
17.732396
-0.019250318
-0.0013424201
18.959018
-0.016109873
0.0048785553
18.958504
-0.016962072
0.011144497
17.731324
-0.018573356
0.026721417
31.185429
-0.03556664
0.017117531
23.342989
-0.012161993
0.016392287
18.937201
-0.021874333
0.012997148
27.409764
-0.030316714
0.0047322853
30.872934
-0.032619871
-30.845904
30.884736
-0.004338173
-0.032401877
-30.801656
-0.0039868964
-0.033615073
0.000601824
-0.026614645
-0.0099614525
27.367019
-0.023826727
-0.013902864
18.916012
-0.016073325
23.326589
-0.011708403
-0.025396546
0.015511004
23.349288
-0.014438312
-0.0090557962
31.198303
-0.035566357
-0.00211385
17.735696
-0.017066895
0.0067649513
18.959283
-0.018592781
0.011594293
18.955546
-0.013121817
0.020723068
17.723956
-0.020307936
0.038616615
31.172304
-0.035590904
0.025412956
23.329145
-0.0052795212
0.028480066
18.921748
-0.021842423
27.384142
-0.029346178
0.016669926
-0.017645304
27.41189
-0.029124825
0.0098848875
30.873692
-0.031733832
0.00023528865
30.883916
-0.031909463
-0.0071678154
27.434536
-0.029370909
-0.012046744
18.959593
-0.020707955
-0.022011109
23.370958
-0.015234781
-0.0097589696
31.222025
-0.035755712
-0.0049553223
17.751988
-0.018736422
-4.8953455e-05
18.979015
-0.017006374
0.0048882536
18.978954
-0.017038408
0.0096869199
17.751952
-0.018710967
0.021937878
31.221989
-0.035732081
0.012008941
23.370942
-0.015259725
0.0071259885
18.959587
-0.020697251
-0.0002771858
27.434535
-0.029366543
-0.009934847
30.883913
-0.031913211
-0.016742884
30.873666
-0.031741414
-0.01775988
27.411819
-0.029150092
-0.01672342
18.939288
-0.020898017
-0.025138774
23.345926
-0.010813901
-0.010800497
31.189544
-0.034153273
-0.0057676292
17.734789
-0.018481691
-0.0021528232
18.964752
-0.015810316
0.0026478523
18.968759
-0.017791333
0.006165234
17.745761
-0.017553685
0.017768289
31.215408
-0.03456598
0.010056903
23.368254
-0.016403868
0.0058684842
18.958515
-0.0201633
27.433941
-0.029236223
-0.001941204
-0.002315901
27.457801
-0.022673332
-0.007923811
30.911676
-0.025037464
-0.012614263
30.900686
-0.025380363
-0.013624682
27.433568
-0.023812095
-0.013457972
18.953483
-0.01734679
-0.020696633
23.359001
-0.0091270059
-0.0087423971
31.201392
-0.027619642
-0.0043969239
17.740544
-0.014849511
-0.0010311181
18.966246
-0.012856879
0.002896017
18.965852
-0.013546132
0.0063136087
17.739833
-0.014300777
0.01690919
31.199662
-0.027147621
0.010636096
23.357346
-0.010758715
0.0094944975
18.952217
-0.016704784
0.0074160936
27.432246
-0.023392403
0.0023293963
30.900145
-0.025239501
-0.0031976768
30.91225
-0.025135753
-27.435996
27.459171
-0.0063411848
-0.023049976
-27.403517
-0.0097100908
-0.029577081
-0.012073578
-0.030457517
18.939004
-0.021296421
-0.012725196
18.96051
-0.020742696
-0.02142553
23.37076
-0.014898223
-0.0084146286
31.218531
-0.034922568
-0.0038830866
17.747383
-0.017961133
0.00085854777
18.970122
-0.017239539
0.0051521718
18.965673
-0.016082674
0.010228323
17.735375
-0.018241018
0.024720834
31.190142
-0.033980525
0.016571424
23.346138
-0.010918808
18.939394
-0.020850308
0.0096747233
-0.0099745921
18.953152
-0.016277251
0.0087881053
27.43288
-0.02306869
0.0044900715
30.900044
-0.025147548
-0.001130106
30.911581
-0.025222073
-0.0049893321
27.458516
-0.023178993
-0.008062661
18.975993
-0.016244724
-0.014422137
23.387068
-0.012482876
-0.0055110326
31.238119
-0.027400056
-0.0029605973
17.761462
-0.014453103
-2.7677667e-05
18.987356
-0.013594418
0.0029309911
18.987282
-0.013608442
0.0054744641
17.761425
-0.014445221
0.014386272
31.238078
-0.027396718
0.0080436711
23.38705
-0.012495502
0.0049712037
18.975986
-0.016243408
0.001110578
27.458514
-0.023180253
-0.0045154114
30.91158
-0.02522239
-0.0088279732
30.900031
-0.025152878
-0.0097403984
27.432842
-0.023083974
-0.010066995
18.953097
-0.0163054
-0.015481642
23.359117
-0.010449014
-0.0055407429
31.203704
-0.026465596
-0.0029538365
17.743904
-0.014129257
-0.00054899387
18.973186
-0.013167396
0.0020608759
18.977609
-0.013793837
0.0036767826
17.755604
-0.013897785
0.011388539
31.231958
-0.026676629
0.0059882364
23.384467
-0.013521692
18.974857
-0.015595025
0.00018689224
-0.0030606581
18.985111
-0.010985551
-0.0023090648
27.472592
-0.015990148
-0.0055443361
30.928738
-0.017634675
-0.0078412641
30.917133
-0.017870711
-0.0079964793
27.446882
-0.016778534
-0.0081409229
18.962315
-0.012194064
-0.012527789
23.367155
-0.0070790218
-0.0047351925
31.209654
-0.019068764
-0.0025395508
17.745677
-0.010400287
-0.00070661411
18.970754
-0.0093028393
0.0014965798
18.970471
-0.0097898979
0.003000031
17.745247
-0.010001886
0.009706482
31.208635
-0.018724685
0.0059685464
23.366112
-0.0083438408
0.0047560107
18.961574
-0.011685774
0.0037054647
27.446106
-0.016454144
0.0010619225
30.916809
-0.017775253
-0.0018029506
30.929066
-0.017725381
-0.0033802919
27.473386
-0.016302444
-18.976173
18.985869
-0.0051718056
-0.011473238
-0.0086808142
-0.016195347
-0.014858323
23.386219
-0.01198078
-0.0056811579
31.233996
-0.027011103
-0.0030935796
17.756641
-0.014261329
-0.00045941928
18.978498
-0.013326005
0.0025135926
18.973755
-0.0133702
0.005156146
17.744269
-0.01394916
0.0152182
31.204063
-0.026339677
23.359233
-0.010518868
0.0055545723
-0.0087976318
23.367576
-0.0084219062
0.004646119
18.962103
-0.011595444
0.0040801425
27.44631
-0.016517485
0.0017817508
30.916582
-0.018000753
-0.001058219
30.928663
-0.018036716
-0.0028371518
27.473184
-0.016579654
-0.0048742386
18.986044
-0.011608001
-0.0086851652
23.396736
-0.0092130874
-0.0027074307
31.248035
-0.018989183
-0.0016171449
17.76741
-0.010161789
-1.2437419e-05
18.992566
-0.0098202104
0.0016012444
18.99249
-0.0098249048
0.0026939233
17.767366
-0.010155087
0.0086764101
31.24799
-0.018986823
0.0048714187
23.396717
-0.0092186436
0.0028316775
18.986038
-0.011611595
0.0010513448
27.47318
-0.016580766
-0.0017921254
30.928661
-0.018037202
-0.0040989574
30.916582
-0.018007014
-0.004680113
27.446297
-0.016528579
-0.0056033361
18.962076
-0.011611069
-0.0089536852
23.367523
-0.00838484
-0.0025833981
31.212788
-0.018533598
-0.0015265612
17.749695
-0.0099674406
-0.00022273578
18.978517
-0.0096436732
0.0011193768
18.983158
-0.0099043013
0.0015142206
17.761906
-0.0098280454
0.0063633941
31.242472
-0.018476358
23.394482
-0.010055906
0.001352262
-0.003237907
23.39986
-0.0074522595
-0.00083367085
18.990728
-0.0076878045
-0.0020600688
27.480663
-0.011156331
-0.0034439378
30.937994
-0.012288308
-0.0042358041
30.926003
-0.012442472
-0.003991636
27.454033
-0.011662686
-0.0044751792
18.967048
-0.0084493207
-0.006969509
23.371335
-0.0056231876
-0.0020451392
31.214033
-0.012976908
-0.0012789939
17.748408
-0.00721295
-0.00042928646
18.973129
-0.0068169999
0.00063833265
18.972929
-0.0071215689
0.00094958918
17.748173
-0.0069599932
0.0051606428
31.213478
-0.012745919
0.0030504154
23.370738
-0.0064515213
0.0018487548
18.966666
-0.0081076393
0.0014811425
27.45363
-0.011440869
0.00044794825
30.925831
-0.012373562
-0.00068723779
30.938161
-0.012354329
-0.0012926047
27.481073
-0.011376807
-0.0027483666
18.991115
-0.0080222737
-23.395559
23.400462
-0.0049568534
-0.0066473286
-0.0090102273
-0.0088382638
-0.0029971204
31.243647
-0.01873421
-0.0018573923
17.762493
-0.010098816
-0.0004682104
18.98368
-0.0095666704
0.0012385055
18.978833
-0.0097827469
0.0023433522
17.749898
-0.009846788
31.212989
-0.018453705
0.0047742322
-0.00066891943
31.217874
-0.012704932
0.0028473794
23.372119
-0.0065681896
0.0017330414
18.967116
-0.0081340263
0.001532135
27.453803
-0.011590693
0.00062310361
30.925716
-0.012626321
-0.00048608148
30.938
-0.012639712
-0.001131176
27.481142
-0.011625939
-0.0026607377
18.991484
-0.0081628565
-0.0048324408
23.401798
-0.006856437
-0.00089674158
31.253333
-0.012957473
-0.00074758804
17.770594
-0.0070872869
-7.337167e-06
18.995333
-0.0071357813
0.00074627028
18.995246
-0.007135993
0.00089584026
17.770549
-0.0070877073
0.004834549
31.253283
-0.012960799
0.0026594719
23.401779
-0.006856578
0.0011332392
18.991477
-0.0081644574
0.0004879293
27.481145
-0.011633576
-0.0006241667
30.938006
-0.012647238
-0.001538775
30.925722
-0.012630178
-0.0017481437
27.453803
-0.011597295
-0.0028740237
18.967114
-0.0081464287
-0.0048576811
23.372101
-0.0065474789
-0.00080696622
31.217774
-0.012756732
-0.00070871789
17.752845
-0.0069977564
-0.00015935135
18.981384
-0.0070426507
0.0004296581
18.986138
-0.0072002578
0.00010889708
17.765341
-0.0068721509
31.248208
-0.012602809
0.0016076218
0.0006308961
31.250838
-0.0090333475
0.00052691464
23.402297
-0.0057640916
-0.0011676774
18.993351
-0.0056456118
-0.0015865865
27.484441
-0.008093892
-0.0018779303
30.942305
-0.008846167
-0.00184582
30.930113
-0.008934393
-0.0014617968
27.457322
-0.0083799828
-0.0022269235
18.969204
-0.0060714191
-0.0036314934
23.373112