/*--------------------------------*- C++ -*----------------------------------*\
  =========                 |
  \\      /  F ield         | OpenFOAM: The Open Source CFD Toolbox
   \\    /   O peration     | Website:  https://openfoam.org
    \\  /    A nd           | Version:  7
     \\/     M anipulation  |
\*---------------------------------------------------------------------------*/
FoamFile
{
    version     2.0;
    format      ascii;
    class       volScalarField;
    location    "60";
    object      T;
}
// * * * * * * * * * * * * * * * * * * * * * * * * * * * * * * * * * * * * * //

dimensions      [0 0 0 1 0 0 0];

internalField   nonuniform List<scalar> 
24866
(
299.99998
299.99998
299.99998
299.99999
300
300
300
300
300
300
300
300
300
300
300
300
300
300
300
300
300
300
300
300
300
300
300
300
300
300
300
300
300
300
300
300
300
300
300
300
300
300
300
300
300
300
300
300
300
300
300
300
300
300
300
300
300
300
300
300
300
300
300
300
300
300
300
300
300
300
300
300
300
300
300
300
300
300
300
300
300
300
300
300
300
300
300
300
300
300
300
300
300
300
300
300
300
300
300
300
300
300
300
300
300
300
300
300
300
300
300
300
300
300
300
300
300
300
300.00001
300.00001
300.00001
300.00001
300.00001
300.00001
300
300
300
300
300
300
300.00001
300.00001
300.00001
300.00001
300.00001
300.00001
300.00001
300
300
300
300
300
300
300
300
300
299.99999
299.99999
299.99999
299.99999
299.99999
299.99999
299.99999
300
300
299.99999
299.99999
299.99999
299.99999
299.99999
299.99999
299.99999
299.99999
299.99999
299.99999
299.99999
299.99999
299.99999
299.99999
299.99999
299.99999
299.99999
299.99999
299.99999
299.99999
299.99999
299.99999
299.99999
299.99999
299.99999
300
300
299.99999
299.99999
299.99999
300
300
300
300
300
300
300
300
300
300
300
300.00001
300.00001
300.00001
300.00001
300.00001
300.00001
300.00001
300
300
300
300
300
300
299.99999
299.99999
300
299.99999
299.99999
299.99998
299.99998
299.99998
299.99998
299.99998
299.99998
299.99998
299.99998
299.99998
299.99998
299.99998
299.99998
299.99998
299.99998
299.99998
299.99998
299.99998
299.99998
299.99998
299.99998
299.99998
299.99998
299.99998
299.99998
299.99998
299.99998
299.99998
299.99998
299.99998
299.99996
299.99996
299.99996
299.99996
299.99996
299.99998
299.99999
299.99999
299.99999
299.99999
299.99999
299.99999
299.99999
299.99999
299.99999
299.99999
299.99999
299.99999
299.99999
299.99999
299.99999
299.99999
299.99999
300
300
300
299.99999
299.99999
299.99999
299.99999
299.99999
300
299.99999
299.99999
299.99999
299.99999
299.99999
299.99999
299.99999
299.99999
300
300
300
300
300
300
300
300.00001
300.00001
300.00001
300.00001
300.00001
300.00001
300.00001
300
300
300
300.00001
300.00001
300.00001
300.00001
300
300.00001
300
300
300
300
300
300
300
300
300
300
300
300
300
300
300
300
300
300
300
300
300
300
300
300
300
300
299.99999
299.99999
300
299.99999
299.99999
299.99999
299.99998
299.99998
299.99998
299.99998
299.99998
299.99999
299.99998
299.99999
299.99999
299.99998
299.99999
299.99999
299.99999
299.99999
299.99999
299.99998
299.99998
299.99998
299.99998
299.99998
299.99998
299.99997
299.99997
299.99996
299.99996
299.99996
299.99996
299.99997
299.99997
299.99997
299.99997
299.99997
299.99997
299.99997
299.99997
299.99996
299.99996
299.99996
299.99996
299.99996
299.99996
299.99996
299.99996
299.99996
299.99996
299.99996
299.99996
299.99996
299.99996
299.99996
299.99994
299.99994
299.99994
299.99994
299.99994
299.99994
299.99994
299.99996
299.99998
299.99998
299.99998
299.99998
299.99998
299.99998
299.99998
299.99998
299.99998
299.99998
299.99998
299.99998
299.99998
299.99996
299.99996
299.99997
299.99996
299.99997
299.99997
299.99997
299.99997
299.99997
299.99997
299.99995
299.99995
299.99995
299.99995
299.99994
299.99994
299.99995
299.99995
299.99995
299.99995
299.99995
299.99995
299.99995
299.99995
299.99995
299.99995
299.99995
299.99995
299.99994
299.99994
299.99994
299.99994
299.99994
299.99995
299.99995
299.99995
299.99995
299.99995
299.99995
299.99992
299.99992
299.99992
299.99992
299.99992
299.99992
299.99992
299.99992
299.99992
299.99992
299.99995
299.99996
299.99996
299.99996
299.99996
299.99996
299.99996
299.99996
299.99996
299.99996
299.99996
299.99994
299.99994
299.99995
299.99995
299.99995
299.99995
299.99995
299.99995
299.99995
299.99995
299.99992
299.99992
299.99992
299.99992
299.99992
299.99992
299.99992
299.99992
299.99992
299.99992
299.99992
299.99992
299.99992
299.99993
299.99992
299.99992
299.99992
299.99992
299.99992
299.99992
299.99992
299.99992
299.99992
299.99992
299.99992
299.99992
299.99992
299.99992
299.99992
299.99989
299.99989
299.99988
299.99988
299.99988
299.99988
299.99988
299.99988
299.99988
299.99988
299.99989
299.99989
299.99992
299.99995
299.99995
299.99995
299.99995
299.99995
299.99994
299.99994
299.99994
299.99992
299.99992
299.99992
299.99992
299.99992
299.99992
299.99992
299.99992
299.99993
299.99993
299.99989
299.99989
299.99989
299.99988
299.99988
299.99988
299.99988
299.99988
299.99988
299.99988
299.99988
299.99989
299.99989
299.99989
299.99989
299.99989
299.99989
299.99988
299.99988
299.99988
299.99988
299.99988
299.99988
299.99988
299.99988
299.99989
299.99989
299.99989
299.99989
299.99985
299.99984
299.99984
299.99983
299.99983
299.99983
299.99983
299.99983
299.99983
299.99983
299.99983
299.99984
299.99984
299.99985
299.99989
299.99992
299.99992
299.99992
299.99992
299.99992
299.99992
299.99988
299.99988
299.99988
299.99988
299.99988
299.99988
299.99988
299.99989
299.99989
299.99989
299.99985
299.99985
299.99985
299.99984
299.99984
299.99983
299.99983
299.99983
299.99983
299.99983
299.99983
299.99984
299.99984
299.99984
299.99985
299.99985
299.99984
299.99984
299.99983
299.99983
299.99983
299.99983
299.99983
299.99983
299.99983
299.99983
299.99984
299.99984
299.99985
299.99979
299.99979
299.99978
299.99978
299.99977
299.99977
299.99977
299.99976
299.99976
299.99977
299.99977
299.99977
299.99978
299.99978
299.99979
299.99979
299.99985
299.99989
299.99989
299.99989
299.99988
299.99983
299.99983
299.99983
299.99983
299.99983
299.99983
299.99983
299.99984
299.99984
299.99984
299.99978
299.99979
299.99979
299.99978
299.99978
299.99977
299.99977
299.99977
299.99976
299.99976
299.99977
299.99977
299.99977
299.99978
299.99978
299.99979
299.99979
299.99978
299.99978
299.99977
299.99977
299.99977
299.99976
299.99976
299.99977
299.99977
299.99977
299.99978
299.99978
299.9997
299.99971
299.99971
299.9997
299.9997
299.99969
299.99969
299.99969
299.99968
299.99968
299.99969
299.99969
299.99969
299.9997
299.9997
299.99971
299.99971
299.9997
299.99978
299.99984
299.99984
299.99978
299.99977
299.99977
299.99977
299.99976
299.99976
299.99977
299.99977
299.99977
299.99978
299.9997
299.9997
299.99971
299.99971
299.9997
299.9997
299.99969
299.99969
299.99969
299.99968
299.99968
299.99969
299.99969
299.99969
299.9997
299.9997
299.99971
299.99971
299.9997
299.9997
299.99969
299.99969
299.99969
299.99968
299.99968
299.99969
299.99969
299.99969
299.9997
299.99961
299.99961
299.99961
299.99961
299.99961
299.99961
299.9996
299.99959
299.9996
299.99959
299.99959
299.9996
299.99959
299.99959
299.99961
299.99961
299.99961
299.99961
299.99961
299.99961
299.9997
299.99969
299.99969
299.99969
299.99968
299.99968
299.99969
299.99969
299.99969
299.9996
299.99961
299.99961
299.99961
299.99961
299.99961
299.99961
299.9996
299.99959
299.9996
299.99959
299.99959
299.9996
299.99959
299.99959
299.99961
299.99961
299.99961
299.99961
299.99961
299.9996
299.99959
299.99959
299.9996
299.99959
299.99959
299.9996
299.99959
299.9996
299.9995
299.99951
299.9995
299.9995
299.9995
299.9995
299.99951
299.9995
299.99949
299.99951
299.9995
299.9995
299.99951
299.99949
299.9995
299.99951
299.9995
299.9995
299.9995
299.9995
299.99951
299.9995
299.9996
299.99959
299.9996
299.99959
299.99959
299.9996
299.99959
299.99949
299.9995
299.99951
299.9995
299.9995
299.9995
299.9995
299.99951
299.9995
299.99949
299.9995
299.9995
299.9995
299.9995
299.99949
299.9995
299.99951
299.9995
299.9995
299.9995
299.9995
299.99951
299.9995
299.99949
299.9995
299.9995
299.9995
299.99951
299.99949
299.99942
299.99943
299.99944
299.99942
299.99942
299.99942
299.99942
299.99944
299.99943
299.99942
299.99944
299.99944
299.99944
299.99944
299.99942
299.99943
299.99943
299.99942
299.99941
299.99941
299.99942
299.99943
299.99943
299.99942
299.99949
299.99951
299.9995
299.9995
299.99951
299.99944
299.99942
299.99943
299.99943
299.99942
299.99941
299.99942
299.99942
299.99943
299.99943
299.99942
299.99944
299.99944
299.99944
299.99944
299.99942
299.99943
299.99943
299.99942
299.99941
299.99941
299.99942
299.99943
299.99943
299.99942
299.99944
299.99944
299.99944
299.99944
299.99944
299.99942
299.99942
299.99942
299.99941
299.9994
299.9994
299.99941
299.99942
299.99942
299.99942
299.99944
299.99944
299.99944
299.99944
299.99942
299.99942
299.99942
299.99941
299.9994
299.9994
299.99941
299.99942
299.99942
299.99942
299.99944
299.99944
299.99944
299.99944
299.99944
299.99944
299.99942
299.99942
299.99942
299.99941
299.9994
299.9994
299.99941
299.99942
299.99942
299.99942
299.99943
299.99944
299.99944
299.99943
299.99942
299.99942
299.99942
299.9994
299.99939
299.99939
299.9994
299.99942
299.99942
299.99942
299.99943
299.99944
299.99944
299.99951
299.9995
299.99949
299.99949
299.99948
299.99947
299.99946
299.99946
299.99947
299.99948
299.99949
299.99949
299.99951
299.99951
299.99951
299.9995
299.99949
299.99949
299.99948
299.99947
299.99946
299.99946
299.99947
299.99948
299.99949
299.99949
299.9995
299.99951
299.99944
299.99936
299.99924
299.99936
299.99926
299.99916
299.99932
299.99925
299.99921
299.99921
299.99925
299.99932
299.99938
299.99948
299.99949
299.99949
299.9995
299.99951
299.99951
299.9995
299.99949
299.99949
299.99948
299.99946
299.99945
299.99945
299.99946
299.99948
299.99949
299.99949
299.9995
299.99951
299.99965
299.99966
299.99964
299.99964
299.99964
299.99962
299.99961
299.9996
299.9996
299.99961
299.99962
299.99964
299.99964
299.99965
299.99966
299.99966
299.99965
299.99964
299.99964
299.99962
299.99961
299.9996
299.9996
299.99961
299.99962
299.99964
299.99964
299.99965
299.99966
299.99966
299.99951
299.9995
299.99949
299.99949
299.99948
299.99947
299.99946
299.99946
299.99947
299.99961
299.99962
299.99963
299.99964
299.99964
299.99965
299.99965
299.99964
299.99963
299.99963
299.99961
299.9996
299.99959
299.99959
299.9996
299.99961
299.99963
299.99963
299.99964
299.99985
299.99986
299.99986
299.99985
299.99985
299.99985
299.99983
299.99982
299.99981
299.99981
299.99982
299.99983
299.99985
299.99985
299.99986
299.99987
299.99987
299.99986
299.99985
299.99985
299.99983
299.99982
299.99981
299.99981
299.99982
299.99983
299.99985
299.99985
299.99985
299.99987
299.99987
299.99985
299.99965
299.99964
299.99964
299.99962
299.99961
299.9996
299.9996
299.99981
299.99982
299.99982
299.99985
299.99985
299.99985
299.99986
299.99986
299.99985
299.99985
299.99984
299.99982
299.99981
299.9998
299.9998
299.99981
299.99982
299.99984
299.99985
300.00011
300.00011
300.00012
300.00013
300.00011
300.00012
300.00012
300.00009
300.00009
300.00008
300.00009
300.00009
300.00009
300.00012
300.00012
300.00012
300.00013
300.00013
300.00012
300.00013
300.00012
300.00009
300.00009
300.00009
300.00009
300.00009
300.00009
300.00012
300.00012
300.00012
300.00013
300.00013
300.00011
300.00012
299.99985
299.99985
299.99982
299.99982
299.99981
300.00008
300.00008
300.00009
300.00009
300.00011
300.00012
300.00011
300.00012
300.00012
300.00011
300.00011
300.00011
300.00008
300.00008
300.00007
300.00007
300.00008
300.00008
300.00011
300.00039
300.0004
300.00038
300.0004
300.0004
300.00039
300.00041
300.0004
300.00037
300.00038
300.00038
300.00038
300.00038
300.00038
300.0004
300.00041
300.00039
300.00041
300.00041
300.00039
300.00041
300.00041
300.00038
300.00038
300.00038
300.00038
300.00038
300.00038
300.00041
300.00041
300.00039
300.00041
300.0004
300.00039
300.0004
300.0004
300.00011
300.00009
300.00009
300.00038
300.00038
300.00038
300.00038
300.00037
300.0004
300.0004
300.00038
300.0004
300.0004
300.00038
300.0004
300.00039
300.00036
300.00037
300.00037
300.00037
300.00037
300.00036
300.00063
300.00065
300.00066
300.00064
300.00065
300.00065
300.00064
300.00067
300.00066
300.00064
300.00065
300.00066
300.00066
300.00065
300.00064
300.00067
300.00068
300.00065
300.00066
300.00066
300.00065
300.00068
300.00067
300.00064
300.00066
300.00066
300.00066
300.00066
300.00064
300.00067
300.00068
300.00065
300.00066
300.00066
300.00065
300.00067
300.00066
300.00064
300.00037
300.00038
300.00034
300.00032
300.00032
300.00034
300.00038
300.00068
300.00063
300.00066
300.00067
300.00064
300.00065
300.00065
300.00064
300.00066
300.00065
300.00063
300.00064
300.00064
300.00064
300.00064
300.00086
300.00085
300.00087
300.00088
300.00085
300.00086
300.00086
300.00086
300.00089
300.00088
300.00086
300.00088
300.00089
300.00089
300.00088
300.00087
300.00089
300.0009
300.00087
300.00087
300.00087
300.00087
300.0009
300.00089
300.00087
300.00089
300.0009
300.0009
300.00089
300.00087
300.00089
300.0009
300.00087
300.00087
300.00087
300.00086
300.00089
300.00088
300.00086
300.00088
300.00065
300.00065
300.00065
300.00065
300.00088
300.00086
300.00088
300.00088
300.00085
300.00086
300.00086
300.00085
300.00088
300.00087
300.00085
300.00086
300.00087
300.00087
300.00104
300.00102
300.001
300.00102
300.00103
300.001
300.001
300.001
300.00101
300.00104
300.00104
300.00103
300.00105
300.00107
300.00107
300.00105
300.00103
300.00104
300.00105
300.00102
300.00101
300.00101
300.00102
300.00105
300.00104
300.00103
300.00105
300.00107
300.00107
300.00106
300.00103
300.00104
300.00105
300.00102
300.00101
300.00101
300.00101
300.00104
300.00103
300.00102
300.00104
300.00106
300.00089
300.00089
300.00106
300.00104
300.00102
300.00103
300.00104
300.001
300.001
300.001
300.001
300.00103
300.00102
300.001
300.00103
300.00104
300.00115
300.00115
300.00112
300.0011
300.0011
300.00112
300.00108
300.00107
300.00107
300.00109
300.00113
300.00113
300.00113
300.00115
300.00118
300.00118
300.00115
300.00113
300.00113
300.00114
300.0011
300.00109
300.00109
300.0011
300.00114
300.00113
300.00113
300.00116
300.00118
300.00118
300.00116
300.00113
300.00114
300.00114
300.0011
300.00108
300.00108
300.0011
300.00113
300.00112
300.00112
300.00114
300.00117
300.00117
300.00114
300.00112
300.00112
300.00113
300.00109
300.00107
300.00107
300.00108
300.00112
300.0011
300.0011
300.00112
300.00116
300.00118
300.00118
300.00116
300.00112
300.00112
300.00113
300.00109
300.00107
300.00107
300.0011
300.00115
300.00115
300.00116
300.00119
300.00123
300.00123
300.0012
300.00116
300.00115
300.00116
300.00111
300.00109
300.00109
300.00111
300.00116
300.00115
300.00116
300.0012
300.00123
300.00123
300.0012
300.00116
300.00116
300.00116
300.00111
300.00108
300.00108
300.0011
300.00115
300.00114
300.00115
300.00118
300.00121
300.00121
300.00118
300.00115
300.00114
300.00114
300.0011
300.00107
300.00107
300.00109
300.00113
300.00112
300.00112
300.00109
300.00113
300.00117
300.00117
300.00113
300.00109
300.00107
300.00109
300.00104
300.00101
300.00101
300.00105
300.00111
300.00111
300.00113
300.00118
300.00122
300.00122
300.00118
300.00113
300.00111
300.00112
300.00106
300.00102
300.00102
300.00106
300.00112
300.00111
300.00114
300.00118
300.00122
300.00122
300.00119
300.00114
300.00112
300.00112
300.00106
300.00102
300.00102
300.00105
300.00111
300.0011
300.00112
300.00117
300.0012
300.0012
300.00117
300.00112
300.0011
300.0011
300.00104
300.001
300.001
300.00103
300.00108
300.00107
300.00097
300.00099
300.00105
300.0011
300.0011
300.00105
300.00099
300.00097
300.00099
300.00092
300.00088
300.00089
300.00094
300.00102
300.00101
300.00105
300.00111
300.00116
300.00116
300.00111
300.00104
300.00101
300.00102
300.00094
300.0009
300.0009
300.00094
300.00102
300.00101
300.00105
300.00111
300.00116
300.00116
300.00112
300.00105
300.00102
300.00103
300.00095
300.0009
300.00089
300.00094
300.001
300.00099
300.00102
300.00109
300.00114
300.00114
300.0011
300.00103
300.001
300.00101
300.00093
300.00088
300.00088
300.00092
300.00099
300.00084
300.00082
300.00085
300.00091
300.00097
300.00097
300.00091
300.00085
300.00082
300.00084
300.00077
300.00072
300.00072
300.00079
300.00088
300.00087
300.00091
300.00099
300.00105
300.00105
300.00099
300.00091
300.00087
300.00088
300.00079
300.00073
300.00073
300.00079
300.00088
300.00087
300.00091
300.00099
300.00105
300.00105
300.001
300.00092
300.00088
300.00089
300.00079
300.00073
300.00073
300.00078
300.00087
300.00085
300.00088
300.00096
300.00103
300.00103
300.00098
300.0009
300.00086
300.00087
300.00078
300.00072
300.00071
300.00076
300.00056
300.00064
300.00063
300.00067
300.00075
300.00081
300.00081
300.00075
300.00067
300.00064
300.00065
300.00056
300.00052
300.00052
300.00057
300.00068
300.00068
300.00073
300.00081
300.00088
300.00087
300.0008
300.00072
300.00068
300.00067
300.00057
300.00052
300.00052
300.00057
300.00067
300.00068
300.00072
300.0008
300.00088
300.00088
300.00081
300.00073
300.00068
300.00068
300.00058
300.00053
300.00052
300.00056
300.00064
300.0006
300.00065
300.00075
300.00084
300.00086
300.00079
300.00071
300.00067
300.00067
300.00056
300.00052
300.00052
300.00018
300.00028
300.00043
300.00033
300.00038
300.00047
300.00055
300.00055
300.00048
300.00038
300.00033
300.00043
300.00028
300.00019
300.0002
300.00028
300.00053
300.00046
300.00048
300.00067
300.00075
300.00075
300.00066
300.00047
300.00044
300.00051
300.00027
300.00018
300.00018
300.00027
300.00051
300.00044
300.00046
300.00066
300.00075
300.00075
300.00067
300.00048
300.00045
300.00052
300.00028
300.00019
300.00018
300.00028
300.00046
300.00042
300.00041
300.00053
300.00071
300.00073
300.00065
300.00046
300.00044
300.00051
300.00027
300.00019
299.99968
299.99967
299.99979
300.00007
299.99999
300.00002
300.00012
300.00012
300.00003
299.99999
300.00007
299.9998
299.99968
299.99968
299.99982
300.0001
299.99996
299.99999
300.00028
300.00041
300.00041
300.00027
299.99998
299.99994
300.00008
299.99979
299.99966
299.99966
299.99979
300.00008
299.99994
299.99998
300.00027
300.00041
300.0004
300.00027
299.99998
299.99995
300.00009
299.9998
299.99967
299.99966
299.99978
300.00003
299.99968
299.99955
299.99997
300.00031
300.00037
300.00025
299.99997
299.99995
300.00009
299.99981
299.99983
299.9998
300.0003
300.00119
300.00209
300.00282
300.00323
300.00315
300.00265
300.00196
300.00112
300.00028
299.99978
299.99981
300.00039
300.00117
300.00242
300.0035
300.00402
300.00409
300.00406
300.00403
300.00355
300.00243
300.00113
300.00036
299.99981
299.99978
299.99978
299.99984
300.00004
300.00013
300.00038
300.00009
299.99999
300.00072
300.00009
300.00038
300.00012
299.99984
299.9998
300
300.00004
300.00082
300.0004
300.00075
300.00128
300.00161
300.00145
300.00085
300.00056
300.00033
299.99979
299.99976
299.99977
299.99982
300.00003
300.00038
299.99998
300.00008
300.0001
300.00075
300.00105
300.0001
300.00051
300.00013
299.99997
299.99977
299.99955
299.99966
299.99968
299.99976
299.99981
300.00026
300.00077
300.00026
300.00044
300.00002
299.99996
300.00056
300.00067
300.00047
300.00001
300.00006
300.00002
300.00024
300.00036
300.0006
300.00032
300.00002
300.00023
300.00088
300.00111
300.00089
300.00153
300.00106
300.00071
300.0011
300.0007
300.00091
300.00105
300.00142
300.00106
300.00092
300.00134
300.00235
300.00127
300.00136
300.0018
300.0012
300.00109
300.00131
300.0014
300.00154
300.00147
300.00128
300.0011
300.00232
300.00187
300.00123
300.00301
300.00176
300.0021
300.00346
300.0048
300.00223
300.00269
300.00565
300.00467
300.00405
300.00585
300.00525
300.00352
300.00172
300.00077
300.00103
300.00208
300.00341
300.00152
300.00086
300.00053
300.00023
300.0003
300.00042
300.00042
300.0003
300.00024
300.00053
300.00066
300.00078
300.00077
300.00066
300.00107
300.0012
300.00258
300.00219
300.00159
300.00092
300.00251
300.00396
300.00124
300.00069
300.00027
300.00031
300.00079
300.00136
300.00216
300.00259
300.00305
300.00307
300.00264
300.00224
300.00143
300.00087
300.00042
300.00043
300.00088
300.00141
300.0022
300.00261
300.00305
300.00305
300.00355
300.00207
300.00073
300.00006
300.00001
300.00048
300.00072
300.00072
300.00048
300.00001
300.00006
300.00074
300.00207
300.00353
300.00298
300.00297
300.00252
300.00207
300.00119
300.00052
299.99997
299.99998
300.00047
300.00112
300.00202
300.00249
300.00297
300.00294
300.00246
300.00202
299.99921
299.99401
299.9871
299.97964
299.97445
299.97194
299.97202
299.97467
299.97999
299.98746
299.99426
299.99934
300.00212
300.00405
300.0028
300.00129
300.00166
300.00323
300.00413
300.00078
300.00134
299.99737
299.99048
299.98019
299.97429
299.97014
299.96763
299.96581
299.96473
299.96419
299.96415
299.96461
299.96558
299.96732
299.96974
299.97383
299.9797
299.96976
299.96603
299.96385
299.96261
299.962
299.96176
299.9618
299.96213
299.96281
299.96414
299.96641
299.97022
299.96778
299.9751
299.98697
299.99591
299.99493
300.00031
300.0003
300.00413
300.00324
300.00167
300.00128
300.0028
300.00407
300.00139
300.0008
299.99594
299.99491
299.98528
299.98527
299.97263
299.96506
299.96604
299.96294
299.9642
299.96244
299.96171
299.96147
299.9614
299.96136
299.96135
299.96152
299.96219
299.96385
299.96732
299.97455
299.96559
299.96259
299.96151
299.96141
299.96166
299.96189
299.96194
299.96178
299.96159
299.96176
299.96158
299.96231
299.96205
299.96456
299.96457
299.97265
299.9651
299.96237
299.96206
299.96158
299.96156
299.96203
299.96182
299.96233
299.96266
299.96262
299.96222
299.96164
299.96133
299.96197
299.9646
299.97207
299.96414
299.96172
299.96133
299.96185
299.96259
299.96308
299.96312
299.96271
299.96273
299.96206
299.96189
299.96163
299.96189
299.96304
299.96612
299.9752
299.98702
299.99064
299.99746
299.99948
300.00221
300.00262
300.00093
299.9983
299.99448
299.98777
299.98041
299.97041
299.96792
299.96436
299.96261
299.9619
299.96171
299.9619
299.96239
299.96274
299.96315
299.9631
299.96262
299.9619
299.96136
299.96176
299.96417
299.97215
299.96472
299.96208
299.96143
299.96174
299.9623
299.9627
299.96205
299.96207
299.96161
299.96166
299.96241
299.96308
299.96438
299.96661
299.97044
299.97454
299.98045
299.9753
299.96797
299.96618
299.96515
299.96463
299.9621
299.96207
299.96157
299.96157
299.96182
299.96158
299.96167
299.96276
299.96575
299.9748
299.96757
299.96408
299.9624
299.96174
299.96292
299.96232
299.96507
299.9646
299.97271
299.97277
299.98547
299.98717
299.99068
299.99448
299.99945
300.00091
300.0021
300.00391
300.00267
300.00117
299.99924
299.99766
299.99662
299.99664
299.99767
299.99918
300.00108
300.00255
300.00251
300.00073
300.00197
300.00076
299.99925
299.99714
299.99552
299.9944
299.99436
299.99539
299.99698
299.99911
300.00068
300.00194
300.00069
299.99791
299.99388
299.98992
299.98623
299.98449
299.98456
299.98643
299.99016
299.99416
299.99807
300.00036
300.00254
300.00101
299.99901
299.99738
299.99626
299.99622
299.99726
299.99886
300.00087
300.00246
300.00377
300.00575
300.00248
300.00022
299.99613
300.00136
299.99274
299.98872
299.99733
299.98715
299.97186
299.97484
299.98034
299.9887
299.99627
300.00098
300.00147
299.99908
299.99721
299.99016
299.98659
299.99574
299.9948
299.98489
299.98495
299.99485
299.99589
299.98681
299.99046
299.98011
299.97428
299.97019
299.96776
299.96602
299.97516
299.98028
299.98762
299.99438
299.99941
299.99741
299.99924
299.99769
299.99664
299.99659
299.99757
299.99757
299.9891
299.99299
299.9804
299.97366
299.97339
299.9705
299.96911
299.96942
299.96532
299.96944
299.96911
299.96512
299.96206
299.96589
299.96672
299.96477
299.96361
299.96201
299.96024
299.96139
299.96288
299.96098
299.96287
299.96673
299.97493
299.96587
299.96199
299.96202
299.96019
299.96356
299.96476
299.96135
299.96054
299.96353
299.97202
299.98759
299.98765
299.99767
299.98928
299.99325
300.00165
300.00115
299.99658
299.98914
299.98076
299.9752
299.97211
299.96303
299.96297
299.96127
299.9619
299.95832
299.95897
299.95854
299.9602
299.95967
299.95974
299.96009
299.95828
299.95957
299.9583
299.9601
299.95979
299.95761
299.9575
299.9577
299.95907
299.96196
299.96354
299.96299
299.96133
299.95839
299.95863
299.96026
299.96059
299.95977
299.95972
299.95752
299.95757
299.96009
299.95991
299.96037
299.9599
299.95748
299.95764
299.95746
299.95753
299.96004
299.9607
299.95796
299.95773
299.95799
299.96072
299.96115
299.95833
299.95504
299.95483
299.95471
299.95526
299.95554
299.95646
299.95815
299.95639
299.95417
299.95248
299.95414
299.95642
299.95516
299.95476
299.95175
299.95299
299.95255
299.95155
299.94817
299.95005
299.95576
299.97251
299.97651
299.98264
299.9919
299.99052
299.98207
299.97625
299.97286
299.973
299.9974
299.98726
299.98891
299.99298
300.00151
299.99639
299.989
299.98067
299.97506
299.97195
299.96305
299.96138
299.95847
299.9621
299.96369
299.96073
299.9603
299.95867
299.95919
299.96048
299.96384
299.96501
299.96705
299.9662
299.96228
299.96237
299.9632
299.96161
299.96032
299.9599
299.95975
299.95756
299.95784
299.95765
299.95763
299.96015
299.96005
299.96
299.95785
299.95852
299.95988
299.96125
299.96037
299.95858
299.95796
299.9577
299.95788
299.95805
299.96078
299.9605
299.96084
299.9612
299.95838
299.95813
299.95776
299.96025
299.96009
299.96002
299.95994
299.95776
299.95896
299.95941
299.96061
299.96243
299.96552
299.96949
299.96983
299.9741
299.98081
299.9738
299.97087
299.96957
299.96991
299.96571
299.96327
299.9672
299.97539
299.96634
299.96243
299.96405
299.96524
299.96174
299.96092
299.964
299.97249
299.96241
299.95879
299.96175
299.96342
299.96056
299.96059
299.95996
299.96028
299.96086
299.96124
299.96119
299.96074
299.9601
299.95971
299.96025
299.95861
299.96133
299.95843
299.96205
299.96366
299.96067
299.95912
299.9604
299.96377
299.96494
299.96153
299.96312
299.96697
299.96613
299.96222
299.96226
299.95981
299.95845
299.95776
299.9575
299.95757
299.95759
299.96001
299.95984
299.96024
299.95996
299.95779
299.95854
299.96032
299.96118
299.9632
299.96414
299.96635
299.97009
299.96978
299.96944
299.97086
299.96542
299.96561
299.96985
299.9809
299.97406
299.97376
299.96948
299.96631
299.96236
299.96241
299.96057
299.9617
299.96523
299.97545
299.96715
299.96404
299.96243
299.95941
299.95795
299.95767
299.95785
299.95801
299.95837
299.9581
299.96081
299.96046
299.96008
299.96026
299.95775
299.95777
299.95994
299.96
299.96092
299.96059
299.95897
299.95881
299.9618
299.97259
299.96403
299.96347
299.9635
299.96062
299.95998
299.9603
299.96087
299.95815
299.95843
299.95815
299.95797
299.96058
299.96018
299.95779
299.95777
299.95778
299.95803
299.96008
299.96049
299.96012
299.96019
299.95781
299.95779
299.9578
299.95806
299.9601
299.96051
299.95873
299.95797
299.95871
299.96005
299.96141
299.9634
299.96183
299.96098
299.95947
299.95897
299.95882
299.96176
299.97251
299.96343
299.96405
299.96246
299.96414
299.9607
299.96254
299.96256
299.96645
299.97547
299.96532
299.96731
299.97005
299.96588
299.96342
299.96187
299.96101
299.95951
299.95901
299.95887
299.96182
299.97264
299.96411
299.96252
299.96419
299.96073
299.96258
299.96259
299.9665
299.97557
299.96538
299.96737
299.97009
299.98103
299.96973
299.96569
299.97109
299.96967
299.98098
299.97431
299.97396
299.98924
299.99098
299.98263
299.97681
299.97347
299.97347
299.97673
299.98246
299.99077
299.98237
299.97645
299.97676
299.97259
299.95584
299.96085
299.95984
299.97912
300.00091
300.00847
300.0056
300.00259
300.00121
300.001
300.00213
300.00148
300.00207
300.00096
300.00077
300.00145
300.00103
300.00207
300.00339
300.00469
300.00391
300.00459
300.0059
300.00586
300.00846
300.00792
300.00641
300.00406
300.00637
300.00518
300.00346
300.00193
300.00067
300.00117
300.00288
300.0038
300.00469
300.00551
300.00435
300.00286
300.00408
300.00411
300.00287
300.00109
300.00109
300.00185
300.00185
300.00258
300.0012
300.00107
300.0022
300.00159
300.00092
300.00252
300.004
300.00348
300.00194
300.00067
300.00035
300.00112
300.00243
300.00357
300.00411
300.0042
300.00421
300.0041
300.00357
300.00244
300.00116
300.00039
299.9998
299.99976
300.00028
300.00117
300.00207
300.00282
300.00328
300.00328
300.00282
300.00209
300.00118
300.0003
299.99978
299.99981
299.99984
299.99979
299.99999
300.00009
300.00013
300.00039
300.00005
300.0007
300.00104
300.00152
300.00086
300.00105
300.00125
300.0014
300.0014
300.00125
300.00105
300.00117
300.00124
300.00126
300.00163
300.00136
300.00118
300.00114
300.00144
300.00115
300.00118
300.0014
300.00194
300.00137
300.0014
300.00176
300.00127
300.00127
300.00141
300.00144
300.00156
300.0015
300.00249
300.00213
300.00164
300.00292
300.00342
300.00219
300.00234
300.00374
300.00378
300.00176
300.00252
300.00254
300.00301
300.00299
300.0065
300.00538
300.0055
300.00682
300.00654
300.00281
300.00239
300.00514
300.00442
300.00575
300.01554
300.0116
300.0067
300.00342
300.00193
300.00218
300.00138
300.00134
300.00125
300.00235
300.00234
300.00374
300.00179
300.00173
300.00376
300.00536
300.00248
300.00252
300.00137
300.00151
300.00153
300.00141
300.00139
300.00149
300.00249
300.00213
300.00238
300.00174
300.00342
300.00292
300.00444
300.00516
300.00551
300.00685
300.003
300.00294
300.00648
300.01131
300.00998
300.00745
300.00447
300.00446
300.00791
300.00746
300.01083
300.00795
300.00488
300.00087
299.9789
299.98543
299.99466
300.00494
300.00788
300.0058
300.00588
300.00844
300.00095
299.97899
299.98547
299.98269
299.98212
299.97636
299.97661
299.96053
299.97067
299.97153
299.97261
299.98631
299.99616
299.98627
299.9793
299.95885
299.95949
299.95344
299.97486
299.97266
299.97306
299.97318
299.97277
299.9558
299.95565
299.95063
299.9522
299.95514
299.96056
299.95954
299.95895
299.97937
299.97443
299.97468
299.95353
299.95161
299.93967
299.94303
299.94894
299.94979
299.95195
299.95307
299.94963
299.95224
299.94969
299.94666
299.94957
299.94767
299.94509
299.94853
299.95172
299.95293
299.95548
299.95473
299.95467
299.95519
299.95248
299.95151
299.94813
299.94998
299.9468
299.94446
299.94342
299.94387
299.94512
299.94773
299.95067
299.94854
299.94775
299.95137
299.95469
299.9548
299.95132
299.95141
299.95135