/*--------------------------------*- C++ -*----------------------------------*\
  =========                 |
  \\      /  F ield         | OpenFOAM: The Open Source CFD Toolbox
   \\    /   O peration     | Website:  https://openfoam.org
    \\  /    A nd           | Version:  7
     \\/     M anipulation  |
\*---------------------------------------------------------------------------*/
FoamFile
{
    version     2.0;
    format      ascii;
    class       volVectorField;
    location    "60";
    object      U;
}
// * * * * * * * * * * * * * * * * * * * * * * * * * * * * * * * * * * * * * //

dimensions      [0 1 -1 0 0 0 0];

internalField   nonuniform List<vector> 
24866
(
(120.00021 -0.00056523111 -0.00068148334)
(120.00032 -0.00035793851 -0.0005184499)
(120.0003 -0.0004158993 -0.00042951123)
(120.00011 -0.00022063402 -0.00022023344)
(120.00002 -6.0774711e-05 -6.4113469e-05)
(120.00003 -5.6469624e-05 -7.7196454e-05)
(120.00002 -4.5142655e-05 -8.8549162e-05)
(120.00002 -4.4037052e-05 -8.280383e-05)
(120.00002 -2.6306274e-05 -8.9257621e-05)
(120.00003 -1.7894884e-05 -0.00010169433)
(120.00002 -4.6419687e-06 -0.00010047303)
(120.00002 7.0597614e-06 -0.00010034679)
(120.00003 2.0545638e-05 -0.00010123131)
(120.00002 2.9051684e-05 -8.8567739e-05)
(120.00002 4.7022943e-05 -8.2306346e-05)
(120.00002 4.8190811e-05 -8.6315369e-05)
(120.00003 6.0871739e-05 -7.5550524e-05)
(120.00002 6.4753589e-05 -6.1021664e-05)
(120.00002 6.9929695e-05 -5.8343369e-05)
(120.00003 8.6656138e-05 -5.0221936e-05)
(120.00003 0.00010467787 -4.7172164e-05)
(120.00004 0.00011663812 -3.4800604e-05)
(120.00002 0.00010360774 -2.2530573e-05)
(120.00004 9.2291929e-05 -3.8099589e-05)
(120.00003 0.00011576245 -8.0868786e-06)
(120.00003 0.00012573252 4.4405248e-06)
(120.00003 0.00010750036 1.7702414e-05)
(120.00004 8.487235e-05 4.5809688e-05)
(120.00004 9.7331052e-05 2.748927e-05)
(120.00003 9.9327531e-05 5.3107249e-05)
(120.00003 7.9482398e-05 5.3099005e-05)
(120.00002 6.6015098e-05 6.2586964e-05)
(120.00002 6.3114471e-05 6.5585179e-05)
(120.00003 5.3666032e-05 7.9058055e-05)
(120.00003 5.3682545e-05 9.8834433e-05)
(120.00004 2.7967391e-05 9.6916814e-05)
(120.00004 4.6291941e-05 8.455999e-05)
(120.00003 1.8213292e-05 0.00010717388)
(120.00003 4.9247007e-06 0.00012553437)
(120.00003 -7.5586901e-06 0.00011555892)
(120.00004 -3.7709635e-05 9.2166098e-05)
(120.00002 -2.2347952e-05 0.00010346601)
(120.00004 -3.4688377e-05 0.00011640075)
(120.00003 -4.7114681e-05 0.00010444568)
(120.00003 -5.0201007e-05 8.6318708e-05)
(120.00002 -5.8448572e-05 6.9732747e-05)
(120.00002 -6.0986918e-05 6.4360832e-05)
(120.00003 -7.5696283e-05 6.061257e-05)
(120.00002 -8.6280845e-05 4.7795434e-05)
(120.00002 -8.2518882e-05 4.6897837e-05)
(120.00002 -8.8389211e-05 2.8799416e-05)
(120.00003 -0.00010125362 2.0296047e-05)
(120.00002 -0.00010035593 6.9409844e-06)
(120.00002 -0.00010034774 -4.8023998e-06)
(120.00003 -0.00010130985 -1.8090908e-05)
(120.00002 -8.9242847e-05 -2.659201e-05)
(120.00002 -8.2560443e-05 -4.4300264e-05)
(120.00002 -8.8442596e-05 -4.5546634e-05)
(120.00003 -7.676207e-05 -5.6675965e-05)
(120.00002 -6.3985263e-05 -6.1279356e-05)
(120.00002 -0.00011461545 -8.8541695e-05)
(120.00001 -0.00011639435 -0.00011669782)
(120.00002 -8.8171563e-05 -0.00011489944)
(120.00003 -9.1877186e-05 -0.00010924229)
(120.00001 -9.564599e-05 -0.00014749893)
(120.00002 -6.9572815e-05 -0.00016370249)
(120.00001 -5.865769e-05 -0.0001487612)
(120.00002 -4.9949959e-05 -0.00013450332)
(120.00001 -3.808434e-05 -0.00017040917)
(120.00001 -1.196822e-05 -0.00018004657)
(120.00001 1.4514001e-05 -0.00017996033)
(120.00001 4.0739845e-05 -0.00017015245)
(120.00002 5.2731403e-05 -0.00013390068)
(120.00001 6.0726434e-05 -0.00014801612)
(120.00002 7.2789903e-05 -0.00016284788)
(120.00001 9.9706173e-05 -0.0001463613)
(120.00003 9.6491183e-05 -0.00010799941)
(120.00002 9.1874727e-05 -0.00011225011)
(120.00001 0.00012182233 -0.00011424898)
(120.00002 0.00012144737 -8.8283975e-05)
(120.00003 0.00011928562 -9.2359247e-05)
(120.00001 0.00016631297 -9.8915992e-05)
(120.00002 0.00019411869 -7.9725015e-05)
(120.00002 0.00019957538 -5.822037e-05)
(120.00002 0.0001969144 -1.0091252e-05)
(120 0.00018083912 -2.3684369e-05)
(120.00002 0.00018023568 -9.1295465e-06)
(120 0.0001858233 1.1850814e-05)
(120.00002 0.00016487437 3.286378e-05)
(120.00001 0.0001656739 4.7856143e-05)
(120.00002 0.00018142737 4.3729022e-05)
(120.00001 0.0002072352 1.6642699e-05)
(120.00001 0.00023797337 2.4815272e-05)
(120.00001 0.00023826022 -2.6812172e-05)
(120.00001 0.0002227367 -7.6277901e-05)
(120.00001 0.00020078233 -0.00011124805)
(120.00001 0.00016129982 -0.00012124347)
(120.00001 0.00016699892 -0.00016069338)
(120.00001 0.00012727088 -0.00015264169)
(120.00001 0.0001127927 -0.0001956286)
(120.00001 0.00014416115 -0.00019638242)
(120 0.00017635969 -0.00017227732)
(120.00001 0.00020265765 -0.00014041689)
(120.00001 0.00022907905 -9.7365023e-05)
(120 0.00024362935 -3.5311681e-05)
(120 0.00024318535 3.3900029e-05)
(120.00001 0.0002273465 9.7517597e-05)
(120.00001 0.00022336799 7.3760169e-05)
(120.00001 0.00019508702 0.00011157324)
(120.00001 0.00017408032 7.6457716e-05)
(120.00001 0.0001588278 0.00010064921)
(120.00003 0.00011147105 9.2562174e-05)
(120.00002 0.0001164822 9.0398523e-05)
(120.00001 0.00011792939 0.00011745877)
(120.00001 0.00015719899 0.00012387322)
(120.00001 0.00016481596 0.00016426558)
(120.00001 0.00020015743 0.00014199301)
(120 0.00017514556 0.0001745418)
(119.99999 0.00020049429 0.00011985344)
(119.99999 0.0002149467 4.242058e-05)
(119.99999 0.00021542504 -4.3219384e-05)
(119.99999 0.0002011618 -0.00011905979)
(119.99998 0.00013926761 -0.00013649843)
(119.99999 0.00012177683 -0.00019723361)
(120 0.00010004637 -0.00022533399)
(120.00001 7.6793006e-05 -0.0002249854)
(120.00001 5.5543227e-05 -0.0001956786)
(120.00001 2.2641119e-05 -0.00021403232)
(120.00001 2.8500464e-05 -0.00024193097)
(120 3.6537756e-05 -0.00024149735)
(119.99999 4.4528174e-05 -0.00021170583)
(119.99997 5.0830119e-05 -0.0001466942)
(119.99997 5.4434276e-05 -5.3009933e-05)
(119.99997 0.00014934353 -4.9353708e-05)
(119.99997 0.00014897967 4.9263444e-05)
(119.99998 0.00013845807 0.00013778849)
(119.99999 0.00012047516 0.00019986182)
(120.00001 9.8089922e-05 0.00022678599)
(120.00001 0.000142571 0.0001996014)
(120.00001 0.00011211937 0.00019459639)
(120.00001 0.00012441593 0.0001566742)
(120.00001 0.00010122107 0.00015838051)
(120.00003 9.311162e-05 0.00011103697)
(120.00002 9.0814353e-05 0.00011597843)
(120.00003 0.00017545042 0.00023865189)
(120.00003 0.00019721846 0.00022513336)
(120.00006 0.00027974075 0.00033775021)
(120.00013 0.00018038898 0.00027299889)
(120.00011 0.00022492312 0.00022414092)
(120.00011 0.000225498 0.00022336967)
(120.00013 0.00027423248 0.00017863724)
(120.00011 0.00030532257 0.00014255679)
(120.00012 0.00035563177 0.00015353733)
(120.00004 0.00021147848 6.7825497e-05)
(120.00004 0.00018397507 8.7187987e-05)
(120.00011 0.0003719727 0.00011697047)
(120.00011 0.00036292655 7.6973358e-05)
(120.00011 0.00037336941 1.498687e-05)
(120.00012 0.00038803257 -4.577652e-05)
(120.0001 0.00041049139 -9.9333367e-05)
(120.00014 0.00049719222 -0.00011067054)
(120.00013 0.00041735951 -0.00017076982)
(120.00011 0.00032401254 -0.0001273257)
(120.00013 0.00029056783 -0.000169821)
(120.00012 0.00023858319 -0.00021316442)
(120.00012 0.00023468869 -0.0002116743)
(120.00013 0.0002008502 -0.00025792339)
(120.0001 0.00015419022 -0.00026830698)
(120.00012 0.00016439427 -0.00028877397)
(120.00012 9.2348905e-05 -0.00031803413)
(120.00012 6.9026894e-05 -0.00032826309)
(120.00012 2.419267e-05 -0.00034621527)
(120.00012 -1.6361747e-05 -0.00034652844)
(120.00012 -6.0947312e-05 -0.00032939827)
(120.00012 -8.3815104e-05 -0.00031995923)
(120.00012 -0.00015534286 -0.00029120141)
(120.0001 -0.00014453636 -0.0002734112)
(120.00013 -0.00018776514 -0.00026319109)
(120.00006 -0.00027843229 -0.0003305019)
(120.00006 -0.00025384636 -0.00031046078)
(120.00003 -0.0001719143 -0.00023734696)
(120.00002 -0.00019472398 -0.00022192025)
(120.00006 -0.00033491069 -0.00035568308)
(120.00012 -0.00032795536 -0.00039043866)
(120.00006 -0.00027634481 -0.00036108406)
(120.00004 -0.00033430327 -0.00033515278)
(120.00001 -0.00048048616 -0.00038983738)
(120.00001 -0.0001540045 -0.00012314083)
(120.00001 -0.00016109117 -0.00016150715)
(120.00001 -0.00012274235 -0.00015433148)
(120.00001 -0.00010903988 -0.00019656154)
(120.00001 -7.3421589e-05 -0.00022542914)
(120.00001 -5.2502878e-05 -0.00019616468)
(120.00001 -1.9827259e-05 -0.00021413397)
(120.00001 -2.5434537e-05 -0.00024206777)
(120 -3.3284146e-05 -0.00024160018)
(119.99999 -4.1285204e-05 -0.00021170707)
(119.99997 -4.7872724e-05 -0.00014656588)
(119.99997 -5.1973089e-05 -5.2771226e-05)
(119.99996 -5.2316919e-05 5.3604633e-05)
(119.99996 5.4078487e-05 5.3325977e-05)
(119.99997 4.9920508e-05 0.00014825029)
(119.99999 4.3007127e-05 0.00021429018)
(120 3.4424453e-05 0.00024262774)
(120.00001 2.5299052e-05 0.00023750457)
(120.00001 7.4302519e-05 0.00022288576)
(120.00002 4.4250253e-05 0.00018100212)
(120.00001 7.7005896e-05 0.00017366478)
(120.00005 0.0002160862 0.00050571278)
(120.00011 0.00017297553 0.00048239436)
(120.00004 9.710083e-05 0.00030982576)
(120.00004 6.8903569e-05 0.00021074624)
(120.00012 0.00015532677 0.00035462973)
(120.00011 0.00014414241 0.00030408136)
(120.00027 0.00030166263 0.00060204088)
(120.00032 0.00035652113 0.00053445219)
(120.0003 0.00042403 0.00043687633)
(120.0003 0.00043924578 0.00042115705)
(120.00032 0.00053681191 0.00035354457)
(120.00027 0.00060431018 0.00029887701)
(120.00027 0.00062076494 0.00029194154)
(120.00028 0.00068118782 0.00019681722)
(120.00028 0.0006834857 0.00013842358)
(120.00027 0.00071597058 3.4304119e-05)
(120.00027 0.0007191084 -6.8739924e-05)
(120.00025 0.00073673564 -0.00016482864)
(120.00028 0.00079617758 -0.00020242781)
(120.00028 0.00069226698 -0.0003062068)
(120.00027 0.00063918979 -0.00028070292)
(120.00032 0.00056257617 -0.00033357194)
(120.0003 0.00045810154 -0.00040227419)
(120.0003 0.00044065234 -0.00041866304)
(120.00032 0.0003797966 -0.00050945428)
(120.00028 0.00031608436 -0.00055963278)
(120.00031 0.00029816372 -0.00055993113)
(120.00031 0.00018452616 -0.00062612139)
(120.0003 0.00013677931 -0.00066232269)
(120.0003 4.4525666e-05 -0.00070072012)
(120.0003 -3.0437744e-05 -0.00070103008)
(120.0003 -0.00012255258 -0.00066382886)
(120.00031 -0.00016964368 -0.00062926973)
(120.00031 -0.00028179141 -0.00056419961)
(120.00028 -0.00029896222 -0.00056706621)
(120.00056 -0.00054197845 -0.001009365)
(120.00062 -0.00064800335 -0.00094524358)
(120.00059 -0.00076223935 -0.00078567807)
(120.00059 -0.00078362281 -0.0007647218)
(120.00062 -0.00094311495 -0.00065047003)
(120.00032 -0.00051704453 -0.00035965791)
(120.00013 -0.00026239035 -0.00018875728)
(120.0001 -0.00027261741 -0.00014542454)
(120.00012 -0.00029062555 -0.00015620271)
(120.00012 -0.0003197895 -8.4764303e-05)
(120.00012 -0.00032868853 -6.1672487e-05)
(120.00012 -0.00034619593 -1.6995798e-05)
(120.00012 -0.00034612134 2.3595605e-05)
(120.00012 -0.00032808368 6.8201862e-05)
(120.00012 -0.00031796987 9.1555046e-05)
(120.00012 -0.00028884761 0.00016355528)
(120.0001 -0.00026827914 0.00015309063)
(120.00013 -0.00025803389 0.00019987361)
(120.00011 -0.00021170927 0.00023365352)
(120.00011 -0.00021323595 0.00023775999)
(120.00013 -0.00016976264 0.00028965151)
(120.00011 -0.00012716924 0.00032321659)
(120.00013 -0.00017036291 0.00041641205)
(120.00005 -6.8583716e-05 0.00024387009)
(120.00002 -5.3534376e-05 0.00024980235)
(120.00003 -6.025148e-05 0.00021680987)
(120.0001 -9.8446099e-05 0.00040942829)
(120.00011 -4.4623126e-05 0.00038677341)
(120.00011 1.6478593e-05 0.00037242415)
(120.00011 7.8593282e-05 0.00036234055)
(120.00011 0.00011866269 0.00037127737)
(120.00004 8.8235538e-05 0.0001834033)
(120.00004 9.9607453e-05 0.00028562864)
(120.00009 0.00014268761 0.00045202548)
(120.0001 0.00019713333 0.00046316093)
(120.00014 0.00018847475 0.00054904851)
(120.0001 0.00013347393 0.00048568683)
(120.0001 0.00010636966 0.00051713757)
(120.00009 8.8117007e-05 0.0005727057)
(120.00003 5.049471e-05 0.0003918445)
(120.00001 4.8248756e-05 0.00016521836)
(120.00002 3.3468591e-05 0.00016444689)
(120 1.2311178e-05 0.00018547903)
(120.00001 1.7101688e-05 0.00020682712)
(120.00002 -9.7502323e-06 0.00019660144)
(120.00001 -2.6419189e-05 0.00023781579)
(120 -3.4877684e-05 0.000243086)
(119.99999 -4.2726e-05 0.00021476148)
(119.99997 -4.8775862e-05 0.0001485713)
(119.99998 -0.00013605045 0.00013848758)
(119.99997 -0.000146138 4.9969585e-05)
(119.99997 -0.00014589386 -4.8723307e-05)
(119.99998 -0.00013547705 -0.00013621651)
(119.99999 -0.00011785784 -0.00019731658)
(120 -9.6318336e-05 -0.00022568975)
(120.00001 -0.00013983448 -0.00019713253)
(120 -0.00017185543 -0.00017243379)
(119.99999 -0.00019673213 -0.00011858244)
(119.99999 -0.00021119992 -4.2095402e-05)
(119.99999 -0.00021130864 4.3717609e-05)
(119.99999 -0.00019693278 0.0001210467)
(120 -0.00017204049 0.00017574425)
(119.99999 -0.00011869741 0.00020050342)
(120.00001 -9.7041802e-05 0.00022854698)
(120.00001 -7.5978613e-05 0.00022231301)
(120.00002 -5.7925374e-05 0.00019921487)
(120.00002 -7.9539386e-05 0.00019373193)
(120.00001 -0.00011105224 0.00020036412)
(120.00001 -0.00014020361 0.0002021465)
(120.00001 -0.00016056399 0.00016652931)
(120.00001 -0.0001962391 0.0001436148)
(120 -0.000225138 9.9436825e-05)
(120 -0.0002412337 3.5863888e-05)
(120 -0.00024124047 -3.3958337e-05)
(120 -0.00022527282 -9.6925363e-05)
(120.00001 -0.00019669105 -0.00014036009)
(120.00001 -0.00019626238 -0.00010948742)
(120.00001 -0.00022513226 -7.3887832e-05)
(120.00001 -0.00024181105 -2.5922052e-05)
(120.00001 -0.0002417448 2.8015196e-05)
(120.00001 -0.00022484329 7.6327077e-05)
(120.00001 -0.00019552604 0.00011233413)
(120.00001 -0.0001525615 0.00012685037)
(120.00001 -0.00011418861 0.00012148678)
(120.00001 -0.00012115424 0.00016091068)
(120.00001 -9.8797446e-05 0.00016593803)
(120.00003 -9.2318245e-05 0.0001188967)
(120.00002 -8.8271058e-05 0.00012112969)
(120.00003 -0.00016817838 0.00024799134)
(120.00006 -0.00024743356 0.00032519232)
(120.00006 -0.00027442339 0.0003583992)
(120.00003 -0.0001935305 0.00023936125)
(120.00006 -0.00033259599 0.00038471575)
(120.00006 -0.00027213669 0.00037505823)
(120.00012 -0.00032440612 0.00041528687)
(120.0002 -0.00055675608 0.00071668661)
(120.00032 -0.00033347552 0.00056096985)
(120.00027 -0.00028034043 0.00063771665)
(120.00028 -0.00030545666 0.0006908618)
(120.00028 -0.00020144166 0.00079466561)
(120.00014 -0.00011005135 0.00049589643)
(120.00007 -0.00019533421 0.0005967535)
(120.00013 -0.00014978798 0.00052927065)
(120.00012 -0.0001201279 0.0005444004)
(120.00004 -6.6349209e-05 0.00038363472)
(120.00003 -6.2564731e-05 0.00035533382)
(120.0001 -7.5677192e-05 0.00054769867)
(120.00014 -0.00013167391 0.00061007158)
(120.00008 -0.00010064256 0.00051058684)
(120.00017 -0.0002148125 0.0010062961)
(120.00025 -0.00016338462 0.00073526992)
(120.00027 -6.6858525e-05 0.00071771313)
(120.00027 3.6691585e-05 0.00071466103)
(120.00027 0.00014104031 0.00068194284)
(120.00028 0.00019952559 0.00067928445)
(120.00027 0.00029488107 0.00061894292)
(120.00054 0.00052028496 0.0010492324)
(120.00053 0.00055071976 0.0010475304)
(120.0006 0.00065543109 0.00096659615)
(120.00058 0.00077526908 0.00079680077)
(120.00058 0.00080048891 0.00077081606)
(120.0006 0.00097044446 0.00065098664)
(120.00053 0.0010510421 0.00054645528)
(120.00054 0.0010520133 0.0005158658)
(120.00056 0.001192146 0.00033313636)
(120.00054 0.0012012203 0.00023484328)
(120.00053 0.0012447827 6.8051351e-05)
(120.00053 0.001247756 -9.2001541e-05)
(120.00051 0.0012476454 -0.0002588585)
(120.00055 0.0012765556 -0.00033813326)
(120.00053 0.0011068613 -0.00051178198)
(120.00053 0.0010844688 -0.0005267898)
(120.0006 0.00099983101 -0.0006279557)
(120.00058 0.00082265809 -0.00074561289)
(120.00059 0.00079729432 -0.00077353966)
(120.00061 0.0006784605 -0.00093294132)
(120.00056 0.00056678153 -0.00099997173)
(120.00057 0.0005295631 -0.00099204681)
(120.00059 0.00033134309 -0.0011294888)
(120.00056 0.00024033161 -0.0011607567)
(120.00055 8.1439516e-05 -0.0012013277)
(120.00055 -6.0832647e-05 -0.001202278)
(120.00056 -0.00021924341 -0.0011631935)
(120.0006 -0.00030914992 -0.0011338584)
(120.00057 -0.00050525757 -0.00099765174)
(120.00092 -0.00081111358 -0.0016003145)
(120.0009 -0.00087818804 -0.001604331)
(120.00099 -0.0010572055 -0.0015249577)
(120.00096 -0.0012371733 -0.0012791606)
(120.00096 -0.0012764181 -0.0012404025)
(120.00099 -0.0015221572 -0.0010604361)
(120.0009 -0.0016018008 -0.00088143386)
(120.00056 -0.0010074233 -0.00054440641)
(120.00028 -0.00056575934 -0.00030059085)
(120.00031 -0.00056327491 -0.000283367)
(120.00031 -0.00062851582 -0.00017113271)
(120.0003 -0.00066304006 -0.00012398059)
(120.0003 -0.00070054684 -3.1892241e-05)
(120.0003 -0.00070024678 4.3022587e-05)
(120.0003 -0.00066186924 0.00013524954)
(120.00031 -0.00062588937 0.00018301475)
(120.00031 -0.0005599202 0.00029645142)
(120.00028 -0.00055972434 0.00031428684)
(120.00032 -0.00050958987 0.00037801899)
(120.0003 -0.00041870201 0.00043885164)
(120.0003 -0.00040236813 0.0004565968)
(120.00058 -0.00074567778 0.00082023508)
(120.0006 -0.0006277459 0.0009972767)
(120.00053 -0.00052613041 0.0010821448)
(120.00053 -0.00051061738 0.0011047695)
(120.00055 -0.00033657725 0.0012743419)
(120.00051 -0.00025663216 0.0012454572)
(120.00052 -8.9175843e-05 0.0012455923)
(120.00053 7.1437073e-05 0.0012425949)
(120.00054 0.00023864823 0.0011988069)
(120.00056 0.00033730818 0.0011891899)
(120.00091 0.00053699461 0.001878025)
(120.00088 0.00082941712 0.0016507787)
(120.00087 0.00089343588 0.0016454315)
(120.00097 0.0010720018 0.0015519549)
(120.00094 0.0012559412 0.001294529)
(120.00094 0.0012997894 0.0012497145)
(120.00097 0.0015574835 0.0010658656)
(120.00087 0.0016503776 0.00088748306)
(120.00088 0.0016547708 0.00082329128)
(120.00091 0.0018822452 0.00053124254)
(120.00086 0.0018966923 0.0003766142)
(120.00085 0.001951493 0.00011597928)
(120.00084 0.0019551392 -0.00012903332)
(120.00084 0.0019332023 -0.00039080175)
(120.00089 0.001945013 -0.00052990029)
(120.00087 0.0016973704 -0.00081090985)
(120.00086 0.0016807569 -0.000868285)
(120.00097 0.0015857573 -0.0010408186)
(120.00094 0.0013226312 -0.0012204269)
(120.00095 0.0012807079 -0.0012661758)
(120.00098 0.0010953428 -0.0015107983)
(120.00089 0.00091028115 -0.0015935094)
(120.00092 0.00084313575 -0.0015936819)
(120.00095 0.00054079445 -0.0018172543)
(120.00089 0.00038900346 -0.0018436713)
(120.00088 0.00013256185 -0.0018946508)
(120.00088 -0.00010492882 -0.0018955019)
(120.00089 -0.00036064729 -0.0018462974)
(120.00095 -0.00051125404 -0.0018224696)
(120.00142 -0.0007925981 -0.0027503817)
(120.00139 -0.0012233653 -0.0024222646)
(120.00136 -0.001336634 -0.0024083539)
(120.00149 -0.0016139451 -0.0023010158)
(120.00145 -0.0018762549 -0.0019491463)
(120.00145 -0.0019457715 -0.0018801545)
(120.00149 -0.0022976242 -0.0016179107)
(120.00136 -0.0024053039 -0.0013407042)
(120.00139 -0.0024195946 -0.0012276179)
(120.00142 -0.0027481472 -0.00079720878)
(120.00095 -0.0018206144 -0.00051475678)
(120.0006 -0.0011325658 -0.00031159447)
(120.00056 -0.0011616424 -0.00022153401)
(120.00055 -0.0012010036 -6.3047846e-05)
(120.00055 -0.0012011272 7.9139201e-05)
(120.00056 -0.0011606614 0.00023785198)
(120.00059 -0.0011292491 0.00032871706)
(120.00057 -0.00099207153 0.00052672022)
(120.00055 -0.0010001208 0.00056396897)
(120.00061 -0.00093313697 0.00067561793)
(120.00059 -0.00077356015 0.00079445482)
(120.00095 -0.0012662437 0.001276626)
(120.00094 -0.0012204631 0.0013191011)
(120.00096 -0.0010404938 0.0015821059)
(120.00086 -0.00086734551 0.0016774613)
(120.00087 -0.00080933038 0.0016944378)
(120.00089 -0.00052779597 0.0019419437)
(120.00084 -0.00038778735 0.0019301651)
(120.00084 -0.00012518521 0.001952092)
(120.00085 0.00012060738 0.0019483197)
(120.00086 0.0003818429 0.0018932201)
(120.0013 0.00058268895 0.0028255595)
(120.00138 0.00081955387 0.0028045406)
(120.00135 0.0012475751 0.0024716329)
(120.00132 0.001359105 0.002450175)
(120.00146 0.0016363664 0.0023320949)
(120.00142 0.0019018577 0.0019687854)
(120.00142 0.0019759042 0.0018935749)
(120.00146 0.002339543 0.0016282413)
(120.00132 0.0024568071 0.0013511943)
(120.00135 0.0024770632 0.0012394557)
(120.00138 0.0028102125 0.00081196849)
(120.00131 0.0028302499 0.00057583471)
(120.00128 0.0029010145 0.00018217544)
(120.00127 0.0029051928 -0.00018595973)
(120.00128 0.0028590188 -0.00058010537)
(120.00136 0.0028569469 -0.00080451732)
(120.00134 0.0025105618 -0.0012222659)
(120.00132 0.002483973 -0.001330015)
(120.00146 0.0023658603 -0.0016001154)
(120.00143 0.0019981207 -0.0018605608)
(120.00143 0.0019267944 -0.0019354563)
(120.00148 0.001659123 -0.002285971)
(120.00135 0.0013758908 -0.0023965427)
(120.00139 0.0012628832 -0.002414949)
(120.00142 0.00082938817 -0.0027446868)
(120.00134 0.00059285664 -0.0027715044)
(120.00132 0.00020067631 -0.0028398653)
(120.00132 -0.0001657615 -0.0028407263)
(120.00134 -0.00055723389 -0.0027743631)
(120.00197 -0.00082523479 -0.0040185971)
(120.00208 -0.001174089 -0.0039870752)
(120.00205 -0.0017746414 -0.0035232707)
(120.002 -0.001950847 -0.0034798488)
(120.00218 -0.0023550825 -0.0033286752)
(120.00212 -0.0027241746 -0.0028409947)
(120.00212 -0.0028371422 -0.002728589)
(120.00218 -0.0033248161 -0.0023596358)
(120.002 -0.0034763471 -0.0019556335)
(120.00205 -0.0035202235 -0.0017798068)
(120.00208 -0.0039844838 -0.0011797892)
(120.00197 -0.0040166277 -0.00083135271)
(120.00134 -0.0027725691 -0.00056202432)
(120.00089 -0.0018446086 -0.00036415888)
(120.00087 -0.0018941649 -0.00010829235)
(120.00087 -0.0018940259 0.00012907196)
(120.00089 -0.0018432804 0.00038510717)
(120.00095 -0.0018170436 0.00053681207)
(120.00092 -0.0015939232 0.00083897243)
(120.00089 -0.0015937467 0.00090625309)
(120.00098 -0.0015111097 0.0010912285)
(120.00148 -0.0022865016 0.0016535617)
(120.00143 -0.0019356484 0.0019213192)
(120.00142 -0.0018606684 0.0019933538)
(120.00146 -0.001599777 0.0023609643)
(120.00131 -0.0013288709 0.0024795691)
(120.00134 -0.0012203238 0.0025066635)
(120.00136 -0.00080186758 0.0028528937)
(120.00128 -0.00057627073 0.0028550198)
(120.00126 -0.00018099839 0.0029011283)
(120.00127 0.00018821494 0.0028967264)
(120.00187 0.00027972889 0.0041681291)
(120.00192 0.00085625902 0.0040716033)
(120.00203 0.0012051342 0.0040402871)
(120.002 0.0018056664 0.0035726826)
(120.00196 0.0019807458 0.0035222451)
(120.00215 0.0023855528 0.0033629306)
(120.00209 0.0027573693 0.0028649868)
(120.00209 0.0028742507 0.0027466994)
(120.00215 0.0033725814 0.0023750991)
(120.00196 0.0035308137 0.001970561)
(120.00201 0.0035797478 0.0017952576)
(120.00204 0.0040475931 0.0011954156)
(120.00193 0.0040776566 0.00084753549)
(120.00188 0.0041736238 0.00027212831)
(120.00187 0.0041779489 -0.00026844894)
(120.00191 0.0041004335 -0.0008434925)
(120.00202 0.0040826054 -0.0011825357)
(120.00199 0.003606469 -0.0017736272)
(120.00195 0.0035548391 -0.0019458177)
(120.00215 0.0033965663 -0.002343217)
(120.0021 0.0028953323 -0.0027098747)
(120.00211 0.0027810758 -0.0028267197)
(120.00217 0.0024070329 -0.0033133287)
(120.00199 0.0019972307 -0.0034673969)
(120.00204 0.0018214837 -0.0035155689)
(120.00208 0.0012179726 -0.0039810831)
(120.00197 0.00086804426 -0.0040154958)
(120.00193 0.00029213084 -0.0041102952)
(120.00193 -0.00025004268 -0.0041111992)
(120.00275 -0.00036402475 -0.005770306)
(120.00281 -0.0011807791 -0.0056386094)
(120.00297 -0.0016761373 -0.0055930868)
(120.00293 -0.0024892458 -0.0049572482)
(120.00286 -0.002749072 -0.0048646466)
(120.0031 -0.0033143947 -0.0046536635)
(120.00303 -0.0038175385 -0.0039948838)
(120.00303 -0.0039907622 -0.0038222419)
(120.0031 -0.0046495152 -0.0033192824)
(120.00286 -0.0048608592 -0.0027543618)
(120.00293 -0.00495394 -0.002495185)
(120.00297 -0.0055901008 -0.001682812)
(120.00281 -0.0056363545 -0.0011881492)
(120.00275 -0.0057687056 -0.0003721748)
(120.00193 -0.0041097379 -0.00025662892)
(120.00132 -0.0028393232 -0.00017070542)
(120.00132 -0.0028390328 0.00019552725)
(120.00134 -0.002770936 0.00058732054)
(120.00142 -0.0027445386 0.00082375195)
(120.00139 -0.0024153169 0.0012571785)
(120.00135 -0.0023969668 0.0013704313)
(120.00199 -0.0034681712 0.0019900748)
(120.00216 -0.0033142534 0.0023998143)
(120.0021 -0.0028271859 0.0027739891)
(120.00209 -0.0027102763 0.0028891715)
(120.00214 -0.0023430376 0.0033902764)
(120.00194 -0.0019446311 0.0035492123)
(120.00199 -0.0017714549 0.0036015142)
(120.00201 -0.0011794215 0.0040774872)
(120.0019 -0.00083883972 0.0040953912)
(120.00187 -0.00026229107 0.0041727992)
(120.00269 -0.00037428172 0.0058334825)
(120.0027 0.00040093519 0.0058288629)
(120.00276 0.0012178993 0.0056936371)
(120.00292 0.0017127833 0.005646872)
(120.00288 0.0025274701 0.0050080771)
(120.00282 0.002786527 0.0049086223)
(120.00306 0.0033531027 0.0046912858)
(120.00299 0.0038588106 0.004023547)
(120.003 0.0040352642 0.0038453679)
(120.00306 0.0047034583 0.003339934)
(120.00282 0.0049194077 0.0027736957)
(120.00289 0.0050169751 0.0025144089)
(120.00293 0.0056559843 0.0017006201)
(120.00277 0.0057011614 0.0012070261)
(120.00271 0.0058356343 0.00039159003)
(120.0027 0.0058397779 -0.00038167999)
(120.00276 0.0057192813 -0.0011960231)
(120.00291 0.0056825839 -0.0016827841)
(120.00288 0.0050386794 -0.0024884448)
(120.00282 0.0049407371 -0.0027448331)
(120.00306 0.0047251067 -0.0033039026)
(120.003 0.0040550347 -0.0038044536)
(120.00301 0.0038807676 -0.0039803149)
(120.00309 0.0033731554 -0.0046384293)
(120.00286 0.0028026376 -0.0048518485)
(120.00292 0.002543336 -0.0049494081)
(120.00297 0.0017269077 -0.0055869379)
(120.00281 0.0012305226 -0.0056352873)
(120.00275 0.00041301788 -0.0057693594)
(120.00383 0.00056798755 -0.0078573162)
(120.00383 -0.00051249431 -0.007858377)
(120.00391 -0.0016352473 -0.0076699621)
(120.0041 -0.0023134872 -0.007602673)
(120.00406 -0.0033746485 -0.0067583149)
(120.00398 -0.0037458897 -0.0065828691)
(120.00426 -0.0045094696 -0.0062957406)
(120.00418 -0.0051707341 -0.005432989)
(120.00418 -0.0054288414 -0.0051754556)
(120.00426 -0.0062914873 -0.0045144151)
(120.00398 -0.0065789138 -0.0037513457)
(120.00406 -0.0067548467 -0.0033810598)
(120.0041 -0.0075991923 -0.0023209227)
(120.00391 -0.007667188 -0.0016436938)
(120.00383 -0.0078564306 -0.000522139)
(120.00383 -0.0078562597 0.00055733749)
(120.00275 -0.0057684222 0.00040421149)
(120.00192 -0.0041093902 0.00028515205)
(120.00197 -0.004014903 0.00086067115)
(120.00208 -0.0039811532 0.0012104787)
(120.00204 -0.003516139 0.0018139298)
(120.00292 -0.0049502893 0.0025335582)
(120.00285 -0.0048531634 0.0027935254)
(120.00308 -0.0046399843 0.0033640336)
(120.003 -0.0039813033 0.0038717641)
(120.003 -0.0038054261 0.0040472703)
(120.00305 -0.0033041467 0.0047172021)
(120.00281 -0.00274383 0.0049337073)
(120.00286 -0.0024862145 0.0050325651)
(120.0029 -0.0016793175 0.0056762835)
(120.00274 -0.0011905934 0.0057131317)
(120.00384 -0.00164253 0.0077435288)
(120.00376 -0.00052129661 0.0079234902)
(120.00377 0.00055654921 0.0079191027)
(120.00386 0.0016788556 0.0077273262)
(120.00405 0.0023566327 0.0076579053)
(120.00401 0.0034204988 0.0068113088)
(120.00394 0.0037912452 0.0066291502)
(120.00422 0.0045566969 0.0063370491)
(120.00414 0.0052204397 0.0054665927)
(120.00415 0.005481136 0.005203768)
(120.00422 0.0063521293 0.0045403416)
(120.00395 0.0066424677 0.0037752961)
(120.00402 0.0068222408 0.0034043089)
(120.00406 0.0076690084 0.0023416093)
(120.00387 0.0077364172 0.0016655099)
(120.00379 0.0079272218 0.00054522572)
(120.00378 0.007930954 -0.0005300179)
(120.00386 0.0077508624 -0.0016486472)
(120.00405 0.0076895478 -0.0023193468)
(120.00401 0.006840608 -0.0033742713)
(120.00394 0.0066619792 -0.003742147)
(120.00422 0.0063718648 -0.0044999997)
(120.00416 0.0054996218 -0.0051585911)
(120.00416 0.0052405506 -0.0054185215)
(120.00425 0.0045752334 -0.0062808649)
(120.00398 0.0038066987 -0.006569945)
(120.00405 0.003435879 -0.0067505424)
(120.0041 0.0023708988 -0.0075964779)
(120.00391 0.0016916081 -0.0076664796)
(120.00527 0.0022430319 -0.01006436)
(120.00517 0.00075597934 -0.010330797)
(120.00517 -0.00069432235 -0.010331839)
(120.00527 -0.0021803453 -0.010067837)
(120.00547 -0.0030773485 -0.0099747198)
(120.00543 -0.0043967128 -0.0088998464)
(120.00535 -0.0049174277 -0.0085870783)
(120.00562 -0.0059141803 -0.0082122008)
(120.00554 -0.006745196 -0.0071290734)
(120.00554 -0.0071249934 -0.0067496833)
(120.00562 -0.0082079227 -0.005918813)
(120.00535 -0.0085829991 -0.0049226275)
(120.00543 -0.0088960923 -0.0044031266)
(120.00547 -0.0099704572 -0.0030852008)
(120.00527 -0.010064123 -0.0021895916)
(120.00517 -0.010328925 -0.00070546251)
(120.00517 -0.010329031 0.00074323872)
(120.00526 -0.010063751 0.0022290157)
(120.00391 -0.0076662545 0.001680146)
(120.00281 -0.0056348759 0.0012211932)
(120.00296 -0.0055874531 0.0017173476)
(120.0041 -0.0075974977 0.0023589997)
(120.00405 -0.0067518092 0.0034234359)
(120.00397 -0.0065719093 0.0037952239)
(120.00424 -0.0062832637 0.0045638087)
(120.00415 -0.0054202564 0.0052292031)
(120.00414 -0.0051603798 0.0054899255)
(120.00421 -0.0045009025 0.0063620112)
(120.00393 -0.0037415971 0.0066532819)
(120.004 -0.0033722226 0.0068331974)
(120.00403 -0.0023157077 0.0076819635)
(120.0054 -0.0030792233 0.010051253)
(120.0052 -0.0021858019 0.010140261)
(120.0051 -0.00070186042 0.010398042)
(120.00511 0.00074552882 0.010394129)
(120.00521 0.0022307872 0.010126744)
(120.00542 0.0031275911 0.010031083)
(120.00538 0.0044505315 0.0089547567)
(120.00531 0.0049710567 0.0086356322)
(120.00558 0.0059701966 0.0082570886)
(120.00551 0.0068036264 0.0071674879)
(120.00551 0.0071853864 0.006783096)
(120.00559 0.0082755905 0.0059500542)
(120.00532 0.0086519134 0.0049513617)
(120.00539 0.0089680001 0.0044305654)
(120.00543 0.010044416 0.0031091737)
(120.00523 0.010137576 0.0022145306)
(120.00513 0.010403663 0.00073194682)
(120.00513 0.010406787 -0.00071201904)
(120.00522 0.01014894 -0.0021925561)