/*--------------------------------*- C++ -*----------------------------------*\
  =========                 |
  \\      /  F ield         | OpenFOAM: The Open Source CFD Toolbox
   \\    /   O peration     | Website:  https://openfoam.org
    \\  /    A nd           | Version:  7
     \\/     M anipulation  |
\*---------------------------------------------------------------------------*/
FoamFile
{
    version     2.0;
    format      ascii;
    class       volScalarField;
    location    "110";
    object      nut;
}
// * * * * * * * * * * * * * * * * * * * * * * * * * * * * * * * * * * * * * //

dimensions      [0 2 -1 0 0 0 0];

internalField   nonuniform List<scalar> 
24866
(
7.9871356
7.9939632
7.9907859
8.1778772
8.34244
8.3402624
8.336201
8.3404646
8.3397339
8.3348703
8.3351306
8.3351673
8.3348938
8.3397677
8.3405475
8.3361861
8.3400876
8.3413815
8.3405199
8.3359941
8.3259472
8.3403591
8.3708345
8.3582262
8.3324997
8.3285499
8.3363989
8.3604138
8.3556676
8.3291457
8.3383246
8.3413921
8.3413931
8.3383329
8.3291933
8.355715
8.3605212
8.3364912
8.3284418
8.3323263
8.358159
8.3707893
8.3403494
8.3259497
8.3360188
8.3405699
8.3414015
8.3401627
8.3361954
8.3404709
8.3398509
8.3349903
8.335128
8.3351426
8.3349533
8.3397322
8.3403457
8.3360847
8.3402264
8.3424875
8.3463461
8.3431123
8.3463375
8.3430537
8.3368247
8.3395651
8.3453971
8.3420151
8.334427
8.3344147
8.3344391
8.3344308
8.3420668
8.3454462
8.3395725
8.3366941
8.3425454
8.3453012
8.3417845
8.3429121
8.337668
8.3299889
8.3283386
8.33909
8.3427738
8.3480367
8.3326385
8.3287031
8.3364108
8.3485094
8.3426931
8.3379986
8.3369822
8.3377791
8.3361347
8.3335112
8.3360501
8.3350034
8.3385973
8.3361764
8.3339798
8.3336445
8.3336962
8.3343288
8.3350399
8.3350421
8.3348628
8.3377238
8.3367931
8.3364936
8.3331123
8.3401473
8.3441447
8.3419295
8.3378152
8.3354802
8.3346242
8.3341176
8.3344671
8.3347832
8.3347132
8.3341972
8.3345921
8.3338336
8.3333659
8.3340015
8.3360048
8.333551
8.332843
8.3330736
8.3339658
8.3348381
8.3353571
8.3351048
8.3351934
8.3348855
8.3344706
8.3348678
8.3346264
8.3367969
8.3378182
8.3331203
8.3401505
8.3441465
8.2387928
8.2354673
8.1650566
8.1703747
8.1771268
8.1771237
8.1703664
8.1680426
8.1366847
8.2614392
8.2641287
8.1430928
8.1679658
8.1698923
8.1639899
8.1380045
8.0966437
8.1118258
8.1576951
8.168836
8.1759799
8.1755517
8.1747242
8.1727081
8.1718564
8.1691774
8.1670744
8.1591507
8.1591111
8.1670623
8.1690821
8.1715924
8.1731115
8.1744523
8.1675744
8.1752216
8.2404414
8.238721
8.1677431
8.1032951
8.1763665
8.1780564
8.1699248
8.3391133
8.3357885
8.3391203
8.336225
8.3339466
8.3359588
8.333528
8.3328141
8.3330321
8.3339021
8.334748
8.3352506
8.3353619
8.3354649
8.3351981
8.3347911
8.335051
8.33699
8.3377289
8.3427039
8.336504
8.1702162
8.1797998
8.2019915
8.2614965
8.1366384
8.1680224
8.0008547
7.9886462
7.9903558
7.9903521
7.9886383
8.0008642
7.9665349
7.9658605
7.9851513
8.0061591
7.9844738
7.9615817
7.9478303
7.9643315
7.989956
7.9881487
7.9893656
7.9881996
7.9941962
8.0056312
7.9885323
7.9860221
8.0009509
7.992103
7.9921618
8.0010428
7.9859981
7.9882802
8.0060851
7.8414169
7.8316431
7.8254416
7.8256757
7.831379
7.9936718
8.1741975
8.1732224
8.171428
8.1691632
8.1670556
8.1591279
8.1591319
8.1671941
8.1689371
8.1719935
8.1727217
8.1749449
8.1754874
8.1761252
8.1688124
8.1577348
8.1118735
8.2303159
8.2760796
8.2633094
8.1381029
8.1641246
8.1699918
8.1678302
8.1428759
8.2641617
8.2086385
8.1431594
8.1401221
8.1017471
8.1681591
8.1637739
8.1957201
8.234489
8.3485552
8.3364456
8.3286825
8.3380038
8.3427635
8.337788
8.3350531
8.334726
8.3351142
8.3346056
8.3348465
8.3347517
8.3343156
8.333669
8.3332815
8.3340405
8.3335031
8.3336717
8.3339088
8.3339768
8.3338497
8.3336655
8.3342145
8.3343471
8.3361493
8.3390853
8.3283483
8.3335362
8.3337205
8.335032
8.3340041
8.3333832
8.3330863
8.3330418
8.3332864
8.3340402
8.3362193
8.3339545
8.3328266
8.3328582
8.3340186
8.3362044
8.3386353
8.3418123
8.3360815
8.3300213
8.3377099
8.3429501
8.2372555
8.172398
8.1621117
8.2333943
8.1640301
8.1730706
8.0994356
7.9851885
7.9881128
7.990003
7.964373
7.9478597
8.096794
8.1228754
8.1330299
8.1837904
8.1918783
8.2021104
8.1662845
8.0995573
8.1359748
7.9686189
7.9616077
7.98449
8.0061799
7.9851344
7.9658569
7.9665532
7.8123593
7.836258
7.826106
7.8251507
7.8251475
7.8261011
7.8362685
7.8123486
7.8073369
7.8213871
7.8439424
7.8209396
7.8017343
7.7997501
7.818599
7.8287095
7.8253447
7.8239424
7.8231554
7.8317998
7.840984
7.8266021
7.8238706
7.8402489
7.8349079
7.8348742
7.8402677
7.8239008
7.826425
7.6804911
7.691392
7.6851711
7.6789089
7.679088
7.6849525
7.6915058
7.841552
8.006214
7.9881282
7.9861449
8.0008614
7.9921126
7.9922199
8.0011118
7.9859168
7.9887354
8.00555
7.9944496
7.988121
7.9895323
7.8240789
7.8253026
7.828751
7.8186437
7.7997691
7.80176
7.8209732
7.8439753
7.8213523
7.8073116
7.6656863
7.6713638
7.686736
7.6799581
7.6785367
7.6785337
7.6799546
7.6867448
7.6713551
7.6657081
7.6753457
7.6955557
7.6744099
7.6588502
7.6621464
7.6796603
7.6816207
7.6790455
7.6772078
7.6768557
7.6851408
7.6909644
7.6805903
7.6782805
7.6919816
7.6886772
7.688699
7.6920768
7.6783487
7.5459964
7.5475973
7.5548589
7.5515302
7.5460857
7.5462149
7.5513584
7.5549441
7.5474838
7.5460075
7.6784079
7.8240043
7.8401372
7.8349281
7.8349407
7.8402854
7.8238252
7.8268325
7.8408869
7.8320265
7.8230826
7.6767968
7.6773086
7.6790032
7.6816518
7.6797009
7.6621548
7.6588696
7.6744442
7.6955896
7.6753134
7.5430175
7.5364764
7.5417799
7.5509682
7.5469094
7.5455853
7.5455819
7.5469067
7.5509746
7.5417735
7.5364955
7.5430459
7.5598198
7.5414266
7.528991
7.534626
7.5498885
7.5477611
7.5459221
7.5442375
7.5441875
7.5512974
7.5544267
7.5476172
7.545888
7.5563431
7.5543964
7.5544453
7.5564821
7.4331732
7.4255236
7.4266079
7.4311123
7.4297458
7.4253987
7.4254881
7.4296136
7.4311696
7.426503
7.4254891
7.4329231
7.5562462
7.691877
7.6887024
7.6887621
7.6920587
7.6782808
7.6808196
7.6908768
7.685324
7.5514387
7.5441426
7.5443065
7.5458825
7.5477818
7.5499226
7.5346287
7.5290056
7.5414601
7.5598528
7.4362398
7.4229316
7.4185062
7.4230277
7.4280226
7.4258174
7.4247985
7.424795
7.4258148
7.4280266
7.4230235
7.418523
7.4229557
7.4362089
7.4207007
7.410935
7.4173046
7.4301558
7.4262458
7.4248498
7.4234806
7.4236093
7.4293346
7.4306658
7.426554
7.4253831
7.433007
7.4319464
7.4320125
7.3205091
7.3211473
7.3157113
7.3163637
7.3189344
7.3187856
7.3155273
7.3155874
7.318684
7.3189675
7.3162638
7.3156391
7.3208952
7.3204417
7.4319608
7.5544185
7.5544968
7.5564473
7.5459293
7.5478348
7.5543642
7.4306306
7.4294421
7.423576
7.4235247
7.4248137
7.4262577
7.4301826
7.4173042
7.4109462
7.4207323
7.3109795
7.323829
7.3136717
7.3106955
7.3143181
7.3165777
7.3155387
7.3148703
7.3148669
7.315536
7.3165795
7.3143155
7.3107102
7.3136917
7.3238008
7.3109502
7.3033953
7.3096988
7.3202951
7.3158134
7.3146491
7.3136013
7.3138197
7.3182284
7.3184663
7.3162428
7.315545
7.3209647
7.3204331
7.2185007
7.2185817
7.2189376
7.2151408
7.2154528
7.2167298
7.2172858
7.2149804
7.2150196
7.2172064
7.216743
7.215355
7.21504
7.2186901
7.2185053
7.2186004
7.320536
7.43205
7.4331293
7.4254583
7.4267577
7.3164331
7.3184557
7.3183109
7.3137954
7.3136273
7.3146164
7.3158182
7.3203149
7.3096967
7.3034042
7.2049117
7.2106963
7.2212501
7.213713
7.2117309
7.2144829
7.2150088
7.2146587
7.2143066
7.2143033
7.2146557
7.2150088
7.2144814
7.2117437
7.2137292
7.2212246
7.2106694
7.2049045
7.2107812
7.2193981
7.2149341
7.2138771
7.2130944
7.2133411
7.2166139
7.2162359
7.2152718
7.2149526
7.2187455
7.1248416
7.1247351
7.1248191
7.1250408
7.1224208
7.1224729
7.122916
7.12384
7.1223129
7.1223375
7.1237765
7.1229131
7.1223751
7.1222985
7.1248004
7.1247367
7.1248297
7.1249849
7.2188849
7.3210978
7.3156471
7.2150745
7.2154506
7.2162459
7.2166791
7.2133238
7.2131078
7.2138474
7.2149334
7.2194118
7.2107782
7.1193624
7.1140616
7.1184157
7.1270485
7.121603
7.1203009
7.1222753
7.1217343
7.121757
7.121656
7.121653
7.1217537
7.121733
7.1222746
7.120312
7.121616
7.1270255
7.1183912
7.1140558
7.1193661
7.1263012
7.1221181
7.1210971
7.1205055
7.1207386
7.1230829
7.1223953
7.1222388
7.1222123
7.0361412
7.0379587
7.0379063
7.0379918
7.0381633
7.0363684
7.0362283
7.0361566
7.0372319
7.0363107
7.0363252
7.0371793
7.0361408
7.0361291
7.0362309
7.0379312
7.0379059
7.037995
7.0381041
7.0362869
7.1223484
7.1224081
7.1224219
7.1231364
7.1207266
7.1205103
7.1210699
7.1221132
7.1263096
7.0399144
7.0343732
7.0296718
7.0328944
7.0399447
7.0361247
7.0352828
7.036596
7.0354272
7.0356175
7.0356972
7.0356943
7.035614
7.0354249
7.0365957
7.0352924
7.036135
7.0399242
7.0328723
7.0296669
7.0343774
7.0399104
7.0361085
7.0350821
7.034612
7.0348044
7.0364149
7.0356106
7.035948
6.9554547
6.955807
6.957072
6.9570307
6.9571168
6.9572804
6.9560513
6.9557744
6.9554047
6.9564949
6.9560274
6.9560349
6.9564496
6.9553785
6.9556733
6.9559033
6.9570573
6.957029
6.9571131
6.9572178
6.9559586
6.9556101
7.0361097
7.0356501
7.0364608
7.0347962
7.0346109
7.0350568
7.0361003
6.9559074
6.9593179
6.9549334
6.9508147
6.9531506
6.9589077
6.9563254
6.9557884
6.9565601
6.955051
6.9552792
6.9554757
6.9554729
6.9552755
6.955048
6.9565601
6.9557966
6.9563334
6.9588894
6.9531307
6.9508107
6.9549381
6.9593177
6.9559183
6.9548632
6.9544577
6.9545936
6.955639
6.9548364
6.8792704
6.8800277
6.8804898
6.8813894
6.8813412
6.8814272
6.8816007
6.8807497
6.8803809
6.8798575
6.8808799
6.8807398
6.8807424
6.8808394
6.879823
6.8802774
6.880595
6.8813866
6.881339
6.8814175
6.8815342
6.8806447
6.8801778
6.8793274
6.9548859
6.9556802
6.9545883
6.9544526
6.9548392
6.8796703
6.8807756
6.8837981
6.8803555
6.8767796
6.8784269
6.8831314
6.8814745
6.8811331
6.8814754
6.8798124
6.8800002
6.8802612
6.8802586
6.8799964
6.879809
6.8814755
6.88114
6.8814807
6.8831151
6.8784092
6.8767764
6.8803608
6.883801
6.8807886
6.8796933
6.8793105
6.8793825
6.8800021
6.8089128
6.808289
6.809093
6.809626
6.8102924
6.8102335
6.8103191
6.810506
6.8099001
6.8094743
6.8088913
6.8097993
6.8098858
6.809885
6.8097617
6.80885
6.8093686
6.8097414
6.8103008
6.8102313
6.8103039
6.8104351
6.8097821
6.8092386
6.8083517
6.8089494
6.8800404
6.8793793
6.8793027
6.8085916
6.8089675
6.8101144
6.8127805
6.8100985
6.8070157
6.8081337
6.8119827
6.8110051
6.8107827
6.8107948
6.8090971
6.8092006
6.8094863
6.8094839
6.8091968
6.8090934
6.8107949
6.8107886
6.8110099
6.8119682
6.808118
6.8070134
6.8101044
6.8127862
6.8101293
6.8089899
6.8086012
6.8086078
6.7418148
6.741892
6.7413922
6.742185
6.7427591
6.7432839
6.7432177
6.7433027
6.7434991
6.7430458
6.7425895
6.7420061
6.7427769
6.7430124
6.7430092
6.7427409
6.7419592
6.742482
6.7428854
6.7433027
6.7432161
6.7432826
6.7434237
6.7429148
6.7423265
6.7414591
6.7419276
6.7418142
6.8086061
6.8121393
6.8152491
6.8122263
6.8130635
6.8147773
6.813734
6.8142762
6.8147331
6.8154465
6.8155122
6.8141466
6.7471079
6.7443065
6.7440722
6.7424139
6.742412
6.7426938
6.7426916
6.7424083
6.7424103
6.7440727
6.744312
6.7444667
6.7449395
6.7417847
6.7410813
6.7437313
6.7458045
6.7434663
6.7422838
6.7418713
6.6787372
6.678622
6.6785376
6.6781654
6.6789123
6.6795053
6.6799511
6.6798842
6.6799682
6.6801672
6.6798027
6.6793355
6.678787
6.6794127
6.6797392
6.6797344
6.6793778
6.6787357
6.6792265
6.6796423
6.6799794
6.6798834
6.6799439
6.6800872
6.6796592
6.6790499
6.6782351
6.6785727
6.6786222
6.6787251
6.7418604
6.7422616
6.7434496
6.7457961
6.7437243
6.7410823
6.7417979
6.7449517
6.7444625
6.6814688
6.6813429
6.680931
6.6793558
6.6792418
6.6795008
6.679499
6.6792388
6.6793532
6.6809329
6.6813494
6.6814742
6.6816071
6.6790184
6.6786156
6.6808751
6.682462
6.6804053
6.6791832
6.6193499
6.6188663
6.618698
6.6185016
6.6182533
6.6189352
6.6195313
6.6199405
6.6198808
6.6199638
6.620157
6.6198374
6.6193728
6.618879
6.6193604
6.6197356
6.6197295
6.6193261
6.6188244
6.6192631
6.6196784
6.6199775
6.619881
6.6199357
6.6200724
6.6196823
6.6190687
6.6183245
6.618536
6.6186983
6.6188524
6.6193254
6.6791605
6.6803865
6.6824504
6.6808656
6.6786138
6.6790277
6.6816157
6.6216135
6.6216979
6.6215771
6.6210424
6.6195746
6.6193499
6.6195749
6.6195738
6.6193489
6.6195752
6.6210486
6.6215886
6.6217088
6.6216129
6.6194858
6.6193039
6.6212189
6.6224182
6.620608
6.5637742
6.5624821
6.5619601
6.5617446
6.5614723
6.5613416
6.5619489
6.5625373
6.5629396
6.5628956
6.5629773
6.5631558
6.56285
6.5623971
6.5619679
6.5623091
6.5627031
6.5626961
6.5622752
6.5619107
6.5622873
6.5626937
6.5629844
6.5628969
6.5629459
6.5630666
6.5626843
6.5620781
6.5614131
6.5615052
6.5617432
6.5619425
6.5624523
6.5637428
6.6205852
6.6224008
6.6212035
6.6192954
6.6194871
6.5628781
6.5646269
6.5648581
6.5647241
6.5641096
6.5627615
6.5624312
6.562617
6.5626176
6.5624355
6.5627705
6.5641276
6.5647501
6.5648852
6.5646449
6.5628954
6.5628706
6.5644802
6.5653701
6.5110391
6.5096278
6.5082988
6.5077387
6.5074807
6.5071582
6.5071399
6.5076684
6.5082415
6.5086596
6.5086402
6.5087204
6.5088747
6.5085589
6.5081232
6.5077628
6.5079677
6.5083598
6.5083522
6.5079341
6.5077039
6.5080141
6.5084061
6.5087114
6.5086426
6.5086863
6.5087813
6.5083837
6.5077927
6.50721
6.5071879
6.5074746
6.5077126
6.5082561
6.509577
6.510982
6.5653405
6.5644503
6.5628456
6.509
6.5089241
6.5103621
6.5106759
6.5105135
6.5098527
6.5086299
6.5081994
6.5083458
6.5083505
6.5082162
6.5086593
6.5098996
6.5105758
6.5107433
6.5104238
6.5089841
6.509064
6.5103985
6.4587268
6.4591608
6.4579047
6.4565272
6.4559276
6.4556296
6.4552739
6.4553664
6.4558143
6.4563672
6.4568214
6.4568366
6.4569153
6.457035
6.4566875
6.4562722
6.4559818
6.4560502
6.4564265
6.4564186
6.4560171
6.455922
6.4561646
6.456539
6.4568796
6.4568405
6.4568789
6.4569377
6.4565041
6.4559333
6.4554334
6.4552975
6.4556132
6.4558836
6.4564561
6.457812
6.4590442
6.4585861
6.5103341
6.5129554
6.513813
6.5143579
6.5148667
6.5144363
6.5127302
6.4610519
6.4586762
6.4579954
6.4569009
6.456373
6.4564842
6.4564979
6.4564176
6.4569757
6.4581071
6.4588206
6.4590407
6.4586943
6.4575095
6.4576488
6.4084084
6.4092334
6.4094846
6.4083507
6.4068987
6.4062524
6.4059126
6.4055335
6.4057418
6.4061078
6.4066377
6.4071504
6.4072121
6.4072893
6.4073622
6.4069596
6.406566
6.4063456
6.4062698
6.4066204
6.4066123
6.4062371
6.4062855
6.4064602
6.4068159
6.4072147
6.4072178
6.4072511
6.4072614
6.4067692
6.4062212
6.4058038
6.4055465
6.4058759
6.4061728
6.40677
6.408173
6.4092473
6.4089365
6.4080815
6.4574985
6.4573556
6.4585366
6.4588826
6.4092104
6.4089406
6.4082604
6.4072969
6.4066691
6.4067536
6.4067856
6.4067705
6.4074648
6.4085053
6.4092542
6.409555
6.4092264
6.4082518
6.3610323
6.361163
6.3617199
6.3617892
6.3607345
6.3591615
6.3584506
6.3580607
6.357662
6.3579996
6.3582817
6.3587885
6.3593871
6.3595092
6.3595847
6.3595967
6.3591113
6.3587382
6.358588
6.3583503
6.3586671
6.3586588
6.3583179
6.3585278
6.3586345
6.3589728
6.3594574
6.3595175
6.3595459
6.3594931
6.358915
6.3583896
6.3580544
6.3576575
6.3579882
6.3583065
6.3589255
6.3603982
6.3613248
6.3611275
6.3605024
6.3603271
6.4079067
6.4088733
6.3611127
6.361405
6.3610464
6.3603814
6.3595532
6.3588151
6.3588851
6.3589514
6.3590232
6.3598956
6.3608776
6.3616796
6.3621014
6.3618335
6.316413
6.3157551
6.3158146
6.3160689
6.315929
6.3148917
6.3131263
6.3123172
6.3118603
6.3114414
6.3119291
6.3121259
6.3126134
6.3133306
6.31353
6.3136045
6.3135395
6.3129383
6.3125812
6.3125008
6.3120745
6.3123493
6.3123409
6.3120422
6.3124402
6.3124795
6.3128048
6.3134077
6.3135414
6.313565
6.3134327
6.3127359
6.3122291
6.3119751
6.3114117
6.3117313
6.3120673
6.3127091
6.3142831
6.3150717
6.3149636
6.3145751
6.3144278
6.3150586
6.315274
6.3147943
6.3141524
6.3134625
6.3125966
6.3126659
6.3127905
6.3129857
6.3141031
6.3150812
6.3159792
6.3165773
6.2730467
6.2730286
6.2724887
6.2724314
6.2723352
6.2719255
6.2708102
6.2687604
6.2678024
6.2672523
6.2668118
6.2674714
6.2675877
6.2680672
6.2689354
6.2692288
6.2693037
6.2691469
6.2683986
6.268047
6.2680316
6.2673904
6.2676135
6.2676047
6.2673572
6.2679696
6.2679459
6.2682686
6.2690209
6.2692429
6.2692615
6.2690349
6.2681877
6.2676888
6.26751
6.2667523
6.2670477
6.2673991
6.2680698
6.2697797
6.2704476
6.2704159
6.2702731
6.2701751
6.2706715
6.2707833
6.2701516
6.2695294
6.2689729
6.2679597
6.2680389
6.268253
6.2686227
6.2700735
6.2711385
6.2722071
6.2307233
6.231865
6.2320199
6.2315772
6.2313739
6.2308825
6.2300919
6.2287435
6.2263099
6.2251413
6.2244722
6.2240136
6.2248495
6.2249143
6.2254112
6.2264454
6.2268411
6.2269186
6.2266654
6.2257574
6.22539
6.2254147
6.2245572
6.2247211
6.2247116
6.2245221
6.2253499
6.2252877
6.2256289
6.2265431
6.2268591
6.2268722
6.2265447
6.2255339
6.22502
6.2248892
6.2239322
6.2241906
6.2245553
6.2252658
6.2271304
6.2277226
6.2277802
6.2278712
6.2278203
6.228195
6.2281909
6.2273965
6.2267735
6.2263175
6.2251506
6.2252401
6.2255707
6.2261748
6.2280552
6.2293598
6.1904151
6.1923028
6.193786
6.1940983
6.1937325
6.193397
6.1924917
6.191105
6.1892366
6.1863256
6.1848939
6.1841022
6.1836323
6.1845961
6.1847073
6.1852706
6.1864392
6.1869393
6.1870227
6.1866767
6.1856449
6.1852191
6.1851964
6.1841861
6.1842996
6.184289
6.1841476
6.1851265
6.185113
6.185513
6.1865529
6.1869624
6.1869711
6.1865429
6.1854034
6.1848294
6.1846561
6.1835599
6.1837843
6.1841599
6.1849134
6.1869058
6.1875678
6.1877701
6.1880117
6.1879407
6.1882005
6.1880952
6.1871828
6.1865057
6.1860374
6.1847559
6.1848472
6.1852952
6.1861824
6.188586
6.1522098
6.1552207
6.1580444
6.1598388
6.1602153
6.1599118
6.1595381
6.1582621
6.1558843
6.1528467
6.1493684
6.1476784
6.146799
6.1463061
6.1471761
6.1476721
6.1483617
6.1495032
6.1502138
6.1503197
6.149781
6.1487747
6.148236
6.1478457
6.1469301
6.1470471
6.1470349
6.1468871
6.1477695
6.1481255
6.1486361
6.1496376
6.1502439
6.1502647
6.1496336
6.1485131
6.1478242
6.1472883
6.1462997
6.1465437
6.1469302
6.1476992
6.149652
6.1508616
6.1512894
6.1514261
6.1511419
6.1513783
6.1511514
6.1502917
6.1494517
6.1485974
6.1474121
6.1475114
6.148036
6.1491944
6.1153991
6.118915
6.1248174
6.129513
6.1311362
6.1313202
6.1310819
6.1309346
6.1297749
6.1254646
6.119558
6.1155996
6.1138898
6.1130005
6.1124012
6.1125816
6.1143976
6.1152432
6.1159608
6.117262
6.1173505
6.1162442
6.1156943
6.1150113
6.113336
6.1131091
6.1133783
6.1133652
6.1130621
6.1132531
6.1148964
6.1155498
6.1161176
6.1172982
6.117293
6.1160799
6.1154169
6.114588
6.112776
6.1125143
6.1129293
6.1133509
6.1139946
6.1155439
6.1187238
6.1191723
6.1184112
6.117766
6.1184351
6.117665
6.11714
6.1161045
6.1140036
6.1134851
6.1136822
6.1141939
6.0883944
6.088656
6.0914651
6.100391
6.1082579
6.1087589
6.1088303
6.1086129
6.1086515
6.1085825
6.1010377
6.0921647
6.0889199
6.088218
6.0872826
6.0861737
6.0864387
6.087454
6.0883373
6.0888035
6.0888547
6.0889631
6.0891227
6.0888195
6.0881012
6.087257
6.0869545
6.0877588
6.0877454
6.0868966
6.0871561
6.0879704
6.0886863
6.0889678
6.0889
6.0889096
6.0889455
6.088553
6.0876863
6.0866818
6.086407
6.0873643
6.0880129
6.088109
6.090316
6.0958224
6.0972762
6.093303
6.0912635
6.0904982
6.0906064
6.0902461
6.0891347
6.0878741
6.0871841
6.0879358
6.0670872
6.0673911
6.0681498
6.07043
6.0700952
6.0716881
6.0732325
6.0730097
6.0719584
6.0705533
6.0711958
6.068468
6.0673065
6.0664548
6.0659246
6.0674955
6.0666253
6.067395
6.0693309
6.0692705
6.0693872
6.0696575
6.067874
6.0673033
6.0683435
6.0668062
6.0670535
6.0670385
6.0667428
6.0682528
6.0671632
6.0677262
6.0695016
6.0693166
6.0693338
6.0694763
6.0675912
6.0669088
6.0677903
6.0662894
6.0667631
6.0675169
6.0683797
6.071062
6.0687857
6.0685755
6.0723431
6.072486
6.0713275
6.071266
6.0693877
6.0682948
6.0689323
6.0669052
6.0668626
6.0660939
6.0769536
6.0961056
6.1232534
6.1549558
6.1731684
6.1706052
6.1503851
6.1211774
6.0963436
6.0769864
6.0659329
6.0666771
6.0758144
6.0964399
6.1346125
6.190862
6.2447124
6.2610513
6.2624579
6.2479752
6.1925659
6.1340616
6.0957681
6.0771784
6.0684726
6.0663459
6.0774249
6.0785876
6.0888405
6.090328
6.1014844
6.0894098
6.087581
6.0978866
6.0890968
6.1006184
6.0887105
6.0769667
6.0771656
6.0872379
6.0871088
6.0956889
6.0760665
6.0851029
6.1001665
6.1088747
6.106625
6.0952397
6.0839273
6.077412
6.0681487
6.0666837
6.0774745
6.0777395
6.0878625
6.1006843
6.0875153
6.0892023
6.0892383
6.0965485
6.1049483
6.0968325
6.1073957
6.0984043
6.0987869
6.0964796
6.0903927
6.0833754
6.08279
6.0905138
6.0977061
6.0985076
6.1102967
6.0977579
6.096879
6.0877021
6.074276
6.0807528
6.0810344
6.0779637
6.0695235
6.0700344
6.080302
6.0903078
6.0930034
6.1050794
6.0920092
6.080107
6.0904166
6.0982924
6.1259216
6.1234141
6.1337082
6.1223516
6.1185186
6.1255031
6.1195963
6.1534719
6.1908261
6.1989575
6.190058
6.1524583
6.1611634
6.1813732
6.1578235
6.1955349
6.2055174
6.1929746
6.1560511
6.1600351
6.1969919
6.1992085
6.1624426
6.1291208
6.1009302
6.1302445
6.1195064
6.105643
6.1461838
6.1147363
6.1441562
6.1776612
6.21565
6.148736
6.1600687
6.2395797
6.2023139
6.1812362
6.2901735
6.226544
6.1580441
6.1151227
6.0977812
6.1257319
6.1450576
6.1780272
6.1386113
6.1310282
6.106087
6.088948
6.0893214
6.0902257
6.0900084
6.0894185
6.0893997
6.1065127
6.1090561
6.1105901
6.1107137
6.1090169
6.1355307
6.1376793
6.162186
6.1537641
6.1172156
6.09367
6.1455466
6.2388599
6.2789958
6.2392731
6.2368809
6.2369791
6.2393476
6.2785104
6.2717097
6.2562334
6.2436575
6.2443959
6.2578112
6.276175
6.2838623
6.2461447
6.2443637
6.244528
6.24651
6.2847527
6.2774072
6.2600714
6.2469926
6.2470826
6.1930087
6.1244035
6.0857943
6.0694219
6.068807
6.0776245
6.0811121
6.0811024
6.077553
6.0686631
6.0692502
6.0855588
6.1242579
6.1932422
6.2475415
6.2475752
6.2603922
6.2762681
6.2833428
6.2428124
6.2405514
6.2402685
6.2427208
6.2844597
6.2772732
6.2604747
6.2469522
6.2457236
6.2579579
6.2725984
6.3033727
6.325542
6.3079665
6.1836872
6.0220657
5.9304673
5.9316012
6.0248717
6.1872391
6.3105091
6.328493
6.306982
6.2785293
6.2494512
6.15743
6.1017527
6.1121634
6.1780141
6.2661148
6.2485886
6.2859471
6.3119326
6.317139
6.1902857
6.0593529
5.9705938
5.8282406
5.7509854
5.6674201
5.6385844
5.6379868
5.6660649
5.7488177
5.8248791
5.9662179
6.0553134
6.1848189
5.9667434
5.8623858
5.7119365
5.6285125
5.5351039
5.5026789
5.503168
5.5364049
5.6308595
5.7155204
5.8674523
5.9714337
5.8316021
6.0324533
6.207209
6.2266055
6.2210044
6.247018
6.2472997
6.266147
6.1779965
6.1121673
6.1018426
6.157491
6.2491612
6.285824
6.2489054
6.227355
6.2213364
6.1903559
6.1898795
5.9437044
5.6747915
5.7564148
5.6358361
5.7183145
5.6031619
5.5000415
5.4094351
5.3652814
5.3648485
5.4080598
5.4975124
5.5994715
5.7129443
5.8265352
6.0257876
5.7508719
5.6300622
5.4982737
5.3685
5.2679564
5.2160541
5.2165471
5.26942
5.3712397
5.5024504
5.4136424
5.543325
5.5111721
5.6469681
5.6471189
5.9442537
5.6751312
5.5435676
5.5111759
5.3703898
5.3705617
5.2191939
5.2711865
5.1611016
5.1028226
5.1023274
5.1596028
5.2682916
5.4093172
5.5371341
5.6687471
5.9353565
5.6406663
5.5046522
5.3659688
5.2161447
5.1020848
5.0420671
5.0425418
5.1037101
5.1034783
5.219069
5.2709834
5.4135282
5.5029489
5.6365923
5.7574663
6.0341909
6.2083085
6.3177616
6.3120779
6.3068743
6.278108
6.2601807
6.306687
6.3362972
6.3285661
6.3115652
6.1929671
5.9747929
5.8334691
5.7201908
5.6046979
5.5016351
5.3714586
5.2697434
5.1606066
5.1024999
5.0423176
5.0417809
5.1018592
5.2162593
5.365981
5.5048926
5.6408864
5.9360403
5.669173
5.5375725
5.4094929
5.2683755
5.1593084
5.1019873
5.2166171
5.2168812
5.3671027
5.4110323
5.5400637
5.6342697
5.7188532
5.8711272
5.9739562
6.0619691
6.1916387
6.030817
5.8312992
5.7544583
5.6711582
5.6425659
5.5069715
5.5067265
5.3667257
5.4101789
5.2686246
5.3694092
5.4992177
5.6312285
5.7521499
6.0275845
5.8287358
5.7153038
5.6015798
5.4997414
5.6327202
5.5391753
5.6703825
5.6422607
5.9391705
5.9395184
6.1860355
6.2044979
6.3162574
6.3277085
6.3059309
6.3066082
6.2843858
6.3021339
6.3192639
6.3195465
6.3250969
6.2183534
6.2148227
6.2144106
6.2176976
6.3248768
6.3194731
6.3191521
6.2608386
6.3072662
6.2850094
6.3071213
6.3054478
6.3097845
6.2209904
6.2142455
6.213227
6.2197042
6.3094725
6.3050468
6.3059313
6.2836806
6.3052547
6.3346434
6.325765
6.3121795
6.1979703
6.1785092
6.1798785
6.1998798
6.3136529
6.3269221
6.3365428
6.3383092
6.3191112
6.317782
6.3227752
6.2123508
6.2083678
6.2071253
6.2109266
6.3222066
6.3171949
6.317544
6.300618
6.3303077
6.3172761
6.3363312
6.333862
6.3523198
6.3248193
6.2042476
6.2300026
6.1912756
5.9543132
6.0429783
6.2003727
6.3234
6.333428
6.3161558
6.3511471
6.3210149
6.3075758
6.3124427
6.2028609
6.2219796
6.2156972
6.1843072
6.1850034
6.2160502
6.2224715
6.2038404
6.3133404
6.1878322
6.0584643
5.9702226
5.8288653
5.7531518
6.0292089
6.1888866
6.3091514
6.3254005
6.3029475
6.3075197
6.3211267
6.2152073
6.211444
6.2110468
6.2147433
6.2345462
6.2089709
6.3247327
6.2018404
6.0463587
5.972062
5.9441188
5.9238903
5.9707442
5.8643022
5.9713149
5.9239571
5.8726247
5.6763979
5.7171503
5.8046176
5.7450552
5.6719833
5.6663512
5.6251778
5.6247445
5.6966193
5.5914914
5.6978208
5.8065599
6.0472763
5.7184761
5.6681794
5.6776642
5.6268479
5.673394
5.7472553
5.6264683
5.5234439
5.65142
5.9598831
6.1966292
6.1973078
6.2348596
6.2096703
6.3253689
6.3511289
6.3158487
6.333192
6.3239921
6.2037806
6.0482427
5.9603447
5.629531
5.6293296
5.5367597
5.5535822
5.5063739
5.5061276
5.4858261
5.4953047
5.3578854
5.4011021
5.4917278
5.4876801
5.5865669
5.4867617
5.4907923
5.3570428
5.3459497
5.2403812
5.3937466
5.5036798
5.5513899
5.6483481
5.6263542
5.5345443
5.503643
5.4832651
5.4930753
5.521087
5.3996358
5.3566374
5.3505283
5.1869643
5.2016764
5.2543223
5.1437169
5.2548016
5.2407909
5.3952322
5.3518818
5.1871867
5.2017909
5.0853654
5.066934
5.1263233
5.0671822
5.0854543
5.024339
5.0047941
4.9849511
5.0486371
5.1718864
5.3478891
5.3913644
5.4870762
5.588527
5.5807879
5.4740326
5.3235892
5.4752142
5.4880775
5.3347161
5.2262929
5.2125552
5.3797555
5.3329324
5.1567253
5.143618
5.3387683
5.492153
6.0173481
6.1077665
6.2568754
6.3728611
6.3465017
6.2389447
6.0916856
6.0094969
6.010544
6.2314064
6.1925177
6.2057974
6.3260665
6.3529237
6.3346984
6.3255569
6.2033416
6.0454189
5.955348
5.6268956
5.5349989
5.5043152
5.5520983
5.6494744
5.5223232
5.4936154
5.4838195
5.504523
5.6270588
5.6736897
5.7470239
5.8073656
5.7191706
5.6682902
5.678407
5.6995029
5.6268462
5.4930515
5.4010125
5.3570508
5.3508793
5.3948312
5.2415125
5.1873233
5.2022302
5.2556941
5.3594687
5.3479746
5.4884971
5.589078
5.5946
5.4952432
5.4905199
5.3981167
5.2428354
5.1277087
5.0676124
5.086004
5.1450485
5.0868691
5.0247965
5.0051983
5.0682976
5.1893468
5.2044854
5.2571951
5.40468
5.361694
5.354919
5.4906693
5.5108633
5.631314
5.6819824
5.8766825
5.9276647
5.9746848
6.0502776
6.2050975
5.975564
5.9477568
5.9276038
5.9758102
5.8687349
5.7024584
5.8114478
6.0506551
5.7225042
5.6722263
5.6775803
5.7526242
5.6314235
5.5287315
5.6572497
5.9638061
5.5581843
5.510942
5.5412578
5.6353069
5.5008968
5.5009116
5.3614955
5.2044211
5.086669
5.0246406
5.0240841
5.0851479
5.2019543
5.3578644
5.4955069
5.4858292
5.5367077
5.50633
5.5534035
5.6516311
5.5236336
5.505953
5.6272447
5.6738578
5.7482537
5.6271831
5.6993194
5.8080367
5.7188478
5.6683465
5.6781125
5.5872208
5.4877285
5.3949572
5.351748
5.1869912
5.2403882
5.2546208
5.4010957
5.4922412
5.3575114
5.3458305
5.4873859
5.4923754
5.5929679
5.6999841
5.7161274
5.8666605
5.9705041
5.9746296
5.9267319
5.9465913
5.8755466
5.8679193
5.9746286
6.2032247
6.0494401
5.9741496
5.9262553
5.7190763
5.6788967
5.6685624
5.6277494
5.6282136
5.7491655
6.0469247
5.8085035
5.6738554
5.5532611
5.5061786
5.3942894
5.2399338
5.1258635
5.06669
5.0044976
5.066569
5.0850317
5.1432506
5.2545026
5.2019001
5.1864521
5.3509264
5.3577923
5.4009824
5.5243504
5.4964283
5.4858813
5.5058569
5.5361279
5.9588884
5.6525187
5.6304797
5.6307967
5.4967041
5.3581717
5.2022449
5.0855821
5.0669243
5.0050273
5.0680202
5.1269671
5.1445919
5.256981
5.2422721
5.1889703
5.354621
5.3977136
5.4044209
5.4953612
5.3593453
5.255703
5.2409884
5.1868219
5.3511855
5.3950556
5.401858
5.4940186
5.4887622
5.3473203
5.4901523
5.5892653
5.5955349
5.7035815
5.6319099
5.5288744
5.5106371
5.4904938
5.5106328
5.541129
5.9641501
5.6353779
5.6573286
5.5579163
5.6777128
5.631265
5.671934
5.6818864
5.7224852
6.0515995
5.7533404
5.8125519
5.9787235
5.8718496
5.7021367
5.6295748
5.5252143
5.5067552
5.4861255
5.5061545
5.5364529
5.9591765
5.6532292
5.5536541
5.6749789
5.6289327
5.6696766
5.6802818
5.720348
6.0480951
5.7504098
5.8103347
5.9779617
6.2053341
5.9294552
5.8791148
5.9495546
5.9299848
6.2067613
6.0527907
5.9772564
6.3260243
6.3489863
6.244222
6.0990443
6.0181434
6.0179133
6.0986876
6.2433343
6.3485991
6.2414688
6.093884
6.1096338
6.0182994
5.4929151
5.6683352
5.6751057
6.1433908
6.2831307
6.3600234
6.237376
6.1565827
6.1280286
6.1006002
6.1263936
6.1149043
6.1456126
6.1275574
6.1244185
6.1326918
6.1226995
6.1439215
6.1761368
6.2124265
6.1768121
6.1996568
6.3047075
6.3059266
6.3607573
6.3396705
6.267277
6.1919432
6.265943
6.2237745
6.1887483
6.1201706
6.0851491
6.1078984
6.1444195
6.1746265
6.2138155
6.2357316
6.1922988
6.1599555
6.2523455
6.25202
6.1597124
6.0990679
6.0991782
6.1230702
6.1229783
6.1620972
6.1375535
6.1355113
6.1537674
6.1172726
6.0937809
6.1453205
6.2381733
6.1876753
6.1200236
6.0854443
6.0775914
6.0958423
6.1335867
6.1915599
6.2477826
6.2644102
6.2645841
6.2485459
6.1928447
6.1353373
6.0968551
6.0762508
6.0671717
6.0662379
6.0771707
6.0968507
6.1243665
6.1572018
6.1774058
6.1773214
6.1568397
6.1236884
6.0959501
6.0766909
6.0664166
6.0687036
6.0786063
6.0774313
6.087571
6.0893894
6.0903127
6.1014232
6.0888829
6.1195347
6.1260542
6.138911
6.1314283
6.1619808
6.1662613
6.1686124
6.1687567
6.1663213
6.1615968
6.1966635
6.2350691
6.2761272
6.2859425
6.277469
6.2726192
6.2306486
6.2385172
6.2301097
6.2722711
6.2798945
6.2976201
6.2767919
6.235198
6.2444052
6.2327027
6.2746651
6.2779049
6.2363843
6.2383428
6.2795466
6.3072949
6.2988446
6.2850807
6.3257753
6.2881992
6.2578241
6.219313
6.2512718
6.2139011
6.1684231
6.1848605
6.2217329
6.2314999
6.194867
6.2801954
6.2538188
6.2916781
6.3197417
6.3564877
6.2688071
6.2595843
6.3276913
6.3632647
6.3919136
6.5713251
6.5162327
6.4189586
6.3411858
6.2978741
6.2582407
6.2362784
6.1971694
6.1602465
6.1823023
6.2199598
6.2523233
6.2077525
6.1718395
6.2151833
6.254771
6.1885571
6.2242