/*--------------------------------*- C++ -*----------------------------------*\
  =========                 |
  \\      /  F ield         | OpenFOAM: The Open Source CFD Toolbox
   \\    /   O peration     | Website:  https://openfoam.org
    \\  /    A nd           | Version:  7
     \\/     M anipulation  |
\*---------------------------------------------------------------------------*/
FoamFile
{
    version     2.0;
    format      ascii;
    class       volScalarField;
    location    "110";
    object      T;
}
// * * * * * * * * * * * * * * * * * * * * * * * * * * * * * * * * * * * * * //

dimensions      [0 0 0 1 0 0 0];

internalField   nonuniform List<scalar> 
24866
(
299.99998
299.99997
299.99997
299.99999
300
300
300
300
300
300
300
300
300
300
300
300
300
300
300
300
300
300
300
300
300
300
300
300
300
300
300
300
300
300
300
300
300
300
300
300
300
300
300
300
300
300
300
300
300
300
300
300
300
300
300
300
300
300
300
300
300
300
300
300
300
300
300
300
300
300
300
300
300
300
300
300
300
300
300
300
300
300
300
300
300
300
300
300
300
300
300
300
300
300
300
300
300
300
300
300
300
300
300
300
300
300
300
300
300
300
300
300
300
300
300
300
300
300
300
300.00001
300.00001
300
300.00001
300
300
300
300
300
300
300
300.00001
300.00001
300.00001
300.00001
300.00001
300.00001
300
300
300
300
300
300
300
300
300
300
299.99999
299.99999
299.99999
299.99999
299.99999
299.99999
299.99999
300
300
299.99999
299.99999
299.99999
299.99999
299.99999
299.99999
299.99999
299.99999
299.99999
299.99999
299.99999
299.99999
299.99999
299.99999
299.99999
299.99999
299.99999
299.99999
299.99999
299.99999
299.99999
299.99999
299.99999
299.99999
299.99999
300
300
299.99999
299.99999
299.99999
300
300
300
300
300
300
300
300
300
300
300
300.00001
300.00001
300.00001
300.00001
300.00001
300.00001
300.00001
300
300
300
300
300
300
299.99999
299.99999
300
299.99999
299.99999
299.99997
299.99997
299.99997
299.99997
299.99997
299.99997
299.99997
299.99997
299.99997
299.99997
299.99997
299.99997
299.99997
299.99997
299.99997
299.99997
299.99997
299.99997
299.99997
299.99997
299.99997
299.99997
299.99997
299.99997
299.99997
299.99997
299.99997
299.99997
299.99997
299.99995
299.99995
299.99995
299.99995
299.99995
299.99997
299.99999
299.99999
299.99999
299.99999
299.99999
299.99999
299.99999
299.99999
299.99999
299.99999
299.99999
299.99999
299.99999
299.99999
299.99999
299.99999
299.99999
300
300
300
299.99999
299.99999
299.99999
299.99999
299.99999
300
299.99999
299.99999
299.99999
299.99999
299.99999
299.99999
299.99999
299.99999
300
300
300
300
300
300
300
300.00001
300.00001
300.00001
300.00001
300.00001
300.00001
300
300
300
300
300
300.00001
300.00001
300
300
300
300
300
300
300
300
300
300
300
300
300
300
300
300
300
300
300
300
300
300
300
300
300
300
300
300
300
299.99999
299.99999
300
299.99999
299.99999
299.99999
299.99998
299.99997
299.99997
299.99997
299.99997
299.99999
299.99999
299.99999
299.99999
299.99998
299.99999
299.99999
299.99999
299.99999
299.99998
299.99997
299.99997
299.99997
299.99997
299.99997
299.99997
299.99995
299.99995
299.99995
299.99995
299.99995
299.99995
299.99995
299.99995
299.99995
299.99995
299.99995
299.99995
299.99995
299.99995
299.99995
299.99995
299.99995
299.99995
299.99995
299.99995
299.99995
299.99995
299.99995
299.99995
299.99995
299.99995
299.99995
299.99995
299.99995
299.99992
299.99992
299.99992
299.99992
299.99992
299.99992
299.99992
299.99995
299.99997
299.99997
299.99997
299.99997
299.99997
299.99997
299.99997
299.99997
299.99997
299.99997
299.99997
299.99997
299.99997
299.99995
299.99995
299.99995
299.99995
299.99995
299.99995
299.99995
299.99995
299.99995
299.99995
299.99992
299.99992
299.99992
299.99992
299.99992
299.99992
299.99992
299.99992
299.99992
299.99992
299.99993
299.99993
299.99993
299.99993
299.99992
299.99992
299.99992
299.99992
299.99992
299.99992
299.99992
299.99992
299.99992
299.99992
299.99992
299.99992
299.99992
299.99992
299.99992
299.99988
299.99988
299.99988
299.99988
299.99988
299.99988
299.99988
299.99988
299.99988
299.99988
299.99992
299.99995
299.99995
299.99995
299.99995
299.99995
299.99995
299.99995
299.99995
299.99995
299.99995
299.99992
299.99992
299.99992
299.99992
299.99992
299.99992
299.99993
299.99993
299.99993
299.99993
299.99989
299.99989
299.99989
299.99989
299.99988
299.99988
299.99988
299.99988
299.99989
299.99989
299.99989
299.99989
299.99989
299.99989
299.99989
299.99989
299.99989
299.99989
299.99988
299.99988
299.99988
299.99988
299.99988
299.99988
299.99988
299.99989
299.99989
299.99989
299.99989
299.99984
299.99983
299.99983
299.99983
299.99983
299.99982
299.99982
299.99983
299.99983
299.99983
299.99983
299.99984
299.99989
299.99992
299.99992
299.99992
299.99992
299.99992
299.99992
299.99992
299.99992
299.99988
299.99988
299.99988
299.99988
299.99989
299.99989
299.99989
299.99989
299.99989
299.99989
299.99985
299.99984
299.99984
299.99983
299.99983
299.99983
299.99983
299.99983
299.99983
299.99983
299.99983
299.99984
299.99984
299.99985
299.99985
299.99984
299.99984
299.99983
299.99983
299.99983
299.99983
299.99983
299.99983
299.99983
299.99983
299.99983
299.99984
299.99984
299.99984
299.99978
299.99977
299.99976
299.99976
299.99976
299.99975
299.99975
299.99975
299.99975
299.99976
299.99976
299.99976
299.99977
299.99978
299.99984
299.99989
299.99989
299.99989
299.99988
299.99988
299.99988
299.99983
299.99983
299.99983
299.99983
299.99983
299.99984
299.99983
299.99984
299.99984
299.99985
299.99978
299.99978
299.99978
299.99977
299.99976
299.99976
299.99976
299.99975
299.99975
299.99976
299.99976
299.99976
299.99977
299.99978
299.99978
299.99978
299.99978
299.99977
299.99976
299.99976
299.99976
299.99975
299.99975
299.99975
299.99976
299.99976
299.99977
299.99977
299.99978
299.99969
299.99969
299.99968
299.99967
299.99967
299.99967
299.99966
299.99966
299.99966
299.99966
299.99967
299.99967
299.99967
299.99968
299.99969
299.99969
299.99978
299.99984
299.99984
299.99983
299.99983
299.99976
299.99976
299.99975
299.99975
299.99975
299.99976
299.99976
299.99976
299.99977
299.99978
299.99969
299.9997
299.9997
299.99969
299.99968
299.99967
299.99967
299.99966
299.99966
299.99966
299.99966
299.99967
299.99967
299.99968
299.99969
299.99969
299.99969
299.99969
299.99968
299.99967
299.99967
299.99966
299.99966
299.99966
299.99966
299.99967
299.99967
299.99967
299.99968
299.99957
299.99958
299.99958
299.99957
299.99956
299.99955
299.99955
299.99955
299.99954
299.99954
299.99954
299.99955
299.99955
299.99956
299.99957
299.99958
299.99958
299.99957
299.99968
299.99977
299.99977
299.99968
299.99967
299.99967
299.99966
299.99966
299.99966
299.99966
299.99967
299.99967
299.99968
299.99957
299.99957
299.99958
299.99958
299.99957
299.99957
299.99956
299.99955
299.99955
299.99954
299.99954
299.99955
299.99955
299.99955
299.99956
299.99957
299.99958
299.99958
299.99957
299.99956
299.99955
299.99955
299.99955
299.99954
299.99954
299.99955
299.99955
299.99955
299.99956
299.99943
299.99944
299.99944
299.99944
299.99944
299.99943
299.99942
299.99942
299.99942
299.99941
299.99941
299.99942
299.99942
299.99942
299.99943
299.99944
299.99944
299.99944
299.99944
299.99943
299.99956
299.99955
299.99955
299.99955
299.99954
299.99954
299.99955
299.99955
299.99956
299.99943
299.99944
299.99944
299.99945
299.99945
299.99944
299.99944
299.99942
299.99942
299.99942
299.99942
299.99942
299.99942
299.99942
299.99942
299.99943
299.99944
299.99945
299.99944
299.99944
299.99943
299.99942
299.99942
299.99942
299.99941
299.99941
299.99942
299.99942
299.99942
299.99929
299.9993
299.9993
299.9993
299.9993
299.9993
299.9993
299.99929
299.99929
299.9993
299.99929
299.99929
299.9993
299.99929
299.99929
299.9993
299.9993
299.9993
299.9993
299.9993
299.99931
299.9993
299.99942
299.99942
299.99942
299.99942
299.99942
299.99942
299.99942
299.99929
299.9993
299.99931
299.9993
299.9993
299.9993
299.9993
299.99931
299.9993
299.99929
299.9993
299.9993
299.9993
299.9993
299.99929
299.9993
299.99931
299.9993
299.9993
299.9993
299.9993
299.99931
299.9993
299.99929
299.9993
299.9993
299.9993
299.9993
299.99929
299.99921
299.99922
299.99923
299.99921
299.9992
299.9992
299.99921
299.99923
299.99922
299.99921
299.99923
299.99923
299.99923
299.99923
299.99921
299.99922
299.99922
299.99921
299.9992
299.9992
299.99921
299.99923
299.99922
299.99921
299.99929
299.9993
299.9993
299.9993
299.99931
299.99924
299.99922
299.99922
299.99923
299.99921
299.99921
299.99921
299.99921
299.99923
299.99922
299.99921
299.99924
299.99923
299.99923
299.99924
299.99921
299.99922
299.99923
299.99921
299.9992
299.9992
299.99921
299.99923
299.99922
299.99921
299.99924
299.99923
299.99923
299.99924
299.99927
299.99924
299.99924
299.99925
299.99923
299.99921
299.99921
299.99923
299.99925
299.99924
299.99924
299.99927
299.99926
299.99926
299.99927
299.99924
299.99924
299.99925
299.99922
299.99921
299.99921
299.99923
299.99925
299.99925
299.99924
299.99927
299.99924
299.99923
299.99923
299.99927
299.99927
299.99924
299.99925
299.99925
299.99923
299.99922
299.99922
299.99923
299.99925
299.99925
299.99924
299.99927
299.99927
299.99926
299.99927
299.99924
299.99925
299.99925
299.99923
299.99921
299.99921
299.99922
299.99925
299.99924
299.99924
299.99927
299.99926
299.99926
299.99942
299.99942
299.99939
299.9994
299.99939
299.99937
299.99936
299.99936
299.99937
299.99939
299.9994
299.99939
299.99942
299.99942
299.99942
299.99942
299.99939
299.99939
299.99939
299.99937
299.99935
299.99935
299.99937
299.9994
299.9994
299.99939
299.99942
299.99942
299.99927
299.99915
299.999
299.99915
299.99902
299.99889
299.9991
299.999
299.99894
299.99894
299.999
299.99909
299.99922
299.9994
299.9994
299.99939
299.99942
299.99942
299.99942
299.99942
299.99939
299.9994
299.99939
299.99937
299.99935
299.99935
299.99937
299.99939
299.99939
299.99939
299.99942
299.99942
299.99968
299.99968
299.99968
299.99965
299.99966
299.99965
299.99963
299.99962
299.99962
299.99963
299.99965
299.99966
299.99965
299.99968
299.99968
299.99968
299.99968
299.99965
299.99966
299.99965
299.99963
299.99962
299.99962
299.99963
299.99965
299.99966
299.99966
299.99968
299.99969
299.99969
299.99942
299.99942
299.9994
299.9994
299.9994
299.99938
299.99936
299.99936
299.99938
299.99964
299.99966
299.99966
299.99966
299.99968
299.99968
299.99968
299.99968
299.99965
299.99966
299.99965
299.99963
299.99961
299.99961
299.99963
299.99965
299.99966
299.99965
299.99968
300.00002
300.00003
300.00003
300.00002
300
300.00001
299.99999
299.99997
299.99996
299.99996
299.99997
299.99999
300.00001
300
300.00002
300.00003
300.00003
300.00002
300
300.00001
300
299.99998
299.99996
299.99996
299.99998
300
300.00001
300.00001
300.00003
300.00004
300.00004
300.00003
299.99969
299.99966
299.99967
299.99966
299.99964
299.99962
299.99962
299.99997
299.99998
300
300.00001
300.00001
300.00003
300.00003
300.00003
300.00002
300
300.00001
299.99999
299.99997
299.99996
299.99996
299.99997
299.99999
300
300
300.00042
300.00043
300.00044
300.00044
300.00043
300.00042
300.00042
300.0004
300.00039
300.00038
300.00038
300.00039
300.00041
300.00042
300.00042
300.00043
300.00044
300.00044
300.00043
300.00042
300.00042
300.00041
300.00039
300.00039
300.00039
300.0004
300.00041
300.00043
300.00042
300.00044
300.00045
300.00045
300.00044
300.00042
300.00001
300.00001
300
299.99998
299.99997
300.00039
300.00039
300.0004
300.00041
300.00042
300.00042
300.00043
300.00044
300.00044
300.00043
300.00042
300.00042
300.0004
300.00039
300.00038
300.00038
300.00039
300.0004
300.00042
300.00086
300.00086
300.00086
300.00087
300.00087
300.00086
300.00086
300.00086
300.00084
300.00084
300.00083
300.00083
300.00084
300.00084
300.00086
300.00086
300.00086
300.00088
300.00088
300.00086
300.00086
300.00087
300.00085
300.00084
300.00084
300.00084
300.00084
300.00085
300.00087
300.00087
300.00087
300.00088
300.00088
300.00087
300.00086
300.00086
300.00043
300.00041
300.0004
300.00084
300.00084
300.00084
300.00084
300.00084
300.00086
300.00086
300.00086
300.00087
300.00087
300.00086
300.00086
300.00086
300.00084
300.00083
300.00083
300.00083
300.00083
300.00084
300.00125
300.00127
300.00127
300.00126
300.00128
300.00128
300.00126
300.00127
300.00127
300.00125
300.00125
300.00125
300.00126
300.00126
300.00125
300.00128
300.00128
300.00127
300.00129
300.00129
300.00127
300.00128
300.00128
300.00126
300.00126
300.00126
300.00126
300.00126
300.00126
300.00128
300.00128
300.00127
300.00128
300.00128
300.00127
300.00128
300.00127
300.00125
300.00085
300.00078
300.00072
300.00068
300.00068
300.00071
300.00078
300.00123
300.00125
300.00127
300.00127
300.00127
300.00128
300.00128
300.00126
300.00127
300.00127
300.00125
300.00125
300.00125
300.00125
300.00125
300.00161
300.0016
300.00162
300.00163
300.00161
300.00163
300.00163
300.00162
300.00163
300.00163
300.00161
300.00161
300.00162
300.00162
300.00162
300.00161
300.00163
300.00164
300.00162
300.00164
300.00164
300.00163
300.00164
300.00164
300.00161
300.00162
300.00162
300.00162
300.00162
300.00161
300.00163
300.00164
300.00162
300.00164
300.00163
300.00162
300.00163
300.00163
300.00161
300.00161
300.00126
300.00125
300.00125
300.00125
300.00161
300.00161
300.00163
300.00163
300.00162
300.00163
300.00163
300.00161
300.00163
300.00162
300.0016
300.00161
300.00161
300.00161
300.0019
300.00189
300.00188
300.00191
300.00191
300.0019
300.00191
300.00191
300.0019
300.00192
300.00191
300.0019
300.0019
300.00191
300.00191
300.00191
300.0019
300.00192
300.00192
300.00191
300.00192
300.00192
300.00191
300.00193
300.00192
300.0019
300.00191
300.00191
300.00191
300.00191
300.0019
300.00192
300.00192
300.00191
300.00192
300.00192
300.0019
300.00192
300.00191
300.00189
300.0019
300.0019
300.00161
300.00161
300.0019
300.0019
300.00189
300.00191
300.00191
300.0019
300.00191
300.00191
300.0019
300.00191
300.00191
300.00188
300.00189
300.0019
300.00211
300.00211
300.0021
300.00209
300.00211
300.00212
300.00211
300.00212
300.00212
300.00211
300.00213
300.00213
300.00211
300.00212
300.00213
300.00213
300.00212
300.00211
300.00213
300.00214
300.00212
300.00213
300.00213
300.00212
300.00214
300.00214
300.00212
300.00213
300.00213
300.00213
300.00212
300.00211
300.00213
300.00214
300.00212
300.00212
300.00212
300.00211
300.00213
300.00212
300.0021
300.00211
300.00212
300.00212
300.00211
300.0021
300.00212
300.00213
300.00211
300.00212
300.00211
300.00211
300.00212
300.00211
300.00209
300.0021
300.00224
300.00225
300.00225
300.00224
300.00223
300.00225
300.00225
300.00224
300.00225
300.00225
300.00225
300.00227
300.00226
300.00225
300.00226
300.00227
300.00227
300.00227
300.00226
300.00227
300.00228
300.00226
300.00226
300.00226
300.00226
300.00228
300.00227
300.00226
300.00227
300.00228
300.00228
300.00227
300.00226
300.00227
300.00227
300.00226
300.00226
300.00226
300.00225
300.00227
300.00226
300.00224
300.00225
300.00226
300.00226
300.00225
300.00224
300.00226
300.00226
300.00225
300.00225
300.00225
300.00224
300.00225
300.00225
300.00223
300.00231
300.00232
300.00233
300.00232
300.00232
300.00231
300.00232
300.00233
300.00232
300.00232
300.00232
300.00232
300.00234
300.00234
300.00233
300.00235
300.00236
300.00236
300.00235
300.00234
300.00235
300.00235
300.00234
300.00234
300.00234
300.00234
300.00235
300.00235
300.00234
300.00235
300.00236
300.00236
300.00235
300.00234
300.00235
300.00235
300.00233
300.00233
300.00233
300.00233
300.00234
300.00233
300.00232
300.00233
300.00235
300.00235
300.00234
300.00233
300.00233
300.00234
300.00232
300.00232
300.00232
300.00231
300.00233
300.00232
300.00234
300.00234
300.00235
300.00236
300.00236
300.00235
300.00234
300.00234
300.00235
300.00234
300.00234
300.00234
300.00235
300.00237
300.00237
300.00237
300.00239
300.0024
300.0024
300.00239
300.00237
300.00237
300.00238
300.00236
300.00236
300.00236
300.00236
300.00238
300.00237
300.00238
300.00239
300.0024
300.0024
300.00239
300.00237
300.00237
300.00238
300.00235
300.00235
300.00235
300.00235
300.00236
300.00235
300.00235
300.00237
300.00238
300.00238
300.00238
300.00236
300.00236
300.00237
300.00234
300.00234
300.00234
300.00234
300.00235
300.00235
300.00233
300.00233
300.00235
300.00236
300.00236
300.00235
300.00233
300.00233
300.00234
300.00233
300.00232
300.00232
300.00234
300.00237
300.00236
300.00237
300.0024
300.00241
300.00242
300.0024
300.00238
300.00237
300.00238
300.00235
300.00234
300.00234
300.00235
300.00238
300.00237
300.00238
300.0024
300.00242
300.00242
300.0024
300.00238
300.00237
300.00237
300.00235
300.00233
300.00233
300.00233
300.00235
300.00234
300.00234
300.00237
300.00239
300.0024
300.00239
300.00236
300.00236
300.00236
300.00234
300.00232
300.00232
300.00233
300.00229
300.00231
300.00231
300.00231
300.00234
300.00235
300.00235
300.00234
300.00231
300.00231
300.00231
300.00229
300.00226
300.00226
300.00229
300.00233
300.00231
300.00234
300.00238
300.0024
300.0024
300.00238
300.00235
300.00232
300.00233
300.0023
300.00228
300.00228
300.00231
300.00234
300.00232
300.00235
300.00238
300.00241
300.00241
300.00238
300.00235
300.00232
300.00233
300.0023
300.00227
300.00226
300.00229
300.00231
300.00227
300.00228
300.00233
300.00237
300.00239
300.00236
300.00233
300.00231
300.00232
300.00229
300.00226
300.00226
300.00227
300.00225
300.00231
300.00228
300.00227
300.00231
300.00232
300.00232
300.00231
300.00227
300.00228
300.0023
300.00225
300.00227
300.00228
300.00226
300.00232
300.00232
300.00233
300.00238
300.00241
300.00241
300.00238
300.00233
300.00233
300.00233
300.00228
300.00229
300.00229
300.00228
300.00233
300.00233
300.00234
300.00239
300.00242
300.00242
300.00239
300.00234
300.00233
300.00233
300.00227
300.00228
300.00227
300.00225
300.0023
300.00224
300.00225
300.00232
300.00237
300.00239
300.00237
300.00232
300.00232
300.00232
300.00226
300.00228
300.00222
300.00222
300.00226
300.00232
300.00234
300.00237
300.0024
300.0024
300.00237
300.00234
300.00232
300.00226
300.00222
300.00222
300.00226
300.00233
300.00231
300.00233
300.00239
300.00242
300.00242
300.00239
300.00233
300.00232
300.00234
300.00227
300.00224
300.00224
300.00227
300.00234
300.00232
300.00234
300.0024
300.00243
300.00243
300.0024
300.00234
300.00232
300.00233
300.00227
300.00223
300.00223
300.00226
300.00231
300.00228
300.00227
300.00233
300.00239
300.00241
300.00238
300.00232
300.00231
300.00233
300.00226
300.00235
300.00234
300.00257
300.00309
300.0039
300.00475
300.00529
300.00519
300.00456
300.00378
300.00305
300.00256
300.00234
300.00235
300.00254
300.00308
300.00429
300.00606
300.00791
300.00915
300.00923
300.00808
300.00618
300.00432
300.00305
300.00252
300.00234
300.00234
300.00228
300.00228
300.00228
300.00233
300.0023
300.00234
300.00229
300.00253
300.00234
300.0023
300.00233
300.00228
300.00228
300.00229
300.00228
300.00254
300.00254
300.0028
300.00316
300.00341
300.00331
300.00297
300.0027
300.00251
300.00234
300.00234
300.00228
300.00227
300.00227
300.0023
300.00229
300.00234
300.00232
300.0025
300.0027
300.00238
300.00234
300.00232
300.00229
300.00233
300.00226
300.00224
300.00226
300.00227
300.00235
300.00252
300.00244
300.00239
300.00247
300.0024
300.00246
300.00261
300.00264
300.00257
300.00243
300.00246
300.00238
300.00239
300.00246
300.00239
300.00242
300.00236
300.00236
300.00256
300.00254
300.0024
300.00275
300.00252
300.00233
300.00253
300.00233
300.00241
300.00241
300.00253
300.00241
300.00241
300.00257
300.003
300.00255
300.00251
300.00267
300.00245
300.00247
300.00257
300.00253
300.00259
300.00264
300.00263
300.00265
300.0035
300.0032
300.00279
300.00403
300.0031
300.00305
300.00392
300.00505
300.00317
300.00345
300.00587
300.00584
300.00512
300.0097
300.00701
300.00456
300.00308
300.00252
300.00251
300.00304
300.00389
300.00276
300.00243
300.0024
300.00229
300.00233
300.00236
300.00236
300.00233
300.00229
300.0024
300.00247
300.00253
300.00253
300.00247
300.00253
300.0026
300.0034
300.00316
300.00304
300.00289
300.0044
300.00775
300.01167
300.01235
300.01273
300.01272
300.01233
300.01164
300.01057
300.00941
300.00819
300.0082
300.00944
300.01062
300.01171
300.01242
300.0128
300.0128
300.0124
300.01169
300.01061
300.00944
300.00822
300.00822
300.00612
300.00389
300.00281
300.00247
300.00244
300.00259
300.00267
300.00267
300.00258
300.00244
300.00247
300.0028
300.00388
300.00611
300.00824
300.00825
300.00949
300.01067
300.01178
300.01254
300.01298
300.01299
300.0126
300.01188
300.01078
300.00958
300.00831
300.00828
300.00949
300.01062
300.013
300.01574
300.01782
300.01994
300.02163
300.02258
300.02255
300.02158
300.01985
300.01772
300.01563
300.01293
300.01062
300.00798
300.00473
300.00317
300.00346
300.00532
300.00913
300.01238
300.01168
300.0143
300.01718
300.01978
300.02149
300.02301
300.02418
300.02526
300.02591
300.0263
300.02631
300.02594
300.02533
300.02427
300.02314
300.02163
300.01992
300.02312
300.02484
300.02637
300.02756
300.02833
300.02871
300.0287
300.02829
300.02749
300.02627
300.02471
300.02297
300.02409
300.02141
300.01823
300.01497
300.01543
300.01277
300.01277
300.00914
300.00532
300.00346
300.00318
300.00474
300.00798
300.01167
300.01237
300.01497
300.01543
300.01881
300.01881
300.02231
300.02573
300.02512
300.0274
300.02623
300.02807
300.02941
300.03029
300.03073
300.03074
300.03035
300.0295
300.02818
300.02638
300.02427
300.0216
300.02532
300.02758
300.02951
300.03091
300.0318
300.0322
300.03218
300.03174
300.03082
300.02938
300.03024
300.02818
300.02857
300.02611
300.02611
300.02231
300.02574
300.02819
300.02858
300.03065
300.03066
300.03214
300.03172
300.03264
300.03309
300.03311
300.03269
300.03182
300.03038
300.02837
300.02596
300.02254
300.02632
300.02876
300.0308
300.03225
300.03313
300.03353
300.03351
300.03307
300.03307
300.03215
300.03173
300.03026
300.02939
300.02741
300.02513
300.02139
300.01822
300.01714
300.01428
300.01289
300.01059
300.00943
300.01156
300.01377
300.01558
300.01766
300.01973
300.02294
300.02408
300.02622
300.02806
300.02941
300.03084
300.03175
300.03267
300.0331
300.03353
300.03355
300.03315
300.03225
300.03081
300.02877
300.02632
300.02254
300.02595
300.02837
300.0304
300.03184
300.03274
300.03314
300.03222
300.03221
300.03073
300.03031
300.02825
300.02745
300.02623
300.02468
300.02295
300.02144
300.01975
300.02144
300.0241
300.02518
300.02581
300.0262
300.02866
300.02867
300.03076
300.03036
300.03183
300.03094
300.02954
300.02759
300.02534
300.02159
300.02427
300.02639
300.0282
300.02953
300.02754
300.0283
300.02586
300.02621
300.02242
300.02238
300.01887
300.01827
300.01718
300.0156
300.01292
300.01157
300.00989
300.01018
300.01183
300.01369
300.01499
300.01603
300.01653
300.01652
300.01602
300.01499
300.01369
300.01184
300.00947
300.01162
300.00994
300.01163
300.013
300.01442
300.01515
300.01565
300.01566
300.0152
300.0145
300.01309
300.01171
300.01001
300.01168
300.01393
300.01577
300.01736
300.01846
300.01906
300.01905
300.01841
300.01729
300.01568
300.01384
300.0136
300.01185
300.01373
300.01506
300.01613
300.01665
300.01667
300.01617
300.01513
300.01382
300.01192
300.01022
300.011
300.01189
300.01367
300.01589
300.01553
300.01724
300.01843
300.01752
300.01893
300.02255
300.02164
300.02006
300.01808
300.01585
300.01374
300.01545
300.01504
300.01438
300.0173
300.01839
300.01506
300.01551
300.01899
300.019
300.01551
300.01505
300.01838
300.0173
300.0199
300.02159
300.0231
300.02423
300.02528
300.02152
300.01987
300.01777
300.0157
300.01296
300.01436
300.01505
300.01607
300.01658
300.01658
300.01607
300.01743
300.01835
300.01719
300.02005
300.02168
300.02154
300.02287
300.02303
300.02315
300.02487
300.02314
300.02302
300.02484
300.02662
300.02416
300.02436
300.02546
300.02536
300.02587
300.02801
300.02782
300.02653
300.02852
300.02654
300.02436
300.0216
300.02414
300.02586
300.02662
300.02803
300.02535
300.02545
300.02785
300.02871
300.02613
300.02251
300.01885
300.01886
300.01744
300.01835
300.01719
300.01547
300.01373
300.01584
300.01807
300.02005
300.0216
300.02251
300.02651
300.02651
300.02636
300.02597
300.02751
300.02897
300.02943
300.02915
300.03151
300.03104
300.03006
300.03056
300.02876
300.03054
300.03005
300.03172
300.03253
300.03373
300.03158
300.02893
300.02597
300.02611
300.0265
300.02635
300.02752
300.02935
300.02909
300.02867
300.031
300.03146
300.03212
300.03431
300.03326
300.03277
300.03387
300.03278
300.03376
300.03163
300.03217
300.03435
300.03331
300.03441
300.0357
300.03507
300.03568
300.0344
300.03493
300.03635
300.03748
300.03671
300.03513
300.03269
300.0321
300.03097
300.02906
300.02902
300.03108
300.03343
300.0311
300.03099
300.03312
300.03448
300.03492
300.03225
300.03289
300.03565
300.03593
300.03295
300.02703
300.02266
300.02196
300.02073
300.01897
300.01829
300.02018
300.02165
300.0225
300.02248
300.0175
300.01891
300.01838
300.01718
300.01545
300.01581
300.018
300.01999
300.0216
300.02253
300.02649
300.02634
300.0275
300.02593
300.02608
300.02863
300.02909
300.02935
300.02888
300.02796
300.02531
300.02539
300.02428
300.02409
300.02582
300.02652
300.02643
300.02776
300.02997
300.03096
300.03145
300.03211
300.03154
300.03369
300.03431
300.03325
300.03273
300.03163
300.03245
300.03048
300.02867
300.02843
300.02994
300.03045
300.0315
300.03367
300.03501
300.03568
300.03438
300.03383
300.03435
300.03492
300.03635
300.03566
300.03426
300.03321
300.0327
300.03091
300.03138
300.03205
300.02925
300.0288
300.02789
300.0265
300.02474
300.02294
300.02303
300.02156
300.01994
300.02143
300.02279
300.02289
300.02299
300.02474
300.02639
300.0242
300.02147
300.02401
300.02575
300.02518
300.02527
300.02767
300.02852
300.02593
300.02234
300.02579
300.02737
300.02616
300.02631
300.02896
300.02897
300.03138
300.0332
300.03436
300.03493
300.03495
300.03442
300.0333
300.03152
300.02914
300.02941
300.02636
300.02751
300.02595
300.02611
300.0287
300.02895
300.02804
300.02536
300.02546
300.02786
300.02655
300.02437
300.02416
300.02586
300.02664
300.02878
300.03058
300.03163
300.03217
300.03436
300.03378
300.03282
300.03107
300.03009
300.03175
300.03256
300.03057
300.03008
300.02856
300.02653
300.02638
300.02484
300.02311
300.02313
300.02303
300.02287
300.02486
300.02488
300.02312
300.02003
300.02166
300.02152
300.02302
300.02413
300.02663
300.02585
300.028
300.02782
300.0254
300.02157
300.02433
300.0253
300.0259
300.0289
300.0316
300.03376
300.03508
300.03572
300.03637
300.03571
300.03442
300.03391
300.0328
300.03328
300.03435
300.03213
300.03148
300.03102
300.02863
300.02906
300.02934
300.02746
300.02625
300.02244
300.02603
300.0264
300.02639
300.02905
300.03146
300.03326
300.03439
300.03569
300.03636
300.03566
300.03503
300.03385
300.0327
300.03368
300.03428
300.03206
300.03151
300.03092
300.02995
300.03165
300.03273
300.03372
300.03434
300.03213
300.03156
300.03097
300.02997
300.03048
300.03247
300.03046
300.02866
300.02843
300.02639
300.02769
300.02854
300.0288
300.02925
300.02736
300.02617
300.02234
300.02632
300.02593
300.02579
300.02518
300.02789
300.02572
300.02649
300.02399
300.02145
300.02527
300.02419
300.02298
300.02473
300.0264
300.02773
300.0286
300.02886
300.02933
300.02743
300.02624
300.02241
300.02599
300.02584
300.02523
300.02793
300.02575
300.0265
300.02401
300.0215
300.02532
300.02421
300.02299
300.01993
300.02289
300.02472
300.02273
300.02289
300.01991
300.02152
300.0214
300.01796
300.0182
300.02005
300.0215
300.02231
300.02231
300.02152
300.02009
300.01822
300.02012
300.02163
300.02192
300.02265
300.02701
300.02549
300.02515
300.02218
300.01938
300.01171
300.00582
300.0034
300.0026
300.00261
300.0034
300.00303
300.00308
300.00245
300.00234
300.00271
300.0025
300.00304
300.00387
300.00495
300.00496
300.00576
300.01124
300.01131
300.01176
300.00985
300.00683
300.00434
300.0068
300.00694
300.00604
300.00376
300.00271
300.00274
300.00394
300.0049
300.00498
300.00577
300.00553
300.0048
300.0088
300.00879
300.0048
300.003
300.003
300.00322
300.00322
300.0034
300.0026
300.00253
300.00316
300.00304
300.00289
300.0044
300.00773
300.00601
300.00375
300.00271
300.00251
300.00305
300.00429
300.00611
300.00799
300.00915
300.00914
300.00798
300.00611
300.00433
300.00309
300.00255
300.00236
300.00235
300.00258
300.00309
300.00389
300.00473
300.00531
300.00531
300.00474
300.00388
300.00308
300.00257
300.00234
300.00234
300.00228
300.00228
300.00229
300.00234
300.00233
300.0023
300.00228
300.00233
300.00251
300.00276
300.00243
300.00244
300.00255
300.00262
300.00262
300.00255
300.00244
300.00244
300.0024
300.00231
300.00239
300.00235
300.0023
300.00237
300.00246
300.00238
300.0023
300.00234
300.00243
300.00235
300.00245
300.00256
300.00241
300.00232
300.00237
300.00248
300.00252
300.00241
300.00263
300.00251
300.00239
300.00269
300.00311
300.00266
300.00284
300.00346
300.00376
300.00275
300.00314
300.00298
300.0032
300.00339
300.00572
300.00486
300.00445
300.00527
300.00463
300.00295
300.00278
300.00391
300.00329
300.00389
300.00907
300.00666
300.00408
300.00276
300.00243
300.00266
300.00245
300.0025
300.00254
300.003
300.00284
300.00347
300.00266
300.00274
300.00376
300.00487
300.00313
300.00298
300.00252
300.00258
300.00252
300.00247
300.00236
300.0024
300.00265
300.00251
300.00278
300.00255
300.00311
300.00269
300.00333
300.00394
300.00449
300.00534
300.00321
300.00339
300.00575
300.01216
300.00989
300.00659
300.00416
300.00376
300.00594
300.00659
300.01204
300.0118
300.01695
300.01939
300.02221
300.02104
300.01937
300.01692
300.00977
300.00951
300.01106
300.01166
300.01938
300.0222
300.02104
300.02071
300.02017
300.02163
300.02192
300.02551
300.02284
300.02291
300.02335
300.02215
300.02066
300.02216
300.02301
300.02495
300.02516
300.02634
300.02273
300.02262
300.02245
300.02245
300.02263
300.027
300.027
300.0323
300.03111
300.02893
300.02553
300.02519
300.02496
300.02299
300.02324
300.02275
300.02636
300.02561
300.03082
300.02988
300.02797
300.02822
300.02857
300.02876
300.03095
300.03109
300.03362
300.03352
300.03097
300.03215
300.03512
300.03518
300.03493
300.03227
300.03214
300.0345
300.03516
300.03274
300.03293
300.03568
300.03596
300.03298
300.03283
300.03591
300.03786
300.03697
300.03511
300.03213
300.03228
300.03517
300.03697
300.03661
300.03599
300.03673
300.03743
300.03829
300.03742
300.03782
300.03785
300.03589
300.03281