/*--------------------------------*- C++ -*----------------------------------*\
  =========                 |
  \\      /  F ield         | OpenFOAM: The Open Source CFD Toolbox
   \\    /   O peration     | Website:  https://openfoam.org
    \\  /    A nd           | Version:  7
     \\/     M anipulation  |
\*---------------------------------------------------------------------------*/
FoamFile
{
    version     2.0;
    format      ascii;
    class       volScalarField;
    location    "380";
    object      nut;
}
// * * * * * * * * * * * * * * * * * * * * * * * * * * * * * * * * * * * * * //

dimensions      [0 2 -1 0 0 0 0];

internalField   nonuniform List<scalar> 
25201
(
6.8134803
6.8006724
6.813498
6.8007091
6.6750801
6.768322
6.7900652
6.8279671
6.8116212
6.7390449
6.8116074
6.7683068
6.7245882
6.1061764
5.9922951
6.5835392
6.4852692
6.3910349
6.3443798
6.0787183
6.2684672
6.2774057
6.3546935
6.2176796
6.2002305
6.0257347
6.1501117
6.3997073
6.3377736
6.0824773
6.1305713
6.1965757
5.7949061
5.8683974
5.9642583
5.9925368
6.2028508
6.1355741
5.8994499
5.8252926
6.085685
6.0577137
6.0546871
5.7560475
5.7874791
5.8386184
6.0821356
6.3999831
6.6680612
6.7246218
6.776754
6.7281962
6.5551975
6.6217814
6.6920232
6.6548851
6.6236175
6.535617
6.5761951
6.3238999
6.3582198
6.4488659
6.4872857
6.5460147
6.5810621
6.7228027
6.6546796
6.4302682
6.3764588
6.1986971
6.1433436
6.1989666
6.4564042
6.5054359
6.4518572
6.0248842
6.0780919
6.1465149
6.1616742
6.2227556
6.3031074
6.3748706
6.2518204
6.2689189
6.1889422
6.3006806
6.1482867
6.1063396
5.9749829
6.0495788
5.9644232
5.9194379
5.9037887
5.9037215
5.8876251
5.9625307
5.955648
5.8813037
5.7448305
5.8365189
5.8452224
5.7590193
5.7780185
5.8636304
5.8740692
5.8028168
5.645462
5.745843
5.8092589
5.7910455
5.7074068
5.7194082
5.6114014
5.5959691
5.4340313
5.5598097
5.5693876
5.4499725
5.4677266
5.6280084
5.7348091
5.5897343
5.6000664
5.4847375
5.3091593
5.4555761
5.5679966
5.8091013
6.0494126
5.8991819
5.8249994
5.7871452
5.838446
5.8730421
5.9485454
6.0335122
6.1482053
6.2517252
6.4488297
6.6235872
6.654865
6.4872637
6.32384
6.3581566
6.535554
6.5761475
6.6217316
6.6919992
6.7767218
6.7227798
6.5810403
6.5459824
6.3764085
6.430193
6.654622
6.5916802
6.7281421
6.6680002
6.4563192
6.5053739
6.1432536
6.198851
6.3006127
6.3029792
6.374773
6.2225944
6.1614914
6.1463897
5.9941171
6.0658265
6.1888643
6.2688636
6.1177881
6.2160146
6.2753685
6.1484742
6.1177936
6.0911871
5.8573293
5.8849562
5.6732487
5.7380757
5.7551634
5.6536505
5.653732
5.5342979
5.6318811
5.6229647
5.5057301
5.3294069
5.4778712
5.6093248
5.8572365
6.0911168
5.9193459
5.9642199
5.9746353
5.4673942
5.589456
5.7345556
5.863339
5.8739314
5.8026709
5.9036088
5.9033843
5.7776404
5.6277361
5.6452884
5.7456901
5.5999533
5.4845895
5.3090449
5.4554724
5.4421765
5.4220078
5.5402904
6.8006045
6.813323
6.6673295
6.3996529
6.3377538
6.0547114
5.8683679
6.1305058
6.0824411
6.0856925
6.0576881
5.7874675
5.7559763
5.7948392
5.8252569
5.8993974
6.1355107
6.2027942
6.1964735
5.9641736
5.9924345
6.1062582
6.2772991
6.4851634
0.0010930261
0.0049288728
0.011801462
0.020378326
0.27267107
0.2787739
0.021165346
0.012237503
0.0051033336
0.0011231245
0.0011383209
0.0052551561
0.012621479
0.02180683
0.2855848
0.28969014
0.022068903
0.012783922
0.0053230374
0.0011461345
0.0011493535
0.0053550214
0.012860227
0.022183072
0.29242342
0.29434237
0.022255339
0.012909694
0.0053757401
0.00115132
0.0011529522
0.0053958865
0.012960037
0.022333121
0.29589441
0.29727268
0.022424499
0.013016302
0.0054177396
0.0011545945
0.0011562568
0.005441061
0.013076955
0.022525062
0.29857455
0.29985162
0.022631676
0.013140458
0.0054652655
0.0011579398
0.0011596385
0.0054901064
0.013205468
0.02274097
0.30112525
0.30241058
0.022852891
0.013271859
0.0055154032
0.0011613512
0.0011630835
0.0055411669
0.013339188
0.022966188
0.30371038
0.30502988
0.02308168
0.013407742
0.0055673519
0.0011648359
0.0011666147
0.0055940126
0.013477245
0.023198548
0.30636824
0.30772901
0.023317706
0.013548052
0.0056211338
0.0011684199
0.0011702568
0.0056487486
0.013619877
0.023438382
0.30911137
0.31051876
0.023561441
0.013693079
0.0056768622
0.0011721266
0.0011740336
0.0057055112
0.013767399
0.023686214
0.31195018
0.31340829
0.023813573
0.013843244
0.0057347232
0.0011759808
0.0011779698
0.0057645294
0.013920345
0.023942866
0.31489263
0.31640626
0.024074846
0.013999039
0.005794929
0.001179999
0.0011820688
0.0058259338
0.014079022
0.02420884
0.31794932
0.31952428
0.024345536
0.014160587
0.0058575273
0.0011841793
0.0011863339
0.0058897591
0.014243545
0.024484453
0.32113112
0.32276841
0.024626116
0.014328136
0.0059226119
0.0011885326
0.0011907824
0.0059561382
0.014414197
0.024770122
0.32443573
0.32613762
0.024917286
0.014502136
0.0059903883
0.0011930902
0.0011954643
0.006025426
0.014591887
0.025067419
0.32787859
0.3296635
0.025221217
0.014683846
0.0060613194
0.0011979004
0.0012003874
0.0060981401
0.01477774
0.02537793
0.3314904
0.33335195
0.025537351
0.014873137
0.0061355049
0.0012029432
0.37375177
0.023042849
0.013549152
0.0056538518
0.0011530425
0.0011507206
0.0056200508
0.013462852
0.02289973
0.37168078
0.36964176
0.022758064
0.013377169
0.0055863831
0.0011484549
0.0011462176
0.0055531877
0.013292191
0.022617322
0.36763427
0.36567468
0.022479813
0.013209342
0.0055208995
0.0011440245
0.0011418912
0.0054893485
0.013128207
0.022345044
0.36376161
0.36189276
0.022213389
0.013048906
0.0054584879
0.0011398104
0.0011377745
0.0054282789
0.01297103
0.022083996
0.36006395
0.35827533
0.021957584
0.012894932
0.0053987481
0.0011357825
0.0011338356
0.0053699205
0.0128204
0.02183362
0.35652556
0.35481065
0.021712642
0.012747649
0.0053417605
0.0011319334
0.00113007
0.0053141122
0.012675977
0.021593318
0.35312479
0.35146903
0.02147634
0.012605681
0.0052869735
0.0011282434
0.0011264535
0.0052603441
0.012536422
0.021360897
0.34984286
0.34824764
0.021247911
0.012468597
0.0052342356
0.0011246986
0.0011229783
0.0052086162
0.012401754
0.021136337
0.34667917
0.34513888
0.021027177
0.012336291
0.0051834843
0.0011212895
0.0011196295
0.0051587924
0.012271675
0.020919169
0.3436221
0.34213077
0.020813426
0.012208322
0.0051345288
0.0011179938
0.0011163815
0.0051106847
0.012145741
0.020708704
0.34066018
0.33921139
0.020606179
0.01208436
0.0050872313
0.0011147877
0.0011132099
0.0050641876
0.012023737
0.020504663
0.33777867
0.33635897
0.020405709
0.01196444
0.0050415611
0.0011116451
0.0011100914
0.0050194819
0.011906382
0.020308882
0.33493854
0.33349715
0.020217627
0.011850938
0.0049981846
0.0011085528
0.0011070243
0.0049781989
0.011799323
0.020134277
0.33198811
0.33032091
0.02006293
0.01175277
0.0049595317
0.0011054758
0.001103588
0.0049404066
0.0117068
0.019996005
0.32830362
0.32550153
0.01989324
0.011637031
0.0049106279
0.0011003712
0.0010932586
0.0048506398
0.011491811
0.019661741
0.32130928
0.31521264
0.019188879
0.01121003
0.0047357822
0.0010789708
0.0010588212
0.0045596168
0.010788976
0.018477534
0.3080292
0.28776291
0.016485034
0.0095160332
0.0040405711
0.0010206108
0.0010569653
0.004566547
0.010806544
0.018502448
0.30849734
0.31576118
0.01921426
0.011226311
0.0047420321
0.001077992
0.0010928041
0.0048572539
0.011508127
0.019687104
0.32176803
0.32585931
0.019913323
0.011649909
0.0049158842
0.0011001107
0.0011034528
0.0049446785
0.011717405
0.020012794
0.32860932
0.33058411
0.020076557
0.011761343
0.0049629773
0.0011054015
0.001106988
0.0049810439
0.011806502
0.02014585
0.33221728
0.3336949
0.020227348
0.011856961
0.005000569
0.0011085398
0.0011100954
0.0050215364
0.011911629
0.020317442
0.33511187
0.33651213
0.02041314
0.011968999
0.0050433492
0.0011116596
0.0011132328
0.0050657761
0.012027832
0.020511412
0.33791493
0.33933367
0.020612182
0.012088018
0.0050886579
0.0011148162
0.0011164151
0.005111986
0.012149116
0.020714301
0.34077104
0.34223183
0.020818519
0.012211418
0.0051357349
0.0011180313
0.0011196705
0.0051599324
0.012274628
0.020924066
0.34371542
0.34522511
0.021031758
0.012339087
0.0051845735
0.0011213335
0.0011230246
0.0052096876
0.012404517
0.021140906
0.34676018
0.34832343
0.021252274
0.012471257
0.0052352741
0.0011247443
0.0011264967
0.0052613589
0.01253904
0.021365232
0.34991433
0.35153543
0.021480504
0.012608204
0.0052879522
0.0011282815
0.0011301016
0.0053150637
0.012678459
0.021597458
0.35318638
0.35486961
0.021716779
0.012750143
0.0053427165
0.001131957
0.0011338513
0.0053708953
0.012822954
0.021837877
0.3565852
0.35833708
0.021961619
0.01289734
0.0053996616
0.0011357889
0.001137773
0.0054290811
0.012973188
0.022087684
0.3601278
0.36195944
0.022216654
0.013050808
0.0054591889
0.0011398032
0.0011418827
0.0054899597
0.013129892
0.022347983
0.36383145
0.36574685
0.022482439
0.013210858
0.0055214511
0.001144019
0.0011462197
0.0055537317
0.013293678
0.022619887
0.36770734
0.36971403
0.02276086
0.013378855
0.0055870203
0.0011484706
0.0011507501
0.0056208498
0.013464913
0.022903086
0.37175621
0.37383304
0.023046823
0.013551612
0.0056548294
0.001153086
0.0011555153
0.0056896944
0.013640628
0.023194505
0.37597285
0.0011965312
0.0060766542
0.014696924
0.025184184
0.33483799
0.33293581
0.025024405
0.014601176
0.0060390876
0.0011939392
0.0011914258
0.0060021523
0.014507051
0.024867504
0.33107623
0.3292586
0.024714054
0.014415017
0.005966076
0.001188983
0.0011865818
0.0059305284
0.014324077
0.024562359
0.3274726
0.32572908
0.02441396
0.014235204
0.0058958382
0.0011842254
0.0011819292
0.0058619382
0.014148167
0.024268512
0.32402543
0.32235946
0.024126438
0.014063121
0.0058288012
0.0011796905
0.001177505
0.0057963895
0.013979668
0.023986866
0.32072709
0.31912946
0.023850501
0.013898126
0.0057647157
0.0011753724
0.0011732915
0.0057337054
0.013818037
0.023716392
0.31756267
0.31602756
0.023585253
0.013739686
0.0057033492
0.0011712596
0.0011692721
0.0056735706
0.013662562
0.023455994
0.31452001
0.3130411
0.023329372
0.013586969
0.0056443613
0.0011673246
0.0011654152
0.0056156947
0.013512502
0.023204431
0.31158814
0.31016278
0.023082122
0.013439543
0.0055875744
0.0011635415
0.0011617024
0.0055599752
0.013367647
0.022961361
0.30876157
0.30738623
0.022843157
0.013297198
0.0055328891
0.0011598942
0.0011581163
0.0055063008
0.013227742
0.022726362
0.3060331
0.30470403
0.022612084
0.01315969
0.0054802009
0.0011563652
0.0011546387
0.0054545757
0.013092557
0.022499048
0.3033948
0.30210706
0.022388507
0.013026789
0.0054294158
0.0011529329
0.0011512445
0.0054047297
0.012961944
0.022279228
0.30083518
0.29957778
0.022172978
0.012898677
0.0053805629
0.00114957
0.0011479096
0.0053570797
0.012837
0.022069456
0.29832064
0.29704623
0.021972708
0.012778538
0.0053345988
0.001146268
0.0011446451
0.0053137805
0.012724898
0.021885815
0.29570795
0.29421961
0.02181384
0.01267776
0.0052948063
0.00114301
0.0011409971
0.0052755613
0.012631896
0.021747921
0.29239327
0.28979559
0.021638606
0.012558077
0.0052443023
0.0011373973
0.0011290805
0.0051802541
0.012400675
0.021382451
0.28592629
0.28047996
0.020852255
0.012092238
0.0050576726
0.0011120347
0.0010853319
0.0048888768
0.01166796
0.020097942
0.27437781
0.273734
0.020439383
0.011857553
0.0049612986
0.0010891082
0.0011232572
0.0050964838
0.012214831
0.021132652
0.27860834
0.28577732
0.021826491
0.012633801
0.0052598274
0.0011383103
0.0011462427
0.0053258575
0.012790439
0.022079363
0.28979735
0.29254599
0.022194121
0.012866984
0.0053576604
0.0011494074
0.0011513636
0.0053778806
0.012914964
0.022263704
0.29445186
0.29599994
0.022341162
0.012964911
0.0053977469
0.001152988
0.0011546356
0.0054194609
0.013020591
0.022431323
0.2973705
0.29866746
0.022531969
0.01308112
0.0054426349
0.0011563002
0.0011579879
0.0054667668
0.013144206
0.022637667
0.29993662
0.30120661
0.022747143
0.013209177
0.0054915003
0.0011596872
0.0011614037
0.005516744
0.01327522
0.022858299
0.30248662
0.30378415
0.022971821
0.013342557
0.0055424297
0.0011631363
0.0011648914
0.0055685893
0.013410843
0.023086698
0.30509986
0.30643672
0.023203848
0.013480411
0.0055951982
0.0011666705
0.0011684785
0.0056223106
0.013551001
0.023322494
0.30779458
0.30917624
0.023443541
0.013622972
0.0056499162
0.0011703162
0.0011721876
0.0056780574
0.013696055
0.02356627
0.31058123
0.31201208
0.02369152
0.0137706
0.0057067255
0.0011740935
0.0011760381
0.0057359547
0.013846323
0.023818588
0.31346838
0.31495182
0.023948296
0.013923589
0.0057657503
0.001178022
0.0011800505
0.0057961493
0.014002148
0.024080034
0.31646194
0.31800098
0.024214568
0.014082365
0.0058271746
0.0011821251
0.0011842491
0.0058588403
0.014163971
0.024351297
0.31956862
0.32116733
0.024490914
0.014247291
0.0058911585
0.0011864232
0.0011886499
0.0059241574
0.014332103
0.024632909
0.32279846
0.32446591
0.024777949
0.014418753
0.0059578701
0.0011909287
0.0011932591
0.0059922954
0.014506979
0.02492552
0.32617158
0.32791924
0.025076124
0.014597017
0.0060274198
0.0011956401
0.0011980724
0.0060632878
0.014688722
0.025229424
0.32971035
0.3315466
0.025386192
0.014782527
0.0060999772
0.0012005612
0.0012031185
0.0061376149
0.01487841
0.025546211
0.33342652
0.33534804
0.025709576
0.014976283
0.0061760194
0.0012057451
0.0011964985
0.0060763034
0.014696044
0.025182723
0.33482517
0.33292709
0.025023028
0.014600353
0.0060387597
0.0011939034
0.0011913876
0.0060018256
0.014506238
0.024866138
0.33107036
0.32925343
0.024712603
0.014414147
0.005965721
0.0011889436
0.0011865421
0.0059301491
0.01432314
0.024560794
0.32746715
0.32572135
0.024412313
0.014234221
0.0058954417
0.001184188
0.0011818953
0.0058615295
0.014147144
0.024266789
0.32401423
0.32234491
0.024124675
0.014062086
0.005828396
0.0011796612
0.0011774805
0.0057959902
0.013978637
0.023985108
0.32070998
0.31911054
0.023848762
0.013897106
0.005764322
0.0011753513
0.0011732734
0.0057333346
0.01381707
0.023714754
0.31754329
0.31600844
0.023583708
0.013738765
0.0057029924
0.0011712437
0.0011692574
0.0056732337
0.013661696
0.023454554
0.3145017
0.313024
0.02332805
0.013586166
0.0056440464
0.0011673106
0.0011654017
0.0056154062
0.013511771
0.02320323
0.31157209
0.3101479
0.023081019
0.013438868
0.0055873082
0.0011635291
0.0011616912
0.0055597239
0.013367013
0.022960329
0.30874738
0.30737237
0.022842161
0.01329658
0.0055326414
0.0011598839
0.0011581068
0.0055060653
0.013227146
0.022725396
0.30601895
0.30468985
0.02261113
0.0131591
0.0054799673
0.0011563568
0.001154631
0.0054543402
0.013091957
0.022498074
0.30338027
0.3020917
0.022387512
0.013026173
0.0054291723
0.0011529257
0.0011512377
0.0054044772
0.012961304
0.02227819
0.30081931
0.29956122
0.022171878
0.012897994
0.0053802955
0.0011495639
0.0011479037
0.0053567951
0.012836277
0.022068298
0.29830377
0.29702887
0.021971477
0.012777774
0.0053343014
0.0011462622
0.0011446389
0.0053134937
0.012724144
0.02188458
0.29569162
0.29420469
0.021812512
0.012676959
0.0052945005
0.0011430002
0.0011409788
0.0052753373
0.012631229
0.021746687
0.29238271
0.28979463
0.021637271
0.012557366
0.0052440439
0.001137365
0.0011289698
0.0051795684
0.012399049
0.021379569
0.28593226
0.28050991
0.020847883
0.012089895
0.0050567623
0.0011118989
0.001084577
0.0048862328
0.011663386
0.020089673
0.27452672
0.30933429
0.018553306
0.010857082
0.0045936256
0.0010531188
0.0010778103
0.0047371914
0.01120814
0.019185003
0.31549736
0.32178345
0.019689633
0.011509723
0.0048577363
0.0010927911
0.001100252
0.0049160935
0.01164968
0.019912772
0.32585112
0.32857717
0.020011221
0.011716308
0.004944239
0.001103506
0.0011054253
0.0049623408
0.011759516
0.020073467
0.33053172
0.33215744
0.020142956
0.01180465
0.0049802843
0.0011069883
0.0011085331
0.0049998526
0.011854987
0.020223986
0.3336336
0.33505351
0.020314679
0.011909889
0.0050208248
0.0011100814
0.001111644
0.005042699
0.011967196
0.020410061
0.33645497
0.3378625
0.02050893
0.012026282
0.0050651423
0.0011132133
0.0011147962
0.0050880674
0.012086375
0.020609378
0.3392837
0.34072511
0.020712026
0.012147704
0.0051114117
0.0011163924
0.0011180078
0.0051351891
0.012209893
0.020815919
0.34218763
0.34367454
0.020921923
0.012273298
0.0051593902
0.0011196439
0.0011213052
0.0051840392
0.012337602
0.021029242
0.34518566
0.34672334
0.021138746
0.01240318
0.0052091415
0.0011229929
0.0011247094
0.0052347136
0.012469715
0.021249682
0.3482872
0.34987947
0.02136286
0.012537574
0.0052607595
0.0011264567
0.0011282385
0.0052873145
0.012606476
0.021477626
0.35150002
0.35315095
0.021594721
0.012676775
0.0053143812
0.0011300555
0.0011319119
0.0053419982
0.012748218
0.021713588
0.35483213
0.35654674
0.021834927
0.01282114
0.0053701658
0.0011338101
0.0011357588
0.005398943
0.012895423
0.021958461
0.35829698
0.36008809
0.022085082
0.012971583
0.0054284411
0.0011377598
0.0011398105
0.0054586571
0.013049335
0.022214228
0.36192005
0.36379402
0.022346351
0.013128897
0.0054895765
0.0011419105
0.0011440633
0.0055212061
0.01321006
0.022481073
0.36571052
0.36767213
0.022619029
0.013293188
0.0055535682
0.0011462702
0.0011485151
0.0055868185
0.013378167
0.022759675
0.36967836
0.3717174
0.022901832
0.013464163
0.0056205736
0.0011507809
0.0011531002
0.0056544595
0.01355051
0.023044943
0.3737893
0.37592101
0.023192248
0.013639293
0.0056892029
0.0011555119
0.33526857
0.025702789
0.014972255
0.0061744432
0.0012056419
0.001203001
0.0061359854
0.014874216
0.025539058
0.3333514
0.33148772
0.025379945
0.014778954
0.0060986115
0.0012004518
0.0011979656
0.0060617556
0.014684871
0.025222887
0.32965775
0.32787221
0.025069126
0.01459289
0.0060258031
0.0011955216
0.00119313
0.005990632
0.014502693
0.02491819
0.3261298
0.32442867
0.024770691
0.014414514
0.0059562262
0.0011907969
0.0011885203
0.0059225576
0.014327964
0.024625776
0.3227637
0.32113358
0.024484061
0.014243299
0.0058896157
0.0011862989
0.0011841306
0.0058573539
0.014160125
0.024344681
0.31953431
0.31796671
0.024208504
0.014078829
0.0058258093
0.0011820167
0.0011799545
0.0057948925
0.013998885
0.02407443
0.31642647
0.31491463
0.023943243
0.013920614
0.0057645998
0.0011779381
0.0011759635
0.0057348771
0.01384353
0.023813839
0.31342868
0.31197018
0.023687134
0.013767988
0.0057057137
0.0011740267
0.0011721264
0.0056770868
0.013693533
0.023562
0.31053656
0.3091295
0.023439473
0.013620543
0.0056489759
0.0011702588
0.0011684233
0.0056213789
0.013548565
0.023318368
0.3077456
0.30638664
0.023199819
0.013478009
0.0055942729
0.0011666171
0.0011648381
0.0055676518
0.013408384
0.023082532
0.30504825
0.30373256
0.022967752
0.013340134
0.005541498
0.0011630836
0.0011613506
0.0055158
0.013272733
0.022854085
0.30243443
0.30115493
0.022743029
0.013206718
0.0054905575
0.0011596348
0.0011579352
0.0054658163
0.013141698
0.022633416
0.29988471
0.2986158
0.022527886
0.013078677
0.0054417016
0.0011562483
0.0011545835
0.0054185453
0.013018151
0.022427162
0.29731958
0.29595149
0.022337326
0.012962639
0.0053968911
0.0011529371
0.0011513139
0.0053771857
0.012913018
0.022260254
0.29440607
0.29250445
0.022191365
0.012865387
0.0053570891
0.001149357
0.0011461751
0.0053259838
0.012790508
0.022079139
0.28977546
0.28574885
0.021823359
0.012631153
0.0052586499
0.0011381419
0.0011226142
0.0050994804
0.012221588
0.021141773
0.27865765
0.27350904
0.020428992
0.011852284
0.0049594147
0.0010881872
0.0010929303
0.0049410395
0.011828958
0.020418824
0.27309843
0.27905132
0.021180168
0.012247456
0.0051076879
0.0011226983
0.0011379956
0.0052584545
0.012629207
0.021818603
0.2858222
0.28989114
0.022080047
0.012790884
0.0053258299
0.0011459649
0.0011492816
0.0053578241
0.012867235
0.022194306
0.29260294
0.29449462
0.022265564
0.012916025
0.0053782349
0.0011513012
0.0011529623
0.0053981621
0.012965796
0.022342379
0.29602854
0.29739191
0.02243285
0.013021474
0.0054197683
0.0011546206
0.0011562922
0.0054428906
0.013081623
0.022532602
0.29868149
0.2999476
0.022638595
0.013144728
0.0054669358
0.0011579805
0.0011596815
0.0054916238
0.013209356
0.022747274
0.30121308
0.30249194
0.022858796
0.013275484
0.0055168107
0.0011613973
0.0011631319
0.005542477
0.013342554
0.022971676
0.30378644
0.30510215
0.023086945
0.013410956
0.005568598
0.0011648864
0.001166667
0.005595197
0.013480304
0.023203563
0.30643749
0.30779627
0.023322613
0.013551039
0.0056222908
0.001168475
0.0011703134
0.0056498854
0.013622795
0.023443173
0.30917744
0.3105843
0.023566252
0.013696001
0.0056780012
0.001172184
0.0011740896
0.0057066526
0.013770322
0.023691016
0.3120163
0.31347642
0.023818388
0.01384616
0.0057358591
0.001176031
0.00117801
0.0057656227
0.013923177
0.023947582
0.31496395
0.31648169
0.024079419
0.014001747
0.0057959629
0.0011800272
0.0011820849
0.0058268801
0.014081536
0.024213148
0.31802879
0.31960535
0.024349562
0.01416291
0.0058583929
0.0011841857
0.001186333
0.0058905519
0.014245687
0.024488163
0.32121127
0.32284826
0.024629687
0.014330219
0.0059233857
0.0011885292
0.0011907814
0.0059569334
0.014416325
0.024773726
0.32451747
0.32622467
0.024921218
0.014504489
0.0059912771
0.0011930957
0.0011954774
0.0060264418
0.014594564
0.025071881
0.32797346
0.32976487
0.025226201
0.014686852
0.0060624703
0.001197923
0.0012004225
0.0060994027
0.014780967
0.02538325
0.33159247
0.33345001
0.025542764
0.014876388
0.0061367788
0.0012029907
0.0012056549
0.0061753125
0.014974571
0.025706739
0.33536175
6.8850022
6.881173
6.8849845
6.8811375
6.8288607
6.8538189
6.8637552
6.9019983
6.8962393
6.8538321
6.8003951
6.8590782
6.8962268
6.8787848
6.8241622
6.7899064
6.7589096
6.6370029
6.6747361
6.5460904
6.734507
6.6998678
6.4884578
6.3261117
6.6429946
6.792984
6.8517155
6.7317292
6.77776
6.813164
6.8546784
6.7676269
6.7285929
6.6060892
6.6644606
6.5359936
6.7722076
6.7387975
6.6958461
6.6406311
6.6821417
6.3941846
6.2912634
6.2178832
6.6001877
6.5434478
6.5066831
6.5551133
6.1985762
6.259654
6.1468425
6.0823916
6.024724
6.0779595
6.3998579
6.4517555
6.4517728
6.6679837
6.8005796
6.8133021
6.7681638
6.7244623
0.27520809
0.020090094
0.011666012
0.0048875538
0.0010898114
0.0011136196
0.0050507081
0.01207327
0.020817849
0.28055944
0.28575656
0.021350122
0.012381006
0.0051723608
0.0011295994
0.0011376521
0.005238298
0.012543087
0.021614588
0.289585
0.29221707
0.021732548
0.012621834
0.0052713896
0.0011411443
0.0011431123
0.0052918323
0.012670393
0.021802472
0.29407778
0.29560205
0.021878345
0.012719795
0.0053116279
0.0011447161
0.001146322
0.0053330267
0.012774585
0.021966662
0.29696222
0.29825843
0.022065638
0.012834289
0.0053559114
0.0011479509
0.0011496056
0.0053797278
0.012896535
0.022169729
0.2995296
0.30080031
0.022277489
0.012960603
0.0054041226
0.0011512742
0.0011529609
0.0054290064
0.013025709
0.022386906
0.30207997
0.30337616
0.02249854
0.013092034
0.0054543048
0.0011546642
0.0011563901
0.0054800485
0.013159252
0.022611482
0.30468916
0.30602334
0.022726596
0.013227713
0.0055062289
0.0011581397
0.0011599182
0.0055328928
0.013297157
0.022843171
0.30737729
0.30875438
0.022962034
0.013367927
0.0055600316
0.0011617257
0.0011635666
0.005587685
0.01343977
0.023082534
0.31015415
0.31157915
0.023205458
0.013513031
0.0056158578
0.0011654422
0.0011673554
0.0056445882
0.013587477
0.023330219
0.31302887
0.314506
0.023457543
0.013663432
0.0056738733
0.0011693069
0.0011713005
0.0057037515
0.013740657
0.023586865
0.31601052
0.31754434
0.023718885
0.013819483
0.0057342322
0.0011733372
0.0011754196
0.0057653394
0.013899669
0.02385306
0.31910755
0.3207026
0.023990039
0.013981525
0.0057970822
0.0011775491
0.0011797287
0.0058294925
0.014064841
0.02412935
0.32233057
0.32399436
0.024271591
0.014149926
0.0058625843
0.0011819592
0.0011842434
0.0058963885
0.014236588
0.02441637
0.32569531
0.3274362
0.024564208
0.014325101
0.0059309169
0.0011865821
0.0011889782
0.0059661898
0.014415273
0.024714709
0.32921817
0.33104278
0.024868552
0.014507481
0.0060022734
0.0011914359
0.0011939598
0.0060391784
0.014601542
0.025025393
0.33291098
0.33482459
0.025185799
0.014697761
0.0060769305
0.0011965533
0.0011938923
0.0060383136
0.014599226
0.0250212
0.33287448
0.3310194
0.024865229
0.014505676
0.006001601
0.0011913853
0.0011889415
0.0059655436
0.014413601
0.024711667
0.32920387
0.32742019
0.024559894
0.014322532
0.0059298752
0.0011865349
0.0011841735
0.005895057
0.014233214
0.024410693
0.32567736
0.32397587
0.024265018
0.014146013
0.0058610524
0.0011818717
0.0011796268
0.0058277851
0.014060478
0.024122004
0.32231063
0.32067981
0.023982245
0.013976869
0.0057952623
0.0011774364
0.001175302
0.0057634995
0.013894926
0.023845081
0.31908062
0.31751539
0.023711468
0.013815096
0.0057325497
0.0011732245
0.0011711979
0.0057022906
0.013736811
0.023580292
0.31598153
0.31447511
0.023451776
0.013660024
0.0056725692
0.0011692142
0.0011672707
0.0056433266
0.01358422
0.023324749
0.31299235
0.31153692
0.023200355
0.013509953
0.0056146579
0.0011653659
0.0011634969
0.0055865266
0.013436764
0.02307751
0.31010571
0.30870007
0.02295716
0.01336499
0.005558897
0.0011616604
0.0011598547
0.005531746
0.013294161
0.022838143
0.30731792
0.30596002
0.022721553
0.013224686
0.0055050641
0.0011580773
0.0011563272
0.0054788401
0.013156093
0.022606166
0.30462206
0.30330599
0.022493174
0.013088808
0.0054530618
0.0011546012
0.0011528972
0.0054277063
0.01302231
0.022381203
0.30200568
0.30072343
0.022271734
0.012957134
0.0054027863
0.0011512108
0.0011495422
0.0053783232
0.01289286
0.022163581
0.29944875
0.29817486
0.022059326
0.012830471
0.0053544414
0.0011478884
0.0011462602
0.0053314581
0.012770492
0.021959849
0.29687402
0.29550841
0.021871308
0.012715517
0.0053099733
0.0011446594
0.0011430633
0.0052900735
0.012665857
0.021794988
0.29397662
0.29209916
0.021725321
0.012617297
0.0052695843
0.0011411266
0.0011376826
0.0052365243
0.012539101
0.021608962
0.28943021
0.28545576
0.021345388
0.012375896
0.0051696262
0.0011297373
0.0011137704
0.0050476793
0.01207029
0.020821697
0.27998109
0.27376389
0.020066189
0.011636373
0.0048723951
0.0010896074
0.0010533988
0.0045606029
0.010846279
0.018739815
0.26244794
0.2736972
0.021485394
0.012364366
0.0051110211
0.0011063191
0.0010926318
0.0049846012
0.011909367
0.02051875
0.27516353
0.27884645
0.021137739
0.012220378
0.0050997326
0.0011246371
0.0011387634
0.005257855
0.012628029
0.021815516
0.28578854
0.28969653
0.02206662
0.012782559
0.005322759
0.0011465124
0.0011495922
0.0053552485
0.01286079
0.022184062
0.29243503
0.29434376
0.022255718
0.012909734
0.0053757119
0.0011514955
0.0011530851
0.0053960083
0.012960467
0.022334084
0.29590163
0.2972841
0.022425789
0.013016935
0.0054179385
0.0011547035
0.0011563505
0.0054413694
0.013077855
0.022526756
0.29859148
0.29987241
0.022633734
0.01314159
0.0054656711
0.0011580234
0.0011597143
0.0054905904
0.013206791
0.022743313
0.30115061
0.30243931
0.022855485
0.013273341
0.0055159496
0.0011614221
0.0011631508
0.0055417677
0.013340795
0.022968968
0.30374125
0.30506221
0.023084647
0.013409468
0.0055680009
0.0011649007
0.001166678
0.0055947039
0.01347908
0.023201682
0.30640205
0.30776468
0.023320999
0.013549991
0.0056218693
0.0011684824
0.0011703189
0.005649534
0.013621934
0.023441853
0.3091479
0.31055531
0.023565121
0.013695269
0.0056777044
0.0011721875
0.0011740911
0.0057064126
0.013769735
0.023690115
0.31198633
0.31344366
0.023817615
0.013845654
0.0057356484
0.0011760303
0.0011780099
0.0057654543
0.013922787
0.023947
0.31492679
0.3164385
0.024079015
0.014001468
0.005795838
0.0011800307
0.0011820963
0.0058268317
0.01408146
0.024213097
0.31797852
0.31954992
0.02434996
0.014163105
0.0058584473
0.0011842079
0.00118637
0.0058907108
0.014246163
0.024489073
0.32115272
0.32278961
0.024631136
0.01433099
0.0059236595
0.001188584
0.0011908519
0.0059573239
0.014417397
0.024775705
0.32446059
0.32616841
0.024923423
0.014505705
0.0059917256
0.0011931761
0.0011955606
0.00602692
0.014595779
0.025073959
0.32791391
0.3297
0.025228056
0.014688034
0.0060629755
0.001198008
0.0012005269
0.0061000426
0.014782521
0.025385607
0.33152757
0.3333985
0.025547477
0.014880049
0.0061385675
0.0012031255
0.0012057905
0.0061797952
0.014981059
0.025712186
0.33531338
0.0011938878
0.0060379872
0.014598577
0.02502035
0.33288088
0.33101257
0.024862628
0.014504
0.0060009137
0.0011913546
0.0011888901
0.0059647552
0.014411536
0.024708273
0.3291908
0.32741605
0.024557985
0.014321538
0.0059295751
0.0011864945
0.0011841623
0.0058951756
0.014233347
0.024410644
0.32568189
0.32398598
0.024266606
0.014147103
0.0058615264
0.0011818909
0.0011796754
0.0058285876
0.014062417
0.024125036
0.32232458
0.32069812
0.023986615
0.0139796
0.0057963658
0.0011775125
0.0011754022
0.0057647291
0.013898088
0.023850287
0.31910144
0.31752574
0.023715329
0.013817258
0.0057333123
0.0011733194
0.0011712646
0.005702581
0.013737723
0.023582156
0.31597888
0.31446436
0.023451939
0.013659954
0.0056725099
0.0011692463
0.0011672864
0.0056433596
0.013584258
0.023324878
0.31298604
0.31153461
0.023200665
0.013510116
0.0056147267
0.0011653779
0.001163507
0.0055865994
0.013436968
0.023077897
0.31010591
0.30870115
0.022957535
0.013365196
0.0055589716
0.00116167
0.0011598657
0.0055318174
0.013294356
0.022838479
0.30731793
0.30595839
0.022721777
0.013224823
0.0055051165
0.0011580896
0.001156341
0.005478866
0.013156158
0.022606275
0.3046185
0.30330013
0.022493106
0.013088768
0.0054530442
0.0011546161
0.0011529133
0.0054276525
0.013022181
0.022380999
0.30199758
0.3007123
0.022271312
0.012956868
0.0054026751
0.0011512287
0.0011495626
0.0053781575
0.01289247
0.022162975
0.29943418
0.29815662
0.022058509
0.012829945
0.0053542167
0.0011479126
0.0011462903
0.0053311922
0.012769861
0.021958866
0.29685159
0.29548295
0.021870125
0.012714759
0.0053096539
0.0011446968
0.0011431108
0.0052897398
0.012665045
0.02179369
0.29394976
0.29207497
0.021723701
0.012616273
0.0052691485
0.0011411821
0.0011377531
0.005236239
0.01253838
0.021607742
0.28942627
0.28550077
0.021346137
0.012376457
0.0051698908
0.0011298425
0.0011139723
0.0050493071
0.012074335
0.02082833
0.28012667
0.27401553
0.020080505
0.011644
0.0048754016
0.0010900273
0.0010545063
0.0045871545
0.01091395
0.018848538
0.26355538
0.29171649
0.016889217
0.0097724412
0.0041412324
0.0010296647
0.0010859258
0.0048339919
0.011553696
0.019904895
0.26880376
0.27236963
0.02000823
0.011621776
0.0048618727
0.0010825637
0.0010886036
0.0048826808
0.011654284
0.020073091
0.27501704
0.2805409
0.020819977
0.012074587
0.0050514252
0.0011132895
0.0011293467
0.0051720272
0.012380463
0.021349502
0.28577202
0.28965287
0.021617631
0.012544961