/*--------------------------------*- C++ -*----------------------------------*\
  =========                 |
  \\      /  F ield         | OpenFOAM: The Open Source CFD Toolbox
   \\    /   O peration     | Website:  https://openfoam.org
    \\  /    A nd           | Version:  7
     \\/     M anipulation  |
\*---------------------------------------------------------------------------*/
FoamFile
{
    version     2.0;
    format      ascii;
    class       volScalarField;
    location    "380";
    object      p;
}
// * * * * * * * * * * * * * * * * * * * * * * * * * * * * * * * * * * * * * //

dimensions      [1 -1 -2 0 0 0 0];

internalField   nonuniform List<scalar> 
25201
(
101314.9
101314.18
101314.94
101314.31
101313.38
101313.56
101313.79
101313.67
101313.34
101312.75
101313.3
101313.49
101313.05
101315.89
101316.54
101312.56
101313.35
101313.34
101311.81
101315.37
101313.29
101313.64
101312.4
101315.34
101315.41
101314.23
101313.26
101313.2
101313.69
101313.73
101313.99
101312.79
101317.87
101317.11
101316.16
101317.05
101313.19
101314.04
101317.99
101318.62
101313.85
101314.16
101314.26
101318.32
101319.01
101318.85
101316.63
101315.46
101313.17
101313.22
101312.75
101312.61
101313.72
101313.59
101313.25
101313.02
101313.55
101314.62
101313.58
101314.97
101311.95
101314.99
101313.61
101313.77
101311.54
101311.92
101311.85
101311.97
101313.48
101313.71
101315.52
101312.37
101314.86
101313.65
101313.89
101315.93
101312.91
101313.45
101316.34
101315.23
101315.57
101314.32
101316.96
101315.22
101317.49
101313.47
101316.86
101316.26
101314.92
101314.85
101312.01
101318.7
101315.29
101318
101315.51
101311.88
101313.28
101316.99
101317.28
101318.06
101316.88
101317.87
101319.36
101319.26
101317.3
101320.98
101319.42
101316.08
101317.71
101318.45
101315.96
101315.12
101318.56
101318.02
101320.21
101321.65
101319.51
101320.77
101321.59
101319.39
101317.62
101322.55
101319.7
101321.53
101322.62
101318.83
101318.82
101317.62
101314.72
101317.39
101317.94
101318.33
101318.53
101318.1
101317.78
101316.83
101316.58
101316.72
101314.87
101313.39
101312.95
101313.56
101314.89
101311.81
101314.38
101313.47
101313.55
101313.19
101312.68
101311.88
101311.52
101313.73
101313.46
101311.97
101311.83
101311.74
101312.51
101312.85
101314.51
101313.48
101315.44
101312.12
101313.29
101315.26
101314.02
101314.8
101315.91
101313.23
101318.5
101316.76
101317.37
101315.15
101314.96
101315.18
101314.33
101316.42
101315.02
101316.79
101320.14
101317.16
101319.54
101314.14
101318.72
101321.04
101317.31
101322.69
101318.7
101322.54
101322.26
101322.7
101321.36
101320.01
101320.01
101316.57
101318.5
101311.79
101314.44
101321.25
101322.19
101317.13
101318.84
101317.21
101320.72
101314.94
101317.54
101318.94
101318.99
101319.16
101315.9
101319.58
101321.31
101322.47
101318.78
101320.56
101317.65
101318.21
101314.26
101314.84
101312.76
101312.99
101313.67
101314.27
101316.71
101313.78
101313.51
101313.67
101314.18
101318.93
101318.23
101317.59
101318.38
101317.64
101313.88
101312.89
101312.42
101315.66
101316.59
101315.76
101313.34
101313.12
101340.91
101341.35
101341.72
101342.53
101354.72
101383.43
101382.52
101381.91
101381.29
101380.75
101358.46
101358.52
101358.47
101358.53
101359.89
101355.98
101355.7
101355.63
101355.58
101355.54
101346.22
101346.25
101346.26
101346.29
101346.7
101341.37
101341.16
101341.13
101341.11
101341.09
101336.06
101336.08
101336.1
101336.12
101336.23
101332.4
101332.41
101332.4
101332.38
101332.36
101329.14
101329.16
101329.18
101329.19
101329.11
101326.43
101326.55
101326.54
101326.53
101326.51
101324.26
101324.28
101324.29
101324.29
101324.14
101322.19
101322.36
101322.36
101322.35
101322.33
101320.66
101320.68
101320.68
101320.69
101320.5
101319.01
101319.22
101319.21
101319.21
101319.19
101317.88
101317.9
101317.9
101317.9
101317.69
101316.49
101316.72
101316.72
101316.71
101316.7
101315.62
101315.63
101315.64
101315.64
101315.4
101314.39
101314.63
101314.63
101314.62
101314.61
101313.68
101313.69
101313.7
101313.7
101313.45
101312.56
101312.81
101312.81
101312.8
101312.79
101311.92
101311.93
101311.94
101311.94
101311.68
101310.85
101311.11
101311.11
101311.1
101311.08
101310.29
101310.3
101310.31
101310.31
101310.04
101309.22
101309.48
101309.48
101309.48
101309.46
101308.64
101308.65
101308.66
101308.66
101308.4
101307.58
101307.85
101307.85
101307.84
101307.82
101307.01
101307.03
101307.03
101307.03
101306.76
101305.89
101306.17
101306.17
101306.16
101306.15
101305.1
101305.13
101305.13
101305.14
101304.89
101304.02
101304.17
101304.16
101304.14
101304.11
101303.77
101303.78
101303.78
101303.78
101303.43
101302.32
101302.63
101302.63
101302.63
101302.61
101302.44
101302.91
101302.93
101302.94
101302.94
101303.93
101303.94
101303.93
101303.92
101303.5
101304.08
101304.21
101304.2
101304.17
101304.14
101304.92
101304.95
101304.97
101304.99
101304.83
101305.84
101306.17
101306.17
101306.17
101306.15
101307.02
101307.04
101307.04
101307.04
101306.73
101307.55
101307.85
101307.85
101307.84
101307.83
101308.65
101308.66
101308.67
101308.67
101308.36
101309.19
101309.52
101309.52
101309.52
101309.5
101310.31
101310.33
101310.33
101310.33
101310.01
101310.82
101311.12
101311.12
101311.11
101311.1
101311.93
101311.94
101311.95
101311.95
101311.66
101312.53
101312.83
101312.83
101312.83
101312.81
101313.69
101313.7
101313.71
101313.71
101313.42
101314.35
101314.62
101314.62
101314.61
101314.6
101315.58
101315.59
101315.6
101315.6
101315.34
101316.41
101316.66
101316.65
101316.65
101316.63
101317.79
101317.8
101317.81
101317.81
101317.59
101318.88
101319.09
101319.09
101319.08
101319.07
101320.49
101320.51
101320.52
101320.52
101320.34
101321.99
101322.14
101322.14
101322.13
101322.11
101323.96
101323.98
101323.99
101324
101323.88
101326.09
101326.16
101326.15
101326.14
101326.12
101328.62
101328.64
101328.65
101328.66
101328.67
101331.82
101331.7
101331.68
101331.67
101331.65
101335.1
101335.13
101335.14
101335.16
101335.46
101340.28
101339.8
101339.77
101339.75
101339.73
101344.47
101344.5
101344.51
101344.55
101345.27
101353.53
101352.68
101352.63
101352.62
101352.58
101357.12
101357.17
101357.19
101357.27
101358.21
101374.88
101370.86
101370.5
101370.25
101370.02
101358.76
101359.69
101360.4
101361.03
101365.87
101378.18
101272.46
101259.66
101247.83
101234.07
101391.5
101392.48
101393.6
101394.47
101398.45
101394.9
101391.51
101391.22
101391.05
101390.93
101371.14
101371.11
101371.1
101371.1
101371
101362.31
101362
101361.99
101362
101362.01
101351.04
101351.03
101351.02
101351.02
101351.34
101344.67
101344.48
101344.47
101344.47
101344.46
101338.63
101338.63
101338.64
101338.64
101338.72
101334.31
101334.36
101334.36
101334.35
101334.34
101330.72
101330.73
101330.73
101330.74
101330.61
101327.63
101327.81
101327.8
101327.8
101327.79
101325.31
101325.32
101325.32
101325.32
101325.11
101322.99
101323.22
101323.22
101323.22
101323.21
101321.4
101321.41
101321.41
101321.41
101321.17
101319.57
101319.84
101319.84
101319.83
101319.82
101318.42
101318.44
101318.44
101318.44
101318.17
101316.9
101317.18
101317.19
101317.18
101317.17
101316.04
101316.05
101316.05
101316.05
101315.76
101314.7
101315
101315
101315
101314.99
101314.01
101314.02
101314.03
101314.03
101313.72
101312.79
101313.1
101313.1
101313.1
101313.09
101312.21
101312.22
101312.23
101312.23
101311.91
101311.07
101311.41
101311.41
101311.41
101311.4
101310.59
101310.6
101310.6
101310.59
101310.24
101309.38
101309.72
101309.72
101309.72
101309.71
101308.81
101308.83
101308.83
101308.83
101308.52
101307.68
101307.98
101307.98
101307.97
101307.96
101307.13
101307.14
101307.15
101307.15
101306.83
101305.92
101306.24
101306.25
101306.24
101306.23
101304.98
101305.01
101305.03
101305.05
101304.89
101304.15
101304.29
101304.27
101304.25
101304.22
101304.03
101304.03
101304.03
101304.02
101303.59
101302.56
101303.06
101303.08
101303.09
101303.1
101301.63
101301.64
101301.65
101301.64
101301.29
101301.53
101301.55
101301.55
101301.55
101301.28
101302.54
101302.9
101302.91
101302.91
101302.9
101303.7
101303.71
101303.72
101303.72
101303.45
101304.15
101304.35
101304.35
101304.33
101304.31
101304.96
101304.99
101305.01
101305.02
101304.87
101305.91
101306.19
101306.19
101306.18
101306.17
101307.08
101307.1
101307.1
101307.1
101306.83
101307.67
101307.94
101307.94
101307.93
101307.92
101308.77
101308.78
101308.79
101308.79
101308.52
101309.38
101309.66
101309.66
101309.66
101309.65
101310.49
101310.51
101310.51
101310.51
101310.23
101311.06
101311.33
101311.33
101311.33
101311.32
101312.13
101312.14
101312.15
101312.15
101311.89
101312.77
101313.02
101313.02
101313.02
101313
101313.93
101313.94
101313.95
101313.95
101313.69
101314.68
101314.92
101314.92
101314.92
101314.91
101315.96
101315.97
101315.98
101315.98
101315.73
101316.88
101317.12
101317.12
101317.11
101317.1
101318.35
101318.37
101318.37
101318.37
101318.15
101319.56
101319.77
101319.77
101319.77
101319.75
101321.34
101321.35
101321.35
101321.35
101321.15
101322.98
101323.17
101323.17
101323.16
101323.15
101325.26
101325.27
101325.28
101325.28
101325.11
101327.64
101327.78
101327.77
101327.77
101327.76
101330.71
101330.72
101330.73
101330.73
101330.65
101334.4
101334.4
101334.4
101334.39
101334.38
101338.75
101338.76
101338.76
101338.77
101338.9
101345.03
101344.78
101344.77
101344.77
101344.75
101351.79
101351.79
101351.78
101351.78
101352.15
101364.11
101364.03
101364.05
101364.08
101364.11
101377.57
101377.39
101377.22
101377.06
101376.14
101407.68
101410.81
101411.22
101411.62
101412.12
101439.84
101438.84
101437.93
101436.98
101430.63
101356.23
101352.81
101353.9
101355.6
101357.85
101395.89
101396.55
101397.17
101397.78
101397.31
101364.62
101363.35
101363.33
101363.36
101363.35
101359.46
101359.49
101359.54
101359.59
101359.77
101349.24
101348.82
101348.8
101348.8
101348.78
101343.11
101343.13
101343.14
101343.16
101343.36
101337.77
101337.67
101337.65
101337.64
101337.62
101333.63
101333.65
101333.66
101333.67
101333.64
101330.12
101330.22
101330.21
101330.2
101330.18
101327.38
101327.4
101327.41
101327.41
101327.27
101324.85
101325.02
101325.02
101325.01
101324.99
101322.96
101322.97
101322.98
101322.98
101322.79
101321.01
101321.21
101321.21
101321.21
101321.19
101319.66
101319.67
101319.68
101319.68
101319.46
101318.07
101318.3
101318.3
101318.3
101318.28
101317.05
101317.06
101317.07
101317.07
101316.83
101315.7
101315.94
101315.95
101315.94
101315.93
101314.89
101314.9
101314.91
101314.91
101314.65
101313.68
101313.94
101313.94
101313.94
101313.92
101313.01
101313.02
101313.03
101313.02
101312.76
101311.89
101312.15
101312.15
101312.15
101312.14
101311.3
101311.31
101311.32
101311.31
101311.04
101310.22
101310.49
101310.49
101310.49
101310.48
101309.65
101309.66
101309.67
101309.67
101309.39
101308.56
101308.84
101308.84
101308.84
101308.82
101307.99
101308.01
101308.01
101308.01
101307.73
101306.89
101307.17
101307.17
101307.16
101307.15
101306.28
101306.29
101306.3
101306.3
101306.02
101305.1
101305.36
101305.36
101305.35
101305.34
101304.45
101304.47
101304.47
101304.48
101304.21
101303.36
101303.64
101303.64
101303.63
101303.61
101302.61
101302.63
101302.63
101302.63
101302.35
101301.23
101301.49
101301.49
101301.48
101301.46
101301.54
101301.55
101301.56
101301.56
101301.28
101302.55
101302.91
101302.92
101302.93
101302.92
101303.7
101303.72
101303.73
101303.73
101303.45
101304.13
101304.33
101304.32
101304.31
101304.28
101304.92
101304.95
101304.97
101304.98
101304.84
101305.87
101306.14
101306.14
101306.13
101306.11
101307.02
101307.04
101307.05
101307.05
101306.79
101307.63
101307.89
101307.89
101307.88
101307.86
101308.71
101308.73
101308.73
101308.73
101308.48
101309.34
101309.62
101309.62
101309.61
101309.6
101310.46
101310.47
101310.47
101310.47
101310.19
101311.03
101311.3
101311.3
101311.29
101311.28
101312.09
101312.11
101312.12
101312.11
101311.86
101312.74
101312.99
101312.99
101312.99
101312.97
101313.89
101313.91
101313.91
101313.91
101313.66
101314.64
101314.88
101314.88
101314.88
101314.87
101315.91
101315.92
101315.93
101315.92
101315.69
101316.82
101317.05
101317.05
101317.05
101317.03
101318.28
101318.3
101318.3
101318.3
101318.08
101319.48
101319.69
101319.69
101319.68
101319.67
101321.24
101321.25
101321.26
101321.26
101321.06
101322.88
101323.06
101323.06
101323.05
101323.04
101325.13
101325.14
101325.15
101325.15
101324.99
101327.5
101327.63
101327.63
101327.62
101327.61
101330.54
101330.55
101330.56
101330.56
101330.49
101334.2
101334.21
101334.2
101334.19
101334.18
101338.53
101338.54
101338.54
101338.55
101338.68
101344.79
101344.55
101344.54
101344.54
101344.53
101351.55
101351.54
101351.53
101351.53
101351.88
101363.91
101363.85
101363.87
101363.91
101363.95
101377.26
101377.07
101376.91
101376.75
101375.82
101408.82
101411.61
101412.01
101412.4
101412.91
101440.49
101439.62
101438.8
101437.86
101430.38
101393.38
101400.78
101401.88
101403.01
101404.34
101397.33
101397.42
101397.69
101398
101399.57
101369.98
101370.34
101370.4
101370.46
101370.53
101361.33
101361.31
101361.3
101361.29
101361.39
101350.28
101350.01
101350.01
101350.02
101350.02
101343.62
101343.62
101343.63
101343.63
101343.78
101337.97
101337.92
101337.91
101337.91
101337.9
101333.74
101333.75
101333.76
101333.76
101333.69
101330.1
101330.24
101330.23
101330.23
101330.22
101327.37
101327.38
101327.38
101327.39
101327.2
101324.75
101324.97
101324.97
101324.96
101324.95
101322.9
101322.91
101322.92
101322.92
101322.68
101320.9
101321.15
101321.15
101321.15
101321.14
101319.59
101319.6
101319.61
101319.61
101319.35
101317.97
101318.24
101318.24
101318.24
101318.23
101317
101317.01
101317.01
101317.01
101316.73
101315.61
101315.9
101315.9
101315.89
101315.88
101314.85
101314.86
101314.87
101314.87
101314.57
101313.6
101313.91
101313.91
101313.9
101313.89
101312.98
101312.99
101313
101313
101312.69
101311.81
101312.13
101312.13
101312.12
101312.11
101311.31
101311.32
101311.32
101311.32
101310.99
101310.16
101310.51
101310.52
101310.52
101310.51
101309.64
101309.65
101309.65
101309.65
101309.31
101308.45
101308.77
101308.77
101308.76
101308.75
101307.9
101307.91
101307.92
101307.92
101307.61
101306.77
101307.09
101307.09
101307.08
101307.07
101306.16
101306.18
101306.18
101306.18
101305.86
101304.82
101304.97
101304.96
101304.94
101304.9
101304.16
101304.19
101304.21
101304.23
101304.09
101303.56
101303.99
101304
101304.01
101304
101303.05
101303.05
101303.04
101303.02
101302.53
101301.25
101301.59
101301.59
101301.59
101301.58
101301.18
101301.43
101301.43
101301.42
101301.4
101302.66
101302.67
101302.67
101302.67
101302.36
101303.46
101303.79
101303.8
101303.8
101303.79
101304.11
101304.14
101304.16
101304.17
101304.02
101304.89
101305.13
101305.13
101305.12
101305.1
101306.15
101306.17
101306.18
101306.17
101305.89
101306.77
101307.04
101307.04
101307.04
101307.02
101307.85
101307.87
101307.87
101307.87
101307.61
101308.43
101308.69
101308.7
101308.69
101308.68
101309.51
101309.53
101309.53
101309.53
101309.27
101310.1
101310.37
101310.37
101310.37
101310.35
101311.15
101311.16
101311.17
101311.17
101310.92
101311.75
101312
101312
101311.99
101311.98
101312.85
101312.87
101312.87
101312.87
101312.63
101313.54
101313.78
101313.78
101313.77
101313.76
101314.71
101314.73
101314.73
101314.73
101314.5
101315.52
101315.75
101315.75
101315.74
101315.73
101316.83
101316.84
101316.85
101316.85
101316.64
101317.86
101318.06
101318.06
101318.05
101318.04
101319.38
101319.4
101319.4
101319.4
101319.22
101320.75
101320.91
101320.91
101320.91
101320.89
101322.62
101322.63
101322.64
101322.64
101322.49
101324.52
101324.63
101324.63
101324.62
101324.61
101326.96
101326.97
101326.98
101326.98
101326.9
101329.72
101329.73
101329.73
101329.72
101329.71
101333.1
101333.11
101333.12
101333.12
101333.2
101337.3
101337.08
101337.07
101337.06
101337.05
101342.47
101342.48
101342.48
101342.5
101342.86
101348.85
101348.22
101348.21
101348.22
101348.23
101358.88
101358.88
101358.89
101358.91
101359.43
101365.19
101363.67
101363.69
101363.74
101363.76
101395.5
101396.1
101396.68
101397.2
101397.51
101364.86
101363.62
101365.09
101367.26
101369.97
101359.66
101359.99
101360.35
101361.06
101372.79
101395.55
101394.55
101394.08
101393.67
101393.07
101365.99
101365.95
101365.9
101365.91
101367.35
101361.29
101360.84
101360.81
101360.77
101360.76
101349.92
101349.92
101349.92
101349.92
101350.46
101344.19
101343.91
101343.9
101343.89
101343.88
101338.19
101338.2
101338.21
101338.22
101338.37
101334.08
101334.07
101334.06
101334.05
101334.04
101330.49
101330.5
101330.51
101330.51
101330.44
101327.51
101327.63
101327.63
101327.62
101327.61
101325.16
101325.17
101325.18
101325.18
101325.02
101322.93
101323.11
101323.11
101323.1
101323.09
101321.3
101321.31
101321.32
101321.32
101321.12
101319.53
101319.74
101319.75
101319.74
101319.73
101318.34
101318.35
101318.36
101318.36
101318.13
101316.88
101317.11
101317.11
101317.11
101317.1
101315.96
101315.98
101315.98
101315.98
101315.73
101314.68
101314.93
101314.94
101314.93
101314.92
101313.94
101313.96
101313.96
101313.96
101313.7
101312.78
101313.04
101313.04
101313.04
101313.02
101312.14
101312.16
101312.16
101312.16
101311.9
101311.06
101311.33
101311.33
101311.32
101311.31
101310.5
101310.51
101310.52
101310.52
101310.23
101309.39
101309.67
101309.67
101309.67
101309.65
101308.81
101308.82
101308.83
101308.83
101308.55
101307.71
101307.99
101307.99
101307.99
101307.97
101307.13
101307.15
101307.15
101307.15
101306.87
101305.98
101306.27
101306.27
101306.27
101306.25
101305.21
101305.23
101305.24
101305.24
101304.99
101304.12
101304.28
101304.26
101304.24
101304.21
101303.83
101303.84
101303.84
101303.83
101303.49
101302.39
101302.69
101302.7
101302.69
101302.68
101301.45
101301.47
101301.48
101301.48
101301.23
101313.77
101312.46
101313.75
101312.41
101311.01
101311.93
101312.26
101311.84
101311.25
101311.95
101311.06
101309.23
101311.24
101309.7
101308.51
101309.8
101311.21
101310.95
101308.75
101308.53
101309.43
101311.19
101310.29
101310.08
101311.14
101310.75
101309.11
101307.88
101308.22
101306.83
101307.39
101305.88
101307.74
101306.69
101304.82
101303.84
101306.09
101305.99
101307.91
101309.01
101309.1
101308.09
101307.99
101310.09
101311.25
101311.78
101313.97
101313.65
101313.71
101312
101312.14
101313.99
101315.93
101312.6
101315.08
101313.78
101313.74
101312.76
101314.08
101314.73
101313.19
101312.79
101386.35
101390.26
101390.78
101391.26
101391.81
101388.65
101388.28
101387.96
101387.65
101384.96
101361.49
101362.16
101362.26
101362.38
101362.53
101354.82
101354.82
101354.81
101354.82
101355.02
101345.86
101345.37
101345.35
101345.35
101345.33
101340.28
101340.3
101340.31
101340.34
101340.68
101335.74
101335.54
101335.52
101335.5
101335.48
101331.98
101332
101332.01
101332.03
101332.08
101328.92
101328.95
101328.94
101328.92
101328.91
101326.39
101326.4
101326.41
101326.42
101326.33
101324.11
101324.24
101324.23
101324.22
101324.2
101322.33
101322.35
101322.36
101322.36
101322.2
101320.55
101320.72
101320.72
101320.71
101320.7
101319.25
101319.27
101319.27
101319.27
101319.08
101317.77
101317.98
101317.98
101317.97
101317.96
101316.78
101316.8
101316.8
101316.81
101316.59
101315.5
101315.73
101315.73
101315.73
101315.71
101314.71
101314.73
101314.73
101314.73
101314.5
101313.55
101313.8
101313.8
101313.8
101313.78
101312.89
101312.91
101312.91
101312.91
101312.66
101311.81
101312.06
101312.06
101312.06
101312.04
101311.22
101311.23
101311.24
101311.24
101310.98
101310.16
101310.43
101310.43
101310.43
101310.41
101309.61
101309.63
101309.63
101309.63
101309.36
101308.55
101308.83
101308.83
101308.83
101308.81
101308
101308.02
101308.02
101308.02
101307.74
101306.91
101307.19
101307.19
101307.19
101307.17
101306.32
101306.33
101306.34
101306.34
101306.06
101305.17
101305.45
101305.45
101305.44
101305.43
101304.51
101304.52
101304.53
101304.53
101304.26
101303.32
101303.58
101303.58
101303.57
101303.56
101302.53
101302.54
101302.55
101302.55
101302.3
101301.21
101301.44
101301.44
101301.43
101301.41
101302.77
101302.78
101302.77
101302.76
101302.4
101303.37
101303.64
101303.64
101303.64
101303.62
101304.32
101304.34
101304.35
101304.36
101304.14
101304.88
101305.04
101305.03
101305.01
101304.98
101306.11
101306.13
101306.13
101306.13
101305.86
101306.74
101307.01
101307.01
101307
101306.98
101307.77
101307.79
101307.8
101307.8
101307.55
101308.34
101308.6
101308.59
101308.59
101308.57
101309.38
101309.4
101309.41
101309.41
101309.15
101309.93
101310.18
101310.18
101310.18
101310.17
101310.98
101310.99
101311
101310.99
101310.75
101311.61
101311.85
101311.85
101311.85
101311.83
101312.7
101312.72
101312.72
101312.72
101312.48
101313.33
101313.56
101313.56
101313.55
101313.54
101314.45
101314.46
101314.47
101314.47
101314.24
101315.23
101315.45
101315.44
101315.44
101315.42
101316.47
101316.48
101316.49
101316.49
101316.28
101317.43
101317.63
101317.62
101317.62
101317.6
101318.85
101318.87
101318.87
101318.88
101318.7
101320.11
101320.27
101320.26
101320.26
101320.24
101321.81
101321.83
101321.84
101321.84
101321.7
101323.53
101323.64
101323.63
101323.62
101323.61
101325.68
101325.7
101325.71
101325.72
101325.65
101328.11
101328.12
101328.11
101328.1
101328.08
101330.96
101330.98
101331
101331.01
101331.09
101334.52
101334.29
101334.27
101334.26
101334.24
101338.61
101338.63
101338.64
101338.67
101339.04
101343.71
101343.16
101343.13
101343.12
101343.1
101351.12
101351.14
101351.14
101351.16
101351.57
101356.79
101356.94
101356.98
101357.06
101357.13
101376.74
101376.48
101376.27
101376.1
101374.86
101375.17
101375.69
101375.89
101376.1
101376.3
101345.27
101349.25
101353.04
101357.57
101393.2
101677.03
101773.06
101781.95
101787.85
101792.96
101333.58
101331.39
101329.72
101328.73
101334.52
101384.42
101384.99
101384.4
101383.79
101383.12
101352.27
101352.28
101352.25
101352.26
101353.54
101351.76
101351.56
101351.51
101351.47
101351.43
101342.43
101342.44
101342.45
101342.48
101342.97
101338.61
101338.36
101338.33
101338.31
101338.28
101333.85
101333.87
101333.88
101333.91
101334.06
101330.75
101330.73
101330.72
101330.7
101330.68
101327.84
101327.86
101327.87
101327.89
101327.83
101325.44
101325.56
101325.55
101325.54
101325.52
101323.48
101323.5
101323.51
101323.52
101323.37
101321.6
101321.77
101321.76
101321.75
101321.74
101320.2
101320.22
101320.22
101320.23
101320.04
101318.66
101318.86
101318.86
101318.85
101318.83
101317.61
101317.62
101317.63
101317.63
101317.41
101316.28
101316.51
101316.51
101316.5
101316.49
101315.46
101315.47
101315.48
101315.48
101315.25
101314.28
101314.52
101314.52
101314.52
101314.5
101313.6
101313.62
101313.62
101313.62
101313.37
101312.5
101312.76
101312.76
101312.76
101312.74
101311.91
101311.93
101311.93
101311.93
101311.67
101310.85
101311.12
101311.13
101311.12
101311.1
101310.31
101310.32
101310.33
101310.33
101310.05
101309.26
101309.53
101309.53
101309.53
101309.51
101308.72
101308.73
101308.74
101308.74
101308.46
101307.65
101307.93
101307.93
101307.92
101307.91
101307.09
101307.11
101307.11
101307.11
101306.83
101305.99
101306.27
101306.27
101306.26
101306.25
101305.37
101305.39
101305.4
101305.4
101305.12
101304.22
101304.49
101304.49
101304.49
101304.47
101303.52
101303.54
101303.54
101303.54
101303.28
101302.26
101302.52
101302.52
101302.51
101302.5
101301.39
101301.41
101301.41
101301.42
101301.17
101302.45
101302.47
101302.48
101302.48
101302.24
101303.25
101303.51
101303.51
101303.5
101303.48
101304.39
101304.41
101304.42
101304.42
101304.16
101305.04
101305.31
101305.31
101305.31
101305.29
101306.21
101306.23
101306.23
101306.23
101305.95
101306.79
101307.06
101307.06
101307.05
101307.04
101307.84
101307.86
101307.86
101307.86
101307.59
101308.38
101308.65
101308.65
101308.65
101308.64
101309.36
101309.38
101309.39
101309.39
101309.14
101309.76
101309.88
101309.86
101309.84
101309.81
101310.78
101310.8
101310.81
101310.82
101310.6
101311.55
101311.82
101311.82
101311.81
101311.8
101312.85
101312.85
101312.85
101312.84
101312.52
101313.31
101313.54
101313.54
101313.53
101313.52
101314.38
101314.4
101314.4
101314.41
101314.19
101315.15
101315.36
101315.36
101315.36
101315.34
101316.36
101316.38
101316.38
101316.39
101316.19
101317.31
101317.5
101317.5
101317.49
101317.47
101318.69
101318.71
101318.72
101318.72
101318.55
101319.93
101320.08
101320.07
101320.07
101320.05
101321.58
101321.6
101321.61
101321.62
101321.48
101323.25
101323.35
101323.34
101323.33
101323.31
101325.32
101325.34
101325.35
101325.37
101325.3
101327.67
101327.67
101327.65
101327.64
101327.62
101330.4
101330.42
101330.44
101330.46
101330.54
101333.81
101333.58
101333.56
101333.54
101333.52
101337.69
101337.71
101337.73
101337.76
101338.13
101342.54
101342.01
101341.98
101341.97
101341.95
101349.59
101349.6
101349.6
101349.63
101350.03
101354.83
101355.02
101355.06
101355.14
101355.22
101374.4
101374.12
101373.9
101373.71
101372.42
101373.07
101373.9
101373.99
101374.02
101373.99
101345.72
101349.36
101352.95
101357.12
101392.2
101378.99
101286.26
101274.99
101264.3
101251.53
101530.66
101530.73
101531.57
101531.29
101504.23
101581.89
101647.38
101652.92
101656.82
101660.79
101399.34
101398.85
101398.33
101397.69
101391.49
101389.07
101391.1
101391.39
101391.7
101392.09
101364.95
101364.81
101364.68
101364.57
101363.81
101356.79
101356.61
101356.61
101356.63
101356.64
101346.73
101346.74
101346.73
101346.74
101347.17
101341.65
101341.36
101341.35
101341.34
101341.32
101336.27
101336.29
101336.3
101336.31
101336.48
101332.65
101332.62
101332.61
101332.6
101332.58
101329.37
101329.39
101329.4
101329.41
101329.36
101326.68
101326.78
101326.78
101326.77
101326.75
101324.5
101324.51
101324.52
101324.53
101324.39
101322.43
101322.6
101322.59
101322.59
101322.57
101320.89
101320.9
101320.91
101320.91
101320.72
101319.23
101319.43
101319.43
101319.42
101319.41
101318.09
101318.1
101318.11
101318.11
101317.89
101316.69
101316.91
101316.91
101316.91
101316.89
101315.8
101315.82
101315.82
101315.82
101315.59
101314.56
101314.81
101314.81
101314.8
101314.79
101313.84
101313.85
101313.86
101313.86
101313.61
101312.7
101312.96
101312.96
101312.95
101312.94
101312.08
101312.09
101312.1
101312.1
101311.84
101311
101311.26
101311.27
101311.26
101311.25
101310.43
101310.44
101310.45
101310.45
101310.18
101309.37
101309.64
101309.64
101309.63
101309.62
101308.8
101308.82
101308.82
101308.82
101308.55
101307.73
101308
101308
101308
101307.98
101307.16
101307.17
101307.18
101307.18
101306.9
101306.05
101306.32
101306.32
101306.31
101306.3
101305.41
101305.42
101305.43
101305.43
101305.16
101304.27
101304.53
101304.53
101304.52
101304.51
101303.58
101303.59
101303.6
101303.6
101303.34
101302.33
101302.59
101302.59
101302.58
101302.57
101301.45
101301.47
101301.48
101301.48
101301.24
101301.24
101301.54
101301.54
101301.54
101301.52
101302.64
101302.66
101302.66
101302.66
101302.35
101303.36
101303.69
101303.69
101303.69
101303.67
101304.56
101304.57
101304.58
101304.58
101304.26
101305.15
101305.47
101305.48
101305.47
101305.46
101306.37
101306.38
101306.39
101306.38
101306.05
101306.91
101307.25
101307.25
101307.25
101307.24
101308.08
101308.09
101308.09
101308.09
101307.75
101308.58
101308.92
101308.92
101308.91
101308.9
101309.72
101309.73
101309.73
101309.73
101309.4
101310.22
101310.55
101310.55
101310.55
101310.53
101311.35
101311.36
101311.36
101311.36
101311.04
101311.88
101312.2
101312.2
101312.19
101312.18
101313.04
101313.06
101313.06
101313.06
101312.75
101313.66
101313.96
101313.96
101313.96
101313.95
101314.9
101314.91
101314.92
101314.92
101314.63
101315.66
101315.94
101315.94
101315.94
101315.93
101317.03
101317.04
101317.05
101317.05
101316.78
101318.01
101318.26
101318.26
101318.26
101318.24
101319.59
101319.6
101319.61
101319.61
101319.37
101320.9
101321.12
101321.12
101321.11
101321.1
101322.82
101322.83
101322.84
101322.84
101322.65
101324.66
101324.82
101324.82
101324.81
101324.79
101327.11
101327.13
101327.13
101327.14
101327.03
101329.8
101329.84
101329.83
101329.82
101329.81
101333.11
101333.13
101333.14
101333.16
101333.22
101337.2
101336.96
101336.94
101336.93
101336.91
101342.1
101342.12
101342.14
101342.16
101342.56
101348.21
101347.57
101347.55
101347.54
101347.52
101357.51
101357.53
101357.55
101357.58
101358.13
101363.81
101363.16
101363.15
101363.19
101363.22
101387.02
101387.3
101387.62
101388
101390.55
101370.74
101370.88
101371.34
101371.88
101372.44
101378.19
101283.26
101271.83
101261.33
101248.97
101361.08
101362.07
101363.12
101363.96
101367.9
101375.23
101372.6
101372.36
101372.23
101372.12
101357.19
101357.18
101357.2
101357.23
101357.25
101352.92
101352.56
101352.54
101352.53
101352.52
101344.12
101344.12
101344.12
101344.14
101344.52
101339.74
101339.5
101339.48
101339.47
101339.45
101334.88
101334.89
101334.9
101334.92
101335.04
101331.53
101331.55
101331.54
101331.53
101331.52
101328.55
101328.56
101328.57
101328.58
101328.48
101325.98
101326.14
101326.13
101326.12
101326.11
101323.99
101324
101324.01
101324.01
101323.82
101321.97
101322.19
101322.19
101322.18
101322.17
101320.57
101320.58
101320.59
101320.59
101320.35
101318.92
101319.17
101319.17
101319.17
101319.16
101317.89
101317.9
101317.91
101317.91
101317.64
101316.48
101316.75
101316.75
101316.75
101316.74
101315.68
101315.69
101315.7
101315.7
101315.41
101314.42
101314.72
101314.72
101314.71
101314.7
101313.78
101313.79
101313.8
101313.79
101313.49
101312.61
101312.92
101312.92
101312.92
101312.9
101312.06
101312.07
101312.08
101312.08
101311.76
101310.94
101311.26
101311.26
101311.26
101311.24
101310.44
101310.45
101310.46
101310.46
101310.13
101309.33
101309.66
101309.66
101309.65
101309.64
101308.84
101308.85
101308.86
101308.86
101308.53
101307.72
101308.05
101308.05
101308.05
101308.03
101307.21
101307.22
101307.23
101307.23
101306.89
101306.04
101306.38
101306.38
101306.38
101306.36
101305.49
101305.5
101305.51
101305.5
101305.17
101304.27
101304.6
101304.6
101304.59
101304.58
101303.63
101303.65
101303.65
101303.65
101303.32
101302.31
101302.63
101302.63
101302.63
101302.61
101301.5
101301.52
101301.52
101301.52
101301.22
101301.4
101301.42
101301.43