/*--------------------------------*- C++ -*----------------------------------*\
  =========                 |
  \\      /  F ield         | OpenFOAM: The Open Source CFD Toolbox
   \\    /   O peration     | Website:  https://openfoam.org
    \\  /    A nd           | Version:  7
     \\/     M anipulation  |
\*---------------------------------------------------------------------------*/
FoamFile
{
    version     2.0;
    format      ascii;
    class       volScalarField;
    location    "500";
    object      nut;
}
// * * * * * * * * * * * * * * * * * * * * * * * * * * * * * * * * * * * * * //

dimensions      [0 2 -1 0 0 0 0];

internalField   nonuniform List<scalar> 
25278
(
6.7430771
6.6316949
6.6731345
6.6731214
6.5435433
6.6316879
6.7172921
6.74306
6.7173284
6.6134056
6.6790706
6.715895
6.6786892
6.6408649
5.9008664
6.6730333
6.6316182
6.0215916
5.6087972
6.086147
6.4019819
6.4985502
6.5848099
6.6305966
6.4753141
6.6305867
6.5848183
6.4070014
6.3251702
6.3632539
6.2410874
6.2048022
5.8525163
6.0873843
6.1135077
6.0574284
6.0867066
5.9938049
5.9672054
5.7169266
5.8647953
5.8925248
5.7577506
5.7897807
6.0335657
6.2975718
6.5525434
6.4598921
6.1961183
6.1326531
6.0552353
6.0076326
5.4199409
5.6100811
5.8784478
5.9095
5.8248719
5.7935206
5.4398794
5.5774418
5.6185892
5.4915836
5.3886581
5.7654677
5.7281485
5.6897912
5.7281123
5.3301898
5.2673223
5.3313429
4.8437074
5.0271275
5.234696
5.4415572
5.6496521
5.8050488
6.113791
6.3633845
6.4986904
6.4341186
6.3842513
5.9045182
6.0239002
5.6226994
6.3142933
6.2597669
5.4310447
4.6332525
5.1244829
5.6086448
5.6321537
5.1265636
5.1142031
4.2024787
4.2704512
5.1365575
5.2368076
5.7054245
5.7078051
5.2271727
5.2277236
4.3553488
4.4393749
5.2351385
4.7259847
4.7453495
4.6408708
3.3007827
3.2457027
2.4628721
4.1965643
4.1640563
2.4307482
2.4122099
3.3717095
3.4479206
2.3940719
4.2212946
4.2768718
4.2725369
5.6208745
6.3141604
6.543465
5.1004
4.1830544
3.2323059
2.4555425
4.192142
5.4286494
6.2595585
6.3840603
6.4340101
6.0226096
5.902051
5.1163379
4.6256398
4.6330625
4.1588281
2.4218939
3.2853726
3.3550436
2.4013704
2.3808913
4.2152844
4.7180361
4.7376536
5.2300768
5.1282579
4.2507561
5.1126066
5.8957278
5.6029384
5.6271224
5.7014694
6.0183845
5.7045001
5.2290308
4.4216673
3.4294408
1.9944645
0.85242894
0.85791412
2.0132565
3.4000637
4.6949347
4.7158393
4.2230153
4.1625257
2.2847793
2.3158738
3.327564
1.972239
0.8814493
0.80427475
0.28328804
0.3111016
0.93469414
0.92967076
0.32146201
0.29359045
0.80008159
0.87459917
1.9560379
3.2874486
4.3357345
5.2158919
5.2160012
4.6667896
3.3570858
2.2030573
2.242564
4.1642058
5.5926958
4.6871665
4.100217
4.2442628
2.1792669
0.73084124
0.26979764
0.25959097
0.73221136
2.2706764
4.3040125
4.8085913
5.332596
5.7757306
6.0879099
6.3254967
6.2061247
6.2416055
6.0585888
5.8558387
5.8667839
5.8939513
6.0873254
5.9952146
5.9693605
5.7210418
5.7607426
5.7918067
5.9360097
6.1785071
6.4113117
6.5525567
6.440297
6.2081291
6.1661332
6.3260872
6.2977455
6.1222741
6.1392422
5.9566585
5.8226025
6.0494065
6.0344311
5.9532998
6.1966574
6.4599429
6.4025262
6.089146
6.1339613
5.8821056
5.6198611
5.5851384
5.6244577
5.9118004
5.828666
5.798892
5.4519256
5.5009697
5.4011667
5.7703231
6.057127
6.0117006
5.4357976
5.7349546
5.3473233
5.2839629
5.6965607
5.7328476
5.3428793
5.3904126
5.4446722
5.5386472
5.6572811
5.6928012
5.9703309
5.8922757
5.8756106
5.8201678
6.1277271
6.1582671
6.2275735
6.0051395
6.0829832
6.097956
6.1841397
6.0091306
5.9911842
5.8533323
5.8796976
5.7554811
6.0215186
5.9471349
5.931918
5.6165446
5.7259553
5.5519015
5.6288896
5.7120729
5.7874375
5.9215881
6.2081121
6.440276
6.4112319
6.1783232
6.1218784
6.139109
6.0488545
5.8214181
5.9561949
5.9350373
5.7226023
5.8725425
5.7511369
5.6765226
5.6544373
5.6355997
5.4833767
5.6823435
5.393821
5.3671762
5.0810913
5.1422557
4.7460843
5.1110352
5.3959651
5.6844745
5.6522082
5.339433
5.3700035
5.0913875
5.4484043
5.4888325
5.1505094
4.7547353
4.690576
5.0691009
4.5522051
4.6801062
4.1965784
4.2906591
4.5966117
4.7913438
4.9927181
5.1655278
5.3402358
5.4925558
5.5104082
5.4044799
5.5643591
5.546133
5.3773777
5.2051657
5.229093
5.3613629
5.4472876
5.4695686
5.3842232
5.5351053
5.5490165
5.6897123
5.6034179
5.5903407
5.4277365
5.4470885
5.2760802
5.4024857
5.2319875
5.2152649
5.1864087
5.0398519
5.0061017
4.8059335
4.8363699
5.0174801
5.1579421
5.4489316
5.7237307
5.7517201
5.4706088
5.3873409
5.5375868
5.6781959
5.65666
5.638418
5.4963558
5.5132731
5.4095483
5.5680603
5.5506587
5.3835336
5.2131757
5.3446204
5.3650074
5.1910898
5.1706374
5.0162607
5.0483945
5.2358262
5.2593591
5.4317877
5.5933155
5.6055648
5.6909191
5.5508756
5.4503974
5.2805693
5.4048923
5.2350568
5.2189464
5.0743647
5.0975327
5.1209497
5.2637263
5.5218079
5.5390409
5.8109484
5.7415396
5.7229005
5.5851699
5.5744324
5.4704099
5.4867763
5.6389861
5.6606606
5.6703547
5.7522886
5.6168656
5.6058891
5.5051159
5.5207413
5.3571277
5.475684
5.4608176
5.4426546
5.4280839
5.3015661
5.3202935
5.1411068
5.2756757
5.2992013
5.3115544
5.181001
5.1618194
5.3390912
5.225688
5.4099716
5.5854894
5.563872
5.3907173
5.3723274
5.3514405
5.5284628
5.5141056
5.4880332
5.468017
5.2920794
5.2487957
4.8381907
4.805241
4.862462
4.5676127
5.104313
5.0509315
4.4873777
3.8276051
4.2868741
3.5547407
3.6788334
3.7671085
4.3511797
3.9043232
3.1470226
3.0377324
2.3161419
3.3315982
4.1939165
4.8771971
4.3611697
4.7695466
4.8366378
4.9398202
4.2786355
4.0696517
3.9735814
2.9334842
2.3965891
1.6050557
1.6015463
2.3663235
3.4010597
2.9735703
3.4580137
3.6366654
3.8470437
4.0573685
4.2649848
4.4551066
4.6431553
4.8169449
4.9977209
5.0219586
4.8182927
4.7947919
4.5887973
4.6287582
4.846037
4.8752153
5.0513482
5.1963225
5.0476748
5.067739
4.8939169
5.0914531
5.0669545
5.2533953
5.1285527
5.3242776
5.5098587
5.6902568
5.9693075
5.9515083
5.8732052
5.8907003
5.5746259
5.5317843
5.6530398
5.461532
5.2801812
5.0836667
4.5252391
4.8409467
4.7807058
4.4408987
4.1258655
4.2135554
4.9104157
4.8060812
4.7343503
3.9010417
3.9993691
2.8397354
3.281059
3.833026
4.3200111
4.2535998
3.5018815
3.7558419
2.9562302
3.6503375
3.7376544
3.0604908
2.2099398
2.1783927
3.2182863
2.8096766
1.4614297
1.4381572
1.963818
2.6645561
3.3374474
3.8802455
4.3522485
4.7193162
5.0413667
5.381225
5.7824263
6.1269005
6.1580637
6.2274562
6.3260249
6.1660215
6.1841513
6.0978364
6.0826273
5.8527124
5.9910125
6.0090838
5.8794399
5.7548769
6.0213138
6.0045152
5.9310805
5.9467104
5.6474198
5.6137468
5.7245501
5.5493528
5.6271402
5.7110948
5.7870044
5.8108726
5.7410765
5.7222345
5.6378179
5.4850214
5.5840859
5.5730212
5.4677849
5.2981733
5.4262915
5.5211532
5.5386713
5.4599418
5.6052574
5.6164826
5.752028
5.6698322
5.6596958
5.5038632
5.5199502
5.3558732
5.4750631
5.3106771
5.2977521
5.2738265
5.4411345
5.3177039
5.1376177
5.1160127
5.2611703
5.0960248
5.2439983
5.2743966
5.1365783
5.112317
4.9445276
4.9204965
4.7119386
4.9052829
4.8702048
4.8527008
4.8147929
4.6191033
4.5776043
4.3510057
4.3896693
4.6274912
4.3965689
4.3584695
4.0941253
4.1453558
4.1847358
4.4262321
4.6525007
4.8664366
4.6889868
4.9171278
4.8865883
5.1007461
5.2987487
5.4825951
5.3942955
5.371702
5.1611755
5.2721333
5.0768588
4.9420894
4.9729218
5.1947028
5.2231375
5.4253645
5.4410695
5.5250582
5.3463585
5.2477674
5.1521439
5.36889
5.3504445
5.3175373
5.2914663
5.2103278
5.2377799
4.9942792
5.0923489
5.0580325
4.952368
4.6760758
4.810602
4.8431435
4.7150005
4.3980742
4.5660531
4.7295554
4.684897
4.8532931
4.6232704
4.6541549
4.4639296
4.4221496
4.1234546
4.3661814
4.4068149
4.1789895
4.2226434
4.503647
4.7646243
5.0037864
5.0330484
5.1538217
4.9457768
4.7979952
4.646456
4.9125421
4.8788186
5.1239132
5.0297042
5.275005
5.2944429
5.0609579
4.7940822
4.7552547
4.444746
4.6067216
4.3056911
4.2582865
4.2151122
4.5204712
4.3401235
4.1707111
4.5499943
4.8603914
5.1422434
5.4354829
5.8168259
5.8370144
5.8030738
5.4336696
5.4842569
5.5283999
5.8785354
5.8961472
5.864665
5.8469483
5.4809639
5.5209231
5.5657446
5.3193075
5.372736
5.4389874
5.5067504
5.5842507
5.5620607
5.4812971
5.4686236
5.2724705
5.3684003
5.3879358
5.2940425
5.3161903
5.4078994
5.4258725
5.5960539
5.5179721
5.3356969
5.2507927
5.4522368
5.3863592
5.1724185
5.1478284
5.2287052
5.2042032
5.4127134
5.3977265
5.3272819
5.342904
5.1199408
5.0922
5.1795935
4.9446615
5.0605113
5.1780869
5.2007529
5.086409
4.8598416
4.9983516
4.9728
4.829531
4.6841152
4.7201196
4.974585
4.8666178
4.8310678
4.5357095
4.49041
4.3343166
4.6810053
4.9777146
5.2353537
5.2131573
5.1736823
5.1144371
5.0813513
4.7769472
4.8261239
4.9032688
4.9425135
4.8687304
5.1574041
5.1808476
4.9069158
4.8552172
5.1461873
5.1210442
5.0764701
5.0554521
5.0195708
4.688816
4.7409987
4.769165
4.8141441
4.7871995
5.1010945
5.1266223
4.8289553
4.4653734
4.5042107
4.5806541
4.532124
4.6369679
4.5914054
4.4825893
4.4364598
4.0039318
4.0721617
4.2286654
4.2813123
4.1290509
4.1871641
4.0691376
4.0070858
4.4520673
4.399555
4.357936
4.3089638
3.8127619
3.8832935
3.9472766
3.3890209
3.5790306
3.8058001
4.0385946
3.9858579
3.5729434
3.8716177
3.9259536
3.642834
3.6998633
4.0920465
4.1455554
4.3508063
4.5415759
4.7208557
4.4799601
4.6818305
4.459179
4.688972
4.8728064
5.0706702
4.9008429
4.6894072
4.6609645
4.8554224
4.6636473
4.432358
4.4645133
4.2210826
4.2557641
4.490783
4.7203673
4.9073347
5.0983308
5.1143951
4.9209895
4.7425722
4.9487191
4.9260911
4.7175378
4.4954398
4.5238137
4.7418511
4.9192603
4.7377629
4.7641838
4.9682459
5.1593555
5.3372045
5.2224841
5.2429947
5.1342366
5.1109159
4.8881166
5.0226759
5.0457175
5.1791461
4.9899553
5.1521332
4.9627147
4.9499417
4.7700124
4.9513631
5.1379099
5.153133
4.9635044
4.7900164
4.992131
4.9713758
4.7675561
4.5513329
4.5764337
4.7888405
4.5742495
4.7873094
4.6043965
4.8326736
4.8070277
4.7798732
4.7513208
4.5779066
4.6124029
4.344788
4.5454532
4.5134979
4.3051995
4.2644538
4.0272839
3.9765274
3.6294363
3.9258299
4.1862318
4.4439648
4.1445088
4.1063509
3.8277962
3.8782743
3.5708759
3.8716228
3.8233182
3.5067704
3.1672013
3.525598
3.5746364
3.2232897
3.1651076
2.742302
2.8107743
3.2232609
3.2776372
3.6198693
3.9157851
3.9576893
4.224883
3.9714988
3.667967
3.3322076
3.6829443
3.3414311
3.7583575
3.8194735
4.198887
4.3948724
4.4377479
4.2523577
4.5793043
4.6213957
4.9000849
5.0032179
5.0299381
4.9313762
4.6606688
4.786451
4.9146948
4.6759611
4.6449836
4.3821344
4.575623
4.3305884
4.5480322
4.5198126
4.2882786
4.3192629
4.3481904
4.1072398
4.3617983
4.1411338
4.4173315
4.2216609
4.5173357
4.4786228
4.7540158
4.304493
4.3543716
4.0078789
3.9454435
4.1750821
4.1268473
4.0771179
3.7375827
4.0159831
4.2618663
4.2968933
4.0593924
3.762092
4.0359357
3.9974177
3.7151073
3.3882519
3.4457347
3.7924147
3.4752791
3.8819057
3.6011731
4.0546638
4.4392662
4.7647949
5.0440812
5.2880418
5.2698084
5.2187936
5.2382306
4.9802055
4.9452912
5.0125271
4.7236112
4.6285682
4.6750678
4.3073859
4.2466063
4.3866371
3.9893688
3.9262495
3.8654305
3.6409449
3.7065751
3.1266806
3.4538179
3.3889583
3.3286811
3.2666726
3.7527512
3.5232768
2.9347209
3.0048887
3.0617225
2.7687696
3.4510776
3.518258
3.4159152
4.0072604
3.9437538
4.4115233
4.4194002
4.7909359
5.1028906
5.4350339
5.8034187
6.127088
6.4598898
6.4020884
6.023102
5.6138552
5.2385317
5.7072904
5.2361352
4.7342455
4.2388678
4.1814021
4.7149022
3.4393843
2.3286013
2.3520507
3.3626732
4.3672439
4.4507147
5.2348854
5.7095181
6.0238118
5.2365435
4.7228922
3.451019
2.0449067
0.83346606
0.90901024
2.0006711
0.95149548
0.33302522
0.30511407
0.87436323
2.389816
2.4112711
3.3771563
4.7437135
5.6207889
4.2733602
4.6832138
3.2759171
1.9503609
0.93833063
0.32594236
0.29761719
0.8600659
1.9871978
0.77834472
0.8544269
2.2223054
2.1785474
3.3443631
4.6617179
5.5911107
4.1563873
4.0917305
4.2364309
2.1503925
0.70789216
0.27334776
0.28151185
0.76247501
2.324067
4.3236854
5.4241827
6.0085933
6.0555563
6.1333915
6.0873806
5.6156075
5.7964655
5.7308726
5.6907648
5.7287907
5.7675645
5.3943209
5.3324748
5.2702029
5.3380767
5.446692
5.4972274
5.8268423
5.9111401
5.8805241
5.5826349
5.6227054
5.6562909
5.9527012
6.196373
6.2275273
6.1581053
5.8472974
5.8647986
5.8965071
5.8791257
5.8379129
5.8182913
5.7828319
5.3828763
5.4399636
5.487466
5.5305073
5.4818651
5.5214788
5.5670003
5.6485248
5.9469955
5.9315952
5.8915977
5.8746156
5.5361825
5.5775785
5.692196
5.9700385
6.004989
6.0215241
5.7554709
5.7257738
5.6156046
5.3325397
5.2755945
5.2241247
5.1895208
5.1683324
5.1669897
5.1853757
5.2065823
5.1885564
4.9099377
4.9334321
4.8959864
4.8710984
4.5187098
4.5557779
4.6066814
4.57138
4.1437083
4.2001176
4.1333237
4.0738275
3.4911618
3.5922611
3.7770863
3.8527059
3.2860512
3.2005949
3.5242198
3.0027958
3.40572
2.9850377
2.9218711
2.8643677
3.2805068
2.8715854
2.8155924
2.77129
2.3428484
2.3770535
1.7735276
2.3193097
2.2788614
1.7406183
1.2725991
1.2581735
1.9705482
2.7192189
2.558036
3.2870076
3.2373659
2.503106
1.7373188
1.7272566
0.93695987
0.96202878
0.48673434
0.78291805
1.2926435
1.8718802
2.3799103
2.8324025
3.2004152
3.5392009
3.8370594
4.127128
4.387935
4.4271159
4.6721892
4.9010347
5.1118344
5.3066545
5.2814677
5.1746867
5.3810241
5.401933
5.2062033
5.2327038
5.330473
5.1375908
5.1614028
4.9561132
4.9293099
4.7847016
5.0178379
4.9890993
4.9607106
5.0893053
4.8694861
4.7108065
4.7521489
4.6004333
4.8668139
5.1082882
5.327682
5.3034741
5.0763882
4.9767665
5.2256019
5.2508248
5.0150245
5.0476228
5.1375351
5.3589053
5.4315949
5.44609
5.2555018
5.044694
4.8149709
4.6729018
4.9300295
5.1631541
5.3756536
5.5788334
5.4904105
5.8390344
5.8051201
5.7855347
5.7854833
6.1276271
6.4599183
6.6316133
6.6730227
6.7429193
6.7172071
6.6409014
6.5847696
6.498597
6.4024762
6.0114996
6.0568556
5.6962252
5.4342436
5.2828456
5.3420009
5.7323434
5.7696382
5.7340665
5.3452747
5.3991962
5.4991423
5.8278976
6.1338251
6.0886483
5.6177803
5.7979609
5.4493058
5.5832938
5.8812456
5.911393
5.6230219
5.6563136
5.5372041
5.4430921
5.3895732
5.4391324
5.4396187
5.4846313
5.5320278
5.8797559
5.8966723
5.5676349
5.648663
5.4419943
5.5087405
5.4841736
5.4725233
5.2785642
5.2986849
5.3194946
5.3380094
5.4271284
5.5968329
5.519258
5.4543037
5.2542648
5.2338759
5.2111142
5.4167087
5.4030406
5.1886247
5.1046872
5.3344248
5.3032746
5.2858274
5.2263212
5.1891389
5.1603656
4.8896104
4.9290088
4.8552011
5.1316259
5.1016479
4.8096336
4.4878823
4.594541
4.7116105
4.8370258
4.5580194
4.392802
4.4461325
4.7472543
4.7841263
4.8992764
4.6372665
4.4885138
4.5294489
4.8185623
5.0757711
4.9968492
5.2461185
5.1929763
5.1719273
4.8941183
4.9646934
4.6740278
4.6322708
4.2917128
4.2370406
4.0829227
4.1471015
4.5301412
4.5754286
4.618983
4.713105
4.3871655
4.3396726
4.199727
4.2524145
4.1396419
4.5443423
4.8776243
4.92854
4.9636552
5.0283035
5.2785231
5.2950074
5.3485036
5.1296631
5.1551989
5.376743
5.389112
5.1775257
4.9404781
5.0359263
5.1379293
5.2450349
5.0490442
5.0273839
5.0048097
5.2049397
5.183931
4.9811566
4.8438317
5.0699605
5.0937028
4.8708613
4.8965752
5.1161845
5.0116294
4.9859055
4.9588307
4.7063742
4.7382278
4.6070371
4.8828495
4.851591
4.5687965
4.2507626
4.4276276
4.5973045
4.7622756
4.7340384
4.7043457
4.4625244
4.4955452
4.2940154
4.5643295
4.5301138
4.4934398
4.2148407
4.1618777
3.8687159
3.9170626
4.1638892
3.8849887
3.6051407
3.5425905
3.2330462
3.5942387
3.9329529
3.9851045
4.3049792
4.1066403
3.732426
3.6647595
3.2720707
3.3304232
3.6421724
3.2897754
2.9210896
2.8496768
2.4305975
2.9191001
3.3911547
3.4546977
3.8978243
3.692006
3.1637326
3.089125
2.5282308
2.5760942
2.9703756
2.4820543
1.9815266
1.929864
1.4684629
2.1625877
2.8311158
2.8937678
3.5109032
4.0268989
4.4490533
4.7990082
5.0941569
5.0616878
4.7527602
4.7197285
5.0385544
5.0712846
4.7680968
4.8108443
4.840212
5.1359482
5.1584991
5.1374679
5.1141982
5.113791
5.0704182
5.0377647
4.8341654
4.766765
4.3549888
3.9684665
4.0635121
4.2665095
4.9347042
4.8715466
4.181603
3.3107092
2.9221174
2.3801459
1.588558
1.5807112
2.9599242
3.3768311
2.3311222
2.2869012
3.0120866
3.8082098
4.4764553
5.0459124
4.8303191
5.2448583
5.2885137
5.0994251
4.556638
4.8548255
4.7963924
4.2724465
3.5348955
3.6566971
3.7453218
3.1180176
3.8838944
4.3372098
4.4429574
4.2494028
4.0380929
3.8252061
3.6147603
3.4406952
3.3401027
3.3464955
3.8880514
3.9626973
4.4048352
4.3575919
4.4029138
3.9552822
4.0121639
4.0824905
4.4971951
4.4524716
4.5011489
4.8489137
4.8877402
4.9147468
5.1952932
5.2284185
5.2457659
4.9945399
5.0564248
5.0848727
5.3241139
5.3384226
5.1097964
5.0535654
5.2926798
5.2777832
5.0257169
4.741366
4.8212439
4.9123998
4.642971
4.768267
4.7966424
4.9207914
4.6850405
4.8373757
4.8136709
4.7885544
4.5563519
4.5267086
4.330737
4.3658258
4.6281406
4.6573192
4.398965
4.5841857
4.610387
4.4299307
4.1567675
4.3684566
4.3392723
4.3081844
4.2753832
4.2405506
4.2037218
3.9282299
3.9689055
3.6991092
4.0042778
3.9616148
4.2550209
4.0324017
4.3480092
4.3884389
4.0779611
3.8405327
4.2032984
4.1556688
3.78612
3.3875148
3.6940372
3.7441328
3.3955309
3.3427267
3.6526074
3.3304869
3.6327406
3.584515
3.2577428
2.9366479
3.2789847
3.2228015
3.1113046
3.0225059
2.0952005
2.2502319
2.3399003
1.6974114
2.3954774
2.302672
1.6022915
0.89014132
1.3522803
1.3568252
0.53413091
0.60307354
0.31886926
0.28721759
0.90627575
0.46266401
0.93881344
1.4602474
1.4459215
0.78563982
0.91982122
0.35129828
0.67506464
0.60268086
0.31774748
0.17917149
0.19541499
0.4816789
0.18785721
0.17253594
0.17491729
0.17878921
0.18587465
0.20236969
0.33201644
0.62978283
1.5100621
2.8456919
3.9185369
4.7419763
4.8129834
4.9251222
4.8586289
4.1615732
4.249835
4.0181433
2.8824514
3.3560167
3.2836266
2.2718178
2.3213602
1.4985731
1.7775485
2.5345281
3.2583511
3.8253303
4.3166872
4.6928679
5.0219823
5.057167
5.0828944
5.0479053
4.7312747
4.7804775
4.744664
4.3652395
4.4195443
4.3719134
3.9146713
3.9821685
3.8966522
3.9578141
4.02123
4.4721296
4.8324611
5.1278517
5.1509534
5.12649
4.8247065
4.8645804
4.9194285
5.186905
5.1647306
5.122593
5.0907568
5.1525238
5.1829475
4.9193344
4.8408796
4.7928653
4.8774956
4.5778346
4.4633059
4.5087792
4.6179353
4.2716323
4.1157282
4.0476509
4.214308
4.3787188
4.7006721
4.9684557
5.2198807
5.0969191
5.0416459
4.8281222
5.2449728
5.2890289
4.8586035
4.5548339
4.4722522
4.7999028
4.2837309
3.8088488
3.5462874
3.0268254
3.1370525
3.8881917
4.3486327
3.7721212
3.6843259
4.2089587
4.6936075
5.0907134
5.4471905
5.7198543
5.9687464
6.2413378
6.4985027
6.5524396
6.2976213
6.3259781
6.4401809
6.4751934
6.4111783
6.3632521
6.4069512
6.3253348
6.2054561
5.8547555
6.0582309
6.1138066
6.0871256
5.9947265
5.7599591
5.8936167
5.8662547
5.6523886
5.8057142
5.6844921
5.4878199
5.1500614
5.3967619
5.3711509
5.3391049
5.7769882
6.0878527
5.3399512
4.5620706
5.0738071
5.1143399
4.756963
4.3007892
4.7556759
4.692488
5.0903481
5.3712296
5.3965371
5.6842412
5.6520534
5.4471755
5.4874737
5.1491055
5.1703141
5.4491693
5.8728083
5.7237508
5.6380453
5.7912366
6.0341774
6.0492279
6.1391652
6.1783926
6.1220604
5.9357569
5.9565818
5.8222698
5.8531656
6.0828312
6.0978668
6.1840846
6.2080281
6.1659537
5.9911584
6.0090636
5.8795596
5.6605289
5.5854477
5.5086086
5.4415936
5.3760243
5.3229609
5.2758736
5.2445293
5.2257888
5.2248317
5.2416756
5.2722354
5.2889337
5.3349872
5.1031795
5.0752974
5.0150007
5.045728
5.0043189
5.2597604
5.2434075
4.9831285
4.9484313
4.9707415
4.6563323
4.720075
4.8040439
4.8407998
4.7624642
4.4263651
4.538834
4.4900925
4.3674868
4.2678557
4.3346786
4.7032279
4.6727468
4.623052
4.2146995
4.2856127
3.7678519
3.8560192
4.0124388
4.1847723
4.1202243
3.9317599
3.3821883
3.6818669
3.7649599
3.4869118
3.1944821
3.0770727
3.7622366
3.6737905
3.5752604
2.7994362
2.9776991
2.8949965
2.82602
2.6541069
2.6011149
3.348188
3.3731996
3.3099124
3.4466475
3.3905722
2.7470014
2.8101758
2.5942525
2.6424025
2.7001252
3.4415619
3.5815723
4.1034179
4.522261
4.4713041
4.0418195
4.1722935
4.5569661
4.8821168
4.9571169
5.2210889
5.2421056
4.9904678
4.7037507
4.6036296
4.2288484
4.3728241
4.3223907
4.6616193
4.7768622
5.0423872
5.2823319
5.2461099
5.3248577
5.2997101
5.071529
5.1042877
5.008164
4.7380215
4.8616097
4.8305206
4.5504174
4.5936402
4.4338146
4.4784897
4.5215053
4.8128813
5.0720655
5.3004673
5.3741425
5.3564973
5.1344722
5.1609248
5.2540522
5.4448771
5.4301131
5.3998484
5.3784843
5.4665311
5.4869637
5.3053457
5.203556
5.1712375
5.27961
5.0875787
4.9570526
4.9862842
5.110056
4.8996943
4.7488856
4.7064361
4.8677208
4.6419676
4.4509601
4.2558388
4.0401073
3.8178294
3.5904913
3.6493944
3.8716115
3.4238276
3.110522
3.0328421
3.3575559
2.8859925
2.4690791
2.0702868
2.0951338
1.7754206
0.98015593
0.99752746
1.3896778
1.3954661
1.4020729
2.1340644
2.8687316
3.5116721
3.7130314
3.7788827
3.9898433
3.9306234
3.4864658
3.1746296
3.2448657
2.9359096
2.1815603
1.8106077
1.7434491
2.0140776
2.4669154
2.932377
2.4122182
2.3625954
1.7895976
2.4176209
1.9895867
1.7324266
0.90170237
1.2386015
1.2163442
1.8104757
1.8379872
2.5275925
2.6034575
3.0824785
2.5391134
3.0535076
3.1278133
3.5473716
3.8472239
4.1009566
3.80734
4.0723517
3.8040254
4.0794787
4.0443748
4.0074891
3.7436597
4.045147
4.084348
3.7867695
3.8281617
4.1213658
3.8891856
4.2068343
4.5003598
4.4647925
4.165388
4.1222735
3.8947337
3.9488485
4.2963234
4.3404454
4.3819275
4.5334436
4.2456594
4.0522847
4.0014844
3.6278841
3.5663326
3.8417088
3.7933676
3.4480716
3.5004938
3.1611933
3.0965225
3.5050491
3.4452931
3.0351171
2.9768668
2.5350963
3.0309369
3.5143914
3.9540068
4.0094779
3.5763087
3.2907392
3.8131319
3.7515612
3.2243429
2.630234
2.6917996
3.0947343
2.5934414
2.0632454
2.0180811
1.4851585
2.2283767
2.9505621
3.5726161
3.6370362
3.0143933
2.8192592
3.5214439
4.0701765
4.1305501
4.1971939
4.3051655
4.4333257
4.7509146
4.7867519
4.4783378
4.357501
4.7017486
4.6610153
4.5904269
4.6353422
4.9483032
5.2141652
5.1951186
5.175407
5.1751874
5.4841063
5.8480706
5.8481281
5.8651794
5.5226646
5.2474288
5.2637708
5.0123247
4.9821141
4.9583633
5.2295745
5.2465307
4.9898301
4.6866849
4.7200281
4.7780408
4.8533039
4.5627098
4.6765724
4.7082808
4.8230386
4.9439109
5.0697199
5.2009032
5.3375095
5.5875612
5.9834537
6.2679585
6.4827875
6.5423161
6.6790547
6.7227687
6.7537202
6.722783
6.6082411
6.6663441
6.6133742
6.48278
6.5105114
6.2970048
6.2678995
6.2148721
6.3769272
6.4035606
6.2546631
6.2295615
6.0597495
6.0447672
5.9084352
6.1319355
6.1443259
5.9331352
5.9610469
6.0918214
6.1096131
6.2723104
6.1896743
6.1751363
6.1015157
6.3113088
6.5356272
6.5940092
6.3645977
6.4528971
6.5517807
6.5814927
6.3868264
6.3557455
6.3019663
6.315923
6.1606599
6.1446577
6.0149266
6.2220503
6.2336881
6.040154
6.069456
6.1928153
6.3391764
6.4822342
6.3502272
6.2113412
6.2720936
6.2622385
6.1896774
6.3960327
6.1970086
5.9537257
5.9240907
6.1615847
6.1494486
6.1167807
5.8683765
5.9863439
5.8568997
5.92406
6.030015
6.297009
6.5105288
6.4036214
6.3769278
6.2148938
6.2296538
6.1444201
6.1319153
5.9084179
6.0448034
6.0597672
5.9332263
5.9612013
6.1752747
6.2547146
6.2723867
6.1897781
5.9865668
6.1096565
6.0918474
5.9008023
5.8676641
5.8458975
5.7720026
5.7820275
5.7004926
5.6912902
5.5381207
5.6386471
5.6481721
5.5529887
5.5701508
5.7208293
5.799478
5.8098586
5.7301377
5.5849177
5.6781584
5.6677675
5.5267549
5.6027206
5.5872795
5.4965622
5.5096181
5.3915992
5.3745817
5.1998197
5.3368687
5.3471234
5.2176399
5.2364299
5.4088967
5.4256447
5.5407241
5.3802263
5.3687058
5.2118623
5.3446264
5.6026907
5.8676585
5.8458827
5.7721324
5.782045
5.6483206
5.6388342
5.5385849
5.6915968
5.700517
5.5531869
5.5701512
5.6678574
5.7994232
5.8097665
5.6781415
5.5848024
5.7299713
5.7206999
5.648302
5.8125219
6.0700603
6.2831589
6.0563276
5.7853195
5.6810905
5.985917
5.9977098
5.7097308
5.7399602
5.8412197
5.6789661
5.7506696
5.8289364
5.9006595
5.649189
5.665585
5.5911852
5.7288813
5.7091096
5.8390661
5.7597818
5.6165104
5.6019366
5.6994601
5.5612294
5.5406896
5.5267386
5.5098705
5.4968526
5.3754102
5.3919761
5.2182926
5.3474671
5.3691486
5.3804067
5.2539912
5.4255297
5.4090214
5.2366486
5.0516629
5.21203
5.1906592
5.3168351
5.1767167
5.1902236
5.0312539
5.0116579
4.8113122
4.9927622
5.0033197
4.8318556
4.8533454
5.0510438
5.0695648
5.2537103
5.2725606
5.4431918
5.6021197
5.7508005
5.8290395
5.8392823
5.7598783
5.6166238
5.709199
5.699498
5.5612615
5.6491695
5.6656226
5.9240771
5.8569705
5.8677094
5.78955
5.7800154
5.6335037
5.7289504
5.7396442
5.6482136
5.4926926
5.6054008
5.5911336
5.5741709
5.4592496
5.2891682
5.415063
5.4050644
5.24852
5.3852453
5.4126156
5.2822598
5.4365006
5.4480343
5.3240864
5.3070406
5.476101
5.3700864
5.5441284
5.7091506
5.8685336
6.1169077
6.3113876
6.5356729
6.5940764
6.6663791
6.5518081
6.4529567
6.3020163
6.3557654
6.3159445
6.233761
6.2221436
6.0150288
6.1447156
6.1606655
6.0402466
6.0924977
5.9589139
5.9817352
5.9145873
5.8972614
5.8870146
5.8100211
5.819143
5.6798423
5.7708003
5.7610412
5.6653227
5.510148
5.6259845
5.7132236
5.7301205
5.6560649
5.7902301
5.8009134
5.9249043
5.8480285
5.8388223
5.6965692
5.711328
5.5597644
5.6703185
5.5162624
5.5044538
5.4830539
5.6390168
5.526193
5.3592489
5.3424994
5.4728366
5.3186295
5.4534183
5.7131997
5.9588525
5.9817082
5.7301246
5.6559922
5.7901779
5.9144784
5.8971796
5.8869409
5.867576
5.7395896
5.6481906
5.7894139
5.7799008
5.63333
5.476192
5.4591463
5.5740557
5.4151672
5.4051807
5.2725289
5.4430018
5.3355185
5.5115182
5.4943624
5.6587176
5.5841506
5.5746607
5.5523565
5.6281914
5.6177448
5.4452298
5.4613412
5.3743831
5.3571577
5.5427539
5.4780094
5.4890085
5.2934809
5.274939
5.2004014
5.4154626
5.4261052
5.2201917
5.2408794
5.3126915
5.3925284
5.4784712
5.3003312
5.2822344
5.2640643
5.1586135
5.1782528
4.9656628
5.0893196
5.1086279
5.1272397
5.3176742
5.216033
5.4089272
5.329991
5.5218689
5.5111721
5.4506453
5.4604784
5.2589812
5.0348808
5.1209201
5.1011173
5.1972568
4.9864575
5.0064414
4.8927799
4.8707825
4.8476098
5.0803447
5.0588036
4.966456
4.9906344
4.7370126
4.7636068
5.0132501
4.9365107
5.1787559
5.4024527
5.6329055
5.9491308
6.2193434
6.2457022
5.9839973
6.0325781
6.0458415
5.7678676
5.6930669
5.9980265
5.9684621
5.9550425
5.9188428
5.9065981
5.9362982
5.6023734
5.5595509
5.5912017
5.6234492
5.6641626
5.4374466
5.4843832
5.5438556
5.6063048
5.6154927
5.6893292
5.5271525
5.4427877
5.4266769
5.2342774
5.2521576
5.3525838
5.1639248
5.2890874
5.3071328
5.436536
5.4480807
5.6053329
5.4925431
5.3240195
5.1425948
5.2958016
5.282232
5.261358
5.248584
5.2256761
5.0406493
5.0305716
5.0035425
4.9932955
5.1772198
5.013247
5.0319514
4.8328535
4.8127558
4.6009355
4.8148381
4.8317158
4.6220983
4.5992078
4.3753824
4.4005718
4.6230468
4.6451829
4.8553999
5.0303869
5.0405685
5.2252883
4.8722956
4.6650307
4.8709308
4.665331
4.8725137
5.069706
5.0889292
5.1063871
4.9105569
5.0774492
5.0682331
4.8925506
4.6856658
4.8939318
5.0682423
5.0774509
5.2611587
5.1064239
5.0886811
4.8926424
4.9105445
4.9300165
5.1249525
5.1426246
5.2956851
5.11315
5.1033905
4.9309734
5.1035532
5.1131562
4.9476468
4.9298612
5.124844
4.9788972
5.182003
5.3699549
5.5440494
5.7090091
5.7196773
5.5596586
5.4761624
5.6464111
5.6371394
5.4601403
5.2699994
5.2876218
5.3870643
5.2000229
5.0822489
5.0635748
5.0448349
5.0258453
5.1456162
4.9410912
4.921571
4.9018067
4.8812806
4.8599143
4.6351441
4.6582079
4.4858199
4.7348098
4.7105701
4.4587209
4.1891577
4.3957198
4.4211619
4.1711699
4.1427547
4.1122218
3.8672057
3.6021383
3.933624
3.6875412
3.2937748
3.2271798
3.5518949
3.2055543
3.5203191
3.4745114
3.7633585
3.7215377
3.6778939
3.3593781
3.3089673
2.9891554
3.0410947
3.3792689
3.0428667
2.9891762
2.9348521
2.8842023
2.5269012
2.8674334
2.4995823
2.5564995
2.8821236
2.4360154
2.1152576
2.0516872
1.7646432
2.1728746
2.2213869
2.5848308
2.1745817
2.5283969
2.4699785
2.1093839
1.790848
1.8436692
1.4966301
1.8176981
1.8650085
2.1637609
2.486658
2.9367374
2.9910795
2.54017
2.215017
2.6636568
2.6096101
2.2739944
2.6383141
2.6917547
2.2756939
2.6368055
2.581443
2.2236862
1.8909329
1.9399898
2.3268232
1.9141671
1.5823376
1.537955
1.1341301
1.3881422
1.6282642
1.9353626
1.8990614
1.3022589
1.021935
1.5929884
1.5609506
1.0016024
0.54865577
0.52574191
0.74864841
0.43977683
0.24471111
0.27342225
0.19264611
0.44847787
0.83348712
1.3221224
1.3520906
0.85338515
0.69184835
1.1025081
1.068932
1.4416098
1.0863283
1.3663069
1.6432904
1.9984784
2.0344642
1.6793037
1.1161287
1.4643179
1.4432773
1.0912667
0.8819009
0.90257453
1.3967708
1.1201347
0.71777742
0.6958317
0.39366106
0.48264062
0.61266653
0.91769917
0.89220726
1.4767205
2.1883026
1.9121536
2.7121459
3.3969386
3.4569606
2.7613922
1.9324852
1.9604048
2.2755282
1.4991244
1.0598107
1.0771518
1.0984206
1.1091074
1.9075988
2.6507352
2.6411823
2.7007312
3.3897551
3.9508536
4.4002391
4.7665443
4.71791
4.7490634
5.0595349
5.0920337
4.7953254
4.8370009
4.8092598
4.8477306
5.1365554
5.1567497
5.1337012
5.1695193
5.4890565
5.838613
5.8047144
5.8194463
5.875246
6.1965534
6.2275441
6.158192
5.8650722
5.5223659
5.5670583
5.8964425
5.8793905
5.5309854
5.6157809
5.931707
5.8918347
5.57778
5.6920426
5.9700742
5.9527523
6.0342471
6.297702
6.5524501
6.3259977
6.0828724
6.0049285
6.0214284
5.946899
5.6481723
5.7550909
5.7254909
5.8529734
5.8219457
6.0490887
6.1391927
6.1783296
6.122076
6.0870879
5.9946861
6.2413902
6.2057708
5.8544104
5.9687835
5.7195463
5.7596494
5.8932396
6.1133343
6.0580243
5.8656621
5.6505554
5.4454178
5.3344915
5.0851458
5.1454204
5.4863015
5.6831039
5.8035143
5.3660809
5.3926903
5.1048726
4.7451221
4.6794575
4.5359184
4.1772077
4.273379
4.7334551
4.6652064
5.061379
5.3619084
5.3239086
5.7733546
6.0872052
6.4068659
6.3253478
6.3632891
6.4112306
6.4751961
6.4402009
6.2079852
6.1659861
6.1840485
6.0977879
5.8793698
6.0089695
5.990968
5.9563031
5.9355424
5.7908759
5.5491799
5.4659236
5.3784325
5.300588
5.2222052
5.1569281
5.0985122
5.1285476
4.8497423
4.8039541
4.8835287
4.9234564
5.1860509
5.2234539
5.2436334
5.1904102
4.9243009
4.8741374
4.5380707
4.4985911
4.4497865
4.0075396
4.0657075
4.1277512
4.070999
4.4905434
4.4422946
4.3983974
4.3548142
3.8835075
3.9519108
4.0154123
4.1323287
4.5210772
4.4784683
4.0678578
4.2224122
4.5849268
4.6230239
4.2768627
4.3255078
4.184829
4.566517
4.8887695
4.9598377
4.9919809
4.7050309
4.6104339
4.2378055
4.3730619
4.4203065
4.2911042
4.1854402
4.1257095
4.5469031
4.5490669
4.5964794
4.9224913
4.9219008
5.1945204
5.2127516
5.1935169
4.9118388
4.8861277
4.945719
4.9800252