/*--------------------------------*- C++ -*----------------------------------*\
  =========                 |
  \\      /  F ield         | OpenFOAM: The Open Source CFD Toolbox
   \\    /   O peration     | Website:  https://openfoam.org
    \\  /    A nd           | Version:  7
     \\/     M anipulation  |
\*---------------------------------------------------------------------------*/
FoamFile
{
    version     2.0;
    format      ascii;
    class       volScalarField;
    location    "500";
    object      rho;
}
// * * * * * * * * * * * * * * * * * * * * * * * * * * * * * * * * * * * * * //

dimensions      [1 -3 0 0 0 0 0];

internalField   nonuniform List<scalar> 
25278
(
1.173874
1.1738581
1.1738757
1.173875
1.1739001
1.1738552
1.1738602
1.1738735
1.1738627
1.1738074
1.1738275
1.1738497
1.1738577
1.1738753
1.1738898
1.1738748
1.173858
1.1738857
1.1738941
1.1738727
1.1738417
1.17385
1.1738552
1.1738295
1.1737924
1.1738278
1.1738537
1.1738318
1.1738851
1.1738236
1.1737953
1.1738448
1.1737704
1.1738204
1.1737737
1.1738406
1.1738021
1.1737565
1.1737885
1.1737131
1.1737582
1.1737197
1.17372
1.1736704
1.1737214
1.1737523
1.1738104
1.1737848
1.1737399
1.1737933
1.1737831
1.1738627
1.1737708
1.1737697
1.1738265
1.1737681
1.1737383
1.1737905
1.1736792
1.1737383
1.1736989
1.1736831
1.1736728
1.1737495
1.1738333
1.173815
1.1737368
1.1736654
1.1736885
1.1737194
1.1738363
1.1737415
1.1737987
1.1737549
1.1738362
1.1737631
1.1737744
1.1738237
1.1738486
1.1738845
1.173913
1.1738894
1.1738862
1.173901
1.1738737
1.1739067
1.1738874
1.1737899
1.1738415
1.1738935
1.1738446
1.1737859
1.1738427
1.1737808
1.1738143
1.1737876
1.1738776
1.1739154
1.1738552
1.1738126
1.1738762
1.1738903
1.1738828
1.1738155
1.1737495
1.1738188
1.1737226
1.1736418
1.1736089
1.1735866
1.1737873
1.173714
1.173679
1.1738548
1.1737274
1.1737214
1.1739188
1.1737877
1.1738602
1.1738431
1.1738846
1.1738683
1.1738969
1.1738154
1.1737532
1.1735671
1.1735683
1.1737791
1.1738756
1.1739027
1.1739087
1.1738792
1.1738726
1.1738767
1.1738194
1.1737678
1.1736925
1.1737004
1.1736533
1.1735942
1.1736733
1.173821
1.1738782
1.1737626
1.1737172
1.1737916
1.1738459
1.1737535
1.1737822
1.1737491
1.1738719
1.1738799
1.1738231
1.1739003
1.1738665
1.1738338
1.1737763
1.1738385
1.1736696
1.1729358
1.1726849
1.1728551
1.1730341
1.1737169
1.1737447
1.1738208
1.1738601
1.1737751
1.1738793
1.1738506
1.1737306
1.1731918
1.1729247
1.1728543
1.1701383
1.1705224
1.1728952
1.1727701
1.1705031
1.1702107
1.1727795
1.1728583
1.1730958
1.1736596
1.1738528
1.173846
1.1737747
1.1736942
1.1736346
1.173915
1.1738538
1.1738339
1.1738768
1.1737793
1.1737488
1.1737688
1.1737393
1.1724247
1.1693867
1.1690365
1.172469
1.1737395
1.1737941
1.1737464
1.1738192
1.1738479
1.1738211
1.1738851
1.1738425
1.1737909
1.1738425
1.173773
1.1737602
1.1737211
1.1738045
1.1737542
1.1737875
1.1737175
1.1737226
1.1736707
1.1736769
1.1737251
1.173785
1.1738078
1.173779
1.1737232
1.1736998
1.1737428
1.1737463
1.1737618
1.1737533
1.1736711
1.173645
1.1737069
1.1737177
1.1737322
1.1737373
1.1737787
1.1738389
1.1738725
1.1737933
1.1738293
1.1737751
1.173745
1.1737045
1.1737718
1.1737359
1.1737887
1.173688
1.1736903
1.1736795
1.173754
1.1737784
1.1738594
1.173778
1.173835
1.1737281
1.1736955
1.1738112
1.1737334
1.1736711
1.1735952
1.1736102
1.1736252
1.173651
1.1736106
1.1737096
1.1736714
1.1736958
1.1737129
1.1737139
1.1736999
1.1737251
1.1736546
1.1736608
1.1736857
1.1737228
1.1736786
1.1736322
1.1736242
1.1736296
1.1735881
1.1736722
1.1736402
1.1736133
1.1735462
1.1735851
1.1735467
1.1735252
1.1735958
1.1736088
1.1736545
1.1737239
1.1737802
1.1737859
1.1737256
1.1737603
1.1737524
1.1737123
1.1736461
1.1736724
1.1736771
1.1736963
1.1736927
1.173664
1.1736667
1.17373
1.1737398
1.1736887
1.1737492
1.1736569
1.1737151
1.1736104
1.1736474
1.1735957
1.1736674
1.1736598
1.1737522
1.1738377
1.1738222
1.1737177
1.1736206
1.1737608
1.1736943
1.1736553
1.1736026
1.1737104
1.173815
1.1738022
1.1737017
1.1734786
1.1735279
1.1735119
1.1734532
1.1736322
1.1735171
1.1736657
1.1735996
1.1735944
1.173599
1.1736317
1.1736338
1.1735679
1.1735781
1.1735585
1.1736434
1.1735951
1.1735632
1.1735914
1.1735501
1.1735641
1.1736836
1.1735986
1.1735786
1.1735494
1.1735426
1.1734932
1.1735825
1.173467
1.1734559
1.1735091
1.1735159
1.1734649
1.1735044
1.1734618
1.1735667
1.1735936
1.1735972
1.173698
1.1736648
1.173565
1.1735996
1.1735548
1.173673
1.1737356
1.1737451
1.1736053
1.1735991
1.173605
1.1736319
1.1736358
1.1735759
1.1735877
1.1736725
1.173651
1.1735157
1.173524
1.1734775
1.1735258
1.173567
1.1735205
1.1735544
1.1735783
1.1735952
1.173688
1.1735664
1.1735462
1.1734993
1.1735888
1.1734717
1.1734627
1.1734566
1.1734397
1.1733993
1.173397
1.1734989
1.1735709
1.1736381
1.1735576
1.1736517
1.173561
1.1735078
1.1735138
1.173517
1.1735815
1.1735086
1.1735932
1.1736309
1.1735815
1.1735003
1.1735057
1.1735233
1.1734646
1.173534
1.1734857
1.1735463
1.1735178
1.1734631
1.1734597
1.1733959
1.1734658
1.1733914
1.1735036
1.1734086
1.1733858
1.1734476
1.1734032
1.1734685
1.1735063
1.1735904
1.1734814
1.1734845
1.1735177
1.1736265
1.1736204
1.1736788
1.1737074
1.1736782
1.1738033
1.1737554
1.1736843
1.1736263
1.1735957
1.1736527
1.1737539
1.1735497
1.1736969
1.1738254
1.1736301
1.1736305
1.1734444
1.1735593
1.1735088
1.1733354
1.1732409
1.1735455
1.1739882
1.1736647
1.1738416
1.1738177
1.1738126
1.1736349
1.1736478
1.1735906
1.1735716
1.1735757
1.1738775
1.1737971
1.1730338
1.1730537
1.1732851
1.173509
1.1734617
1.1734982
1.1734562
1.173516
1.1734285
1.1734982
1.173478
1.1735415
1.1735169
1.173638
1.1735738
1.1734184
1.1734575
1.1733658
1.1734203
1.1734729
1.1734105
1.1735146
1.1735102
1.1735071
1.1734869
1.1733642
1.1734316
1.1734473
1.1735131
1.1734885
1.1735276
1.1736112
1.1736093
1.1737092
1.1737295
1.1737001
1.1736782
1.1735772
1.1736209
1.1736476
1.1736994
1.173667
1.1736366
1.1735676
1.1736088
1.1736705
1.1735189
1.1736382
1.1735549
1.1736285
1.1736144
1.1737996
1.1735359
1.1735273
1.1733731
1.1734501
1.1734679
1.1735368
1.1738188
1.1736153
1.1736631
1.1731842
1.1736237
1.1734199
1.1732789
1.1731916
1.173497
1.1739813
1.1738222
1.1729289
1.1729096
1.1732699
1.1730812
1.1734475
1.1733004
1.1735281
1.1734698
1.1736557
1.1735948
1.1736989
1.1737238
1.1737139
1.1737315
1.1737503
1.1736997
1.1737239
1.1736948
1.1736676
1.1736285
1.1736352
1.1736827
1.1736365
1.1735966
1.1736775
1.1736559
1.1736232
1.1736546
1.1735589
1.173551
1.1735884
1.1735397
1.1735291
1.173591
1.1736099
1.1736399
1.1735546
1.1736487
1.1735894
1.1735176
1.1735618
1.1735063
1.1735125
1.1734594
1.1735115
1.1734985
1.1735709
1.1734818
1.1735021
1.1735862
1.1736306
1.1736061
1.1735171
1.1735093
1.1735295
1.1734697
1.1735327
1.1735054
1.1733901
1.1734639
1.173542
1.1734582
1.1733922
1.1733936
1.1733926
1.1734042
1.1734514
1.1734644
1.1733545
1.1734346
1.1733113
1.1733215
1.1732294
1.1732566
1.1733418
1.1733458
1.1734129
1.1734103
1.1733539
1.1733865
1.17333
1.1734211
1.1733366
1.1733961
1.1732039
1.1732792
1.1731511
1.1732462
1.173314
1.1734
1.1733553
1.1734108
1.1734686
1.1735291
1.1735703
1.1736695
1.1735923
1.1736151
1.1735221
1.1735935
1.1735895
1.1735425
1.1734959
1.1735537
1.1734928
1.1735357
1.1735494
1.1736193
1.1735102
1.1734784
1.1734437
1.1735721
1.173571
1.1736293
1.1736765
1.1736002
1.1735607
1.1735104
1.173523
1.1735441
1.1734692
1.1735
1.1735503
1.1734604
1.173436
1.1733727
1.1733912
1.1734442
1.1733914
1.1735026
1.1735275
1.1734073
1.1733628
1.1734495
1.1732428
1.1734144
1.1733353
1.1732959
1.1731732
1.1732877
1.1733569
1.1734426
1.1734098
1.1734556
1.1733781
1.1733257
1.1732641
1.1733657
1.1734134
1.173469
1.1734367
1.1735041
1.1735044
1.1734144
1.1733246
1.1733728
1.1732635
1.1733145
1.1732296
1.1732954
1.1734695
1.1734248
1.1732988
1.1733653
1.1735468
1.1735089
1.173674
1.1736064
1.1737108
1.1736783
1.1736648
1.1735343
1.1735489
1.173517
1.1736169
1.1736419
1.173632
1.1736036
1.1734983
1.1735054
1.1735243
1.1733888
1.1733935
1.1734447
1.1734537
1.1735039
1.1735871
1.1735372
1.1734737
1.1734446
1.1734793
1.1734795
1.1734428
1.173435
1.1734705
1.1734909
1.1735806
1.1735596
1.1734565
1.1734148
1.1735366
1.1735089
1.1733788
1.1733557
1.1733932
1.1734008
1.1735373
1.1734875
1.1734244
1.1734845
1.1733645
1.1733725
1.173407
1.1733235
1.1733716
1.1734198
1.1734142
1.1733627
1.1732647
1.1733304
1.1733387
1.1732798
1.1732125
1.17319
1.1733089
1.1732566
1.1732757
1.1731529
1.1732153
1.1731464
1.1732797
1.1733818
1.1735272
1.1735389
1.1735943
1.1735481
1.1736208
1.173452
1.1734805
1.1734855
1.1734175
1.1733972
1.1734939
1.1734779
1.1733637
1.1733422
1.1734908
1.1735137
1.1735661
1.1735503
1.1736392
1.1734526
1.1734635
1.1734646
1.1733842
1.1733781
1.1734985
1.1734736
1.1733368
1.1732135
1.173221
1.1732542
1.173323
1.1733486
1.1734046
1.1733929
1.1735092
1.1732646
1.1733178
1.1733238
1.1732223
1.1731913
1.1731198
1.1730646
1.1731592
1.1733049
1.1733715
1.1733687
1.1735174
1.1732666
1.1732824
1.1732832
1.1731258
1.17318
1.1731939
1.1732625
1.1733783
1.1730878
1.1733015
1.1732046
1.1731715
1.1730145
1.1731683
1.1730781
1.1731416
1.1732272
1.1732975
1.173196
1.1732836
1.1731888
1.1733073
1.1733475
1.1734928
1.1733741
1.1732931
1.1733239
1.173352
1.173361
1.1732536
1.173196
1.1730909
1.1730173
1.1731311
1.1732458
1.1732632
1.173411
1.173439
1.1733328
1.1732269
1.1733168
1.173329
1.1732372
1.1731374
1.1731139
1.1732403
1.1733269
1.1732204
1.1732112
1.1733054
1.173386
1.1734496
1.1734024
1.1734259
1.1733794
1.1733543
1.1732601
1.1733242
1.1733522
1.1734118
1.1733329
1.173433
1.1733838
1.1732404
1.1732086
1.1732462
1.1733584
1.1734346
1.1733887
1.1732504
1.1733307
1.1733065
1.1732138
1.1731073
1.1731473
1.173262
1.1731477
1.1732503
1.1731551
1.1732621
1.1732288
1.1732345
1.1732517
1.1731734
1.1731479
1.1730083
1.1731177
1.1731393
1.1730425
1.1731125
1.1729984
1.173094
1.1729685
1.1730754
1.1731758
1.1732553
1.1732489
1.1734211
1.1732984
1.1731847
1.1731035
1.1731712
1.1732836
1.1730353
1.1731047
1.17333
1.1730706
1.173014
1.1731611
1.1727565
1.1728815
1.1729538
1.1727927
1.1729358
1.1730594
1.1729582
1.1730834
1.1729762
1.1728294
1.1726249
1.1728202
1.1727231
1.1729221
1.1728204
1.1730003
1.1730789
1.1730437
1.172951
1.1731221
1.1731135
1.1732467
1.1733005
1.1733272
1.1732747
1.1731418
1.1732162
1.1732877
1.17318
1.1731449
1.1730026
1.1731132
1.1729805
1.173105
1.1731086
1.172983
1.1729746
1.1730206
1.1728758
1.1730335
1.172895
1.1730443
1.1729158
1.1730858
1.1730435
1.1731862
1.1729417
1.1729814
1.1727722
1.1727369
1.1728653
1.1728671
1.1729143
1.1727112
1.1728913
1.173017
1.1729821
1.1728412
1.1726492
1.1728235
1.1728722
1.1727182
1.1724777
1.1723841
1.172642
1.1724942
1.1727549
1.1725107
1.1727945
1.1730296
1.1731966
1.1733225
1.1734882
1.1734393
1.173394
1.173446
1.173297
1.1733124
1.1733353
1.1732233
1.1731913
1.1731588
1.1729881
1.1730377
1.1730717
1.1728673
1.1729701
1.1731059
1.173068
1.1729366
1.1727254
1.1727593
1.1729137
1.1730705
1.1732096
1.1734746
1.1733959
1.1730026
1.1730524
1.1728616
1.1727596
1.1730119
1.1728368
1.1728256
1.1730586
1.1731503
1.1732972
1.173304
1.1733826
1.1734988
1.1735372
1.1736656
1.1737252
1.1737854
1.1738425
1.1738843
1.1738963
1.1738629
1.1739116
1.1738849
1.1738075
1.1738801
1.1738033
1.1737308
1.1736705
1.1739327
1.1738868
1.1736878
1.1738961
1.173891
1.1738219
1.1738519
1.173886
1.1738033
1.1737444
1.1737474
1.1729993
1.1729619
1.1729907
1.1731555
1.1728028
1.1706614
1.170346
1.1727204
1.1739417
1.173867
1.1737487
1.1738102
1.1739003
1.1738366
1.1737821
1.1736544
1.1731169
1.1727567
1.1705994
1.1703901
1.1726596
1.1729796
1.1727054
1.1728191
1.1738373
1.1738863
1.173635
1.1737009
1.1738681
1.1738248
1.1737343
1.1737355
1.1736464
1.1723146
1.1698133
1.169489
1.1726776
1.1738145
1.1738256
1.1737819
1.1738662
1.1737844
1.173793
1.1738716
1.1737653
1.17379
1.1738346
1.1738178
1.1737383
1.1737504
1.1736755
1.1736702
1.1736933
1.1737197
1.1736801
1.1736855
1.1737394
1.1737679
1.1738256
1.1737383
1.1737005
1.1736511
1.1737305
1.1737406
1.1737313
1.1737149
1.1736047
1.1736331
1.1736428
1.1736191
1.1736795
1.1737121
1.1736997
1.1735973
1.1736099
1.1735539
1.1735225
1.1735012
1.1735078
1.1735288
1.1735629
1.1736562
1.1736261
1.17368
1.173702
1.1736252
1.1735826
1.1736135
1.1737096
1.1736577
1.1736775
1.173599
1.1735924
1.1735565
1.173435
1.1734471
1.1734016
1.1734082
1.1733889
1.1733874
1.1734028
1.1734479
1.1734331
1.1732583
1.1732658
1.1732859
1.1732789
1.1731376
1.1731481
1.1731046
1.1730923
1.1728813
1.1728917
1.1729641
1.1729546
1.1726598
1.1726815
1.1728246
1.1727387
1.1724873
1.1725841
1.1726146
1.1722505
1.1725922
1.1723451
1.1725097
1.1726668
1.1728719
1.1727169
1.1728697
1.1733231
1.1731216
1.1728259
1.172565
1.1726646
1.1729148
1.1724342
1.1725767
1.1723045
1.1726802
1.1729641
1.1729505
1.1731207
1.1734168
1.1729844
1.1731175
1.1726279
1.1721797
1.1721945
1.1723449
1.1731032
1.1726304
1.1732439
1.1729378
1.1732386
1.1731676
1.173358
1.1732884
1.1734339
1.1734301
1.1733552
1.1734276
1.173485
1.1735435
1.1735807
1.173605
1.1735376
1.1736203
1.1735961
1.1735659
1.1735042
1.173537
1.1735013
1.1734671
1.1733921
1.1734263
1.1733791
1.1734594
1.1735138
1.1735607
1.173601
1.1735191
1.1734187
1.1734659
1.173423
1.1734868
1.1735404
1.1736435
1.1736878
1.1735636
1.1734931
1.1736072
1.1735674
1.1735294
1.1734551
1.1734854
1.1735846
1.1735389
1.1735483
1.1734874
1.1734248
1.1733455
1.1732942
1.173389
1.1734578
1.1735833
1.1735789
1.1735496
1.1736784
1.1736562
1.173692
1.1736945
1.173711
1.1737746
1.1738512
1.1738712
1.1738707
1.1738579
1.1738698
1.1738466
1.1738417
1.1738354
1.1738555
1.1737764
1.1738129
1.1737584
1.1736916
1.1736606
1.1737347
1.1737393
1.1738208
1.173704
1.1736589
1.1736617
1.1737251
1.1737814
1.17386
1.1737495
1.1737806
1.1736625
1.1737116
1.1738121
1.1737535
1.1736717
1.1736161
1.1735961
1.1735897
1.1735876
1.1735222
1.173531
1.173485
1.1735096
1.1736134
1.1736319
1.1735059
1.1735465
1.1734478
1.1734439
1.1735288
1.173472
1.1734506
1.1734447
1.1734317
1.1734477
1.1734847
1.1735781
1.1735426
1.1735317
1.1734052
1.173391
1.1734059
1.1735421
1.1734982
1.1734174
1.1733838
1.1734243
1.1735054
1.1735097
1.1735578
1.1736146
1.1736885
1.1735358
1.1735093
1.173504
1.1735561
1.1736254
1.1734781
1.1735399
1.1735721
1.1735284
1.1735696
1.1734571
1.1733458
1.17341
1.1734661
1.173402
1.1734377
1.1733462
1.1733026
1.1732516
1.1733526
1.1734299
1.1734031
1.1735441
1.17348
1.1735001
1.1734197
1.173441
1.1733873
1.1734444
1.1733729
1.1734147
1.1733221
1.1733691
1.1734336
1.1733634
1.1732954
1.1733196
1.1731987
1.1732741
1.1732454
1.1731712
1.1731274
1.1732704
1.1733633
1.1733836
1.1733271
1.173352
1.1734551
1.1734963
1.1734755
1.17337
1.1733523
1.1733818
1.1734866
1.1733664
1.1732679
1.1733212
1.1733729
1.1734215
1.1733488
1.1733264
1.173338
1.1734195
1.1734287
1.1733502
1.1732965
1.1733836
1.1733699
1.1732764
1.173264
1.1733551
1.1733049
1.1733226
1.1733434
1.1732391
1.1732097
1.173148
1.1732746
1.1733003
1.1731858
1.1730603
1.1731234
1.1731995
1.1732678
1.173316
1.173374
1.1732743
1.1732146
1.1731418
1.1732554
1.1733166
1.1733912
1.1733252
1.173277
1.1733339
1.1732174
1.1732684
1.1731841
1.173131
1.1730654
1.173144
1.1733666
1.1733419
1.1732523
1.1733396
1.1733162
1.1732298
1.1731568
1.1732355
1.173089
1.1731293
1.1730093
1.1729556
1.1728382
1.1730026
1.173384
1.1732811
1.1731549
1.173269
1.1732616
1.1731442
1.1731003
1.1732274
1.1729532
1.1729839
1.1727852
1.1727064
1.1725783
1.1727196
1.1733466
1.1731805
1.1730736
1.1732208
1.1733391
1.1734163
1.173488
1.1735873
1.1736707
1.1734983
1.1734735
1.1736392
1.1735541
1.1734846
1.1733968
1.1734077
1.1735332
1.1735083
1.1734712
1.1735002
1.1735097
1.173563
1.1736489
1.1736186
1.1738045
1.1737698
1.1735644
1.1735413
1.1735396
1.1736156
1.1738155
1.1736109
1.1739251
1.1738534
1.1736806
1.1729716
1.1729265
1.1734011
1.1734251
1.173145
1.1734104
1.1731022
1.1736381
1.1734912
1.1737287
1.1737197
1.1737704
1.1736344
1.1736127
1.173536
1.1735644
1.1736208
1.1737629
1.1735701
1.1735159
1.1733252
1.1732037
1.1734203
1.1734722
1.1733992
1.173418
1.1733602
1.1734467
1.1734102
1.1734643
1.1734667
1.173482
1.1733223
1.1733596
1.1735556
1.1735464
1.1734113
1.173339
1.1732096
1.173221
1.173351
1.17334
1.1732592
1.1733532
1.1732891
1.1733019
1.1734185
1.1733945
1.1734363
1.1733046
1.1733322
1.1733111
1.1733928
1.1734855
1.173323
1.1732883
1.1734377
1.1733335
1.1732789
1.1731587
1.1732005
1.1732532
1.1731248
1.1731939
1.1732113
1.1732833
1.1731807
1.1732613
1.1732347
1.1732468
1.1731307
1.173156
1.1730698
1.1730307
1.1731691
1.1731564
1.1730144
1.1731198
1.1731555
1.1730454
1.1729024
1.1730356
1.1729899
1.1729982
1.1730359
1.1731031
1.1731947
1.1730703
1.1729697
1.172857
1.1730125
1.173111
1.173204
1.1731428
1.1732732
1.1731874
1.1730483
1.1729816
1.1731368
1.1732247
1.1730765
1.1729548
1.1730305
1.1728896
1.1726867
1.1728499
1.1729643
1.1728423
1.1729628
1.1730659
1.1729746
1.172896
1.1729925
1.1731971
1.173294
1.1739126
1.172773
1.1734442
1.173061
1.1726771
1.1730845
1.1734952
1.1723341
1.1727512
1.1743737
1.172823
1.1725084
1.173545
1.1708989
1.1710662
1.1718986
1.1713594
1.1721607
1.1728969
1.1743597
1.1725178
1.1727612
1.1711949
1.1736799
1.1726861
1.1714388
1.1688226
1.169986
1.1745487
1.1693175
1.1682261
1.1635836
1.161852
1.1624823
1.1698546
1.1712109
1.1737502
1.1730337
1.173863
1.1735563
1.17381
1.1736242
1.1736324
1.1738361
1.1736305
1.1735584
1.1735495
1.1734237
1.1734494
1.173965
1.1734503
1.1731764
1.1730347
1.1731655
1.1730055
1.1734299
1.173273
1.173522
1.1734553
1.1736392
1.1735508
1.17357
1.1736589
1.1734742
1.1734686
1.1734684
1.173376
1.1733775
1.1735319
1.1733074
1.1732912
1.1732948
1.1731624
1.1730748
1.1732226
1.1733425
1.1734744
1.1734955
1.1735177
1.1733895
1.1733484
1.1733755
1.1734839
1.1734984
1.1735523
1.1736207
1.173677
1.173599
1.1734928
1.173488
1.1734567
1.1735163
1.1735516
1.1735095
1.1734037
1.1734151
1.1733371
1.1733325
1.1732729
1.1733761
1.1733147
1.1735058
1.1734782
1.1736046
1.1736403
1.1737397
1.173738
1.1737969
1.1736693
1.1736108
1.1735722
1.1735215
1.1736681
1.1738095
1.1736597
1.1735845
1.1731868
1.1732873
1.173473
1.1735384
1.1734201
1.1736053
1.1734784
1.173705
1.1736145
1.1737576
1.1737151
1.1737903
1.1737958
1.1738496
1.1738098
1.1737533
1.1737503
1.1737783
1.17379
1.1737851
1.1738222
1.1738299
1.1738839
1.1738455
1.1737711
1.1738392
1.1737711
1.1738003
1.1737575
1.1737212
1.1737201
1.1737578
1.1738354
1.1737609
1.1737486
1.1736913
1.1736498
1.1736565
1.1737133
1.1738228
1.1738449
1.1738171
1.1738156
1.173805
1.1738123
1.1736666
1.1735992
1.1735313
1.1736018
1.1737033
1.1736134
1.1737168
1.1736583
1.1737483
1.1738341
1.1737533
1.1736883
1.1736513
1.1735247
1.1735972
1.1736915
1.1736972
1.1737393
1.1736733
1.1737234
1.1737133
1.1737508
1.1737238
1.1737597
1.1736786
1.1736725
1.1736488
1.1736307
1.1736696
1.173695
1.1737219
1.1737204
1.1736995
1.1736359
1.1736802
1.1736371
1.1735236
1.1735095
1.173463
1.1734529
1.1734046
1.1733975
1.1733577
1.1733521
1.1733367
1.1733337
1.1733463
1.1733483
1.1734657
1.173493
1.1733379
1.1733138
1.1732855
1.1733082
1.1732811
1.1734582
1.1734485
1.1732739
1.1732487
1.173255
1.1730911
1.1731449
1.1731871
1.1732188
1.1731723
1.1729972
1.1730602
1.1730238
1.1729745
1.1728781
1.1729295
1.1731289
1.1731213
1.1730836
1.172887
1.1729458
1.1726297
1.1725779
1.1727491
1.1728537
1.1727901
1.1727171
1.1724874
1.172508
1.172593
1.1724993
1.1722526
1.1720364
1.172478
1.172529
1.172493
1.1720562
1.1721024
1.1723358
1.1725545
1.1725436
1.1727319
1.1729965
1.1730192
1.1731426
1.1731379
1.1734542
1.1730902
1.1729803
1.172988
1.1727723
1.1725945
1.1728549
1.1728634
1.173081
1.1732306
1.1733121
1.1731707
1.1732113
1.1733355
1.1734067
1.1734273
1.1735443
1.1735331
1.1733929
1.1732951
1.1732713
1.1731473
1.1731703
1.1732408
1.1733607
1.1733862
1.1734476
1.1735122
1.1735678
1.1736331
1.1736787
1.1735505
1.1735305
1.1735184
1.1734473
1.1734703
1.1735553
1.1734342
1.1734036
1.1733866
1.1732834
1.1732398
1.1733412
1.1734264
1.173513
1.1735768
1.1735761
1.1734784
1.1734539
1.1734873
1.1735572
1.1735443
1.1735995
1.1736214
1.1737004
1.1736713
1.1735758
1.1735599
1.1735307
1.1735974
1.1735927
1.1735484
1.1735044
1.1735355
1.1734766
1.1734539
1.1734045
1.1735076
1.1735304
1.1734583
1.1734756
1.1733887
1.1734806
1.1733975
1.1732013
1.1732125
1.1730936
1.1730812
1.1730188
1.1732229
1.1733301
1.1731333
1.1732859
1.1727065
1.172703
1.1723069
1.172284
1.1725889
1.1723373
1.1719854
1.172509
1.1727872
1.1730293
1.1730956
1.1729755
1.1730025
1.1731296
1.1729491
1.1729032
1.1727859
1.1726009
1.1721967
1.1721529
1.1720422
1.1721104
1.1724192
1.1724679
1.1721241
1.1724171
1.1722808
1.1726409
1.1724612
1.1723761
1.1717495
1.1719287
1.1714776
1.1720464
1.1717942
1.17222
1.172063
1.1720596
1.1715244
1.1722238
1.172169
1.1724565
1.1726416
1.1728351
1.1726306
1.1728165
1.1726244
1.1728216
1.1728326
1.172883
1.1727461
1.1729282
1.1728754
1.1726755
1.1726454
1.1728575
1.1726881
1.1728852
1.1730658
1.1730819
1.1729079
1.1729627
1.1728784
1.1728076
1.1730079
1.172981
1.1729965
1.1730898
1.1729151
1.1727752
1.172765
1.1725463
1.1726018
1.1727141
1.1727859
1.172544
1.172447
1.1722991
1.1724139
1.1726901
1.1728115
1.1725796
1.1727431
1.1725552
1.1728504
1.1730066
1.1731861
1.1730624
1.1728607
1.1728184
1.1730361
1.1731575
1.17296
1.1727887
1.1725861
1.1726333
1.1722834
1.1721748
1.1724315
1.1721652
1.1726622
1.1728884
1.1731227
1.1729721
1.1726947
1.1726799
1.1729682
1.1731159
1.1730104
1.1730284
1.1730855
1.1731223
1.1732608
1.1732268
1.1730723
1.1730275
1.1731912
1.1732304
1.1731987
1.1731514
1.1732745
1.1734546
1.1734185
1.1733833
1.1733924
1.1734755
1.1735914
1.1735899
1.1736123
1.1734786
1.1733462
1.1734427
1.1732527
1.1732454
1.1732293
1.1733109
1.1734108
1.1732338
1.1730901
1.1731155
1.1731635
1.1732123
1.1730516
1.1731371
1.1731774
1.173249
1.173315
1.1733715
1.1734239
1.1734255
1.1735352
1.1736679
1.1737157
1.1737548
1.173797
1.1738257
1.1738423
1.1738595
1.1738433
1.1738185
1.1738265
1.1738039
1.1737519
1.173791
1.1737708
1.1737135
1.1736656
1.173731
1.1737785
1.1736973
1.1737212
1.1737255
1.1736471
1.1736427
1.1736462
1.1737057
1.1736798
1.1737181
1.1737194
1.1737837
1.1737509
1.1737536
1.1736958
1.1736747
1.1737651
1.1737785
1.1738135
1.1737795
1.17379
1.1737903
1.1738118
1.1738109
1.1737923
1.1737483
1.1737758
1.1738151
1.1737911
1.1737876
1.1737606
1.1737874
1.1738086
1.1738243
1.1738289
1.1737894
1.1738128
1.1737936
1.1738235
1.173804
1.1738035
1.1737939
1.1738053
1.1737941
1.173829
1.1738122
1.1737745
1.1737454
1.173736
1.1737515
1.1737578
1.1736561
1.1737445
1.1737305
1.1737726
1.1737926
1.1737853
1.1737403
1.1736695
1.1737242
1.1737169
1.1736577
1.1736529
1.1736543
1.1737311
1.1736909
1.1737294
1.1737084
1.1737033
1.1737544
1.173763
1.1737677
1.1737883
1.1737277
1.1736832
1.1736797
1.1736079
1.1735296
1.1736317
1.173642
1.1735305
1.1735342
1.1735245
1.1736332
1.1735736
1.1735964
1.1735867
1.1735607
1.1736525
1.1736915
1.1736404
1.1736914
1.1735888
1.1735285
1.1736704
1.1735377
1.1734732
1.173556
1.1735241
1.17348
1.1734314
1.1734299
1.1735788
1.173485
1.1735268
1.173555
1.1736064
1.1736081
1.1736679
1.1735285
1.1734461
1.1735821
1.1736685
1.1736764
1.1736025
1.1735278
1.17363
1.1736262
1.1735172
1.1735248
1.1735164
1.1736259
1.1735625
1.1735831
1.1735782
1.1735556
1.1736485
1.173683
1.1736264
1.1736745
1.1735692
1.1735326
1.1736535
1.1736852
1.1737092
1.1736262
1.1736082
1.1735718
1.1735933
1.1736712
1.1736249
1.1736874
1.1737028
1.1735906
1.1736332
1.1735923
1.1736757
1.1736773
1.1737774
1.1736674
1.1737248
1.1737392
1.1736777
1.173724
1.1736955
1.1736509
1.1736481
1.1735847
1.1736047
1.1735221
1.1735548
1.1734711
1.1734711
1.173513
1.173475
1.1735744
1.1735201
1.1736618
1.1735751
1.1735918
1.1735414
1.1735139
1.1734685
1.1734404
1.1734793
1.1734876
1.1733663
1.1734795
1.1734254
1.1733645
1.1732902
1.173308
1.1734938
1.1733713
1.1734393
1.1734812
1.1735528
1.1735893
1.1736349
1.1736412
1.1736659
1.1736522
1.1736016
1.1736825
1.1737394
1.1737096
1.1737469
1.1736615
1.1735953
1.1736815
1.1737795
1.1737474
1.1736661
1.1737183
1.1737813
1.1737253
1.1737375
1.1737375
1.1737933
1.173771
1.1737666
1.1737278
1.1736789
1.1736668
1.1736919
1.173694
1.1737469
1.1736388
1.1735553
1.1736519
1.1737391
1.1736703
1.1737446
1.1738112
1.1737821
1.1737371
1.1737273
1.1737236
1.1737329
1.1736818
1.1737662
1.1737467
1.1737741
1.1737877
1.1738182
1.1738285
1.1737931
1.1737964
1.1737549
1.1737947
1.1737788
1.1737935
1.1737708
1.1737961
1.1737981
1.1738179
1.1738148
1.1737791
1.173767
1.1737927
1.1737696
1.1737471
1.1737224
1.173783
1.1738076
1.1738132
1.1738217
1.1737974
1.1737922
1.1737931
1.1737495
1.1738078
1.1738329
1.1737993
1.1738374
1.1738376
1.1737708
1.1738222
1.173824
1.1738289
1.1738387
1.1738464
1.1738032
1.1738654
1.1738736
1.1738471
1.1737715
1.1738175
1.1738394
1.1738131
1.1738266
1.173766
1.1737944
1.1738042
1.1737606
1.1737913
1.1738317
1.1737905
1.1738288
1.1737614
1.1737423
1.173712
1.173713
1.1737868
1.173759
1.173769
1.1737083
1.1737236
1.173713
1.1736773
1.173663
1.1737415
1.1736272
1.1736197
1.1736255
1.1736053
1.1736332
1.1736015
1.1736288
1.1736488
1.1735182
1.1735859
1.1735921
1.173495
1.1734907
1.1735293
1.1734991
1.1734584
1.1734552
1.1734376
1.1735542
1.1734617
1.1734191
1.1733816
1.1733893
1.1735376
1.1734288
1.1734711
1.1734994
1.1735304
1.1735542
1.1735074
1.173477
1.1734302
1.1733896
1.1734396
1.1733742
1.1734276
1.1734745
1.1735436
1.1735658
1.1735439
1.1735819
1.1735551
1.1736043
1.1734846
1.1734617
1.1736151
1.1735333
1.1734842
1.173513
1.1734425
1.17348
1.1734339
1.1735087
1.1734691
1.1733857
1.1733149
1.1733953
1.1733411
1.1732905
1.1733508
1.1732514
1.1733331
1.1734057
1.1733623
1.1734375
1.1734355
1.1735977
1.1736544
1.173687
1.1737587
1.1736454
1.1736613
1.1737388
1.173745
1.1737413
1.1737249
1.1737263
1.1736365
1.1736444
1.1735576
1.1735784
1.1735357
1.1735088
1.1735768
1.1736623
1.173674
1.1735299
1.1735644
1.1735609
1.1736019
1.1737133
1.1736755
1.173682
1.173675
1.1736217
1.173595
1.1736605
1.1736648
1.1736678
1.1736798
1.1737233
1.1737332
1.1738068
1.1737239
1.1737544
1.1737703
1.173774
1.1737312
1.1736603
1.1736476
1.1735462
1.1735602
1.1736249
1.1734518
1.1734972
1.1733114
1.1733653
1.1733576
1.1734157
1.1733645
1.1732862
1.1732091
1.1732719
1.1733718
1.173308
1.173213
1.1731057
1.1732179
1.1733012
1.1733915
1.1734128
1.1734516
1.1736238
1.173562
1.1735302
1.1735022
1.1735189
1.1734927
1.1735188
1.1735386
1.1735982
1.1736664
1.1736744
1.1737377
1.1736069
1.1735913
1.1735858
1.1735727
1.1736098
1.1737379
1.1736491
1.1736801
1.1736129
1.1736029
1.1736857
1.1737499
1.1737343
1.1737848
1.1737324
1.1738267
1.173756
1.1737219
1.1737515
1.1738257
1.1737997
1.1737394
1.1737212
1.1737224
1.1737188
1.1737045
1.1737151
1.1736662
1.1737239
1.1737541
1.1737566
1.1737688
1.1736957
1.173714
1.1737085
1.1737599
1.1737517
1.1737721
1.1737772
1.1737186
1.1736562
1.1735797
1.1735991
1.1735798
1.1735086
1.173427
1.1733646
1.1732963
1.1732094
1.1732975
1.173212
1.1733041
1.1732289
1.1731145
1.1730134
1.1731213
1.1732344
1.1731437
1.1730006
1.1728779
1.1726983
1.1724641
1.1727382
1.1725633
1.172209
1.1722133
1.1724038
1.1720742
1.172401
1.172445
1.1726364
1.1727038
1.1728096
1.1726521
1.1728199
1.1726811
1.1724978
1.1726741
1.1724572
1.1727013
1.1728521
1.1732686
1.1729948
1.1728713
1.172996
1.1727032
1.1728027
1.1727056
1.1725981
1.1725221
1.1727312
1.1730998
1.1725347
1.172726
1.1726383
1.1727785
1.1730228
1.1725679
1.1727827
1.1724776
1.1724281
1.1724471
1.1722002
1.1723434
1.1725052
1.1726457
1.1723925
1.1722643
1.1720887
1.1721996
1.1724851
1.1723038
1.1725068
1.1722274
1.1720995
1.1723412
1.172585
1.1723739
1.1722272
1.1718354
1.1718991
1.1718213
1.1717932
1.1721769
1.1717098
1.1717153
1.1718885
1.1721689
1.1724159
1.172214
1.1718679
1.1722329
1.1727907
1.1716684
1.1719014
1.1712339
1.1718084
1.1714828
1.1709937
1.1709165
1.1709624
1.1724831
1.1718649
1.1731184
1.17206
1.1715938
1.1716237
1.1720734
1.1728151
1.1723385
1.1727731
1.1731473
1.1728136
1.1733092
1.1725377
1.1722994
1.1719812
1.1723594
1.172784
1.1718028
1.1720361
1.1717496
1.1721147
1.1720758
1.1717092
1.1713941
1.1716299
1.1725569
1.1719496
1.1731774
1.1719576
1.1724832
1.1728342
1.172823
1.1730776
1.1732235
1.1731156
1.1728741
1.1726246
1.1723516
1.1723777
1.1717446
1.1716671
1.1720808
1.1724382
1.1724125
1.1732465
1.1731002
1.1730871
1.1730468
1.1732022
1.1733236
1.1734013
1.1734761
1.1734726
1.1734738
1.1736495
1.1735638
1.1734711
1.1733879
1.1733901
1.1733453
1.1734812
1.1734828
1.1735097
1.173491
1.1735275
1.1736643
1.1736586
1.1736982
1.1736844
1.1737214
1.1737105
1.1736966
1.173613
1.1734685
1.1734804
1.1736169
1.1735968
1.1734851
1.1735116
1.173599
1.1736602
1.1735469
1.1735732
1.1736911
1.1737125
1.1736975
1.1737299
1.1737996
1.173727
1.1736372
1.1736317
1.1736516
1.173626
1.1735107
1.1735477
1.1735452
1.1735844
1.1736073
1.1736874
1.1737358
1.1736962
1.1737443
1.173789
1.1737352
1.1737786
1.1738304
1.1737437
1.1737694
1.1736817
1.17369
1.1736818
1.1737475
1.1738293
1.1737256
1.1738151
1.1737261
1.173787
1.1735521
1.1735983
1.1736514
1.1737189
1.1737319
1.1736639
1.1735999
1.1736068
1.1735262
1.1736456
1.1737464
1.173363
1.1734303
1.1735136
1.1736299
1.1737718
1.1736601
1.1737806
1.1738257
1.1737982
1.1738176
1.1738762
1.1738115
1.1737698
1.1737762
1.1737642
1.1736953
1.1736785
1.173703
1.1736638
1.1735896
1.1736368
1.1735878
1.1736279
1.1736358
1.1736348
1.1735968
1.1736774
1.1735874
1.1736569
1.1735872
1.1736584
1.1736201
1.1735464
1.1734739
1.1734524
1.1734906
1.1734721
1.1735817
1.173525
1.1735089
1.1734694
1.173351
1.1733436
1.1732451
1.1732495
1.1733319
1.1731967
1.1731007
1.1730955
1.1731903
1.1733268
1.1733933
1.1735356
1.1735394
1.1733185
1.1733214
1.1733115
1.1733198
1.1733958
1.1735121
1.1732797
1.173344
1.1735288
1.1733961
1.1733135
1.1732094
1.1731947
1.1733263
1.1733886
1.1733994
1.1733611
1.173267
1.1732546
1.1731162
1.1731311
1.1730496
1.1730257
1.172994
1.1729938
1.1731738
1.1731844
1.1731353
1.1732606
1.1732512
1.1734279
1.1734282
1.1733927
1.1732803
1.1732805
1.1732524
1.1732208
1.1732185
1.1733188
1.1734182
1.1732217
1.173227
1.173416
1.1733178
1.1733168
1.1734235
1.173382
1.1732915