/*--------------------------------*- C++ -*----------------------------------*\
  =========                 |
  \\      /  F ield         | OpenFOAM: The Open Source CFD Toolbox
   \\    /   O peration     | Website:  https://openfoam.org
    \\  /    A nd           | Version:  7
     \\/     M anipulation  |
\*---------------------------------------------------------------------------*/
FoamFile
{
    version     2.0;
    format      ascii;
    class       volScalarField;
    location    "430";
    object      nut;
}
// * * * * * * * * * * * * * * * * * * * * * * * * * * * * * * * * * * * * * //

dimensions      [0 2 -1 0 0 0 0];

internalField   nonuniform List<scalar> 
25201
(
6.8134397
6.800546
6.8134573
6.8005827
6.6742193
6.7680452
6.7899628
6.8279074
6.8114571
6.7385393
6.8114435
6.7680304
6.7240529
6.0995514
5.984874
6.5817869
6.4826845
6.3873774
6.3398466
6.0706892
6.263068
6.2728851
6.3508702
6.2122366
6.1937204
6.0168267
6.1438152
6.3965878
6.3343674
6.0758526
6.1241632
6.190595
5.784905
5.8586867
5.9551485
5.9851626
6.1978832
6.1302737
5.8916372
5.8172737
6.0802252
6.0521573
6.04796
5.7459508
5.7793822
5.8321908
6.0775185
6.3975658
6.6672764
6.7240868
6.7764402
6.7277367
6.553936
6.6207159
6.6912587
6.6538985
6.6223094
6.533748
6.5748111
6.3210599
6.3553346
6.4462333
6.4852918
6.544507
6.5798687
6.7222096
6.6538421
6.4285472
6.3742612
6.196018
6.139912
6.1953644
6.4541787
6.5038118
6.4500963
6.0212458
6.074176
6.1427241
6.1572626
6.2185976
6.2993173
6.3716006
6.2472754
6.2651131
6.1845563
6.2974265
6.1429691
6.0997685
5.9661255
6.0422059
5.9564189
5.9118472
5.8951045
5.893984
5.8768132
5.9528051
5.9449002
5.869362
5.7306704
5.8237651
5.8336259
5.7461793
5.7664929
5.8531527
5.8647297
5.7926244
5.633406
5.7348992
5.7990568
5.7789716
5.6928104
5.7061128
5.5966044
5.579745
5.4158473
5.5433098
5.5542312
5.4333035
5.4525024
5.6146268
5.7227037
5.5758599
5.5873746
5.4708638
5.293613
5.4413808
5.5550301
5.7988813
6.0420089
5.8913132
5.8169166
5.7789829
5.8319749
5.8666308
5.9422959
6.0275866
6.1428609
6.247157
6.4461913
6.6222758
6.6538759
6.4852682
6.3209959
6.3552661
6.5336781
6.57476
6.6206648
6.6912344
6.7764081
6.7221857
6.5798466
6.5444783
6.3742052
6.4284743
6.6537856
6.5906894
6.7276824
6.6672156
6.4540816
6.5037422
6.1398113
6.1952397
6.2973475
6.2991712
6.3714887
6.2184144
6.1570547
6.1425868
5.9890035
6.0609534
6.1844689
6.265049
6.112624
6.2115027
6.2720105
6.1439562
6.1126455
6.0850876
5.8488193
5.8777315
5.6644094
5.7289377
5.745163
5.642713
5.6438634
5.5229657
5.6214078
5.6113881
5.4931377
5.3151376
5.4648066
5.5983235
5.8487256
6.084999
5.9117276
5.9561846
5.9657358
5.4520745
5.5755028
5.7223688
5.8527954
5.8645434
5.7924183
5.8948794
5.8935869
5.7660554
5.614255
5.6331751
5.7347035
5.5872146
5.4706527
5.2934489
5.4412527
5.4266847
5.4051652
5.525018
6.8004778
6.8132821
6.6663824
6.3965232
6.3343475
6.0479749
5.8586264
6.1240896
6.0758091
6.0802158
6.0521351
5.7793676
5.7458888
5.7848366
5.8172252
5.8915637
6.1302044
6.1978081
6.1904815
5.955039
5.9850415
6.0996595
6.2727686
6.4825722
0.0010903544
0.0049136982
0.01175994
0.020302346
0.27152596
0.27768533
0.021092764
0.012198186
0.0050890167
0.001120518
0.001135791
0.0052414582
0.01258371
0.021737017
0.28453698
0.28869084
0.022003352
0.012748631
0.005310219
0.0011436908
0.0011469959
0.0053429675
0.012827006
0.022121356
0.2914739
0.29344203
0.022197734
0.012878833
0.0053645156
0.0011490508
0.001150764
0.0053853406
0.012931002
0.022278908
0.29504221
0.29646586
0.022373806
0.012989302
0.0054079153
0.0011524886
0.0011542258
0.005431831
0.013051536
0.022477304
0.2978113
0.2991287
0.022586999
0.013116823
0.0054566704
0.0011559851
0.0011577533
0.0054820366
0.013183218
0.022698867
0.30044141
0.30176327
0.02281353
0.013251189
0.0055078955
0.001159537
0.001161334
0.0055341183
0.013319724
0.022929077
0.30309786
0.30444975
0.023046984
0.013389664
0.0055607946
0.0011631522
0.0011649914
0.0055878538
0.013460209
0.023165812
0.30581894
0.30720835
0.023287086
0.013532226
0.0056154037
0.0011668582
0.0011687516
0.0056433654
0.013604951
0.023409467
0.30861789
0.31005042
0.023534368
0.013679202
0.0056718512
0.0011706792
0.0011726398
0.0057008031
0.013754299
0.02366062
0.31150564
0.3129856
0.023789572
0.01383105
0.0057303373
0.0011746415
0.0011766811
0.0057604007
0.013908805
0.023920125
0.31449032
0.31602237
0.024053456
0.013988261
0.0057910703
0.0011787618
0.0011808801
0.0058222882
0.014068778
0.024188496
0.3175826
0.31917286
0.024326324
0.014150979
0.0058541075
0.0011830404
0.0011852428
0.0058865209
0.014234381
0.024466112
0.32079339
0.32244507
0.024608796
0.014319541
0.0059195764
0.0011874909
0.0011897884
0.0059532616
0.014406
0.024753615
0.32412759
0.32584478
0.024901672
0.014494411
0.0059876735
0.0011921451
0.0011945664
0.006022818
0.014584444
0.02505245
0.32759962
0.32939564
0.025206884
0.014676721
0.0060588145
0.0011970516
0.0011995877
0.0060957011
0.014770811
0.025364112
0.33123365
0.33310639
0.025524068
0.014866429
0.0061331178
0.0012021965
0.37348102
0.023031961
0.013543932
0.0056520054
0.0011522347
0.0011498552
0.0056181557
0.013457437
0.02288836
0.37139729
0.36934608
0.02274628
0.013371613
0.005584441
0.0011475365
0.0011452469
0.0055511566
0.013286369
0.02260499
0.36732577
0.36535224
0.022466921
0.013203273
0.0055187706
0.0011430032
0.0011408185
0.0054870839
0.013121756
0.022331428
0.36342405
0.36153903
0.022199067
0.013042115
0.0054560835
0.0011386873
0.0011365997
0.0054257058
0.012963771
0.022068816
0.35969339
0.35788728
0.021941607
0.012887282
0.005396016
0.0011345572
0.0011325588
0.0053670027
0.012812227
0.02181669
0.3561192
0.35438453
0.021694785
0.012739016
0.0053386583
0.0011306062
0.00112869
0.0053107821
0.012666708
0.021574323
0.35267751
0.35099881
0.021456217
0.012595832
0.0052834122
0.0011268106
0.0011249645
0.0052565051
0.012525805
0.021339419
0.34934803
0.3477264
0.021225095
0.012457281
0.0052301218
0.0011231534
0.0011213735
0.0052041838
0.012389554
0.021111974
0.34613037
0.34455957
0.021001242
0.012323268
0.0051787342
0.0011196253
0.0011179021
0.0051536761
0.012257632
0.020891456
0.34301093
0.34148503
0.020783915
0.012193331
0.0051290505
0.0011162036
0.0011145241
0.0051047846
0.012129575
0.020677153
0.33997829
0.33849079
0.020572574
0.012067098
0.0050809139
0.0011128632
0.0011112136
0.0050573857
0.012005126
0.020468727
0.33701721
0.33555394
0.020367423
0.011944569
0.0050342835
0.0011095771
0.0011079466
0.0050116552
0.01188498
0.020267958
0.33408775
0.33259768
0.020174012
0.011828089
0.0049898154
0.0011063313
0.0011047208
0.0049692079
0.011774739
0.020087679
0.33103879
0.32931719
0.020013186
0.011726502
0.0049499189
0.0011030902
0.0011011152
0.0049300779
0.01167852
0.019942782
0.32724492
0.32438573
0.019836473
0.011606856
0.0048996045
0.0010978127
0.0010906161
0.0048388565
0.011459525
0.019601374
0.32013858
0.31398858
0.019125546
0.011176088
0.0047233461
0.0010762525
0.0010560425
0.0045466118
0.0107535
0.018411813
0.30675235
0.28648586
0.016420724
0.0094814414
0.0040276931
0.0010177675
0.001054179
0.004553486
0.010770925
0.01843651
0.30721431
0.31453131
0.019150985
0.011192414
0.0047296088
0.0010752735
0.0010901584
0.0048454367
0.011475739
0.019626548
0.32059128
0.32473899
0.019856581
0.011619754
0.0049048595
0.0010975513
0.0011009786
0.0049343248
0.011689049
0.019959418
0.32754503
0.3295757
0.02002683
0.011735087
0.0049533585
0.0011030157
0.0011046838
0.0049720234
0.011781834
0.020099092
0.33126277
0.33279169
0.020183718
0.011834107
0.0049921887
0.0011063185
0.0011079505
0.0050136858
0.01189016
0.020276397
0.33425722
0.33570287
0.02037484
0.011949125
0.0050360626
0.0011095921
0.0011112365
0.005058955
0.012009164
0.020475366
0.3371495
0.33860922
0.020578571
0.01207076
0.0050823353
0.001112892
0.0011145572
0.0051060688
0.012132899
0.020682651
0.34008539
0.3415823
0.020788998
0.012196424
0.0051302491
0.0011162408
0.0011179422
0.0051547962
0.012260527
0.020896242
0.34310015
0.34464181
0.021005799
0.012326054
0.0051798141
0.0011196684
0.0011214182
0.005205232
0.012392249
0.021116414
0.34620703
0.34779839
0.021229408
0.012459917
0.0052311466
0.0011231977
0.0011250059
0.0052574959
0.012528356
0.021343634
0.34941581
0.35106159
0.021460318
0.01259832
0.0052843736
0.0011268472
0.0011287203
0.0053117121
0.01266913
0.021578358
0.35273583
0.35444064
0.021698888
0.012741496
0.005339607
0.0011306294
0.0011325743
0.0053679741
0.012814764
0.0218209
0.35617613
0.35794683
0.021945662
0.012889714
0.0053969374
0.0011345638
0.0011365977
0.0054265082
0.012965924
0.022072481
0.35975529
0.36160374
0.022202327
0.013044019
0.0054567826
0.0011386796
0.001140809
0.0054876805
0.013123405
0.022334308
0.36349185
0.36542232
0.022469511
0.013204767
0.0055193094
0.001142997
0.0011452482
0.0055516861
0.013287819
0.022607496
0.36739683
0.36941647
0.022749062
0.013373293
0.0055850739
0.0011475518
0.0011498842
0.0056189573
0.013459492
0.022891696
0.37147124
0.37356079
0.023035911
0.013546404
0.0056530022
0.001152276
0.0011547641
0.0056879073
0.013635581
0.023184052
0.37571369
0.0011958296
0.0060744571
0.014690706
0.025171807
0.33460254
0.33268951
0.025011552
0.014594784
0.0060368476
0.0011931827
0.0011906179
0.0059998531
0.014500455
0.024854179
0.33081964
0.32899136
0.024700232
0.014408216
0.0059637018
0.0011881255
0.0011856742
0.0059280476
0.014316966
0.024547923
0.32719435
0.32543906
0.024398918
0.01422782
0.005893252
0.0011832696
0.0011809245
0.0058592143
0.014140391
0.024252728
0.32372297
0.3220437
0.02410993
0.014055001
0.0058259431
0.0011786384
0.0011764043
0.0057933664
0.013971085
0.023969503
0.32039771
0.31878477
0.023832265
0.013889115
0.0057615263
0.0011742242
0.0011720941
0.0057303115
0.013808452
0.023697117
0.31720182
0.31564891
0.023564915
0.013729558
0.005699744
0.0011700137
0.0011679747
0.0056697073
0.013651718
0.023434385
0.31412233
0.31262305
0.02330651
0.013575474
0.0056402467
0.0011659762
0.0011640129
0.0056112849
0.013500186
0.023180118
0.31114857
0.30969997
0.023056353
0.013426467
0.0055828743
0.0011620858
0.0011601897
0.0055549316
0.013353617
0.022933919
0.30827424
0.30687261
0.02281404
0.013282287
0.0055275117
0.001158325
0.0011564867
0.00550053
0.013211736
0.022695332
0.30549164
0.3041326
0.02257911
0.013142654
0.0054740433
0.0011546754
0.0011528843
0.0054479644
0.013074257
0.022463876
0.30279167
0.30147002
0.022351094
0.013007293
0.0054223572
0.0011511139
0.0011493559
0.0053971511
0.012941003
0.022239315
0.30016239
0.29886648
0.02213049
0.012876356
0.005372471
0.0011476119
0.0011458766
0.0053483943
0.012813029
0.022024124
0.29756911
0.29625152
0.021924437
0.012752989
0.0053253309
0.0011441603
0.0011424568
0.0053038414
0.012697481
0.021834324
0.29486945
0.29333314
0.021758907
0.0126485
0.0052841956
0.0011407406
0.0011386407
0.0052641732
0.012600455
0.021689208
0.29145834
0.28881113
0.02157607
0.01252459
0.0052321737
0.0011349556
0.0011265534
0.0051672869
0.01236487
0.021315963
0.2848929
0.27940083
0.020782865
0.012054851
0.0050441019
0.0011094377
0.00108268
0.0048746959
0.011628906
0.020025978
0.27325155
0.27259572
0.020364515
0.011816786
0.0049463705
0.0010864446
0.0011206558
0.0050823081
0.012175837
0.021060707
0.27753091
0.28474026
0.021757711
0.012596717
0.0052463687
0.0011357934
0.0011438044
0.0053131271
0.012755339
0.022014263
0.28880893
0.29160627
0.022133239
0.012834314
0.0053457906
0.0011470612
0.0011491001
0.0053667359
0.012884264
0.022206483
0.29356105
0.29515585
0.022287665
0.01293636
0.0053873628
0.00115081
0.0011525348
0.0054097075
0.012993725
0.022380951
0.29657122
0.29791119
0.022484852
0.013056135
0.0054335489
0.0011542782
0.0011560375
0.0054582305
0.013120681
0.022593268
0.29922122
0.30052965
0.022705609
0.013187307
0.0054835528
0.00115781
0.0011595933
0.0055092855
0.013254636
0.022819167
0.30184594
0.30317759
0.022935218
0.013323431
0.0055354891
0.0011613939
0.0011632112
0.0055620769
0.013392837
0.023052191
0.30452527
0.30589255
0.023171587
0.013463695
0.0055891439
0.0011650537
0.0011669198
0.0056166275
0.01353525
0.023292055
0.30727899
0.30868738
0.023415054
0.013608335
0.0056446275
0.0011688165
0.0011707421
0.0056730837
0.013682233
0.023539339
0.31011724
0.31157109
0.02366625
0.013757721
0.0057020851
0.0011727031
0.0011746991
0.0057315827
0.013834131
0.023794643
0.31304865
0.31455223
0.023925801
0.013912216
0.0057616681
0.0011767357
0.0011788136
0.0057922992
0.013991363
0.024058683
0.31608126
0.31763803
0.024194478
0.01407229
0.0058235766
0.001180939
0.0011831112
0.0058554455
0.014154402
0.024332202
0.31922212
0.32083629
0.024472913
0.014238333
0.0058879805
0.0011853346
0.0011876085
0.0059211462
0.014323559
0.024615739
0.32248164
0.32416237
0.024761695
0.014410707
0.0059550334
0.0011899359
0.0011923131
0.0059895824
0.014499242
0.024909928
0.32588025
0.32763903
0.025061254
0.014589657
0.0060248347
0.0011947428
0.0011972231
0.0060607839
0.014681572
0.025215054
0.32944014
0.33128587
0.02537239
0.014775657
0.0060975646
0.0011997627
0.0012023715
0.0061352682
0.014871743
0.025532939
0.33317754
0.33511312
0.025696937
0.01496989
0.0061737469
0.0012050536
0.001195795
0.0060740844
0.014689772
0.02517026
0.33458845
0.33267946
0.025010088
0.014593907
0.0060364984
0.0011931455
0.001190578
0.0059994945
0.014499564
0.024852695
0.33081214
0.32898467
0.024698687
0.014407289
0.0059633248
0.0011880844
0.0011856334
0.0059276542
0.014315992
0.024546294
0.32718762
0.32543022
0.024397228
0.014226813
0.0058928468
0.0011832315
0.0011808904
0.0058588006
0.014139352
0.024250974
0.32371088
0.32202818
0.024108129
0.014053944
0.0058255296
0.0011786092
0.0011763798
0.0057929484
0.013970007
0.023967666
0.3203791
0.31876432
0.02383044
0.013888038
0.0057611079
0.0011742027
0.0011720752
0.0057299139
0.013807422
0.023695383
0.31718095
0.31562854
0.023563303
0.013728594
0.0056993689
0.001169997
0.0011679596
0.0056693617
0.013650831
0.02343291
0.31410315
0.31260518
0.023305165
0.013574659
0.0056399262
0.0011659622
0.0011639996
0.0056109901
0.013499442
0.023178897
0.31113197
0.30968421
0.023055215
0.013425771
0.0055825989
0.0011620735
0.0011601785
0.0055546721
0.013352963
0.022932849
0.30825911
0.30685759
0.022812995
0.013281642
0.0055272536
0.0011583146
0.001156477
0.0055002846
0.013211113
0.022694319
0.30547653
0.30411703
0.022578082
0.013142023
0.0054737948
0.0011546666
0.001152876
0.0054477109
0.013073611
0.022462822
0.30277567
0.30145326
0.022350011
0.013006627
0.0054220954
0.001151106
0.0011493484
0.0053968799
0.012940312
0.022238188
0.30014485
0.29884815
0.022129302
0.012875623
0.005372186
0.0011476051
0.0011458698
0.0053480898
0.012812251
0.022022868
0.29755033
0.29623226
0.021923106
0.012752168
0.0053250118
0.0011441532
0.001142449
0.0053035268
0.01269665
0.021832955
0.29485057
0.29331569
0.021757456
0.012647627
0.0052838625
0.0011407291
0.0011386205
0.0052639186
0.012599707
0.021687834
0.29144538
0.28880715
0.021574563
0.012523779
0.0052318774
0.0011349212
0.0011264406
0.0051665768
0.012363171
0.021312945
0.28489601
0.27942706
0.020778264
0.012052361
0.0050431334
0.0011093001
0.0010819209
0.0048720105
0.011624248
0.02001758
0.2733965
0.30804639
0.018487575
0.010821658
0.0045805905
0.0010503386
0.0010750857
0.0047246897
0.011173958
0.019121355
0.31426509
0.32060283
0.019629088
0.011477426
0.0048459354
0.001090145
0.0010976862
0.0049049675
0.011619187
0.019855574
0.32472667
0.32750963
0.019957835
0.011688017
0.0049338868
0.001101031
0.0011030341
0.0049526417
0.011732976
0.02002336
0.32952045
0.33120005
0.020096212
0.011780058
0.0049712711
0.0011046835
0.0011063074
0.004991409
0.011831895
0.02018004
0.33272739
0.33419643
0.020273685
0.01188851
0.0050129868
0.0011079362
0.0011095724
0.0050353588
0.011947115
0.020371494
0.3356447
0.33709606
0.020472938
0.012007695
0.005058331
0.0011112166
0.0011128683
0.0050816926
0.012068921
0.020575517
0.33855842
0.34003866
0.020680423
0.012131556
0.0051054989
0.0011145343
0.0011162143
0.005129657
0.012194723
0.020786173
0.34153772
0.34305902
0.020894159
0.012259269
0.005154262
0.0011179157
0.0011196377
0.0051792414
0.012324415
0.021003089
0.34460223
0.3461701
0.021114318
0.012390982
0.0052046936
0.0011213868
0.0011231605
0.0052305496
0.012458232
0.021226635
0.34776209
0.34938069
0.021341307
0.012526941
0.0052568966
0.0011249657
0.0011268016
0.0052836939
0.012596444
0.021457247
0.35102565
0.35269968
0.021575638
0.012667472
0.0053110183
0.0011286734
0.0011305815
0.0053388378
0.012739411
0.021695492
0.35440254
0.35613728
0.021817941
0.012812951
0.005367224
0.0011325326
0.0011345319
0.005396174
0.012887649
0.021942315
0.35790645
0.35971521
0.022069889
0.012964334
0.0054258579
0.0011365847
0.0011386853
0.0054562163
0.013042424
0.022199739
0.36156376
0.36345313
0.022332668
0.01312242
0.0054872888
0.0011408364
0.001143039
0.0055190269
0.013203841
0.022467963
0.36538393
0.36735882
0.022606563
0.0132873
0.0055515011
0.0011452974
0.0011475933
0.0055848213
0.01337245
0.022747651
0.36937756
0.37142882
0.022890291
0.013458664
0.0056186428
0.0011499129
0.0011522867
0.0056525837
0.013545164
0.023033836
0.37351339
0.37565797
0.023181588
0.013634118
0.0056873652
0.0011547566
0.33503143
0.025689919
0.014965714
0.0061721122
0.0012049466
0.0012022513
0.0061335918
0.014867442
0.025525644
0.33310338
0.33122939
0.025366036
0.014771995
0.0060961604
0.0011996516
0.0011971152
0.0060592191
0.01467765
0.025208435
0.32938927
0.32759326
0.025054134
0.014585446
0.0060231867
0.0011946234
0.0011921839
0.0059879017
0.014494914
0.024902545
0.32583954
0.3241261
0.024754355
0.014406416
0.0059533737
0.0011898042
0.0011874797
0.0059195425
0.014319409
0.024608596
0.32244781
0.32080312
0.024465999
0.014234305
0.0058864295
0.0011852111
0.0011829935
0.0058539563
0.014150547
0.024325571
0.31918807
0.31760347
0.024188311
0.014068693
0.0058221942
0.0011808308
0.0011787175
0.0057910229
0.01398805
0.024053001
0.31604515
0.31451434
0.023920569
0.013909131
0.0057604805
0.0011766507
0.0011746232
0.0057304694
0.01383125
0.023789761
0.31300798
0.31152761
0.023661621
0.013754959
0.0057010204
0.0011726341
0.0011706783
0.0056720603
0.01367958
0.023534868
0.31007056
0.30863847
0.023410685
0.013605718
0.00564362
0.0011687555
0.0011668611
0.0056156376
0.013532671
0.023287713
0.30722792
0.3058404
0.023167242
0.013461095
0.0055881487
0.0011649961
0.001163154
0.0055610802
0.013390233
0.023047807
0.30447168
0.30312358
0.022930812
0.013320799
0.0055344852
0.0011613365
0.0011595358
0.0055082778
0.013251987
0.022814704
0.3017912
0.3004752
0.022701123
0.01318462
0.0054825334
0.0011577525
0.00115598
0.0054572143
0.013118002
0.022588755
0.29916662
0.29785723
0.022480334
0.013053425
0.0054325255
0.0011542204
0.0011524769
0.0054087127
0.012991083
0.022376486
0.29651774
0.29510407
0.022283342
0.012933791
0.0053864069
0.0011507522
0.0011490437
0.0053659489
0.012882078
0.02220266
0.29351149
0.29156065
0.022129914
0.012832373
0.0053451033
0.0011470026
0.001143729
0.0053131455
0.012755123
0.022013596
0.28878285
0.28470747
0.021753864
0.012593633
0.0052450398
0.0011356148
0.0011200052
0.0050852081
0.012182323
0.021069419
0.2775779
0.27237205
0.020353717
0.011811273
0.0049444106
0.0010855152
0.0010902649
0.0049260228
0.011787868
0.020343578
0.27196411
0.27797299
0.021108201
0.012208501
0.0050935081
0.0011200984
0.0011354742
0.0052449123
0.01259186
0.021749526
0.28478566
0.28890306
0.022015047
0.01275591
0.0053131309
0.0011435287
0.0011469317
0.0053458883
0.012834345
0.022133191
0.29166398
0.29360401
0.022208387
0.012885407
0.0053671007
0.001149039
0.0011507813
0.0053877121
0.012937031
0.022288653
0.29518503
0.29659286
0.022382543
0.012994695
0.0054100279
0.0011525215
0.0011542679
0.005433748
0.013056445
0.022485274
0.29792575
0.29923255
0.022594264
0.013121291
0.0054584151
0.0011560318
0.0011578023
0.0054836314
0.013187323
0.022705568
0.30053675
0.30185169
0.022819736
0.013254985
0.0055093665
0.0011595882
0.0011613874
0.0055354984
0.013323286
0.022934923
0.30318062
0.3045281
0.023052517
0.013393031
0.0055620978
0.0011632071
0.0011650477
0.0055890973
0.013463432
0.023171126
0.30589385
0.30728084
0.023292209
0.013535333
0.0056166051
0.0011669163
0.001168811
0.0056445471
0.013607997
0.023414496
0.30868862
0.31012009
0.023539337
0.013682212
0.0056730219
0.0011707385
0.0011726972
0.0057019704
0.013757302
0.023665578
0.31157498
0.31305589
0.02379446
0.013834001
0.005731483
0.0011746922
0.0011767214
0.0057614974
0.013911657
0.023924893
0.31456288
0.316098
0.024058008
0.013990955
0.0057920978
0.0011787897
0.0011808961
0.005823231
0.014071286
0.024192791
0.31766091
0.3192537
0.024330356
0.014153312
0.0058549781
0.0011830471
0.0011852428
0.0058873329
0.014236579
0.024469924
0.3208756
0.32252792
0.024612481
0.014321686
0.0059203722
0.0011874886
0.0011897886
0.0059540842
0.01440821
0.024757373
0.32421278
0.32593504
0.024905735
0.014496834
0.005988587
0.0011921515
0.0011945804
0.0060238575
0.014587182
0.025057008
0.32769547
0.32949749
0.02521195
0.014679781
0.0060599868
0.0011970752
0.0011996242
0.0060969944
0.014774104
0.025369516
0.33133592
0.3332043
0.025529563
0.014869771
0.0061344462
0.0012022442
0.0012049631
0.0061730467
0.014968192
0.025694124
0.33512774
6.8849883
6.8811313
6.8849705
6.8810959
6.8286764
6.8537236
6.8637197
6.9019784
6.8961857
6.8537367
6.8000994
6.8589118
6.8961732
6.8786821
6.823899
6.7895573
6.7584526
6.6360993
6.6740297
6.5450685
6.7340122
6.6992264
6.4871339
6.3244912
6.6422313
6.7927133
6.8515631
6.7312878
6.7773899
6.8128866
6.8544844
6.7672274
6.7280675
6.6053132
6.6638791
6.5352788
6.771877
6.738437
6.6953661
6.6399904
6.6815534
6.3929359
6.2899347
6.2161684
6.5993603
6.5423757
6.505322
6.5538539
6.195899
6.2575662
6.1446289
6.0795612
6.0210866
6.0740272
6.3974338
6.4499955
6.4500069
6.6671974
6.800453
6.8132612
6.7678851
6.723925
0.27407966
0.02001879
0.011627403
0.0048734834
0.0010871691
0.0011110311
0.0050372218
0.01203613
0.020749008
0.27948578
0.28473019
0.021284641
0.012345885
0.005159623
0.0011270872
0.0011352186
0.0052262819
0.012509889
0.021552637
0.28860833
0.29128917
0.021674677
0.012590979
0.0052602006
0.0011388003
0.0011408498
0.0052813286
0.012641397
0.021748071
0.29319856
0.29476867
0.021827551
0.012692873
0.0053018555
0.001142538
0.0011442202
0.0053238508
0.012749253
0.021918829
0.2961738
0.29751214
0.022020926
0.01281076
0.0053473743
0.0011459271
0.0011476528
0.0053717165
0.012874394
0.022127604
0.29882314
0.30013183
0.022238132
0.012940057
0.0053966758
0.001149394
0.0011511468
0.0054220207
0.013006373
0.022349816
0.30144734
0.30277692
0.02246388
0.013074094
0.0054478122
0.0011529173
0.0011547048
0.0054739558
0.013142356
0.02257879
0.30412165
0.30548503
0.022696027
0.013212029
0.0055005644
0.001156517
0.0011583531
0.0055275714
0.013282363
0.022814293
0.30686697
0.30827009
0.022935005
0.013354183
0.0055550798
0.0011602193
0.0011621146
0.0055830302
0.013426788
0.02305697
0.30969432
0.31114202
0.023181507
0.013500964
0.0056115254
0.0011640458
0.0011660106
0.0056405146
0.013576065
0.023307533
0.31261338
0.31411065
0.023436253
0.013652807
0.0056700788
0.0011680148
0.0011700577
0.0057001778
0.013730583
0.023566654
0.31563395
0.31718527
0.023699869
0.013810077
0.0057308948
0.0011721449
0.0011742749
0.0057621848
0.013890717
0.023834951
0.31876469
0.32037488
0.023972942
0.013973131
0.0057941227
0.0011764532
0.0011786795
0.0058266775
0.014056804
0.024112993
0.32201663
0.32369326
0.024256061
0.01414233
0.0058599216
0.0011809581
0.0011832889
0.0058938295
0.014229249
0.024401417
0.32540616
0.32715822
0.024549924
0.014318105
0.0059284732
0.0011856764
0.0011881209
0.0059638244
0.014408476
0.024700913
0.32895096
0.33078627
0.024855309
0.014500948
0.0059999921
0.0011906292
0.0011932041
0.0060369479
0.014595167
0.025012597
0.33266527
0.33459003
0.025173507
0.014691591
0.0060747502
0.0011958525
0.0011931401
0.0060360946
0.014592928
0.025008546
0.33263182
0.33076528
0.02485205
0.014499173
0.0059993265
0.0011905797
0.0011880853
0.0059631939
0.014406851
0.024697956
0.3289389
0.32714391
0.024545638
0.014315552
0.0059274408
0.0011856299
0.0011832195
0.0058925035
0.01422589
0.024395768
0.32538928
0.32367529
0.024249417
0.014138372
0.0058583752
0.00118087
0.0011785765
0.0058249509
0.014052396
0.024105585
0.32199654
0.32035116
0.023965005
0.013968384
0.0057922704
0.0011763385
0.001174155
0.0057603194
0.013885912
0.023826878
0.31873686
0.3171551
0.023692289
0.013805591
0.0057291767
0.0011720294
0.0011699525
0.0056986824
0.013726654
0.023559955
0.31560364
0.31407831
0.023430294
0.013649281
0.0056687341
0.0011679191
0.0011659232
0.0056392191
0.013572722
0.02330193
0.3125755
0.31109839
0.023176194
0.013497762
0.005610286
0.0011639665
0.0011620422
0.0055818371
0.013423689
0.023051794
0.30964405
0.30821392
0.022929867
0.01335109
0.0055538934
0.0011601506
0.0011582861
0.005526372
0.01327923
0.022809046
0.30680495
0.3054186
0.022690632
0.013208791
0.0054993262
0.0011564501
0.001154637
0.0054726748
0.013139009
0.022573175
0.30405078
0.30270253
0.022458078
0.013070606
0.0054464773
0.0011528483
0.0011510771
0.0054206362
0.013002758
0.022343772
0.30136891
0.30005013
0.022231877
0.01293629
0.005395236
0.0011493236
0.0011475824
0.0053702133
0.012870465
0.022121051
0.29873722
0.29742264
0.022014052
0.012806603
0.0053457851
0.0011458565
0.0011441504
0.0053221702
0.012744865
0.021911541
0.29607928
0.29466849
0.021819851
0.012688202
0.0053000661
0.0011424721
0.001140792
0.0052794459
0.012636525
0.021740036
0.29308994
0.29116336
0.021666677
0.012585984
0.005258238
0.0011387723
0.001135239
0.0052243599
0.012505502
0.021546355
0.28844549
0.28442193
0.02127899
0.01234024
0.0051567074
0.0011272136
0.0011111702
0.0050340232
0.012032677
0.020752068
0.27890125
0.27263435
0.019993959
0.011597259
0.0048581571
0.001086953
0.0010506821
0.0045460311
0.010806448
0.018666725
0.26129231
0.27250507
0.02140312
0.012319512
0.0050948312
0.0011035954
0.0010899784
0.0049696701
0.011868623
0.020444095
0.27402965
0.27777768
0.021066668
0.012181947
0.0050857389
0.0011220497
0.0011362534
0.0052444456
0.012591035
0.021747027
0.28475977
0.28871597
0.022002347
0.012748012
0.0053102089
0.0011440866
0.0011472519
0.0053434481
0.012828253
0.022123509
0.29150296
0.29346058
0.022199231
0.012879532
0.0053647326
0.0011492425
0.001150912
0.0053856946
0.012932053
0.022280921
0.29506559
0.29649278
0.022376079
0.012990518
0.0054083333
0.0011526116
0.0011543325
0.0054323479
0.013052993
0.022479939
0.29784268
0.29916341
0.022589909
0.013118461
0.0054572666
0.0011560806
0.0011578401
0.0054826977
0.013185014
0.022702012
0.30047898
0.30180295
0.022816854
0.013253104
0.0055086035
0.0011596178
0.0011614105
0.0055348693
0.013321735
0.022932541
0.30313898
0.30449196
0.023050594
0.01339177
0.0055615857
0.0011632259
0.0011650631
0.005588682
0.013462408
0.02316956
0.30586191
0.30725209
0.023290942
0.013534501
0.0056162665
0.0011669287
0.0011688215
0.0056442724
0.013607327
0.023413465
0.30866188
0.31009424
0.023538563
0.013681704
0.0056728116
0.0011707479
0.0011727051
0.0057018174
0.013756932
0.023665009
0.31154874
0.3130281
0.023794114
0.013833761
0.0057313767
0.001174699
0.0011767295
0.0057614401
0.013911545
0.02392475
0.31453192
0.31606289
0.024058147
0.013991005
0.0057921005
0.0011788022
0.0011809163
0.0058233104
0.01407154
0.024193288
0.3176207
0.31920827
0.02433131
0.014153831
0.0058551551
0.0011830773
0.0011852862
0.005887593
0.014237323
0.024471294
0.32082625
0.322477
0.024614317
0.014322677
0.005920727
0.0011875482
0.0011898622
0.0059545265
0.014409418
0.024759588
0.32416061
0.32588026
0.024908092
0.014498143
0.0059890707
0.001192234
0.0011946648
0.0060243594
0.014588457
0.025059183
0.32763689
0.32943338
0.025213899
0.014681019
0.0060605146
0.0011971607
0.0011997276
0.0060976417
0.014775677
0.02537191
0.3312712
0.33315222
0.025534244
0.014873409
0.0061362243
0.0012023762
0.0012050943
0.0061774972
0.014974606
0.025699462
0.33507762
0.001193137
0.0060357822
0.014592321
0.025007774
0.3326395
0.3307595
0.02484951
0.01449753
0.0059986505
0.0011905495
0.0011880342
0.0059624215
0.014404828
0.02469463
0.32892677
0.32714082
0.024543801
0.014314603
0.0059271589
0.0011855901
0.0011832089
0.0058926431
0.014226076
0.024395801
0.32539486
0.32368669
0.024251118
0.014139536
0.0058588796
0.0011808903
0.0011786265
0.0058257918
0.014054428
0.024108758
0.32201212
0.32037128
0.02396953
0.013971215
0.0057934145
0.0011764166
0.0011742566
0.0057615733
0.013889139
0.023832188
0.31875904
0.31716701
0.023696285
0.013807837
0.0057299733
0.0011721256
0.0011700205
0.0056989991
0.013727633
0.023561924
0.31560233
0.31406846
0.023430538
0.013649259
0.0056686923
0.0011679521
0.0011659393
0.0056392659
0.013572793
0.023302109
0.31256977
0.31109684
0.023176541
0.013497944
0.0056103602
0.0011639782
0.0011620518
0.0055819157
0.013423913
0.023052215
0.30964487
0.30821532
0.022930277
0.013351315
0.0055539747
0.0011601596
0.0011582965
0.0055264515
0.013279447
0.022809418
0.30680563
0.30541757
0.022690909
0.013208961
0.0054993908
0.0011564622
0.0011546509
0.0054727151
0.01313911
0.022573338
0.30404789
0.30269745
0.022458087
0.013070612
0.0054464783
0.0011528637
0.0011510939
0.0054206027
0.013002678
0.022343641
0.30136164
0.30004005
0.022231558
0.012936085
0.0053951477
0.0011493425
0.0011476041
0.0053700737
0.012870139
0.022120548
0.29872402
0.29740576
0.022013352
0.012806147
0.0053455881
0.0011458822
0.001144182
0.0053219291
0.012744301
0.02191067
0.29605873
0.29464448
0.021818764
0.012687498
0.0052997657
0.0011425112
0.0011408409
0.0052791259
0.012635757
0.021738819
0.29306461
0.2911406
0.02166515
0.012585009
0.0052578177
0.0011388295
0.0011353112
0.0052240876
0.012504824
0.021545216
0.28844294
0.28446938
0.021279842
0.012340856
0.0051569896
0.0011273206
0.0011113746
0.0050356696
0.012036775
0.020758796
0.27904804
0.27288641
0.020008357
0.011604936
0.0048611812
0.001087374
0.0010517903
0.0045725996
0.010874119
0.018775391
0.262397
0.29041928
0.016823368
0.0097368606
0.0041280097
0.0010268092
0.0010831998
0.0048182888
0.011510652
0.019826502
0.26761775
0.27116779
0.019930412
0.01157939
0.0048463788
0.0010798435
0.0010859565
0.0048685827
0.011615514
0.020001606
0.2738914
0.27946794
0.020751337
0.012037631
0.0050379886
0.0011107012
0.0011268298
0.0051592308
0.01234512
0.021283752
0.28474686
0.2886763