/*--------------------------------*- C++ -*----------------------------------*\
  =========                 |
  \\      /  F ield         | OpenFOAM: The Open Source CFD Toolbox
   \\    /   O peration     | Website:  https://openfoam.org
    \\  /    A nd           | Version:  7
     \\/     M anipulation  |
\*---------------------------------------------------------------------------*/
FoamFile
{
    version     2.0;
    format      ascii;
    class       volVectorField;
    location    "430";
    object      U;
}
// * * * * * * * * * * * * * * * * * * * * * * * * * * * * * * * * * * * * * //

dimensions      [0 1 -1 0 0 0 0];

internalField   nonuniform List<vector> 
25201
(
(120.03248 0.020712863 0.013750594)
(120.03513 0.025636481 0.0046763668)
(120.03217 0.014315637 0.020312116)
(120.03407 0.0050944287 0.025206578)
(120.02004 0.020004021 0.018994984)
(120.03161 0.014800278 0.019887944)
(120.03225 0.018244322 0.017454883)
(120.03616 0.024382464 0.02388263)
(120.03772 0.018515956 0.025192072)
(120.02916 0.020263126 0.019746203)
(120.03802 0.025717196 0.018028449)
(120.03212 0.020623912 0.013836476)
(120.02606 0.025784468 0.010272918)
(119.96123 0.061906928 0.032276366)
(119.95055 0.073005882 0.030190748)
(120.01344 0.019089144 0.026432284)
(120.00199 0.017364225 0.032899448)
(119.9948 0.028523732 0.036333564)
(119.99458 0.027991607 0.047345646)
(119.97074 0.038638254 0.068980493)
(119.9866 0.026897343 0.056707765)
(119.97585 0.023363868 0.050924022)
(119.98486 0.024922109 0.04310372)
(119.96939 0.033888171 0.051215584)
(119.98101 0.038982962 0.058151656)
(119.9683 0.052208023 0.069450247)
(119.97406 0.048754244 0.046659508)
(119.99398 0.012393585 0.040949006)
(119.98777 0.002988674 0.045904081)
(119.96936 0.011666459 0.079880127)
(119.97372 0.018854361 0.074220474)
(119.98042 0.0244279 0.065446122)
(119.94261 0.018712883 0.10516259)
(119.95057 0.029301082 0.095347051)
(119.96022 0.036357562 0.083379991)
(119.94649 0.029651905 0.069958711)
(119.96862 0.020587707 0.057588868)
(119.96129 0.015564929 0.064269598)
(119.93648 0.023248077 0.078341613)
(119.92832 0.014373616 0.085065438)
(119.95644 0.0093961032 0.068239033)
(119.95331 0.0012412211 0.070673894)
(119.96632 0.0018133712 0.083273158)
(119.93825 0.0041099955 0.10986287)
(119.92408 0.0028251347 0.088126434)
(119.92005 0.0017599739 0.071561142)
(119.94723 0.00099125683 0.058954536)
(119.97956 0.0026047426 0.037747301)
(120.01767 0.0027922543 0.029190523)
(120.02487 0.011104415 0.024929353)
(120.03253 0.013231043 0.028334702)
(120.02592 0.0032342565 0.02982166)
(119.99379 0.0068415712 0.025607523)
(120.00272 0.011621882 0.024506666)
(120.01553 0.015465432 0.023578328)
(120.01038 0.015773973 0.02405746)
(120.00959 0.01797957 0.026582417)
(119.99569 0.015611374 0.030302686)
(119.99666 0.01270682 0.027546683)
(119.96784 0.016229409 0.029038423)
(119.97679 0.018645446 0.033612)
(119.9867 0.022973163 0.030769497)
(119.98713 0.018813606 0.023896312)
(119.99408 0.015244293 0.020267756)
(120.0027 0.013802657 0.018303109)
(120.02263 0.015318632 0.023464516)
(120.0109 0.011185329 0.023528406)
(119.98451 0.010049013 0.018772623)
(119.97343 0.011087422 0.021551858)
(119.95603 0.0068085716 0.023547309)
(119.94986 0.010321004 0.034354746)
(119.95952 0.01408954 0.042458512)
(119.98634 0.010047102 0.035116938)
(119.9876 0.007793876 0.030164047)
(119.98087 0.0017761106 0.031531119)
(119.9389 0.0026165041 0.036951548)
(119.94704 0.0058320502 0.048032473)
(119.95189 0.010193032 0.046321166)
(119.9553 0.013074615 0.054532649)
(119.96259 0.017362848 0.049547073)
(119.97027 0.020233642 0.044812175)
(119.97985 0.022100962 0.038957523)
(119.96349 0.028832159 0.044640127)
(119.96039 0.024494026 0.037610468)
(119.9499 0.022168209 0.043271619)
(119.96701 0.016964629 0.038975881)
(119.95278 0.026086715 0.051365556)
(119.9582 0.032709621 0.059580075)
(119.95062 0.045373134 0.07074436)
(119.9547 0.043965016 0.058419522)
(119.94528 0.04025889 0.063172214)
(119.93208 0.03583745 0.056387019)
(119.93692 0.038769197 0.070503702)
(119.9427 0.043658575 0.078487212)
(119.94955 0.048367608 0.086013378)
(119.95717 0.049425313 0.077003562)
(119.96718 0.054499063 0.08395039)
(119.95983 0.053530182 0.093583841)
(119.94978 0.063097285 0.10494586)
(119.95746 0.063676657 0.094135342)
(119.94711 0.058003853 0.086026545)
(119.9395 0.05729027 0.096001873)
(119.93242 0.050845765 0.085839291)
(119.93998 0.052971924 0.077998223)
(119.93406 0.047668359 0.069589577)
(119.92614 0.045763184 0.076945597)
(119.91305 0.051963542 0.081853694)
(119.92296 0.052909342 0.074390874)
(119.93253 0.058299825 0.069202953)
(119.94825 0.071965006 0.08468517)
(119.9478 0.073998952 0.10324873)
(119.93645 0.06665712 0.093143751)
(119.92639 0.068437387 0.10525709)
(119.93735 0.076176624 0.1169704)
(119.92267 0.089254997 0.12880724)
(119.93432 0.087908043 0.11315752)
(119.92264 0.078499586 0.10133216)
(119.91126 0.079629509 0.11501636)
(119.90353 0.068877473 0.10156352)
(119.9186 0.059696956 0.093330106)
(119.929 0.060027332 0.084010346)
(119.91486 0.069952714 0.091052492)
(119.90924 0.061187344 0.079927007)
(119.89837 0.060310978 0.088963017)
(119.88157 0.070559818 0.094277346)
(119.89633 0.070007604 0.08375002)
(119.91077 0.076569764 0.075774726)
(119.93351 0.070808777 0.057629489)
(119.95631 0.060432047 0.043077565)
(119.94155 0.082464542 0.02488469)
(119.93412 0.090771173 0.017189446)
(119.93031 0.095669915 0.0065535792)
(119.92324 0.078720908 0.0054723528)
(119.92706 0.074991291 0.013799171)
(119.93472 0.068754352 0.019966094)
(119.94359 0.061787371 0.02454974)
(119.9548 0.05346702 0.026465109)
(119.96491 0.046280045 0.028538165)
(119.98741 0.032034384 0.022134983)
(120.01056 0.027780061 0.016898655)
(120.011 0.025045882 0.015265104)
(119.98748 0.024713533 0.018545779)
(119.96843 0.030290243 0.016690493)
(119.978 0.035103304 0.018486784)
(119.99751 0.031677717 0.014995428)
(119.99767 0.028793598 0.012630751)
(120.00326 0.025516162 0.01170417)
(120.01592 0.024358545 0.015176911)
(120.03314 0.029108776 0.012927556)
(120.02288 0.024096499 0.015137006)
(120.00279 0.018746302 0.01374866)
(119.99426 0.020863887 0.015145711)
(119.97363 0.02243115 0.01158465)
(119.98453 0.019411631 0.010405562)
(120.01119 0.024331226 0.011273191)
(120.00293 0.024820277 0.0071766763)
(120.02681 0.031064139 0.0032807055)
(120.01979 0.030555609 0.0025150555)
(119.98886 0.0371352 0.010141109)
(119.98888 0.032020546 0.008226764)
(119.95048 0.03665641 0.011802195)
(119.96133 0.044828408 0.014924209)
(119.96854 0.040809738 0.017253884)
(119.97256 0.046769092 0.020092718)
(119.98154 0.040592828 0.021457769)
(119.96539 0.05202854 0.017779775)
(119.95859 0.057834805 0.014172502)
(119.95387 0.049486783 0.01160177)
(119.93111 0.056741707 0.016329976)
(119.94035 0.051491622 0.020014808)
(119.95118 0.045076204 0.022892642)
(119.96133 0.038977752 0.02466586)
(119.94599 0.040082212 0.029715519)
(119.96159 0.034736057 0.033842101)
(119.96163 0.02393786 0.023655365)
(119.94591 0.024046447 0.032044178)
(119.94537 0.02934949 0.039031391)
(119.94816 0.036708314 0.048429039)
(119.92543 0.044563487 0.055144813)
(119.92374 0.036194623 0.042696328)
(119.90622 0.03470214 0.050322957)
(119.91607 0.03952829 0.057780876)
(119.91842 0.046154157 0.066552754)
(119.90778 0.044842525 0.072918971)
(119.90615 0.038920689 0.064306374)
(119.89314 0.045129525 0.068464673)
(119.90299 0.046412318 0.062122775)
(119.9055 0.052986163 0.070797905)
(119.89517 0.051019831 0.077492661)
(119.87921 0.059104505 0.08114317)
(119.89326 0.060103168 0.073373894)
(119.90415 0.057242209 0.057291583)
(119.92604 0.056112874 0.044720809)
(119.94919 0.049934813 0.036585114)
(119.93365 0.058382933 0.036788504)
(119.94757 0.065480487 0.040198724)
(119.95349 0.073243768 0.044747138)
(119.90611 0.10417936 0.069957889)
(119.91667 0.093161256 0.070090867)
(119.93125 0.086372593 0.05991466)
(119.9426 0.080428712 0.052651754)
(119.9361 0.071736339 0.047914461)
(119.92871 0.079509667 0.046612377)
(119.93972 0.073102921 0.039281487)
(119.94625 0.081286572 0.043623631)
(119.93575 0.088697979 0.051191629)
(119.9216 0.0961434 0.060417697)
(119.91532 0.084249912 0.053228454)
(119.92468 0.076317692 0.053416681)
(119.91059 0.081512112 0.061972168)
(119.90028 0.091039716 0.061961935)
(119.88304 0.095823271 0.072538671)
(119.89726 0.084839754 0.070902524)
(119.90311 0.097948775 0.08106712)
(119.91126 0.11051283 0.091269118)
(119.92803 0.097051322 0.094642001)
(120.03441 -0.0065335117 0.024632229)
(120.03286 -0.01485593 0.019288519)
(120.02773 -0.011314582 0.015448181)
(119.99527 -0.016121195 0.038566818)
(119.98817 -0.0074441493 0.045049281)
(119.96663 -0.0075361361 0.082539836)
(119.95277 -0.034501075 0.09117239)
(119.97528 -0.023559317 0.070982601)
(119.97041 -0.017018394 0.077660381)
(119.95746 -0.014283191 0.06640789)
(119.95362 -0.0064141149 0.070082625)
(119.92458 -0.0089345357 0.087303666)
(119.93878 -0.010936501 0.10881694)
(119.94408 -0.024913787 0.10241084)
(119.92971 -0.020020325 0.082878367)
(119.93862 -0.02810763 0.074970053)
(119.96285 -0.019938847 0.061602988)
(119.97067 -0.024276254 0.054159907)
(119.98247 -0.028329107 0.061359802)
(119.96292 -0.040423764 0.078382536)
(119.94917 -0.033572403 0.065846312)
(119.96127 -0.035738194 0.054936597)
(119.97821 -0.026397249 0.047038702)
(120.00378 -0.020031115 0.02967183)
(93.129787 0.074308333 0.22890945)
(102.77863 0.098298856 0.24672729)
(106.54265 0.1071249 0.25308515)
(108.65297 0.11020278 0.25579724)
(116.75859 0.047739187 0.19945558)
(117.22554 -0.1427665 0.12124741)
(109.78916 -0.15101888 0.2321286)
(107.76182 -0.14665735 0.25602917)
(104.06563 -0.14604857 0.2789028)
(94.347212 -0.15759135 0.28667595)
(94.410565 -0.060871007 0.087470688)
(103.97953 -0.064007041 0.096283026)
(107.64793 -0.063109035 0.092237587)
(109.68943 -0.061534054 0.086780626)
(117.2488 -0.070273373 0.053900947)
(117.35777 -0.060483248 0.037481509)
(109.84181 -0.062029429 0.06584981)
(107.8119 -0.062444967 0.071505019)
(104.16155 -0.063613007 0.077219284)
(94.615891 -0.065972984 0.083431185)
(94.701928 -0.040416177 0.048767369)
(104.21699 -0.041709233 0.048133818)
(107.85373 -0.041747828 0.045246889)
(109.87759 -0.041690693 0.042083633)
(117.41108 -0.044703646 0.023282016)
(117.4631 -0.035890404 0.016721809)
(109.93445 -0.033634565 0.031709871)
(107.91856 -0.033396554 0.034559789)
(104.29377 -0.033195258 0.037433796)
(94.796764 -0.033096503 0.039691529)
(94.875413 -0.024388862 0.028295818)
(104.35345 -0.02522779 0.027330139)
(107.96731 -0.025860524 0.025187691)
(109.97655 -0.026349246 0.023005586)
(117.49893 -0.028878107 0.011812367)
(117.52813 -0.023879762 0.0085976868)
(110.01942 -0.021665471 0.01731269)
(108.0166 -0.021038174 0.01918014)
(104.41347 -0.020269349 0.021093966)
(94.953709 -0.019592262 0.022258065)
(95.027404 -0.015530254 0.017029319)
(104.46821 -0.016333341 0.01617138)
(108.06083 -0.017237307 0.014559253)
(110.05766 -0.017944072 0.01300692)
(117.55039 -0.020007724 0.0062369311)
(117.5684 -0.017059758 0.004484392)
(110.09349 -0.015147784 0.009817698)
(108.10256 -0.014397937 0.011143479)
(104.5205 -0.013426514 0.012558057)
(95.098867 -0.012606018 0.01332007)
(95.167738 -0.010317438 0.010424941)
(104.56977 -0.011159426 0.009750172)
(108.14127 -0.012170879 0.0085051863)
(110.12638 -0.012942123 0.0073657593)
(117.58294 -0.014746203 0.0031336903)
(117.59498 -0.012927616 0.002072686)
(110.15711 -0.011217548 0.0054542104)
(108.17787 -0.010430319 0.0064485025)
(104.61704 -0.009389517 0.0075562348)
(95.234836 -0.0085135656 0.0081498712)
(95.300444 -0.0070628261 0.0063268298)
(104.66248 -0.0079845281 0.0058104118)
(108.21262 -0.0090477834 0.0048163616)
(110.18599 -0.0098470733 0.0039374813)
(117.60503 -0.011480674 0.0012169248)
(117.61354 -0.010335093 0.00051936001)
(110.21346 -0.0087553686 0.0027169312)
(108.246 -0.0079448461 0.0035055271)
(104.70669 -0.0068613381 0.0044127734)
(95.365027 -0.0059157086 0.0048565183)
(95.428866 -0.0050096096 0.0037110895)
(104.74985 -0.0059534739 0.0032891024)
(108.27831 -0.0070512314 0.0024445781)
(110.23983 -0.0078701455 0.0017273724)
(117.62084 -0.0094168011 -5.3343619e-05)
(117.6272 -0.0086763328 -0.00052936181)
(110.26539 -0.0071425088 0.00091775615)
(108.30985 -0.0063145177 0.0015775584)
(104.79236 -0.0052031021 0.0023710217)
(95.492252 -0.0042570012 0.0027732724)
(95.555372 -0.0036341658 0.0020203109)
(104.83433 -0.0045824609 0.0016295673)
(108.3408 -0.0057051912 0.00087496493)
(110.29033 -0.0065411232 0.0002599546)
(117.63284 -0.0080759442 -0.00092710988)
(117.63793 -0.0075852149 -0.0012601066)
(110.31488 -0.0060362935 -0.0002570641)
(108.37141 -0.0051928777 0.00032711642)
(104.87607 -0.0040621818 0.0010558123)
(95.618469 -0.0031199973 0.001437441)
(95.681673 -0.0027300606 0.00096402755)
(104.91763 -0.0036726271 0.00058132434)
(108.4018 -0.0048084284 -0.00013231653)
(110.33918 -0.0056559289 -0.00069744289)
(117.64263 -0.0072306817 -0.0015521986)
(117.64707 -0.0069607158 -0.0017701005)
(110.36339 -0.0053781554 -0.0010046072)
(108.43215 -0.0045279027 -0.00044819343)
(104.95929 -0.0033875022 0.00026016527)
(95.745178 -0.0024497604 0.00064367628)
(95.809124 -0.0022724234 0.00039762372)
(105.0011 -0.0031978975 1.4475676e-05)
(108.46261 -0.0043413141 -0.00068834888)
(110.38767 -0.0051923595 -0.0012364129)
(117.6514 -0.006775965 -0.0019289824)
(117.65569 -0.0066393554 -0.0021552312)
(110.41199 -0.005017783 -0.00155452)
(108.49314 -0.0041563884 -0.0010250024)
(105.0431 -0.00300486 -0.00033511048)
(95.873505 -0.002075562 5.5429275e-05)
(95.938177 -0.0018787798 -0.00021522823)
(105.08515 -0.0028215804 -0.00063850082)
(108.52368 -0.0039740046 -0.0013282865)
(110.43631 -0.0048413917 -0.0018499222)
(117.65996 -0.0065137197 -0.0024353056)
(117.66438 -0.0063562424 -0.0026581016)
(110.46092 -0.0045668175 -0.0019990977)
(108.55455 -0.0036902053 -0.001470299)
(105.1276 -0.0025341318 -0.0007707424)
(96.003409 -0.0016131347 -0.00034681354)
(96.069393 -0.0015380327 -0.00049304216)
(105.17051 -0.002450464 -0.00091512637)
(108.58582 -0.0036110193 -0.0016251484)
(110.48591 -0.0044902097 -0.0021660797)
(117.66908 -0.0063342068 -0.0028861326)
(117.67402 -0.0064078486 -0.0031774539)
(110.51115 -0.0044137598 -0.0024750332)
(108.61735 -0.0035093591 -0.0019368615)
(105.21376 -0.0023223964 -0.0012381099)
(96.135948 -0.0013729149 -0.00081752437)
(96.203202 -0.0011482894 -0.0011405)
(105.25748 -0.0021680346 -0.0015716315)
(108.64932 -0.0033969274 -0.0022533665)
(110.53681 -0.004343101 -0.0027862785)
(117.67927 -0.0065591943 -0.0034568083)
(117.68507 -0.006783568 -0.0037012794)
(110.56329 -0.0042289422 -0.0030357593)
(108.68215 -0.003218628 -0.0025130713)
(105.30216 -0.0019149061 -0.001840362)
(96.271509 -0.00084211767 -0.0014215647)
(96.341615 -0.00043820649 -0.0020566047)
(105.34832 -0.00142224 -0.0023272529)
(108.71634 -0.0028473498 -0.0029809472)
(110.59105 -0.0039526068 -0.0034697277)
(117.69176 -0.0070634113 -0.0040808122)
(117.69882 -0.0077012634 -0.0050420356)
(110.61922 -0.0039419314 -0.0049776436)
(108.75099 -0.0027064019 -0.0045882885)
(105.39516 -0.0011796248 -0.0040804845)
(96.41318 -4.2862388e-05 -0.00387129)
(96.48324 -0.0010601398 -0.0050442161)
(105.44028 -0.0026911739 -0.0054962838)
(108.78403 -0.0042299688 -0.0059639597)
(110.64592 -0.0054436573 -0.0063067824)
(117.70526 -0.0088309776 -0.0060608806)
(117.71267 -0.0083951897 -0.0056880768)
(110.67453 -0.0043372204 -0.0052204657)
(108.81911 -0.0030636541 -0.0047801214)
(105.48744 -0.0014651629 -0.0042084653)
(96.554787 -1.1232797e-05 -0.0038952339)
(117.81593 -0.010073767 -0.0045614652)
(109.36314 -0.0072864309 -0.003916422)
(107.44276 -0.0061978262 -0.0035749735)
(104.01136 -0.0047835915 -0.0031396517)
(94.944478 -0.0031202642 -0.0026232037)
(94.869497 -0.0054954775 -0.0022341849)
(103.96032 -0.0070090052 -0.002813579)
(107.40402 -0.008243061 -0.0033091698)
(109.33108 -0.0091282493 -0.0036837467)
(117.80897 -0.010359017 -0.004404903)
(117.80297 -0.0085951236 -0.0039099952)
(109.30137 -0.0064121798 -0.003234431)
(107.36777 -0.0054300446 -0.0028928762)
(103.91164 -0.0041072915 -0.0024478279)
(94.79572 -0.0034110392 -0.0023338046)
(94.718679 -0.00088411976 -0.00067319269)
(103.8599 -0.0013340684 -0.00082450518)
(107.32885 -0.002776814 -0.0013629383)
(109.26927 -0.0038730572 -0.0017990214)
(117.79615 -0.007074508 -0.003166655)
(117.7895 -0.0069000658 -0.0029182453)
(109.23651 -0.0038432663 -0.0014738758)
(107.28922 -0.0027303147 -0.00098912827)
(103.80761 -0.001368983 -0.00040635437)
(94.642162 -0.00042439082 -3.5057775e-05)
(94.568171 -0.00060012841 0.00018099326)
(103.75731 -0.0016064749 -0.00025360349)
(107.25131 -0.0029344859 -0.00083705442)
(109.20535 -0.0040274267 -0.0013306687)
(117.78392 -0.0068379663 -0.0027560369)
(117.77897 -0.0067573745 -0.0025621855)
(109.17512 -0.0041086055 -0.0010972728)
(107.21439 -0.0030289568 -0.0005929262)
(103.70809 -0.0017028992 8.0308168e-07)
(94.495271 -0.00073635768 0.00040588106)
(94.422937 -0.00086847126 0.00079640206)
(103.65921 -0.001822965 0.000353297)
(107.1778 -0.0031399814 -0.00026440129)
(109.14523 -0.0042060671 -0.00078555639)
(117.77429 -0.0067212919 -0.0023205239)
(117.76988 -0.0068267783 -0.0020958811)
(109.11569 -0.0045371496 -0.0005952987)
(107.14159 -0.0034975489 -7.4044802e-05)
(103.61082 -0.002199852 0.00054671082)
(94.351411 -0.0011822854 0.001002325)
(94.28109 -0.0018265427 0.0013816769)
(103.56321 -0.0028445843 0.00090999948)
(107.10604 -0.0040780482 0.00029347029)
(109.08677 -0.0050442254 -0.00022255012)
(117.76576 -0.0069593258 -0.0017424494)
(117.76174 -0.0069768778 -0.0013689554)
(109.05835 -0.0053298709 0.0002277541)
(107.07107 -0.0044156044 0.00074610017)
(103.51635 -0.0032323224 0.0013574354)
(94.211797 -0.0022597266 0.0017974803)
(94.142939 -0.0024124421 0.0021290986)
(103.46968 -0.0033579539 0.0017215748)
(107.03625 -0.0045249408 0.0011058227)
(109.03003 -0.0054249127 0.00057498131)
(117.75766 -0.0069931531 -0.0011244742)
(117.75357 -0.0071882151 -0.00099636515)
(109.00186 -0.0055768965 0.00076180873)
(107.00159 -0.0046616992 0.0013075978)
(103.42328 -0.0034770414 0.0019383426)
(94.074577 -0.002513523 0.0023482069)
(94.006745 -0.0027380351 0.0028033398)
(103.37713 -0.0037155921 0.0023755693)
(106.96714 -0.0048978211 0.0017253893)
(108.97386 -0.0058144513 0.0011582459)
(117.74943 -0.0074820378 -0.00075055935)
(117.74506 -0.0078299567 -0.00041918208)
(108.94578 -0.0060920351 0.0016626455)
(106.93266 -0.0051749442 0.0022519484)
(103.33109 -0.0039989804 0.0029188125)
(93.939198 -0.0030113822 0.0033502809)
(93.871843 -0.0033360321 0.0040171645)
(103.28491 -0.0043298111 0.0035841512)
(106.898 -0.0055021314 0.0028954396)
(108.91749 -0.0064223663 0.0022776831)
(117.7403 -0.0082720346 -2.3760487e-05)
(117.73503 -0.0088271129 0.00045196822)
(108.88887 -0.0068161882 0.0030286435)
(106.86308 -0.0058898751 0.0036827582)
(103.2386 -0.0047188975 0.0044045926)
(93.80459 -0.0037246993 0.0048670513)
(93.737219 -0.0041876994 0.0059047653)
(103.19187 -0.0051848108 0.0054186829)
(106.82768 -0.0063595463 0.0046555123)
(108.85973 -0.0072970809 0.0039565494)
(117.72908 -0.0095219206 0.0010395219)
(117.72224 -0.010399134 0.0017532149)
(108.8299 -0.0078933654 0.005105158)
(106.79161 -0.0069395139 0.005860582)
(103.14461 -0.0057544193 0.0066759809)
(93.66952 -0.0047507671 0.0071831861)
(93.601219 -0.0054427882 0.0087515544)
(103.09643 -0.0064553211 0.0082378196)
(106.7546 -0.007660443 0.0073575423)
(108.79906 -0.0086359731 0.0065309151)
(117.71424 -0.011503374 0.002623136)
(117.7048 -0.012913977 0.003696216)
(108.76698 -0.0095814533 0.0083234964)
(106.71636 -0.0085766667 0.0092420187)
(103.04716 -0.0073434294 0.010205363)
(93.53204 -0.0063166674 0.010719436)
(93.461583 -0.0074151754 0.013180246)
(102.99627 -0.0084594321 0.01265905)
(106.67647 -0.0097239288 0.011590782)
(108.73321 -0.010762779 0.010553802)
(117.69348 -0.014705442 0.0049845425)
(117.67982 -0.017008295 0.0066191848)
(108.69752 -0.01228372 0.013420791)
(106.63469 -0.01120427 0.014616324)
(102.94361 -0.0099057177 0.015832786)
(93.389578 -0.0088484141 0.016401469)
(93.315276 -0.010669283 0.020490854)
(102.88823 -0.01175166 0.019899766)
(106.59019 -0.013076504 0.018509497)
(108.65919 -0.014191159 0.01712193)
(117.66291 -0.019964532 0.0087421644)
(117.64205 -0.02385719 0.011604447)
(108.61881 -0.016733815 0.022094937)
(106.54351 -0.015587605 0.02374623)
(102.83067 -0.014244325 0.025403313)
(93.239002 -0.013180509 0.026157812)
(93.158972 -0.016164022 0.03288697)
(102.76881 -0.017339069 0.032328536)
(106.49276 -0.018658369 0.030470536)
(108.57482 -0.019792905 0.028553409)
(117.61486 -0.028820657 0.015453517)
(117.58148 -0.035704019 0.020925044)
(108.53144 -0.024585917 0.038122772)
(106.44207 -0.023477576 0.040582778)
(102.70659 -0.022228463 0.043073875)
(93.078011 -0.021318497 0.044512043)
(92.985761 -0.025376356 0.053690683)
(102.63386 -0.026936426 0.053675683)
(106.38199 -0.028154217 0.051214749)
(108.47971 -0.02926476 0.048503328)
(117.53437 -0.043742238 0.027952901)
(117.48347 -0.057663914 0.04061433)
(108.43078 -0.041266556 0.071959442)
(106.32433 -0.040186067 0.076398058)
(102.56115 -0.039009895 0.081227094)
(92.886458 -0.038541525 0.082784981)
(92.732466 -0.030335455 0.076035993)
(102.4494 -0.033600734 0.080640971)
(106.23143 -0.035871538 0.077544924)
(108.34525 -0.038155797 0.072327151)
(117.39816 -0.062706294 0.046559051)
(117.34586 -0.094385825 0.096204618)
(108.20295 -0.045951386 0.14782606)
(106.07641 -0.041920099 0.15309312)
(102.26572 -0.04075224 0.15639073)
(92.510589 -0.045795462 0.15177144)
(92.656867 0.024951623 -0.11171797)
(102.42575 0.040143447 -0.079707471)
(106.19681 0.031305322 -0.060846148)
(108.27638 0.023862604 -0.046774744)
(117.22243 0.011025104 0.023377101)
(117.39549 -0.2268367 0.65502687)
(108.50248 0.50207212 1.7924801)
(106.3862 0.61321735 1.9874995)
(102.35451 0.68321586 2.1919814)
(91.774424 0.244498 2.1207827)
(92.407348 0.69457579 0.27478364)
(102.1931 0.64798163 0.27556811)
(105.96385 0.59927288 0.25878524)
(108.03918 0.55605107 0.23857585)
(116.96676 0.28437769 0.17930498)
(117.17651 0.084838878 -0.00021847811)
(108.02927 0.099574451 0.063803854)
(105.90482 0.10322813 0.06952769)
(102.09985 0.1093772 0.071215528)
(92.358896 0.11728849 0.068583276)
(92.645026 0.095285824 0.04433709)
(102.35331 0.088214698 0.039017207)
(106.13184 0.082635856 0.035441144)
(108.24404 0.078296287 0.031347965)
(117.292 0.056870157 0.0021860259)
(117.41323 0.029429423 -0.013773234)
(108.36201 0.025887246 0.0041702494)
(106.25658 0.026010166 0.0060128135)
(102.49619 0.026265445 0.0075612672)
(92.828867 0.025767816 0.0093176542)
(92.948419 0.019167438 0.0068661831)
(102.59082 0.019343906 0.0051608913)
(106.33666 0.018998838 0.003852221)
(108.43347 0.018681572 0.0025132538)
(117.48568 0.020323845 -0.011389194)
(117.54679 0.01377953 -0.011624879)
(108.49872 0.010503126 -0.001356298)
(106.41006 0.010300217 -9.733048e-05)
(102.6764 0.010048813 0.0012418318)
(93.052375 0.0096021116 0.0024914475)
(93.141083 0.0065665332 0.0012299515)
(102.7472 0.006976546 8.4687277e-05)
(106.46964 0.0072985989 -0.0012170378)
(108.55109 0.0075528614 -0.0023932249)
(117.5893 0.010159914 -0.010345364)
(117.62275 0.0076689524 -0.009494152)
(108.6012 0.0053139223 -0.0034308144)
(106.52643 0.0049537609 -0.0022727824)
(102.81489 0.0045081393 -0.00095166523)
(93.226304 0.00406566 0.0001194508)
(93.306223 0.0026826386 -0.00046972835)
(102.87655 0.003115192 -0.001490442)
(106.57739 0.0035946739 -0.0027746716)
(108.6459 0.0039794345 -0.0038703077)
(117.64797 0.0059744382 -0.0086144001)
(117.66804 0.0047728449 -0.007941272)
(108.68735 0.0030311764 -0.0041741823)
(106.62497 0.002627617 -0.0031288089)
(102.93489 0.0021219297 -0.0018740657)
(93.383132 0.0016936911 -0.00089197448)
(93.457035 0.0010513372 -0.0011565562)
(102.98974 0.0014689457 -0.0021138)
(106.66904 0.001981609 -0.0033327104)
(108.72535 0.0023874517 -0.0043268914)
(117.68402 0.0039102762 -0.0073910614)
(117.69709 0.0032740159 -0.0069788895)
(108.76085 0.0019160972 -0.0044338062)
(106.71064 0.0015068418 -0.0034800697)
(103.04226 0.00098681453 -0.0022897966)
(93.528911 0.00057387843 -0.0013547203)
(93.599152 0.00023707152 -0.0015023062)
(103.09278 0.00064811332 -0.0024181315)
(106.75019 0.0011729941 -0.0035860259)
(108.79427 0.0015835948 -0.004507876)
(117.70787 0.0028367089 -0.0066560419)
(117.7169 0.0025266198 -0.0064103665)
(108.82613 0.0013595236 -0.0045619548)
(106.78823 0.00094867148 -0.0036613362)
(103.14193 0.0004201301 -0.0025079646)
(93.668298 1.0127374e-05 -0.0015978245)
(93.736676 -0.00018692447 -0.0016896849)
(103.18998 0.00022498393 -0.0025916778)
(106.82511 0.00076034928 -0.0037334259)
(108.8568 0.0011758882 -0.0046171301)
(117.72457 0.0022985225 -0.0062350352)
(117.73117 0.0021398615 -0.0061176126)
(108.8866 0.0010593069 -0.0046641948)
(106.86118 0.00064097706 -0.0037896127)
(103.23735 0.00010215352 -0.0026529251)
(93.804615 -0.00030911589 -0.0017521144)
(93.872315 -0.000428818 -0.0018059158)
(103.28417 -1.2457921e-05 -0.0027065537)
(106.89664 0.00053355194 -0.0038421676)
(108.91576 0.00095741199 -0.0047110175)
(117.73697 0.0020231155 -0.0060460013)
(117.74214 0.0019504475 -0.0060093727)
(108.94448 0.00090101813 -0.0047466948)
(106.93171 0.00047344675 -0.0038791092)
(103.33074 -7.6884091e-05 -0.0027406816)
(93.94 -0.00049493381 -0.0018380407)
(94.007792 -0.00055247857 -0.0018666642)
(103.3771 -0.00013385629 -0.0027726372)
(106.96652 0.00042127034 -0.0039167253)
(108.97291 0.0008537382 -0.0047855121)
(117.74686 0.0019026662 -0.0060049675)
(117.75125 0.0018697807 -0.0060296624)
(109.00118 0.00081456611 -0.0048281141)
(107.00123 0.0003769504 -0.0039553465)
(103.42348 -0.00018333865 -0.002803838)
(94.07584 -0.00060179959 -0.0018963174)
(94.144208 -0.00064411567 -0.001935517)
(103.46986 -0.00022182763 -0.0028565626)
(107.03588 0.00034274836 -0.0040128872)
(109.02937 0.00078602295 -0.0048915125)
(117.75543 0.0018578397 -0.0060981713)
(117.75943 0.001833235 -0.0062071408)
(109.05747 0.00071513966 -0.0049589685)
(107.07047 0.00026156529 -0.0040712766)
(103.5163 -0.00031268823 -0.0029099776)
(94.212875 -0.00076340364 -0.001935978)
(94.281975 -0.0011382904 -0.0017137311)
(103.56297 -0.00065086989 -0.0027149372)
(107.10528 -4.8212092e-05 -0.003889714)
(109.08575 0.00043208774 -0.0047991893)
(117.76342 0.0017202887 -0.0062355761)
(117.76766 0.0015798531 -0.0061541327)
(109.11468 9.9202949e-05 -0.0043743908)
(107.1408 -0.00040753124 -0.0034241662)
(103.61051 -0.0010303777 -0.0022218655)
(94.352134 -0.0014991162 -0.0012682837)
(94.423505 -0.0017478247 -0.0010494667)
(103.65885 -0.0013042833 -0.0019317403)
(107.17702 -0.00066675802 -0.003150472)
(109.14425 -0.00013858759 -0.0041261638)
(117.77224 0.001507211 -0.0061560737)
(117.77707 0.0015817075 -0.006284872)
(109.17415 -8.6425759e-05 -0.004093104)
(107.2136 -0.00061440939 -0.0031016287)
(103.70768 -0.0012449091 -0.0018732698)
(94.495699 -0.0016789664 -0.00098959611)
(94.568556 -0.0015118878 -0.00087456097)
(103.75695 -0.0010716454 -0.0018037701)
(107.2506 -0.00045049458 -0.0030472038)
(109.20445 6.9352249e-05 -0.0040612973)
(117.78215 0.001709542 -0.006460612)
(117.78784 0.0018826576 -0.0066136675)
(109.23574 0.00025688429 -0.0039177447)
(107.28866 -0.0002502186 -0.0028709126)
(103.80741 -0.00087222877 -0.0015821119)
(94.642656 -0.0012743321 -0.00071670665)
(94.719427 -0.00029716361 -0.0011080013)
(103.85992 -0.00010036729 -0.0014995227)
(107.32848 0.00046611186 -0.0028964745)
(109.26866 0.00090624329 -0.0039504536)
(117.79455 0.0023150088 -0.0068540559)
(117.80133 0.0034703042 -0.0083181256)
(109.30076 0.0030634632 -0.0063609513)
(107.36743 0.0027621497 -0.0053823987)
(103.91177 0.0023238725 -0.0040587427)
(94.796731 0.0021719857 -0.003409666)
(94.870542 0.0024273771 -0.005416728)
(103.96035 0.0030491127 -0.0069052592)
(107.40354 0.0035373427 -0.0081240132)
(109.33032 0.0038622044 -0.0090047567)
(117.80719 0.0042403625 -0.010020788)
(117.81403 0.0043014271 -0.0098266123)
(109.36223 0.0037288426 -0.0073243302)
(107.44212 0.0033914503 -0.0062459101)
(104.01125 0.0029384514 -0.0048394277)
(94.945496 0.0023957387 -0.003164994)
(95.026614 0.0002538662 -0.001944212)
(104.06779 0.00076245655 -0.0031873217)
(107.48584 0.0013961584 -0.0046495517)
(109.39889 0.0019231534 -0.0058367792)
(117.82321 0.003734305 -0.0094886188)
(96.387073 -0.0033923272 -0.0027369236)
(105.31009 -0.0028641837 -0.0039725394)
(108.64329 -0.0022550286 -0.0055293838)
(110.50066 -0.0017417375 -0.0067707565)
(117.69642 0.00049569548 -0.010433752)
(117.68705 0.00061157308 -0.011037292)
(110.46862 -0.0014642082 -0.0085082237)
(108.60457 -0.0019658847 -0.0074032573)
(105.259 -0.0025772876 -0.0059454271)
(96.311229 -0.0032037264 -0.004531288)
(96.239002 -0.0045361526 -0.0051551025)
(105.21148 -0.0037714039 -0.0063891784)
(108.56928 -0.0030174518 -0.007781453)
(110.43984 -0.0023949256 -0.0088384514)
(117.67977 0.00031885507 -0.010837656)
(117.67345 0.00018022385 -0.0097560192)
(110.4128 -0.0020845173 -0.0076413249)
(108.53586 -0.0026137584 -0.0066063942)
(105.16591 -0.0032338522 -0.0052394742)
(96.168499 -0.003678543 -0.0041637846)
(96.096395 -0.0036678874 -0.001980895)
(105.11884 -0.0032580415 -0.0025947372)
(108.50111 -0.0026881692 -0.0040396972)
(110.38456 -0.0022125896 -0.0051369918)
(117.66649 -0.00014558914 -0.0078190768)
(117.65943 -0.00028543922 -0.0071915176)
(110.35535 -0.0022646575 -0.0047816038)
(108.46529 -0.0027320901 -0.0037000642)
(105.07076 -0.0032888507 -0.0022941013)
(96.023985 -0.0037359211 -0.0013752448)
(95.953772 -0.003709862 -0.0013518288)
(105.02429 -0.0032752986 -0.0023321274)
(108.4309 -0.0027357316 -0.0036756628)
(110.32748 -0.0022791444 -0.0047216418)
(117.65342 -0.00038726692 -0.0068582922)
(117.64803 -0.00047729497 -0.0065989673)
(110.30055 -0.002308069 -0.004601593)
(108.39749 -0.0027532881 -0.0035821151)
(104.97892 -0.0032775226 -0.002266229)
(95.884699 -0.0036952253 -0.0013250333)
(95.816335 -0.0037418825 -0.0013567541)
(104.934 -0.0033304174 -0.0022943412)
(108.3645 -0.0028120468 -0.0035908348)
(110.27401 -0.0023725242 -0.0045860337)
(117.6429 -0.00056297449 -0.006444623)
(117.63802 -0.00061573522 -0.0064665858)