/*--------------------------------*- C++ -*----------------------------------*\
  =========                 |
  \\      /  F ield         | OpenFOAM: The Open Source CFD Toolbox
   \\    /   O peration     | Website:  https://openfoam.org
    \\  /    A nd           | Version:  7
     \\/     M anipulation  |
\*---------------------------------------------------------------------------*/
FoamFile
{
    version     2.0;
    format      ascii;
    class       volScalarField;
    location    "410";
    object      k;
}
// * * * * * * * * * * * * * * * * * * * * * * * * * * * * * * * * * * * * * //

dimensions      [0 2 -2 0 0 0 0];

internalField   nonuniform List<scalar> 
24866
(
3468.0716
3534.7255
3544.0125
4134.4706
4720.524
4709.4527
4668.8072
4720.9908
4726.3621
4663.2359
4689.341
4689.6802
4664.0806
4726.9139
4720.4741
4670.7035
4704.973
4722.0256
4706.6942
4690.9979
4624.2181
4736.622
4869.5676
4808.5672
4680.6341
4596.4656
4694.8287
4817.7237
4804.8803
4641.1204
4711.5849
4709.6308
4709.6239
4711.5907
4641.3287
4804.9688
4818.2783
4695.362
4595.9064
4679.9611
4808.3829
4869.5517
4736.6734
4624.23
4691.5315
4706.4067
4722.7643
4704.3668
4671.1589
4719.2837
4727.8535
4663.819
4689.3483
4689.6093
4664.4657
4725.9339
4721.481
4667.8367
4710.6898
4719.4646
4752.6095
4724.5008
4753.0994
4755.0713
4682.0332
4715.4451
4776.2415
4764.5617
4682.553
4685.1263
4685.3531
4682.9456
4764.7573
4776.2907
4715.6651
4681.198
4751.0707
4750.671
4715.2507
4735.338
4728.979
4629.0706
4642.9317
4701.2064
4720.518
4783.7916
4715.4508
4654.9224
4727.1819
4792.218
4720.744
4663.0079
4703.5674
4707.454
4700.5278
4683.5391
4671.6705
4691.7127
4686.4663
4696.1157
4692.3833
4695.6369
4691.4889
4697.8623
4702.1257
4702.1822
4700.0026
4704.9691
4698.688
4691.2084
4642.1998
4744.1189
4740.8901
4714.0631
4679.3661
4693.9758
4695.7227
4698.219
4701.9709
4704.2193
4703.7522
4700.451
4703.6658
4698.5236
4692.9095
4689.9201
4676.2491
4682.5732
4685.4607
4692.5693
4699.8322
4705.2312
4708.1929
4706.7163
4707.2819
4705.4069
4701.9911
4700.0326
4695.7361
4698.7155
4679.3956
4642.2406
4744.1121
4740.8761
4537.8759
4539.0649
4169.738
4112.9493
4124.4618
4124.4619
4112.9424
4052.9214
4066.3551
4590.7973
4589.6348
4084.2935
4101.8255
4012.0461
4082.5028
4063.0193
3947.5412
3918.9623
4025.9223
4095.7859
4121.6582
4133.4637
4110.7663
4071.3109
4118.4849
4120.6354
4047.9965
4047.7702
4047.3146
4046.9549
4119.8231
4118.5369
4070.4435
4113.8099
4179.8772
4190.8575
4548.8809
4550.8813
4166.1736
4015.2354
4177.9443
4123.9044
4074.2234
4688.6134
4695.4124
4688.625
4696.1381
4689.4323
4675.7271
4682.3904
4685.2391
4692.2843
4699.4325
4704.6922
4707.5579
4708.2216
4708.8532
4707.3087
4704.264
4702.2345
4703.6157
4705.0003
4720.7917
4691.2309
4098.8535
4124.8145
4452.3975
4590.9325
4066.1361
4052.9417
3518.2731
3530.8437
3536.3008
3536.2978
3530.827
3518.2336
3493.7386
3503.8445
3512.1926
3489.5317
3505.7535
3492.8271
3448.8667
3432.1632
3498.1959
3522.121
3535.9747
3542.1279
3533.1014
3534.1089
3532.6759
3535.4451
3517.4518
3513.4024
3513.3153
3516.811
3534.5961
3532.2238
3533.4407
3078.4712
3076.3699
3077.8635
3077.7891
3076.6066
3535.0929
4114.5066
4070.2285
4119.001
4119.5316
4048.28
4047.68
4047.3626
4047.6224
4120.5075
4117.6885
4071.8466
4110.4544
4133.9952
4121.6109
4096.1864
4026.0486
3919.0985
4440.055
4637.0918
4568.4657
4063.332
4082.8208
4012.2051
4101.5898
4083.8193
4590.0403
4466.3001
4161.619
4120.7696
3992.2156
4156.5013
4190.0296
4199.5847
4577.7959
4792.4052
4727.2991
4654.8918
4663.0403
4720.4956
4707.5183
4702.2033
4703.8242
4706.7697
4703.7403
4705.2796
4704.7134
4702.0686
4697.4915
4692.2845
4692.3446
4694.5192
4697.5095
4699.4735
4699.8944
4698.6107
4695.7478
4700.5457
4697.9636
4700.6202
4701.2252
4643.0318
4683.6783
4691.6169
4691.8656
4692.5064
4693.0002
4692.6378
4692.3482
4692.321
4692.3538
4696.1416
4689.4956
4685.3326
4685.535
4690.0025
4696.2477
4686.6463
4715.412
4671.8541
4629.246
4729.331
4735.3114
4531.8343
4176.6935
4155.7616
4525.8575
4137.9168
4159.4152
3994.0054
3453.582
3522.4193
3498.3462
3432.2663
3449.0291
3948.0411
3957.0313
4094.1064
4122.334
4456.5218
4438.2341
4123.1091
3973.8328
4138.0449
3423.2534
3492.9242
3505.7417
3489.4931
3512.2915
3503.926
3493.7475
3045.9133
3065.4757
3071.4356
3072.1794
3072.1774
3071.4241
3065.4533
3045.9129
3047.9515
3054.1482
3046.6603
3051.5877
3041.4057
3020.7007
3015.5109
3053.6899
3066.3163
3072.5521
3076.3983
3075.6999
3079.0812
3075.2105
3076.9183
3071.7894
3070.6198
3070.2665
3071.0117
3076.1879
3074.6672
2706.1144
2709.6709
2707.3641
2706.8897
2706.8777
2707.5318
2709.8231
3078.5792
3533.4133
3532.6264
3534.8729
3517.5498
3513.3853
3513.4413
3517.3679
3535.2275
3532.1568
3534.2808
3532.9939
3542.4464
3536.0667
3072.6517
3066.5208
3053.8245
3015.6119
3020.8348
3041.4971
3051.6141
3046.6563
3054.1855
3047.9663
2685.1288
2684.9998
2698.9278
2702.4257
2702.4763
2702.4758
2702.4175
2698.9129
2684.9953
2685.1166
2689.2475
2687.2434
2688.3785
2680.8076
2669.6178
2668.2968
2691.3224
2699.4777
2703.1929
2705.8156
2707.1417
2710.2142
2706.6552
2707.7125
2706.6859
2706.3203
2706.0826
2706.1112
2707.0942
2406.9758
2406.3935
2409.1741
2407.148
2406.1498
2406.1631
2407.2755
2409.3307
2406.6522
2407.2767
2707.4375
3076.5275
3071.7917
3070.6265
3070.4021
3071.4305
3076.6628
3074.8363
3079.0877
3075.6396
3076.5672
2705.8979
2703.2705
2699.6152
2691.43
2668.3834
2669.7184
2680.8792
2688.4056
2687.2488
2689.2729
2393.0307
2390.0877
2390.7522
2400.4878
2402.625
2402.5881
2402.5874
2402.6189
2400.477
2390.7462
2390.0775
2393.0125
2393.2162
2392.795
2386.989
2380.4892
2380.8529
2395.3114
2400.8198
2403.3993
2405.313
2407.1032
2409.64
2406.8816
2407.4808
2407.9221
2407.9246
2407.7482
2407.4841
2162.3357
2161.3396
2161.0345
2163.106
2161.4122
2160.3845
2160.4056
2161.5132
2163.25
2161.25
2161.592
2162.6314
2407.8828
2706.6579
2706.3436
2706.2083
2706.4227
2707.4564
2706.3555
2710.1412
2707.0875
2407.0488
2405.3477
2403.4531
2400.9124
2395.3947
2380.9242
2380.5658
2387.0457
2392.8207
2393.2259
2151.323
2150.3571
2148.1982
2149.2035
2156.0796
2157.4175
2157.4214
2157.4202
2157.4125
2156.0712
2149.1972
2148.1896
2150.3434
2151.3119
2150.2703
2145.7586
2141.7867
2142.895
2152.3913
2156.2102
2158.1778
2159.6663
2161.4092
2163.4885
2161.4547
2161.7507
2162.6746
2162.8967
2162.7633
1959.8928
1959.4073
1958.3526
1958.2152
1959.7292
1958.3668
1957.4782
1957.5
1958.4483
1959.855
1958.3931
1958.5601
1959.6305
1960.0077
2162.9131
2407.9484
2407.8536
2407.7204
2407.2591
2406.6416
2409.5398
2163.3868
2161.357
2159.6768
2158.2139
2156.2742
2152.4557
2142.9533
2141.846
2145.804
2150.2938
1949.4104
1950.6264
1949.536
1947.9569
1949.057
1953.9943
1954.8848
1954.9542
1954.9529
1954.8805
1953.9873
1949.0511
1947.9494
1949.5251
1950.615
1949.3893
1945.8679
1943.3505
1944.726
1951.241
1953.99
1955.5937
1956.8109
1958.3448
1960.0295
1958.5659
1958.6873
1959.6737
1959.9956
1789.857
1789.7751
1789.3029
1788.3639
1788.3142
1789.4072
1788.3516
1787.641
1787.661
1788.4185
1789.5145
1788.4607
1788.5333
1789.4751
1789.8666
1789.8359
1959.9627
2162.8475
2162.5197
2161.5669
2161.2642
1958.4152
1959.9372
1958.2974
1956.8099
1955.6181
1954.0357
1951.2914
1944.7736
1943.3974
1945.9048
1778.1733
1780.9127
1782.1142
1781.1554
1780.0216
1781.081
1784.6812
1785.3313
1785.4572
1785.456
1785.3276
1784.6753
1781.0755
1780.0151
1781.1463
1782.1032
1780.8939
1778.1429
1776.5104
1777.9039
1782.542
1784.6095
1785.97
1786.9962
1788.2905
1789.6333
1788.6003
1788.6367
1789.5166
1644.895
1645.2122
1645.1467
1644.7229
1643.9486
1643.9352
1644.716
1643.921
1643.3767
1643.3942
1643.9764
1644.8067
1644.0559
1644.0866
1644.8574
1645.2198
1645.1991
1644.8233
1789.424
1959.5546
1958.5384
1788.5173
1788.4811
1789.5538
1788.249
1786.9906
1785.9869
1784.6435
1782.5823
1777.9432
1776.5484
1634.4217
1635.4875
1637.6279
1638.729
1637.9759
1637.1799
1638.1313
1640.7906
1641.307
1641.4707
1641.4695
1641.3038
1640.7856
1638.1262
1637.1742
1637.9681
1638.7186
1637.6112
1635.462
1634.3904
1635.68
1639.0796
1640.6951
1641.8708
1642.749
1643.8208
1644.8792
1644.1645
1644.1705
1519.8081
1520.3828
1520.6595
1520.6067
1520.2434
1519.6277
1519.6219
1520.175
1519.5852
1519.1795
1519.1945
1519.6316
1520.2514
1519.7218
1519.7402
1520.3496
1520.6656
1520.6518
1520.3272
1519.7325
1644.0754
1644.07
1644.8124
1643.7852
1642.7418
1641.8829
1640.7214
1639.1125
1635.7129
1512.9759
1511.8384
1512.5417
1514.2147
1515.1859
1514.6353
1514.0886
1514.907
1516.8936
1517.3248
1517.5079
1517.5068
1517.3219
1516.8891
1514.9024
1514.0835
1514.6285
1515.1762
1514.1998
1512.5199
1511.8122
1512.9482
1515.498
1516.7945
1517.8164
1518.5728
1519.4535
1520.2871
1519.8035
1411.5336
1411.5493
1411.9993
1412.2322
1412.1894
1411.8858
1411.4026
1411.3914
1411.781
1411.3441
1411.0475
1411.0603
1411.3831
1411.8454
1411.4744
1411.4947
1411.9705
1412.2372
1412.2282
1411.9562
1411.4891
1411.4734
1519.7282
1520.2316
1519.4233
1518.5654
1517.8255
1516.8154
1515.5251
1407.8903
1405.9419
1404.9685
1405.4343
1406.7439
1407.5826
1407.2038
1406.8363
1407.5215
1409.0217
1409.388
1409.5764
1409.5755
1409.3855
1409.0178
1407.5175
1406.8318
1407.1977
1407.5738
1406.7305
1405.4157
1404.9462
1405.9184
1407.8677
1408.9251
1409.814
1410.4672
1411.1898
1411.8528
1316.6141
1316.41
1316.4397
1316.793
1316.9855
1316.9506
1316.7002
1316.3206
1316.3
1316.5738
1316.2465
1316.0332
1316.0441
1316.2796
1316.6284
1316.3693
1316.3963
1316.7685
1316.9897
1316.984
1316.7596
1316.3918
1316.3614
1316.576
1411.8068
1411.1642
1410.4602
1409.8209
1408.9419
1314.1593
1313.2946
1311.7802
1310.9609
1311.2709
1312.2983
1313.0145
1312.771
1312.5295
1313.0942
1314.2401
1314.5505
1314.7345
1314.7337
1314.5482
1314.2366
1313.0905
1312.5254
1312.7656
1313.0065
1312.2864
1311.2548
1310.9419
1311.7602
1313.2757
1314.1456
1314.9183
1315.4832
1316.0777
1231.884
1232.3275
1232.2023
1232.2446
1232.5256
1232.6834
1232.6548
1232.4495
1232.148
1232.1185
1232.3117
1232.0611
1231.91
1231.9193
1232.0894
1232.3581
1232.1767
1232.2107
1232.5051
1232.6871
1232.6836
1232.4998
1232.2064
1232.163
1232.2959
1231.8654
1316.0559
1315.4768
1314.9234
1230.907
1230.2432
1229.529
1228.3334
1227.6499
1227.8576
1228.6663
1229.2743
1229.1326
1228.9783
1229.4399
1230.3262
1230.5862
1230.7601
1230.7593
1230.5843
1230.3232
1229.4368
1228.9748
1229.1279
1229.2671
1228.6558
1227.8437
1227.6337
1228.3163
1229.5131
1230.232
1230.9032
1231.3926
1156.4647
1156.8734
1157.2482
1157.1762
1157.2279
1157.4556
1157.5848
1157.5613
1157.3931
1157.1498
1157.1136
1157.2513
1157.0541
1156.9488
1156.9566
1157.0782
1157.2909
1157.1628
1157.202
1157.4387
1157.5882
1157.5862
1157.4356
1157.1973
1157.1441
1157.2218
1156.8573
1156.4589
1231.3866
1232.4351
1233.4909
1231.6014
1232.073
1233.0671
1229.5175
1230.3065
1231.3616
1231.8982
1231.4026
1230.6514
1155.9526
1154.4809
1154.8575
1155.5521
1155.7671
1155.9275
1155.9267
1155.7654
1155.5498
1154.8552
1154.4784
1154.572
1154.6371
1154.1194
1153.4775
1153.3352
1153.9026
1154.8614
1155.457
1156.0399
1088.9522
1089.3214
1089.664
1089.9875
1089.9505
1090.0082
1090.1968
1090.3027
1090.283
1090.1448
1089.9447
1089.9046
1090.0046
1089.8444
1089.7722
1089.7793
1089.8654
1090.0387
1089.9465
1089.9886
1090.1827
1090.3056
1090.3048
1090.1811
1089.9834
1089.9241
1089.9652
1089.65
1089.316
1088.9536
1156.0424
1155.466
1154.8745
1153.9168
1153.3487
1153.4891
1154.128
1154.6429
1154.5756
1087.7367
1087.6824
1087.9904
1088.5425
1088.7175
1088.8631
1088.8629
1088.7167
1088.5416
1087.99
1087.6821
1087.7356
1087.7484
1087.3099
1086.8003
1086.7024
1087.1737
1087.9522
1088.4462
1028.0832
1028.5225
1028.8438
1029.133
1029.4175
1029.4029
1029.4633
1029.6231
1029.7105
1029.6939
1029.5794
1029.4114
1029.3698
1029.4445
1029.3099
1029.2618
1029.268
1029.3285
1029.4743
1029.4061
1029.4487
1029.6113
1029.7131
1029.7129
1029.6106
1029.4429
1029.3806
1029.3981
1029.1202
1028.8379
1028.522
1028.0866
1088.4529
1087.9624
1087.1845
1086.7122
1086.8083
1087.3154
1087.7514
1027.4865
1027.5078
1027.4806
1027.7341
1028.1798
1028.3198
1028.4509
1028.4513
1028.3211
1028.1821
1027.7383
1027.4859
1027.5131
1027.4903
1027.1183
1026.7114
1026.6422
1027.0343
1027.674
973.10783
973.44442
973.82533
974.10491
974.35033
974.60515
974.60379
974.66394
974.80292
974.87611
974.86181
974.76554
974.62072
974.58012
974.63847
974.5209
974.49013
974.49573
974.53764
974.66503
974.6121
974.6532
974.79291
974.87834
974.87856
974.79264
974.64656
974.58433
974.58756
974.33759
974.09717
973.821
973.44189
973.105
1027.6797
1027.0394
1026.6456
1026.7126
1027.1168
972.61251
972.92637
972.9711
972.96104
973.17258
973.53865
973.64833
973.76629
973.76829
973.65438
973.54888
973.18801
972.98052
972.99206
972.94666
972.63038
972.30263
972.25044
972.57692
923.03656
923.47939
923.74994
924.07846
924.32056
924.529
924.76249
924.76719
924.82425
924.94955
925.01265
925
924.91668
924.7872
924.74988
924.79872
924.69021
924.67201
924.6772
924.70565
924.82295
924.77876
924.81618
924.94076
925.01447
925.01492
924.94063
924.8088
924.7494
924.74539
924.51473
924.30857
924.06636
923.73518
923.45906
923.00612
972.57072
972.23998
972.28835
922.76265
923.02468
923.29159
923.34967
923.3487
923.52922
923.83696
923.91927
924.02702
924.03266
923.93645
923.86534
923.57065
923.40093
923.40671
923.34958
923.07966
922.81142
922.76583
877.53804
877.75758
878.12446
878.32762
878.60624
878.81266
878.988
879.20929
879.214
879.26505
879.38465
879.44228
879.43076
879.35486
879.23209
879.20037
879.24514
879.13626
879.12733
879.13225
879.15094
879.26786
879.22717
879.2587
879.37663
879.4437
879.44431
879.37657
879.25079
879.19702
879.19133
878.96985
878.79203
878.57871
878.28809
878.0683
877.67674
877.43255
922.72482
923.7647
924.21391
924.68472
924.9124
924.72426
924.3133
878.89456
877.9718
878.13153
878.39857
878.45411
878.55653
878.56982
878.49525
878.46582
878.22849
878.09439
878.10625
878.04772
877.8162
877.58943
836.08499
836.01016
836.17498
836.46811
836.59137
836.81691
836.98597
837.12903
837.34978
837.34903
837.39137
837.51576
837.57377
837.56308
837.48815
837.36109
837.33703
837.38215
837.25989
837.25765
837.26242
837.27417
837.40394
837.36247
837.38614
837.50831
837.5749
837.57563
837.50834
837.37801
837.33236
837.32951
837.10353
836.94923
836.76037
836.50409
836.34233
835.99569
835.7776
835.81897
877.46755
877.68214
877.90915
877.9719
836.25017
836.24062
836.38894
836.6307
836.65643
836.76082
836.78901
836.74498
836.7746
836.59529
836.50231
836.53716
836.48897
836.28896
798.04482
797.8426
797.71886
797.81327
798.02189
798.03829
798.19909
798.32443
798.4328
798.6681
798.65718
798.6892
798.8326
798.89791
798.88749
798.80623
798.66089
798.64574
798.69456
798.54121
798.54314
798.5478
798.55521
798.71563
798.67006
798.68484
798.82551
798.89914
798.9
798.82573
798.67682
798.64071
798.64408
798.39531
798.26023
798.09205
797.86565
797.77053
797.45572
797.25489
797.31459
797.47175
835.99893
836.19136
797.63337
797.67884
797.64614
797.79065
798.02042
798.00892
798.12511
798.17974
798.18308
798.30265
798.1946
798.15999
798.24235
798.21926
762.90069
762.74679
762.52312
762.31713
762.30862
762.40474
762.27192
762.34505
762.41533
762.48421
762.75148
762.72773
762.75038
762.92932
763.01017
763.00023
762.90477
762.72498
762.71766
762.77166
762.56667
762.5696
762.57408
762.58018
762.7917
762.74048
762.74757
762.92306
763.01183
763.01284
762.92351
762.73973
762.71209
762.72301
762.43013
762.30954
762.15918
761.96056
761.94606
761.65494
761.46628
761.55841
761.70375
761.83726
761.85973
761.78773
761.93213
762.15941
762.0996
762.23844
762.33524
762.41302
762.66803
762.66121
762.71867
762.88098
730.27249
730.35267
730.21536
729.94836
729.62466
729.46017
729.39146
729.05632
729.00808
729.00882
729.03455
729.34798
729.31498
729.33489
729.56306
729.66698
729.65814
729.54238
729.31571
729.31035
729.36661
729.09468
729.09423
729.09832
729.10705
729.38467
729.33061
729.33577
729.55869
729.66843
729.66954
729.55916
729.32751
729.30206
729.31691
728.96294
728.85071
728.71598
728.54602
728.62483
728.35871
728.18418
728.3195
728.46037
728.56767
728.56032
728.43639
728.57709
728.80265
728.68476
728.85331
729.00961
729.19794
729.64351
729.79175
729.99529
700.04831
700.46478
700.61223
700.48884
700.16913
699.70389
699.30039
698.97421
698.38507
698.17786
698.09946
698.08632
698.44399
698.42206
698.45712
698.7326
698.85895
698.85246
698.71921
698.4498
698.43163
698.47442
698.14272
698.13473
698.13812
698.15297
698.48902
698.44746
698.46545
698.73193
698.86008
698.8611
698.73173
698.45535
698.41602
698.41731
698.00646
697.89472
697.77313
697.63575
697.80546
697.58713
697.44481
697.61436
697.74288
697.82319
697.78928
697.6185
697.7396
697.94428
697.77141
697.96562
698.19152
698.52865
699.21738
699.61432
672.41825
673.23362
673.78675
673.97133
673.85797
673.51467
672.917
672.12463
671.35728
670.46695
670.08101
669.93375
669.89454
670.26295
670.31146
670.39824
670.68752
670.82362
670.8203
670.68563
670.41051
670.34775
670.32711
669.98439
669.97561
669.97809
669.99128
670.33655
670.357
670.41845
670.69263
670.82524
670.82545
670.6913
670.40611
670.31929
670.25478
669.83231
669.72228
669.61126
669.50278
669.73326
669.64626
669.58602
669.72679
669.79199
669.83775
669.80227
669.62757
669.69191
669.81251
669.61474
669.81934
670.10241
670.60848
671.58971
646.94292
648.63035
650.0915
650.73306
650.86096
650.75426
650.48179
649.80254
648.36385
646.73132
645.44145
644.92606
644.76017
644.68759
644.96476
645.24579
645.42501
645.64552
645.84668
645.86222
645.67198
645.46097
645.31807
645.08447
644.85402
644.89887
644.89966
644.85628
645.08711
645.32018
645.45971
645.6575
645.84922
645.86341
645.6696
645.44497
645.27425
644.99378
644.68177
644.62567
644.52254
644.39757
644.60786
644.9129
645.03044
644.96057
644.83732
644.88101
644.86741
644.78315
644.71218
644.56243
644.43956
644.6567
644.9438
645.57037
622.80553
624.69518
628.7727
631.54987
631.79274
631.64235
631.55294
631.5752
631.29043
628.53558
624.50961
622.69495
621.90149
621.79768
622.10166
621.59432
623.07318
623.17398
623.16863
624.11227
624.11564
623.19824
623.23471
623.18185
621.77815
622.36522
622.12128
622.1206
622.36266
621.77477
623.17534
623.21804
623.185
624.11449
624.11274
623.18759
623.20673
623.12627
621.67721
622.19406
621.85286
621.7577
621.94074
621.63635
623.65247
623.20402
622.61982
622.43211
623.25458
622.55175
622.62433
622.58067
621.24721
621.88295
621.70099
621.91472
604.68235
604.93609
606.79606
613.59382
618.99015
617.85846
617.44082
617.34764
617.66743
618.77065
613.38658
606.65265
604.8251
604.71466
604.59072
604.68955
604.54381
605.19891
605.36
605.39566
605.39233
605.40768
605.44869
605.44112
605.32733
604.77083
605.00746
605.07462
605.07727
604.99532
604.75185
605.30833
605.42628
605.40732
605.39508
605.40531
605.42947
605.42278
605.27802
604.651
604.86756
604.79407
604.85243
604.61572
605.09766
608.78561
608.65812
605.8236
605.00418
604.87707
604.929
604.93087
604.7504
604.25788
604.44428
604.51916
588.79723
588.73696
589.27811
591.0819
590.44625
589.61117
589.62366
589.38685
589.5896
590.17776
591.12035
589.05127
588.96623
588.71131
589.35874
589.93156
589.24979
589.17277
590.6268
589.92083
589.94506
590.69767
589.25209
589.39811
590.21941
589.67966
589.44112
589.46805
589.63119
590.21916
589.35341
589.23248
590.62628
589.91823
589.94431
590.67068
589.20179
589.39984
590.03175
589.72962
589.00931
589.68323
589.19633
590.92444
588.2211
587.7175
590.45658
590.69306
589.64406
590.31642
588.95126
588.75621
589.82235
588.88541
588.32194
588.49245
589.87813
589.97729
590.17244
590.64598
590.62532
590.32796
590.22527
590.19077
590.35038
590.19485
588.77221
588.84954
590.42656
590.26198
589.81035
589.43928
589.30124
588.11492
588.25859
589.54038
589.51783
589.71862
590.26845
590.81283
588.67835
588.57284
603.45695
603.27316
607.04369
607.55914
617.43083
608.1464
607.52989
605.82511
607.6865
616.91532
607.27408
602.98096
603.16039
607.11576
606.86215
604.93105
590.09545
589.74551
590.49657
590.40983
590.43614
589.70838
590.37536
591.00604
588.81432
589.08961
603.3884
603.2061
606.97736
616.97197
607.33547
607.90616
607.47901
605.32889
606.07692
610.4813
618.67405
609.98657
609.96925
610.48002
607.78579
603.32147
603.34239
607.61907
609.84937
609.38898
618.47507
607.98675
608.20374
604.55152
589.80491
590.58517
590.02681
590.39186
588.4125
587.91335
603.5522
607.71167
608.33048
618.20364
607.92437
603.58378
607.54699
605.70258
623.43755
624.72968
623.7518
621.90011
623.26981
622.78381
623.89585
646.10942
671.63045
672.57647
671.10099
645.43871
646.51231
647.58009
645.87669
671.84444
672.91232
671.17115
645.8767
646.26301
671.73623
671.9738
646.40926
624.06584
605.38431
605.82524
605.20107
605.75167
605.54824
604.44758
623.15169
625.17695
626.04796
624.00108
625.07838
626.18281
606.15685
606.08092
603.72982
603.92722
604.45292
605.00735
606.32176
624.37497
623.91227
626.31213
627.18708
629.51204
614.35255
606.89081
604.67161
604.26595
604.12649
604.53082
606.67943
614.14723
613.78591
613.65857
613.74185
613.9631
630.1584
630.21111
628.29686
628.11363
607.59738
590.51688
590.44346
589.36812
582.57051
579.5063
578.86485
578.84245
579.47672
582.49609
583.37783
584.91352
585.74264
585.8504
585.04322
583.70001
582.86079
579.93356
579.32028
579.31707
579.92789
582.86837
583.71821
585.13526
585.95581
585.95544
589.66876
590.49166
590.17415
588.37221
588.75602
590.75644
590.3579
590.37036
590.77596
588.74302
588.38377
590.14825
590.46652
589.64778
585.90678
585.81651
584.96453
583.42777
582.5056
579.43947
578.78415
578.84429
579.51509
582.64789
583.57155
585.00023
585.84747
585.78841
584.95243
583.46913
583.08806
580.89433
575.12655
566.38852
557.11162
551.32086
551.35788
557.19396
566.47224
575.16472
580.96159
583.1921
583.76862
589.75903
590.98127
590.90784
590.88987
591.0944
588.62927
580.01291
582.92099
581.71704
577.94648
566.63781
559.14975
552.93874
545.71954
540.15261
535.15015
532.82953
532.81086
535.10043
540.07489
545.60751
552.80245
559.04645
566.47783
552.85606
545.41769
536.68842
530.12461
523.82874
521.03629
521.05714
523.88473
530.21929
536.82559
545.59464
552.99332
545.88265
557.5788
571.59621
576.66555
575.67284
579.40651
579.40489
588.61804
591.08626
590.88396
590.90035
590.97088
589.73394
582.90394
580.00774
576.66755
575.66829
569.7031
569.70324
551.9478
535.51164
540.42644
530.47506
536.96209
527.49685
518.85572
511.56551
507.68202
507.65889
511.49797
518.73892
527.32645
536.74258
545.71424
557.34391
540.21617
530.20931
518.77409
507.62926
498.55738
493.51473
493.54511
498.64332
507.7771
518.98725
511.79806
524.24532
521.46866
533.24078
533.22841
551.95253
535.48474
524.20431
521.44833
507.93323
507.96188
493.68381
498.74052
487.88211
481.68052
481.64552
487.78112
498.56545
511.54808
523.93204
535.26169
551.6174
532.9692
521.13085
507.69036
493.49226
481.6085
474.78731
474.82432
481.72007
481.67286
493.64747
498.64947
511.7299
518.9192
530.43342
540.40148
557.60112
571.60788
577.94223
581.69088
583.16092
583.73891
585.14096
585.85648
584.39067
580.94514
575.21336
566.70281
553.05367
545.88513
536.95745
527.47207
518.82509
507.68557
498.53403
487.76956
481.55813
474.77317
474.73711
481.56504
493.46124
507.66627
521.11364
532.95778
551.62103
535.23932
523.89865
511.49306
498.48706
487.67666
481.52668
493.40671
493.42896
507.64933
511.52879
523.95467
530.28166
536.88018
545.66676
553.0106
559.19669
566.65003
557.44919
545.77267
540.22511
535.23007
532.92844
521.14055
521.12984
507.63307
511.4798
498.46379
507.55801
518.72357
530.18022
540.19804
557.36585
545.72516
536.75367
527.32453
518.73194
530.2151
523.91981
535.20718
532.92151
551.71061
551.71749
569.53878
571.46518
577.88676
580.91554
583.12939
585.85039
586.73145
593.32426
592.22383
589.09611
587.96715
581.66107
580.90409
580.91497
581.67211
588.0169
589.15853
592.16463
585.08735
585.79397
586.6662
585.75884
582.99387
581.44563
576.245
575.18742
575.18673
576.23714
581.50176
583.0487
585.74825
586.64985
585.76155
584.27642
580.81818
577.66279
571.08842
569.08548
569.1133
571.13359
577.65893
580.79589
584.30434
590.27339
592.15239
588.99898
587.82892
581.37196
580.58192
580.56572
581.34904
587.87481
589.05245
592.14131
593.2768
600.00638
592.16761
590.25949
586.94577
596.06587
584.32553
577.19077
587.56495
575.65606
557.70864
563.38975
572.50049
581.44503
587.02308
589.13593
596.14401
587.98635
581.57675
577.81369
571.44713
576.48181
575.4624
569.50078
569.495
575.44582
576.46349
571.44748
577.78628
566.54123
559.1048
552.89515
545.6942
540.18027
557.41444
566.58721
575.16834
580.84477
583.00714
581.50923
587.89637
581.63888
580.88051
580.90209
581.66625
587.90639
577.54579
584.46152
572.61381
562.51166
563.3656
565.01958
559.01236
556.83319
549.12143
556.88496
559.03551
554.07284
543.26028
548.40798
548.42668
543.69186
544.33439
548.42242
538.40037
533.60121
539.62197
530.25797
539.68022
548.54157
563.6509
548.48564
548.51297
543.32159
538.48105
544.4294
543.83611
533.68721
526.82867
538.05337
558.03991
576.05219
576.03882
587.87537
577.52767
584.39982
596.02627
589.02764
586.92766
581.40248
572.60489
563.62698
558.03028
536.08115
536.09572
535.20687
536.88911
536.81288
530.4217
528.38528
524.27093
510.51892
514.38919
521.73209
525.75846
534.31645
525.72085
521.69476
510.2246
513.66664
504.04365
518.25524
530.31438
536.77219
537.88176
535.92651
535.09432
536.67951
528.28427
524.1707
526.72004
514.33592
510.48509
514.34756
498.74394
495.78135
500.93318
489.84653
500.94199
504.04998
518.30863
514.37975
498.71668
495.75795
483.49881
485.89528
492.48428
485.93766
483.53601
476.46397
478.57161
480.86167
488.56535
501.99687
518.56986
522.55925
530.17149
538.81643
543.28661
534.13373
521.34959
534.18487
530.21501
517.4817
507.48747
511.02019
526.58219
522.25842
505.30554
508.85277
527.35766
545.66516
578.02543
583.79999
592.18572
600.30371
590.05798
582.27727
573.87131
568.53163
568.5615
587.58746
575.6827
577.22383
584.30054
596.00111
586.89122
581.42289
572.54776
563.45178
557.74151
535.9477
535.11203
536.70583
536.80433
537.9245
526.76775
524.19137
528.30421
530.34875
538.45577
544.38314
543.75934
548.50978
548.46084
548.47073
543.31727
539.72114
533.67589
521.78881
514.39501
510.50658
514.3652
518.30169
504.10646
498.76789
495.81126
501.01024
510.3466
513.76018
525.79003
534.40215
530.38717
521.8959
525.87095
518.44561
504.16318
492.56144
485.96619
483.57054
489.93736
483.59961
476.49992
478.60379
485.98152
498.84098
495.91782
501.08656
514.58369
510.72934
514.52837
528.60714
530.63067
538.64926
543.46204
554.17769
559.10096
556.94267
562.59934
572.62483
563.42639
565.08613
559.10436
557.00405
549.25916
539.85433
548.692
563.66848
548.5903
548.62801
544.54839
544.02066
533.89859
527.08167
538.2784
558.08901
537.05177
536.98499
535.37603
536.33689
524.54303
524.51669
510.69732
495.87767
483.54821
476.44463
476.41006
483.45168
495.72348
510.49136
524.24802
528.35149
535.1758
536.76335
536.83896
538.02314
526.78389
530.36286
538.39218
544.3473
543.8001
533.62947
539.64188
548.51398
548.39695
548.40807
543.2261
534.20195
525.64114
518.21996
514.34612
498.6723
503.93161
500.84811
514.3214
521.65125
510.1184
513.5162
525.58679
521.63038
530.20462
539.64518
536.77098
545.50708
552.9244
556.92292
559.02669
564.9924
554.06619
549.16221
556.90543
572.5431
562.55095
563.33655
558.98571
548.34408
543.2219
548.35256
538.36717
533.62981
543.77092
563.47958
548.48837
544.26754
536.68941
530.26716
518.09774
503.85871
492.33732
485.84023
478.50895
485.77018
483.39838
489.72461
500.79956
495.63112
498.53674
514.17341
510.39053
514.2526
526.74151
524.19344
528.23802
536.59271
535.00618
557.83528
537.96081
536.00933
536.01602
524.20244
510.40495
495.6524
483.42875
485.79521
478.53911
485.92041
492.40361
489.80864
500.98065
504.03271
498.79082
514.49059
518.34502
514.50124
521.79714
510.22053
500.86139
503.90769
498.55509
514.18413
518.12727
514.29346
521.70045
525.63439
513.59068
525.73644
534.26551
530.30987
539.80009
533.82822
527.0295
530.56364
528.56893
536.92548
535.34081
558.08088
536.32031
538.24135
536.99372
544.45596
538.54557
548.50526
543.34912
548.48839
563.64573
543.97564
548.65246
557.03216
549.28359
539.71659
533.67669
526.76841
530.28271
528.24448
536.59789
535.01138
557.83598
537.97684
536.69877
544.28735
538.39552
548.36646
543.25329
548.36633
563.48963
543.80417
548.53594
556.99315
572.56576
559.05741
554.15692
565.04157
559.08735
572.62225
562.62558
563.38727
581.39089
589.98476
582.34983
574.06381
568.84298
568.85802
574.11321
582.39455
590.02415
582.29751
573.91562
583.8353
578.05292
545.69541
558.15462
568.69863
595.12859
609.78396
623.93225
625.81379
623.78138
623.30881
605.6511
604.96428
605.32394
623.15017
624.62351
624.6992
622.95418
621.87124
622.98265
624.76291
625.50013
605.62837
605.74928
602.10626
602.22782
624.02444
625.5606
625.7838
625.17921
626.03275
604.07357
589.4908
590.50183
591.19182
608.05409
606.32817
606.65429
627.23207
627.27047
606.46778
590.09756
588.05738
588.01224
590.04029
590.17981
590.27416
607.44768
607.37704
628.2264
630.12833
629.96078
627.94526
607.44586
590.40922
590.32969
589.26089
589.40622
590.39364
591.03977
590.76739
590.24195
589.72677
589.57101
589.68829
588.56739
588.57091
589.71823
589.6677
589.91637
590.33708
590.52397
588.89532
589.02986
590.26901
590.34071
590.49583
590.97035
591.06857
591.05524
590.91462
590.35658
590.09867
589.94807
588.6795
588.581
603.21174
603.42871
607.48874
608.10625
607.50474
617.36047
606.97398
623.82811
624.23157
626.99227
629.28089
649.46792
650.35325
650.76378
650.85438
650.57253
649.72603
673.77161
700.96374
730.97545
732.47345
731.29094
730.26393
699.69395
700.88013
699.30338
729.99915
731.48113
733.35648
730.779
700.12219
701.22041
699.23716
729.86946
730.41895
699.83256
700.08867
730.65106
733.64195
733.10943
731.82927
735.10529
704.40026
702.71435
674.16727
675.7191
649.01824
646.94074
647.93598
674.10371
674.578
648.30158
650.30984
650.10037
676.91392
677.25998
706.17944
703.03114
702.50475
705.72369
736.53074
737.07586
737.79502
738.76527
737.88372
736.00568
733.54113
703.00408
700.90295
672.97493
647.49346
648.2332
674.60796
676.42156
674.47071
649.28709
650.05505
651.27014