/*--------------------------------*- C++ -*----------------------------------*\
  =========                 |
  \\      /  F ield         | OpenFOAM: The Open Source CFD Toolbox
   \\    /   O peration     | Website:  https://openfoam.org
    \\  /    A nd           | Version:  7
     \\/     M anipulation  |
\*---------------------------------------------------------------------------*/
FoamFile
{
    version     2.0;
    format      ascii;
    class       volScalarField;
    location    "410";
    object      rho;
}
// * * * * * * * * * * * * * * * * * * * * * * * * * * * * * * * * * * * * * //

dimensions      [1 -3 0 0 0 0 0];

internalField   nonuniform List<scalar> 
24866
(
1.1739074
1.1739067
1.1739069
1.1739071
1.1739072
1.1739071
1.1739072
1.1739072
1.1739072
1.1739072
1.1739072
1.1739072
1.1739072
1.1739072
1.1739072
1.1739072
1.1739071
1.1739072
1.1739072
1.1739071
1.1739071
1.1739072
1.1739073
1.1739072
1.1739071
1.1739072
1.1739072
1.1739073
1.1739073
1.1739072
1.1739072
1.1739072
1.1739072
1.1739072
1.1739072
1.1739073
1.1739073
1.1739072
1.1739072
1.1739072
1.1739073
1.1739073
1.1739072
1.1739072
1.1739072
1.1739072
1.1739072
1.1739072
1.1739073
1.1739073
1.1739072
1.1739073
1.1739073
1.1739073
1.1739072
1.1739072
1.1739072
1.1739073
1.1739071
1.1739072
1.1739075
1.1739078
1.1739075
1.1739075
1.1739078
1.173908
1.1739076
1.1739076
1.1739077
1.1739078
1.1739078
1.1739077
1.1739076
1.1739076
1.173908
1.1739078
1.1739075
1.1739075
1.1739078
1.1739075
1.1739075
1.1739077
1.1739079
1.1739081
1.1739082
1.1739077
1.1739076
1.1739077
1.1739076
1.1739077
1.1739081
1.1739083
1.1739093
1.1739093
1.173909
1.1739087
1.1739082
1.1739089
1.1739083
1.1739088
1.1739096
1.1739104
1.1739095
1.1739101
1.1739104
1.1739104
1.1739101
1.1739091
1.1739087
1.1739079
1.1739078
1.1739076
1.1739076
1.1739078
1.1739083
1.173909
1.1739096
1.1739105
1.1739111
1.1739115
1.1739115
1.1739111
1.1739119
1.1739111
1.1739101
1.1739092
1.1739083
1.1739085
1.1739094
1.1739104
1.1739115
1.1739124
1.1739129
1.1739124
1.1739124
1.173912
1.1739111
1.1739101
1.1739096
1.1739088
1.1739083
1.1739078
1.1739076
1.1739076
1.1739074
1.1739074
1.1739075
1.1739071
1.1739072
1.1739072
1.1739071
1.1739072
1.173907
1.1739071
1.173907
1.173907
1.1739071
1.1739071
1.1739071
1.1739069
1.1739068
1.1739069
1.1739071
1.173907
1.1739071
1.1739071
1.173907
1.1739072
1.1739071
1.1739071
1.1739071
1.1739072
1.1739071
1.1739071
1.1739071
1.1739071
1.1739072
1.173907
1.1739075
1.1739075
1.1739074
1.1739073
1.1739077
1.1739075
1.1739077
1.1739077
1.1739083
1.1739083
1.173909
1.1739083
1.1739088
1.1739092
1.1739083
1.1739085
1.1739094
1.1739104
1.1739115
1.1739124
1.1739129
1.1739129
1.1739129
1.1739124
1.1739115
1.1739104
1.1739093
1.1739091
1.1739082
1.173908
1.173908
1.1739078
1.1739077
1.1739071
1.173907
1.1739072
1.173907
1.1739068
1.1739069
1.1739069
1.1739068
1.173907
1.1739069
1.1739068
1.1739069
1.173907
1.1739069
1.1739069
1.1739067
1.1739067
1.1739069
1.1739067
1.1739069
1.1739069
1.1739067
1.173907
1.1739068
1.1739068
1.1739069
1.1739069
1.1739069
1.1739069
1.1739068
1.1739068
1.173907
1.1739065
1.1739062
1.1739063
1.1739063
1.1739062
1.1739067
1.173907
1.1739072
1.1739071
1.1739071
1.1739072
1.1739072
1.1739072
1.1739072
1.1739071
1.1739072
1.1739072
1.1739071
1.1739071
1.1739071
1.173907
1.1739071
1.173907
1.173907
1.1739071
1.173907
1.173907
1.1739071
1.1739072
1.1739071
1.173907
1.1739071
1.1739075
1.1739075
1.1739075
1.1739075
1.1739077
1.1739077
1.173908
1.1739078
1.1739077
1.1739076
1.1739077
1.1739083
1.1739082
1.1739093
1.1739104
1.1739115
1.1739124
1.173912
1.1739124
1.1739124
1.1739119
1.1739111
1.1739101
1.1739096
1.1739104
1.1739111
1.1739115
1.1739115
1.1739111
1.1739104
1.1739111
1.1739101
1.1739091
1.1739081
1.1739079
1.1739087
1.1739096
1.173909
1.1739096
1.1739102
1.1739105
1.1739105
1.1739101
1.1739096
1.1739088
1.1739092
1.1739094
1.1739094
1.1739092
1.1739088
1.1739083
1.1739078
1.1739083
1.1739078
1.1739075
1.1739076
1.1739074
1.1739076
1.1739075
1.1739074
1.1739077
1.1739077
1.1739075
1.1739074
1.1739068
1.173907
1.1739068
1.1739068
1.1739069
1.1739077
1.1739076
1.1739079
1.173908
1.1739075
1.1739077
1.1739076
1.1739076
1.1739077
1.1739069
1.173907
1.173907
1.173907
1.1739069
1.1739069
1.1739065
1.1739066
1.1739063
1.1739064
1.1739064
1.1739063
1.1739066
1.1739065
1.1739063
1.1739065
1.1739065
1.1739065
1.1739064
1.1739063
1.1739064
1.1739065
1.1739062
1.1739064
1.1739063
1.1739062
1.1739065
1.1739064
1.1739063
1.1739064
1.1739065
1.1739065
1.1739064
1.1739063
1.1739064
1.1739058
1.173906
1.1739055
1.1739057
1.1739057
1.1739055
1.173906
1.1739065
1.173907
1.1739068
1.1739068
1.1739069
1.1739069
1.1739069
1.1739069
1.1739068
1.1739069
1.173907
1.1739068
1.1739069
1.1739069
1.1739064
1.1739063
1.1739066
1.1739064
1.1739063
1.1739065
1.1739065
1.1739066
1.1739065
1.1739064
1.1739058
1.1739059
1.1739061
1.1739056
1.1739058
1.1739058
1.1739056
1.1739061
1.1739059
1.1739057
1.173906
1.173906
1.173906
1.1739059
1.1739057
1.1739058
1.173906
1.1739055
1.1739057
1.1739057
1.1739055
1.173906
1.1739058
1.1739056
1.1739059
1.1739059
1.1739059
1.1739059
1.1739056
1.1739048
1.173905
1.1739052
1.1739046
1.1739049
1.1739049
1.1739046
1.1739052
1.173905
1.1739048
1.1739057
1.1739063
1.1739065
1.1739065
1.1739065
1.1739065
1.1739063
1.1739064
1.1739066
1.1739063
1.1739064
1.1739058
1.1739058
1.1739056
1.173906
1.1739059
1.1739057
1.173906
1.173906
1.173906
1.173906
1.1739053
1.1739049
1.1739051
1.1739054
1.1739048
1.173905
1.173905
1.1739047
1.1739053
1.1739051
1.1739049
1.1739052
1.1739053
1.1739052
1.1739052
1.1739048
1.173905
1.1739052
1.1739046
1.1739049
1.1739049
1.1739046
1.1739052
1.173905
1.1739048
1.1739051
1.1739052
1.1739052
1.1739051
1.173904
1.1739035
1.1739038
1.1739041
1.1739033
1.1739037
1.1739037
1.1739033
1.1739041
1.1739038
1.1739035
1.173904
1.1739051
1.1739059
1.173906
1.173906
1.1739059
1.1739057
1.1739059
1.173906
1.1739056
1.1739047
1.173905
1.173905
1.1739047
1.1739053
1.1739051
1.1739049
1.1739052
1.1739053
1.1739053
1.1739043
1.1739042
1.1739037
1.173904
1.1739043
1.1739035
1.1739039
1.1739039
1.1739035
1.1739043
1.173904
1.1739037
1.1739041
1.1739042
1.1739042
1.1739041
1.1739036
1.1739039
1.1739042
1.1739033
1.1739037
1.1739037
1.1739033
1.1739041
1.1739038
1.1739035
1.173904
1.1739041
1.1739041
1.1739025
1.1739024
1.1739018
1.1739022
1.1739026
1.1739015
1.173902
1.173902
1.1739015
1.1739026
1.1739022
1.1739018
1.1739025
1.1739026
1.1739041
1.1739052
1.1739052
1.1739052
1.1739048
1.173905
1.1739053
1.1739042
1.1739034
1.1739038
1.1739038
1.1739034
1.1739043
1.173904
1.1739037
1.1739042
1.1739043
1.1739028
1.1739028
1.1739026
1.173902
1.1739024
1.1739028
1.1739017
1.1739022
1.1739022
1.1739017
1.1739028
1.1739024
1.173902
1.1739026
1.1739027
1.1739027
1.1739025
1.1739019
1.1739023
1.1739027
1.1739016
1.1739021
1.1739021
1.1739016
1.1739026
1.1739022
1.1739018
1.1739024
1.1739025
1.1739005
1.1739005
1.1739004
1.1738995
1.1739
1.1739006
1.1738992
1.1738999
1.1738999
1.1738992
1.1739006
1.1739001
1.1738996
1.1739004
1.1739006
1.1739006
1.1739026
1.1739041
1.173904
1.1739036
1.1739039
1.1739023
1.1739027
1.1739017
1.1739022
1.1739022
1.1739017
1.1739028
1.1739024
1.173902
1.1739026
1.1739006
1.1739008
1.1739008
1.1739006
1.1738998
1.1739003
1.1739009
1.1738995
1.1739001
1.1739001
1.1738995
1.1739009
1.1739003
1.1738998
1.1739006
1.1739007
1.1739007
1.1739005
1.1738997
1.1739002
1.1739007
1.1738993
1.1739
1.1738999
1.1738993
1.1739007
1.1739001
1.1738996
1.1739004
1.1738978
1.173898
1.173898
1.1738978
1.1738968
1.1738974
1.1738981
1.1738965
1.1738973
1.1738973
1.1738965
1.1738982
1.1738975
1.1738969
1.1738979
1.1738981
1.1738981
1.1738979
1.1739005
1.1739025
1.1739019
1.1738997
1.1739002
1.1739008
1.1738994
1.1739001
1.1739001
1.1738994
1.1739008
1.1739003
1.1738998
1.1738971
1.1738981
1.1738983
1.1738983
1.1738981
1.1738972
1.1738978
1.1738985
1.1738968
1.1738976
1.1738976
1.1738968
1.1738984
1.1738977
1.1738971
1.1738981
1.1738982
1.1738982
1.173898
1.173897
1.1738976
1.1738983
1.1738966
1.1738974
1.1738974
1.1738966
1.1738982
1.1738975
1.1738969
1.1738939
1.1738949
1.1738952
1.1738952
1.1738949
1.1738938
1.1738946
1.1738954
1.1738935
1.1738945
1.1738945
1.1738936
1.1738954
1.1738946
1.1738939
1.173895
1.1738952
1.1738953
1.1738951
1.173894
1.173897
1.1738976
1.1738983
1.1738967
1.1738975
1.1738975
1.1738967
1.1738984
1.1738977
1.1738949
1.1738942
1.1738953
1.1738955
1.1738955
1.1738953
1.1738942
1.173895
1.1738958
1.1738939
1.1738948
1.1738948
1.1738939
1.1738957
1.1738949
1.1738941
1.1738952
1.1738954
1.1738954
1.1738951
1.173894
1.1738948
1.1738955
1.1738937
1.1738946
1.1738946
1.1738936
1.1738954
1.1738946
1.173892
1.1738912
1.1738922
1.1738924
1.1738924
1.1738922
1.1738911
1.1738919
1.1738927
1.173891
1.1738919
1.1738919
1.173891
1.1738928
1.173892
1.1738912
1.1738922
1.1738925
1.1738925
1.1738923
1.1738913
1.1738921
1.1738948
1.1738956
1.1738938
1.1738947
1.1738947
1.1738938
1.1738957
1.1738931
1.1738923
1.1738915
1.1738926
1.1738928
1.1738928
1.1738926
1.1738916
1.1738924
1.1738932
1.1738914
1.1738923
1.1738923
1.1738914
1.1738931
1.1738923
1.1738915
1.1738925
1.1738927
1.1738926
1.1738924
1.1738914
1.1738921
1.1738929
1.1738911
1.1738921
1.1738921
1.1738911
1.1738928
1.1738911
1.1738904
1.1738897
1.1738904
1.1738904
1.1738904
1.1738903
1.1738896
1.1738903
1.173891
1.1738896
1.1738905
1.1738905
1.1738897
1.173891
1.1738904
1.1738897
1.1738904
1.1738905
1.1738905
1.1738905
1.1738898
1.1738906
1.1738912
1.173893
1.1738913
1.1738922
1.1738923
1.1738913
1.17389
1.1738914
1.1738907
1.17389
1.1738908
1.1738908
1.1738909
1.1738908
1.1738901
1.1738908
1.1738914
1.1738901
1.1738909
1.1738909
1.1738901
1.1738914
1.1738907
1.17389
1.1738907
1.1738907
1.1738907
1.1738906
1.1738898
1.1738905
1.1738912
1.1738898
1.1738906
1.1738906
1.1738898
1.1738905
1.1738913
1.1738909
1.1738903
1.1738907
1.1738906
1.1738906
1.1738907
1.1738903
1.1738908
1.1738912
1.1738904
1.1738911
1.1738911
1.1738905
1.1738912
1.1738908
1.1738903
1.1738908
1.1738907
1.1738907
1.1738909
1.1738905
1.173891
1.1738915
1.1738908
1.17389
1.1738908
1.1738908
1.1738914
1.1738908
1.1738916
1.1738912
1.1738907
1.1738912
1.1738911
1.1738911
1.1738912
1.1738908
1.1738913
1.1738917
1.1738909
1.1738915
1.1738915
1.1738909
1.1738916
1.1738912
1.1738906
1.173891
1.1738909
1.1738909
1.1738909
1.1738905
1.173891
1.1738914
1.1738906
1.1738912
1.1738912
1.1738942
1.1738939
1.1738941
1.1738939
1.1738937
1.1738938
1.1738937
1.1738937
1.1738938
1.1738937
1.1738939
1.173894
1.1738938
1.1738941
1.1738941
1.1738938
1.173894
1.1738939
1.1738938
1.1738939
1.1738938
1.1738938
1.173894
1.1738939
1.1738941
1.1738943
1.1738941
1.1738945
1.1738914
1.1738926
1.1738913
1.1738926
1.1738925
1.1738909
1.1738927
1.1738918
1.1738916
1.1738916
1.1738919
1.1738928
1.1738944
1.1738942
1.1738944
1.1738945
1.1738942
1.1738946
1.1738945
1.1738942
1.1738944
1.1738943
1.173894
1.1738941
1.173894
1.1738939
1.173894
1.1738939
1.1738941
1.1738942
1.1738939
1.1738942
1.1738992
1.1738991
1.1738991
1.1738988
1.1738989
1.173899
1.1738988
1.1738987
1.1738987
1.1738988
1.1738989
1.1738989
1.1738988
1.1738991
1.1738991
1.1738991
1.1738991
1.1738988
1.1738989
1.173899
1.1738989
1.1738988
1.1738989
1.173899
1.1738992
1.1738991
1.1738991
1.1738994
1.1738994
1.1738994
1.1738945
1.1738942
1.1738945
1.1738943
1.1738942
1.1738943
1.1738942
1.1738942
1.1738943
1.1738993
1.1738994
1.1738993
1.1738992
1.1738994
1.1738995
1.1738994
1.1738994
1.1738992
1.1738992
1.1738992
1.1738991
1.173899
1.1738989
1.173899
1.1738991
1.173899
1.1738989
1.1738991
1.1739054
1.1739052
1.1739052
1.1739054
1.1739047
1.173905
1.1739053
1.1739049
1.1739047
1.1739047
1.1739049
1.1739053
1.173905
1.1739047
1.1739054
1.1739052
1.1739052
1.1739054
1.1739047
1.173905
1.1739054
1.173905
1.1739048
1.1739049
1.1739051
1.1739055
1.1739052
1.173905
1.1739056
1.1739054
1.1739054
1.1739056
1.1738994
1.1738992
1.1738993
1.1738993
1.1738992
1.1738992
1.1738992
1.1739051
1.1739052
1.1739055
1.1739052
1.173905
1.1739056
1.1739054
1.1739054
1.1739055
1.173905
1.1739052
1.1739054
1.1739051
1.1739049
1.1739049
1.173905
1.1739053
1.1739051
1.1739048
1.1739113
1.1739122
1.1739118
1.1739118
1.1739122
1.1739113
1.1739116
1.1739121
1.1739115
1.1739114
1.1739113
1.1739115
1.1739122
1.1739117
1.1739113
1.1739123
1.1739119
1.1739119
1.1739123
1.1739113
1.1739117
1.1739123
1.1739117
1.1739115
1.1739115
1.1739117
1.1739123
1.1739117
1.1739115
1.1739123
1.1739119
1.1739119
1.1739123
1.1739114
1.173905
1.1739053
1.1739055
1.1739052
1.1739051
1.1739115
1.1739115
1.1739117
1.1739122
1.1739117
1.1739114
1.1739122
1.1739118
1.1739118
1.1739122
1.1739114
1.1739116
1.1739122
1.1739116
1.1739114
1.1739114
1.1739116
1.1739121
1.1739117
1.1739186
1.1739182
1.1739192
1.1739187
1.1739187
1.1739193
1.1739182
1.1739186
1.1739194
1.1739187
1.1739186
1.1739186
1.1739187
1.1739194
1.1739188
1.1739183
1.1739195
1.1739189
1.1739189
1.1739195
1.1739184
1.1739189
1.1739195
1.1739188
1.1739187
1.1739187
1.1739188
1.1739194
1.1739187
1.1739183
1.1739193
1.1739187
1.1739188
1.1739192
1.1739182
1.1739186
1.1739118
1.1739122
1.1739117
1.1739186
1.1739184
1.1739184
1.1739185
1.1739191
1.1739185
1.1739181
1.173919
1.1739186
1.1739185
1.173919
1.1739181
1.1739185
1.1739192
1.1739185
1.1739185
1.1739184
1.1739186
1.1739192
1.1739259
1.1739253
1.1739249
1.1739259
1.1739254
1.1739254
1.173926
1.173925
1.1739254
1.1739262
1.1739256
1.1739256
1.1739256
1.1739257
1.1739263
1.1739256
1.1739252
1.1739263
1.1739257
1.1739257
1.1739263
1.1739252
1.1739257
1.1739263
1.1739257
1.1739256
1.1739256
1.1739255
1.1739262
1.1739253
1.173925
1.1739258
1.1739252
1.1739252
1.1739256
1.1739247
1.1739251
1.1739257
1.1739191
1.1739159
1.1739156
1.1739152
1.1739151
1.1739156
1.1739159
1.1739226
1.1739256
1.1739249
1.1739246
1.1739254
1.173925
1.173925
1.1739255
1.1739247
1.173925
1.1739258
1.1739252
1.1739252
1.1739252
1.1739253
1.173931
1.1739316
1.173931
1.1739307
1.1739316
1.1739312
1.1739311
1.1739318
1.1739309
1.1739312
1.173932
1.1739314
1.1739314
1.1739315
1.1739316
1.1739322
1.1739315
1.1739311
1.1739321
1.1739315
1.1739315
1.1739321
1.1739311
1.1739315
1.1739321
1.1739315
1.1739314
1.1739313
1.1739312
1.1739318
1.1739309
1.1739307
1.1739314
1.1739308
1.1739308
1.1739312
1.1739303
1.1739306
1.1739312
1.1739306
1.1739251
1.173925
1.173925
1.173925
1.1739306
1.1739311
1.1739304
1.1739302
1.173931
1.1739306
1.1739305
1.1739311
1.1739303
1.1739306
1.1739314
1.1739308
1.1739309
1.1739309
1.1739357
1.1739358
1.1739364
1.1739358
1.1739356
1.1739364
1.1739361
1.173936
1.1739366
1.1739358
1.1739361
1.1739369
1.1739363
1.1739363
1.1739364
1.1739365
1.1739371
1.1739364
1.1739361
1.173937
1.1739365
1.1739365
1.173937
1.173936
1.1739364
1.173937
1.1739364
1.1739362
1.1739362
1.1739361
1.1739366
1.1739357
1.1739355
1.1739362
1.1739356
1.1739356
1.1739359
1.1739351
1.1739353
1.1739358
1.1739353
1.1739353
1.1739306
1.1739305
1.1739352
1.1739353
1.1739357
1.1739351
1.1739349
1.1739356
1.1739353
1.1739353
1.1739358
1.1739351
1.1739353
1.1739361
1.1739356
1.1739357
1.1739399
1.1739399
1.1739401
1.1739406
1.1739401
1.1739399
1.1739407
1.1739404
1.1739403
1.1739408
1.1739401
1.1739403
1.1739411
1.1739406
1.1739406
1.1739407
1.1739408
1.1739413
1.1739407
1.1739404
1.1739412
1.1739408
1.1739408
1.1739412
1.1739404
1.1739406
1.1739412
1.1739406
1.1739405
1.1739404
1.1739403
1.1739408
1.1739399
1.1739397
1.1739403
1.1739398
1.1739398
1.17394
1.1739393
1.1739395
1.1739399
1.1739395
1.1739394
1.1739394
1.1739394
1.1739398
1.1739393
1.1739391
1.1739398
1.1739395
1.1739395
1.1739399
1.1739393
1.1739395
1.1739403
1.1739398
1.1739435
1.1739436
1.1739437
1.1739438
1.1739443
1.1739438
1.1739437
1.1739444
1.1739441
1.1739441
1.1739446
1.1739439
1.1739441
1.1739449
1.1739444
1.1739444
1.1739445
1.1739445
1.173945
1.1739445
1.1739442
1.173945
1.1739446
1.1739446
1.173945
1.1739442
1.1739444
1.1739449
1.1739444
1.1739443
1.1739442
1.173944
1.1739445
1.1739436
1.1739435
1.173944
1.1739435
1.1739436
1.1739437
1.173943
1.1739432
1.1739436
1.1739432
1.1739431
1.1739431
1.1739431
1.1739435
1.173943
1.1739429
1.1739435
1.1739433
1.1739432
1.1739436
1.1739431
1.1739432
1.1739439
1.1739472
1.1739468
1.1739469
1.1739469
1.173947
1.1739475
1.1739471
1.173947
1.1739477
1.1739475
1.1739475
1.1739479
1.1739473
1.1739475
1.1739481
1.1739477
1.1739477
1.1739477
1.1739478
1.1739483
1.1739478
1.1739476
1.1739483
1.1739479
1.1739479
1.1739482
1.1739475
1.1739477
1.1739482
1.1739477
1.1739475
1.1739475
1.1739473
1.1739478
1.173947
1.1739468
1.1739473
1.1739468
1.1739469
1.173947
1.1739464
1.1739465
1.1739469
1.1739465
1.1739464
1.1739464
1.1739464
1.1739468
1.1739464
1.1739462
1.1739468
1.1739466
1.1739466
1.1739469
1.1739464
1.1739465
1.1739494
1.17395
1.1739496
1.1739497
1.1739497
1.1739499
1.1739503
1.17395
1.1739499
1.1739506
1.1739504
1.1739504
1.1739508
1.1739502
1.1739504
1.173951
1.1739505
1.1739505
1.1739506
1.1739506
1.1739511
1.1739506
1.1739504
1.1739511
1.1739508
1.1739508
1.1739511
1.1739504
1.1739506
1.173951
1.1739505
1.1739504
1.1739503
1.1739502
1.1739506
1.1739499
1.1739498
1.1739503
1.1739498
1.1739499
1.17395
1.1739494
1.1739495
1.1739498
1.1739494
1.1739494
1.1739493
1.1739493
1.1739497
1.1739493
1.1739492
1.1739498
1.1739496
1.1739495
1.1739499
1.1739493
1.173952
1.1739519
1.1739524
1.173952
1.1739521
1.1739521
1.1739522
1.1739527
1.1739525
1.1739524
1.1739532
1.1739531
1.173953
1.1739534
1.1739528
1.173953
1.1739535
1.173953
1.173953
1.173953
1.1739531
1.1739536
1.1739532
1.173953
1.1739537
1.1739534
1.1739534
1.1739537
1.1739529
1.1739532
1.1739535
1.173953
1.1739528
1.1739528
1.1739527
1.1739532
1.1739525
1.1739524
1.1739529
1.1739525
1.1739526
1.1739527
1.1739521
1.1739522
1.1739525
1.1739521
1.173952
1.1739519
1.173952
1.1739524
1.173952
1.1739519
1.1739525
1.1739523
1.1739523
1.1739526
1.1739549
1.1739542
1.1739541
1.1739545
1.173954
1.1739541
1.1739542
1.1739543
1.1739547
1.1739546
1.1739546
1.1739554
1.1739553
1.1739553
1.1739556
1.1739549
1.1739551
1.1739556
1.173955
1.1739549
1.1739549
1.1739551
1.1739557
1.1739553
1.1739551
1.1739559
1.1739556
1.1739556
1.1739559
1.1739551
1.1739553
1.1739556
1.173955
1.1739548
1.1739547
1.1739547
1.1739553
1.1739547
1.1739546
1.1739552
1.1739548
1.1739549
1.173955
1.1739544
1.1739545
1.1739549
1.1739544
1.1739542
1.1739541
1.1739541
1.1739547
1.1739543
1.1739542
1.1739549
1.1739547
1.1739546
1.1739564
1.1739567
1.1739561
1.1739553
1.1739557
1.1739553
1.1739554
1.1739555
1.1739555
1.1739559
1.1739558
1.1739564
1.1739572
1.1739568
1.1739569
1.1739573
1.1739566
1.1739569
1.1739571
1.1739565
1.1739564
1.1739564
1.1739566
1.1739572
1.173957
1.1739567
1.1739575
1.1739571
1.1739571
1.1739575
1.1739567
1.173957
1.1739572
1.1739566
1.1739564
1.1739563
1.1739564
1.173957
1.1739567
1.1739564
1.1739569
1.1739566
1.1739565
1.1739569
1.1739562
1.1739563
1.1739565
1.1739562
1.173956
1.1739559
1.173956
1.1739566
1.1739563
1.1739561
1.1739568
1.1739564
1.1739568
1.1739568
1.1739569
1.1739564
1.1739565
1.1739563
1.1739564
1.1739564
1.1739565
1.1739567
1.1739566
1.1739572
1.1739572
1.1739572
1.1739573
1.1739568
1.1739571
1.1739573
1.1739569
1.173957
1.173957
1.173957
1.1739573
1.1739572
1.173957
1.1739575
1.1739574
1.1739574
1.1739575
1.173957
1.1739572
1.1739573
1.1739569
1.1739569
1.1739569
1.1739568
1.1739571
1.1739568
1.1739567
1.1739571
1.1739569
1.1739569
1.173957
1.1739564
1.1739566
1.1739565
1.1739565
1.1739564
1.1739565
1.1739564
1.1739567
1.1739566
1.1739564
1.1739569
1.1739563
1.1739561
1.1739555
1.1739542
1.1739524
1.1739507
1.1739494
1.1739496
1.1739511
1.1739527
1.1739544
1.1739556
1.1739564
1.1739564
1.1739556
1.1739544
1.1739522
1.1739483
1.1739452
1.1739423
1.1739421
1.1739448
1.173948
1.1739521
1.1739543
1.1739554
1.1739562
1.1739562
1.1739563
1.1739563
1.1739549
1.1739551
1.1739556
1.1739551
1.173955
1.1739551
1.1739549
1.1739556
1.1739553
1.1739564
1.1739562
1.1739549
1.173955
1.1739548
1.1739554
1.1739551
1.1739542
1.1739537
1.1739539
1.1739548
1.1739551
1.1739555
1.1739564
1.1739562
1.1739562
1.1739565
1.1739551
1.1739557
1.1739551
1.1739549
1.1739555
1.1739549
1.1739546
1.1739544
1.1739553
1.173954
1.1739547
1.1739546
1.1739563
1.1739573
1.1739572
1.173956
1.1739546
1.173954
1.1739548
1.1739542
1.1739543
1.1739554
1.1739557
1.1739552
1.173955
1.1739553
1.1739559
1.1739557
1.1739558
1.1739542
1.1739542
1.1739551
1.1739547
1.1739561
1.1739548
1.1739546
1.1739524
1.1739527
1.1739521
1.1739526
1.1739532
1.1739528
1.1739532
1.1739509
1.1739481
1.1739475
1.173948
1.1739509
1.1739504
1.1739487
1.1739503
1.1739475
1.1739471
1.1739476
1.1739504
1.17395
1.1739473
1.173947
1.1739497
1.1739519
1.1739541
1.1739524
1.1739532
1.1739544
1.1739511
1.1739533
1.173951
1.1739488
1.1739463
1.173951
1.1739503
1.1739442
1.1739461
1.1739484
1.1739356
1.1739442
1.1739505
1.1739533
1.1739547
1.1739525
1.173951
1.1739488
1.1739521
1.1739525
1.1739538
1.1739571
1.1739569
1.173957
1.1739571
1.1739571
1.1739573
1.173954
1.173954
1.1739536
1.1739536
1.1739538
1.1739522
1.173952
1.1739506
1.173951
1.1739535
1.1739548
1.1739515
1.1739456
1.1739245
1.1739195
1.1739174
1.1739175
1.1739194
1.1739243
1.1739299
1.1739348
1.1739413
1.1739415
1.1739349
1.17393
1.1739243
1.1739195
1.1739175
1.1739177
1.1739195
1.1739243
1.1739298
1.1739348
1.1739415
1.1739415
1.173948
1.1739527
1.1739555
1.1739562
1.1739564
1.1739557
1.1739554
1.1739553
1.1739556
1.1739563
1.1739561
1.1739552
1.1739527
1.1739481
1.1739417
1.1739411
1.1739354
1.1739302
1.1739246
1.1739193
1.1739174
1.1739173
1.1739191
1.1739242
1.1739297
1.173935
1.1739409
1.1739414
1.173935
1.1739303
1.1739231
1.1739061
1.1738927
1.1738853
1.1738889
1.1738941
1.1738939
1.1738887
1.1738853
1.173893
1.1739065
1.1739234
1.1739306
1.173945
1.173951
1.1739544
1.1739539
1.1739496
1.1739425
1.17392
1.1739248
1.1739171
1.1738994
1.173885
1.1738915
1.1738961
1.1739075
1.1739168
1.1739271
1.1739325
1.1739327
1.1739274
1.1739174
1.1739079
1.1738965
1.1738916
1.1738849
1.1738961
1.173915
1.1739333
1.1739521
1.1739677
1.1739765
1.1739764
1.1739673
1.1739514
1.1739326
1.1739143
1.1738957
1.1739068
1.1738878
1.1738938
1.1739121
1.1739101
1.1739179
1.173918
1.1739424
1.1739496
1.173954
1.1739545
1.173951
1.173945
1.1739245
1.1739197
1.173912
1.1739102
1.1738925
1.1738928
1.1738922
1.1739255
1.1739155
1.1739505
1.1739321
1.1739589
1.1739866
1.1740097
1.1740232
1.1740234
1.1740103
1.1739875
1.17396
1.1739332
1.1739075
1.1738881
1.1739166
1.173952
1.1739875
1.1740249
1.1740552
1.1740733
1.174073
1.1740545
1.1740238
1.1739861
1.1740089
1.173966
1.1739749
1.1739307
1.1739308
1.1738922
1.1739256
1.1739663
1.173975
1.1740225
1.1740223
1.1740726
1.1740542
1.1740925
1.1741155
1.1741158
1.1740934
1.1740555
1.1740106
1.1739677
1.1739268
1.1738929
1.1739322
1.1739768
1.1740241
1.1740741
1.1741164
1.174142
1.1741417
1.1741154
1.1741158
1.1740729
1.174055
1.1740094
1.1739867
1.1739508
1.1739155
1.1738874
1.1738934
1.1738988
1.1739167
1.1739229
1.1739299
1.1739347
1.1739301
1.1739185
1.1739058
1.1738921
1.1738842
1.1738951
1.1739067
1.1739322
1.1739593
1.1739872
1.1740246
1.1740556
1.1740934
1.1741166
1.1741421
1.1741424
1.1741168
1.1740744
1.1740243
1.1739769
1.1739322
1.1738928
1.1739269
1.173968
1.1740111
1.1740563
1.1740943
1.1741169
1.1740745
1.1740742
1.174024
1.1740104
1.1739674
1.1739515
1.1739325
1.1739141
1.1738953
1.173891
1.1738842
1.1738875
1.173907
1.1739162
1.1739265
1.173932
1.1739766
1.1739767
1.1740242
1.174011
1.1740563
1.1740258
1.1739881
1.1739522
1.1739165
1.1738877
1.1739074
1.1739332
1.1739603
1.173988
1.1739521
1.1739678
1.1739267
1.173932
1.1738926
1.1738926
1.1738924
1.1738932
1.1738987
1.1739057
1.1739227
1.1739301
1.1739374
1.1739285
1.1739226
1.1739001
1.1738953
1.1738756
1.1738746
1.1738752
1.1738759
1.1738962
1.1739019
1.1739238
1.1739353
1.1739305
1.1739375
1.1739306
1.1739233
1.1739168
1.1739118
1.1739098
1.1739097
1.1739116
1.1739164
1.1739229
1.1739302
1.1739372
1.1739302
1.1739187
1.173906
1.1738988
1.1738938
1.173893
1.173893
1.1738938
1.1738991
1.1739064
1.1739191
1.1739229
1.1739242
1.1739025
1.1738968
1.1738772
1.1738762
1.173876
1.1738772
1.1738967
1.1739022
1.1739241
1.17393
1.1739329
1.1739237
1.1739228
1.1739056
1.1739088
1.1739042
1.1738946
1.1738937
1.1738968
1.1738913
1.1738863
1.1738821
1.1738903
1.1739058
1.1739021
1.173909
1.1738964
1.1739167
1.1738989
1.1738933
1.1739117
1.1739097
1.1738923
1.1738921
1.1739097
1.1739116
1.173893
1.1738984
1.1738842
1.1738911
1.1738956
1.1739073
1.1739165
1.1738877
1.1738843
1.173892
1.1739056
1.1739229
1.1739165
1.1738955
1.173876
1.173875
1.1738754
1.1738765
1.1738934
1.1738943
1.1739044
1.1738819
1.1738902
1.1738434
1.1738795
1.1738703
1.1739
1.1739108
1.1738998
1.1738699
1.1739188
1.1739178
1.1738566
1.173904
1.1739173
1.1738806
1.1738957
1.1739512
1.1739413
1.1739215
1.1739421
1.1739214
1.1739037
1.1738856
1.1738558
1.1738953
1.1739174
1.1739514
1.1738797
1.1739168
1.1739412
1.1739539
1.1739227
1.1738903
1.1738967
1.1738962
1.1738931
1.1738941
1.1739037
1.1739082
1.1739009
1.173905
1.173889
1.1738809
1.1738853
1.1738902
1.17393
1.1739302
1.1738865
1.173875
1.1739155
1.1739578
1.1739725
1.1739634
1.1740031
1.1739904
1.1739686
1.1739654
1.1739348
1.1739653
1.1739685
1.1740059
1.1740071
1.1740375
1.173987
1.1739578
1.1738764
1.1739232
1.1739304
1.1738874
1.173916
1.1739717
1.1739631
1.1739538
1.17399
1.1740026
1.1740008
1.1740564
1.1740524
1.1740346
1.174072
1.1740349
1.1740377
1.1739874
1.1740015
1.1740573
1.1740532
1.174095
1.1741023
1.1740779
1.1741017
1.1740944
1.1741203
1.1741295
1.1741266
1.1740976
1.1740507
1.1740036
1.1739895
1.1739668
1.1739399
1.1739202
1.1739436
1.1739899
1.1739434
1.1739667
1.1740001
1.1740315
1.1740247
1.1739693
1.1739818
1.1740451
1.1740453
1.1739959
1.1739052
1.1738632
1.1738641
1.1738636
1.1738822
1.1738961
1.1738851
1.1738896
1.1738942
1.173894
1.1738938
1.1738968
1.1738946
1.1739044
1.1739092
1.1739059
1.1738903
1.173882
1.1738861
1.1738911
1.1739303
1.1738873
1.1739157
1.1738761
1.1739229
1.1739534
1.173963
1.1739716
1.1739573
1.1739506
1.1738801
1.1739168
1.1739035
1.173856
1.1738951
1.173917
1.1739207
1.1739406
1.1739676
1.1739895
1.1740023
1.1740006
1.1739865
1.1740367
1.1740561
1.1740522
1.1740339
1.1740048
1.174006
1.1739645
1.1739338
1.1739411
1.1739672
1.1739642
1.1739859
1.1740364
1.174077
1.1741014
1.1740941
1.1740711
1.174094
1.17412
1.1741291
1.1741013
1.1740558
1.1740517
1.1740335
1.1739887
1.1740014
1.1739998
1.173971
1.1739564
1.1739502
1.1739165
1.1739181
1.1738698
1.1738995
1.1738899
1.1738816
1.1738432
1.1738792
1.1738694
1.1738991
1.1739099
1.1739202
1.1739028
1.1738849
1.1738552
1.1738946
1.1738787
1.1739155
1.1739397
1.1739521
1.1739212
1.1738893
1.1738738
1.1739145
1.1738851
1.1739285
1.1739615
1.1739615
1.1740016
1.174052
1.1740943
1.1741204
1.1741208
1.1740953
1.1740535
1.1740033
1.1739634
1.1739722
1.173886
1.1739156
1.1738751
1.1739229
1.173954
1.1739584
1.1739515
1.173879
1.1739166
1.1739413
1.1739212
1.1739035
1.173855
1.173895
1.1739178
1.1739352
1.1739659
1.1739879
1.1740016
1.1740575
1.1740385
1.1740356
1.1739907
1.1739689
1.1740066
1.174008
1.1739661
1.1739689
1.1739422
1.173921
1.1739332
1.1739147
1.1738955
1.173899
1.1738686
1.1738785
1.1739185
1.1739102
1.1738991
1.1738806
1.1738896
1.1738417
1.173869
1.1738551
1.1739175
1.1738951
1.1739517
1.173941
1.1739163
1.1738846
1.1739032
1.1738793
1.173875
1.1739584
1.173988
1.1740386
1.1740789
1.1741027
1.1741299
1.1741029
1.1740954
1.1740729
1.1740355
1.1740536
1.1740578
1.1740019
1.1740032
1.1739906
1.1739536
1.173963
1.1739726
1.1739158
1.1738862
1.1738896
1.1739223
1.1739296
1.1739295
1.1739628
1.1740031
1.1740534
1.1740951
1.1741026
1.1741296
1.1741017
1.174078
1.174072
1.1740342
1.1740373
1.1740561
1.174
1.1739864
1.173989
1.1739675
1.1740055
1.1740348
1.1740379
1.1740576
1.1740018
1.1739875
1.17399
1.173968
1.1739653
1.174007
1.1739648
1.1739343
1.1739411
1.1739201
1.1739398
1.1739523
1.1739571
1.1739708
1.1739145
1.1738846
1.1738892
1.1739284
1.1739214
1.1738739
1.173878
1.1739504
1.1738943
1.1739171
1.1738545
1.1738846
1.1739153
1.1739026
1.1738983
1.1739094
1.1739202
1.1739403
1.1739532
1.1739579
1.1739725
1.1739155
1.1738861
1.1738895
1.173922
1.1738747
1.173879
1.1739512
1.1738946
1.1739169
1.1738547
1.1738845
1.1739159
1.1739027
1.1738985
1.1738804
1.1738686
1.1739179
1.173878
1.173868
1.1738804
1.1738892
1.1738415
1.1738887
1.1738955
1.1738836
1.1738883
1.1738923
1.1738923
1.1738885
1.1738845
1.1738963
1.1738852
1.1738895
1.1738641
1.1738631
1.1739049
1.1738837
1.1738757
1.1738775
1.173884
1.1739295
1.1739443
1.1739505
1.1739521
1.1739544
1.1739527
1.1739538
1.1739513
1.1739526
1.1739528
1.1739524
1.1739527
1.1739512
1.173949
1.1739465
1.1739488
1.1739463
1.1739288
1.1739285
1.1739293
1.1739358
1.173943
1.1739487
1.1739432
1.1739444
1.1739482
1.1739527
1.1739551
1.1739544
1.1739512
1.1739489
1.1739465
1.1739445
1.1739469
1.1739504
1.1739435
1.1739434
1.1739505
1.1739547
1.1739546
1.1739531
1.1739531
1.1739506
1.173952
1.1739524
1.1739512
1.1739536
1.1739549
1.1739515
1.1739457
1.1739483
1.1739528
1.1739553
1.1739556
1.1739545
1.1739523
1.173948
1.1739449
1.1739422
1.1739421
1.1739449
1.173948
1.1739523
1.1739545
1.1739558
1.1739568
1.1739566
1.1739559
1.1739545
1.1739527
1.1739509
1.1739496
1.1739495
1.1739509
1.1739526
1.1739544
1.1739558
1.1739564
1.1739565
1.1739566
1.1739564
1.1739553
1.1739552
1.1739556
1.1739558
1.1739553
1.1739537
1.1739529
1.1739523
1.1739527
1.1739505
1.1739501
1.1739497
1.1739496
1.1739499
1.1739502
1.1739477
1.1739447
1.1739414
1.1739411
1.1739412
1.1739417
1.1739451
1.1739446
1.173945
1.1739416
1.1739412
1.17394
1.1739411
1.1739445
1.1739442
1.1739446
1.1739412
1.173941
1.1739443
1.173944
1.1739407
1.1739399
1.1739402
1.1739409
1.1739387
1.1739417
1.1739432
1.173946
1.1739442
1.1739467
1.1739498
1.1739487
1.1739461
1.1739456
1.1739481
1.1739422
1.1739443
1.1739421
1.1739402
1.1739382
1.173943
1.1739433
1.17394
1.1739375
1.1739361
1.1739278
1.1739328
1.1739364
1.1739392
1.17394
1.1739432
1.1739446
1.1739475
1.1739502
1.1739487
1.173946
1.1739443
1.1739473
1.1739499
1.1739468
1.1739443
1.1739488