/*--------------------------------*- C++ -*----------------------------------*\
  =========                 |
  \\      /  F ield         | OpenFOAM: The Open Source CFD Toolbox
   \\    /   O peration     | Website:  https://openfoam.org
    \\  /    A nd           | Version:  7
     \\/     M anipulation  |
\*---------------------------------------------------------------------------*/
FoamFile
{
    version     2.0;
    format      ascii;
    class       volVectorField;
    location    "410";
    object      U;
}
// * * * * * * * * * * * * * * * * * * * * * * * * * * * * * * * * * * * * * //

dimensions      [0 1 -1 0 0 0 0];

internalField   nonuniform List<vector> 
24866
(
(120.00024 -0.0006152867 -0.00074598038)
(120.00037 -0.00038860971 -0.00056338552)
(120.00035 -0.00045075523 -0.00046941955)
(120.00013 -0.00023958335 -0.00024112135)
(120.00003 -6.696514e-05 -7.0775424e-05)
(120.00003 -6.1909038e-05 -8.5028135e-05)
(120.00002 -4.9355466e-05 -9.6640535e-05)
(120.00003 -4.9247182e-05 -9.0470074e-05)
(120.00003 -2.993973e-05 -9.7552074e-05)
(120.00003 -2.0832381e-05 -0.00011023473)
(120.00003 -6.9040303e-06 -0.00010894196)
(120.00003 5.5430628e-06 -0.00010890028)
(120.00003 1.9660971e-05 -0.00011011406)
(120.00003 2.9235959e-05 -9.7381865e-05)
(120.00003 4.8944432e-05 -9.0575875e-05)
(120.00002 4.9525502e-05 -9.5608012e-05)
(120.00003 6.3619314e-05 -8.4339209e-05)
(120.00003 6.8546398e-05 -6.8526313e-05)
(120.00003 7.4120415e-05 -6.6933169e-05)
(120.00003 9.2360788e-05 -5.7565761e-05)
(120.00003 0.00011131592 -5.4694052e-05)
(120.00004 0.0001247504 -4.1098008e-05)
(120.00003 0.00011167527 -2.7192365e-05)
(120.00005 9.8247634e-05 -4.3197837e-05)
(120.00003 0.00012453631 -1.2633488e-05)
(120.00003 0.00013446449 1.3419881e-06)
(120.00003 0.00011627519 1.6027378e-05)
(120.00005 9.0791482e-05 4.6000949e-05)
(120.00005 0.00010587644 2.8175952e-05)
(120.00003 0.00010733371 5.5364466e-05)
(120.00003 8.6236666e-05 5.5935477e-05)
(120.00003 7.1509614e-05 6.7125869e-05)
(120.00003 6.87673e-05 7.0230289e-05)
(120.00003 5.7675952e-05 8.5014386e-05)
(120.00003 5.719578e-05 0.00010588879)
(120.00005 2.9646492e-05 0.00010463811)
(120.00005 4.7693276e-05 9.0058191e-05)
(120.00003 1.7829788e-05 0.00011530145)
(120.00003 3.1213247e-06 0.00013370738)
(120.00003 -1.0681811e-05 0.0001238635)
(120.00005 -4.1706559e-05 9.7804555e-05)
(120.00003 -2.6319543e-05 0.0001112694)
(120.00004 -4.0230882e-05 0.00012417609)
(120.00003 -5.3937857e-05 0.00011073281)
(120.00003 -5.7021389e-05 9.1659814e-05)
(120.00003 -6.6609492e-05 7.3600568e-05)
(120.00003 -6.8129703e-05 6.7740514e-05)
(120.00003 -8.4144592e-05 6.2860994e-05)
(120.00002 -9.5288862e-05 4.8576752e-05)
(120.00003 -9.051857e-05 4.813247e-05)
(120.00003 -9.6898062e-05 2.8243013e-05)
(120.00003 -0.00010979696 1.849416e-05)
(120.00003 -0.00010853504 4.437536e-06)
(120.00003 -0.0001083889 -8.1433322e-06)
(120.00003 -0.00010929918 -2.2218874e-05)
(120.00003 -9.6945344e-05 -3.1420191e-05)
(120.00003 -8.9622493e-05 -5.0698135e-05)
(120.00002 -9.5580959e-05 -5.0912824e-05)
(120.00003 -8.3666354e-05 -6.3305428e-05)
(120.00003 -6.9767919e-05 -6.8633031e-05)
(120.00003 -0.00012445247 -9.8046607e-05)
(120.00001 -0.00012586342 -0.00012719304)
(120.00003 -9.6784092e-05 -0.0001257975)
(120.00003 -0.00010048075 -0.00011978608)
(120.00002 -0.0001040135 -0.00016112765)
(120.00002 -7.6773486e-05 -0.00017880664)
(120.00002 -6.5435347e-05 -0.00016264162)
(120.00003 -5.5661289e-05 -0.00014692467)
(120.00001 -4.1780593e-05 -0.00018547508)
(120.00001 -1.4902602e-05 -0.00019635609)
(120.00001 1.3477066e-05 -0.00019633993)
(120.00001 4.0657738e-05 -0.00018541315)
(120.00002 5.5037984e-05 -0.00014678506)
(120.00002 6.5160801e-05 -0.00016256136)
(120.00002 7.6503467e-05 -0.0001785012)
(120.00002 0.00010479603 -0.00016038626)
(120.00003 0.00010214831 -0.00011910238)
(120.00003 9.8218426e-05 -0.00012391409)
(120.00001 0.00012876596 -0.0001253755)
(120.00003 0.00012898788 -9.8564766e-05)
(120.00004 0.00012729374 -0.00010290802)
(120.00001 0.00017780928 -0.00010943468)
(120.00002 0.00020809683 -9.0121321e-05)
(120.00002 0.00021489638 -6.6724022e-05)
(120.00002 0.00021282538 -1.411013e-05)
(120.00001 0.00019275794 -2.8523637e-05)
(120.00003 0.000191752 -1.3878284e-05)
(120 0.00019889289 9.5342673e-06)
(120.00002 0.00017644357 3.1747468e-05)
(120.00001 0.00017739827 4.878329e-05)
(120.00002 0.00019620274 4.4436148e-05)
(120.00001 0.00022362443 1.5066426e-05)
(120.00001 0.00025700158 2.3668578e-05)
(120.00001 0.00025689814 -3.2571426e-05)
(120.00001 0.00024008582 -8.6346633e-05)
(120.00001 0.00021591959 -0.00012432724)
(120.00001 0.0001728144 -0.00013456044)
(120.00001 0.00017924859 -0.00017795559)
(120.00001 0.00013552127 -0.0001683885)
(120.00001 0.00012009554 -0.00021516229)
(120.00001 0.00015429317 -0.00021673799)
(120 0.00018914192 -0.00019072279)
(120.00001 0.00021802417 -0.00015626585)
(120.00001 0.00024677138 -0.00010945395)
(120.00001 0.00026272779 -4.1975908e-05)
(120 0.00026232699 3.335911e-05)
(120.00001 0.00024522841 0.00010263779)
(120.00001 0.00024105734 7.6914268e-05)
(120.00001 0.00021046953 0.00011833404)
(120.00002 0.00018744218 8.0416163e-05)
(120.00001 0.00017066319 0.00010544309)
(120.00003 0.00012004596 9.80307e-05)
(120.00003 0.00012517721 9.6697899e-05)
(120.00001 0.00012575449 0.00012426408)
(120.00001 0.00016943344 0.00013175198)
(120.00001 0.00017761906 0.00017595468)
(120.00001 0.00021577351 0.00015138331)
(120 0.00018815456 0.00018637944)
(120 0.00021551497 0.00012667013)
(119.99999 0.00023102989 4.2441347e-05)
(119.99999 0.00023147984 -5.0600035e-05)
(120 0.00021602797 -0.00013295855)
(119.99998 0.00014864735 -0.00015185686)
(120 0.00012970263 -0.00021776731)
(120.00001 0.00010618203 -0.00024820464)
(120.00001 8.0907592e-05 -0.00024735241)
(120.00001 5.7576841e-05 -0.00021470467)
(120.00002 2.2343591e-05 -0.00023472439)
(120.00001 2.8603633e-05 -0.00026572283)
(120 3.7236219e-05 -0.00026566766)
(119.99999 4.5819261e-05 -0.00023334625)
(119.99997 5.2590232e-05 -0.00016284448)
(119.99996 5.6481544e-05 -6.120719e-05)
(119.99997 0.00015955757 -5.7247298e-05)
(119.99997 0.00015918762 4.978904e-05)
(119.99998 0.00014787526 0.00014601888)
(120 0.00012848073 0.00021371012)
(120.00001 0.00010439286 0.00024354132)
(120.00001 0.00015312684 0.00021409221)
(120.00001 0.00012002678 0.00020893557)
(120.00001 0.00013343097 0.00016783389)
(120.00002 0.00010724942 0.00016930799)
(120.00003 9.9705468e-05 0.00011881285)
(120.00003 9.7975989e-05 0.0001236705)
(120.00003 0.00018779259 0.00025507688)
(120.00003 0.00021029336 0.00023947765)
(120.00006 0.00029637549 0.00035867746)
(120.00014 0.00019147143 0.00028961552)
(120.00012 0.00024059834 0.00023765263)
(120.00012 0.0002418125 0.00023595552)
(120.00014 0.00029324256 0.00018608472)
(120.00012 0.00032912 0.00014812332)
(120.00012 0.00038718223 0.00016177812)
(120.00004 0.00022811555 6.9961259e-05)
(120.00005 0.00019456033 8.9375781e-05)
(120.00012 0.00039860384 0.00011955134)
(120.00012 0.00038949792 7.3111089e-05)
(120.00012 0.0003997475 6.8004523e-06)
(120.00013 0.00041547855 -5.7302441e-05)
(120.00011 0.00043817069 -0.00011892773)
(120.00015 0.00052657115 -0.00013229883)
(120.00014 0.00044509683 -0.00019538699)
(120.00013 0.00034412174 -0.00014706672)
(120.00015 0.00030674273 -0.0001917518)
(120.00013 0.00025088263 -0.00023809741)
(120.00013 0.0002462493 -0.00023525208)
(120.00014 0.00020800669 -0.00028337769)
(120.00012 0.00015890476 -0.00029601423)
(120.00014 0.00017032609 -0.00031649533)
(120.00014 9.2054572e-05 -0.00034564442)
(120.00013 6.7359432e-05 -0.00035688209)
(120.00014 1.939222e-05 -0.00037529374)
(120.00014 -2.3502965e-05 -0.00037540347)
(120.00013 -7.0710403e-05 -0.00035699443)
(120.00014 -9.4278094e-05 -0.00034621484)
(120.00014 -0.00017144713 -0.00031681159)
(120.00012 -0.00015791836 -0.00029759895)
(120.00014 -0.00020362743 -0.00028627643)
(120.00007 -0.00030122035 -0.00036009198)
(120.00007 -0.00027589091 -0.00034092813)
(120.00003 -0.00018701378 -0.00026079509)
(120.00003 -0.00021200065 -0.00024226762)
(120.00007 -0.00036253118 -0.00038870755)
(120.00013 -0.00035567586 -0.00042822292)
(120.00007 -0.00030052369 -0.00039717604)
(120.00005 -0.00036412553 -0.00036787868)
(120.00001 -0.00052383974 -0.0004293342)
(120.00001 -0.00016799113 -0.00013582902)
(120.00001 -0.00017665538 -0.00017823626)
(120.00001 -0.00013426467 -0.00016943111)
(120.00001 -0.00012013741 -0.00021564583)
(120.00001 -8.170755e-05 -0.00024754406)
(120.00001 -5.8533124e-05 -0.00021481181)
(120.00002 -2.3724238e-05 -0.00023472556)
(120.00001 -2.991461e-05 -0.00026575988)
(120 -3.8521988e-05 -0.00026567733)
(119.99999 -4.7259141e-05 -0.00023327022)
(119.99997 -5.4435225e-05 -0.00016265699)
(119.99996 -5.8918837e-05 -6.0926862e-05)
(119.99996 -5.9313281e-05 5.444834e-05)
(119.99996 5.610091e-05 5.4159359e-05)
(119.99997 5.1635426e-05 0.00015726408)
(119.99999 4.4220118e-05 0.00022919227)
(120 3.5076767e-05 0.00026064045)
(120.00001 2.5302494e-05 0.00025551691)
(120.00001 7.8626162e-05 0.0002395551)
(120.00002 4.6130992e-05 0.00019483493)
(120.00002 8.2125191e-05 0.00018613753)
(120.00005 0.00022896559 0.00053872251)
(120.00011 0.0001834583 0.00052147672)
(120.00005 0.00010208687 0.00033535247)
(120.00004 7.3240786e-05 0.00022579902)
(120.00012 0.00016715327 0.00038358865)
(120.00012 0.00015314292 0.0003251658)
(120.00029 0.00031909782 0.00064484749)
(120.00035 0.00037895924 0.00056752473)
(120.00033 0.00045365393 0.00046334038)
(120.00033 0.00047057991 0.00044503752)
(120.00035 0.00057461294 0.00036984257)
(120.0003 0.00065189174 0.0003103323)
(120.0003 0.00067089452 0.00030347802)
(120.00031 0.00072867723 0.00020086735)
(120.00031 0.00073303002 0.00013380866)
(120.0003 0.00076804263 2.0994406e-05)
(120.0003 0.00077070772 -9.0827696e-05)
(120.00028 0.00078725926 -0.00019547026)
(120.00032 0.00084695017 -0.00023744508)
(120.00032 0.0007402786 -0.00035034722)
(120.00031 0.00068096003 -0.00031900809)
(120.00036 0.0005942708 -0.00037464893)
(120.00033 0.00048266237 -0.00044858921)
(120.00034 0.00046206233 -0.00046342077)
(120.00036 0.00039522836 -0.00055950402)
(120.00032 0.00032747866 -0.00061618392)
(120.00035 0.00030784054 -0.00061305711)
(120.00036 0.0001858054 -0.00068107648)
(120.00034 0.00013462397 -0.00072162551)
(120.00035 3.5965946e-05 -0.00076253691)
(120.00035 -4.3086176e-05 -0.00076251431)
(120.00034 -0.00014081706 -0.00072158599)
(120.00036 -0.00019017308 -0.00068134284)
(120.00035 -0.00030986245 -0.00061368613)
(120.00032 -0.00032642782 -0.00061803068)
(120.00065 -0.00059484865 -0.0011067587)
(120.00072 -0.00070793532 -0.0010345466)
(120.00069 -0.00083192072 -0.00086323246)
(120.00069 -0.00085330409 -0.00084380015)
(120.00072 -0.001024223 -0.00071980748)
(120.00037 -0.00055689995 -0.00039662876)
(120.00014 -0.00028281411 -0.00020831399)
(120.00012 -0.00029398053 -0.00016219317)
(120.00014 -0.00031400728 -0.00017573249)
(120.00014 -0.00034414019 -9.8826073e-05)
(120.00013 -0.00035460944 -7.4929051e-05)
(120.00014 -0.00037361082 -2.7493182e-05)
(120.00014 -0.00037385753 1.5705765e-05)
(120.00013 -0.00035556321 6.3791246e-05)
(120.00013 -0.00034435081 8.8868131e-05)
(120.00013 -0.0003154764 0.00016718566)
(120.00011 -0.00029507162 0.00015612377)
(120.00014 -0.0002821847 0.00020537184)
(120.00013 -0.00023403333 0.00024373815)
(120.00013 -0.00023659126 0.0002488671)
(120.00014 -0.00018996896 0.00030453909)
(120.00012 -0.00014508823 0.00034221279)
(120.00014 -0.00019203229 0.0004426584)
(120.00006 -7.7981725e-05 0.00026085484)
(120.00002 -6.4088746e-05 0.00026771781)
(120.00004 -7.2742039e-05 0.00022819337)
(120.00011 -0.00011494488 0.00043566774)
(120.00013 -5.3136006e-05 0.00041248874)
(120.00011 1.1735791e-05 0.00039729981)
(120.00012 7.8199638e-05 0.00038714837)
(120.00012 0.00012485282 0.0003956898)
(120.00005 9.2750534e-05 0.0001928336)
(120.00004 0.00010611633 0.00030550861)
(120.00009 0.00015143636 0.00048369599)
(120.00011 0.00020834944 0.00049991607)
(120.00015 0.00019867857 0.00059079187)
(120.0001 0.0001405893 0.00052578839)
(120.0001 0.00010838494 0.00055867335)
(120.00009 8.7835311e-05 0.00061670091)
(120.00003 4.9139667e-05 0.00042123448)
(120.00001 5.0538523e-05 0.00017609993)
(120.00002 3.388945e-05 0.00017511713)
(120 1.1184265e-05 0.00019780349)
(120.00001 1.6672642e-05 0.00022234989)
(120.00002 -1.2756362e-05 0.00021179978)
(120.00001 -3.1050188e-05 0.00025546779)
(120.00001 -4.0357118e-05 0.00026106962)
(119.99999 -4.8906278e-05 0.00022962435)
(119.99997 -5.5467919e-05 0.0001575764)
(119.99998 -0.00015018932 0.00014665133)
(119.99997 -0.00016106112 5.0517857e-05)
(119.99997 -0.00016075434 -5.6503949e-05)
(119.99998 -0.00014943369 -0.00015140858)
(120 -0.00013023285 -0.00021763074)
(120.00001 -0.00010678959 -0.00024831728)
(120.00001 -0.00015390284 -0.00021708544)
(120 -0.00018870136 -0.00019050719)
(119.99999 -0.00021582048 -0.00013220014)
(119.99999 -0.00023153501 -4.929928e-05)
(119.99999 -0.00023172795 4.3792336e-05)
(119.99999 -0.00021626042 0.00012777311)
(120 -0.00018932 0.00018737606)
(120 -0.0001313952 0.00021418566)
(120.00001 -0.00010796476 0.00024513756)
(120.00001 -8.4935422e-05 0.00023871843)
(120.00002 -6.5360099e-05 0.00021376035)
(120.00002 -8.8923296e-05 0.00020691214)
(120.00001 -0.00012308683 0.00021460035)
(120.00001 -0.00015494595 0.00021645991)
(120.00001 -0.00017683851 0.00017780452)
(120.00001 -0.00021552825 0.00015266127)
(120.00001 -0.00024687506 0.00010440966)
(120 -0.00026423788 3.5360883e-05)
(120 -0.00026413861 -4.0424432e-05)
(120.00001 -0.00024671298 -0.00010863183)
(120.00001 -0.00021546398 -0.00015564534)
(120.00001 -0.00021425397 -0.00012177837)
(120.00001 -0.00024615989 -8.3392127e-05)
(120.00001 -0.00026441427 -3.1603376e-05)
(120.00001 -0.00026447289 2.6954963e-05)
(120.00001 -0.00024620582 7.9352713e-05)
(120.00001 -0.00021413601 0.00011863538)
(120.00001 -0.00016751702 0.00013424045)
(120.00001 -0.00012463888 0.00012775466)
(120.00001 -0.00013358676 0.00017163293)
(120.00001 -0.000108434 0.00017670653)
(120.00004 -0.00010214226 0.00012636382)
(120.00003 -9.7942891e-05 0.00012809037)
(120.00003 -0.00018640968 0.00026232043)
(120.00006 -0.00027371791 0.00034351476)
(120.00007 -0.00030176474 0.00037768649)
(120.00003 -0.00021407185 0.00025237506)
(120.00006 -0.00036507198 0.00040732348)
(120.00007 -0.00029992044 0.00039677947)
(120.00012 -0.00035712882 0.00043947287)
(120.00023 -0.00061248297 0.00076072618)
(120.00036 -0.00037147138 0.00059036308)
(120.00031 -0.00031518336 0.00067719615)
(120.00032 -0.00034486128 0.00073631357)
(120.00032 -0.0002317063 0.00084299559)
(120.00015 -0.0001286557 0.00052386408)
(120.00008 -0.00022307678 0.00063795399)
(120.00014 -0.00016872285 0.00057093767)
(120.00013 -0.00013570795 0.00058643071)
(120.00005 -7.6472667e-05 0.00041697978)
(120.00003 -7.5275581e-05 0.00038211936)
(120.0001 -9.0701273e-05 0.00059377671)
(120.00015 -0.00014889532 0.00065671937)
(120.00008 -0.00011702288 0.00054663806)
(120.00019 -0.00024330443 0.0010792937)
(120.00028 -0.00018883429 0.00078315861)
(120.0003 -8.3476125e-05 0.00076648604)
(120.0003 2.9300988e-05 0.00076395973)
(120.0003 0.00014241129 0.0007283625)
(120.00031 0.00020960085 0.00072290657)
(120.0003 0.00031265784 0.00066506852)
(120.0006 0.00055455142 0.0011291698)
(120.0006 0.00058727005 0.0011270893)
(120.00067 0.00070226478 0.0010339452)
(120.00065 0.00083477553 0.00085100033)
(120.00065 0.00086218242 0.00082139866)
(120.00068 0.0010454924 0.00068875081)
(120.0006 0.001137881 0.00057400089)
(120.00061 0.0011379424 0.00054068781)
(120.00063 0.0012830991 0.00034166113)
(120.00061 0.0012950864 0.00023037484)
(120.0006 0.001342081 4.9136922e-05)
(120.0006 0.0013443121 -0.00012601354)
(120.00059 0.0013415767 -0.00030698159)
(120.00063 0.0013676035 -0.00039511636)
(120.00061 0.0011894892 -0.00058472913)
(120.0006 0.0011631226 -0.00059596991)
(120.00069 0.0010654361 -0.00070451575)
(120.00067 0.0008747709 -0.00083286826)
(120.00068 0.00084475064 -0.00085828548)
(120.00071 0.00071445622 -0.0010301235)
(120.00064 0.00059398538 -0.0011049434)
(120.00066 0.00055379079 -0.0010907022)
(120.00069 0.00033896012 -0.0012368503)
(120.00065 0.00024041495 -0.0012717622)
(120.00064 7.0085446e-05 -0.0013152438)
(120.00064 -8.1700471e-05 -0.0013157473)
(120.00066 -0.00025072005 -0.0012721947)
(120.00069 -0.00034667213 -0.0012366053)
(120.00067 -0.00055852537 -0.0010913655)
(120.00109 -0.00090319933 -0.0017633437)
(120.00106 -0.00097103633 -0.0017720616)
(120.00117 -0.0011642757 -0.0016829478)
(120.00113 -0.0013621315 -0.0014155693)
(120.00113 -0.0014016675 -0.001378443)
(120.00117 -0.001668403 -0.001180499)
(120.00106 -0.0017588449 -0.00098707574)
(120.00065 -0.0010972136 -0.00060648842)
(120.00032 -0.00061175082 -0.0003341119)
(120.00035 -0.00060885865 -0.00031776487)
(120.00036 -0.00067690846 -0.00019794559)
(120.00034 -0.00071764678 -0.00014835561)
(120.00035 -0.00075912787 -5.0474908e-05)
(120.00035 -0.00075928149 2.9009893e-05)
(120.00034 -0.0007187058 0.00012819553)
(120.00035 -0.00067857804 0.00018000903)
(120.00034 -0.00061095156 0.00030209194)
(120.00032 -0.00061422161 0.00032246515)
(120.00036 -0.00055733472 0.00039050298)
(120.00034 -0.00046113677 0.00045766572)
(120.00033 -0.00044594273 0.00047892247)
(120.00066 -0.0008280841 0.00086830932)
(120.00068 -0.00069910084 0.0010587701)
(120.0006 -0.00058957719 0.0011568154)
(120.0006 -0.00057644874 0.0011833506)
(120.00062 -0.00038632657 0.0013612556)
(120.00058 -0.0002967843 0.0013348843)
(120.00059 -0.00011472045 0.0013374931)
(120.0006 6.1440217e-05 0.0013351543)
(120.0006 0.00024326198 0.001287514)
(120.00063 0.0003550731 0.0012739093)
(120.00103 0.00056963611 0.0020302532)
(120.001 0.00089219702 0.0017878415)
(120.00098 0.00096227528 0.0017836313)
(120.0011 0.0011591943 0.0016756277)
(120.00106 0.0013640748 0.0013951723)
(120.00106 0.0014110465 0.0013454066)
(120.0011 0.0016922401 0.0011406083)
(120.00099 0.001798802 0.00094392896)
(120.001 0.0018003895 0.00087298255)
(120.00104 0.0020435817 0.00055098838)
(120.00099 0.0020614671 0.00037710635)
(120.00097 0.0021207303 9.2147348e-05)
(120.00096 0.0021233487 -0.00017741703)
(120.00097 0.0020962467 -0.00046289763)
(120.00103 0.0021019702 -0.0006174864)
(120.00101 0.0018368823 -0.00092703648)
(120.001 0.0018175726 -0.00098418287)
(120.00112 0.0017068679 -0.001171589)
(120.0011 0.0014207913 -0.0013698502)
(120.0011 0.001372799 -0.0014125529)
(120.00115 0.0011677786 -0.0016796714)
(120.00105 0.00096608382 -0.0017711552)
(120.00108 0.00089370537 -0.0017633009)
(120.00111 0.00056234475 -0.002005592)
(120.00105 0.0003969139 -0.0020344682)
(120.00103 0.00011959067 -0.002089255)
(120.00103 -0.00013724558 -0.0020894048)
(120.00106 -0.00041281075 -0.0020343825)
(120.00112 -0.00057521598 -0.0020043558)
(120.0017 -0.00089554081 -0.0030492898)
(120.00166 -0.0013710838 -0.0026888649)
(120.00162 -0.0014887509 -0.0026797515)
(120.00178 -0.0017915076 -0.0025591364)
(120.00173 -0.0020823926 -0.0021724141)
(120.00172 -0.0021539811 -0.0021036151)
(120.00177 -0.0025399325 -0.0018126485)
(120.00162 -0.0026623234 -0.0015097573)
(120.00166 -0.0026740238 -0.0013931396)
(120.00169 -0.003034164 -0.00091764617)
(120.00112 -0.001993191 -0.00059195871)
(120.00069 -0.0012290461 -0.0003586655)
(120.00065 -0.0012653698 -0.00026218692)
(120.00064 -0.0013095709 -9.2741495e-05)
(120.00064 -0.0013104063 5.9569419e-05)
(120.00065 -0.0012673389 0.00023036919)
(120.00068 -0.001232572 0.00032958796)
(120.00066 -0.0010869414 0.00054442587)
(120.00064 -0.0011012098 0.00058579806)
(120.0007 -0.0010261456 0.00070668884)
(120.00067 -0.00085411637 0.00083729833)
(120.00109 -0.0014059415 0.0013615598)
(120.00108 -0.00136233 0.0014108956)
(120.00111 -0.0011633325 0.0016967585)
(120.00098 -0.00097467811 0.0018081088)
(120.00099 -0.00091530241 0.0018278454)
(120.00102 -0.00060509271 0.0020925018)
(120.00096 -0.00044864014 0.002086363)
(120.00095 -0.00016171879 0.0021132595)
(120.00096 0.00010910666 0.0021103605)
(120.00098 0.00039490855 0.0020502977)
(120.00149 0.00061190061 0.0030866819)
(120.00158 0.00087834783 0.0030598102)
(120.00155 0.0013545377 0.0026982177)
(120.00151 0.0014779468 0.002678299)
(120.00167 0.0017856395 0.0025415093)
(120.00163 0.0020833591 0.0021415341)
(120.00163 0.0021629904 0.0020585734)
(120.00168 0.0025639448 0.0017610656)
(120.00152 0.0026986777 0.0014536774)
(120.00155 0.0027153947 0.0013291604)
(120.00159 0.0030780149 0.00085369388)
(120.00151 0.0031021762 0.00058842711)
(120.00148 0.0031794259 0.0001545314)
(120.00147 0.0031821114 -0.00025301814)
(120.00149 0.003127304 -0.00068621319)
(120.00159 0.0031160563 -0.00093614437)
(120.00157 0.002739287 -0.0014004463)
(120.00154 0.0027099172 -0.0015128191)
(120.00171 0.0025716813 -0.0018092043)
(120.00168 0.0021677249 -0.0020991649)
(120.00169 0.0020874951 -0.0021720246)
(120.00174 0.0017892056 -0.0025584965)
(120.0016 0.0014775064 -0.0026808136)
(120.00165 0.0013546035 -0.0026903149)
(120.00169 0.00087524636 -0.0030521257)
(120.0016 0.00061558041 -0.0030809316)
(120.00157 0.0001873998 -0.0031550366)
(120.00157 -0.00021305685 -0.0031548714)
(120.00161 -0.00063927906 -0.0030801217)
(120.00237 -0.00094946726 -0.0044972782)
(120.00251 -0.0013328814 -0.0044569668)
(120.00247 -0.0020021738 -0.0039416098)
(120.00241 -0.0021889307 -0.0039020267)
(120.00262 -0.0026348255 -0.0037313511)
(120.00255 -0.0030475908 -0.0031897245)
(120.00255 -0.0031662361 -0.0030742817)
(120.00261 -0.0037069407 -0.0026614536)
(120.0024 -0.003879785 -0.0022154624)
(120.00246 -0.0039223288 -0.0020301538)
(120.0025 -0.0044371735 -0.0013610531)
(120.00236 -0.0044802934 -0.00097720019)
(120.0016 -0.0030672618 -0.0006608806)
(120.00105 -0.0020248287 -0.00042901814)
(120.00103 -0.0020806913 -0.00015284506)
(120.00102 -0.0020815166 0.00010458406)
(120.00104 -0.0020272767 0.00038225275)
(120.0011 -0.0019989594 0.00054861865)
(120.00107 -0.0017575105 0.00087999499)
(120.00103 -0.0017651679 0.00095400022)
(120.00113 -0.001673327 0.0011561586)
(120.00172 -0.0025491948 0.001772885)
(120.00167 -0.0021623775 0.0020716555)
(120.00166 -0.0020883407 0.0021536023)
(120.00169 -0.0017975046 0.0025573578)
(120.00152 -0.0014996249 0.0026965335)
(120.00155 -0.0013845789 0.0027265376)
(120.00157 -0.00091945814 0.0031026539)
(120.00148 -0.0006672254 0.0031134398)
(120.00146 -0.00023225078 0.0031679591)
(120.00146 0.00017691023 0.0031648792)
(120.00218 0.00027122383 0.0045962775)
(120.00223 0.0009121285 0.0044891307)
(120.00236 0.0013057206 0.0044501032)
(120.00232 0.0019798435 0.0039350049)
(120.00226 0.0021749606 0.0038852343)
(120.00248 0.0026274963 0.0037002369)
(120.00242 0.0030474507 0.0031461349)
(120.00242 0.0031741319 0.0030155294)
(120.00249 0.0037294494 0.0025958811)
(120.00227 0.0039117882 0.0021437959)
(120.00233 0.0039577322 0.001947343)
(120.00237 0.0044741199 0.0012741225)
(120.00225 0.0045098478 0.0008821187)
(120.0022 0.0046159118 0.00024259216)
(120.0022 0.004618163 -0.00035993802)
(120.00224 0.0045269126 -0.00099745748)
(120.00238 0.0044961082 -0.0013768207)
(120.00235 0.0039708218 -0.0020396672)
(120.00231 0.0039147977 -0.0022231778)
(120.00254 0.003729077 -0.0026634798)
(120.00249 0.0031724415 -0.0030751554)
(120.0025 0.0030445387 -0.0031926989)
(120.00258 0.0026243701 -0.0037346088)
(120.00237 0.0021692523 -0.0039061429)
(120.00244 0.001976389 -0.0039454384)
(120.00249 0.0013026931 -0.0044619728)
(120.00236 0.00091547453 -0.004499076)
(120.00232 0.00028082633 -0.0046030964)
(120.00232 -0.00031700759 -0.004602554)
(120.00335 -0.00045662679 -0.0065117142)
(120.00342 -0.0013630494 -0.0063610351)
(120.00361 -0.0019124029 -0.0063042293)
(120.00356 -0.0028274443 -0.0055897336)
(120.00348 -0.0031074047 -0.0054977522)
(120.00376 -0.0037373825 -0.005258593)
(120.00367 -0.0043049498 -0.0045190072)
(120.00367 -0.0044899011 -0.0043377298)
(120.00375 -0.0052283247 -0.0037700948)
(120.00347 -0.005470025 -0.0031400346)
(120.00355 -0.0055653777 -0.0028620377)
(120.00359 -0.0062788763 -0.0019473363)
(120.00341 -0.0063389516 -0.0013976159)
(120.00333 -0.0064908306 -0.00049141101)
(120.00231 -0.0045866562 -0.00034464408)
(120.00156 -0.0031429519 -0.00023428994)
(120.00156 -0.0031439468 0.00016679068)
(120.00158 -0.0030703982 0.00059541336)
(120.00167 -0.0030424329 0.00085620095)
(120.00163 -0.002681715 0.001335696)
(120.00158 -0.0026719929 0.001460655)
(120.00235 -0.0038938175 0.002146607)
(120.00255 -0.0037217046 0.00260233)
(120.00247 -0.0031793554 0.0030230583)
(120.00246 -0.0030603874 0.0031531313)
(120.00251 -0.0026476798 0.0037095484)
(120.00228 -0.0022056439 0.0038965141)
(120.00232 -0.0020189171 0.0039533915)
(120.00235 -0.0013550818 0.0044777888)
(120.00222 -0.00097294147 0.0045080923)
(120.00217 -0.00033330313 0.0045989887)
(120.00317 -0.00047107503 0.0064894344)
(120.00317 0.00039884679 0.0064875479)
(120.00324 0.0013142358 0.006336377)
(120.00342 0.0018753346 0.0062797629)
(120.00337 0.0027984349 0.0055670511)
(120.0033 0.0030891608 0.0054649497)
(120.00358 0.003727867 0.0052122031)
(120.00351 0.004303523 0.0044608524)
(120.00351 0.0044965094 0.0042632014)
(120.00359 0.0052493686 0.0036879616)
(120.00331 0.0054988049 0.0030499445)
(120.00339 0.0055963731 0.0027576391)
(120.00344 0.0063107266 0.0018356672)
(120.00327 0.0063633974 0.0012766651)
(120.0032 0.0065133899 0.00036298474)
(120.0032 0.0065148237 -0.00050453114)
(120.00327 0.0063734878 -0.0014150476)
(120.00346 0.0063194981 -0.001962892)
(120.00343 0.005599492 -0.002874654)
(120.00336 0.0054927788 -0.0031523566)
(120.00366 0.0052395637 -0.0037779387)
(120.0036 0.004487065 -0.0043448124)
(120.00361 0.0042917598 -0.0045264314)
(120.0037 0.0037167679 -0.0052670615)
(120.00344 0.0030771935 -0.0055060666)
(120.00353 0.0027899862 -0.0055968906)
(120.00358 0.0018696899 -0.0063120925)
(120.00341 0.0013159824 -0.0063641659)
(120.00334 0.00040703948 -0.0065127177)
(120.0047 0.00057183433 -0.0089430751)
(120.0047 -0.00063806764 -0.0089414858)
(120.0048 -0.001895523 -0.0087250221)
(120.00503 -0.0026544086 -0.0086435318)
(120.00497 -0.0038614608 -0.0076833351)
(120.00488 -0.0042671069 -0.0075006787)
(120.00521 -0.0051269799 -0.0071746467)
(120.00512 -0.0058798923 -0.0061949396)
(120.00511 -0.0061595876 -0.0059194186)
(120.00521 -0.0071377577 -0.0051664294)
(120.00487 -0.007466669 -0.004306448)
(120.00496 -0.0076531226 -0.003903376)
(120.00501 -0.0086115688 -0.0026968605)
(120.00478 -0.0086967127 -0.0019377066)
(120.00468 -0.0089143853 -0.0006809171)
(120.00467 -0.0089165728 0.00052879524)
(120.00332 -0.0064925127 0.00037252033)
(120.0023 -0.0045879356 0.00025371623)
(120.00234 -0.0044844908 0.00088884344)
(120.00247 -0.0044485235 0.0012773288)
(120.00242 -0.0039332575 0.001951142)
(120.00349 -0.0055802354 0.0027570055)
(120.0034 -0.0054894354 0.0030475051)
(120.00367 -0.0052498067 0.0036877401)
(120.00357 -0.0045086628 0.00426333)
(120.00356 -0.0043253745 0.0044613696)
(120.00362 -0.0037572914 0.0052135744)
(120.00332 -0.00312972 0.0054683675)
(120.00339 -0.0028481564 0.005576211)
(120.00342 -0.0019352323 0.0062950406)
(120.00324 -0.0013840598 0.0063485054)
(120.00458 -0.001915589 0.0086892553)
(120.00449 -0.00065119938 0.0088996862)
(120.00449 0.00056569083 0.0088990299)
(120.00458 0.0018335513 0.0086835461)
(120.00481 0.0026068072 0.0086019649)
(120.00475 0.0038251613 0.0076447695)
(120.00466 0.0042440424 0.0074519083)
(120.005 0.0051150827 0.0071121913)
(120.00491 0.0058775448 0.0061208745)
(120.00492 0.0061655155 0.0058273654)
(120.00501 0.007158768 0.0050654049)
(120.00468 0.0074944535 0.0041953572)
(120.00478 0.0076819202 0.0037745846)
(120.00484 0.0086412364 0.002557641)
(120.00462 0.0087181269 0.0017871242)
(120.00453 0.0089324118 0.00052139232)
(120.00453 0.0089327213 -0.00069263519)
(120.00463 0.0087218518 -0.0019541599)
(120.00487 0.0086383117 -0.0027140789)
(120.00483 0.0076754535 -0.0039204343)
(120.00474 0.0074783928 -0.004324239)
(120.0051 0.0071380416 -0.0051808781)
(120.00502 0.0061468025 -0.0059337796)
(120.00504 0.0058552467 -0.0062083064)
(120.00515 0.0050945423 -0.0071898404)
(120.00483 0.0042242758 -0.0075146541)
(120.00493 0.0038098808 -0.0076949804)
(120.005 0.0025963683 -0.0086552104)
(120.00479 0.0018323012 -0.0087300384)
(120.00649 0.0024571862 -0.011556775)
(120.00639 0.00077378465 -0.011853343)
(120.0064 -0.00086001246 -0.011850913)
(120.00652 -0.0025396747 -0.011549001)
(120.00676 -0.0035528125 -0.011440512)
(120.0067 -0.0050693205 -0.010203518)
(120.0066 -0.0056474087 -0.0098680842)
(120.00695 -0.0067830679 -0.00944277)
(120.00685 -0.0077381432 -0.0081984042)
(120.00684 -0.0081560148 -0.0077852961)
(120.00694 -0.0093983987 -0.0068300734)
(120.00659 -0.0098269028 -0.0056942389)
(120.00669 -0.010166514 -0.0051194351)
(120.00674 -0.011400797 -0.0036036748)
(120.00649 -0.011513236 -0.0025904243)
(120.00637 -0.011816187 -0.00091214254)
(120.00635 -0.011819032 0.00072071192)
(120.00645 -0.011523822 0.0024032724)
(120.00475 -0.0087045549 0.0017891514)
(120.00338 -0.0063447049 0.0012817733)
(120.00355 -0.0062940702 0.0018368137)
(120.00496 -0.0086315223 0.0025544998)
(120.00489 -0.0076727746 0.003767469)
(120.00478 -0.0074927841 0.0041859709)
(120.0051 -0.0071673496 0.0050569299)
(120.00499 -0.0061852533 0.0058182533)
(120.00497 -0.0059088286 0.0061132193)
(120.00504 -0.0051545283 0.007104031)
(120.00469 -0.0042956359 0.0074463815)
(120.00477 -0.0038871952 0.0076448908)
(120.00482 -0.002679495 0.008606234)
(120.00651 -0.0035814497 0.011376866)
(120.00626 -0.002560002 0.011490775)
(120.00615 -0.00087210294 0.011789745)
(120.00615 0.00077039012 0.011790777)
(120.00626 0.0024629771 0.011491645)
(120.0065 0.0034940597 0.011383267)
(120.00644 0.0050257912 0.010149933)
(120.00634 0.0056198859 0.0098042483)
(120.00669 0.00676982 0.0093645424)
(120.0066 0.0077366573 0.0081077554)
(120.00661 0.0081630901 0.0076744666)
(120.00671 0.0094221352 0.0067083636)
(120.00636 0.0098568688 0.0055597834)
(120.00647 0.010196216 0.0049634291)
(120.00654 0.011432231 0.0034336379)
(120.0063 0.011535095 0.0024060874)
(120.0062 0.011833097 0.00071613911)
(120.0062 0.011831952 -0.00092296813)
(120.00632 0.011532483 -0.0026075389)