/*--------------------------------*- C++ -*----------------------------------*\
  =========                 |
  \\      /  F ield         | OpenFOAM: The Open Source CFD Toolbox
   \\    /   O peration     | Website:  https://openfoam.org
    \\  /    A nd           | Version:  7
     \\/     M anipulation  |
\*---------------------------------------------------------------------------*/
FoamFile
{
    version     2.0;
    format      ascii;
    class       volScalarField;
    location    "460";
    object      alphat;
}
// * * * * * * * * * * * * * * * * * * * * * * * * * * * * * * * * * * * * * //

dimensions      [1 -1 -1 0 0 0 0];

internalField   nonuniform List<scalar> 
25201
(
7.998096
7.9828787
7.998119
7.9829289
7.8342809
7.9445936
7.9704095
8.0149775
7.9955846
7.9098086
7.9955668
7.9445714
7.8928339
7.1592249
7.0245823
7.7255966
7.6092195
7.4972341
7.4412231
7.1251906
7.3511196
7.3627442
7.4542633
7.2915932
7.2697686
7.0618063
7.211061
7.5080773
7.4350452
7.1312704
7.1880196
7.2659494
6.7897024
6.8762842
6.9895082
7.0249661
7.2746188
7.1952893
6.9152026
6.827934
7.1365045
7.1035758
7.0985581
6.743998
6.7834757
6.8456006
7.1335891
7.5094242
7.8261273
7.8928838
7.9543656
7.8971218
7.6929703
7.7713987
7.8542553
7.8103438
7.7732705
7.6693035
7.7174699
7.4195149
7.4595451
7.5665132
7.6123108
7.6818845
7.723271
7.8905264
7.8101931
7.5455766
7.4819116
7.2726313
7.2068423
7.2717156
7.5758625
7.6340847
7.5710233
7.0675457
7.1294616
7.2099781
7.2272016
7.2991447
7.3939659
7.4787788
7.3329072
7.3537742
7.2593127
7.3916344
7.210379
7.1595166
7.0023243
7.0917814
6.9908173
6.9390024
6.9190085
6.9177729
6.8973382
6.9863868
6.9770875
6.8885582
6.7255623
6.8350419
6.8466742
6.7439582
6.7680413
6.8698647
6.8834321
6.7989561
6.6117836
6.7308003
6.8063164
6.7825959
6.6809952
6.6967086
6.5682374
6.5482337
6.3557936
6.5056961
6.5185453
6.3765053
6.3992579
6.5895923
6.7164684
6.5442655
6.5577196
6.4209456
6.2127852
6.3861374
6.5196698
6.8060894
7.0915268
6.9147741
6.8274619
6.7829533
6.8453214
6.8859784
6.9747944
7.0748766
7.2102297
7.3327429
7.5664532
7.7732191
7.8103129
7.61228
7.4194338
7.4594536
7.6692044
7.7174034
7.7713359
7.8542227
7.9543232
7.8904958
7.7232435
7.6818479
7.4818438
7.5454898
7.8101245
7.7360052
7.8970518
7.8260352
7.5757245
7.6339914
7.2067169
7.2715518
7.3915301
7.3937666
7.4786191
7.2988937
7.226923
7.2098029
7.029758
7.1141205
7.2592016
7.3536924
7.1746324
7.2907907
7.3618442
7.2115616
7.1746615
7.1423605
6.8650474
6.8988943
6.6485005
6.7238469
6.7431132
6.6229245
6.6241302
6.4824357
6.5978099
6.586201
6.4472675
6.2381891
6.4139124
6.5707609
6.8649235
7.1422371
6.9388465
6.9905162
7.0018074
6.3986989
6.5437913
6.716014
6.8693906
6.8831968
6.7986883
6.9187095
6.9172509
6.7674709
6.5891014
6.6114827
6.7305454
6.5575137
6.4206727
6.2125745
6.3859752
6.3688437
6.3432345
6.4841414
7.9828028
7.9979075
7.8250668
7.5079893
7.4350207
7.0985776
6.8761932
7.1879205
7.131205
7.1364867
7.1035501
6.7834558
6.7439191
6.7896057
6.8278656
6.9150989
7.1951991
7.2745165
7.2657936
6.9893514
7.0247986
7.1593627
7.36259
7.6090741
0.0012788863
0.0057690462
0.013802444
0.023824631
0.31860395
0.3259812
0.024769225
0.014326923
0.0059790376
0.0013152277
0.0013328581
0.006156566
0.014775885
0.025519304
0.33395108
0.33882637
0.025832094
0.014969557
0.0062372126
0.0013421444
0.0013459205
0.0062750366
0.015060071
0.02596829
0.34206888
0.34436848
0.026057055
0.015120369
0.0062999938
0.0013482888
0.0013502555
0.0063240933
0.015180774
0.026151118
0.34623502
0.34789812
0.02626185
0.01524881
0.0063503232
0.0013522485
0.0013542643
0.006378154
0.015321267
0.026382498
0.34947018
0.35101065
0.026510766
0.015397602
0.0064070889
0.0013563078
0.0013583685
0.006436659
0.015475032
0.026641385
0.35254631
0.35409333
0.026775575
0.015554567
0.0064668159
0.0013604465
0.0013625454
0.0064974104
0.015634557
0.026910583
0.35565561
0.35723853
0.027048631
0.015716429
0.0065285417
0.0013646675
0.0013668182
0.0065601254
0.015798801
0.027187523
0.35884178
0.36046884
0.027329532
0.015883113
0.0065922868
0.0013689991
0.0013712144
0.0066249282
0.015968045
0.027472589
0.36211936
0.36379676
0.027618826
0.016054959
0.0066581838
0.0013734674
0.0013757618
0.006691979
0.016142664
0.027766409
0.36550062
0.36723337
0.027917372
0.016232494
0.0067264613
0.0013781024
0.001380489
0.0067615475
0.016323297
0.028069964
0.36899473
0.37078781
0.028225995
0.016416255
0.0067973468
0.0013829221
0.0013854007
0.0068337692
0.016510271
0.028383814
0.37261381
0.37447475
0.028545047
0.016606399
0.0068708977
0.0013879264
0.0013905022
0.0069087014
0.016703767
0.028708388
0.37637103
0.37830376
0.028875257
0.016803323
0.0069472649
0.001393131
0.001395818
0.0069865467
0.016904268
0.029044501
0.38027359
0.38228377
0.029217624
0.017007596
0.0070266824
0.0013985731
0.0014014016
0.0070676395
0.017112675
0.029393771
0.38433727
0.38643966
0.029574273
0.01722046
0.0071095994
0.0014043048
0.0014072748
0.0071526231
0.017330394
0.029758178
0.38859336
0.39078708
0.02994522
0.017442102
0.007196235
0.0014103171
0.43815793
0.02702127
0.01589049
0.0066318192
0.0013516433
0.0013488687
0.0065924121
0.015789504
0.026853425
0.43571778
0.43331392
0.026687224
0.015689225
0.0065530944
0.0013461515
0.0013434721
0.0065142821
0.015589607
0.026521998
0.43094724
0.4286372
0.026360741
0.015492664
0.0064765675
0.0013408516
0.0013382968
0.0064396401
0.015397437
0.026202355
0.42638035
0.42417379
0.026047723
0.015304494
0.0064035167
0.0013358036
0.0013333622
0.006368101
0.015212929
0.025895399
0.42201336
0.41989923
0.02574679
0.01512366
0.0063334925
0.001330973
0.0013286356
0.0062996563
0.015035904
0.025600653
0.41782955
0.41579899
0.025458243
0.014950457
0.0062666053
0.0013263501
0.0013241086
0.0062340847
0.014865879
0.025317269
0.41380064
0.41183539
0.02517929
0.014783151
0.0062021617
0.0013219088
0.0013197494
0.0061707684
0.014701212
0.025042554
0.40990249
0.40800369
0.024908983
0.014621226
0.0061399912
0.0013176292
0.0013155475
0.006109725
0.014541952
0.024776509
0.40613476
0.40429539
0.024647135
0.01446458
0.0060800352
0.001313501
0.0013114867
0.0060508003
0.014387744
0.02451855
0.4024818
0.40069492
0.024392922
0.014312702
0.0060220746
0.0013094991
0.0013075375
0.0059937736
0.014238071
0.024267884
0.39893053
0.39718906
0.024145766
0.014165194
0.0059659415
0.001305596
0.0013036723
0.0059385169
0.01409267
0.024024175
0.39546415
0.39375206
0.02390596
0.014022082
0.0059116007
0.001301763
0.0012998667
0.0058852552
0.013952396
0.02378958
0.39203713
0.39029569
0.023680135
0.013886195
0.0058598556
0.0012979899
0.0012961255
0.0058359216
0.013823909
0.023579299
0.38847426
0.38646565
0.023492996
0.01376806
0.0058135991
0.0012942483
0.0012919686
0.0057906246
0.013712199
0.023411053
0.38404425
0.38071198
0.023288207
0.013629336
0.0057553783
0.0012881733
0.0012797542
0.0056843122
0.013456706
0.023012693
0.37573241
0.36856856
0.022457024
0.013125705
0.0055493829
0.0012630205
0.0012392322
0.0053417519
0.012629067
0.021618025
0.36001935
0.33630271
0.019264091
0.011124753
0.0047270915
0.0011928645
0.0012373448
0.0053510844
0.012652486
0.021652149
0.36064379
0.36925616
0.022490165
0.01314682
0.0055575809
0.0012620531
0.0012793502
0.0056926555
0.013477154
0.023044652
0.37629628
0.38114876
0.023313392
0.01364542
0.00576196
0.001287955
0.0012918715
0.0057959116
0.013725245
0.023431768
0.38441168
0.38677978
0.023509835
0.01377863
0.0058178558
0.0012942065
0.0012961166
0.0058393938
0.013832615
0.023593365
0.3887449
0.39052905
0.023692015
0.013893551
0.0058627733
0.0012980015
0.0012998928
0.0058877499
0.013958725
0.023799933
0.39224026
0.39393004
0.023915012
0.014027643
0.0059137855
0.0013017979
0.0013037137
0.0059404442
0.014097597
0.024032303
0.39562184
0.39732977
0.024153067
0.014169655
0.0059676862
0.0013056418
0.0013075866
0.0059953463
0.014242114
0.024274592
0.39905729
0.40080965
0.024399079
0.014316454
0.0060235387
0.0013095513
0.0013115413
0.0060521647
0.014391246
0.024524361
0.40258676
0.40439197
0.024652632
0.014467944
0.0060813489
0.0013135584
0.0013156061
0.0061109976
0.014545199
0.024781875
0.40622472
0.40808808
0.024914156
0.014624391
0.00614123
0.0013176864
0.0013198027
0.0061719619
0.014704266
0.025047616
0.40998175
0.41190849
0.025184182
0.014786123
0.0062033157
0.0013219559
0.0013241484
0.0062351957
0.014868762
0.025322089
0.41386835
0.41586397
0.025463126
0.01495341
0.0062677362
0.0013263821
0.0013286591
0.0063008171
0.015038927
0.025605682
0.41789538
0.41996821
0.025751641
0.015126575
0.0063346018
0.0013309858
0.0013333652
0.0063690762
0.015215524
0.025899813
0.42208537
0.42424941
0.026051678
0.015306818
0.0064043782
0.0013357999
0.0013382913
0.0064403859
0.015399465
0.026205872
0.42645972
0.42871916
0.026363926
0.015494523
0.0064772492
0.0013408497
0.0013434787
0.0065149459
0.015591393
0.026525055
0.43103003
0.43339541
0.026690578
0.015691267
0.0065538711
0.0013461744
0.0013489089
0.0065933778
0.015791961
0.02685739
0.43580311
0.43825066
0.027025978
0.015893479
0.00663305
0.0013517022
0.0013545998
0.0066736754
0.01599754
0.02719906
0.44077205
0.0014028216
0.0071270971
0.017235301
0.029530995
0.39253692
0.39029669
0.029343687
0.017123312
0.0070832866
0.0013997374
0.0013967405
0.0070401637
0.01701313
0.02915973
0.38810696
0.38596509
0.028979699
0.016905371
0.0069979999
0.0013938247
0.0013909551
0.0069563974
0.016798696
0.028801547
0.38386033
0.38180604
0.028627471
0.016694655
0.006915852
0.0013881467
0.0013854051
0.0068761625
0.0165925
0.028456567
0.37979782
0.37783239
0.028289699
0.01649281
0.0068373703
0.0013827313
0.0013801192
0.0067993719
0.016394717
0.028125469
0.37590608
0.37401822
0.027965101
0.016299015
0.0067622379
0.0013775698
0.0013750792
0.0067258163
0.016204689
0.027806993
0.37216539
0.37034767
0.02765251
0.016112578
0.0066901585
0.0013726452
0.0013702605
0.0066551038
0.016021521
0.027499753
0.36856056
0.36680532
0.027350316
0.015932497
0.0066207298
0.0013679221
0.0013656268
0.0065869286
0.015844406
0.027202365
0.36507897
0.36338285
0.02705773
0.015758328
0.0065537749
0.0013633722
0.0013611563
0.0065211615
0.015673067
0.026914377
0.36171336
0.36007215
0.026774288
0.015589782
0.0064891614
0.0013589755
0.0013568281
0.0064576687
0.015507196
0.026635273
0.35845506
0.35686392
0.026499486
0.015426556
0.0064267628
0.001354711
0.0013526213
0.00639634
0.015346513
0.026364575
0.35529424
0.35374749
0.026232874
0.015268389
0.0063664781
0.0013505552
0.0013485086
0.0063370907
0.015190832
0.026102046
0.3522174
0.35070182
0.025975059
0.015115471
0.0063083336
0.0013464785
0.0013444654
0.0062803059
0.015041461
0.025850703
0.34918537
0.3476468
0.025734639
0.01497163
0.0062534987
0.0013424787
0.0013405164
0.006228571
0.014906931
0.025629587
0.34603405
0.34424462
0.02554247
0.014850362
0.0062058957
0.0013385552
0.0013361535
0.006182815
0.014794702
0.025461842
0.34205901
0.3389818
0.025331807
0.014707384
0.0061459784
0.0013319532
0.0013222008
0.0060704022
0.014521046
0.025028385
0.3344054
0.32804457
0.02440953
0.014161269
0.0059275168
0.0013024597
0.0012712809
0.0057296788
0.013663369
0.023524428
0.32086031
0.31983679
0.023895462
0.013868091
0.005806995
0.0012742242
0.0013155524
0.0059719155
0.014302392
0.024734703
0.3258419
0.33420356
0.025544613
0.014791801
0.0061625375
0.0013328985
0.0013423233
0.0062408527
0.014977843
0.025845708
0.33897819
0.34223362
0.025982944
0.015069113
0.0062784855
0.0013460215
0.0013483716
0.0063027321
0.015126931
0.026067738
0.34451641
0.34637524
0.026161939
0.01518743
0.0063265634
0.0013503251
0.0013523199
0.0063525178
0.015254096
0.026270483
0.34802772
0.34959267
0.026391783
0.015326955
0.006380236
0.0013543363
0.0013563822
0.006408984
0.015402169
0.026518274
0.35112414
0.35265447
0.026649681
0.015480094
0.0064384965
0.0013584431
0.0013605232
0.0064685045
0.015558642
0.02678231
0.35419457
0.35575315
0.026918148
0.015639155
0.006499073
0.0013626221
0.0013647456
0.0065300993
0.015720176
0.02705484
0.35733073
0.35893149
0.027194626
0.015803118
0.0065616883
0.0013668966
0.0013690787
0.0065937638
0.015886663
0.027335421
0.36055469
0.3622036
0.027479423
0.015972208
0.0066264476
0.0013712948
0.0013735476
0.0066596614
0.0160585
0.027624687
0.36387758
0.36557958
0.02777325
0.016146845
0.0066935159
0.0013758399
0.0013781756
0.0067279444
0.016236076
0.027923318
0.36730919
0.36906935
0.02807684
0.016327453
0.0067630678
0.0013805572
0.0013829888
0.0067988165
0.016419886
0.028232163
0.37085924
0.37268147
0.028391074
0.01651456
0.0068353241
0.0013854743
0.0013880152
0.006872502
0.01661044
0.028552032
0.37453537
0.37642422
0.02871662
0.016708578
0.0069104617
0.0013906149
0.0013932742
0.0069491357
0.016808071
0.02888351
0.3783493
0.38031591
0.029054175
0.016909928
0.0069886607
0.0013959956
0.0013987757
0.0070289396
0.017013285
0.029227385
0.3823263
0.38438464
0.029404298
0.017118938
0.0070700539
0.0014016159
0.0014045153
0.0071119595
0.017226247
0.029584036
0.38649304
0.38865451
0.029767993
0.017336182
0.0071548529
0.0014074845
0.0014105319
0.0071988058
0.017448396
0.029955685
0.39087043
0.39313857
0.030147507
0.017563096
0.0072436785
0.0014136617
0.0014027785
0.0071266394
0.017234152
0.029529091
0.39251884
0.39028349
0.029341889
0.017122234
0.0070828583
0.0013996916
0.0013966918
0.0070397252
0.017012041
0.029157918
0.38809688
0.38595588
0.028977809
0.016904239
0.0069975399
0.0013937744
0.001390905
0.0069559177
0.016797508
0.028799558
0.38385094
0.38179412
0.028625407
0.016693426
0.0069153581
0.0013881
0.0013853631
0.0068756605
0.01659124
0.028454439
0.37978217
0.37781296
0.028287536
0.016491543
0.0068368745
0.0013826953
0.0013800888
0.0067988733
0.016393433
0.028123278
0.37588311
0.37399328
0.027962939
0.016297743
0.0067617438
0.0013775433
0.0013750561
0.0067253491
0.016203478
0.027804944
0.37214008
0.3703229
0.027650598
0.016111437
0.0066897151
0.0013726248
0.0013702418
0.0066546934
0.016020467
0.027497994
0.36853711
0.36678337
0.027348703
0.015931522
0.0066203458
0.0013679047
0.00136561
0.0065865709
0.015843507
0.027200889
0.36505855
0.36336338
0.027056341
0.015757478
0.0065534367
0.0013633565
0.0013611416
0.0065208378
0.015672259
0.026913058
0.36169451
0.36005326
0.026772984
0.015588978
0.006488837
0.0013589614
0.0013568149
0.0064573594
0.015506417
0.026634007
0.35843604
0.3568443
0.026498197
0.015425766
0.0064264512
0.0013546988
0.0013526097
0.0063960209
0.015345701
0.02636325
0.35527398
0.35372627
0.026231496
0.015267541
0.0063661429
0.0013505438
0.0013484974
0.0063367458
0.015189959
0.026100623
0.35219528
0.35067875
0.025973567
0.015114553
0.0063079751
0.0013464681
0.001344455
0.0062799266
0.015040494
0.025849139
0.34916175
0.3476226
0.025732983
0.014970611
0.0062531015
0.0013424678
0.0013405044
0.0062281794
0.014905902
0.025627888
0.34601024
0.34422244
0.025540678
0.014849286
0.0062054839
0.001338539
0.0013361267
0.0061824936
0.014793767
0.025460131
0.34204198
0.33897554
0.025329955
0.014706384
0.0061456119
0.0013319113
0.0013220626
0.0060695462
0.014518987
0.025024721
0.33440686
0.32807779
0.024404272
0.01415842
0.005926409
0.0013023123
0.0012703585
0.0057263803
0.013657566
0.023514025
0.32102157
0.36157338
0.021709303
0.01271056
0.0053822989
0.0012327125
0.0012619395
0.0055522177
0.013125957
0.022456833
0.36895987
0.3763036
0.023047326
0.013479006
0.0056931222
0.0012793107
0.0012881109
0.0057620463
0.013644501
0.023311876
0.38113001
0.38436498
0.023429737
0.013723986
0.0057953177
0.0012919183
0.0012942211
0.00581696
0.013775874
0.02350538
0.38671062
0.38866747
0.023589902
0.013830532
0.0058384546
0.0012961055
0.0012979831
0.0058618126
0.013890705
0.023687358
0.39045028
0.39216602
0.02379669
0.013956794
0.0058868769
0.001299867
0.0013017705
0.005912909
0.01402503
0.023910741
0.39385907
0.39555662
0.024029394
0.014095872
0.0059396582
0.0013036827
0.0013056105
0.0059668795
0.014167249
0.024149145
0.39726779
0.39900052
0.024271943
0.014240548
0.0059946323
0.0013075535
0.0013095176
0.0060228024
0.014314244
0.024395474
0.40075558
0.40253697
0.02452191
0.014389797
0.0060515023
0.0013115049
0.0013135198
0.0060806384
0.014465825
0.024649187
0.40434402
0.40618005
0.024779421
0.014543741
0.0061103338
0.0013155644
0.0013176406
0.006140495
0.014622235
0.024910664
0.40804414
0.40993934
0.025044906
0.014702644
0.006171236
0.0013197517
0.0013219008
0.0062024917
0.014783768
0.025180377
0.41186526
0.41382529
0.025318937
0.014866867
0.0062343696
0.0013240902
0.0013263241
0.0062668138
0.014950835
0.025458981
0.41581902
0.41784981
0.025602255
0.01503685
0.0062999275
0.0013286064
0.0013309454
0.0063336782
0.015124025
0.025747555
0.41992056
0.42203747
0.025896758
0.015213672
0.0063682914
0.0013333454
0.0013358026
0.0064036725
0.015304797
0.026048446
0.42420085
0.42641181
0.026203852
0.015398272
0.006439891
0.0013383184
0.0013408941
0.0064768628
0.015493268
0.026361881
0.42867123
0.43098214
0.02652381
0.015590714
0.0065146874
0.0013435309
0.0013462179
0.0065535249
0.015690132
0.026688721
0.43334647
0.4357501
0.026855605
0.015790931
0.0065929815
0.0013489371
0.0013517084
0.0066325072
0.015891881
0.02702334
0.43819145
0.44070266
0.027195963
0.015995696
0.0066729893
0.0013545843
0.39304016
0.030139065
0.017558067
0.0072417088
0.001413528
0.0014103846
0.0071967934
0.01744324
0.029946957
0.39078167
0.38858716
0.029760381
0.017331781
0.0071531621
0.0014073507
0.0014043792
0.00711005
0.017221475
0.029576008
0.38643153
0.38432925
0.029395711
0.017113848
0.0070680612
0.0014014677
0.0013986183
0.0070269312
0.017008111
0.029218562
0.38227759
0.38027251
0.029045394
0.016904789
0.006986673
0.001395836
0.0013931182
0.0069472096
0.016803096
0.028874952
0.37830863
0.37638393
0.028708319
0.016703732
0.0069085904
0.0013904649
0.0013878721
0.0068707001
0.016605799
0.028544058
0.37449394
0.37263937
0.028383653
0.016510219
0.006833646
0.0013853426
0.001382871
0.0067972621
0.016415883
0.028225303
0.37081522
0.36902337
0.028070518
0.016323716
0.0067616191
0.0013804527
0.0013780819
0.0067265866
0.016232588
0.0279174
0.36725987
0.36552666
0.027767631
0.016143488
0.0066922144
0.0013757543
0.0013734677
0.0066584065
0.016055268
0.027619221
0.36382051
0.36214361
0.02747408
0.015969007
0.0066252082
0.0013712182
0.0013690043
0.0065925415
0.015883499
0.027330072
0.36049188
0.35886721
0.027189284
0.015799919
0.0065604556
0.0013668233
0.0013646723
0.0065288619
0.015716965
0.027049413
0.35726457
0.35568625
0.026912716
0.015635907
0.006497825
0.0013625485
0.0013604489
0.0064672517
0.015555372
0.026776773
0.35412667
0.35258676
0.026644148
0.01547678
0.0064372298
0.0013583687
0.0013563075
0.0064077232
0.015398864
0.02651267
0.35105618
0.34952547
0.026386205
0.015323612
0.0063789649
0.0013542611
0.0013522438
0.0063512725
0.015250812
0.026264896
0.34796096
0.34631027
0.026156555
0.01518423
0.0063253626
0.0013502491
0.0013482963
0.0063017218
0.015124159
0.026062864
0.34445387
0.3421761
0.025978735
0.015066654
0.0062776023
0.0013459454
0.0013422258
0.0062407853
0.01497737
0.02584451
0.33894346
0.33416354
0.025539987
0.014788115
0.0061609508
0.0013326933
0.0013147867
0.0059752689
0.014309837
0.024744529
0.32589431
0.31959993
0.023885598
0.013863316
0.0058054409
0.0012733089
0.0012789621
0.0057843486
0.013837211
0.023876435
0.31916518
0.32635124
0.024789606
0.014340346
0.0059848704
0.0013148541
0.0013325616
0.0061609859
0.014786311
0.025535444
0.33426383
0.33909093
0.025846828
0.014978679
0.0062408719
0.0013420071
0.001345883
0.0062786315
0.015069085
0.025982877
0.34230331
0.34456773
0.026070115
0.015128396
0.0063031549
0.0013483043
0.0013502985
0.0063269747
0.01518809
0.02616298
0.34641002
0.34805333
0.026272466
0.015255341
0.0063528837
0.0013523055
0.0013543286
0.006380466
0.015327183
0.026392133
0.34960981
0.35113738
0.026519545
0.015402981
0.0064091902
0.0013563752
0.0013584367
0.006438578
0.015479969
0.026649465
0.35266264
0.35420129
0.026783074
0.01555914
0.0064685887
0.001360516
0.0013626162
0.00649907
0.015638841
0.026917632
0.35575666
0.35733396
0.027055296
0.015720472
0.0065301054
0.0013647389
0.0013668904
0.0065616112
0.015802657
0.027193898
0.35893286
0.36055682
0.027335674
0.015886827
0.0065937219
0.001369073
0.0013712892
0.0066263367
0.015971679
0.027478605
0.36220507
0.36388101
0.02762477
0.016058549
0.0066595793
0.0013735419
0.0013758337
0.0066933681
0.016146239
0.027772325
0.36558413
0.3673175
0.027923192
0.016236
0.0067278225
0.0013781663
0.0013805409
0.0067628497
0.016326682
0.028075634
0.36908117
0.37087761
0.02823142
0.016419462
0.0067985722
0.00138296
0.001385425
0.0068349055
0.016513275
0.028388946
0.37270617
0.37456888
0.028549879
0.016609211
0.0068719569
0.0013879401
0.0013905082
0.0069097012
0.016706445
0.028712999
0.37646727
0.37840261
0.028879764
0.016805957
0.0069482491
0.0013931341
0.0013958237
0.0069875551
0.01690697
0.029049095
0.38037627
0.38239143
0.029222528
0.017010521
0.0070277864
0.0013985859
0.0014014235
0.0070688794
0.017115948
0.029399229
0.38445095
0.38656001
0.029580319
0.017224111
0.0071109969
0.0014043387
0.001407325
0.0071541786
0.017334341
0.029764635
0.38871386
0.39090181
0.029951723
0.017446097
0.0071978425
0.0014103833
0.0014135555
0.0072428522
0.017561093
0.030144189
0.39315547
8.0820357
8.0774111
8.0820137
8.0773663
8.0156296
8.0451528
8.0569419
8.1018559
8.0950117
8.0451691
7.9820379
8.0510448
8.0949965
8.0743206
8.0098038
7.9695276
7.9330676
7.7892916
7.8337056
7.6822182
7.9042273
7.8634703
7.6142833
7.4232879
7.7965141
7.9733449
8.0424092
7.9009421
7.955125
7.9967567
8.0456865
7.943031
7.8971341
7.7528672
7.8215544
7.6704644
7.9485256
7.9092401
7.8587517
7.7937544
7.8425787
7.503543
7.3825983
7.2961062
7.7461685
7.6792662
7.6358961
7.6928683
7.2724899
7.3448084
7.2122181
7.1359182
7.067357
7.1292642
7.5092436
7.5708966
7.5709074
7.8260092
7.9827638
7.9978766
7.9443836
7.892668
0.32173537
0.023508635
0.013657307
0.0057263463
0.0012761089
0.001304125
0.0059185616
0.014137118
0.024366188
0.32809951
0.33418664
0.024989541
0.014497593
0.0060608463
0.0013226853
0.0013321812
0.00613876
0.014689301
0.025302984
0.33872917
0.34185166
0.025444174
0.014783262
0.0061779563
0.0013362812
0.0013386473
0.0062024269
0.014841658
0.025529212
0.34408231
0.34591381
0.025621559
0.014901513
0.0062261766
0.0013405829
0.0013425323
0.0062517372
0.014967065
0.025727826
0.34755532
0.34911917
0.025847085
0.01503891
0.0062791017
0.0013445099
0.0013465191
0.0063074585
0.015113074
0.025971579
0.35065224
0.35218316
0.026100877
0.015189878
0.0063365476
0.0013485452
0.001350591
0.0063661025
0.015267242
0.026231321
0.3537226
0.35527885
0.026364834
0.015346495
0.0063961875
0.001352656
0.0013547451
0.0064266868
0.015426164
0.026499098
0.35685308
0.35844943
0.026636357
0.015507719
0.006457738
0.0013568616
0.0013590093
0.006489254
0.015589832
0.02677458
0.36006763
0.36171078
0.026915917
0.015673904
0.006521365
0.0013611906
0.0013634085
0.0065539878
0.01575869
0.027058484
0.36337859
0.36507381
0.027204289
0.015845511
0.0065872536
0.0013656665
0.0013679658
0.0066210848
0.01593321
0.027351596
0.36679663
0.36854963
0.027502255
0.016023006
0.0066555934
0.0013703094
0.0013726998
0.0066907107
0.016113819
0.027654655
0.37033267
0.37214835
0.027810516
0.016206796
0.0067265551
0.0013751406
0.0013776327
0.0067630528
0.016300941
0.027968366
0.37399668
0.37588099
0.028129771
0.016397304
0.0068003157
0.0013801801
0.0013827839
0.0068382783
0.016494983
0.028293416
0.37780215
0.37976421
0.028460705
0.016594944
0.0068770498
0.001385448
0.001388173
0.0069165717
0.016696397
0.028630534
0.38176879
0.38381916
0.028804115
0.016800198
0.0069569573
0.0013909636
0.0013938205
0.0069981514
0.016905679
0.028980534
0.3859176
0.38806647
0.029160999
0.017013694
0.0070403127
0.0013967513
0.0013997581
0.0070833772
0.017123696
0.029344839
0.39026714
0.39252194
0.029532991
0.017236342
0.0071274415
0.0014028478
0.0013996818
0.0070823914
0.017121164
0.029340273
0.39023146
0.38804485
0.02915727
0.017011654
0.0070395424
0.0013966928
0.0013937764
0.0069973958
0.01690375
0.028977047
0.38590512
0.38380202
0.028798889
0.016797063
0.0069556801
0.0013909018
0.0013880863
0.0069149597
0.016692336
0.028623728
0.38174821
0.37974212
0.028452714
0.01659017
0.0068751777
0.0013853391
0.0013826568
0.0068361936
0.016489682
0.028284518
0.37777723
0.37585124
0.028120236
0.016391596
0.0067980841
0.0013800391
0.001377486
0.0067608097
0.016295173
0.027958666
0.37396183
0.37211032
0.02780139
0.016201392
0.0067244829
0.0013749992
0.0013725705
0.0066889009
0.016109074
0.027646551
0.37029429
0.36850868
0.027495033
0.016018732
0.0066539584
0.0013701916
0.0013678578
0.0066195095
0.015929159
0.027344786
0.36674922
0.36501967
0.027197843
0.015841629
0.0065857469
0.0013655677
0.0013633179
0.006552543
0.015754948
0.027052204
0.36331676
0.36164227
0.02690972
0.01567018
0.0065199316
0.0013611047
0.0013589253
0.0064878054
0.015586062
0.02676823
0.35999225
0.35836869
0.026629845
0.015503813
0.0064562386
0.0013567776
0.0013546594
0.006425132
0.015422118
0.026492278
0.35676676
0.35518797
0.026357799
0.015342268
0.006394562
0.0013525683
0.0013505016
0.0063644161
0.015262855
0.026223951
0.35362661
0.35208282
0.026093264
0.015185298
0.0063347892
0.0013484544
0.0013464268
0.0063056162
0.015108277
0.025963538
0.35054633
0.34900833
0.025838662
0.01503382
0.0062771465
0.0013444162
0.0013424372
0.0062496564
0.014961661
0.025718809
0.34743771
0.34578853
0.02561204
0.014895744
0.0062239551
0.0013404904
0.0013385596
0.0062000754
0.0148356
0.025519164
0.34394581
0.34169347
0.02543412
0.014777011
0.0061754898
0.0013362242
0.0013321648
0.0061362657
0.014683572
0.025294576
0.33852358
0.33380802
0.024981748
0.014490286
0.0060571386
0.0013227829
0.0013041616
0.0059141753
0.01413156
0.024367181
0.32738056
0.32000975
0.023477041
0.013620452
0.0057077132
0.0012757219
0.0012327387
0.0053395721
0.012688569
0.021914501
0.3067444
0.32089568
0.025245161
0.01453599
0.0060141445
0.0013015225
0.0012781289
0.0058332574
0.013926263
0.023984442
0.32147081
0.32610927
0.024740035
0.014308656
0.0059754958
0.0013170856
0.001333334
0.006159825
0.014783938
0.025530134
0.33420483
0.33885525
0.025830615
0.014968644
0.0062371049
0.0013425784
0.0013461887
0.0062754981
0.01506132
0.02597046
0.34210204
0.34439162
0.026058658
0.015121093
0.0063001968
0.0013484926
0.0013504133
0.0063244835
0.015181969
0.026153415
0.34626489
0.3479331
0.026264554
0.015250258
0.006350814
0.0013523823
0.0013543826
0.0063787788
0.015323036
0.026385687
0.34951085
0.3510557
0.026514334
0.015399613
0.006407819
0.0013564158
0.0013584684
0.0064374761
0.015477254
0.026645262
0.35259483
0.35414443
0.026779691
0.015556942
0.0064676932
0.0013605411
0.0013626364
0.0064983444
0.015637057
0.026914881
0.35570854
0.35729276
0.027053118
0.015719052
0.0065295272
0.0013647562
0.0013669055
0.0065611569
0.015801536
0.027192174
0.35889687
0.36052472
0.027334314
0.015885939
0.0065933595
0.0013690857
0.0013713009
0.0066260515
0.015970986
0.027477535
0.36217557
0.3638529
0.027624013
0.016058053
0.0066593719
0.0013735532
0.001375844
0.0066932319
0.016145914
0.027771828
0.36555607
0.36728816
0.027922967
0.01623583
0.0067277408
0.0013781757
0.0013805519
0.0067628276
0.016326669
0.028075662
0.36904865
0.37084067
0.028231776
0.016419633
0.0067986155
0.0013829757
0.001385449
0.0068350287
0.016513668
0.028389709
0.37266374
0.37452124
0.02855117
0.016609902
0.0068721873
0.0013879758
0.0013905592
0.0069100174
0.016707369
0.02871473
0.37641417
0.37834522
0.028881971
0.016807138
0.0069486659
0.0013932036
0.0013959093
0.0069880701
0.016908384
0.02905169
0.38031462
0.38232631
0.029225288
0.017012055
0.0070283521
0.0013986818
0.0014015234
0.0070694844
0.017117474
0.029401818
0.3843817
0.38648415
0.029582666
0.017225612
0.0071116426
0.0014044405
0.0014074399
0.0071549236
0.01733614
0.02976735
0.3886358
0.39083854
0.029957145
0.017450332
0.0071999198
0.0014105337
0.001413706
0.0072480608
0.017568572
0.030150365
0.39309419
0.0013996764
0.0070820326
0.017120474
0.029339401
0.39024134
0.38803875
0.029154323
0.017009746
0.0070387571
0.0013966571
0.0013937183
0.0069965194
0.016901441
0.028973243
0.38589224
0.38380102
0.028796961
0.016796102
0.0069554198
0.0013908613
0.0013880781
0.0069151775
0.016692676
0.028623953
0.38175732
0.37975776
0.028454867
0.016591637
0.0068758131
0.0013853665
0.0013827191
0.0068372166
0.01649215
0.028288373
0.37779749
0.37587668
0.028125664
0.01639499
0.0067994554
0.0013801341
0.0013776076
0.0067622998
0.016299011
0.027964985
0.37398924
0.37212478
0.027806062
0.016204014
0.0067254074
0.0013751094
0.0013726485
0.0066892695
0.016110227
0.027648876
0.37029326
0.368498
0.02749537
0.016018736
0.0066539206
0.0013702301
0.0013678791
0.006619594
0.015929311
0.027345106
0.36674389
0.36501924
0.027198334
0.015841898
0.0065858583
0.0013655824
0.0013633298
0.006552658
0.01575526
0.027052771
0.36331889
0.36164477
0.02691025
0.015670479
0.0065200443
0.0013611158
0.0013589375
0.0064879105
0.01558634
0.0267687
0.35999369
0.3583679
0.02663019
0.015504028
0.0064563227
0.0013567912
0.0013546749
0.0064251863
0.015422252
0.02649249
0.35676366
0.35518224
0.026357824
0.015342288
0.0063945698
0.0013525852
0.0013505197
0.0063643788
0.015262765
0.026223803
0.35361817
0.35207094
0.026092874
0.01518505
0.0063346823
0.0013484741
0.0013464491
0.0063054455
0.015107882
0.025962924
0.35053065
0.34898819
0.025837799
0.015033263
0.0062769053
0.0013444423
0.0013424692
0.0062493629
0.014960973
0.025717738
0.34741314
0.34575959
0.025610678
0.014894869
0.0062235816
0.0013405295
0.0013386082
0.0061996667
0.014834623
0.025517607
0.34391475
0.34166485
0.025432144
0.014775756
0.0061749472
0.00133628
0.0013322341
0.0061358737
0.014682613
0.025292971
0.33851765
0.33386007
0.024982423
0.014490817
0.006057387
0.0013228895
0.0013043801
0.0059160118
0.014136148
0.024374698
0.32754807
0.32030138
0.023493666
0.013629292
0.0057111805
0.001276194
0.0012340248
0.0053707575
0.012768039
0.022042016
0.30804319
0.34093869
0.019741344
0.011427283
0.0048461346
0.0012038143
0.0012738663
0.0056722261
0.013545501
0.023325675
0.31458991
0.31900317
0.023474568
0.013642531
0.0057120731
0.0012714557
0.0012747247
0.0057207483
0.013643553
0.023488916
0.32151818
0.32808839
0.024369621
0.01413935
0.0059196102
0.0013037731
0.0013224088
0.0060604924
0.014496801
0.024988779
0.33421084