/*--------------------------------*- C++ -*----------------------------------*\
  =========                 |
  \\      /  F ield         | OpenFOAM: The Open Source CFD Toolbox
   \\    /   O peration     | Website:  https://openfoam.org
    \\  /    A nd           | Version:  7
     \\/     M anipulation  |
\*---------------------------------------------------------------------------*/
FoamFile
{
    version     2.0;
    format      ascii;
    class       volVectorField;
    location    "460";
    object      U;
}
// * * * * * * * * * * * * * * * * * * * * * * * * * * * * * * * * * * * * * //

dimensions      [0 1 -1 0 0 0 0];

internalField   nonuniform List<vector> 
25201
(
(120.03294 0.021054742 0.013997901)
(120.0358 0.026228155 0.0047897847)
(120.03262 0.014569527 0.020651175)
(120.03472 0.005226519 0.025797646)
(120.02178 0.020872021 0.019822538)
(120.03281 0.015280846 0.020500835)
(120.03308 0.018678909 0.017877515)
(120.03673 0.025049934 0.024542096)
(120.03853 0.019278814 0.02618335)
(120.03044 0.021601663 0.021055985)
(120.03884 0.026720294 0.018774856)
(120.03333 0.021249978 0.014291286)
(120.02756 0.026649436 0.010704067)
(119.96147 0.061942252 0.032216783)
(119.95024 0.073216511 0.030147165)
(120.01527 0.01933395 0.02668677)
(120.00377 0.01751439 0.033112671)
(119.99628 0.02863643 0.036392107)
(119.99583 0.027830085 0.047016555)
(119.97078 0.038287492 0.068296213)
(119.98754 0.026745885 0.056271665)
(119.97687 0.023524226 0.051158048)
(119.98618 0.025113811 0.043332093)
(119.97007 0.034011625 0.051294092)
(119.98158 0.038643832 0.057659332)
(119.96787 0.051798761 0.068886989)
(119.97447 0.048855354 0.046659026)
(119.99553 0.012586047 0.041342095)
(119.98919 0.0029878695 0.046470946)
(119.96954 0.011570932 0.079837496)
(119.97408 0.01877627 0.074040011)
(119.98105 0.024332377 0.065098543)
(119.94137 0.018515225 0.10500513)
(119.94964 0.02908313 0.094987826)
(119.95972 0.036083539 0.082806059)
(119.94612 0.029784898 0.07016361)
(119.96932 0.02077208 0.057971938)
(119.9617 0.0157046 0.064865741)
(119.93566 0.023349745 0.07879025)
(119.92716 0.014405128 0.085730844)
(119.95665 0.0094599994 0.068982815)
(119.95342 0.0011855176 0.071503302)
(119.96641 0.0016895605 0.083303673)
(119.93687 0.0039249254 0.10980468)
(119.92275 0.0027411584 0.088897437)
(119.91878 0.0017519856 0.073079063)
(119.94734 0.00099223741 0.060357623)
(119.98092 0.0027261105 0.03908502)
(120.0192 0.0029671116 0.030368054)
(120.02634 0.011586238 0.025792176)
(120.03359 0.013927223 0.029660939)
(120.02704 0.0034962271 0.031529125)
(119.99511 0.0075554721 0.027739784)
(120.00419 0.012613203 0.026360572)
(120.01705 0.01660259 0.02518312)
(120.01206 0.016737162 0.025364791)
(120.0114 0.01859461 0.027399884)
(119.99745 0.016173599 0.031217652)
(119.99827 0.013537897 0.029067001)
(119.96887 0.017220326 0.030551086)
(119.97814 0.019341128 0.03464489)
(119.98827 0.023623872 0.031572811)
(119.98865 0.019905556 0.025179496)
(119.99558 0.016609433 0.021980917)
(120.00411 0.015467975 0.020375945)
(120.02392 0.016656828 0.025403939)
(120.01221 0.012327913 0.025777483)
(119.98566 0.011524857 0.021194544)
(119.9745 0.012314433 0.023548623)
(119.95644 0.0077289956 0.026040777)
(119.95014 0.011087604 0.036357456)
(119.96024 0.014668677 0.043866574)
(119.98787 0.010498229 0.036279795)
(119.98901 0.0084147167 0.031953127)
(119.9821 0.0019660974 0.033514183)
(119.93869 0.0028772494 0.039278832)
(119.94724 0.0061058256 0.049824708)
(119.95229 0.010633522 0.047972025)
(119.95573 0.013390847 0.055702395)
(119.96332 0.017771919 0.050489099)
(119.97132 0.020669434 0.045575842)
(119.9812 0.022554789 0.039616677)
(119.96422 0.029306952 0.045230764)
(119.96109 0.025263917 0.03855988)
(119.95015 0.02286901 0.0443659)
(119.96803 0.017588079 0.040176495)
(119.95304 0.026541862 0.052040209)
(119.95839 0.032810895 0.059588663)
(119.94987 0.045210033 0.070402865)
(119.95442 0.044063144 0.058411966)
(119.94461 0.040361538 0.063176319)
(119.93096 0.036294667 0.056821416)
(119.9358 0.038835414 0.070566353)
(119.94153 0.043478145 0.078147356)
(119.94828 0.047915958 0.08528628)
(119.95633 0.048997614 0.076314577)
(119.96627 0.053782634 0.082870279)
(119.95848 0.05281381 0.092419959)
(119.94755 0.062331718 0.10371246)
(119.95577 0.062940564 0.093007692)
(119.94548 0.057570195 0.085275168)
(119.93736 0.056811553 0.095185577)
(119.93038 0.050629871 0.085400717)
(119.93845 0.052812126 0.0775995)
(119.93257 0.047789536 0.069520667)
(119.92415 0.045817158 0.07687841)
(119.90999 0.051961721 0.08171824)
(119.92058 0.052977228 0.074278154)
(119.93069 0.058433473 0.069161175)
(119.94634 0.071646729 0.084143728)
(119.94528 0.073291178 0.10210584)
(119.93397 0.066243736 0.092374822)
(119.92323 0.067960088 0.10438817)
(119.93416 0.075419444 0.11569611)
(119.91847 0.088553001 0.12760002)
(119.93087 0.087265424 0.11208819)
(119.91918 0.078145576 0.10061782)
(119.90706 0.079209469 0.11420183)
(119.89933 0.06867665 0.10111371)
(119.91547 0.05946715 0.092827023)
(119.92657 0.059871058 0.08355991)
(119.91143 0.069838205 0.090660327)
(119.90585 0.061277702 0.079834267)
(119.89421 0.060330316 0.088855398)
(119.87618 0.070599144 0.094161609)
(119.89193 0.070109903 0.083653207)
(119.90732 0.076730773 0.075818306)
(119.93168 0.070856871 0.057629016)
(119.95605 0.060488305 0.043034027)
(119.94081 0.08289948 0.024796436)
(119.93306 0.091396981 0.017022597)
(119.92911 0.096373281 0.0062669654)
(119.92209 0.080218956 0.0052858103)
(119.92606 0.076402471 0.013834804)
(119.93405 0.069955063 0.020147723)
(119.94335 0.062749246 0.024847485)
(119.95511 0.054184904 0.026782485)
(119.96567 0.046923314 0.028890479)
(119.98899 0.032892564 0.022700055)
(120.0124 0.02862587 0.017438893)
(120.01269 0.026381314 0.01616682)
(119.98902 0.026047386 0.019565984)
(119.96949 0.031852402 0.017585259)
(119.97939 0.03618168 0.019079179)
(119.99933 0.0326121 0.01545909)
(119.99932 0.030337765 0.013382568)
(120.00478 0.02739772 0.012630267)
(120.01746 0.025991337 0.016264289)
(120.03422 0.030440503 0.013590948)
(120.02419 0.026065244 0.016436059)
(120.00421 0.020860559 0.015364478)
(119.99577 0.022622424 0.01645188)
(119.97473 0.024474793 0.012732937)
(119.98571 0.021878604 0.011816211)
(120.01254 0.026612504 0.012363296)
(120.00417 0.027387178 0.007924787)
(120.02797 0.032788667 0.0034965813)
(120.02137 0.031724483 0.002619292)
(119.99045 0.038303642 0.010478351)
(119.99035 0.033830062 0.0087579156)
(119.95082 0.038697111 0.012454862)
(119.96211 0.046266562 0.015379975)
(119.96961 0.042048269 0.017763096)
(119.97366 0.047559789 0.020399551)
(119.98293 0.041289802 0.021795963)
(119.96618 0.052986364 0.018048689)
(119.95909 0.059005603 0.014337301)
(119.95434 0.051156724 0.011909049)
(119.93043 0.058420302 0.016692234)
(119.9401 0.052927693 0.020529817)
(119.95147 0.046221947 0.023470908)
(119.96207 0.039984874 0.02532595)
(119.94585 0.040986978 0.030393449)
(119.96217 0.035498892 0.034516073)
(119.96236 0.025160729 0.024801944)
(119.94584 0.025045513 0.033182113)
(119.94521 0.030139453 0.039864648)
(119.94798 0.037202127 0.048902946)
(119.92374 0.044972291 0.055531909)
(119.92216 0.036952961 0.043390015)
(119.90336 0.035397917 0.051140459)
(119.91376 0.039947612 0.058247157)
(119.91605 0.046379032 0.066755903)
(119.90471 0.045035715 0.073175981)
(119.90317 0.039301417 0.064898842)
(119.88909 0.045518556 0.068959711)
(119.89966 0.046869027 0.062563218)
(119.90215 0.053221851 0.07098442)
(119.89107 0.051191529 0.077696567)
(119.87383 0.059276337 0.081282367)
(119.8889 0.060332715 0.073507326)
(119.90079 0.05767936 0.057615176)
(119.92436 0.05659149 0.045007576)
(119.94903 0.050479116 0.036953574)
(119.93257 0.058877541 0.037101678)
(119.94694 0.065531617 0.040143601)
(119.95278 0.07293663 0.044412389)
(119.90194 0.10378428 0.069583937)
(119.91326 0.092840858 0.069816491)
(119.92885 0.085979232 0.059590254)
(119.9411 0.080075184 0.052320044)
(119.93465 0.071723429 0.047876643)
(119.92676 0.079487312 0.046496367)
(119.93864 0.073201709 0.039180185)
(119.94512 0.080966808 0.043260202)
(119.93375 0.088291293 0.050791816)
(119.9185 0.095681938 0.060007038)
(119.91229 0.084171094 0.053059476)
(119.92232 0.076272587 0.053328462)
(119.90722 0.081500211 0.061912725)
(119.89614 0.091000586 0.061819649)
(119.87767 0.095786499 0.072426684)
(119.89288 0.084835326 0.070863613)
(119.89871 0.097673668 0.080827464)
(119.90687 0.10993555 0.090782696)
(119.92456 0.096720369 0.094191435)
(120.03508 -0.0066962386 0.025207836)
(120.03332 -0.015106985 0.019612293)
(120.02941 -0.011497988 0.015548387)
(119.99691 -0.016442065 0.038913931)
(119.98961 -0.0076082671 0.045599081)
(119.96675 -0.0076958089 0.082556463)
(119.95202 -0.034584182 0.090746588)
(119.97577 -0.023715463 0.070744025)
(119.97067 -0.017189557 0.077576348)
(119.95774 -0.014553708 0.067118543)
(119.95374 -0.0065774941 0.070901547)
(119.92328 -0.009131262 0.088060805)
(119.93744 -0.011120118 0.1087408)
(119.94296 -0.025061595 0.10221112)
(119.92863 -0.02031563 0.083510865)
(119.93793 -0.028440503 0.075367448)
(119.96336 -0.020261883 0.062153714)
(119.9715 -0.024609909 0.054487505)
(119.98326 -0.028423327 0.06094317)
(119.96265 -0.040391707 0.077734781)
(119.94897 -0.033892754 0.065993667)
(119.96164 -0.035978452 0.054886359)
(119.97937 -0.026673928 0.047215514)
(120.00568 -0.02026033 0.029834167)
(93.042394 0.073546798 0.22946043)
(102.68395 0.097410846 0.24722801)
(106.44966 0.1061689 0.25347814)
(108.56561 0.10918719 0.25607696)
(116.70677 0.046655643 0.19915534)
(117.17468 -0.1433064 0.12080081)
(109.70393 -0.15131166 0.23196219)
(107.67103 -0.14689744 0.2559099)
(103.97313 -0.1461994 0.27880882)
(94.261851 -0.1576529 0.28663354)
(94.327881 -0.060867215 0.087388663)
(103.89004 -0.064071685 0.096154153)
(107.56014 -0.063230179 0.092063895)
(109.60705 -0.061729268 0.086548262)
(117.19942 -0.070854542 0.053478551)
(117.30949 -0.061047621 0.036985914)
(109.76135 -0.062158724 0.065569454)
(107.72618 -0.062497442 0.071254377)
(104.0742 -0.063565314 0.076988598)
(94.535224 -0.065876835 0.083223055)
(94.623462 -0.04031323 0.048559567)
(104.13199 -0.041661229 0.047886693)
(107.77029 -0.041776165 0.044965857)
(109.79923 -0.041801117 0.041766103)
(117.36401 -0.045267401 0.022763288)
(117.4171 -0.036447151 0.01617927)
(109.858 -0.033716856 0.031352898)
(107.83718 -0.033393631 0.034235105)
(104.21092 -0.033111999 0.037139045)
(94.720332 -0.032956711 0.039432201)
(94.801042 -0.024237441 0.028001383)
(104.27279 -0.025124639 0.027013301)
(107.88804 -0.02584322 0.024839635)
(109.90205 -0.026419236 0.022626691)
(117.45402 -0.029430883 0.011257886)
(117.48428 -0.024425769 0.008037868)
(109.94681 -0.021723126 0.01692246)
(107.93938 -0.021008602 0.018818819)
(104.33492 -0.020153599 0.020762392)
(94.881335 -0.019421655 0.021947789)
(94.957 -0.015352749 0.016712796)
(104.39176 -0.016211307 0.015834964)
(107.98563 -0.017200567 0.014193853)
(109.98694 -0.017994463 0.01261331)
(117.5076 -0.020548324 0.0056755624)
(117.52668 -0.01760039 0.0039225555)
(110.02463 -0.015194098 0.0094234603)
(108.02936 -0.014357296 0.010776736)
(104.44611 -0.013301448 0.012219619)
(95.030396 -0.012427008 0.013003262)
(95.101169 -0.01012973 0.010102886)
(104.49742 -0.011032138 0.0094086576)
(108.07006 -0.012127993 0.0081385732)
(110.05937 -0.012986562 0.006972404)
(117.54229 -0.01528957 0.0025717482)
(117.55543 -0.013475131 0.0015116866)
(110.09194 -0.011260845 0.0050622698)
(108.10862 -0.010385998 0.0060827829)
(104.5467 -0.0092605099 0.0072104749)
(95.170144 -0.0083059646 0.0078144095)
(95.237608 -0.0068660948 0.0059944892)
(104.59414 -0.0078557469 0.0054689396)
(108.14531 -0.0090042301 0.0044547115)
(110.12265 -0.0098906965 0.0035493436)
(117.56659 -0.012030573 0.00066510056)
(117.57624 -0.010891229 -2.8795695e-05)
(110.15195 -0.0087971294 0.002331417)
(108.18064 -0.0079005649 0.0031466334)
(104.64033 -0.0067387032 0.0040779492)
(95.304036 -0.0057283871 0.0045443719)
(95.369704 -0.0048219528 0.003393475)
(104.68546 -0.0058254494 0.0029514758)
(108.21488 -0.0070040279 0.0020848598)
(110.18015 -0.0079089781 0.0013416839)
(117.58472 -0.0099791907 -0.00060479176)
(117.59228 -0.0092464149 -0.0010869131)
(110.20754 -0.0071815282 0.00053357949)
(108.24836 -0.0062678652 0.0012198988)
(104.72995 -0.0050771161 0.0020364289)
(95.434922 -0.0040725309 0.0024606545)
(95.499873 -0.0034531056 0.001714061)
(104.77389 -0.0044596124 0.0013003241)
(108.28127 -0.00566016 0.00052127383)
(110.23435 -0.0065812341 -0.00012200693)
(117.59917 -0.0086548626 -0.0014964643)
(117.60557 -0.008204634 -0.0018473045)
(110.26078 -0.0060778491 -0.00064291711)
(108.31386 -0.0051500616 -2.6744056e-05)
(104.81763 -0.0039422015 0.00072796976)
(95.564819 -0.0029407246 0.0011325846)
(95.629891 -0.0025520375 0.00066109067)
(104.86123 -0.0035574117 0.00025866039)
(108.34626 -0.0047721603 -0.00047920188)
(110.28701 -0.0057055328 -0.0010752776)
(117.61164 -0.0078654879 -0.0021524166)
(117.61749 -0.0076237916 -0.0023685024)
(110.31318 -0.0054493473 -0.0013574484)
(108.37865 -0.0045116347 -0.00077108474)
(104.90494 -0.0032907936 -3.9624076e-05)
(95.695294 -0.0022879296 0.00036152936)
(95.761176 -0.0021193118 0.00012623339)
(104.94885 -0.0031127916 -0.00027253705)
(108.41119 -0.0043379089 -0.00099870884)
(110.33946 -0.0052774837 -0.0015777057)
(117.6233 -0.007455109 -0.0025422139)
(117.62913 -0.0073355638 -0.0027971564)
(110.36583 -0.0051114979 -0.0018950812)
(108.44386 -0.0041620043 -0.0013297468)
(104.993 -0.002927054 -0.00061597289)
(95.827534 -0.0019240579 -0.00021517207)
(95.894229 -0.0017282241 -0.00048853984)
(105.03725 -0.0027497551 -0.00091755415)
(108.4766 -0.0039888323 -0.0016306637)
(110.39228 -0.0049453111 -0.0021915491)
(117.63498 -0.0072373283 -0.003098858)
(117.64106 -0.0071103788 -0.0033420089)
(110.41907 -0.0046750488 -0.0023530343)
(108.50973 -0.0037057721 -0.0017839335)
(105.08198 -0.0024604744 -0.0010592383)
(95.961546 -0.0014612161 -0.00062654917)
(96.029677 -0.0013952972 -0.00076236526)
(105.12722 -0.0023814687 -0.0012070106)
(108.54332 -0.0036314783 -0.0019468669)
(110.44632 -0.0046076648 -0.0025289389)
(117.64749 -0.007124433 -0.0035889322)
(117.65423 -0.0072307754 -0.0038909987)
(110.47391 -0.0045418269 -0.0028416534)
(108.57729 -0.0035357057 -0.0022619157)
(105.17291 -0.0022600105 -0.0015284273)
(96.098482 -0.0012411699 -0.0010692923)
(96.168081 -0.0010297796 -0.0013802403)
(105.21918 -0.0021141408 -0.0018538185)
(108.61179 -0.0034303121 -0.002576685)
(110.50202 -0.0044798086 -0.0031535088)
(117.66133 -0.0074082397 -0.0041796609)
(117.66904 -0.0076334715 -0.0044563587)
(110.53104 -0.0043651987 -0.0034172669)
(108.64726 -0.0032566391 -0.0028389795)
(105.2665 -0.0018714873 -0.0021152121)
(96.238821 -0.00073909565 -0.0016396659)
(96.311468 -0.00032502841 -0.002301991)
(105.31544 -0.0013676519 -0.0026215493)
(108.68421 -0.002879814 -0.0033305055)
(110.56146 -0.0040843726 -0.0038806334)
(117.67772 -0.0079233887 -0.0048871943)
(117.68683 -0.0085637197 -0.0058742596)
(110.59239 -0.0040639238 -0.0054316901)
(108.72172 -0.0027192889 -0.0049851151)
(105.36516 -0.0010969569 -0.0044270589)
(96.385678 0.00010903506 -0.0041591891)
(96.458442 -0.00087812612 -0.0053812287)
(105.41322 -0.0025849361 -0.0058889868)
(108.75769 -0.0042267309 -0.0064074564)
(110.6219 -0.0055583838 -0.0068084498)
(117.69526 -0.0097334998 -0.0069043593)
(117.70469 -0.0093194165 -0.006542855)
(110.65336 -0.0044877576 -0.0056821237)
(108.79574 -0.0030956249 -0.0051819127)
(105.46341 -0.001395512 -0.0045542999)
(96.532823 0.00013580039 -0.0041877846)
(117.80821 -0.011213755 -0.0052504492)
(109.33856 -0.007518947 -0.004312281)
(107.41576 -0.0063182828 -0.0039241014)
(103.98373 -0.0048090847 -0.0034415957)
(94.919435 -0.0030785265 -0.0028680483)
(94.841498 -0.0054215832 -0.0025387453)
(103.92949 -0.007004512 -0.0031581402)
(107.37386 -0.0083320988 -0.0036881337)
(109.30347 -0.0093272634 -0.0040991511)
(117.79921 -0.01142753 -0.0050601694)
(117.79119 -0.0097154785 -0.0045655681)
(109.27075 -0.0066496705 -0.0035907241)
(107.33447 -0.0055528192 -0.0032148982)
(103.87766 -0.0041329118 -0.0027415898)
(94.764844 -0.0033656208 -0.0025953474)
(94.684862 -0.00086826681 -0.0008747989)
(103.82273 -0.0013977743 -0.0010464897)
(107.29239 -0.0029290137 -0.0016173654)
(109.23562 -0.0041408061 -0.0020954561)
(117.78236 -0.0081917616 -0.0038177794)
(117.77375 -0.0079911096 -0.0035493194)
(109.19993 -0.004097506 -0.0017492239)
(107.24971 -0.0028829045 -0.0012221027)
(103.76738 -0.0014229254 -0.00060482021)
(94.605531 -0.00041751981 -0.00020177557)
(94.528899 -0.00058419192 1.1295402e-05)
(103.71419 -0.0016532044 -0.00045582159)
(107.20894 -0.0030671002 -0.001074609)
(109.16601 -0.0042584635 -0.0016081124)
(117.76624 -0.0078992091 -0.003353529)
(117.75943 -0.0077610632 -0.0031195293)
(109.13315 -0.0043146789 -0.001380425)
(107.1693 -0.0031408674 -0.00084064922)
(103.66224 -0.0017361923 -0.0002141143)
(94.453497 -0.00071008788 0.00023030148)
(94.378774 -0.00082432379 0.00058299233)
(103.61076 -0.0018433229 0.00012904152)
(107.13012 -0.003238325 -0.00051293046)
(109.10076 -0.00439426 -0.0010664554)
(117.75298 -0.0076754181 -0.0028600554)
(117.74686 -0.0077435621 -0.002633197)
(109.0688 -0.0047155467 -0.00087590931)
(107.0914 -0.003589583 -0.00032153517)
(103.55986 -0.0022176023 0.00032405697)
(94.304957 -0.0011387992 0.00080649677)
(94.232388 -0.0017850637 0.0011935234)
(103.50979 -0.0028615418 0.00069547308)
(107.05339 -0.0041675698 5.1736083e-05)
(109.03751 -0.0052176003 -0.00049762518)
(117.7411 -0.0078421834 -0.0022796165)
(117.73549 -0.0078418407 -0.0019150163)
(109.00679 -0.0054945156 -5.9327055e-05)
(107.01604 -0.0044979811 0.00049153177)
(103.46054 -0.0032422342 0.0011313251)
(94.160917 -0.002218664 0.0015973739)
(94.089921 -0.0023725123 0.0019309434)
(103.41153 -0.0033675176 0.0014969467)
(106.97889 -0.0046067961 0.00085455757)
(108.97625 -0.0055886045 0.00029538116)
(117.72988 -0.0078570691 -0.0016481482)
(117.72432 -0.0080211652 -0.0015005179)
(108.94589 -0.0057336548 0.00047991429)
(106.94196 -0.0047375296 0.0010513264)
(103.36285 -0.0034808612 0.0017048909)
(94.019469 -0.0024663457 0.0021369275)
(93.949602 -0.0026810801 0.002571592)
(103.31448 -0.0037095747 0.0021239234)
(106.9053 -0.0049631331 0.0014535461)
(108.91577 -0.0059594721 0.00086392765)
(117.7188 -0.0082686123 -0.0012426391)
(117.71307 -0.008594504 -0.00089461811)
(108.88563 -0.0062352545 0.0013662922)
(106.86866 -0.005238518 0.0019756742)
(103.26626 -0.0039909614 0.0026614172)
(93.880063 -0.0029536288 0.0031125346)
(93.810694 -0.003276529 0.0037741968)
(103.21789 -0.0043203939 0.0033242496)
(106.83183 -0.005564694 0.0026185801)
(108.85526 -0.0065649894 0.0019836735)
(117.70702 -0.009009981 -0.00047517123)
(117.70049 -0.0095396043 1.4252132e-05)
(108.82459 -0.0069522985 0.0027266895)
(106.79474 -0.0059451651 0.0033943148)
(103.1694 -0.0047016084 0.0041279278)
(93.741441 -0.0036506071 0.0045916106)
(93.672062 -0.0041082506 0.0056256887)
(103.12048 -0.0051618976 0.0051276502)
(106.75718 -0.0064079263 0.0043529726)
(108.79342 -0.0074262653 0.0036416767)
(117.69333 -0.01021174 0.00060260373)
(117.68531 -0.011073746 0.0013184965)
(108.76154 -0.0080186172 0.0047769656)
(106.71896 -0.0069828141 0.0055440918)
(103.07103 -0.005728218 0.0063705315)
(93.602353 -0.0046675665 0.0068996114)
(93.532016 -0.0053580799 0.008474737)
(103.02064 -0.0064265212 0.0079233572)
(106.67977 -0.0076994562 0.0070295018)
(108.72867 -0.0087571894 0.0061906269)
(117.67619 -0.012158156 0.0021840257)
(117.66564 -0.013563263 0.0032286721)
(108.69453 -0.0096997988 0.0079725922)
(106.63937 -0.0086126956 0.008905879)
(102.96915 -0.0073114582 0.0098835514)
(93.460793 -0.0062278255 0.010429934)
(93.388253 -0.0073292021 0.012894236)
(102.91601 -0.0084315719 0.012341765)
(106.59727 -0.0097646148 0.011257451)
(108.65871 -0.010885556 0.010203385)
(117.65325 -0.015358068 0.0045038297)
(117.63852 -0.01766074 0.0061348748)
(108.62093 -0.012410932 0.013071364)
(106.55326 -0.011249099 0.014285647)
(102.86107 -0.0098812568 0.01551961)
(93.314136 -0.00876532 0.016119421)
(93.237685 -0.010589344 0.020213801)
(102.80337 -0.011730897 0.019592273)
(106.5065 -0.013125954 0.018183325)
(108.5805 -0.014323397 0.01677552)
(117.62056 -0.020616221 0.0082560946)
(117.59866 -0.024510112 0.011121037)
(108.53799 -0.016870087 0.021752436)
(106.45753 -0.01564087 0.023424674)
(102.74347 -0.014227235 0.025101102)
(93.159229 -0.013103729 0.02588866)
(93.076986 -0.016090137 0.032619085)
(102.67923 -0.017326756 0.032037358)
(106.40447 -0.018718127 0.030160544)
(108.49186 -0.019935526 0.028221244)
(117.57042 -0.029475143 0.014970446)
(117.53597 -0.036358652 0.020448623)
(108.44629 -0.024733543 0.03780829)
(106.35143 -0.023544404 0.040291775)
(102.61457 -0.022225376 0.042802611)
(92.993754 -0.021252937 0.044271395)
(92.899245 -0.025334882 0.053493773)
(102.53943 -0.026949808 0.053448316)
(106.28901 -0.02823885 0.050963681)
(108.39241 -0.029428441 0.048225433)
(117.48779 -0.044399802 0.027494379)
(117.43571 -0.058311559 0.040173066)
(108.34118 -0.041432214 0.071710762)
(106.22888 -0.040275994 0.076178512)
(102.46416 -0.039034067 0.081029495)
(92.797567 -0.038511223 0.082636532)
(92.641303 -0.03035875 0.075981825)
(102.34994 -0.033684668 0.08056888)
(106.13356 -0.036023201 0.077433688)
(108.2534 -0.03838246 0.072182524)
(117.3493 -0.063388069 0.046173)
(117.29561 -0.095034395 0.095767526)
(108.10832 -0.046180364 0.14757938)
(105.97563 -0.042070502 0.15288142)
(102.16336 -0.040826944 0.1562018)
(92.416805 -0.045778032 0.15162076)
(92.560435 0.024770141 -0.11129812)
(102.32049 0.039834518 -0.079304135)
(106.09315 0.030929041 -0.06046811)
(108.17902 0.023418236 -0.046448015)
(117.17103 0.010157962 0.023365717)
(117.34207 -0.22771651 0.65411703)
(108.39997 0.50072003 1.7912365)
(106.2774 0.61171923 1.986254)
(102.24467 0.68160182 2.1907134)
(91.674719 0.24364601 2.1197461)
(92.310269 0.69422104 0.27458848)
(102.08713 0.64761558 0.27525983)
(105.8595 0.59892267 0.25839214)
(107.94116 0.55572766 0.23810227)
(116.91505 0.2842485 0.17828455)
(117.12611 0.084918394 -0.00098493014)
(107.93444 0.099558279 0.063481511)
(105.80382 0.10319505 0.069287409)
(101.99726 0.10933206 0.071057895)
(92.264903 0.11727906 0.068515746)
(92.553587 0.094690809 0.044058887)
(102.25353 0.087752033 0.038709361)
(106.03366 0.082237526 0.035081294)
(108.1519 0.077955843 0.03092269)
(117.24294 0.056876782 0.001321183)
(117.36529 0.029518938 -0.014591017)
(108.27221 0.025693564 0.0038094818)
(106.16092 0.025776123 0.0057248947)
(102.39899 0.025999773 0.0073416228)
(92.739774 0.025496189 0.0091648311)
(92.861777 0.018818943 0.006676715)
(102.49624 0.019012294 0.0049133302)
(106.24355 0.01870735 0.0035378446)
(108.34603 0.018437758 0.0021270443)
(117.43897 0.020402809 -0.012236541)
(117.50118 0.013876161 -0.012471807)
(108.41346 0.010287326 -0.00173283)
(106.31932 0.01003871 -0.00040083903)
(102.58428 0.0097494718 0.0010065273)
(92.968024 0.0092884811 0.0023156496)
(93.059029 0.006262871 0.0010573991)
(102.65755 0.0066886578 -0.00014672712)
(106.38128 0.0070491756 -0.0015180074)
(108.46805 0.0073493267 -0.0027687634)
(117.54478 0.010267232 -0.011194767)
(117.57928 0.0077870232 -0.010338746)
(108.52031 0.0051272985 -0.0037974655)
(106.4404 0.0047225793 -0.0025647273)
(102.72763 0.0042395975 -0.0011742682)
(93.146485 0.0037812467 -4.4378079e-05)
(93.228604 0.0024144496 -0.00062550282)
(102.79165 0.0028624977 -0.0017055226)
(106.49366 0.0033780979 -0.003058667)
(108.56716 0.0038063091 -0.0042290953)
(117.60557 0.0061018547 -0.0094546788)
(117.6267 0.0049086747 -0.0087760389)
(108.61072 0.0028707376 -0.0045230866)
(106.5435 0.0024252439 -0.0034031742)
(102.85232 0.0018854588 -0.002080805)
(93.307668 0.0014421967 -0.0010370098)
(93.383688 0.00081614629 -0.0012932602)
(102.90944 0.0012494076 -0.0023112023)
(106.5898 0.0017945065 -0.0035965092)
(108.6508 0.0022402739 -0.0046649952)
(117.64375 0.0040539431 -0.0082198222)
(117.65789 0.0034287263 -0.0077973839)
(108.68836 0.0017868219 -0.0047573314)
(106.6336 0.001339926 -0.0037297762)
(102.96422 0.00078817418 -0.0024745926)
(93.457646 0.00035877281 -0.001481793)
(93.529922 4.20464e-05 -0.0016213792)
(103.01694 0.00046742244 -0.0025957456)
(106.67532 0.0010264341 -0.0038269907)
(108.72382 0.0014801504 -0.0048183347)
(117.6698 0.0029877861 -0.0074924081)
(117.67999 0.0026880229 -0.0072463971)
(108.75773 0.0012610505 -0.0048709701)
(106.71553 0.00081050107 -0.0038986854)
(103.06831 0.00025374001 -0.0026790553)
(93.6011 -0.00016314748 -0.0017099609)
(93.671499 -0.000337742 -0.0017928463)
(103.11856 7.7976938e-05 -0.0027550193)
(106.75458 0.00063729879 -0.0039639992)
(108.79046 0.0010880475 -0.0049224125)
(117.68882 0.0024681015 -0.0070727668)
(117.69663 0.0023232495 -0.0069648887)
(108.8223 0.00098671874 -0.0049615068)
(106.79281 0.00053567888 -0.0040114386)
(103.16812 -2.5834287e-05 -0.0028071636)
(93.741454 -0.00044102662 -0.0018474802)
(93.811145 -0.00055686666 -0.0018998122)
(103.21711 -0.00013435156 -0.0028578579)
(106.83042 0.00043508302 -0.004060209)
(108.85351 0.00089181024 -0.0050045195)
(117.70367 0.0022187688 -0.0069060029)
(117.71013 0.0021564553 -0.006885769)
(108.88428 0.00083437156 -0.0050422836)
(106.86765 0.00037270864 -0.0040990021)
(103.26585 -0.00020324136 -0.0028946777)
(93.88082 -0.00063193583 -0.0019349485)
(93.950606 -0.00070026012 -0.0019687061)
(103.3144 -0.00026510322 -0.0029304937)
(106.90464 0.00031914746 -0.0041401334)
(108.91479 0.00078713883 -0.0050856586)
(117.71619 0.0021232685 -0.0069033832)
(117.72198 0.0021170834 -0.0069590584)
(108.94518 0.00074979036 -0.00513652)
(106.94156 0.00027401501 -0.004185208)
(103.36301 -0.00031818402 -0.0029676869)
(94.020692 -0.00075552111 -0.0020032887)
(94.091144 -0.00079373342 -0.0020432629)
(103.41166 -0.00035432569 -0.0030242118)
(106.97847 0.00024329157 -0.0042492438)
(108.97553 0.00072738407 -0.0052087625)
(117.72762 0.0021323395 -0.0070565443)
(117.73314 0.0021326639 -0.0071927379)
(109.00587 0.00066171336 -0.0052859972)
(107.0154 0.00016394967 -0.0043147104)
(103.46045 -0.00044428277 -0.0030811526)
(94.161963 -0.00090874323 -0.0020432599)
(94.233273 -0.0012816151 -0.0018201399)
(103.50954 -0.00078314891 -0.0028873213)
(107.05261 -0.00014577838 -0.0041366517)
(109.03647 0.00038361311 -0.0051302419)
(117.73871 0.0020419151 -0.0072454025)
(117.7446 0.001913287 -0.0071876167)
(109.06777 7.2601691e-05 -0.0046929086)
(107.0906 -0.00048103178 -0.0036589129)
(103.55955 -0.0011379367 -0.0023819536)
(94.305696 -0.0016210511 -0.0013639002)
(94.379365 -0.0018638092 -0.0011419217)
(103.61041 -0.0013974457 -0.0020851526)
(107.12933 -0.00072390676 -0.0033776082)
(109.09977 -0.00015140829 -0.0044374559)
(117.75089 0.0018497565 -0.0071983351)
(117.7575 0.0019444585 -0.0073483659)
(109.13217 -8.1064517e-05 -0.0044060428)
(107.16851 -0.00065304414 -0.0033274204)
(103.66184 -0.0013213811 -0.0020239285)
(94.453951 -0.0017822902 -0.0010795336)
(94.529319 -0.0015944414 -0.00096068186)
(103.71384 -0.0011289638 -0.0019528996)
(107.20822 -0.00046981841 -0.0032771611)
(109.1651 9.6401477e-05 -0.0043821783)
(117.76446 0.0021160688 -0.0075614006)
(117.77208 0.0023346512 -0.0077404224)
(109.19915 0.00030534383 -0.0042500131)
(107.24914 -0.0002503796 -0.0031084829)
(103.76717 -0.00090902518 -0.001725579)
(94.606057 -0.0013317289 -0.00079833813)
(94.685609 -0.0003272995 -0.0011790148)
(103.82272 -0.00012394606 -0.0016589843)
(107.29197 0.00047762356 -0.0031391758)
(109.23497 0.00096782953 -0.0043031606)
(117.78074 0.0027875204 -0.0080267311)
(117.7895 0.0039364151 -0.0095027876)
(109.27007 0.0031678848 -0.006698839)
(107.33406 0.0028268349 -0.005609204)
(103.87772 0.0023673582 -0.0041825263)
(94.765804 0.0022120073 -0.0034487412)
(94.842538 0.0024994173 -0.0054500027)
(103.92951 0.0031352179 -0.0070167007)
(107.37336 0.0036413822 -0.0083421468)
(109.30268 0.0040014509 -0.0093402815)
(117.79737 0.0047100621 -0.011204569)
(117.80622 0.0048022382 -0.01102692)
(109.33767 0.0038949967 -0.0076413467)
(107.41516 0.0035115052 -0.0064525158)
(103.98365 0.0030067149 -0.0049576863)
(94.920462 0.0024018633 -0.0032209825)
(95.004609 0.00018267893 -0.0020353718)
(104.04345 0.00075404773 -0.0033448584)
(107.4621 0.0014510298 -0.0048971951)
(109.37743 0.0020373714 -0.0061929873)
(117.81746 0.0042714657 -0.01068026)
(96.367408 -0.0036569218 -0.0028483911)
(105.28856 -0.0031138395 -0.0041737335)
(108.62243 -0.0024636201 -0.0058461801)
(110.48193 -0.001898457 -0.0072123837)
(117.6906 0.00063366716 -0.011646235)
(117.67916 0.00072889613 -0.012270334)
(110.44695 -0.0016246837 -0.0089283924)
(108.58064 -0.0021751757 -0.0077051388)
(105.23437 -0.0028301724 -0.0061383804)
(96.288677 -0.0034887707 -0.0046390017)
(96.213713 -0.0047283181 -0.0052465661)
(105.18385 -0.0039565749 -0.0065599735)
(108.54236 -0.0031687557 -0.0080596462)
(110.41529 -0.0025076525 -0.0092341592)
(117.6698 0.00041310466 -0.012049031)
(117.66141 0.00027022528 -0.010982752)
(110.38542 -0.0022318454 -0.0080482435)
(108.506 -0.0027981592 -0.006892514)
(105.13533 -0.0034485733 -0.0054183298)
(96.140507 -0.0039067992 -0.0042645582)
(96.065658 -0.0039246898 -0.0020811204)
(105.08528 -0.0034989313 -0.0027815678)
(108.46829 -0.0028956133 -0.0043316697)
(110.35434 -0.002377283 -0.0055489498)
(117.65244 -5.5420994e-05 -0.0090257925)
(117.64342 -0.00019031741 -0.0083427426)
(110.32238 -0.0024353851 -0.0051784871)
(108.42961 -0.0029487739 -0.0039849624)
(105.03432 -0.0035427452 -0.0024767203)
(95.990599 -0.0040048168 -0.0014773999)
(95.917874 -0.0039940639 -0.0014552949)
(104.98512 -0.0035413914 -0.0025113208)
(108.39251 -0.0029632209 -0.0039523778)
(110.2919 -0.0024622649 -0.0051050609)
(117.63546 -0.000303873 -0.0080112667)
(117.62816 -0.00041617762 -0.0077144681)
(110.26246 -0.0024959471 -0.0049706101)
(108.35652 -0.0029813313 -0.0038484177)
(104.93715 -0.0035446551 -0.0024401165)
(95.846406 -0.0039863108 -0.0014277028)
(95.775767 -0.0040236772 -0.0014546107)
(104.88977 -0.0035847211 -0.0024598662)
(108.32107 -0.0030293199 -0.0038450614)
(110.23355 -0.0025539667 -0.0049392945)
(117.6212 -0.00051767259 -0.0075249837)