/*--------------------------------*- C++ -*----------------------------------*\
  =========                 |
  \\      /  F ield         | OpenFOAM: The Open Source CFD Toolbox
   \\    /   O peration     | Website:  https://openfoam.org
    \\  /    A nd           | Version:  7
     \\/     M anipulation  |
\*---------------------------------------------------------------------------*/
FoamFile
{
    version     2.0;
    format      ascii;
    class       volScalarField;
    location    "450";
    object      k;
}
// * * * * * * * * * * * * * * * * * * * * * * * * * * * * * * * * * * * * * //

dimensions      [0 2 -2 0 0 0 0];

internalField   nonuniform List<scalar> 
25278
(
1046.9291
987.10727
989.81979
989.81819
934.14121
987.10478
1045.2619
1046.9267
1045.2676
1028.7422
1031.7859
1034.367
1007.5988
977.85626
891.71549
989.52649
987.00133
919.33712
903.98785
944.48326
964.24792
969.3714
973.69606
1003.6412
994.41761
1003.6401
973.69597
964.77774
955.07914
970.43795
964.84746
949.53388
933.17749
944.06097
958.54042
952.97849
961.23953
957.33122
949.2135
938.70876
944.51818
952.69634
947.24771
955.22415
965.27189
980.21942
999.90954
995.13427
975.71787
960.0312
956.81603
941.39258
918.21426
924.12006
945.69872
953.94632
950.71354
942.47827
928.93202
933.60574
942.05069
937.65736
934.41291
948.55595
940.21241
938.91846
947.233
932.67151
923.84422
925.67486
908.86308
913.71418
920.23955
927.40716
935.44748
944.787
958.54807
970.4428
969.37451
943.20184
916.11406
891.77994
919.37839
904.20474
937.31696
910.37035
874.18674
837.11209
855.31707
873.86195
887.31417
867.98557
855.16083
819.25246
834.09136
868.1345
883.27813
901.30379
915.07734
895.73824
883.15391
849.78295
865.24728
895.85181
877.95151
865.88577
850.18463
791.71852
775.60242
733.62649
822.63148
835.06196
748.92414
765.78968
808.73528
825.772
783.09464
863.62408
852.07488
852.07826
904.18812
937.27122
934.04739
855.02151
819.18819
775.61406
733.57026
822.63202
874.16998
910.32849
915.98886
943.05912
919.26997
891.68174
855.2984
837.14053
850.23832
835.07264
748.85706
791.81152
808.90285
765.71005
782.98391
863.64244
878.06155
865.96625
883.30961
868.15044
834.11179
867.90627
891.50077
873.75516
887.22997
901.22048
919.12301
915.01147
895.91055
865.4278
826.01074
738.0489
593.83913
594.01843
737.56222
824.64891
877.48829
865.40754
851.01158
862.55051
778.52032
761.47965
807.60977
717.06981
570.68468
581.78586
357.3662
341.80422
581.81343
581.69477
346.52404
362.23439
582.31444
570.39248
717.29495
807.35776
849.89214
883.11536
895.76695
877.4996
824.6182
776.36267
759.21311
850.44515
903.76045
865.2957
862.14735
880.20581
796.06382
597.8536
387.08016
382.31502
596.15372
798.02994
880.36726
893.65261
911.41452
929.82407
944.07508
955.08961
949.5574
964.8629
952.99994
933.22928
944.54655
952.71682
961.25672
957.36098
949.25214
938.76618
947.28995
955.25549
960.75107
974.50189
985.20658
999.90868
1001.0337
989.80941
984.46308
995.79609
980.22846
968.91691
976.87406
968.80008
963.31891
973.02916
965.29506
961.97137
975.7347
995.13698
964.26378
944.53878
960.06168
945.75751
924.25599
933.70229
942.12372
953.99269
950.77853
942.56359
929.08495
937.77273
934.56979
948.63721
956.86608
941.47519
918.45014
940.3212
925.87769
924.07802
939.04764
947.33369
932.86031
940.94473
942.63476
945.79252
950.08736
958.28856
969.77282
966.6539
958.91792
956.80714
972.80595
988.4171
991.42208
977.71629
980.95432
988.82344
992.57343
984.70962
976.71776
971.34559
979.29289
974.31579
985.6257
982.55379
974.71761
962.11397
966.33109
957.36667
960.3333
963.55085
968.08664
977.1067
989.80831
1001.0337
985.2048
974.49864
968.90427
976.86415
973.01333
963.29585
968.7887
960.7363
951.79468
960.93006
960.15786
955.48326
951.46424
947.18007
935.74655
943.8338
932.05661
923.99603
913.19026
922.1873
906.62833
920.78194
932.08366
943.85612
935.48421
911.49563
924.02878
913.30177
927.49059
935.80905
922.27477
906.72483
897.78915
912.36824
881.75412
897.669
878.40903
888.52896
905.83067
913.4833
921.47209
928.32264
935.31867
941.39872
945.64918
941.7079
948.09794
943.8528
937.22997
930.47085
934.79308
939.66599
940.59166
948.52007
943.69413
949.77408
953.81228
959.57876
956.23933
952.24313
945.89092
949.90549
943.04069
947.85114
940.89224
936.84028
932.65169
927.29522
922.64787
914.75185
919.19923
925.86604
928.94609
940.60932
951.81646
960.17338
948.53178
943.72596
949.80312
955.51066
951.49469
947.21845
941.44138
945.68859
941.7631
948.14218
943.90664
937.29677
930.55134
935.37258
939.70816
932.69252
928.3808
922.74176
927.37527
934.86138
939.03101
945.93847
952.2801
956.27273
959.60204
953.83793
949.94291
943.08726
947.87863
940.92123
936.87798
931.59379
935.66094
939.73934
945.09502
957.06929
964.75484
976.25803
971.56649
967.6038
961.869
957.90081
954.00745
957.97048
964.27747
968.34152
972.34642
975.67041
969.95968
965.92115
962.04363
966.06651
959.25673
964.05241
959.90292
955.97915
951.90534
947.14643
951.14595
943.74186
949.04232
953.10452
957.13977
951.87129
947.81239
955.19884
950.77205
958.33695
965.38849
961.34929
954.28
950.29362
946.24618
953.33655
949.29988
945.1535
940.85173
928.65223
920.40704
894.03716
903.32959
912.09993
903.04524
922.53298
913.99525
893.59262
868.78359
883.42704
843.92927
857.85515
867.95457
892.22631
878.34123
845.70812
833.67453
807.71827
855.58268
886.13435
909.26695
881.25273
906.64309
915.39441
917.90606
895.80737
891.56487
881.48556
846.12303
802.74496
777.97357
792.10103
820.50908
865.69656
856.61475
878.02648
881.30869
885.75334
890.72769
896.4619
902.27459
908.66425
914.86462
921.52926
925.9088
917.82728
913.5308
905.72498
910.53751
919.29339
923.55768
930.12096
937.43894
930.08495
934.20464
927.58941
935.60947
931.531
938.98252
934.50347
942.14317
949.24824
958.24903
969.7498
961.94145
958.86572
966.61783
953.98019
945.70712
950.03457
940.77657
928.52522
922.3103
902.58642
911.87603
903.0612
893.03298
885.23424
895.05355
917.5858
915.01035
906.176
880.36136
890.62318
853.86773
863.76023
877.38135
891.8566
882.99668
842.8576
867.70974
831.72527
857.36916
867.5037
843.93048
815.61913
802.86012
853.49409
843.25899
768.82169
782.58655
824.47523
854.05153
876.34338
892.49215
906.44144
917.50706
927.67377
940.7997
955.48253
972.77701
988.40486
991.41521
995.79358
984.45752
992.56935
988.81728
980.94431
971.32955
976.70889
984.70437
979.28305
974.29812
985.61573
977.7015
974.69155
982.53926
970.08238
962.07444
966.30333
957.33132
960.3082
963.53262
968.07824
976.2507
971.55465
967.58876
964.25459
957.94322
961.85402
957.87935
953.97811
947.1062
951.88108
957.0608
964.75152
959.88723
965.90687
969.94869
975.66129
972.33333
968.32638
962.02302
966.05033
959.23866
964.04186
957.12864
953.09179
949.02361
955.96422
951.11483
943.70488
939.69957
945.07377
938.29401
945.63023
953.732
946.38414
942.3354
935.71342
931.69094
923.03678
930.51048
926.18663
922.28441
917.79614
910.44222
905.61666
896.43574
901.07229
910.29858
901.14832
896.53049
885.84382
890.98377
895.42469
905.46377
914.79405
923.48912
917.12974
926.20783
921.95064
930.28937
937.94363
945.09508
941.95672
937.63998
929.75897
933.51944
926.04963
921.59323
926.00667
934.37137
938.6087
946.19973
950.1984
953.29554
946.18911
942.66841
939.42532
947.63142
943.59491
939.35034
934.98317
932.42767
936.79853
928.12068
931.07349
926.52842
923.42483
913.89391
917.65614
922.00761
918.4029
907.40789
911.90507
916.791
911.93574
917.38936
908.46286
912.81574
906.56215
901.93549
890.02713
898.11424
902.8352
895.21356
899.69627
910.95558
921.10044
930.26675
934.37796
938.60007
930.32757
925.25734
920.49266
930.46359
926.31666
935.34935
932.43349
941.1142
945.11632
936.53602
926.94474
922.76118
911.8768
916.29044
905.01766
900.51773
895.927
907.11634
902.33708
898.37137
910.80327
920.95421
930.4398
942.5176
956.7454
964.53546
963.23798
949.14352
950.83903
958.95121
972.60036
980.48056
979.20189
971.36197
957.27455
965.29728
966.97516
955.42185
957.33259
959.77895
962.35021
965.3645
961.32006
958.2428
954.31012
946.73796
950.24684
954.23948
950.73699
954.81132
958.30712
962.35172
969.40748
966.3357
958.85511
955.637
963.78875
961.2918
952.77771
948.73781
951.59662
947.5163
955.69117
951.72893
949.27395
953.19269
944.65111
940.64007
943.51214
934.54685
938.44565
942.65041
946.67771
942.48597
933.41455
938.44574
934.40068
929.35247
924.62604
928.72317
938.6064
935.13518
931.06483
920.3462
916.16267
912.38537
923.94134
934.09548
943.20613
939.17361
934.8534
933.16641
928.75462
918.86347
923.64375
925.62443
929.97086
928.02574
937.54071
941.55231
932.17563
930.85328
940.52721
936.49601
932.11983
931.52157
927.08161
916.76585
921.57842
922.28252
926.69068
925.99914
935.92024
939.94431
930.17785
919.05018
919.90298
921.55852
917.27683
919.70937
915.29149
912.80689
908.20111
894.87105
900.19707
903.45479
908.0224
904.86881
909.33211
907.16493
902.62441
915.58533
911.06261
910.16782
905.50956
891.18306
896.65418
897.86877
881.66413
885.08274
889.58086
894.81169
889.93098
874.51859
882.50654
887.64557
880.21018
885.07673
899.45252
903.87478
909.32509
915.17085
921.29397
911.41567
918.91894
909.64104
918.76032
926.20626
934.23625
927.65425
918.97801
914.87373
922.31625
914.6591
905.52995
909.69709
899.67042
903.82091
913.77601
922.89409
930.52794
938.32045
942.34947
934.33542
927.10756
935.75813
931.7434
923.0979
913.81864
917.87058
926.90807
934.32534
927.06752
931.17712
939.80327
947.78315
955.17536
950.73405
954.81415
950.62797
946.55034
937.49287
942.51233
946.60101
951.85283
943.8795
950.48068
942.48096
938.62177
931.02056
938.62777
946.39922
950.48937
942.48832
935.26792
943.90433
939.83608
931.2131
921.96474
926.0493
935.08186
926.03179
935.24954
927.84303
937.63571
933.53522
929.45412
925.38734
919.30433
923.40714
912.33238
919.63758
915.55024
908.18933
903.99383
896.72295
892.29916
877.85082
887.21051
896.40509
907.22446
891.93779
887.43902
877.66023
882.60439
868.65878
880.12132
875.16088
863.01168
850.82716
868.06806
873.00382
863.11615
857.61489
836.52981
843.16343
856.46259
861.52749
873.42201
884.68504
889.02754
900.67472
891.60308
877.93714
866.33354
882.46038
873.21314
889.71821
894.21887
908.19073
913.53095
917.68588
912.43294
924.48831
928.60622
939.21849
942.67427
946.75648
943.30444
932.73048
936.92077
941.59244
931.62095
927.50973
916.4704
923.73964
913.08388
921.94631
917.8409
907.92608
912.02733
916.13867
905.71834
917.21485
908.45601
920.61276
913.69173
925.96342
921.82525
932.82207
916.63882
920.82159
907.27818
902.98489
909.50469
905.29075
901.04341
886.92165
895.88202
904.84506
908.97055
900.09759
886.61456
897.43193
893.26491
882.32269
870.98539
875.53236
891.30682
882.65325
898.64071
892.49409
907.81079
920.84851
932.19509
942.23928
951.29626
947.35772
945.74585
949.65441
940.34896
936.31928
938.21917
928.09631
925.74957
929.88165
917.94659
913.6804
916.65564
903.44566
898.9901
894.40207
890.08131
894.8446
876.96275
883.07743
878.16643
873.01717
867.2265
884.64795
879.8736
859.87198
866.27848
871.74293
866.37086
886.83773
891.75997
890.11406
906.04669
901.46218
914.71589
914.71734
925.99813
935.91245
949.12739
963.22189
972.74388
995.07273
964.1886
919.1835
903.97483
883.11517
901.12989
883.11002
865.5433
851.19944
862.75252
877.60785
825.40538
780.15602
762.96181
808.42232
849.88592
865.28005
895.67139
914.88258
919.09349
895.65996
877.72961
825.81232
739.54509
589.03903
577.06586
719.1403
585.44438
356.7444
374.14643
597.64762
782.91318
765.86426
808.93166
865.70848
903.90467
851.84727
865.15602
806.98816
716.60082
582.64312
348.79146
364.01145
594.48977
737.35251
577.3016
566.19052
758.29973
775.36218
824.25943
877.37802
903.70299
850.32226
862.01959
880.10077
794.99462
592.07192
387.9781
401.23335
604.21847
799.78059
880.52737
918.21109
941.36597
956.78746
959.93762
944.4033
924.05532
942.40439
940.1698
938.90775
947.21924
948.50728
934.37492
932.66377
923.84018
925.6504
928.87712
937.58652
950.63821
953.83455
945.597
933.50778
941.94218
949.91354
961.82596
975.62386
991.31583
988.37219
971.34302
979.18481
980.42711
972.54809
964.48467
956.69508
955.46822
940.78933
942.4695
950.7863
958.89651
957.25755
965.27895
966.91868
969.99086
982.45369
974.60693
966.53513
958.78544
945.62551
953.89412
958.12836
969.63146
977.58121
985.4939
974.17373
966.17881
961.986
949.19123
947.29292
945.70187
944.69043
944.14287
944.15201
944.71873
948.63779
948.06168
938.38713
939.05613
935.01455
934.3449
923.29473
924.12966
928.28415
927.46717
914.86357
915.91622
911.58693
910.50522
894.98173
896.53918
899.47081
903.99213
887.01253
882.05458
887.84841
868.95078
877.99659
859.04409
853.94302
848.68378
868.30001
858.36281
852.74719
847.06119
835.51801
841.80258
809.1893
827.93587
821.1623
801.07228
777.97099
785.62899
830.90613
860.64137
857.35063
879.85186
874.42795
850.48651
816.94674
823.35748
763.3314
755.59589
654.21964
712.51514
759.67984
791.72171
813.78154
832.44431
847.90388
862.58204
875.35125
887.68734
898.35331
903.03827
912.98461
922.08644
930.3915
938.02331
933.61491
929.8967
937.74084
942.04303
934.48416
938.70408
942.21595
934.59445
938.67072
930.42187
926.3248
921.27981
930.39923
926.16887
921.78357
926.17919
917.55379
912.19186
917.01037
912.223
922.23097
931.22717
939.45897
935.11552
926.7127
923.65663
932.59533
936.93904
928.3234
932.60172
935.47672
943.68485
946.27227
950.25738
942.74927
934.48948
925.4103
920.72242
930.61859
939.53601
947.70661
954.046
950.92312
964.58257
963.29634
955.5626
955.55049
972.77847
995.07583
986.99762
989.5198
1046.5912
1045.1417
977.48312
973.42796
969.2185
964.20717
941.45406
956.84457
939.04024
918.44739
924.08194
932.86169
947.32972
948.61577
940.30495
925.87975
934.57201
937.76503
950.74072
959.99011
944.48211
924.24058
942.53172
929.09091
933.68752
945.70554
953.92644
942.0983
950.04202
945.77177
942.62787
940.94558
949.24563
949.25287
957.34938
959.01165
972.63208
980.50016
967.01024
970.10939
959.8159
962.38286
958.28215
954.3588
946.80414
950.7896
954.8534
958.88442
962.37702
969.42518
966.35994
963.81457
955.67787
951.64879
947.58636
955.74104
951.79114
943.59793
940.75067
949.35477
945.21629
941.23354
939.31095
935.01897
930.63637
921.24216
925.86852
923.93127
933.36223
928.97849
919.20466
908.7147
911.23998
914.24388
917.92081
907.49185
902.86513
907.86338
918.70096
923.00772
926.50814
916.56299
912.26681
916.48734
927.15764
936.6808
934.26725
943.32341
941.69143
937.7064
928.27339
930.18216
920.02633
915.67025
904.05659
899.07587
895.73532
900.94893
913.2588
917.66365
921.88435
924.21413
912.83113
908.54594
905.52488
909.89348
907.80845
920.27531
931.08839
932.38744
936.48643
938.36014
947.45296
951.36746
953.25505
944.74157
948.8055
957.38331
961.3272
952.8286
943.38017
946.81328
950.67005
954.84564
946.63592
942.56052
938.50715
946.73135
942.71122
934.47857
929.47162
938.53512
942.55779
933.51575
937.567
946.60844
942.75304
938.70688
934.67724
924.81447
928.87165
924.70122
935.27703
931.23716
920.62168
908.63258
913.8177
919.48206
925.48731
921.41646
917.2803
907.38953
911.56564
904.28029
915.39092
911.21005
906.86243
895.60734
890.49112
878.2134
883.09197
892.15914
880.29708
869.2005
863.60891
852.08811
869.09503
883.27102
888.32559
900.9888
895.52054
881.31931
875.76962
859.41101
864.78176
873.94787
857.64486
845.47293
839.00609
825.49339
849.96925
869.06339
874.69942
890.58674
886.3967
868.66256
862.46825
839.9967
846.16691
855.52821
832.18266
816.76554
808.72091
789.96817
830.58483
857.24892
863.61548
883.20786
898.71759
911.56661
922.60174
932.33051
927.92441
917.8846
917.15569
927.3423
931.75093
921.91743
926.29184
926.96829
936.67684
940.68171
940.11345
936.11959
936.11537
931.75388
927.34308
915.40442
906.65631
881.27234
881.48163
891.56946
895.85912
917.93208
909.30323
886.2004
855.60735
846.0512
802.58992
777.38113
791.36481
856.51975
865.70381
820.21317
807.55767
834.02374
869.00936
893.71556
914.04209
894.13908
920.4504
928.68395
922.57333
903.16652
912.24078
903.49079
883.73159
844.24899
858.39511
868.52556
846.07367
878.56698
892.53971
902.5096
896.67108
890.87722
885.82392
881.30422
877.98251
876.10742
876.13968
892.18221
893.47776
907.02788
906.10768
910.69472
897.53046
902.22837
903.37668
916.02235
915.17049
919.44713
930.43208
934.55545
935.20913
944.84748
945.86422
949.7474
940.48932
942.35546
946.41806
955.48437
959.44161
950.43869
948.57339
957.81806
953.89606
944.56353
934.17395
936.43405
939.32921
928.77446
932.93004
937.00074
941.64482
931.69303
937.67837
933.59395
929.53396
919.73095
915.67187
908.42951
912.52748
923.5487
927.61409
916.61492
923.80733
927.89568
920.71353
908.59604
917.27133
913.16982
909.07875
904.98119
900.83759
896.59914
884.83937
889.16439
878.35878
891.98421
887.65007
900.04745
892.89139
905.42946
909.67657
897.24481
890.58295
904.41656
900.07336
886.07524
869.81895
878.70647
883.20843
867.31147
862.61902
873.90955
858.68084
872.09163
867.37586
853.34936
836.63018
853.77406
848.37217
838.02403
827.35747
760.17857
787.04859
800.13282
744.66803
802.18744
789.27639
727.45317
637.07729
728.40926
741.93294
626.1266
622.33154
459.72761
464.23106
654.40705
539.26395
660.43154
750.2814
736.60739
609.37821
643.10649
480.10482
643.92921
649.29171
485.30205
393.17791
380.09509
524.96916
373.93917
389.01568
433.95574
381.53563
394.47408
392.58684
469.44535
630.301
771.5868
843.84317
880.4991
906.19639
915.02208
917.58864
908.90321
885.47187
895.23079
890.73687
854.48604
864.59459
854.36698
805.72175
818.61073
785.80189
818.25085
850.96543
874.60365
891.25243
905.52889
916.77302
927.07677
931.52092
932.09818
927.66502
917.51726
922.27835
921.58623
910.1882
911.09981
906.50335
892.6701
898.00749
896.71401
901.50565
906.08033
919.05934
930.17286
939.94201
940.50337
936.47569
926.6782
930.83788
932.14198
941.51698
937.50347
933.13913
928.72959
930.4011
934.80407
925.59503
923.63915
918.87237
920.94825
910.84937
908.26282
912.84794
915.31605
903.58628
900.36855
895.08287
898.55553
902.44614
913.91339
923.39211
932.37506
922.27732
913.70883
893.71404
920.17135
928.43466
911.83764
902.6785
893.173
903.06331
883.14412
868.2124
843.54578
833.0876
845.15503
877.81893
891.94719
867.79337
857.7559
878.39462
897.61244
913.09531
927.28479
938.57656
949.07529
964.69597
969.20936
999.73167
980.06108
995.63063
1000.8072
994.10457
984.98356
970.22665
964.48427
954.87626
949.39129
933.03985
952.80823
958.32146
961.06437
957.18984
947.10365
952.51592
944.34597
935.27367
944.55708
943.64644
935.6087
922.06602
931.87967
923.83028
911.3074
929.60824
943.84956
911.27263
881.71778
912.20208
920.59846
906.53976
888.45458
906.52777
897.61755
913.07215
923.81314
931.85795
943.59735
935.23479
927.22617
935.54027
922.03488
928.14133
940.37577
960.68829
951.60566
947.02009
955.07431
965.12545
972.8635
976.68175
974.26825
968.72501
960.54876
968.59836
963.14179
971.17199
980.79199
988.66346
992.38108
989.57361
984.27283
976.5151
984.50957
979.12423
968.17073
965.22786
962.23095
959.67424
957.24602
955.35353
953.77084
952.76592
952.22342
952.23431
952.79823
953.82233
957.76296
959.40001
950.37352
946.3338
944.45142
948.49475
947.20694
956.75095
956.1724
946.54772
942.50381
943.16581
932.42082
934.00126
936.29459
940.38871
938.10841
926.35726
929.16658
925.0186
922.17235
920.18736
924.42061
936.54461
935.74269
931.61809
919.17024
923.43573
908.94662
910.24967
912.79784
916.37581
912.11855
908.4322
891.86148
897.05709
901.52724
896.60481
892.661
887.62913
905.76825
901.20452
899.72615
879.92978
882.52313
877.27975
871.89689
868.94856
863.25659
885.10917
885.26166
880.02535
882.07852
876.79329
855.19662
861.73525
857.85124
863.75063
869.44188
890.26431
892.09075
907.25726
919.91418
915.60954
902.74486
904.99801
917.29818
928.01131
929.92769
939.12039
943.14824
934.045
923.91808
921.56171
909.42581
912.44764
908.12018
919.7126
922.72464
932.37521
941.04276
936.7379
939.26238
934.9082
926.46652
930.99954
928.08284
918.39824
921.96224
917.6348
907.15098
911.9133
907.48959
911.91795
916.16638
926.89886
936.46596
945.04396
947.53194
943.50474
935.26248
939.33502
942.55871
950.08776
946.09003
941.8559
937.54238
940.65804
944.96562
937.81836
934.27562
929.67862
933.40583
925.94807
921.53253
925.92875
930.17761
921.85159
916.74431
911.91526
917.31232
908.41732
901.97482
896.08122
890.22138
885.06657
880.3695
885.54102
889.95498
873.86025
867.39836
861.06576
868.15633
848.8316
838.01687
827.21105
833.8163
824.8267
767.48917
759.11829
784.63281
792.94795
800.55161
840.43263
867.45597
887.21794
890.48512
895.18872
899.23943
894.71839
878.93123
872.79451
877.93449
872.9389
846.85904
838.31519
836.59326
843.6726
853.75686
863.73892
839.94955
834.05125
815.89403
847.88835
837.38445
830.02227
769.69105
792.39042
799.00113
822.46737
828.96057
859.51772
865.15111
874.05351
851.39213
864.03445
868.90449
887.22884
895.62785
904.28799
890.86625
901.58111
889.28968
901.64644
897.52488
893.37729
882.68155
896.20259
900.35661
886.91883
891.10098
904.48524
896.04307
909.77299
921.99826
917.91926
905.64694
901.48098
894.96327
899.24643
912.79652
916.91431
921.01597
926.088
913.8883
907.62126
903.46532
888.05117
883.68221
891.84431
887.56997
871.84307
876.25962
865.61092
860.8511
879.20009
874.59368
855.94008
850.85043
838.14513
860.97224
879.69788
895.2863
899.75688
884.4457
878.97349
895.87959
891.26052
873.95145
852.08639
857.75168
866.13841
843.85517
830.01073
823.47942
805.39324
843.39758
869.17249
888.22437
892.99076
874.48178
871.62468
891.37711
906.71813
911.07281
912.13073
914.14815
917.02032
928.31863
932.37885
921.14933
918.33243
930.10906
926.02857
924.4422
928.54194
939.21643
948.74384
948.17914
944.29923
944.29208
957.34332
971.38935
971.40346
979.22674
965.34506
952.87988
956.80882
947.30142
943.29079
942.64077
952.32925
956.24153
946.65348
935.91196
936.69501
938.23763
940.49157
929.32972
932.85316
936.94413
941.10879
945.75846
950.76379
956.03421
961.38807
973.3977
993.19074
1006.0077
1015.7777
1025.11
1031.7841
1064.2241
1067.0454
1064.2261
1057.2003
1061.8487
1028.7392
1015.7767
1032.2772
1022.004
1006.0087
1000.3514
1011.1728
1027.5075
1016.4925
1008.5855
1000.9562
992.82083
987.46902
996.85343
1004.8992
995.62877
1004.0671
1009.2018
1017.7054
1025.0783
1021.5493
1013.1589
1010.0789
1023.4693
1024.7381
1058.1355
1039.9677
1043.8049
1047.9388
1065.3427
1055.8871
1038.9583
1033.2547
1041.9952
1034.9911
1026.2637
1021.2964
1030.0117
1038.6001
1030.0547
1039.1167
1043.7323
1050.2984
1061.0438
1059.264
1052.9199
1056.1174
1047.2766
1044.404
1057.4106
1053.2386
1034.6061
1025.4578
1035.6948
1027.0302
1018.5298
1007.7813
1012.5544
1004.925
1009.7241
1010.1206
1022.0058
1032.2792
1027.5109
1011.1738
1000.3498
1008.5853
1004.8991
996.85067
987.46393
992.81739
1000.9564
995.62784
1004.0687
1013.1606
1016.4943
1025.0806
1021.5532
1012.5569
1017.7084
1009.2034
1000.9919
992.6949
984.28502
979.68848
983.85682
980.54581
976.47821
970.2037
974.08967
978.18575
974.29681
978.51771
984.73477
987.93553
992.19265
988.90515
982.71074
986.57481
982.36586
976.42238
981.37514
973.39693
968.14599
972.35612
967.52372
963.38949
956.01914
961.38057
965.47001
960.1643
964.40727
971.73993
975.98351
980.7533
973.91983
969.69073
963.03274
970.48241
981.37572
992.69508
984.28901
979.69537
983.86117
978.18994
974.09865
970.21495
976.48749
980.55293
974.30426
978.52235
982.36756
987.93822
992.19327
986.57459
982.71259
988.9072
984.73972
981.80756
990.728
1001.7872
1006.9943
993.67308
982.49628
978.3088
990.724
998.76947
986.56266
995.08798
999.20977
990.28121
993.19082
996.35187
1000.9923
990.32903
998.65842
993.65677
999.48046
995.14066
1000.6956
997.44193
991.30917
987.03733
990.86147
985.01878
980.7532
976.42645
972.36048
968.1567
963.40142
967.53224
960.17272
965.47538
969.68858
973.91766
968.66594
975.9864
971.74397
964.41296
956.47806
963.03636
958.82569
962.0456
954.63979
958.82255
952.21213
948.0525
939.43242
946.87364
950.83193
943.59513
947.88482
956.47769
960.7547
968.66965
973.03725
980.32007
987.03809
993.19215
996.35293
1000.6963
997.44636
991.31371
995.14378
990.86304
985.02045
990.33044
998.6606
1009.7274
1004.9292
1009.3592
1006.1487
1001.7959
995.71723
999.48452
1003.8708
1000.0895
993.49121
998.17205
993.66255
989.42202
984.65248
977.38972
982.63987
978.34349
971.67848
979.1505
987.973
980.47955
987.03636
991.46082
986.29492
981.83876
989.06052
984.70506
992.09136
998.92606
1007.7884
1018.535
1023.4742
1024.7418
1058.1415
1061.8527
1047.9409
1043.809
1033.2578
1038.9599
1041.9992
1038.6052
1030.0162
1021.3017
1026.2667
1034.9952
1030.0599
1027.1352
1018.2743
1027.3058
1022.5213
1018.1631
1013.6571
1010.5848
1015.0101
1009.0282
1012.7544
1008.3034
1004.5868
998.00732
1002.5937
1007.8895
1016.557
1011.558
1017.2316
1021.7878
1027.1116
1024.015
1019.4935
1013.5918
1018.1303
1011.6918
1016.2403
1009.668
1005.0674
1000.5229
1007.1705
1002.5141
995.38531
990.85471
996.04132
989.49424
996.95805
1007.8874
1018.2717
1027.3024
1016.5543
1011.5532
1017.2259
1022.5167
1018.1579
1013.6521
1009.3556
1003.8657
1000.081
1006.1427
1001.7905
995.71227
989.05066
984.64775
989.42028
982.63439
978.34019
973.03516
980.32006
975.91026
983.36487
979.04929
986.01925
982.97147
978.81498
974.58065
977.64183
973.53409
966.50515
970.6196
967.13008
963.01952
970.52923
967.96474
972.0408
963.91765
959.80762
956.95436
965.52576
969.54906
961.05803
965.27778
968.13876
971.35419
974.83564
967.32619
963.11527
958.96541
954.78386
958.93521
949.92266
954.93064
959.15669
963.43982
971.59026
967.41122
975.57171
972.35908
980.44162
976.25905
973.81352
977.95077
969.49325
960.06635
963.53803
959.27706
963.15272
954.14653
958.43038
953.74746
949.47563
945.26403
955.06897
950.92253
947.48167
951.61584
941.08471
945.27721
955.81916
952.88535
962.867
971.90614
983.4777
996.75685
1004.2165
1020.6257
1005.1624
1007.1827
1015.5896
1003.7054
1000.6685
1013.6117
1012.3698
1003.9548
995.4904
987.45891
988.68322
975.21714
973.54894
981.80693
990.36035
992.02324
980.41795
982.32581
984.76324
987.30597
991.56232
994.58161
987.6739
984.2196
979.90032
971.74248
976.11877
980.27398
972.17796
977.38551
981.82916
987.03126
991.45454
998.16736
993.48468
986.2869
978.48288
984.97645
980.47634
976.07373
971.67691
967.33229
959.37711
955.30305
950.83694
946.87969
954.65023
948.06571
952.22459
943.60394
939.45183
930.21195
939.26997
943.43046
934.39141
930.20575
920.29553
924.50067
934.39782
938.67234
947.72182
955.30143
959.37704
967.33773
952.16778
942.98437
952.00529
942.983
952.16765
960.75632
965.13624
969.51779
960.97179
968.16302
963.97421
956.58129
947.39042
956.41092
963.97385
968.16401
976.08017
969.52308
965.14306
956.58132
960.97745
965.49741
974.00423
978.49135
984.98286
977.12841
972.83778
965.3253
972.83346
977.12566
969.99399
965.49361
973.99776
967.78965
976.63242
984.69575
992.08197
998.91921
1003.3185
996.48993
993.07125
1000.3364
995.97463
988.6509
980.55985
985.04522
989.16119
981.13197
976.17484
971.65321
967.18487
962.7784
967.79046
958.89162
954.5266
950.22818
945.98579
941.81149
932.0339
936.21787
929.01635
939.98786
935.81914
924.84431
912.74071
921.41572
925.60784
914.13706
909.92982
905.77279
895.25949
884.8234
900.21418
892.32108
874.67033
870.22601
880.58567
863.11856
876.41888
872.14625
885.10982
880.86923
876.55347
862.97491
858.30662
841.83719
846.72746
863.32355
849.32317
844.3872
839.11545
833.74563
811.9038
830.25406
810.98992
817.31368
837.88249
820.23779
794.62598
786.78076
758.47365
788.12355
794.33968
818.20968
797.16183
822.96511
816.66103
789.44987
760.20673
767.79755
733.50314
766.20133
772.99636
800.92754
826.14266
843.23603
848.27573
831.76401
806.90638
828.27866
822.97357
800.45446
823.80568
829.04838
809.15866
834.18626
828.73738
803.34542
774.50429
780.77253
806.14547
779.37991
747.80408
740.89804
698.28069
737.83738
772.73313
805.07641
798.36615
767.62563
721.96933
765.44223
757.47483
711.59525
639.29055
647.07801
718.43572
654.99615
527.04088
527.31441
425.99398
580.17784
665.88814
722.01354
729.90384
676.53235
626.69783
689.78598
680.16806
723.99478
682.74859
726.47609
763.07152
797.25771
803.84
770.94164
733.04211
778.40411
770.44942
722.84015
675.02735
685.17949
734.16073
692.25643
633.20549
621.22854
534.74799
595.69026
659.53614
732.01156
738.94494
798.08735
837.01179
829.98819
860.43916
881.42397
886.52801
866.15345
836.57747
843.01698
849.57323
812.72184
793.00133
785.61997
778.50867
770.10826
823.54192
853.78982
853.67511
860.32044
881.39023
897.52661
910.69911
921.92229
917.16529
917.89239
927.93009
932.33464
922.61054
926.96996
926.29939
930.43162
940.11833
940.67953
936.68416
937.70423
950.90807
964.5517
963.29018
956.78502
958.86825
975.6551
991.32739
988.38679
979.21299
965.33342
966.97356
980.4571
972.59647
958.98785
962.06353
974.6515
966.5995
954.00872
958.22571
969.68723
961.90105
965.18741
980.08397
999.73073
995.63766
980.82284
977.62048
985.51586
982.48033
970.0427
974.21716
966.24935
971.22819
963.22305
972.91328
976.71768
974.30478
968.77554
961.12725
957.26928
964.73645
949.44748
933.16324
949.16988
938.72488
947.23303
952.618
958.3842
952.88557
944.46417
935.44262
927.50807
911.54939
913.42855
922.38145
935.81127
943.79946
944.68365
924.08368
932.12565
920.94416
907.00105
898.05979
881.99981
878.8872
889.02988
906.97854
897.99502
912.53996
924.05927
911.4559
929.74262
943.92408
964.49977
954.91109
970.25038
984.99581
994.10652
1000.8099
989.58896
984.29701
992.39454
988.68183
979.15773
984.5351
976.55982
968.6628
960.6316
955.182
943.87903
940.84496
937.74617
935.12586
932.6102
930.65045
928.98918
933.37142
923.95376
919.23027
921.27771
925.89488
935.0266
939.31381
943.31554
941.69154
932.39173
931.09763
920.28325
919.45179
915.17555
902.22688
906.71083
907.80903
903.37227
916.03493
911.58234
907.0403
906.11531
892.186
893.47313
898.72114
900.97601
913.29068
908.75529
895.77149
899.14111
911.29663
915.7191
904.12237
908.5979
905.55021
917.69344
928.29636
930.19811
934.28427
924.24504
921.91247
909.9125
912.88373
917.05866
914.16292
912.12967
911.07221
923.63338
923.63535
927.74621
938.57155
938.56377
948.17916
948.73673
944.84757
935.20896
934.56495
939.21401
943.28217
942.64207
952.32502
956.23714
946.65034
947.29182
956.79669
952.87506
953.87667
949.73796
945.85607