/*--------------------------------*- C++ -*----------------------------------*\
  =========                 |
  \\      /  F ield         | OpenFOAM: The Open Source CFD Toolbox
   \\    /   O peration     | Website:  https://openfoam.org
    \\  /    A nd           | Version:  7
     \\/     M anipulation  |
\*---------------------------------------------------------------------------*/
FoamFile
{
    version     2.0;
    format      ascii;
    class       volScalarField;
    location    "450";
    object      T;
}
// * * * * * * * * * * * * * * * * * * * * * * * * * * * * * * * * * * * * * //

dimensions      [0 0 0 1 0 0 0];

internalField   nonuniform List<scalar> 
25278
(
299.99755
300.00046
299.99944
299.99935
300.00418
300.0002
299.99793
299.99747
299.99819
300.00078
299.99986
299.9986
299.99983
300.00173
300.0229
299.99941
300.00048
300.01749
300.02594
300.0131
300.0065
300.00508
300.00355
300.001
300.00147
300.00089
300.00346
300.00582
300.00875
300.00515
300.00593
300.01083
300.01548
300.01179
300.00598
300.00823
300.00479
300.00552
300.00956
300.01218
300.01017
300.0056
300.00688
300.00131
300.00177
300.00156
300.0016
300.00177
300.00163
300.00721
300.00851
300.01498
300.02496
300.02054
300.01109
300.00656
300.00799
300.01302
300.0179
300.01476
300.00891
300.01127
300.01364
300.00919
300.01449
300.01552
300.01003
300.01502
300.02223
300.0205
300.03049
300.02592
300.02081
300.01655
300.01311
300.00811
300.00579
300.00494
300.00484
300.00884
300.01168
300.02252
300.01706
300.0248
300.0112
300.01486
300.03183
300.06657
300.05182
300.03631
300.03292
300.04833
300.05203
300.07785
300.07303
300.04788
300.04253
300.0289
300.0239
300.03704
300.04316
300.06721
300.05941
300.03621
300.05026
300.05687
300.06239
300.11042
300.11449
300.14348
300.07867
300.07444
300.13919
300.13609
300.1055
300.09691
300.13234
300.0627
300.06871
300.07074
300.02581
300.01133
300.00414
300.05712
300.08409
300.12114
300.14714
300.08028
300.03304
300.01516
300.0121
300.00891
300.01826
300.02429
300.05609
300.07053
300.0667
300.07623
300.14365
300.11805
300.11413
300.14163
300.13914
300.06503
300.05491
300.06129
300.04706
300.05242
300.07991
300.05369
300.02529
300.03987
300.03648
300.0322
300.01917
300.02691
300.04072
300.06755
300.10671
300.22316
300.36919
300.34863
300.20499
300.09846
300.05215
300.05799
300.06931
300.06489
300.13382
300.13464
300.10604
300.21207
300.33384
300.35015
301.34848
301.1143
300.33978
300.35614
301.12719
301.36443
300.36209
300.34225
300.22656
300.1163
300.07475
300.04857
300.04252
300.05946
300.11031
300.14387
300.14256
300.07583
300.02888
300.06479
300.07202
300.05909
300.13797
300.37565
301.62653
301.60564
300.35783
300.12549
300.05138
300.03932
300.02634
300.01679
300.01156
300.00852
300.01032
300.0055
300.00773
300.01471
300.00958
300.00509
300.00436
300.00484
300.00877
300.01117
300.00603
300.00061
300.00082
300.00036
300.00193
300.0013
300.00023
299.99722
299.99657
299.99857
300.00115
300.00138
299.99843
299.99658
299.99558
299.99757
300.00119
300.00144
300.00098
300.00114
300.00599
300.01231
300.00649
300.01004
300.01906
300.01329
300.00759
300.00561
300.00672
300.01162
300.01588
300.00945
300.01143
300.00768
300.00751
300.01397
300.02301
300.01288
300.01813
300.01974
300.01382
300.0084
300.01266
300.00476
300.00382
300.00244
300.00127
299.99518
299.99719
299.99709
300.00206
300.00266
300.00106
299.99631
299.99732
299.99423
299.99514
299.99391
299.99575
299.99234
299.99375
299.99177
299.98976
299.98747
299.99254
299.99118
299.99352
299.98953
299.99034
299.98851
299.98919
299.99034
299.99075
299.99279
299.9974
300.00047
300.00214
300.00051
300.00176
299.99877
299.99808
299.99612
299.99691
300.00123
300.0011
299.99875
299.9951
299.99619
299.99921
300.00283
300.00934
300.00705
300.00992
300.01783
300.02331
300.01364
300.02099
300.01387
300.0095
300.00653
300.01251
300.02548
300.01738
300.02203
300.01536
300.00828
300.01248
300.02005
300.03179
300.02341
300.04636
300.0328
300.04712
300.03158
300.01301
300.01017
300.00758
300.00564
300.00419
300.00323
299.99904
299.99954
299.99946
300.00346
300.00403
300.0054
300.00006
299.99923
300.00167
299.99305
299.99488
299.99538
299.99167
299.99312
299.99255
299.99605
299.99526
299.99123
299.99005
299.99046
299.98921
299.99463
299.99985
300.00107
300.00732
300.01012
300.00272
300.0008
300.00314
300.00133
300.00068
299.9948
299.99281
299.99425
299.99476
299.99562
299.99855
300.00207
300.00241
299.99832
299.99852
299.99855
300.00241
300.00286
300.00413
300.00334
299.99849
299.99912
300.00482
300.00598
299.99988
299.99894
299.99396
299.99439
299.99525
299.99189
299.99264
299.99116
299.99051
299.98927
299.98995
299.98872
299.99401
299.99392
299.9882
299.98295
299.98442
299.98654
299.98273
299.98851
299.98697
299.98827
299.9857
299.98831
299.98706
299.98414
299.98676
299.98517
299.98427
299.98631
299.98309
299.98403
299.98204
299.98085
299.97711
299.97991
299.98115
299.98328
299.98648
299.98501
299.98138
299.9784
299.98037
299.97764
299.97596
299.9729
299.97497
299.97868
299.97665
299.98035
299.98386
299.98573
299.98288
299.98624
299.99019
299.99154
299.99528
299.99891
300.00317
300.01105
300.01892
300.03697
300.02804
300.01763
300.02398
300.01442
300.02318
300.03611
300.05667
300.04232
300.08004
300.06551
300.04855
300.02972
300.04214
300.07221
300.09483
300.12943
300.07218
300.04371
300.02724
300.04823
300.02997
300.0205
300.01817
300.03135
300.03601
300.0493
300.08321
300.12152
300.15798
300.13814
300.10937
300.05831
300.06903
300.04069
300.03655
300.03099
300.02515
300.01986
300.01549
300.01183
300.00881
300.00686
300.00016
300.00194
300.00972
300.01242
300.00388
300.00155
299.99438
299.99416
299.99161
299.9947
299.98827
299.98824
299.98903
299.99493
299.99492
299.99571
299.99573
299.99631
299.99603
299.99788
300.00226
300.00317
299.99802
299.99663
300.00401
300.00238
300.00451
300.01287
300.0171
300.02773
300.01999
300.03037
300.03982
300.04825
300.03629
300.02154
300.02409
300.03339
300.05406
300.0413
300.07638
300.06509
300.0469
300.03236
300.04475
300.08256
300.06106
300.09962
300.06726
300.05065
300.07743
300.1185
300.13698
300.07792
300.0891
300.16455
300.14841
300.10042
300.06938
300.04802
300.03392
300.02404
300.01748
300.01323
300.00691
300.00462
300.00201
299.99743
299.99806
299.99904
299.99692
299.99615
299.99447
299.99564
299.99223
299.99406
299.99268
299.99027
299.98818
299.99327
299.99489
299.99439
299.99215
299.98667
299.9905
299.99102
299.98924
299.98976
299.99077
299.991
299.98877
299.98736
299.98866
299.98727
299.98464
299.98607
299.98873
299.98765
299.98562
299.98689
299.9867
299.98288
299.98146
299.98438
299.98347
299.98674
299.9848
299.98567
299.9825
299.98134
299.97755
299.98024
299.97622
299.97789
299.98067
299.98362
299.98187
299.97888
299.98358
299.9848
299.98298
299.9826
299.97686
299.97454
299.97797
299.97571
299.98155
299.97947
299.98082
299.98742
299.99505
300.00237
300.0049
300.01355
300.01788
300.0079
300.00416
300.00724
300.01714
300.02351
300.01189
299.99989
299.99769
299.99625
299.99539
299.99721
299.99617
300.00311
300.0015
300.00052
300.00009
300.00111
300.00591
300.00731
300.00548
300.00742
300.00988
300.00344
300.00189
299.99664
299.99697
299.99255
299.99239
299.99118
299.99154
299.99232
299.99296
299.99778
300.00224
300.00735
300.00915
300.00372
300.00557
300.00362
300.00935
300.01174
300.01594
300.01271
300.00591
300.00869
300.01322
300.00926
300.00582
300.01349
300.01004
300.01387
300.00559
300.00934
300.0185
300.02478
300.01848
300.00878
300.01382
300.00257
299.99999
299.99814
299.99707
299.99084
299.99017
299.98941
299.9905
299.99237
299.99208
299.99897
299.99793
299.99951
299.99895
299.99368
299.99341
299.99377
300.00128
300.00424
300.00088
300.00387
300.01417
300.02387
300.01736
300.02203
300.02663
300.01917
300.01401
300.01074
300.00579
300.00399
299.99834
299.99866
299.99832
299.9976
299.99054
299.99424
299.99157
299.99127
299.99426
299.99075
299.98557
299.98585
299.98175
299.98203
299.98259
299.98334
299.98447
299.98636
299.9856
299.98898
299.98686
299.98705
299.98354
299.98278
299.97969
299.98095
299.97944
299.98335
299.98187
299.97777
299.97639
299.9808
299.97983
299.97532
299.97818
299.97876
299.9824
299.98521
299.98901
299.98934
299.98503
299.98237
299.98762
299.98707
299.98545
299.98497
299.98503
299.9806
299.97979
299.97657
299.97745
299.98304
299.98316
299.98402
299.97635
299.97948
299.97965
299.98642
299.9856
299.99492
299.99803
299.99578
299.99469
299.99442
300.00002
300.00504
300.00638
300.01228
300.0161
300.00942
300.00763
300.00121
300.00278
300.00117
299.99527
299.99595
299.99694
299.99583
300.0019
300.00723
300.00775
300.01381
300.01828
300.01146
300.01076
300.00397
300.0046
300.00236
299.9962
299.99746
300.00019
299.99935
299.99775
300.00618
300.00382
300.01169
300.01431
300.02206
300.03101
300.02147
300.01756
300.00802
300.01163
300.00115
300.00377
300.01451
300.00801
300.01632
300.01736
300.02516
300.03572
300.02613
300.02451
300.03725
300.03237
300.02634
300.01984
300.03032
300.04152
300.03209
300.02044
300.02851
300.01491
300.00873
299.99705
299.99327
299.99056
299.98894
299.98872
299.98763
299.98736
299.98684
299.98712
299.98784
299.98741
299.98689
299.99535
299.99469
299.99571
299.9971
299.98686
299.98757
299.97548
299.97741
299.97896
299.9806
299.98265
299.97772
299.9745
299.97181
299.97525
299.98092
299.9789
299.97703
299.9682
299.97158
299.97467
299.97221
299.96657
299.97124
299.97535
299.97911
299.97724
299.97521
299.97317
299.97574
299.97132
299.97312
299.97045
299.97328
299.96854
299.97238
299.96748
299.97025
299.96617
299.97014
299.97435
299.97219
299.96737
299.96286
299.96822
299.9709
299.96629
299.96121
299.95682
299.96269
299.95696
299.9631
299.95863
299.965
299.96848
299.97402
299.98104
299.98137
299.97299
299.96884
299.97015
299.97896
299.97947
299.99098
299.99475
300.00793
300.01344
300.00615
300.00112
299.99878
300.01308
300.02438
300.03262
300.0198
300.02734
300.01859
300.03191
300.04293
300.05638
300.04251
300.02887
300.0405
300.05566
300.07607
300.05627
300.03957
300.02054
300.01083
300.00434
299.98949
299.98887
299.99183
299.99315
299.99974
299.99692
300.0047
300.00022
299.98495
299.98515
299.98271
299.97284
299.97373
299.97682
299.96942
299.97407
299.97467
299.97147
299.97019
299.96418
299.96578
299.96791
299.96175
299.9662
299.9601
299.9631
299.95686
299.96138
299.96846
299.96447
299.95559
299.94996
299.94228
299.95114
299.94527
299.95434
299.95049
299.95895
299.9646
299.97005
299.9639
299.95686
299.94756
299.95695
299.9579
299.96866
299.98137
299.97987
299.97742
299.97682
299.96579
299.96392
299.95797
299.96089
299.97465
299.97509
299.97793
299.95669
299.96347
299.9652
299.97
299.97333
299.97576
299.97799
299.98027
299.98264
299.98507
299.98976
299.99034
299.98526
299.98306
299.98931
299.98843
299.98779
299.98925
299.9811
299.97951
299.99028
299.98784
299.98873
300.00183
300.01443
300.02011
300.00688
300.01597
300.00758
300.02354
300.03819
300.05153
300.03713
300.04354
300.06209
300.04782
300.03281
300.041
300.02482
300.01135
300.0139
300.00519
300.01606
300.00898
300.00887
300.00454
300.00234
299.99834
299.9987
300.00208
300.00182
300.00656
300.01768
300.026
300.04293
300.02917
300.04334
300.05833
300.06915
300.06485
300.0525
300.09943
300.13364
300.13402
300.10688
300.06754
300.05987
300.0373
300.02424
300.01742
300.03668
300.05076
300.09736
300.20565
300.34539
300.32969
300.21226
300.33933
301.08239
301.3115
300.34865
300.13197
300.13503
300.10541
300.05718
300.02534
300.06882
300.06424
300.11441
300.22002
300.34279
301.1042
301.32569
300.35376
300.21738
300.35624
300.33713
300.14143
300.14287
300.10869
300.05899
300.02884
300.07561
300.07184
300.05878
300.13629
300.36978
301.57361
301.56698
300.35354
300.12637
300.05177
300.02511
300.01503
300.00856
300.00734
300.01322
300.02068
300.01311
300.01459
300.01557
300.01006
300.00926
300.01368
300.01505
300.02229
300.02062
300.01797
300.01131
300.00809
300.00673
300.01124
300.01487
300.00903
300.0026
300.0025
300.00183
299.99829
299.99752
299.99432
299.99135
299.99182
299.99445
299.99848
300.00408
300.00465
300.00692
300.00582
299.99769
299.99077
299.99082
299.9857
299.98622
299.98723
299.99252
299.99471
299.99826
300.00332
300.0041
299.99685
299.99641
299.99821
299.99529
299.99369
299.98882
299.99156
299.9909
299.98961
299.98992
299.99039
299.99075
299.99101
299.99101
299.99074
299.98545
299.98559
299.98373
299.98349
299.99005
299.99045
299.99119
299.99053
299.98193
299.98232
299.98175
299.98108
299.9925
299.99366
299.99904
299.99685
299.99281
299.97846
299.97794
299.99748
299.99059
299.99361
299.98486
299.98453
300.01062
300.03482
300.02345
300.03682
300.05555
300.07088
300.08773
300.07203
300.10976
300.07994
300.10013
300.13248
300.15908
300.14214
300.08749
300.05601
300.0609
300.03996
300.05081
300.07453
300.10974
300.09759
300.16696
300.18257
300.31058
300.2593
300.19783
300.14017
300.10169
300.07402
300.05593
300.04175
300.03088
300.02269
300.01651
300.00689
300.00369
300.00133
299.9999
299.99913
300.00392
300.00525
300.00418
299.99958
300.00006
299.99504
299.99453
299.99433
299.98903
299.98812
299.99461
299.9959
299.99516
300.00127
300.00749
300.00565
300.0081
300.01074
300.0033
300.00589
300.00308
300.0013
300.00037
300.00528
300.00682
300.00866
300.00667
300.00145
300.00275
299.99697
299.99588
299.99613
299.99562
299.99143
299.99021
299.98925
299.9886
299.98969
299.98992
299.99059
299.99157
299.9954
299.99601
299.9972
299.99733
300.00315
300.00316
300.00095
300.00088
300
299.99905
299.99719
299.99775
300.00128
300.00301
300.00454
300.00589
300.01412
300.00751
300.01395
300.02364
300.02003
300.01289
300.00847
300.00793
300.01332
300.01905
300.01206
300.01037
300.00704
300.00647
300.0127
300.0205
300.01224
300.0172
300.01477
300.01073
300.00591
300.00856
300.00171
300.00294
300.00419
300.00489
299.99654
299.99651
299.98923
299.98927
299.99316
299.99035
299.98457
299.98571
299.98169
299.98259
299.9848
299.98803
299.98578
299.98191
299.97893
299.977
299.97883
299.9827
299.98108
299.97986
299.97544
299.9778
299.98127
299.98423
299.98784
299.98565
299.98583
299.98789
299.99196
299.99693
299.99769
300.00246
300.00796
300.01051
300.00434
300.00576
300.00351
300.00922
300.01222
300.01729
300.0149
300.01224
300.0097
300.01382
300.01756
300.00894
300.00518
299.99807
299.99644
299.9978
300.00023
299.99134
299.99097
299.99124
299.99208
299.99242
299.993
299.99856
299.9994
299.99821
299.99995
300.00753
300.01241
300.0214
300.02511
300.01561
300.00964
300.00176
299.99374
299.99233
299.99347
300.00308
300.00592
299.99576
299.99782
299.99497
299.9937
299.99295
299.98677
299.98624
299.98806
299.98364
299.98382
299.98093
299.97696
299.98093
299.9787
299.97414
299.96891
299.97049
299.97242
299.97464
299.96992
299.97255
299.97671
299.9799
299.98413
299.98203
299.98165
299.9837
299.97881
299.97544
299.97047
299.97495
299.9736
299.97813
299.9837
299.98184
299.97469
299.97448
299.97785
299.98411
299.98259
299.98124
299.98001
299.9796
299.97995
299.98753
299.99553
299.99709
299.98728
299.98854
299.98836
299.99743
300.00652
300.01081
300.02162
300.02954
300.01682
300.01143
300.01752
300.02473
300.04029
300.05191
300.03794
300.02769
300.01606
300.01025
300.01474
300.02264
300.03564
300.04927
300.03397
300.0242
300.0349
300.0492
300.06917
300.09086
300.06287
300.04441
300.03085
300.02007
300.0252
300.0393
300.05382
300.07817
300.062
300.04713
300.07023
300.09713
300.1202
300.14519
300.09018
300.06064
300.04676
300.02953
300.01825
300.01135
300.00689
300.00422
300.01006
300.01344
300.01425
300.01065
300.00473
300.00758
300.00097
300.00037
299.99915
299.9934
299.99371
299.99958
299.99966
300.00484
300.0108
300.02098
300.03056
300.05029
300.05037
300.03696
300.03404
300.01953
300.02895
300.04701
300.07821
300.08532
300.12882
300.16367
300.14289
300.07095
300.06368
300.12103
300.14254
300.11014
300.06481
300.04078
300.02567
300.04116
300.02168
300.01322
300.01644
300.02796
300.02189
300.03309
300.05067
300.0911
300.07943
300.06206
300.08672
300.04979
300.03757
300.02143
300.0257
300.03044
300.03534
300.03966
300.0425
300.0439
300.04333
300.02949
300.02774
300.01907
300.02019
300.01238
300.01983
300.00979
300.00831
300.00327
300.00419
299.99575
299.99418
299.9876
299.98727
299.98862
299.98838
299.98361
299.981
299.98087
299.97644
299.98045
299.9779
299.97317
299.97249
299.97724
299.98014
299.97616
299.97189
299.97209
299.97264
299.96763
299.9688
299.96471
299.96716
299.96098
299.96451
299.96791
299.97322
299.96935
299.97784
299.9775
299.9674
299.97169
299.96527
299.9591
299.96256
299.95818
299.95354
299.94448
299.95077
299.95639
299.96508
299.9758
299.98757
299.99961
300.00334
299.98861
299.99087
299.98932
300.00333
299.99979
300.00374
300.00021
299.99002
299.99094
299.99474
299.99254
300.00383
300.00913
300.01691
300.0089
299.99269
299.99536
300.01592
300.00831
300.01549
300.009
300.02615
300.03748
300.05008
300.03578
300.05416
300.08042
300.09779
300.18016
300.1547
300.13089
300.209
300.12637
300.15057
300.26339
300.45743
300.24024
300.23701
300.32872
300.27716
300.59159
300.64982
300.41287
300.8511
300.39557
300.22275
300.22833
300.34583
300.43903
300.52843
300.27535
300.3176
300.57958
301.71388
301.59589
300.85311
301.6703
301.83574
303.13364
302.83748
302.75092
301.64353
300.55326
300.26031
300.16318
300.08947
300.05427
300.0335
300.02414
300.02155
300.0307
300.04876
300.03637
300.04145
300.07689
300.06565
300.07912
300.13937
300.11992
300.14825
300.10993
300.07477
300.05093
300.03576
300.02517
300.01828
300.01381
300.00773
300.00717
300.0132
300.01743
300.01064
300.01142
300.0173
300.01612
300.02398
300.03392
300.02425
300.02606
300.0159
300.00495
300.00006
299.9974
299.99618
299.99579
300.00183
300.00381
299.99678
299.99576
299.99524
300.00109
300.0063
300.01223
300.01069
300.00498
300.00744
300.00924
300.01599
300.01388
300.01897
300.0219
300.014
300.01134
300.01704
300.02103
300.03086
300.02637
300.02174
300.01573
300.01162
300.00911
300.01705
300.02598
300.03955
300.02089
300.01293
300.01996
300.02765
300.04002
300.03048
300.04497
300.06161
300.08351
300.10127
300.07829
300.04699
300.0323
300.05078
300.06797
300.04765
300.03311
300.02355
300.01676
300.01239
300.00977
300.00613
300.00518
300.00165
300.0018
299.99927
300.0006
300.00152
300.00233
300.00535
300.006
300.00894
300.011
300.01572
300.00851
300.00632
300.00509
300.00576
300.00713
300.00594
300.01047
300.01345
300.00857
300.00743
300.00957
300.01386
300.01034
300.01822
300.02667
300.01716
300.01207
300.026
300.04696
300.02388
300.01434
300.0212
300.03185
300.0206
300.03237
300.02269
300.01792
300.01011
300.00717
300.0131
300.01605
300.00905
300.01321
300.00567
300.00211
299.99933
300.00158
300.0032
300.00166
300.00209
299.99846
299.99915
300.0009
300.00211
300.00166
299.99741
299.9966
299.99282
299.99607
299.99488
299.99651
299.99773
299.99732
299.99461
299.99321
299.99089
299.98647
299.98526
299.9841
299.98329
299.98262
299.98222
299.98197
299.98184
299.98175
299.9817
299.98165
299.98165
299.97881
299.97924
299.97461
299.97792
299.97791
299.9742
299.97405
299.97863
299.9786
299.97405
299.97811
299.97802
299.97444
299.97411
299.97392
299.96937
299.969
299.96298
299.96324
299.96947
299.97002
299.97077
299.96312
299.96893
299.96901
299.97459
299.97098
299.96337
299.9573
299.95645
299.95577
299.95572
299.96426
299.96549
299.96001
299.95771
299.94604
299.94682
299.94871
299.96358
299.96716
299.98153
299.98273
299.98673
299.98433
300.00529
300.02409
300.02923
300.04611
300.0275
300.02727
300.0399
300.03703
300.0482
300.07007
300.05608
300.06088
300.04583
300.02866
300.01351
300.01026
300.00311
299.999
300.00771
300.01403
300.01096
300.00577
300.00257
300.00102
299.99998
299.99446
299.99457
299.9954
299.99731
300.00032
299.99725
300.00732
300.00341
300.00099
299.99941
299.99898
300.00369
300.00231
300.00738
300.0093
300.00359
300.00544
300.0084
300.00575
300.01257
300.01713
300.00894
300.01275
300.00367
299.9944
299.99357
299.99342
299.99381
299.99322
299.99792
299.99797
299.99249
299.99188
299.99292
299.99722
300.00127
300.00601
300.00471
300.00036
300.00076
300.00199
300.00736
300.00565
300.00754
300.00985
300.00345
300.00169
300.00322
300.0057
300.01337
300.01011
300.01388
300.0183
300.02357
300.03
300.0369
300.0435
300.03189
300.02568
300.03759
300.04757
300.06248
300.05157
300.07137
300.08875
300.10181
300.08817
300.09729
300.16322
300.17966
300.1604
300.14293
300.12041
300.06836
300.04036
300.02417
300.01917
300.00552
300.00052
300.01339
300.02228
300.03181
300.01413
300.02255
300.04508
300.05759
300.05838
300.04667
300.03059
300.01608
300.02849
300.05591
300.08544
300.0528
300.06851
300.07972
300.15046
300.11992
300.09301
300.05541
300.01915
300.00532
299.97803
299.97043
299.96595
299.95832
299.9349
299.94785
299.94942
299.95269
299.94356
299.94958
299.94126
299.94928
299.96042
299.97395
299.97322
299.97537
299.96244
299.95667
299.94274
299.95169
299.94745
299.95613
299.9631
299.97079
299.96621
299.97815
299.98006
299.96605
299.97062
299.96155
299.95493
299.95773
299.94907
299.945
299.95392
299.94414
299.96048
299.96072
299.97625
299.97417
299.95398
299.95335
299.97809
299.97908
299.99836
300.00354
300.02762
300.04594
300.02826
300.01613
300.00827
299.99593
300.00022
300.007
299.99979
300.01291
300.02402
300.04252
300.02005
300.00738
300.01821
300.04223
300.0724
300.10359
300.05717
300.03136
300.01696
300.00343
300.01397
300.01855
300.00578
299.99912
299.9881
299.98705
299.98546
299.98388
299.98487
299.97795
299.97483
299.97558
299.97832
299.9858
299.98669
299.97881
299.9812
299.98363
299.98366
299.98882
299.98883
299.98914
299.99283
299.99295
299.98975
299.98394
299.97996
299.97684
299.97207
299.97606
299.97602
299.97986
299.97656
299.97183
299.96641
299.96656
299.96696
299.96772
299.96115
299.96267
299.96013
299.96285
299.96585
299.96903
299.97235
299.97565
299.98273
299.9937
299.99817
300.00059
300.00142
299.99973
299.9999
299.99807
300
300.0035
300.0017
300.00043
300.0003
300.00228
300.0021
299.99794
299.996
299.99887
300.00207
299.99981
299.99766
299.99485
299.99265
299.9899
299.99408
299.99594
299.99223
299.99619
299.99797
300.00217
300.00287
300.00228
299.99857
299.9975
300.00158
300.00037
300.00319
300.00583
300.00524
300.00406
300.00577
300.0098
300.00635
300.00531
300.00803
300.00942
300.00578
300.0058
300.00541
300.00871
300.01
300.01323
300.01194
300.00984
300.00802
300.01137
300.01397
300.01275
300.01093
300.01172
300.00943
300.01377
300.01433
300.01058
300.00918
300.0054
300.00176
299.99996
300.00104
299.9985
300.00126
300.00068
300.00236
300.00258
300.00272
299.99947
299.99647
299.99821
299.99676
299.99476
299.99056
299.99308
299.99539
299.99307
299.99715
299.99947
300.00041
300.00346
300.00316
300.002
300.00276
299.99857
299.99629
299.99203
299.98909
299.98676
299.98771
299.98567
299.98474
299.98121
299.98346
299.98444
299.98213
299.98399
299.98715
299.98907
299.99135
299.98963
299.98672
299.9887
299.98609
299.98307
299.98679
299.98293
299.98011
299.98119
299.97826
299.97725
299.9728
299.97595
299.97716
299.97394
299.97651
299.98044
299.98363
299.98608
299.98292
299.97935
299.97581
299.98121
299.98649
299.99157
299.98876
299.98626
299.98711
299.98389
299.98302
299.98063
299.98412
299.98491
299.98142
299.98313
299.98543
299.98838
299.99056
299.98794
299.98571
299.98861
299.98627
299.98452
299.98964
299.99452
299.9975
299.99255
299.9872
299.98485
299.99092
299.99292
299.98726
299.99234
299.99422
299.98969
299.99111
299.99275
299.99576
299.99237
299.99986
299.99634
299.99739
299.9941
299.99577
299.9944
299.99251
299.98886
299.99064
299.98852
299.98538
299.98249
299.9807
299.97973
299.97674
299.97761
299.97336
299.97676
299.97885
299.9823
299.97935
299.98265
299.97963
299.97576
299.97158
299.97543
299.97298
299.97644
299.97195
299.97329
299.96917
299.96784
299.96216
299.96682
299.96835
299.96377
299.9675
299.97223
299.97669
299.98027
299.98482
299.98749
299.98998
299.99221
299.9936
299.99666
299.99557
299.9937
299.99499
299.99147
299.9893
299.99274
300.00024
300.0018
299.9994
300.00259
300.00216
299.99864
299.99753
299.99828
300.00194
300.00142
300.00082
300.00138
299.99718
299.99336
299.99183
299.9899
299.99148
299.9867
299.98428
299.98898
299.99854
299.99483
299.99594
300.00084
300.00034
299.99515
299.99633
299.99558
299.99683
299.99807
300.00141
300.00295
300.00263
300.00115
300.00371
300.00195
300.00431
300.00577
300.00584
300.00657
300.00847
300.00936
300.00621
300.00666
300.00632
300.00986
300.01071
300.00817
300.00657
300.01111
300.01028
300.00803
300.00517
300.00512
300.00824
300.00847
300.0083
300.00505
300.00506
300.00503
300.00494
300.0068
300.01271
300.01159
300.01092
300.01344
300.01253
300.01315
300.01071
300.01145
300.01407
300.01521
300.0144
300.01563
300.01251
300.00915
300.00862
300.00891
300.00958
300.00518
300.00495
300.00502
300.00698
300.00646
300.00608
300.01072
300.01244
300.01097
300.01026
300.0096
300.00728
300.00434
300.00172
300.00108
300.00025
300.00102
299.99747
299.99633
299.99512
299.99064
299.99252
299.99073
299.98601
299.98375
299.98638
299.98425
299.98706
299.98362
299.987
299.98521
299.98261
299.9812
299.98313
299.9824
299.97839
299.9791
299.97688
299.97629
299.98058
299.97916
299.97965
299.97483
299.97442
299.97276
299.97774
299.97803
299.97295
299.97466
299.97661
299.97868
299.98087
299.9769
299.97478
299.97399
299.97143
299.97208
299.96664
299.96997
299.97254
299.97645
299.98015
299.97772
299.98158
299.97961
299.98372
299.98103
299.97937
299.9821
299.97773
299.97302
299.97533
299.97169
299.97425
299.96935
299.97358
299.97071
299.9662
299.96341
299.96952
299.96908
299.967
299.96715
299.96033
299.96312
299.96926
299.96703
299.97291
299.97807
299.98529
299.99178
299.99618
300.00089
299.99532
299.99624
300.00111
299.99893
299.99798
300.00058
300.00006
299.9945
299.99084
299.989
299.98984
299.98308
299.98196
299.98394
299.98949
299.9907
299.98413
299.98531
299.98677
299.98811
299.99199
299.99325
299.99105
299.98962
299.98528
299.98216
299.98731
299.98895
299.98689
299.98875
299.99397
299.99518
300.0001
300.00056
299.99965
299.9992
299.99897
299.99976
299.99421
299.98912
299.98373
299.97941
299.97589
299.97117
299.96818
299.9667
299.97174
299.96747
299.96867
299.96339
299.96188
299.9556
299.96181
299.96352
299.95778
299.95576
299.94847
299.95108
299.95756
299.96207
299.96714
299.9714
299.97619
299.9799
299.97284
299.96878
299.97261
299.96836
299.97216
299.97586
299.98106
299.9869
299.98516
299.98732
299.98109
299.97833
299.97569
299.9787
299.98143
299.9877
299.98973
299.98797
299.98204
299.97914
299.98605
299.99304
299.99404
300
300.00036
299.99995
299.99368
299.99258
299.9933
299.99958
299.99903
299.99215
299.99296
299.99175
299.99273
299.99393
299.99526
299.9966
300.00047
299.99958
299.99897
299.9999
299.99565
299.99424
299.99281
299.99834
299.99895
299.99856
299.99804
299.99158
299.98508
299.97894
299.98134
299.97838
299.97252
299.96776
299.96454
299.96336
299.95677
299.95838
299.95317
299.9604
299.95931
299.95151
299.94212
299.9491
299.9514
299.94356
299.94014
299.94205
299.93337
299.92409
299.9381
299.93194
299.91456
299.93131
299.93648
299.92269
299.93204
299.95014
299.95558
299.97268
299.99094
299.99526
300.01717
300.02555
299.99851
299.9937
299.99932
300.02562
300.04969
300.07005
300.09359
300.07262
300.09605
300.07095
300.05387
300.07785
300.10297
300.13465
300.17041
300.12255
300.09425
300.06819
300.09635
300.07053
300.09457
300.12826
300.16642
300.13003
300.17514
300.134
300.08794
300.06741
300.04981
300.02982
300.00339
300.01806
300.0259
300.00772
300.04118
300.05704
300.03837
300.00497
300.01908
300.01054
300.04233
300.0606
300.08385
300.02968
300.01466
300.03384
300.04537
300.11596
300.18495
300.1521
300.11728
300.08322
300.11616
300.17334
300.25766
300.15935
300.19156
300.29618
300.40384
300.40054
300.25065
300.31904
300.4717
300.42147
300.60551
300.58521
300.39739
300.24452
300.20921
300.35754
300.44161
300.26185
300.31573
300.22529
300.30999
300.2355
300.1801
300.12937
300.10489
300.1472
300.23443
300.15646
300.18146
300.2744
300.37504
300.33388
300.19963
300.25526
300.41557
300.49365
300.77706
300.56106
300.38271
300.23945
300.22886
300.12672
300.07633
300.08467
300.05108
300.03208
300.01947
300.03588
300.06648
300.0451
300.03483
300.07518
300.09821
300.12468
300.14453
300.16414
300.09819
300.06525
300.06599
300.05169
300.03256
300.02019
300.01265
300.00777
300.01447
300.01412
300.01055
300.0046
300.00745
300.00081
300.00112
299.99428
299.99375
299.99356
299.99944
299.999
299.99607
299.99703
299.99727
300.00273
300.00211
300.00061
299.99653
299.99605
299.98955
299.98371
299.98385
299.98971
299.99278
299.98896
299.98895
299.99288
299.99677
299.99538
299.99496
299.99668
300.0014
300.00099
300.00052
300.00066
299.99748
299.99403
299.99332
299.9912
299.99018
299.98452
299.9859
299.98944
299.99057
299.99509
299.99687
299.99752
299.9995
300.00098
300.00435
300.00502
300.00533
300.01067
300.0161
300.00938
300.01255
300.00684
300.00563
300.00586
300.00815
300.01068
300.01451
300.01791
300.02924
300.02664
300.01617
300.01017
300.00783
300.00926
300.02107
300.01231
300.01863
300.0266
300.03908
300.05471
300.05854
300.04221
300.02869
300.04123
300.02905
300.02207
300.03119
300.01902
300.01241
300.00539
300.00859
300.00454
300.00111
300.00029
299.99904
299.99551
299.99528
299.99409
299.99237
299.9879
299.99033
299.99235
299.99581
300.00078
300.00082
300.00357
300.00446
300.00556
300.00665
300.00791
300.00901
300.00999
300.00409
300.00667
300.01333
300.01202
300.00556
300.00325
299.99827
299.99269
299.99322
299.99345
299.99401
299.99549
299.99592
300.00441
300.01009
299.99937
299.99859
300.00925
300.00393
300.01216
300.02002
300.02051
300.0299
300.02906
300.01936
300.01753
300.01099
300.01886
300.02731
300.02449
300.01705
300.00936
300.01505
300.00533
300.00754
300.00287
300.00012
299.99916
299.9927
299.99345
299.99459
299.99708
299.99528
299.98521
299.98647
299.98765
299.98828
299.98739
299.98727
299.97913
299.98133
299.98134
299.98362
299.98352
299.98867
299.98745
299.98766
299.9812
299.97589
299.97597
299.97978
299.97642
299.97171
299.97166
299.97639
299.97972
299.9797
299.9834
299.98843
299.98703
299.98097
299.98075
299.9833
299.98808