/*--------------------------------*- C++ -*----------------------------------*\
  =========                 |
  \\      /  F ield         | OpenFOAM: The Open Source CFD Toolbox
   \\    /   O peration     | Website:  https://openfoam.org
    \\  /    A nd           | Version:  7
     \\/     M anipulation  |
\*---------------------------------------------------------------------------*/
FoamFile
{
    version     2.0;
    format      ascii;
    class       volVectorField;
    location    "450";
    object      U;
}
// * * * * * * * * * * * * * * * * * * * * * * * * * * * * * * * * * * * * * //

dimensions      [0 1 -1 0 0 0 0];

internalField   nonuniform List<vector> 
25278
(
(120.02774 0.007156658 0.0069251216)
(120.01587 -0.0042568903 -0.020177557)
(120.0154 -0.0035502692 -0.0078927288)
(120.01603 -0.0073797962 -0.0061098295)
(119.9864 -0.021483333 -0.010194657)
(120.01785 -0.022240168 -0.0082821329)
(120.03364 0.0045185641 0.0004123873)
(120.02838 0.0073732054 0.0057543475)
(120.03147 0.0020942403 0.0053764315)
(120.0374 0.00086557945 -0.0036338715)
(120.03471 -0.00065538065 -0.0022562753)
(120.02979 0.002836339 0.001023122)
(120.0219 -0.0081534022 -0.010602365)
(120.00708 -0.014404617 -0.017293645)
(119.88227 -0.034960394 -0.062537684)
(120.01594 0.0027172581 -0.0099826786)
(120.01595 0.0017169247 -0.021187168)
(119.91402 -0.050112637 -0.085963588)
(119.85564 -0.020204192 -0.12688841)
(119.94508 -0.028790951 -0.11520622)
(119.99215 -0.011603409 -0.063679882)
(119.99788 -0.021520682 -0.047733672)
(120.00394 -0.022321025 -0.032563209)
(120.02638 -0.0154054 -0.022372828)
(120.0366 -0.031477347 -0.036746262)
(120.02736 -0.020627981 -0.019831301)
(120.00462 -0.030503512 -0.027477443)
(119.99628 -0.04697282 -0.0530144)
(119.97225 -0.042332497 -0.073818883)
(120.00133 -0.043940895 -0.075596782)
(119.99969 -0.043763294 -0.095621349)
(119.96019 -0.042265562 -0.098902583)
(119.93728 -0.082530759 -0.14858365)
(119.95652 -0.076505541 -0.10487491)
(120.0013 -0.073234187 -0.10798726)
(119.98677 -0.066962069 -0.12500533)
(120.00933 -0.06536656 -0.12333748)
(120.00707 -0.064273682 -0.14496868)
(119.97831 -0.064722621 -0.1487462)
(119.96401 -0.093748894 -0.18339517)
(119.97469 -0.094429548 -0.14936608)
(120.00734 -0.090782864 -0.14876898)
(120.00334 -0.090359283 -0.17733993)
(120.04445 -0.083500376 -0.16055137)
(120.03637 -0.058023019 -0.13072936)
(120.03733 -0.035117952 -0.078239805)
(120.02947 -0.013395058 -0.034002887)
(120.03372 -0.010157239 -0.047091938)
(120.03958 -0.027713766 -0.097092311)
(119.99139 -0.032812145 -0.11702037)
(119.9844 -0.013363649 -0.13254422)
(119.93261 -0.010817284 -0.12608066)
(119.86797 -0.02026845 -0.21293039)
(119.90326 -0.060806743 -0.19690798)
(119.968 -0.057315688 -0.16627216)
(120.00006 -0.058151465 -0.16590857)
(119.99288 -0.046764938 -0.18945988)
(119.95535 -0.043339147 -0.18920265)
(119.92568 -0.06836907 -0.24538042)
(119.94626 -0.086336453 -0.21204644)
(119.98962 -0.085925003 -0.2123474)
(119.97725 -0.071302253 -0.24507993)
(119.95791 -0.048184565 -0.27115653)
(119.98398 -0.030905697 -0.20464905)
(119.94426 -0.027965392 -0.19807211)
(119.93734 -0.0095745774 -0.20815807)
(119.97939 -0.010860755 -0.21544656)
(119.94975 -0.017019175 -0.28574708)
(119.89074 -0.016431341 -0.2735615)
(119.90279 -0.044215551 -0.25937298)
(119.82114 -0.063477507 -0.32889409)
(119.86541 -0.0962317 -0.31042195)
(119.90249 -0.11963329 -0.26016379)
(119.93166 -0.12922398 -0.22057248)
(119.95367 -0.12179927 -0.17202847)
(119.98786 -0.12203069 -0.13326397)
(120.00191 -0.1015814 -0.08483313)
(120.00231 -0.072578694 -0.054353386)
(119.99928 -0.048300358 -0.029711219)
(119.96683 -0.044965213 -0.030367428)
(119.94667 -0.033132095 -0.024470469)
(119.88433 -0.059825685 -0.044528382)
(119.91568 -0.082683191 -0.060607097)
(119.86163 -0.13398101 -0.036572192)
(119.95398 -0.060908162 -0.020855523)
(119.92966 -0.042657741 -0.016182787)
(119.82564 -0.096172198 -0.024897945)
(119.61535 -0.13057212 -0.066389398)
(119.72259 -0.08535736 -0.084858855)
(119.81561 -0.063434291 -0.070661087)
(119.82977 -0.081644073 -0.089434397)
(119.73334 -0.094925712 -0.1078015)
(119.71831 -0.07354338 -0.089329133)
(119.54785 -0.12267247 -0.13152766)
(119.57125 -0.1398796 -0.1509693)
(119.73788 -0.10245862 -0.10703236)
(119.76554 -0.123015 -0.12116103)
(119.85047 -0.090160236 -0.098628282)
(119.87688 -0.11186421 -0.12123017)
(119.7931 -0.13698308 -0.16690865)
(119.76132 -0.10832076 -0.12939721)
(119.59415 -0.17514706 -0.18752446)
(119.63343 -0.21974354 -0.23137829)
(119.79719 -0.15925681 -0.14995064)
(119.70601 -0.24412987 -0.12146765)
(119.669 -0.18675357 -0.094766208)
(119.63536 -0.15438332 -0.083558821)
(119.28475 -0.28375033 -0.12269184)
(119.24995 -0.2410358 -0.11109553)
(118.9083 -0.25438248 -0.055464258)
(119.51019 -0.11789505 -0.027002955)
(119.52713 -0.12958674 -0.034800316)
(118.93287 -0.28801604 -0.066343678)
(118.93501 -0.36951092 -0.09365343)
(119.31792 -0.35758686 -0.14406431)
(119.37993 -0.43859221 -0.19549221)
(118.94879 -0.48522469 -0.15023666)
(119.59187 -0.23063443 -0.059628704)
(119.56227 -0.15445177 -0.041617681)
(119.55159 -0.18006791 0.0074030866)
(119.85914 -0.15699437 0.013853672)
(119.9549 -0.069701365 0.0027278593)
(119.98753 -0.026651131 0.0017209069)
(119.6905 -0.11415193 0.11999104)
(119.50656 -0.18044381 0.16361631)
(119.20405 -0.31563292 0.12697748)
(118.88386 -0.29752026 0.02197056)
(119.49986 -0.13717936 0.0010510095)
(119.82057 -0.11689021 0.0055430239)
(119.92904 -0.051536043 -0.00049484041)
(119.94638 -0.048445447 0.019590407)
(119.96863 -0.060086764 0.025203781)
(119.91376 -0.11294615 0.064148313)
(119.87857 -0.088905767 0.049110024)
(119.70027 -0.12939001 0.099962004)
(119.59409 -0.1765529 0.066132144)
(119.61413 -0.20553852 0.084333437)
(119.51662 -0.15197238 0.0036528715)
(118.90572 -0.34101883 0.02825967)
(119.23758 -0.36542878 0.14182735)
(119.26952 -0.44638498 0.17222333)
(118.90387 -0.43212636 0.049023214)
(118.91362 -0.56216784 0.098191582)
(119.58115 -0.26393211 0.019568739)
(119.68557 -0.30472226 0.12479272)
(119.64897 -0.24080691 0.096107956)
(119.74676 -0.17340639 0.13814224)
(119.7162 -0.15044828 0.12353477)
(119.52916 -0.20330317 0.1843369)
(119.70597 -0.13856004 0.14084714)
(119.87378 -0.057909328 0.083971722)
(119.80015 -0.099250751 0.090326879)
(119.81594 -0.11963358 0.1111411)
(119.83912 -0.12812699 0.12044932)
(119.9107 -0.072696423 0.10774484)
(119.86787 -0.15181081 0.14469641)
(119.78048 -0.2146387 0.16939427)
(119.59181 -0.29192608 0.27247004)
(119.32786 -0.53685395 0.23271966)
(118.4749 -0.61470305 0.58449146)
(116.22541 -0.5104106 0.669752)
(116.31406 -0.42956942 -0.79765077)
(118.60539 -0.47138973 -0.49568335)
(119.35477 -0.18908879 -0.44890127)
(119.69076 -0.10729328 -0.24729475)
(119.65489 -0.07988236 -0.1872306)
(119.53697 -0.013428126 -0.14002399)
(119.56244 -0.029134664 -0.21833726)
(118.86189 -0.1033527 -0.46752933)
(118.85928 -0.049923431 -0.34257291)
(119.29558 -0.13653382 -0.36158629)
(118.44324 -0.38486275 -0.40472363)
(116.18208 -0.45670783 -0.2362975)
(116.03734 -0.65891489 -0.41138557)
(103.49195 -1.6006701 -1.4821253)
(105.19713 -1.1727675 -1.0673089)
(116.40036 -0.27845828 -0.58827994)
(116.32005 -0.35917343 0.47433865)
(105.47464 -1.4581761 1.2419361)
(103.75796 -1.9777067 1.6533776)
(115.73099 -0.91182753 0.39460045)
(115.92664 -0.70036245 0.26312277)
(118.32642 -0.51622794 0.47699358)
(119.21746 -0.18547953 0.42709349)
(119.55171 -0.24401493 0.22383255)
(119.73639 -0.15203876 0.16419462)
(119.7695 -0.1824697 0.20525874)
(119.6502 -0.14024052 0.30103317)
(119.2745 -0.23981074 0.51583488)
(118.72516 -0.16416991 0.54309752)
(118.74364 -0.10582913 0.42217194)
(119.48434 -0.042409318 0.18145733)
(119.84315 -0.034486793 0.16041219)
(119.61482 -0.11333954 0.23648323)
(119.50606 -0.058307582 0.26382604)
(119.60957 -0.07489453 0.36012062)
(118.79673 -0.25394106 0.70514764)
(115.55164 -1.1523405 0.82566652)
(101.5653 -2.7515686 2.225111)
(101.30253 -2.2047444 -2.10572)
(115.94094 -0.9265265 -0.80350051)
(118.9465 -0.18631048 -0.63199604)
(119.66374 -0.046971633 -0.3049761)
(119.77995 -0.12461845 -0.29114446)
(119.8653 -0.14687076 -0.19413834)
(119.9263 -0.11548167 -0.12574646)
(119.95718 -0.098348268 -0.087162615)
(119.97318 -0.070594085 -0.052302749)
(119.96165 -0.098484476 -0.055103785)
(120.00121 -0.095468051 -0.05726714)
(119.98813 -0.12111493 -0.081274184)
(119.93939 -0.1444097 -0.097062722)
(119.97594 -0.14321592 -0.10921151)
(120.00824 -0.14273514 -0.10651525)
(120.01059 -0.1197547 -0.080319585)
(120.00868 -0.14338331 -0.081095903)
(119.98015 -0.14677348 -0.080868662)
(119.9662 -0.17869959 -0.11074179)
(120.00478 -0.17286167 -0.1083941)
(120.04549 -0.15666544 -0.10280518)
(120.04276 -0.12972273 -0.098041554)
(120.04744 -0.082130132 -0.069989494)
(120.03082 -0.058751334 -0.043994316)
(120.03177 -0.03466008 -0.020424607)
(120.04782 -0.035502697 -0.027457982)
(120.07572 -0.047190573 -0.044127536)
(120.07554 -0.069595402 -0.051177472)
(120.06437 -0.050227956 -0.032255699)
(120.03958 -0.078699071 -0.048323111)
(120.03495 -0.1081223 -0.072955438)
(120.05917 -0.09035817 -0.0631745)
(120.07728 -0.10932796 -0.085341638)
(120.08672 -0.13304519 -0.091105475)
(120.06708 -0.11006939 -0.067077819)
(120.03797 -0.12982845 -0.075243303)
(120.03676 -0.15311627 -0.073066363)
(120.04283 -0.10304241 -0.043139688)
(120.03849 -0.053682846 -0.018368251)
(119.99484 -0.070590794 -0.021599844)
(119.94764 -0.1191683 -0.043385265)
(119.99413 -0.12218618 -0.048405655)
(119.97093 -0.16723824 -0.074965635)
(119.908 -0.19834968 -0.078356281)
(119.95009 -0.21041667 -0.10525754)
(119.99231 -0.21121474 -0.10631526)
(120.00253 -0.16750914 -0.076719779)
(119.99622 -0.1956637 -0.066988691)
(119.95934 -0.19467299 -0.06272182)
(119.93163 -0.24780974 -0.089874806)
(119.98136 -0.2480944 -0.094151199)
(119.96387 -0.28197087 -0.072748835)
(119.98862 -0.21665517 -0.051816882)
(119.98864 -0.14641688 -0.029472901)
(119.93609 -0.13884596 -0.02652841)
(119.8757 -0.22708091 -0.042578067)
(119.94952 -0.20900234 -0.048178286)
(119.91065 -0.2693623 -0.067449971)
(119.89952 -0.29418207 -0.040372229)
(119.94322 -0.22780948 -0.029096403)
(119.98498 -0.23611646 -0.030969468)
(119.95671 -0.3068505 -0.042168494)
(120.02096 -0.29878977 -0.04333071)
(120.02644 -0.27202352 -0.075256198)
(120.03573 -0.23471095 -0.094770517)
(120.04217 -0.19617846 -0.10420077)
(120.09272 -0.16883401 -0.094209915)
(120.0709 -0.13121636 -0.065677133)
(120.07481 -0.15803191 -0.060716055)
(120.03475 -0.18099448 -0.064921195)
(120.03146 -0.20302347 -0.051356125)
(120.04596 -0.12741341 -0.027905647)
(120.0871 -0.084764311 -0.022385709)
(120.07569 -0.065984363 -0.029097389)
(120.09624 -0.099662615 -0.053730411)
(120.08824 -0.08322983 -0.054373074)
(120.09977 -0.048368735 -0.038025112)
(120.08404 -0.03966315 -0.033756298)
(120.11381 -0.04501177 -0.043575199)
(120.10153 -0.081479263 -0.067179791)
(120.11816 -0.097440263 -0.071143861)
(120.13525 -0.056331714 -0.048298105)
(120.15664 -0.072912015 -0.052476479)
(120.11096 -0.058434347 -0.037610228)
(120.12465 -0.073224664 -0.038737069)
(120.10559 -0.12160166 -0.051804383)
(120.1449 -0.15601068 -0.07518772)
(120.13314 -0.1251321 -0.076434145)
(120.14348 -0.15568724 -0.10339309)
(120.13661 -0.13700429 -0.10022606)
(120.12527 -0.1207971 -0.095942174)
(120.12482 -0.09317015 -0.084382386)
(120.11104 -0.052013245 -0.064007449)
(120.07446 -0.032906312 -0.052752961)
(120.04602 -0.01833792 -0.037878561)
(120.02956 -0.034144289 -0.061465191)
(120.04675 -0.058427951 -0.08818925)
(120.03369 -0.057908783 -0.11134098)
(120.05751 -0.047791369 -0.093023495)
(120.06508 -0.049310252 -0.11009265)
(120.08563 -0.070598705 -0.13598608)
(120.07637 -0.068249406 -0.11453756)
(120.04203 -0.081779113 -0.13547817)
(120.04476 -0.11113058 -0.16340266)
(120.06252 -0.10177169 -0.11373067)
(120.09095 -0.092685563 -0.13683395)
(120.08257 -0.099789326 -0.16607489)
(120.05935 -0.10832555 -0.18025658)
(120.03432 -0.11349912 -0.18971624)
(119.98579 -0.13265243 -0.22236323)
(119.99714 -0.1228632 -0.17464736)
(119.98309 -0.17348144 -0.21619221)
(119.92321 -0.17398695 -0.20774911)
(119.89023 -0.1869543 -0.27281847)
(119.96385 -0.18885131 -0.27667956)
(119.90967 -0.27213339 -0.33760025)
(119.9531 -0.23105809 -0.24622491)
(119.9839 -0.20396975 -0.18916119)
(119.99809 -0.16577505 -0.13872617)
(119.9551 -0.16343636 -0.13658256)
(119.86848 -0.18557804 -0.16118174)
(119.92448 -0.19627266 -0.18805489)
(119.89438 -0.26192394 -0.20324443)
(119.93483 -0.21307823 -0.14652532)
(119.98782 -0.21458505 -0.15118831)
(119.96639 -0.2651252 -0.20710582)
(119.91244 -0.32250567 -0.28998644)
(119.82409 -0.30826958 -0.26482719)
(119.88263 -0.21899232 -0.23262567)
(119.72109 -0.26713075 -0.27960889)
(119.81994 -0.24875209 -0.32153039)
(119.72816 -0.36104479 -0.37643422)
(119.84847 -0.38353339 -0.4014987)
(119.97677 -0.3301265 -0.34991266)
(119.99328 -0.28396212 -0.32750441)
(120.00974 -0.2333403 -0.28969671)
(120.02129 -0.19716321 -0.26475738)
(120.02958 -0.16007394 -0.23669101)
(120.03266 -0.13623069 -0.21502911)
(120.06381 -0.12936257 -0.20432098)
(120.0641 -0.1321477 -0.23004596)
(120.06045 -0.10932924 -0.20198713)
(120.03012 -0.11432941 -0.21274726)
(120.02892 -0.13963985 -0.24375895)
(120.02251 -0.17012134 -0.27151158)
(120.06319 -0.16461262 -0.2591765)
(120.06523 -0.15454698 -0.22564409)
(120.04715 -0.1603179 -0.20385234)
(120.11405 -0.13609311 -0.17506157)
(120.09884 -0.14290347 -0.2091377)
(120.09203 -0.11944922 -0.18768009)
(120.12016 -0.1051224 -0.1668581)
(120.10575 -0.087156882 -0.14669499)
(120.1138 -0.089162012 -0.16516582)
(120.087 -0.10059558 -0.18630464)
(120.09564 -0.12161056 -0.21126758)
(120.12755 -0.10858355 -0.18858762)
(120.14099 -0.13588492 -0.21402844)
(120.13262 -0.12602061 -0.18546094)
(120.14833 -0.15498492 -0.21030615)
(120.10688 -0.17523062 -0.23606409)
(120.06583 -0.18868309 -0.25442296)
(120.06242 -0.19881453 -0.29299294)
(120.01272 -0.2081838 -0.30773458)
(119.99463 -0.25229665 -0.34043322)
(120.05305 -0.24632296 -0.32901856)
(120.06048 -0.22728037 -0.28042302)
(120.03954 -0.22288096 -0.23998134)
(120.04747 -0.19086232 -0.1775443)
(120.04524 -0.15442795 -0.12791667)
(120.09137 -0.12816986 -0.11078008)
(120.1141 -0.16131533 -0.15548872)
(120.0991 -0.19801317 -0.16536472)
(120.09243 -0.17893327 -0.14115235)
(120.08326 -0.15965475 -0.12065789)
(120.06024 -0.17349331 -0.12844764)
(120.03549 -0.1826469 -0.13257881)
(120.03377 -0.2058992 -0.15556911)
(120.06452 -0.19533805 -0.15000756)
(120.06505 -0.22197889 -0.15446204)
(120.06147 -0.19633278 -0.13101532)
(120.03162 -0.20667178 -0.13490054)
(120.03057 -0.23538624 -0.16057324)
(120.02442 -0.2611663 -0.19131693)
(120.03078 -0.22566753 -0.17959082)
(120.06597 -0.21455825 -0.17563456)
(120.06653 -0.240684 -0.21014528)
(120.02254 -0.25141961 -0.2167438)
(120.01499 -0.29486155 -0.22942795)
(120.06362 -0.27997577 -0.22214867)
(120.06424 -0.24887694 -0.18751276)
(120.10295 -0.23023956 -0.17688007)
(120.09609 -0.20371249 -0.1454027)
(120.08771 -0.18122573 -0.12329671)
(120.11438 -0.16081702 -0.11305331)
(120.10645 -0.14080266 -0.10905258)
(120.1204 -0.15848767 -0.12816044)
(120.12768 -0.18162604 -0.13387005)
(120.14076 -0.20448971 -0.1627264)
(120.13263 -0.17453596 -0.15015356)
(120.14808 -0.19601269 -0.18025879)
(120.10701 -0.22199767 -0.19836913)
(120.10873 -0.25906478 -0.21035423)
(120.15526 -0.23037075 -0.1937349)
(120.19717 -0.19341469 -0.16916169)
(120.18317 -0.16531614 -0.15625276)
(120.16483 -0.11353743 -0.1154063)
(120.19215 -0.052732262 -0.067985817)
(120.14253 -0.046212426 -0.052750169)
(120.15173 -0.070040038 -0.065597779)
(120.14181 -0.094149001 -0.079629094)
(120.16424 -0.10503283 -0.093700931)
(120.14395 -0.13419118 -0.11194042)
(120.15531 -0.15246346 -0.11751213)
(120.17863 -0.12152123 -0.10071515)
(120.15579 -0.10852997 -0.085218146)
(120.16827 -0.079840456 -0.069229129)
(120.17484 -0.046771476 -0.04984989)
(120.15663 -0.039897644 -0.045097283)
(120.18323 -0.041921524 -0.052060731)
(120.17694 -0.07486142 -0.075205574)
(120.19435 -0.084460944 -0.078892731)
(120.20283 -0.048996836 -0.057508417)
(120.23426 -0.048887779 -0.065360354)
(120.20878 -0.04097113 -0.057330213)
(120.20106 -0.079701966 -0.085486606)
(120.18559 -0.1136957 -0.10829026)
(120.16075 -0.14788987 -0.13029427)
(120.17511 -0.17220494 -0.14224274)
(120.20368 -0.13459651 -0.12078124)
(120.2327 -0.14987448 -0.14292394)
(120.21382 -0.12637635 -0.12892516)
(120.23379 -0.087862369 -0.10000302)
(120.24352 -0.04163436 -0.064797507)
(120.271 -0.049120412 -0.074344167)
(120.25767 -0.1008708 -0.10836346)
(120.22365 -0.092677927 -0.093115282)
(120.2438 -0.11042817 -0.1023773)
(120.21064 -0.099938399 -0.085856929)
(120.18011 -0.091401954 -0.072361456)
(120.16546 -0.12407121 -0.088261448)
(120.19137 -0.14277236 -0.1069897)
(120.16441 -0.1780823 -0.12482172)
(120.13237 -0.21101034 -0.13968848)
(120.11858 -0.1822366 -0.11523486)
(120.08848 -0.20438146 -0.124816)
(120.05896 -0.22071637 -0.13119711)
(120.02665 -0.22945687 -0.13417939)
(119.96432 -0.26809402 -0.14847882)
(119.90882 -0.25495252 -0.13892007)
(119.79313 -0.28645015 -0.14191969)
(119.85123 -0.31780969 -0.20374816)
(119.92401 -0.34259332 -0.21536528)
(119.88105 -0.42822143 -0.20166729)
(119.94056 -0.32543791 -0.1343125)
(119.87608 -0.308791 -0.11869365)
(119.79272 -0.39791446 -0.18045689)
(119.6451 -0.50799257 -0.24564844)
(119.74872 -0.38620451 -0.27376091)
(119.50336 -0.50011583 -0.27780468)
(119.60353 -0.45196149 -0.41771266)
(119.72575 -0.52722903 -0.46140519)
(119.83425 -0.43144027 -0.31390505)
(119.74952 -0.56245606 -0.312044)
(119.58706 -0.71260349 -0.49645375)
(119.41868 -0.62326079 -0.41707973)
(119.09396 -0.6819183 -0.44230866)
(119.49228 -0.56374763 -0.21016957)
(119.72047 -0.4318513 -0.14092348)
(119.83581 -0.33540215 -0.088375607)
(119.68897 -0.31550797 -0.077814391)
(119.81447 -0.37265399 -0.052722024)
(119.88913 -0.41540626 -0.0581996)
(119.90548 -0.37524119 -0.10279067)
(119.81443 -0.50482268 -0.16061268)
(119.78134 -0.56963344 -0.087307503)
(119.67678 -0.49507795 -0.082345734)
(119.38689 -0.68982946 -0.13271604)
(119.04332 -0.63763883 -0.23802641)
(118.72876 -0.94127104 -0.36214629)
(118.96765 -1.1851732 -0.35662802)
(119.27537 -0.93380442 -0.51307488)
(119.60113 -0.69085132 -0.27020433)
(119.51236 -0.81400979 -0.15430052)
(119.74678 -0.75604032 -0.16750781)
(119.78327 -0.70349385 -0.22665571)
(119.82689 -0.63022533 -0.26124425)
(119.87796 -0.5693787 -0.28416551)
(119.91676 -0.49586211 -0.29240254)
(119.9489 -0.43658379 -0.29398395)
(119.97442 -0.37376562 -0.28194626)
(119.99733 -0.32536886 -0.27377795)
(120.01105 -0.27439063 -0.25296302)
(120.06127 -0.26426235 -0.2489704)
(120.05619 -0.29985959 -0.29609972)
(119.99431 -0.30981991 -0.30370001)
(119.97836 -0.36770922 -0.32778298)
(120.04791 -0.35220822 -0.31958823)
(120.0546 -0.31321114 -0.27012579)
(120.11171 -0.29190312 -0.25589095)
(120.11007 -0.24514715 -0.23401666)
(120.13088 -0.18848334 -0.20791798)
(120.1099 -0.21043789 -0.26210963)
(120.15956 -0.18666214 -0.23393238)
(120.16866 -0.20594894 -0.27651584)
(120.15571 -0.16548303 -0.24328874)
(120.10842 -0.18463975 -0.27212207)
(120.10266 -0.15202691 -0.24026481)
(120.10154 -0.15651385 -0.27531291)
(120.09597 -0.12511605 -0.24087375)
(120.08751 -0.10049209 -0.20742723)
(120.09138 -0.070498436 -0.16703959)
(120.06841 -0.045904377 -0.12746641)
(120.03457 -0.053920479 -0.15059727)
(120.03174 -0.044132899 -0.17360384)
(120.07153 -0.039323835 -0.14874325)
(120.0935 -0.062305026 -0.19844278)
(120.03297 -0.070096198 -0.22993299)
(120.04044 -0.082146476 -0.19611427)
(120.02435 -0.11232333 -0.23400737)
(119.9597 -0.12742779 -0.27360273)
(119.93282 -0.11051269 -0.32718695)
(119.86674 -0.17846941 -0.43674741)
(119.9168 -0.19489213 -0.35325779)
(119.84152 -0.1860085 -0.32740987)
(119.77349 -0.15900265 -0.40573225)
(119.69087 -0.11598973 -0.43017172)
(119.7889 -0.13373889 -0.50633641)
(119.89325 -0.076180614 -0.36902485)
(119.87549 -0.028678955 -0.39516309)
(119.7983 -0.025176015 -0.35270582)
(119.64149 -0.048928964 -0.47756072)
(119.75119 -0.051825737 -0.55397289)
(119.43518 -0.10709403 -0.80757952)
(119.54244 -0.24449627 -0.70438342)
(119.72211 -0.2896147 -0.5791838)
(119.82271 -0.29395615 -0.44750692)
(119.73531 -0.25661069 -0.39991884)
(119.47653 -0.26421267 -0.51394795)
(119.61306 -0.22306387 -0.52276301)
(119.37173 -0.3925866 -0.64374369)
(119.59069 -0.40188148 -0.46990009)
(119.71397 -0.43962149 -0.5480887)
(119.54756 -0.46885785 -0.73430213)
(119.16392 -0.48193141 -0.95789946)
(118.98363 -0.41829877 -0.69060982)
(119.43558 -0.18576236 -0.57051771)
(119.31146 -0.088983505 -0.67847851)
(118.52425 -0.27535304 -0.94104033)
(118.76751 -0.26804657 -1.1904984)
(119.24405 -0.30428278 -1.1430456)
(119.51841 -0.20303281 -0.9384981)
(119.69102 -0.13097603 -0.75512837)
(119.81259 -0.094345928 -0.63161493)
(119.88573 -0.065643315 -0.51891033)
(119.93674 -0.049786045 -0.44200766)
(119.96563 -0.036715011 -0.36311567)
(120.01548 -0.017060239 -0.27518786)
(120.02464 -0.010486602 -0.2010746)
(120.04061 -0.012554957 -0.1133049)
(120.07828 -0.0090492855 -0.070204558)
(120.07032 -0.014828322 -0.05940716)
(120.06076 -0.019753294 -0.04916918)
(120.07341 -0.036041957 -0.071870291)
(120.08113 -0.019097847 -0.041497407)
(120.09569 -0.020737471 -0.046976327)
(120.08546 -0.036696976 -0.082465703)
(120.11639 -0.049810211 -0.09926732)
(120.10012 -0.049904428 -0.086173012)
(120.11148 -0.026416518 -0.049131364)
(120.1319 -0.026916319 -0.057225618)
(120.15221 -0.027155414 -0.067515054)
(120.10577 -0.018298251 -0.052782466)
(120.09284 -0.033958724 -0.094843727)
(120.10108 -0.030520525 -0.11087222)
(120.11762 -0.017994255 -0.061220437)
(120.16997 -0.026593669 -0.080657028)
(120.14216 -0.047221992 -0.14553334)
(120.13102 -0.051424181 -0.12133596)
(120.14268 -0.076546643 -0.15659576)
(120.13585 -0.075462244 -0.14059717)
(120.12439 -0.073518416 -0.12627709)
(120.1241 -0.065631581 -0.10152616)
(120.14085 -0.033663323 -0.053958323)
(120.14975 -0.042226518 -0.074487806)
(120.14042 -0.056419355 -0.099020337)
(120.15447 -0.059442114 -0.11125539)
(120.17805 -0.0726034 -0.12684667)
(120.16351 -0.068619773 -0.1124677)
(120.14364 -0.088001865 -0.14217007)
(120.15518 -0.090751956 -0.15859754)
(120.17559 -0.11333399 -0.18106602)
(120.16083 -0.10489548 -0.15863113)
(120.16474 -0.094567915 -0.12756832)
(120.19136 -0.045980424 -0.066727582)
(120.20028 -0.057703467 -0.089642078)
(120.1756 -0.049624484 -0.081821207)
(120.18096 -0.026172303 -0.048329608)
(120.15373 -0.021656786 -0.043796429)
(120.17142 -0.023494962 -0.048061484)
(120.16609 -0.043064393 -0.081824991)
(120.19295 -0.049813101 -0.088865406)
(120.20011 -0.028018094 -0.052697544)
(120.23232 -0.03207453 -0.055259)
(120.20706 -0.028973698 -0.050362527)
(120.24246 -0.033539627 -0.055376187)
(120.23362 -0.069754394 -0.10197103)
(120.21406 -0.099914844 -0.14065339)
(120.18531 -0.08137459 -0.12396787)
(120.20385 -0.089927979 -0.14264176)
(120.23353 -0.1093701 -0.16182269)
(120.19811 -0.138221 -0.20594895)
(120.18362 -0.1292974 -0.17972125)
(120.20172 -0.15562782 -0.20011308)
(120.2022 -0.13052092 -0.15196366)
(120.24225 -0.058034226 -0.080761378)
(120.26252 -0.079972653 -0.11205285)
(120.23835 -0.11927788 -0.15651467)
(120.26511 -0.13447933 -0.18391653)
(120.22119 -0.17203866 -0.23478561)
(120.24701 -0.20798239 -0.2677815)
(120.22749 -0.18904901 -0.22949997)
(120.1746 -0.22725265 -0.26883274)
(120.11449 -0.25436236 -0.29788198)
(120.05548 -0.27402384 -0.31892238)
(120.04621 -0.29501007 -0.37123231)
(119.97557 -0.30590733 -0.38558159)
(119.94958 -0.36416231 -0.41936649)
(120.02893 -0.35815714 -0.41093174)
(120.04553 -0.32221662 -0.34425834)
(120.03026 -0.3883488 -0.38352901)
(119.95173 -0.3990475 -0.38664255)
(119.91662 -0.44049063 -0.46436133)
(120.01091 -0.42933039 -0.45617672)
(120.10364 -0.40639772 -0.43708337)
(120.11065 -0.33683456 -0.3904128)
(120.11269 -0.27602337 -0.34852132)
(120.11121 -0.22925068 -0.30826012)
(120.10527 -0.24341721 -0.36001324)
(120.10525 -0.19520743 -0.31512263)
(120.04992 -0.20692615 -0.3375732)
(120.05483 -0.16672091 -0.29567947)
(120.05871 -0.13389796 -0.2614061)
(120.05741 -0.10805158 -0.22461797)
(120.05353 -0.10567922 -0.251115)
(120.01567 -0.10884151 -0.26210444)
(120.00956 -0.13883996 -0.3059694)
(120.0201 -0.13989083 -0.27303361)
(120.00949 -0.17052233 -0.30512824)
(119.99416 -0.17161499 -0.34651224)
(120.0454 -0.16894324 -0.33517915)
(120.05337 -0.13315601 -0.29166884)
(120.09369 -0.12491887 -0.27038522)
(120.08721 -0.098616927 -0.23290561)
(120.12175 -0.089047287 -0.20783329)
(120.11788 -0.089507318 -0.18425393)
(120.13228 -0.11222253 -0.21548893)
(120.13523 -0.11331483 -0.24289094)
(120.13466 -0.11189803 -0.27610818)
(120.12236 -0.085908645 -0.2303497)
(120.08426 -0.094190968 -0.25682315)
(120.04728 -0.099633342 -0.27574916)
(120.00774 -0.10172269 -0.28450747)
(119.99529 -0.089997282 -0.31216883)
(120.03948 -0.089917241 -0.30277085)
(120.03237 -0.11717129 -0.35909075)
(120.04278 -0.1276473 -0.32715339)
(119.99675 -0.13133886 -0.33785552)
(119.98099 -0.11907575 -0.37146489)
(119.95274 -0.15116062 -0.42817878)
(119.97542 -0.16398837 -0.38450709)
(120.02942 -0.16387789 -0.37817073)
(120.01244 -0.15427115 -0.42163422)
(119.98952 -0.2038112 -0.49804713)
(120.0136 -0.21167495 -0.44132282)
(120.03683 -0.21350658 -0.38679853)
(119.97377 -0.21997863 -0.40106281)
(119.99498 -0.21361059 -0.34843943)
(119.96913 -0.25920769 -0.38855134)
(120.03486 -0.25689148 -0.38207143)
(120.01462 -0.26978677 -0.44243122)
(119.93957 -0.27004774 -0.45118449)
(119.90334 -0.343487 -0.51913067)
(119.94269 -0.32181923 -0.44247464)
(120.02141 -0.31600447 -0.43411807)
(119.99516 -0.33820027 -0.50659781)
(120.08499 -0.32521555 -0.48235511)
(120.09261 -0.25787425 -0.41990484)
(120.09705 -0.20299552 -0.36372663)
(120.09694 -0.15948428 -0.31407767)
(120.14781 -0.1453049 -0.28234775)
(120.14587 -0.14092637 -0.24614872)
(120.16005 -0.1763223 -0.28283012)
(120.16045 -0.18575373 -0.32853103)
(120.15449 -0.19094216 -0.38216936)
(120.1451 -0.14594905 -0.32382657)
(120.08795 -0.15777676 -0.35715559)
(120.08843 -0.1219011 -0.30527671)
(120.08049 -0.1127689 -0.33796368)
(120.07965 -0.085472501 -0.2838147)
(120.12183 -0.079371806 -0.25653277)
(120.13194 -0.10520667 -0.30790682)
(120.13874 -0.14127782 -0.36789731)
(120.07505 -0.15002483 -0.40194979)
(120.06237 -0.20051513 -0.47794421)
(120.08282 -0.20523495 -0.41883041)
(120.07077 -0.26655203 -0.48946798)
(119.98036 -0.27271877 -0.51048041)
(119.90136 -0.26751332 -0.50996572)
(119.94738 -0.2142761 -0.44857733)
(119.91457 -0.20318798 -0.50671132)
(119.87461 -0.17859055 -0.55120222)
(119.92521 -0.12986124 -0.46197666)
(119.96271 -0.10105314 -0.39902128)
(119.98351 -0.075814418 -0.33095518)
(120.0222 -0.048813092 -0.25908641)
(120.02738 -0.029961995 -0.18972553)
(120.07144 -0.026844257 -0.16435109)
(120.07139 -0.010085487 -0.17589742)
(120.08861 -0.01580824 -0.24463612)
(120.09108 -0.04463087 -0.22770803)
(120.14833 -0.035071336 -0.16999671)
(120.10467 -0.020780392 -0.12356102)
(120.12398 -0.01222448 -0.06862237)
(120.12853 -0.0067756072 -0.075308232)
(120.10733 -0.0089491683 -0.13332414)
(120.1505 -0.012975956 -0.18523799)
(120.18856 -0.008869209 -0.10650387)
(120.18251 -0.020787414 -0.095821178)
(120.21734 -0.039701196 -0.14472762)
(120.21153 -0.04481257 -0.13022386)
(120.201 -0.045209351 -0.11403405)
(120.19169 -0.045871015 -0.10203157)
(120.17769 -0.043702924 -0.090043244)
(120.16405 -0.060197354 -0.12375773)
(120.17522 -0.061581902 -0.14040954)
(120.15039 -0.077197852 -0.17718643)
(120.17187 -0.097616423 -0.20520748)
(120.16445 -0.0955074 -0.18121331)
(120.19104 -0.075907259 -0.14454762)
(120.20298 -0.078634983 -0.16413709)
(120.22467 -0.05634188 -0.11385668)
(120.20921 -0.053438154 -0.10026919)
(120.21843 -0.029418683 -0.057649528)
(120.18446 -0.023749844 -0.051762579)
(120.20025 -0.026084861 -0.0581822)
(120.23634 -0.032354163 -0.065120829)
(120.25242 -0.035008664 -0.075727929)
(120.21141 -0.026524678 -0.065064917)
(120.2242 -0.027785941 -0.075581404)
(120.26696 -0.037120337 -0.089252648)
(120.24929 -0.058641967 -0.15192826)
(120.23798 -0.058658471 -0.13186061)
(120.21227 -0.079886685 -0.18884973)
(120.18216 -0.060520759 -0.15677449)
(120.15403 -0.074969887 -0.19709064)
(120.15752 -0.070373645 -0.22101267)
(120.18949 -0.057993388 -0.17736196)
(120.21944 -0.077893185 -0.21460719)
(120.17845 -0.09343794 -0.26442611)
(120.17641 -0.097896458 -0.23484871)
(120.19898 -0.12823815 -0.27776121)
(120.19463 -0.12546781 -0.24020481)
(120.18649 -0.11988826 -0.20835278)
(120.2199 -0.09496431 -0.16394683)
(120.23407 -0.1007786 -0.18973305)
(120.26941 -0.12901737 -0.22034666)
(120.25268 -0.11859941 -0.18786267)
(120.21045 -0.15018405 -0.23980378)
(120.21903 -0.16085898 -0.28017848)
(120.22264 -0.16860018 -0.32918209)
(120.28226 -0.13826611 -0.26150457)
(120.24508 -0.10497103 -0.22118957)
(120.25253 -0.10599341 -0.25731952)
(120.19938 -0.12658041 -0.31907662)
(120.22008 -0.17218844 -0.38500038)
(120.14282 -0.1904946 -0.44106558)
(120.12376 -0.17660036 -0.50654032)
(120.1278 -0.12741793 -0.41451601)
(120.12608 -0.093215798 -0.34283766)
(120.11916 -0.068957692 -0.2790219)
(120.07368 -0.073612107 -0.30658416)
(120.02993 -0.076317103 -0.32526291)
(120.02162 -0.05832069 -0.34639644)
(119.97203 -0.057494834 -0.35196708)
(119.9475 -0.078485866 -0.42516976)
(120.00526 -0.078321232 -0.41836727)
(120.01656 -0.10071976 -0.39268708)
(120.07029 -0.098715487 -0.37273506)
(120.06038 -0.076712749 -0.40013583)
(120.06748 -0.056048833 -0.32832937)
(120.11592 -0.053192119 -0.30101289)
(120.11999 -0.073216123 -0.37061759)
(120.11384 -0.047465487 -0.39415407)
(120.11302 -0.034227177 -0.31541275)
(120.06286 -0.036044268 -0.34233256)
(120.01547 -0.036971281 -0.35982971)
(120.01192 -0.011647739 -0.366718)
(119.96096 -0.011569218 -0.36980873)
(119.93057 -0.016225914 -0.45054133)
(119.98962 -0.015968747 -0.44772283)
(119.99443 -0.049774805 -0.43924169)
(120.05203 -0.049456866 -0.42253894)
(120.04762 -0.015185081 -0.43182193)
(120.05999 -0.010870254 -0.34958908)
(120.11112 -0.010289839 -0.32293903)
(120.1107 -0.014220654 -0.40376516)
(120.09913 -0.020749506 -0.50315943)