/*--------------------------------*- C++ -*----------------------------------*\
  =========                 |
  \\      /  F ield         | OpenFOAM: The Open Source CFD Toolbox
   \\    /   O peration     | Website:  https://openfoam.org
    \\  /    A nd           | Version:  7
     \\/     M anipulation  |
\*---------------------------------------------------------------------------*/
FoamFile
{
    version     2.0;
    format      ascii;
    class       volScalarField;
    location    "310";
    object      k;
}
// * * * * * * * * * * * * * * * * * * * * * * * * * * * * * * * * * * * * * //

dimensions      [0 2 -2 0 0 0 0];

internalField   nonuniform List<scalar> 
25201
(
1109.8353
1109.3578
1109.8382
1109.3643
1092.9198
1095.5061
1096.575
1132.5228
1131.0308
1127.4406
1131.0284
1095.5039
1094.5157
1064.1844
1061.9224
1069.4058
1067.0834
1064.4201
1060.5019
1057.0811
1059.413
1066.9386
1068.4028
1065.8725
1058.3272
1056.0957
1059.975
1064.8058
1062.9703
1055.0355
1056.329
1057.9396
1051.0148
1052.9643
1055.1549
1061.7697
1065.2652
1063.4763
1059.3857
1057.28
1062.0798
1061.2204
1054.2482
1049.8765
1056.1021
1063.2084
1068.3904
1078.5824
1092.2627
1094.5187
1130.5076
1128.4699
1114.5117
1116.7322
1118.8002
1102.5631
1084.7055
1082.6228
1100.1618
1092.3357
1083.748
1080.2169
1096.8571
1114.1685
1132.2725
1137.5912
1135.2328
1127.8692
1109.6746
1104.4115
1087.1916
1079.9162
1080.3696
1098.052
1096.2385
1083.4628
1076.3339
1078.2751
1070.75
1072.5098
1074.4242
1075.7863
1073.379
1081.5975
1079.6118
1082.4507
1071.5871
1064.037
1061.1448
1063.1449
1064.1808
1067.4647
1063.369
1060.3932
1057.4734
1058.1051
1054.9434
1054.529
1053.6153
1054.1273
1057.0862
1056.3177
1059.1494
1060.0202
1063.1158
1062.1229
1060.1362
1061.4742
1059.7185
1053.4172
1052.8201
1055.6762
1054.6437
1052.0783
1049.9242
1051.0358
1053.7616
1052.412
1055.0368
1057.3269
1058.4387
1056.5028
1059.4643
1057.7603
1054.8304
1057.3065
1056.5174
1059.81
1063.2642
1059.5509
1057.4617
1056.2989
1063.3031
1064.4413
1066.6616
1069.0582
1071.6444
1073.4518
1080.2366
1084.7159
1102.5635
1096.8581
1092.341
1083.7611
1082.6428
1100.1643
1116.7315
1118.7989
1130.5039
1137.5899
1132.2719
1114.1662
1109.6776
1127.8684
1135.2312
1133.1051
1128.4661
1092.2602
1080.3959
1098.0574
1087.2013
1079.9409
1082.4686
1074.4917
1075.8432
1072.5889
1070.8358
1078.3036
1074.3334
1076.5488
1079.6317
1081.6152
1078.0639
1075.016
1092.0349
1085.4154
1078.0502
1070.1736
1066.5471
1073.6992
1069.6962
1066.9719
1064.2063
1062.7422
1065.5262
1063.665
1065.4731
1062.4159
1060.6146
1057.7253
1060.2385
1062.9057
1066.5797
1070.2248
1067.5249
1064.2989
1061.3444
1055.3126
1056.7388
1058.6667
1060.2337
1063.2373
1062.2571
1063.4974
1060.6087
1059.3766
1057.5826
1060.279
1061.5941
1059.5762
1057.9025
1054.9419
1057.3799
1054.4979
1051.9174
1050.5189
1109.2345
1109.4713
1063.7546
1064.7092
1062.9369
1054.2332
1052.9068
1056.256
1054.9956
1062.0338
1061.2055
1056.0874
1049.8639
1050.9737
1057.2437
1059.3209
1063.3995
1065.1542
1057.8387
1055.0616
1061.6737
1063.8987
1066.7957
1066.9176
105.84556
154.64335
206.7481
258.97354
563.54938
567.26953
263.40736
210.2246
157.26846
107.47463
107.90813
159.32703
213.36967
267.21242
571.28399
574.44199
268.67574
214.56932
160.21485
108.26956
108.44762
160.66128
215.22407
269.48708
577.27824
579.98818
270.18923
215.77975
161.04312
108.62926
108.8208
161.51705
216.49539
271.102
582.70186
585.46698
272.17224
217.32683
162.06277
109.02683
109.24675
162.68092
218.27346
273.39183
588.30188
591.22378
274.67505
219.26465
163.3248
109.46901
109.70051
164.0097
220.3193
276.03857
594.23231
597.34053
277.43198
221.39471
164.70636
109.93235
110.17394
165.43976
222.52607
278.89567
600.55068
603.86843
280.3885
223.67845
166.18576
110.41734
110.67166
166.96932
224.88748
281.95223
607.29557
610.83961
283.55159
226.12278
167.76915
110.92957
111.1993
168.60767
227.4163
285.22386
614.50295
618.29217
286.93804
228.7409
169.46569
111.47412
111.76132
170.36295
230.12411
288.72538
622.20664
626.2522
290.56157
231.54385
171.28349
112.05515
112.36218
172.24441
233.02319
292.47134
630.43009
634.74694
294.43677
234.54449
173.23223
112.67712
113.00542
174.26158
236.1274
296.47907
639.20677
643.81421
298.58053
237.7549
175.31965
113.34248
113.69366
176.42022
239.44556
300.761
648.57006
653.47897
303.00447
241.18424
177.552
114.05443
114.42987
178.72814
242.98853
305.33002
658.54298
663.76755
307.72589
244.8469
179.94
114.81679
115.21994
181.19858
246.7744
310.20809
669.15749
674.7205
312.77182
248.76419
182.49707
115.63535
116.06384
183.84358
250.82254
315.41919
680.46226
686.38251
318.1522
252.94602
185.23361
116.50587
697.74193
291.73145
231.29438
170.36124
110.97451
110.57925
169.12324
229.38267
289.25087
691.7418
685.91264
286.8403
227.52328
167.91912
110.19463
109.81725
166.75013
225.71514
284.49494
680.26053
674.78349
282.22274
223.96294
165.61622
109.4492
109.09538
164.52117
222.2679
280.02282
669.4775
664.3372
277.89413
220.62702
163.46074
108.75256
108.42238
162.4389
219.04179
275.83511
659.35663
654.53289
273.84483
217.5089
161.45001
108.10222
107.79543
160.50003
216.03179
271.92365
649.86117
645.3378
270.0699
214.60623
159.58251
107.49889
107.21408
158.69985
213.23051
268.27768
640.95548
636.71193
266.54386
211.89813
157.84317
106.93692
106.67053
157.01851
210.61133
264.86644
632.60345
628.62542
263.24432
209.36523
156.21788
106.41082
106.16122
155.44805
208.16221
261.67441
624.77385
621.06429
260.16437
207.00212
154.70267
105.91794
105.68385
153.98573
205.88053
258.69915
617.46852
613.99129
257.28548
204.79527
153.28859
105.45423
105.2327
152.61832
203.74632
255.91431
610.616
607.34966
254.58823
202.72856
151.9641
105.0138
104.80196
151.33661
201.74756
253.30615
604.18815
601.12671
252.07089
200.7987
150.7252
104.59167
104.38821
150.14529
199.89493
250.89152
598.16038
595.28207
249.79163
199.04616
149.59457
104.18827
103.99973
149.10436
198.29045
248.81277
592.4763
589.75808
248.01797
197.66525
148.68882
103.82591
103.66509
148.35931
197.17771
247.40258
587.05817
584.28793
246.75567
196.64838
147.98551
103.4989
103.24214
147.28687
195.63014
245.49274
581.25896
577.6962
242.80847
193.4892
145.80249
102.81571
102.60529
143.12312
189.66899
238.15936
573.53606
565.90486
225.41084
178.52981
135.46372
100.44028
102.34431
143.24252
189.82047
238.32738
574.03266
578.05945
243.01913
193.65851
145.88788
102.65837
103.16951
147.40885
195.8202
245.71715
581.54477
584.4974
246.92124
196.78996
148.0781
103.45355
103.64035
148.44035
197.30198
247.55056
587.24056
589.91328
248.12531
197.75651
148.75027
103.80975
103.99099
149.15986
198.37619
248.91761
592.62575
595.40649
249.86949
199.1103
149.63761
104.18245
104.38569
150.18441
199.9553
250.96624
598.27224
601.22882
252.12606
200.8439
150.75604
104.59022
104.80251
151.36624
201.7933
253.36352
604.27831
607.43136
254.62962
202.76238
151.98754
105.01468
105.23527
152.64253
203.7835
255.96116
610.69106
614.06307
257.32099
204.82468
153.30945
105.45734
105.68904
154.01055
205.91823
258.74663
617.54869
621.15313
260.2048
207.03542
154.7262
105.92384
106.16918
155.47693
208.20606
261.73016
624.87881
628.73004
263.29302
209.40438
156.24505
106.41903
106.68015
157.04926
210.65751
264.92482
632.70968
636.82193
266.59901
211.94223
157.87358
106.94697
107.22546
158.73447
213.28235
268.3429
641.06865
645.45458
270.13473
214.65822
159.61824
107.51058
107.80788
160.5392
216.08973
271.99596
649.98414
654.65914
273.91174
217.5625
161.48693
108.11392
108.43367
162.4752
219.09628
275.90436
659.48676
664.47155
277.95636
220.67554
163.4933
108.76266
109.10515
164.55295
222.31686
280.08656
669.61684
674.9282
282.2821
224.00824
165.64581
109.45853
109.82741
166.7814
225.7637
284.55829
680.40957
686.06643
286.90594
227.57492
167.95337
110.20621
110.59326
169.16522
229.4451
289.3279
691.90178
697.92158
291.82322
231.36872
170.4105
110.99143
111.40721
171.69796
233.35353
294.3962
704.13668
115.96713
183.5628
250.42096
314.96339
687.49292
681.3974
312.19163
248.26926
182.15526
115.51598
115.07982
180.78848
246.17872
309.5
675.48531
669.7561
306.89507
244.1556
179.46668
114.65838
114.2487
178.18771
242.19489
304.36888
664.20677
658.83261
301.92313
240.29622
176.9483
113.84935
113.46542
175.75244
238.46125
299.55732
653.62625
648.58288
297.26986
236.68667
174.59561
113.09388
112.73659
173.48158
234.97291
295.0574
643.6954
638.97188
292.92306
233.31871
172.40517
112.39088
112.05895
171.36818
231.72008
290.85638
634.38986
629.95301
288.85874
230.17353
170.36353
111.73718
111.42799
169.3962
228.67977
286.926
625.65487
621.49281
285.05622
227.23315
168.45751
111.127
110.83759
167.55409
225.83634
283.24761
617.46515
613.5699
281.50039
224.48496
166.6776
110.55557
110.28448
165.83491
223.18053
279.80999
609.79882
606.15042
278.17677
221.91801
165.01643
110.01957
109.76487
164.23063
220.70058
276.59793
602.62214
599.20905
275.07297
219.52219
163.46671
109.51502
109.27438
162.73412
218.38663
273.59921
595.90937
592.71652
272.17599
217.28717
162.02094
109.03702
108.8076
161.33823
216.22927
270.80233
589.63098
586.64636
269.48264
215.20928
160.67523
108.58011
108.35998
160.04785
214.23937
268.22391
583.75464
580.95333
267.05504
213.33299
159.45512
108.14339
107.93881
158.93237
212.53235
266.02119
578.22623
575.5917
265.19233
211.88068
158.49715
107.74832
107.56635
158.16045
211.3841
264.56183
572.98451
570.31046
263.87578
210.8267
157.76795
107.35541
106.99694
157.04235
209.76657
262.55004
567.4276
564.12152
259.73767
207.53724
155.53045
106.38776
105.70518
153.43481
204.21645
255.45037
560.44753
564.50486
259.76636
207.59341
155.24736
104.98252
107.38972
157.18402
209.99798
263.16259
567.31688
571.38656
267.30332
213.44527
159.35584
107.84075
108.25755
160.25754
214.62609
268.74085
574.49284
577.33604
269.53767
215.26704
160.68854
108.43533
108.62797
161.08071
215.83463
270.25265
580.04623
582.76502
271.14097
216.52746
161.53773
108.81656
109.02931
162.09502
217.37406
272.22725
585.53115
588.36483
273.4252
218.30074
162.69865
109.24565
109.47347
163.35429
219.30793
274.72597
591.28389
594.2927
276.06982
220.3443
164.02588
109.70111
109.93781
164.73372
221.43494
277.47983
597.39796
600.61023
278.92567
222.54991
165.45527
110.17578
110.42377
166.21261
223.71816
280.43643
603.93273
607.36432
281.98387
224.91257
166.98568
110.67472
110.9371
167.79689
226.16392
283.60172
610.91379
614.58227
285.26119
227.44576
168.62699
111.20404
111.4831
169.49619
228.78583
286.99278
618.37721
622.29861
288.77194
230.16085
170.38723
111.76799
112.06542
171.31758
231.59401
290.62271
626.35165
630.53691
292.5258
233.06616
172.27267
112.36991
112.68767
173.26868
234.59907
294.50455
634.85989
639.32193
296.5402
236.17485
174.29233
113.01372
113.35368
175.35786
237.81245
298.65238
643.92784
648.68251
300.82808
239.4982
176.45461
113.70333
114.06766
177.59558
241.24935
303.08516
653.59193
658.66117
305.41107
243.05347
178.77146
114.44293
114.83359
179.9939
244.92674
307.82388
663.89672
669.30319
310.30923
246.85562
181.25277
115.23581
115.65332
182.55895
248.85491
312.88311
674.88601
680.64543
315.53802
250.91673
183.90644
116.08336
116.52983
185.30228
253.0477
318.27792
686.58554
692.70952
321.10697
255.24693
186.74327
116.99018
115.96316
183.55064
250.40274
314.94041
687.45109
681.364
312.1714
248.25285
182.14408
115.51212
115.07617
180.778
246.16344
309.48121
675.45692
669.73212
306.87746
244.14122
179.45674
114.65507
114.24572
178.17835
242.18125
304.35213
664.18399
658.81085
301.90658
240.28286
176.93928
113.84671
113.46312
175.74392
238.44851
299.54144
653.60337
648.56044
297.25345
236.67366
174.58708
113.09183
112.7348
173.47348
234.96072
295.04234
643.67482
638.94479
292.90408
233.30382
172.39551
112.38875
112.05675
171.35855
231.7056
290.83852
634.3619
629.92614
288.84073
230.15895
170.35381
111.7349
111.4258
169.38713
228.66636
286.90969
625.62907
621.4707
285.04154
227.22092
168.44914
111.12493
110.83578
167.54681
225.82578
283.23493
617.44526
613.55839
281.49084
224.47664
166.67172
110.55414
110.28353
165.83057
223.17447
279.80308
609.79047
606.1469
278.17183
221.91339
165.01306
110.01894
109.76466
164.22853
220.69773
276.59497
602.62059
599.2173
275.0741
219.52213
163.46627
109.51539
109.27525
162.73477
218.38791
273.60147
595.9188
592.72818
272.18065
217.28985
162.02239
109.03831
108.80927
161.34032
216.23274
270.80748
589.64759
586.66173
269.48662
215.21169
160.67671
108.58184
108.36182
160.04909
214.24138
268.22716
583.76702
580.96097
267.05517
213.33257
159.45495
108.14502
107.94066
158.93281
212.533
266.02294
578.23913
575.6013
265.19065
211.87904
158.49646
107.75002
107.56833
158.16138
211.38483
264.56282
572.99828
570.33552
263.87843
210.82914
157.77099
107.35894
106.99367
157.03757
209.76288
262.5465
567.45988
564.16511
259.71997
207.52894
155.54
106.3956
105.60691
153.38423
204.21105
255.45315
560.67841
574.82957
239.1778
190.73189
143.86607
101.79901
102.65012
145.91514
193.55269
242.86992
578.0518
581.57477
245.73535
195.83278
147.40421
103.13967
103.46237
148.09192
196.79904
246.9305
584.50942
587.24093
247.53471
197.28577
148.42863
103.64004
103.81602
148.7508
197.75563
248.12439
589.90469
592.6132
248.89632
198.35662
149.14639
103.9918
104.18731
149.63696
199.10813
249.86591
595.39637
598.25929
250.94593
199.93785
150.1727
104.38578
104.59416
150.75753
200.84532
252.12688
601.21402
604.26516
253.3483
201.77964
151.35676
104.80188
105.01729
151.98861
202.76342
254.63016
607.417
610.67339
255.94486
203.76909
152.63257
105.23348
105.45839
153.30837
204.82246
257.31734
614.03804
617.51768
258.72659
205.90099
153.99875
105.6859
105.92312
154.72171
207.02804
260.19461
621.11515
624.8346
261.70394
208.18415
155.46212
106.16448
106.41639
156.23635
209.3907
263.27497
628.67804
632.65143
264.89094
210.62955
157.0304
106.67365
106.9422
157.85959
211.92088
266.57179
636.75973
641.00156
268.29949
213.24703
158.71078
107.21719
107.50418
159.59964
214.63004
270.09879
645.38364
649.90948
271.94855
216.05124
160.51322
107.79873
108.10683
161.46664
217.53244
273.874
654.58332
659.40944
275.85723
219.05806
162.44926
108.42452
108.75584
163.4737
220.64643
277.91953
664.39188
669.53447
280.04281
222.28177
164.52932
109.09681
109.45221
165.62753
223.98026
282.24575
674.84101
680.31544
284.51443
225.72897
166.75838
109.81929
110.19865
167.93152
227.54157
286.86299
685.96327
691.78945
289.27802
229.4044
169.13753
110.58351
110.98166
170.37963
231.32078
291.76194
697.79846
704.00146
294.33951
233.30872
171.66875
111.39833
692.53788
321.00482
255.1662
186.68985
116.97416
116.51219
185.24824
252.9667
318.17613
686.41744
680.49108
315.4443
250.84286
183.8572
116.06826
115.63957
182.50886
248.77999
312.78886
674.73589
669.16104
310.22033
246.78446
181.20485
115.2218
114.81863
179.94526
244.85387
307.7325
663.7651
658.5364
305.32854
242.98714
178.72618
114.42865
114.05365
177.5509
241.18247
303.00093
653.47139
648.56449
300.75271
239.43818
176.41386
113.69041
113.34092
175.31771
237.75195
298.57567
643.81303
639.21078
296.4752
236.1233
174.25728
113.00239
112.67702
173.2351
234.54819
294.43964
634.75477
630.43777
292.4757
233.02624
172.24525
112.36102
112.05701
171.29129
231.55399
290.57133
626.26125
622.21482
288.73354
230.13055
170.36621
111.76108
111.47651
169.4753
228.75386
286.95133
618.29868
614.50645
285.23084
227.42198
168.61028
111.19873
110.93166
167.7787
226.13574
283.56468
610.83955
607.29175
281.9575
224.892
166.97103
110.67033
110.41888
166.19544
223.69152
280.40133
603.86276
600.54411
278.9007
222.53056
165.44133
110.17177
109.93334
164.71746
221.40987
277.44703
597.33599
594.22872
276.04636
220.32615
164.01268
109.69746
109.46919
163.33843
219.28331
274.69359
591.22304
588.30646
273.40905
218.28742
162.68816
109.24271
109.02595
162.08259
217.35457
272.20134
585.48566
582.72725
271.13026
216.51929
161.53107
108.81462
108.62614
161.07531
215.82477
270.23783
580.01905
577.31857
269.54289
215.2728
160.69241
108.4356
108.25742
160.27346
214.64655
268.76098
574.49701
571.40796
267.33552
213.46683
159.37099
107.83847
107.36037
157.2772
210.13147
263.30568
567.38442
564.56328
259.88905
207.7193
155.37192
105.06699
105.72424
154.80541
207.00668
259.26323
563.94824
567.52017
263.53445
210.33356
157.33067
107.37708
107.84768
159.36827
213.43943
267.29463
571.45078
574.55747
268.76107
214.63973
160.25794
108.23694
108.42928
160.70201
215.28585
269.55799
577.36844
580.0619
270.26482
215.84322
161.08426
108.61993
108.81554
161.55162
216.54622
271.1598
582.76945
585.5287
272.23102
217.37688
162.09604
109.02491
109.24614
162.70892
218.31433
273.43843
588.35769
591.27078
274.72482
219.30631
163.35232
109.47001
109.7017
164.03191
220.35143
276.07507
594.27672
597.37991
277.47457
221.43006
164.72968
109.93485
110.17655
165.45946
222.55444
278.92805
600.59134
603.91415
280.42937
223.71217
166.2081
110.42132
110.67609
166.99018
224.91799
281.98815
607.34832
610.90027
283.59695
226.15957
167.79341
110.93545
111.20582
168.63175
227.4517
285.26644
614.57205
618.36869
286.99109
228.78362
169.49402
111.48216
111.77009
170.3921
230.16696
288.77753
622.29356
626.35062
290.62339
231.59384
171.31694
112.06523
112.37253
172.27895
233.07476
292.5353
630.54109
634.8694
294.50818
234.60068
173.26897
112.68772
113.01544
174.29664
236.18083
296.547
639.3361
643.94696
298.65189
237.81028
175.35544
113.35258
113.70345
176.45444
239.49802
300.82818
648.70628
653.61876
303.07515
241.2394
177.5879
114.06479
114.4407
178.76488
243.04419
305.40046
658.68775
663.92026
307.80261
244.90812
179.98069
114.82883
115.23302
181.24304
246.8407
310.29068
669.3218
674.90059
312.86147
248.83651
182.54603
115.64962
116.07998
183.89827
250.90298
315.519
680.65823
686.5949
318.26246
253.03394
185.29167
116.52406
116.9857
186.73201
255.23083
321.08715
692.71428
1179.2839
1179.4684
1179.2805
1179.461
1164.4441
1164.4908
1164.8128
1204.79
1204.0556
1164.4932
1163.7785
1202.2716
1204.0533
1204.5971
1193.1302
1174.7408
1154.6501
1150.8728
1170.3292
1166.5235
1172.869
1152.9018
1146.8578
1141.9756
1150.9697
1162.9324
1203.5262
1190.414
1191.9086
1213.0036
1214.33
1210.8084
1190.0748
1186.8976
1207.8959
1204.2415
1211.7539
1210.6833
1189.2427
1169.7087
1171.1382
1161.9844
1158.7906
1138.5573
1149.4876
1131.4151
1112.8566
1114.5126
1104.4129
1122.7562
1119.1583
1100.7143
1083.4744
1076.3683
1078.613
1096.2454
1096.2086
1092.1864
1109.2255
1109.4602
1095.1589
1094.3124
560.33052
254.84067
203.7146
153.06697
106.05263
106.54563
155.29419
207.15831
259.27111
563.92516
567.2373
262.19882
209.46666
156.84
107.05448
107.39208
157.63873
210.63266
263.65208
570.15147
572.86613
264.39756
211.23754
158.05902
107.58269
107.76195
158.43282
211.78428
265.08342
575.50539
578.18385
265.93452
212.45231
158.87604
107.94387
108.14997
159.4218
213.28292
267.00028
580.92556
583.7474
268.17559
214.19237
160.01392
108.36102
108.58402
160.65799
215.18318
269.45569
586.65381
589.6501
270.77448
216.2005
161.3168
108.80716
109.03966
162.01224
217.27397
272.16407
592.74306
595.93584
273.5809
218.36688
162.71909
109.27315
109.51694
163.46244
219.51549
275.06808
599.23882
602.65424
276.58599
220.68685
164.21989
109.76352
110.02147
165.01548
221.91627
278.17733
606.18342
609.83153
279.80431
223.17227
165.82788
110.2836
110.55775
166.67891
224.48641
281.50414
613.60189
617.49801
283.24671
225.83291
167.55074
110.83766
111.13034
168.463
227.24042
285.06632
621.52479
625.6841
286.93318
228.68367
169.39831
111.42973
111.74213
170.37393
230.18717
288.87538
629.97849
634.41391
290.87201
231.73174
171.37613
112.06254
112.39658
172.41987
233.33808
292.94562
638.99168
643.71808
295.07935
234.9902
173.49348
112.73989
113.09752
174.61054
236.70706
297.29429
648.59928
653.63784
299.57361
238.47363
175.76044
113.4656
113.84883
176.95611
240.30854
301.93924
658.84008
664.21137
304.37534
242.19781
178.18776
114.24354
114.65384
179.46635
244.15658
306.89848
669.75712
675.48157
309.50244
246.17758
180.78593
115.07704
115.51593
182.15254
248.26742
312.19227
681.39051
687.49022
314.97176
250.42629
183.5651
115.96851
115.50261
182.11389
248.20628
312.11303
681.24291
675.35297
309.43968
246.1308
180.7567
115.06986
114.64979
179.43908
244.11224
306.8392
669.63636
664.0957
304.31517
242.15136
178.15768
114.23874
113.84039
176.9199
240.25355
301.86958
658.7305
653.53235
299.50463
238.41731
175.72123
113.45504
113.08468
174.56608
236.6428
297.21557
648.50084
643.6233
295.00305
234.92679
173.44836
112.7259
112.38152
172.37297
233.27065
292.86367
638.89595
634.32162
290.8009
231.67285
171.33456
112.04878
111.72971
170.33657
230.13184
288.80689
629.889
625.59549
286.87958
228.6402
169.36822
111.41938
111.12084
168.43455
227.1978
285.01253
621.43769
617.41237
283.20788
225.80132
167.5284
110.83028
110.55108
166.65697
224.45289
281.46093
613.51821
609.74797
279.77457
223.14821
165.81076
110.27858
110.01668
164.99745
221.88866
278.14161
606.11293
602.58494
276.56153
220.667
164.20542
109.75996
109.51306
163.44524
219.48907
275.0336
599.1691
595.86545
273.5564
218.34693
162.70441
109.27015
109.03579
161.99312
217.24462
272.12582
592.66579
589.5804
270.74919
216.17924
161.30078
108.8042
108.58038
160.63795
215.15313
269.41758
586.58576
583.67666
268.14502
214.16711
159.99519
108.35816
108.14669
159.39864
213.24858
266.95754
580.85518
578.11257
265.90509
212.42645
158.85622
107.94286
107.76242
158.40921
211.74996
265.04158
575.43715
572.79149
264.3737
211.21512
158.04117
107.59089
107.41002
157.62358
210.61514
263.6353
570.0615
567.07835
262.23016
209.47456
156.83315
107.10055
106.63171
155.32209
207.23571
259.40987
563.64421
559.62388
255.04338
203.75502
153.01057
106.20531
104.87129
148.73098
197.18141
247.13433
553.86423
561.38861
266.50206
213.02704
159.59247
111.12724
105.20896
155.5662
207.97504
260.13205
564.80947
567.20807
263.02621
209.92328
157.18736
107.52396
107.90113
159.30549
213.3456
267.16978
571.27681
574.37673
268.59355
214.50491
160.1865
108.29805
108.46833
160.64571
215.19374
269.44862
577.23841
579.96113
270.15743
215.75274
161.02835
108.64636
108.83322
161.50555
216.4756
271.07944
582.69172
585.46312
272.15581
217.31115
162.053
109.03598
109.25323
162.67197
218.25917
273.37599
588.29824
591.21841
274.6666
219.25541
163.31847
109.47406
109.70429
164.0041
220.31077
276.02976
594.23814
597.35622
277.42913
221.39082
164.70359
109.93583
110.17742
165.43967
222.52622
278.89749
600.57341
603.89805
280.39697
223.68379
166.18894
110.42119
110.67595
166.97528
224.89689
281.96546
607.33668
610.89587
283.57181
226.13764
167.77865
110.93462
111.20514
168.6206
227.43644
285.25077
614.5701
618.36676
286.96998
228.76538
169.48175
111.48075
111.76891
170.38294
230.15447
288.76467
622.29072
626.34414
290.60466
231.57775
171.30605
112.06324
112.37065
172.26998
233.0623
292.52175
630.53016
634.85079
294.48879
234.58482
173.25851
112.68538
113.01363
174.28853
236.16919
296.5334
639.31128
643.91585
298.6351
237.79724
175.34699
113.35058
113.70175
176.44868
239.48974
300.81781
648.66834
653.57619
303.06431
241.23106
177.58238
114.06301
114.43931
178.7611
243.03901
305.39394
658.64331
663.87198
307.79328
244.90108
179.97573
114.82712
115.23126
181.239
246.8348
310.28225
669.26742
674.83566
312.84921
248.82977
182.54361
115.64884
116.08459
183.90149
250.89972
315.50736
680.58031
686.50666
318.25886
253.0431
185.3121
116.53709
117.00245
186.77277
255.24176
321.07399
692.62106
115.50242
182.10944
248.20233
312.11063
681.25788
675.36432
309.42404
246.11503
180.74365
115.06495
114.64077
179.42094
244.08945
306.81517
669.64516
664.10473
304.29787
242.13541
178.14539
114.23117
113.83741
176.91686
240.24931
301.86482
658.74296
653.54811
299.5141
238.42626
175.72873
113.45668
113.0906
174.58372
236.66499
297.23977
648.51809
643.64071
295.03857
234.95957
173.47404
112.73574
112.39524
172.40334
233.31063
292.90823
638.91445
634.33454
290.83593
231.70381
171.35759
112.06123
111.73731
170.34983
230.15066
288.82975
629.89844
625.6034
286.88669
228.64534
169.37105
111.42118
111.12062
168.43471
227.19954
285.01617
621.44457
617.41621
283.21012
225.80202
167.52787
110.83022
110.55143
166.65733
224.45449
281.46412
613.5288
609.76538
279.77834
223.15081
165.81227
110.27948
110.01815
164.9997
221.89198
278.14598
606.1232
602.5922
276.56323
220.66875
164.20699
109.76166
109.51487
163.44588
219.48948
275.03397
599.17025
595.86163
273.5519
218.34388
162.70298
109.27177
109.03757
161.99079
217.24058
272.12092
592.65967
589.56862
270.7388
216.17152
161.29637
108.80605
108.58267
160.63263
215.14432
269.40671
586.56906
583.66048
268.1315
214.1565
159.98891
108.36109
108.15065
159.39194
213.2372
266.94349
580.83411
578.09815
265.89109
212.41519
158.84984
107.94842
107.77013
158.40321
211.73844
265.02704
575.41738
572.77042
264.35514
211.20079
158.03384
107.60077
107.42368
157.61784
210.60137
263.61715
570.04129
567.06176
262.22139
209.46954
156.83571
107.12009
106.65769
155.34315
207.25577
259.43107
563.67115
559.72445
255.10891
203.80174
153.04608
106.22333
104.9411
149.17719
197.79689
247.82331
554.20165
566.48497
227.79145
180.65822
137.07098
101.40069
108.44414
153.3101
203.6489
254.8893
559.23976
560.74254
255.8831
204.61657
154.1819
108.44464
105.8833
153.0351
203.72351
254.88036
560.48394
563.95559
259.30014
207.18347
155.31914
106.5186
107.02835
156.84523
209.49008
262.23326
567.26684
570.18363
263.66441
210.64082
157.64047
107.37207
107.57129
158.07152
211.25998
264.42548
572.88984
575.5184
265.08693
211.78602
158.43178
107.74971
107.93925
158.88811
212.47136
265.9568
578.18815
580.92503
267.00028
213.28195
159.41964
108.14232
108.35908
160.02295
214.20563
268.18959
583.74339
586.64958
269.45252
215.18014
160.65504
108.57872
108.80688
161.32543
216.21306
270.78825
589.64624
592.73907
272.16043
217.27079
162.00948
109.0358
109.27373
162.72719
218.37875
273.59425
595.93337
599.23464
275.06529
219.51255
163.45969
109.51392
109.76414
164.22594
220.69573
276.59599
602.64675
606.17665
278.17073
221.91043
165.01104
110.01859
110.28425
165.83218
223.17827
279.81047
609.82194
613.5929
281.49843
224.48121
166.67487
110.55548
110.83849
167.55431
225.838
283.25223
617.49003
621.52033
285.0594
227.2344
168.45857
111.12839
111.43079
169.40158
228.68822
286.93796
625.6815
629.9802
288.87179
230.18347
170.37094
111.74088
112.06401
171.37996
231.73712
290.87793
634.41853
639.00027
292.9455
233.33696
172.41856
112.39605
112.74167
173.49792
234.9966
295.08676
643.72891
648.61182
297.29622
236.7077
174.61047
113.09747
113.46752
175.76575
238.48157
299.58337
653.65485
658.86004
301.94237
240.31039
176.95695
113.84886
114.24536
178.19355
242.2065
304.38584
664.2344
669.783
306.90651
244.16205
179.46931
114.65422
115.07922
180.79353
246.18839
309.51495
675.51126
681.42277
312.2126
248.28314
182.16236
115.51828
115.97038
183.57263
250.43741
314.9852
687.52241
704.17936
294.42141
233.37222
171.70955
111.41231
110.99604
170.41717
231.37981
291.83911
697.95751
691.92332
289.33553
229.4477
169.16429
110.59157
110.20088
167.95298
227.57657
286.90953
686.0775
680.41425
284.56306
225.76625
166.78081
109.82195
109.45688
165.65026
224.01641
282.29212
674.92999
669.61769
280.0971
222.32463
164.55676
109.10361
108.76356
163.50184
220.68831
277.97101
664.47064
659.49134
275.91768
219.10678
162.48122
108.43409
108.11685
161.49654
217.57647
273.9274
654.66115
649.98156
272.00305
216.09547
160.54221
107.80877
107.51232
159.6226
214.66409
270.14
645.4484
641.05879
268.34
213.27968
158.73155
107.22423
106.94723
157.87385
211.94245
266.59782
636.80784
632.69571
264.91715
210.6506
157.04316
106.67789
106.4191
156.24443
209.40338
263.29044
628.71668
624.8608
261.72288
208.19893
155.47036
106.16691
105.92439
154.72621
207.03551
260.2038
621.14693
617.54544
258.74122
205.91213
154.00438
105.68728
105.45889
153.31061
204.82661
257.32251
614.06457
610.69023
255.95296
203.77552
152.63525
105.23415
105.0169
151.9863
202.76018
254.62542
607.41977
604.25907
253.34606
201.77795
151.35415
104.80173
104.59315
150.74914
200.83282
252.11068
601.19714
598.22913
250.93794
199.93033
150.16565
104.38604
104.18759
149.62267
199.08645
249.83818
595.36098
592.56352
248.86859
198.33418
149.12993
103.99434
103.82164
148.72455
197.71463
248.0718
589.8308
587.13483
247.46872
197.234
148.39349
103.65106
103.48411
148.03073
196.70107
246.80675
584.36916
581.42765
245.554
195.68185
147.29669
103.15868
102.74896
145.77071
193.31154
242.57779
577.87748
574.67309
238.86404
190.4543
143.64044
101.85572
567.37791
225.41439
178.63649
135.3793
99.903963
102.55577
143.044
189.43256
237.82791
574.07849
577.90922
242.64645
193.37381
145.72811
102.7725
103.23609
147.26828
195.587
245.42623
581.3265
584.30116
246.71771
196.62123
147.97164
103.4979
103.66874
148.3612
197.17887
247.40415
587.08172
589.78935
248.02128
197.66627
148.6909
103.82904
104.00299
149.11081
198.30174
248.83098
592.534
595.3369
249.8017
199.05168
149.59864
104.19041
104.3908
150.15287
199.90795
250.91134
598.21825
601.18653
252.08592
200.80812
150.73157
104.59366
104.80438
151.34532
201.76229
253.3278
604.24895
607.40942
254.60564
202.7398
151.97142
105.01581
105.23531
152.62733
203.76117
255.9354
610.67162
614.04632
257.30455
204.80884
153.29789
105.45714
105.68811
153.99917
205.90175
258.72774
617.53678
621.14249
260.19172
207.02326
154.71737
105.92288
106.16789
155.46867
208.19414
261.71632
624.86941
628.7192
263.28497
209.39644
156.23899
106.41781
106.67854
157.04292
210.64822
264.91368
632.69595
636.80776
266.59353
211.93682
157.86945
106.94556
107.22393
158.73062
213.27664
268.33607
641.05518
645.43858
270.13119
214.65539
159.61639
107.50959
107.80742
160.53917
216.08921
271.99485
649.96464
654.63718
273.9148
217.56513
161.48882
108.11343
108.43185
162.47583
219.09668
275.90416
659.4616
664.44363
277.95476
220.67433
163.49249
108.75944
109.10019
164.54861
222.31095
280.07953
669.58534
674.89322
282.26947
223.99719
165.63706
109.45126
109.81658
166.76784
225.74623
284.53814
680.37216
686.02783
286.87989
227.55146
167.93557
110.19366
110.58546
169.14779
229.42229
289.30353
691.86602
697.89114
291.81017
231.35616
170.40059
110.98985
111.40586
171.69156
233.345
294.38641
704.10792
116.98209
186.71897
255.21074
321.06133
692.65137
686.53776