/*--------------------------------*- C++ -*----------------------------------*\
  =========                 |
  \\      /  F ield         | OpenFOAM: The Open Source CFD Toolbox
   \\    /   O peration     | Website:  https://openfoam.org
    \\  /    A nd           | Version:  7
     \\/     M anipulation  |
\*---------------------------------------------------------------------------*/
FoamFile
{
    version     2.0;
    format      ascii;
    class       volScalarField;
    location    "310";
    object      nut;
}
// * * * * * * * * * * * * * * * * * * * * * * * * * * * * * * * * * * * * * //

dimensions      [0 2 -1 0 0 0 0];

internalField   nonuniform List<scalar> 
25201
(
6.8139702
6.8022134
6.8139878
6.8022496
6.6854082
6.7716668
6.7912993
6.8287059
6.8137138
6.7455944
6.813698
6.7716495
6.7310329
6.1693177
6.0621091
6.6025645
6.5124032
6.4279386
6.3881418
6.1499215
6.3193489
6.3229455
6.3939981
6.2710808
6.2598681
6.103508
6.2095098
6.4319559
6.3728457
6.1438088
6.18993
6.2522874
5.8817045
5.9526196
6.0436433
6.0620466
6.2524866
6.1883399
5.9729064
5.9008228
6.1400763
6.113064
6.116997
5.8438278
5.8638759
5.9039823
6.1308976
6.4272462
6.6774204
6.7310619
6.7808119
6.7341485
6.5712779
6.6353955
6.701829
6.6671054
6.6387705
6.5569065
6.5931602
6.3572836
6.3909141
6.4780348
6.5111633
6.5650453
6.5968076
6.73068
6.6657949
6.4528139
6.4039234
6.2319505
6.183366
6.2392164
6.4815589
6.5252861
6.4733533
6.0674107
6.1218637
6.188841
6.2081913
6.2666962
6.3434035
6.4100854
6.2990031
6.3107618
6.2364135
6.337256
6.2026324
6.1690933
6.0545975
6.1189143
6.039446
5.9933395
5.9841473
5.9898765
5.9795694
6.0468748
6.045012
5.9786265
5.8567122
5.9392673
5.9426108
5.8648126
5.8771158
5.9551481
5.9593134
5.8944697
5.7508003
5.84306
5.9002617
5.891094
5.8222922
5.8285019
5.7303449
5.7211079
5.5716519
5.6869455
5.6909943
5.5813395
5.5925903
5.7401482
5.8380195
5.7053166
5.709992
5.603087
5.4393201
5.5763034
5.6792222
5.9001826
6.118964
5.9729795
5.9009189
5.8639346
5.9040913
5.9379837
6.0117083
6.0934926
6.2027476
6.2991064
6.4780579
6.6387832
6.6671062
6.5111476
6.3572556
6.3908949
6.5569192
6.5931433
6.6353547
6.701808
6.7807793
6.7306644
6.5967881
6.5649819
6.4039182
6.4527159
6.665729
6.6048136
6.7340964
6.6773613
6.4815837
6.5252825
6.1833531
6.2391673
6.3372671
6.343441
6.4101344
6.2667251
6.2082162
6.1888015
6.0490456
6.1182243
6.2363987
6.3107738
6.1726607
6.2636673
6.3142458
6.198623
6.1725508
6.1523166
5.9384717
5.9582307
5.7605652
5.8254061
5.8471562
5.7529672
5.747069
5.6388825
5.7297094
5.7268827
5.6174075
5.4533329
5.5928668
5.710253
5.9383637
6.1523747
5.9934131
6.0394123
6.0544506
5.5926255
5.7053683
5.8381505
5.9551664
5.9594464
5.8946324
5.9842231
5.9898207
5.8769513
5.7403228
5.7508882
5.8431147
5.710103
5.6032164
5.4394176
5.5762898
5.5687978
5.5546041
5.661893
6.8021483
6.8138156
6.6775594
6.4319681
6.3728245
6.1170816
5.9527115
6.1898845
6.1438029
6.1401766
6.1130104
5.8638623
5.8436574
5.8815956
5.9008309
5.9729329
6.1882961
6.2525241
6.2522192
6.0436373
6.0620087
6.1691395
6.3228878
6.5123422
0.0011090296
0.0051167999
0.01231356
0.021261948
0.28447871
0.29024217
0.022034789
0.012739936
0.0052876559
0.0011389622
0.0011538942
0.0054359317
0.013113388
0.022657901
0.29680008
0.30057134
0.022886937
0.013256313
0.0054966844
0.0011612558
0.0011639792
0.0055212114
0.013312273
0.022965787
0.30292986
0.30445284
0.023001112
0.01334001
0.0055339236
0.0011654203
0.0011665637
0.0055468383
0.013370716
0.023044891
0.30559729
0.30657133
0.023102424
0.013406963
0.0055612809
0.001167706
0.0011689018
0.0055778481
0.013449313
0.023171377
0.30746991
0.30835533
0.023246252
0.013494009
0.0055950793
0.0011701045
0.0011713534
0.0056135292
0.013541732
0.023325722
0.30923881
0.31014556
0.023407474
0.013590272
0.0056322058
0.001172603
0.0011739028
0.0056519326
0.013641292
0.023492631
0.31107315
0.31203271
0.023579716
0.013693057
0.0056718898
0.0011752114
0.0011765768
0.0056928907
0.01374726
0.02367014
0.31301823
0.31403991
0.02376282
0.013802441
0.0057142162
0.0011779603
0.001179405
0.005736587
0.013860083
0.023858943
0.31509254
0.31618519
0.023957634
0.01391891
0.0057593639
0.0011808765
0.0011824124
0.0057831789
0.013980156
0.02405974
0.31731125
0.31847824
0.024164771
0.014042829
0.0058074946
0.0011839839
0.0011856221
0.0058328506
0.014107891
0.024273161
0.31968133
0.32092813
0.02438474
0.014174567
0.0058587817
0.0011872986
0.0011890397
0.0058857432
0.014243624
0.02449976
0.32221519
0.32354815
0.024617972
0.014314302
0.005913282
0.0011908206
0.0011926681
0.0059418524
0.014387375
0.024739695
0.32492034
0.32633488
0.02486464
0.014462144
0.0059710475
0.0011945594
0.0011965228
0.0060012819
0.014539323
0.024993172
0.32778851
0.32928742
0.025125368
0.014618483
0.006032259
0.0011985447
0.0012006511
0.0060643484
0.014700255
0.025261529
0.33083245
0.33243086
0.025402099
0.014784481
0.0060973556
0.0012028205
0.0012050534
0.0061315121
0.014871113
0.025546018
0.33408096
0.33577434
0.025693348
0.014959508
0.0061663059
0.0012073546
0.37648622
0.023180341
0.013624722
0.0056804652
0.0011575763
0.0011555047
0.0056489864
0.013544773
0.023048142
0.37460531
0.37276175
0.022917812
0.013465584
0.0056176998
0.0011534871
0.0011515075
0.0055870625
0.013387462
0.022788731
0.3709591
0.36921493
0.02266375
0.013311798
0.0055574116
0.0011495738
0.0011477141
0.0055287476
0.013238395
0.022542095
0.36752825
0.36589937
0.02242451
0.013167185
0.0055008579
0.0011459102
0.0011441676
0.005473894
0.013098005
0.022309839
0.36432181
0.36279896
0.022199189
0.013030993
0.0054476989
0.0011424725
0.0011408406
0.0054225101
0.012966205
0.022091675
0.36132696
0.35990458
0.021988234
0.012903586
0.0053980688
0.0011392568
0.00113773
0.0053744361
0.012842673
0.021887034
0.35852205
0.3571837
0.02178924
0.012783473
0.0053513659
0.0011362415
0.0011348079
0.0053291191
0.012725968
0.021693575
0.35588639
0.35463334
0.021601475
0.012670233
0.0053074393
0.0011334097
0.0011320652
0.0052865807
0.012616147
0.021511302
0.35341643
0.35225145
0.021425203
0.012564007
0.0052663133
0.0011307543
0.0011294917
0.0052468069
0.012513283
0.02134046
0.35111705
0.35002344
0.021259324
0.012464195
0.0052277618
0.001128252
0.0011270548
0.0052094611
0.012416463
0.021179422
0.34895502
0.34792131
0.021102814
0.012370138
0.0051915183
0.001125871
0.0011247229
0.005174342
0.01232526
0.021027631
0.34691251
0.34592857
0.020956113
0.012281903
0.0051575428
0.0011235817
0.0011224727
0.0051416753
0.012240529
0.02088719
0.34495128
0.34396227
0.020825074
0.012202005
0.0051265552
0.001121373
0.0011203055
0.0051131559
0.012168095
0.020771341
0.34290249
0.34169998
0.020731827
0.012139932
0.0051011726
0.0011192176
0.0011178126
0.0050891895
0.012113219
0.02069725
0.34013098
0.33776172
0.020627463
0.012062456
0.0050662908
0.0011150597
0.0011083613
0.0050126343
0.011934505
0.020424892
0.33395483
0.32819582
0.019972314
0.011664428
0.0049018747
0.0010943601
0.0010742966
0.0047280416
0.011250327
0.01927152
0.32133379
0.30092062
0.017244628
0.0099528691
0.0041972175
0.0010358203
0.0010724535
0.0047354061
0.011269083
0.019298163
0.32184296
0.32876985
0.019997035
0.011680298
0.0049080514
0.0010933627
0.0011079004
0.0050192522
0.011950825
0.020450437
0.33443434
0.3381299
0.020646417
0.0120746
0.0050713338
0.0011147832
0.0011176659
0.005093355
0.012123567
0.020713835
0.34045114
0.34197366
0.020744178
0.012147696
0.0051043778
0.0011191263
0.001120257
0.0051159021
0.012175068
0.020782829
0.34314679
0.34416665
0.020833763
0.01220731
0.0051287071
0.0011213417
0.0011224596
0.0051435481
0.012245349
0.020895282
0.3451304
0.34608771
0.020962218
0.012285575
0.0051590334
0.0011235742
0.0011247261
0.0051756942
0.012328787
0.021033669
0.34705096
0.34804272
0.021107243
0.01237278
0.0051925985
0.0011258759
0.0011270687
0.0052104915
0.01241916
0.021184078
0.34906195
0.35011863
0.021262765
0.012466274
0.005228631
0.0011282688
0.0011295187
0.0052477442
0.012515723
0.021344652
0.35120777
0.35233745
0.021428554
0.012566047
0.0052671621
0.0011307843
0.0011321039
0.005287553
0.012618694
0.021515691
0.35350338
0.35471216
0.021605054
0.012672376
0.0053083126
0.0011334462
0.0011348462
0.0053300479
0.012728388
0.021697714
0.35596001
0.3572529
0.021792801
0.012785588
0.0053522172
0.0011362741
0.0011377605
0.0053753441
0.012845061
0.021891129
0.35858687
0.35996753
0.021992072
0.012905851
0.0053989605
0.001139279
0.0011408578
0.0054234876
0.01296878
0.022096066
0.36139321
0.36286748
0.022203024
0.013033252
0.0054485833
0.0011424791
0.0011441683
0.0054747207
0.013100227
0.022313712
0.36439294
0.3659736
0.022427652
0.013168985
0.0055015452
0.0011459038
0.0011477084
0.0055293899
0.013240159
0.022545233
0.36760651
0.36929701
0.022666382
0.013313291
0.0055579771
0.0011495706
0.0011515143
0.0055876673
0.013389088
0.022791575
0.371044
0.37284834
0.022920756
0.013467357
0.0056183993
0.0011535089
0.0011555474
0.0056499619
0.013547235
0.0230521
0.37469581
0.37658773
0.023185751
0.01362805
0.0056817605
0.0011576424
0.001159825
0.0057144339
0.01371101
0.023322847
0.37854905
0.0012007115
0.0061043013
0.014774926
0.025325793
0.33712094
0.33537415
0.02517727
0.014685663
0.0060691055
0.0011983675
0.0011960978
0.0060345257
0.014597889
0.025031298
0.33367267
0.33202201
0.024889645
0.014512559
0.0060008985
0.0011938996
0.0011917565
0.0059680581
0.014428871
0.024750353
0.33041234
0.32885567
0.024615366
0.014347659
0.0059361765
0.0011896615
0.0011876424
0.0059053577
0.014268863
0.024483965
0.32734852
0.32589165
0.02435703
0.014192486
0.0058754018
0.0011856847
0.0011837975
0.0058464633
0.014118309
0.024233209
0.32447694
0.32311532
0.024114036
0.014046611
0.0058183947
0.0011819687
0.0011802099
0.0057912755
0.013976913
0.023997532
0.3217915
0.3205129
0.023885205
0.013909368
0.0057648831
0.0011785027
0.0011768591
0.0057393959
0.013843716
0.02377537
0.31927116
0.31807127
0.023669399
0.013780009
0.0057145468
0.0011752574
0.0011737145
0.0056905929
0.01371814
0.023565756
0.31690783
0.3157869
0.023466127
0.013658242
0.0056672586
0.0011722089
0.0011707592
0.0056448011
0.01360009
0.023368563
0.3146988
0.31365011
0.023274898
0.013543795
0.0056229026
0.0011693403
0.0011679736
0.0056018739
0.013489206
0.023183168
0.31263302
0.31165279
0.023095279
0.013436388
0.0055813551
0.0011666316
0.0011653369
0.005561699
0.01338522
0.023009127
0.31070135
0.30978301
0.022926763
0.013335733
0.0055425021
0.001164059
0.0011628214
0.0055241747
0.013287898
0.022846101
0.30888896
0.30802144
0.02276984
0.01324196
0.0055063483
0.0011615929
0.0011604014
0.0054896016
0.013198307
0.022696615
0.30715882
0.30628883
0.02263166
0.013158208
0.0054738334
0.0011592232
0.001158089
0.0054601758
0.013123742
0.022577006
0.30535027
0.30427525
0.022539778
0.01309658
0.0054484758
0.0011569434
0.0011554465
0.0054370122
0.013071613
0.022509144
0.30284598
0.30062676
0.022435334
0.013018173
0.0054131464
0.0011523391
0.0011444673
0.0053560631
0.012879641
0.022210893
0.2971052
0.29196342
0.021701486
0.012583233
0.005237722
0.0011277036
0.0011011159
0.0050720014
0.012167798
0.020960123
0.28618218
0.28554344
0.021319513
0.012367421
0.0051486345
0.0011050966
0.0011390508
0.0052798226
0.012714895
0.021998048
0.29002283
0.29694453
0.022673568
0.013123171
0.0054396684
0.0011538285
0.0011613381
0.0054991004
0.013261664
0.022894949
0.30062487
0.30300417
0.022973299
0.01331676
0.0055230058
0.0011639804
0.0011654379
0.0055357018
0.013344249
0.023007302
0.30451442
0.30566209
0.023049768
0.013373505
0.0055479098
0.0011665489
0.0011677209
0.0055626517
0.013410266
0.023107197
0.30662941
0.30752545
0.023175268
0.013451501
0.0055786734
0.0011688969
0.0011701281
0.0055962573
0.013496853
0.023250335
0.3083989
0.30928194
0.023329097
0.013543603
0.0056142243
0.001171357
0.0011726325
0.0056332413
0.013592778
0.023411076
0.31018137
0.31111026
0.023495611
0.013642933
0.0056525416
0.0011739135
0.0011752457
0.0056728468
0.013695377
0.02358309
0.31206704
0.31305448
0.023672946
0.01374881
0.0056934659
0.0011765936
0.0011779996
0.0057151324
0.013804666
0.023766088
0.31407281
0.31512745
0.023861848
0.013861705
0.0057371929
0.0011794288
0.0011809198
0.0057603022
0.013921178
0.023960988
0.3162169
0.31734565
0.024063046
0.013982021
0.0057838753
0.0011824406
0.0011840262
0.0058084782
0.014045228
0.02416839
0.31851159
0.31971663
0.024276828
0.014109958
0.0058336137
0.0011856482
0.0011873396
0.0058598012
0.014177131
0.024388793
0.32095941
0.32224372
0.02450403
0.014245978
0.0058865949
0.0011890752
0.0011908832
0.0059144319
0.014317225
0.024622726
0.32356724
0.32493397
0.024744886
0.014390284
0.0059429335
0.0011927411
0.0011946734
0.0059724963
0.014465802
0.024870673
0.32634426
0.32780301
0.02500005
0.014543272
0.0060027976
0.0011966589
0.0011987165
0.0060341789
0.014623278
0.025133278
0.32931127
0.33087462
0.025270068
0.014705219
0.0060662864
0.0012008251
0.0012030023
0.0060994605
0.01478965
0.025410648
0.33249142
0.33415866
0.025555228
0.01487632
0.0061334855
0.0012052348
0.001207545
0.0061686401
0.014965434
0.025703317
0.33587448
0.3376359
0.025855246
0.015056688
0.0062046139
0.0012099221
0.0012006808
0.0061039659
0.014774076
0.025324354
0.33710758
0.33536623
0.025175984
0.014684886
0.0060687918
0.0011983333
0.0011960608
0.0060342122
0.014597121
0.025030027
0.33366808
0.33201958
0.024888331
0.014511759
0.0060005649
0.0011938615
0.0011917188
0.0059677191
0.01442805
0.024748998
0.33041074
0.32885364
0.024613947
0.014346802
0.0059358271
0.0011896265
0.0011876117
0.005905007
0.014267999
0.024482526
0.32734333
0.32588385
0.024355526
0.014191596
0.0058750507
0.0011856587
0.001183777
0.0058461263
0.014117463
0.024231805
0.32446828
0.32310209
0.024112372
0.014045636
0.0058180199
0.0011819498
0.0011801936
0.0057909269
0.013976016
0.02399604
0.3217773
0.32049932
0.023883792
0.013908517
0.0057645521
0.0011784883
0.0011768467
0.0057391001
0.013842969
0.023774153
0.31925855
0.31806088
0.02366835
0.013779349
0.0057142807
0.0011752462
0.0011737046
0.0056903635
0.013717583
0.023564877
0.31689807
0.3157812
0.023465478
0.013657802
0.0056670708
0.0011722011
0.001170754
0.0056446557
0.013599761
0.023368089
0.31469465
0.31364783
0.023274531
0.013543518
0.0056227755
0.0011693368
0.0011679723
0.005601786
0.013489014
0.023182915
0.31263011
0.31165366
0.023095293
0.013436328
0.0055813108
0.0011666336
0.0011653414
0.0055616787
0.013385202
0.023009165
0.31070189
0.30978242
0.022926923
0.013335765
0.0055424956
0.0011640656
0.0011628299
0.0055241788
0.013287946
0.022846246
0.30888971
0.30802075
0.022769853
0.013241923
0.0055063249
0.0011616021
0.0011604111
0.0054895621
0.013198229
0.022696544
0.30715663
0.30628419
0.022631332
0.013157986
0.0054737456
0.0011592316
0.0011580972
0.0054601131
0.013123592
0.022576819
0.30534998
0.30427505
0.02253929
0.013096273
0.0054483595
0.0011569465
0.0011554413
0.0054369962
0.013071513
0.022508904
0.30285058
0.30064412
0.022435118
0.013018097
0.0054131218
0.0011523207
0.0011443702
0.0053555596
0.012878539
0.022208959
0.29712757
0.2920112
0.021698066
0.012581505
0.0052370541
0.0011275775
0.0011003753
0.0050694307
0.012163288
0.020951954
0.28635181
0.32273209
0.019349426
0.0113198
0.0047628136
0.0010686392
0.0010932162
0.0049035597
0.011663218
0.019969281
0.32851969
0.33447635
0.020454272
0.011952943
0.0050199148
0.0011079019
0.0011149669
0.0050722171
0.012076155
0.020648459
0.33815043
0.34044594
0.020713659
0.012123063
0.0050931274
0.0011177341
0.0011191868
0.0051043463
0.012147493
0.020743463
0.34194481
0.34311152
0.020781094
0.01217367
0.0051153051
0.0011202702
0.0011213693
0.0051285347
0.012206774
0.020832459
0.34413068
0.3450963
0.020893531
0.012244036
0.0051430024
0.00112246
0.0011235943
0.0051589551
0.012285284
0.020961317
0.34604952
0.34702011
0.021032431
0.012327787
0.0051752642
0.0011247219
0.0011258888
0.0051925449
0.012372569
0.021106535
0.34801322
0.3490374
0.021182936
0.012418229
0.0052100897
0.0011270589
0.0011282736
0.0052285472
0.012465986
0.021261966
0.35009178
0.35118387
0.021343403
0.012514738
0.0052473213
0.0011295014
0.0011307791
0.0052670014
0.012565564
0.021427472
0.35231171
0.35347984
0.02151413
0.012617541
0.0052870665
0.001132078
0.0011334298
0.0053080475
0.012671626
0.021603564
0.35468582
0.35593501
0.021695686
0.012726968
0.0053294578
0.0011348087
0.0011362451
0.0053518037
0.012784468
0.021790755
0.3572267
0.35856109
0.021888457
0.012843284
0.0053746234
0.0011377142
0.001139246
0.0053984262
0.012904409
0.02198949
0.35993837
0.36136407
0.022093241
0.012966931
0.0054227449
0.0011408175
0.0011424615
0.0054480733
0.013031893
0.022200644
0.36283801
0.36436654
0.0223114
0.01309869
0.0054741038
0.0011441569
0.0011459221
0.0055012219
0.013168074
0.022426039
0.36594705
0.36758231
0.022543924
0.013239246
0.0055290304
0.0011477362
0.0011496213
0.0055578764
0.013312892
0.022665582
0.3692704
0.37101487
0.022790817
0.013388545
0.0055874675
0.0011515609
0.0011535545
0.0056182469
0.013466828
0.022919748
0.37281265
0.37465451
0.023050819
0.013546323
0.0056495872
0.0011555707
0.0011576498
0.0056812428
0.013626551
0.023183133
0.37653898
0.37849172
0.023320382
0.013709529
0.0057138796
0.0011598201
0.33755323
0.025848395
0.015052659
0.0062030455
0.0012098213
0.0012074281
0.0061670096
0.014961224
0.025696095
0.33579227
0.33409234
0.025549067
0.01487283
0.0061321434
0.001205126
0.0012028955
0.0060979462
0.014785828
0.025404062
0.33242908
0.33082071
0.025263443
0.014701346
0.0060647472
0.0012007096
0.0011985902
0.0060325795
0.014619148
0.025126112
0.32926665
0.32776537
0.024993476
0.01453947
0.0060012966
0.0011965334
0.0011945498
0.005971018
0.014461953
0.024863894
0.32631015
0.3249022
0.024738838
0.01438683
0.0059415789
0.0011926258
0.0011907726
0.0059131029
0.014313748
0.02461657
0.32353593
0.32221436
0.024498979
0.0142431
0.0058854606
0.0011889781
0.0011872541
0.0058587401
0.014174347
0.024383847
0.32093105
0.31968803
0.02427318
0.014107849
0.0058327616
0.0011855797
0.001183967
0.0058076703
0.01404311
0.024164625
0.31848282
0.31731733
0.024060368
0.013980471
0.0057832356
0.0011823944
0.001180879
0.0057596689
0.013919504
0.023957981
0.31618705
0.31509577
0.023859733
0.013860492
0.0057366817
0.0011793967
0.0011779683
0.0057145712
0.013803154
0.02376331
0.31403818
0.3130186
0.023671018
0.013747725
0.005693006
0.0011765685
0.0011752186
0.0056722998
0.013693891
0.023580329
0.31202956
0.31107493
0.023493704
0.013641876
0.0056520908
0.0011738909
0.0011726073
0.0056327114
0.01359134
0.023408407
0.31014638
0.30924658
0.02332723
0.013542574
0.0056137834
0.0011713366
0.0011701046
0.0055957334
0.013495416
0.023247634
0.3083633
0.30748844
0.023173894
0.013450729
0.005578317
0.0011688806
0.0011677022
0.0055622369
0.013409101
0.023104911
0.30659659
0.30563488
0.023048806
0.013373027
0.0055476795
0.001166537
0.0011654249
0.0055355684
0.013343747
0.023006036
0.30449259
0.30298759
0.022973708
0.013317129
0.0055231224
0.0011639731
0.0011613109
0.0054998729
0.013263398
0.022897277
0.3006299
0.29693898
0.022674031
0.013122738
0.0054392763
0.0011537081
0.0011384525
0.0052835126
0.012723386
0.022009674
0.29008771
0.2853191
0.021311732
0.012363804
0.0051473267
0.0011042177
0.0011089102
0.0051286081
0.012339841
0.021300259
0.28487154
0.29048007
0.022047237
0.012748521
0.0052915145
0.0011385059
0.0011535293
0.0054385759
0.013119248
0.022666307
0.29698604
0.30071803
0.022895734
0.013261954
0.0054989906
0.0011610516
0.0011638694
0.0055234412
0.013317621
0.022973948
0.30305556
0.30455301
0.023009253
0.013345161
0.0055359806
0.0011653673
0.0011665358
0.0055485824
0.013374958
0.023051391
0.30568389
0.30664578
0.023108609
0.013410909
0.0055628582
0.0011676968
0.0011689001
0.0055791671
0.01345254
0.023176309
0.30753218
0.3084031
0.02325114
0.013497118
0.0055963109
0.0011701108
0.0011713599
0.0056145247
0.013544151
0.023329359
0.3092794
0.3101792
0.023411365
0.013592754
0.0056331837
0.0011726163
0.001173917
0.0056527483
0.013643252
0.023495542
0.31110327
0.31206203
0.023583067
0.013695201
0.0056727405
0.0011752326
0.0011765997
0.0056936462
0.013749097
0.023672913
0.31304738
0.31406938
0.023766102
0.013804516
0.0057150349
0.0011779904
0.0011794368
0.0057373538
0.013861953
0.023861811
0.31512366
0.31621766
0.023961082
0.013921064
0.0057602145
0.0011809133
0.0011824482
0.0057840003
0.013982179
0.024062911
0.31734865
0.31852288
0.024168429
0.014045098
0.0058083902
0.0011840185
0.0011856486
0.0058337126
0.01411008
0.024276721
0.31973373
0.32098707
0.024388594
0.01417685
0.0058596476
0.0011873164
0.001189045
0.0058864902
0.014245588
0.024503086
0.32227787
0.32361087
0.02462129
0.014316226
0.0059139963
0.0011908185
0.0011926583
0.005942472
0.014389021
0.024742498
0.32498331
0.32639936
0.024867565
0.014463875
0.0059716951
0.0011945494
0.0011965154
0.0060019432
0.014541048
0.024996016
0.327856
0.32936101
0.025128727
0.014620553
0.0060330613
0.0011985464
0.0012006629
0.0060653084
0.014702716
0.025265525
0.33091645
0.33252979
0.025406923
0.014787454
0.0060985254
0.0012028464
0.0012050987
0.0061329203
0.014874666
0.025551818
0.33418819
0.33588504
0.025700187
0.014963584
0.0061678661
0.0012074206
0.0012098329
0.0062039209
0.015054953
0.025852229
0.33763926
6.8851634
6.8817001
6.8851458
6.8816649
6.8312893
6.8550405
6.8641855
6.9022293
6.8969238
6.855054
6.8043705
6.861344
6.8969114
6.8801518
6.8277749
6.7946779
6.7650606
6.6492799
6.6845604
6.5603633
6.7413355
6.7085366
6.5064837
6.3480998
6.6532979
6.7965774
6.8537717
6.737898
6.7829211
6.8170666
6.8573675
6.7733018
6.7359903
6.6171076
6.6728343
6.546279
6.7768785
6.7438763
6.7025464
6.6494435
6.6902614
6.4116012
6.3097476
6.2411722
6.6113339
6.5576552
6.5240421
6.5711853
6.2318075
6.2869206
6.1757714
6.1176069
6.0672201
6.1218514
6.4271976
6.4732527
6.4733072
6.6773604
6.8021241
6.8137952
6.7715298
6.7309303
0.28702741
0.020946923
0.012162359
0.0050694028
0.0011055338
0.0011292371
0.0052296912
0.01256133
0.021661925
0.29200892
0.29689104
0.022172783
0.012856172
0.0053466952
0.001144912
0.0011525541
0.0054063296
0.01300093
0.022407343
0.30037005
0.30262948
0.022489661
0.013058735
0.005431738
0.001155537
0.0011570171
0.005444895
0.013087464
0.022525235
0.30409446
0.30522074
0.022566628
0.013116543
0.0054571986
0.0011581171
0.0011592587
0.0054718724
0.013153104
0.022623479
0.30617761
0.30707719
0.022690682
0.013193971
0.0054877859
0.0011604078
0.001161614
0.0055052321
0.013238971
0.022765019
0.30795633
0.30884222
0.022842631
0.013285179
0.0055230125
0.0011628198
0.0011640735
0.0055418547
0.013333943
0.022923866
0.30974374
0.310672
0.02300694
0.013383381
0.0055609014
0.0011653317
0.0011666426
0.0055809702
0.013435256
0.023093405
0.31162598
0.31261458
0.02318179
0.013487931
0.0056013063
0.0011679676
0.001169351
0.0056226941
0.013543119
0.023273742
0.3136305
0.31468272
0.023367841
0.013599268
0.0056444132
0.0011707554
0.0011722212
0.0056671676
0.013657864
0.02346542
0.31576797
0.31689209
0.023565508
0.013717673
0.0056903562
0.0011737166
0.0011752767
0.0057146153
0.013780036
0.023669342
0.31805141
0.3192514
0.023775878
0.013843741
0.0057393555
0.0011768707
0.0011785311
0.0057651306
0.013909871
0.023885938
0.32048871
0.32176782
0.023999025
0.013977545
0.0057914696
0.0011802323
0.0011820022
0.0058188458
0.014047639
0.024115643
0.32308594
0.32444761
0.024235478
0.014119428
0.0058468519
0.0011838186
0.0011857069
0.0058759147
0.014193693
0.024359017
0.3258533
0.32730571
0.024485845
0.014269757
0.0059056609
0.0011876465
0.0011896609
0.0059364979
0.014348399
0.024616619
0.3288057
0.3303582
0.024750922
0.014428998
0.0059680879
0.001191731
0.001193877
0.0060007629
0.01451212
0.024889039
0.3319626
0.33361957
0.025031185
0.014597509
0.0060343125
0.0011960851
0.0011983697
0.0060688968
0.014685224
0.025176807
0.33532833
0.3370904
0.025326517
0.014775254
0.0061043808
0.0012007208
0.0011982959
0.0060679277
0.014682567
0.025172074
0.33528568
0.33359779
0.025028206
0.014595946
0.006033733
0.0011960419
0.0011938484
0.006000212
0.014510704
0.024886387
0.33195252
0.33034994
0.024747409
0.014426915
0.0059672052
0.0011916956
0.0011896031
0.0059353169
0.014345437
0.02461159
0.32879724
0.32729638
0.024480443
0.014266532
0.0059043541
0.0011875744
0.0011856198
0.0058744109
0.014189871
0.024352506
0.32584363
0.32443659
0.024228978
0.014115558
0.005845301
0.0011837234
0.0011819011
0.0058172474
0.014043516
0.024108597
0.32306963
0.32175179
0.023993105
0.013974073
0.0057901065
0.0011801397
0.0011784488
0.005763983
0.01390682
0.023880575
0.32047422
0.31923653
0.023771936
0.013841459
0.005738454
0.0011768028
0.0011752168
0.0057137299
0.013777728
0.023665306
0.31803236
0.31686909
0.023562668
0.01371597
0.005689646
0.0011736706
0.0011721815
0.0056664594
0.013655995
0.02346212
0.31574077
0.31464976
0.023365587
0.013597917
0.0056438414
0.0011707258
0.0011693233
0.005622082
0.0135415
0.023270858
0.31359838
0.31257955
0.02317978
0.013486739
0.0056007933
0.0011679468
0.0011666201
0.0055803579
0.013433621
0.023090434
0.31158785
0.31063139
0.023004771
0.013382107
0.0055603547
0.0011653138
0.0011640516
0.0055411537
0.013332057
0.022920431
0.30969543
0.30879538
0.022840246
0.013283754
0.0055223975
0.0011628029
0.0011615941
0.0055044688
0.013236947
0.022761405
0.30790627
0.30702586
0.022687684
0.013192198
0.0054870405
0.0011603919
0.0011592406
0.0054709592
0.013150706
0.022619287
0.30612344
0.30516291
0.022563465
0.013114593
0.0054563575
0.0011581104
0.0011570164
0.0054438915
0.013084906
0.02252086
0.30403446
0.30255553
0.022486864
0.013056846
0.0054308618
0.001155575
0.0011526392
0.0054054503
0.012999308
0.022405513
0.30026083
0.29662967
0.022173538
0.012854271
0.0053450718
0.0011451143
0.0011294561
0.0052278031
0.012561464
0.021670946
0.29145624
0.28554258
0.020927676
0.012135003
0.0050549489
0.0011053839
0.0010691067
0.0047395958
0.011338064
0.019590006
0.27430438
0.28589793
0.022421333
0.012908633
0.0053110048
0.0011229392
0.0011086093
0.0051717139
0.012417901
0.021395863
0.28694432
0.29021726
0.021998632
0.012717719
0.0052820826
0.0011403822
0.0011542633
0.0054373218
0.01311634
0.022660326
0.29691636
0.30049126
0.022878808
0.013251574
0.005495163
0.0011615646
0.0011641534
0.0055203467
0.013309888
0.022961705
0.30286249
0.30437912
0.022996833
0.013337322
0.0055328765
0.0011655348
0.0011666374
0.0055460021
0.013368593
0.023041506
0.30553511
0.30651508
0.023099626
0.01340516
0.0055605551
0.0011677569
0.0011689375
0.0055772212
0.013447718
0.023168808
0.3074196
0.30830698
0.023244388
0.013492802
0.0055945934
0.0011701324
0.0011713742
0.0056131127
0.013540658
0.023323983
0.30920162
0.3101167
0.023406264
0.013589513
0.005631909
0.0011726224
0.0011739221
0.0056517433
0.013640786
0.023491793
0.31104887
0.31201207
0.023579384
0.013692854
0.0056718157
0.0011752323
0.0011765992
0.0056929084
0.013747286
0.023670166
0.31300421
0.31403546
0.023763343
0.013802751
0.005714341
0.0011779854
0.001179432
0.0057368078
0.013860651
0.023859909
0.31509374
0.3161891
0.023958899
0.013919668
0.0057596643
0.0011809041
0.0011824388
0.0057835781
0.01398118
0.024061461
0.31731818
0.31848622
0.024166638
0.014043951
0.0058079344
0.0011840038
0.0011856351
0.0058333428
0.014109208
0.02427543
0.31968921
0.32093247
0.024387023
0.014175873
0.005859263
0.0011873039
0.0011890416
0.0058862296
0.014244982
0.024502196
0.3222141
0.32354061
0.024620514
0.014315735
0.0059137991
0.001190824
0.0011926803
0.0059424335
0.014388988
0.02474256
0.32490874
0.3263248
0.024868033
0.014464069
0.0059717549
0.0011945881
0.0011965708
0.0060021571
0.014541668
0.024997256
0.32778599
0.3292947
0.025130066
0.014621251
0.0060333142
0.0011986106
0.0012007308
0.0060656215
0.014703523
0.025266965
0.33084988
0.33245649
0.025407955
0.014788123
0.0060988306
0.0012029152
0.0012051879
0.0061333606
0.014875693
0.025553284
0.33411209
0.33581965
0.025704114
0.014966772
0.0061694724
0.0012075425
0.001209958
0.0062082321
0.01506093
0.025856746
0.33757711
0.0011982882
0.0060675211
0.014681714
0.025170882
0.33528661
0.33358696
0.025025296
0.014594076
0.0060329675
0.0011960077
0.0011937932
0.005999343
0.014508444
0.024882694
0.33193687
0.33034358
0.02474528
0.014425768
0.0059668398
0.0011916516
0.0011895889
0.0059353988
0.014345488
0.024611432
0.32880214
0.32730951
0.024482044
0.014267622
0.0059048274
0.0011875919
0.0011856684
0.0058752457
0.014191896
0.024355697
0.32586164
0.32445784
0.024233445
0.014118365
0.0058464414
0.0011838003
0.0011820025
0.005818517
0.014046771
0.024113946
0.32309296
0.32176202
0.023996819
0.013976181
0.00579086
0.0011802343
0.0011785146
0.0057642396
0.013907642
0.023882288
0.32047003
0.31922406
0.023771756
0.0138412
0.0057383264
0.0011768324
0.0011752297
0.0057137019
0.013777608
0.023665188
0.3180236
0.31686168
0.023562719
0.013715978
0.0056896537
0.0011736796
0.001172189
0.005666485
0.013656089
0.023462346
0.31573872
0.31465222
0.023365846
0.013598045
0.0056438831
0.0011707336
0.0011693329
0.0056221239
0.013541628
0.023271099
0.31359685
0.31257566
0.023179734
0.013486728
0.0056007918
0.0011679567
0.0011666305
0.0055803103
0.013433495
0.02309023
0.31158006
0.31061979
0.023004133
0.013381749
0.0055602234
0.0011653233
0.0011640612
0.0055409842
0.013331629
0.022919746
0.30968185
0.3087774
0.022839093
0.013283083
0.0055221414
0.0011628128
0.0011616062
0.0055041642
0.013236188
0.022760187
0.30788374
0.30700099
0.022686203
0.013191293
0.0054866768
0.0011604076
0.0011592618
0.0054705601
0.013149723
0.022617714
0.30609205
0.3051323
0.022561809
0.013113554
0.0054559301
0.0011581398
0.001157056
0.0054434587
0.013083833
0.022519126
0.30400074
0.30252437
0.022484667
0.013055502
0.0054303113
0.0011556218
0.0011527001
0.005405049
0.012998265
0.022403734
0.30024916
0.29666196
0.022173801
0.01285457
0.0053452479
0.001145211
0.0011296485
0.0052293529
0.012565266
0.021677138
0.29159645
0.28579537
0.020942004
0.012142682
0.0050579976
0.0011058025
0.0010702462
0.0047669548
0.011407588
0.019701586
0.27544175
0.30499979
0.017662523
0.010218777
0.0043020381
0.001045021
0.0011020389
0.0050255288
0.012076045
0.020803453
0.28089437
0.28461306
0.020906214
0.012142843
0.0050529481
0.0010987202
0.0011043369
0.0050646584
0.012151079
0.020930503
0.28682334
0.29198958
0.021663921
0.012562408
0.0052303187
0.0011289032
0.0011446799
0.0053466946
0.012856517
0.022173339
0.29690259
0.30043866