/*--------------------------------*- C++ -*----------------------------------*\
  =========                 |
  \\      /  F ield         | OpenFOAM: The Open Source CFD Toolbox
   \\    /   O peration     | Website:  https://openfoam.org
    \\  /    A nd           | Version:  7
     \\/     M anipulation  |
\*---------------------------------------------------------------------------*/
FoamFile
{
    version     2.0;
    format      ascii;
    class       volVectorField;
    location    "310";
    object      U;
}
// * * * * * * * * * * * * * * * * * * * * * * * * * * * * * * * * * * * * * //

dimensions      [0 1 -1 0 0 0 0];

internalField   nonuniform List<vector> 
25201
(
(120.03022 0.020295895 0.013390847)
(120.03153 0.025096042 0.0046746459)
(120.02988 0.013962168 0.01988262)
(120.03046 0.0050316961 0.024638271)
(120.01316 0.020965566 0.020100867)
(120.02642 0.015250303 0.020362953)
(120.02886 0.018192122 0.017418112)
(120.03296 0.022807 0.022320583)
(120.03275 0.017100306 0.023191682)
(120.0219 0.017838643 0.017443167)
(120.03304 0.023681698 0.016675734)
(120.02694 0.021069427 0.014361667)
(120.01997 0.026506192 0.0107936)
(119.96525 0.073694168 0.039625838)
(119.95618 0.085780751 0.036886778)
(120.00963 0.023411189 0.032871809)
(119.99902 0.021825869 0.040944789)
(119.99341 0.035133918 0.045129249)
(119.99569 0.035249685 0.059185969)
(119.9766 0.047423596 0.084157538)
(119.98904 0.033801904 0.070140112)
(119.97675 0.02861105 0.061037689)
(119.98445 0.030374265 0.052119064)
(119.97154 0.040718352 0.061509247)
(119.98473 0.048155173 0.071499165)
(119.9756 0.063012005 0.083756426)
(119.97721 0.058015378 0.056287303)
(119.99183 0.015471894 0.049956267)
(119.98578 0.0047251928 0.055493276)
(119.97365 0.015278866 0.095547431)
(119.97769 0.023857456 0.089438505)
(119.98386 0.030524961 0.079885928)
(119.95128 0.023387346 0.12311503)
(119.95879 0.035797255 0.11267781)
(119.96758 0.044269923 0.099959471)
(119.95224 0.035402168 0.082309527)
(119.97059 0.025111019 0.068273381)
(119.96399 0.019267606 0.075320091)
(119.94339 0.027958167 0.091023965)
(119.93601 0.017737671 0.098009925)
(119.9596 0.012057581 0.079485964)
(119.95663 0.0026931241 0.082147301)
(119.97062 0.0037147592 0.099350563)
(119.94699 0.0065157851 0.12816603)
(119.93204 0.0046314914 0.10123294)
(119.92752 0.0030618438 0.080019703)
(119.94978 0.0020839931 0.066592578)
(119.97583 0.00353152 0.042241768)
(120.01123 0.0032622722 0.02977489)
(120.01879 0.011419151 0.025615413)
(120.02639 0.011841608 0.025508185)
(120.01926 0.0029203928 0.025887823)
(119.98806 0.006013686 0.023282833)
(119.9962 0.010492087 0.02270937)
(120.00855 0.014019166 0.021842494)
(120.00393 0.015733549 0.024509239)
(120.00402 0.020076334 0.02990541)
(119.99072 0.017672825 0.034445119)
(119.99077 0.012912131 0.028263305)
(119.96566 0.017149868 0.031029979)
(119.97421 0.021139971 0.037986988)
(119.98298 0.026408436 0.035431298)
(119.98225 0.019719225 0.025531495)
(119.98805 0.014227588 0.019108951)
(119.99596 0.010833161 0.014794163)
(120.01551 0.012320785 0.019441123)
(120.00395 0.008802553 0.019089781)
(119.97972 0.0075883222 0.014745479)
(119.97009 0.01030234 0.020336771)
(119.95576 0.0061853258 0.021420126)
(119.95086 0.010927993 0.035816106)
(119.95954 0.016137242 0.047018165)
(119.98225 0.011423502 0.039458993)
(119.98254 0.0078314225 0.030608569)
(119.97635 0.0020883448 0.031854055)
(119.94183 0.0030795918 0.037927306)
(119.94881 0.0070673027 0.052330022)
(119.95297 0.01188767 0.050717989)
(119.95698 0.015683349 0.062041087)
(119.96344 0.020552204 0.056980724)
(119.96992 0.023920649 0.052006422)
(119.97824 0.026057883 0.04559939)
(119.96441 0.033672626 0.052156162)
(119.96062 0.027560151 0.04280918)
(119.95198 0.025091777 0.04888632)
(119.96581 0.01942654 0.04355946)
(119.95555 0.030519613 0.059567952)
(119.96227 0.039229853 0.071189981)
(119.9586 0.054198593 0.084276418)
(119.96039 0.052040951 0.069405434)
(119.9525 0.047653458 0.074765386)
(119.94011 0.041390009 0.065789614)
(119.94556 0.045917746 0.082619756)
(119.95204 0.05211791 0.092728669)
(119.95974 0.058171577 0.10230816)
(119.96603 0.059540019 0.092385229)
(119.97697 0.066114075 0.10146438)
(119.9709 0.064698201 0.11216955)
(119.96318 0.075023405 0.12432248)
(119.96936 0.076012435 0.11240171)
(119.95825 0.068757567 0.10213097)
(119.95216 0.067777929 0.11310221)
(119.94444 0.059906893 0.10070832)
(119.95034 0.062337254 0.092068805)
(119.94389 0.055579546 0.081725807)
(119.93762 0.053482004 0.089778324)
(119.92786 0.060296314 0.094960256)
(119.93563 0.061388356 0.086768992)
(119.9431 0.067431881 0.080696986)
(119.95955 0.084066013 0.099650499)
(119.9617 0.086954353 0.12196225)
(119.94981 0.077934294 0.10955164)
(119.94161 0.079653427 0.12286819)
(119.95292 0.088936769 0.13701744)
(119.94023 0.10258196 0.14896241)
(119.9501 0.101587 0.1318776)
(119.93832 0.090362365 0.11766482)
(119.92891 0.091293195 0.13262362)
(119.92131 0.078976465 0.11679468)
(119.93361 0.069400609 0.10866291)
(119.94196 0.069877382 0.098442793)
(119.93042 0.080303695 0.10534612)
(119.92479 0.070112022 0.09217828)
(119.91627 0.0690341 0.1019586)
(119.90289 0.079758511 0.10709729)
(119.91474 0.079435181 0.095813459)
(119.92615 0.086890049 0.08660269)
(119.94405 0.082021741 0.067393584)
(119.96199 0.071309455 0.051832662)
(119.94823 0.095826782 0.030621657)
(119.94147 0.10470434 0.021599582)
(119.93783 0.11006784 0.0093544882)
(119.93019 0.088051024 0.007694548)
(119.93369 0.084065904 0.016963879)
(119.94042 0.077637375 0.024026487)
(119.94803 0.07043623 0.029226383)
(119.95746 0.061721422 0.03164303)
(119.96577 0.053721667 0.034010988)
(119.98367 0.036529669 0.025973962)
(120.00498 0.031058432 0.019328224)
(120.00451 0.025417963 0.015514483)
(119.98256 0.026161746 0.019811115)
(119.96612 0.032167812 0.01812877)
(119.97535 0.03940848 0.02151928)
(119.99247 0.03587819 0.01754875)
(119.99166 0.029500591 0.013241955)
(119.99661 0.023663671 0.010912447)
(120.00888 0.022526947 0.013978032)
(120.02693 0.026261067 0.011685319)
(120.0157 0.019968766 0.012341063)
(119.99599 0.015062967 0.011031263)
(119.98818 0.019519467 0.01443013)
(119.97015 0.021067593 0.011219288)
(119.97961 0.015225992 0.0082869419)
(120.0041 0.019804522 0.0091652245)
(119.99638 0.019560439 0.0057990751)
(120.01997 0.027167454 0.0032069605)
(120.01325 0.03134097 0.0033205643)
(119.98463 0.041707858 0.012111358)
(119.98363 0.032560634 0.0087427258)
(119.95123 0.03817064 0.013036965)
(119.96118 0.049519197 0.017648723)
(119.96721 0.045417766 0.02033021)
(119.97213 0.054080505 0.024456766)
(119.9799 0.047229105 0.02599886)
(119.96612 0.059721291 0.021718893)
(119.96006 0.065780534 0.017595372)
(119.95469 0.054150245 0.014026696)
(119.93648 0.06231597 0.019160848)
(119.94426 0.057048942 0.023213307)
(119.95311 0.050658565 0.026486801)
(119.96147 0.0440469 0.028313243)
(119.94981 0.045706049 0.034214852)
(119.96247 0.039722089 0.039208655)
(119.96096 0.025803102 0.025871424)
(119.94922 0.02660636 0.035999693)
(119.94926 0.033268488 0.044876039)
(119.95267 0.042517346 0.05661452)
(119.93513 0.05145046 0.063759334)
(119.93296 0.041002375 0.049039505)
(119.92032 0.039153168 0.057008871)
(119.92819 0.045589024 0.066612895)
(119.93086 0.053524031 0.0771288)
(119.92247 0.051924041 0.083844964)
(119.92053 0.044818634 0.073277605)
(119.91104 0.051370282 0.077594625)
(119.91839 0.052811593 0.070887219)
(119.92092 0.060729214 0.081232392)
(119.91309 0.058493349 0.088382115)
(119.90096 0.066996482 0.092005869)
(119.91185 0.068298716 0.083726872)
(119.91945 0.064924462 0.065472176)
(119.93569 0.064404591 0.052204491)
(119.95364 0.057938525 0.04302965)
(119.94156 0.067747242 0.043127529)
(119.95474 0.077117346 0.04840469)
(119.96147 0.086895033 0.054424097)
(119.92377 0.11942901 0.08101207)
(119.93216 0.10732002 0.081270676)
(119.94417 0.1007821 0.070615938)
(119.95294 0.094555023 0.062876604)
(119.94586 0.083860575 0.056649267)
(119.94009 0.092452149 0.055238739)
(119.94825 0.08537921 0.04731537)
(119.95554 0.095782536 0.053018435)
(119.94771 0.10375611 0.061205995)
(119.93651 0.11159977 0.071084393)
(119.93001 0.097391196 0.062466379)
(119.93727 0.088606336 0.062706677)
(119.92606 0.093573345 0.071679826)
(119.91804 0.10397447 0.071577476)
(119.90422 0.10847086 0.082592844)
(119.9156 0.096604751 0.08106399)
(119.92124 0.11174258 0.092796677)
(119.92918 0.12640726 0.10473905)
(119.94346 0.11093631 0.10902911)
(120.03066 -0.0061328643 0.024175208)
(120.03038 -0.014421886 0.019028813)
(120.02303 -0.013330104 0.020958311)
(119.99244 -0.01805303 0.047989634)
(119.98597 -0.0077855045 0.054788607)
(119.97076 -0.0073785652 0.098741876)
(119.95977 -0.038966437 0.10912421)
(119.97833 -0.026831857 0.086739217)
(119.97409 -0.018682519 0.093705077)
(119.96014 -0.015368892 0.077931281)
(119.95679 -0.0062099666 0.081643766)
(119.93233 -0.0087762249 0.10052314)
(119.94725 -0.010864928 0.12728018)
(119.95196 -0.027267416 0.12076007)
(119.93678 -0.021529383 0.096101202)
(119.94457 -0.03117249 0.088088655)
(119.9648 -0.022220464 0.073039908)
(119.97167 -0.027601673 0.065332585)
(119.9847 -0.032988584 0.076466023)
(119.96875 -0.046682332 0.095684498)
(119.9537 -0.037955947 0.078710291)
(119.96397 -0.041202243 0.067097602)
(119.97802 -0.030673677 0.057675353)
(119.99991 -0.023733369 0.038224041)
(94.410663 0.082931964 0.22429474)
(103.92103 0.10721843 0.24262275)
(107.55179 0.11625057 0.24990333)
(109.54428 0.11952116 0.25346998)
(117.09746 0.054927183 0.19874644)
(117.56641 -0.14084998 0.12255481)
(110.67345 -0.1496356 0.23438182)
(108.76248 -0.14560297 0.25840313)
(105.19466 -0.14554481 0.28126551)
(95.605261 -0.15769773 0.28899519)
(95.629797 -0.060202125 0.087945306)
(105.07796 -0.062911578 0.097063952)
(108.62378 -0.061597753 0.093378065)
(110.55231 -0.059638337 0.088198893)
(117.58287 -0.067537487 0.055550099)
(117.68981 -0.057894962 0.039550541)
(110.69508 -0.060796105 0.067772619)
(108.7753 -0.061657843 0.073315331)
(105.24234 -0.063449444 0.078845344)
(95.808284 -0.06617265 0.084846198)
(95.865196 -0.040581503 0.050118682)
(105.27646 -0.041406202 0.049707612)
(108.80093 -0.040869072 0.047110006)
(110.71771 -0.040331007 0.044157029)
(117.73918 -0.041878976 0.025684166)
(117.78818 -0.03299221 0.019337159)
(110.76275 -0.032381684 0.034064011)
(108.85089 -0.032665695 0.036716377)
(105.33345 -0.033079202 0.039323693)
(95.932234 -0.033478177 0.041350275)
(95.982767 -0.02485137 0.030136606)
(105.3722 -0.025178073 0.029334898)
(108.88346 -0.025144302 0.027474659)
(110.79156 -0.025075693 0.025505164)
(117.82059 -0.025871388 0.014582402)
(117.84652 -0.020815042 0.011456411)
(110.82108 -0.020420878 0.019910857)
(108.91646 -0.020368119 0.02156421)
(105.41135 -0.020280362 0.023188806)
(96.03295 -0.020091347 0.02414131)
(96.078876 -0.016106941 0.019033293)
(105.44496 -0.01640776 0.018341031)
(108.94403 -0.016601797 0.017016186)
(110.84544 -0.016716522 0.015676542)
(117.86535 -0.016878712 0.009159127)
(117.87989 -0.013876875 0.0074486257)
(110.86728 -0.013941655 0.012528847)
(108.96892 -0.013792342 0.013643188)
(105.47609 -0.013539855 0.01477168)
(96.122501 -0.013236834 0.015373056)
(96.164081 -0.010967185 0.012467739)
(105.5042 -0.01129315 0.011981157)
(108.9907 -0.011588111 0.011021943)
(110.88593 -0.011753318 0.010095982)
(117.8908 -0.01152858 0.0061295087)
(117.89912 -0.0096840536 0.0050862709)
(110.90235 -0.010035344 0.008176452)
(109.01023 -0.009858326 0.0089555249)
(105.53032 -0.0095317087 0.0097856516)
(96.203878 -0.0091942005 0.010195532)
(96.242826 -0.007782024 0.0083814458)
(105.55472 -0.0081269208 0.0080243958)
(109.02789 -0.0084762668 0.0072968182)
(110.91677 -0.0086607508 0.0066355141)
(117.9053 -0.0081992629 0.004248445)
(117.90981 -0.0069905513 0.0035734406)
(110.9297 -0.007554853 0.0053901123)
(109.04406 -0.0073646083 0.0059572662)
(105.57789 -0.0069981356 0.0066027853)
(96.280784 -0.0066445547 0.0069206408)
(96.318635 -0.0057133529 0.0057282846)
(105.60013 -0.0060771128 0.0054444459)
(109.05915 -0.0064576852 0.0048658011)
(110.94138 -0.0066523664 0.0043747783)
(117.91295 -0.005992712 0.0030253223)
(117.91496 -0.0051699933 0.0025767396)
(110.95216 -0.0059098238 0.0035427148)
(109.07333 -0.0057106814 0.0039723487)
(105.62174 -0.0053172824 0.004497952)
(96.356106 -0.0049437006 0.0047543122)
(96.39394 -0.0043076429 0.0039680087)
(105.64291 -0.0046903156 0.0037338264)
(109.08692 -0.0050949163 0.0032489323)
(110.96217 -0.0052972473 0.0028676329)
(117.91606 -0.0044848266 0.0022079674)
(117.91642 -0.0039115922 0.0019069654)
(110.9717 -0.0047874518 0.0023384287)
(109.10003 -0.0045821117 0.0026844177)
(105.66389 -0.0041674399 0.0031395515)
(96.431843 -0.0037808172 0.0033536249)
(96.470406 -0.0033682479 0.0028353739)
(105.68477 -0.0037687893 0.0026383951)
(109.11289 -0.0041923907 0.00220734)
(110.98081 -0.0043989004 0.0018889171)
(117.91613 -0.0034500496 0.0016536364)
(117.91534 -0.0030911511 0.0014860874)
(110.98971 -0.0041240891 0.0015820696)
(109.12557 -0.0039179866 0.0018850288)
(105.70576 -0.0034885118 0.002306172)
(96.50936 -0.0030865044 0.0025002983)
(96.549303 -0.0029147488 0.0022496021)
(105.72698 -0.0033112442 0.0020505039)
(109.13834 -0.0037423249 0.0016379397)
(110.99852 -0.0039459737 0.0013483631)
(117.91417 -0.0028197806 0.0013819457)
(117.91268 -0.0025950788 0.0012032973)
(111.00727 -0.0037724616 0.0010243145)
(109.15106 -0.0035645368 0.0012945232)
(105.74846 -0.0031275566 0.0016905271)
(96.589817 -0.0027108484 0.0018912978)
(96.631138 -0.0025131623 0.0016008881)
(105.77006 -0.0029443559 0.0013684405)
(109.16378 -0.0033853776 0.00097531197)
(111.01588 -0.0035959734 0.00071515099)
(117.91086 -0.0023744064 0.00098358367)
(117.90888 -0.0021056505 0.00082650904)
(111.02467 -0.0033074702 0.00053448185)
(109.17672 -0.0030884316 0.00079271491)
(105.79214 -0.0026355184 0.0011925721)
(96.673175 -0.0022289222 0.0014230297)
(96.716417 -0.0021125511 0.0012176548)
(105.81471 -0.0025199259 0.00098412534)
(109.19 -0.002983201 0.00058223995)
(111.03364 -0.0032075029 0.00032568459)
(117.90683 -0.0019711892 0.00067110538)
(117.90466 -0.0019217474 0.0004708081)
(111.0427 -0.0031079025 -1.7847707e-05)
(109.20338 -0.0028583624 0.00022207194)
(105.83764 -0.0023580625 0.00060950865)
(96.760329 -0.0019209156 0.00082580075)
(96.805348 -0.001690043 0.00045706053)
(105.86106 -0.0021754664 0.00023955429)
(109.21714 -0.0027233873 -0.00013293894)
(111.05198 -0.0030105681 -0.00035497132)
(117.90238 -0.0019445646 0.00029389293)
(117.90021 -0.0019983162 0.00015251642)
(111.06188 -0.0028532302 -0.00063068575)
(109.23157 -0.0025134955 -0.00042300715)
(105.88542 -0.0019003644 -5.2631903e-05)
(96.851471 -0.0013914078 0.00016401451)
(96.899586 -0.00097994607 -0.00041116252)
(105.91108 -0.0014385624 -0.0005055001)
(109.2471 -0.0021514878 -0.00085950764)
(111.07269 -0.0025614887 -0.0010392456)
(117.89843 -0.0020367808 -9.0210688e-05)
(117.89644 -0.0024328494 -0.00085920058)
(111.08345 -0.0025638321 -0.0024483522)
(109.26263 -0.0020550205 -0.0023760473)
(105.9371 -0.0012232447 -0.0021385156)
(96.948907 -0.00072352379 -0.002230266)
(96.996778 -0.0018423513 -0.0032445796)
(105.96112 -0.0028205313 -0.0034282229)
(109.27623 -0.0036347678 -0.0036305559)
(111.09232 -0.0040929601 -0.0036644107)
(117.89327 -0.0033015311 -0.0016135623)
(117.89033 -0.0025393433 -0.0010732909)
(111.10233 -0.0028369596 -0.0025173846)
(109.29115 -0.0023563805 -0.0024171093)
(105.98642 -0.0015516205 -0.0021476072)
(97.04509 -0.00074258216 -0.0020006875)
(117.98995 -0.0031457937 -0.00091608373)
(109.85878 -0.0051348342 -0.0021960649)
(107.98702 -0.0048217663 -0.0021348038)
(104.58251 -0.0041375346 -0.001948015)
(95.497743 -0.0030607384 -0.0016217433)
(95.44801 -0.0054420076 -0.0011883945)
(104.5556 -0.0064112678 -0.0016027131)
(107.97067 -0.006952924 -0.0018750807)
(109.84746 -0.0071114624 -0.0019759399)
(117.99316 -0.0038718147 -0.00085431975)
(117.99664 -0.0023971487 -0.00050923632)
(109.83766 -0.0044789954 -0.0014821508)
(107.95604 -0.0041981241 -0.001396785)
(104.53024 -0.0035419944 -0.0011974298)
(95.3984 -0.0033586518 -0.0012978163)
(95.345511 -0.00077263517 0.00022894237)
(104.50146 -0.00065959261 0.00028633478)
(107.93838 -0.0014941018 2.1172924e-05)
(109.82498 -0.001900565 -0.00013956341)
(117.99879 -0.0011398363 0.0001374015)
(118.00052 -0.0012202878 0.00026250403)
(109.81126 -0.0018837315 0.0001523524)
(107.91959 -0.0014270171 0.00038567483)
(104.47189 -0.00076292939 0.00072794477)
(95.292897 -0.00028376285 0.00091793894)
(95.242957 -0.00044476637 0.0010341375)
(104.44408 -0.00096609901 0.00085801732)
(107.90227 -0.001642827 0.00052882474)
(109.79875 -0.0020860505 0.00028980462)
(118.00281 -0.00136572 0.00033011242)
(118.00526 -0.0014576186 0.00045529587)
(109.787 -0.0021726204 0.00052730364)
(107.88577 -0.0017358188 0.00077596444)
(104.41737 -0.0010543126 0.0011083091)
(95.194174 -0.0005804841 0.0012830775)
(95.14635 -0.00072377077 0.0017147402)
(104.39099 -0.0011881335 0.0015101196)
(107.86952 -0.0018608022 0.0011432621)
(109.77537 -0.0022877783 0.00086926782)
(118.00758 -0.0015960718 0.00062795163)
(118.0098 -0.0018633096 0.00078433511)
(109.76398 -0.0026462778 0.0011152489)
(107.85353 -0.0022394111 0.0013966375)
(104.36518 -0.001584276 0.0017560027)
(95.099481 -0.0010611746 0.0019855761)
(95.05425 -0.0017416612 0.002453964)
(104.34014 -0.0022487165 0.002189827)
(107.83812 -0.0028359784 0.0018195954)
(109.75298 -0.0031712594 0.0015351881)
(118.01195 -0.0021325354 0.0010887023)
(118.01388 -0.0022852376 0.0014234316)
(109.74243 -0.0034656397 0.0020353731)
(107.82321 -0.0031796717 0.0023300396)
(104.31599 -0.0026490016 0.0026925569)
(95.010239 -0.0021634718 0.0028746946)
(94.96718 -0.0022972458 0.0032184109)
(104.29209 -0.0027654983 0.0030583339)
(107.80845 -0.0032748278 0.0026978127)
(109.73183 -0.0035506491 0.0023933542)
(118.01545 -0.0024298561 0.0016533273)
(118.01673 -0.0027420218 0.001756428)
(109.72134 -0.0037028074 0.0026215409)
(107.7938 -0.003412274 0.0029450113)
(104.26861 -0.0028880893 0.0033335764)
(94.924844 -0.0024383844 0.0035544469)
(94.883572 -0.0026771634 0.004037601)
(104.24546 -0.0031242382 0.0038022054)
(107.77934 -0.0036471378 0.0033887478)
(109.71084 -0.003942341 0.0030422148)
(118.01769 -0.0031471439 0.0019847318)
(118.01818 -0.0036240269 0.0023061959)
(109.70023 -0.0042305935 0.0035781459)
(107.76477 -0.0039291181 0.0039460528)
(104.22252 -0.0034070664 0.0043745483)
(94.842773 -0.0029557976 0.0045959636)
(94.802685 -0.0032892514 0.0052974344)
(104.19948 -0.0037370401 0.0050836026)
(107.74996 -0.0042588541 0.0046329433)
(109.68919 -0.0045660526 0.0042352671)
(118.01805 -0.0041602375 0.0027021106)
(118.01718 -0.0048174779 0.0031780768)
(109.67778 -0.0049672397 0.0050262212)
(107.7348 -0.0046499521 0.0054592771)
(104.17644 -0.0041234321 0.0059387989)
(94.762916 -0.0036765135 0.0061470815)
(94.723545 -0.0041374338 0.0071894245)
(104.15298 -0.0045850809 0.0069823634)
(107.7191 -0.005120661 0.0064646556)
(109.66565 -0.0054528338 0.0059862709)
(118.01545 -0.0056035393 0.0037532721)
(118.01264 -0.0065649358 0.004456972)
(109.65276 -0.0060547296 0.0071677592)
(107.70263 -0.0057025098 0.007704198)
(104.1291 -0.0051528601 0.0082717308)
(94.683999 -0.0047005791 0.0084816176)
(94.64435 -0.0053998907 0.01009681)
(104.10428 -0.0058616828 0.0098794779)
(107.68512 -0.0064298477 0.0092452521)
(109.63865 -0.0068066785 0.0086309039)
(118.00852 -0.0077421541 0.0053022657)
(118.0028 -0.0092176934 0.0063404314)
(109.62321 -0.0077697968 0.010471318)
(107.66627 -0.0073623869 0.011190108)
(104.07843 -0.0067709218 0.011917642)
(94.603882 -0.0062976311 0.012159619)
(94.562576 -0.0074204343 0.014709892)
(104.05088 -0.0079110989 0.014446115)
(107.64562 -0.0085304319 0.013604977)
(109.60584 -0.0089746595 0.012758314)
(117.99507 -0.011062975 0.0076369516)
(117.9849 -0.013414138 0.0092923422)
(109.58646 -0.010512577 0.015664947)
(107.62294 -0.010022155 0.016673364)
(104.02159 -0.0093674514 0.017663572)
(94.519746 -0.0088595238 0.017972926)
(94.475064 -0.010670911 0.022077294)
(103.98948 -0.011208782 0.021739391)
(107.59739 -0.011890801 0.020579121)
(109.56416 -0.012423995 0.019379697)
(117.97135 -0.016415566 0.011432204)
(117.95382 -0.020359858 0.014245884)
(109.53972 -0.014976739 0.024325038)
(107.56953 -0.014397733 0.025791996)
(103.95528 -0.013689087 0.027215054)
(94.428448 -0.013158994 0.027709422)
(94.378268 -0.016124725 0.034442582)
(103.91637 -0.016774756 0.034083599)
(107.53712 -0.017459646 0.03245281)
(109.51106 -0.018042903 0.030711729)
(117.92981 -0.02537709 0.018005897)
(117.89977 -0.032358835 0.023335234)
(109.4829 -0.022891448 0.040160795)
(107.50468 -0.022297814 0.042458588)
(103.87723 -0.021646418 0.044723688)
(94.327289 -0.021220511 0.045907578)
(94.264673 -0.025149627 0.054833631)
(103.82646 -0.026277045 0.055063168)
(107.46156 -0.026912974 0.052845085)
(109.44498 -0.027539285 0.050300428)
(117.85567 -0.040467964 0.030168307)
(117.80858 -0.054635032 0.042578377)
(109.41071 -0.039702513 0.073625721)
(107.42174 -0.039049143 0.077949232)
(103.77677 -0.038379058 0.082568877)
(94.195927 -0.038328323 0.083791497)
(94.071271 -0.029449387 0.07591212)
(103.6857 -0.032305948 0.080671362)
(107.34421 -0.034070835 0.077934566)
(109.33751 -0.035952821 0.072968942)
(117.72558 -0.059478624 0.048041314)
(117.67913 -0.091804254 0.097886349)
(109.21581 -0.044408591 0.1503283)
(107.21272 -0.04078748 0.15561216)
(103.53059 -0.040087913 0.15879806)
(93.884863 -0.045752509 0.15390842)
(94.065595 0.029094271 -0.11881965)
(103.71397 0.045133779 -0.086689805)
(107.35124 0.036921737 -0.06753375)
(109.30509 0.029842102 -0.052892033)
(117.55536 0.016894108 0.020813673)
(117.7424 -0.22920151 0.6547969)
(109.58884 0.51298832 1.8091248)
(107.6052 0.62690339 2.0071078)
(103.71663 0.69959298 2.2136728)
(93.262124 0.26049381 2.1450449)
(93.816484 0.70288413 0.279718)
(103.48088 0.65611158 0.28135346)
(107.11737 0.60730014 0.26517481)
(109.0668 0.56344918 0.24532049)
(117.29704 0.28618074 0.18529081)
(117.50801 0.085176464 0.0026583882)
(109.03859 0.099825796 0.066426984)
(107.0372 0.1032872 0.071702547)
(103.36057 0.1091592 0.072823961)
(93.729351 0.11741914 0.069613262)
(93.98245 0.10026101 0.047185644)
(103.58841 0.093621531 0.042535141)
(107.24361 0.087152004 0.039385808)
(109.23545 0.08186212 0.035419672)
(117.61887 0.057328496 0.0061936189)
(117.73796 0.029480865 -0.0099465686)
(109.34092 0.026766802 0.0068007813)
(107.35276 0.02707418 0.0082408043)
(103.7104 0.027508466 0.0092614625)
(94.136813 0.027102454 0.01053312)
(94.226153 0.021343184 0.0084803309)
(103.78243 0.02133939 0.0072409185)
(107.41544 0.020674081 0.0064827067)
(109.3981 0.020034491 0.0055651816)
(117.80684 0.020224193 -0.0071860473)
(117.865 0.013464862 -0.0073208772)
(109.44956 0.011494758 0.0016204718)
(107.47186 0.011591464 0.0024194642)
(103.84602 0.011639003 0.0031738577)
(94.30042 0.01132385 0.0039251912)
(94.359282 0.0082221534 0.0026464797)
(103.89387 0.0084711098 0.0020079029)
(107.51329 0.0084717904 0.0013219634)
(109.48677 0.0084101921 0.00064242758)
(117.90421 0.0096922225 -0.0059202757)
(117.93449 0.0070698086 -0.0050303081)
(109.52154 0.0059957595 -0.00042683474)
(107.55171 0.0059483142 0.00021458668)
(103.93853 0.0058243649 0.00090574646)
(94.414538 0.0055517045 0.0014620626)
(94.464831 0.0040361413 0.00081124951)
(103.97691 0.0042911325 0.00030937256)
(107.58391 0.0044477287 -0.00033381829)
(109.55035 0.004521101 -0.00089668723)
(117.95641 0.0052621021 -0.0041182859)
(117.97313 0.0039639011 -0.0034306038)
(109.57579 0.0034492573 -0.0012502156)
(107.61253 0.0033526551 -0.00074727513)
(104.01193 0.0031662645 -0.00013711582)
(94.512048 0.0029185538 0.00032390624)
(94.556853 0.0021552116 -8.6029701e-06)
(104.04349 0.0023905387 -0.00043847101)
(107.63757 0.0025886405 -0.0010110014)
(109.59752 0.0026922576 -0.0014545562)
(117.98565 0.003016345 -0.0028656876)
(117.99513 0.0023085224 -0.0024316186)
(109.61666 0.0021204305 -0.0016151976)
(107.65994 0.0020094837 -0.0012176399)
(104.07269 0.0018000562 -0.00067228532)
(94.599578 0.0015731385 -0.0002679657)
(94.641295 0.0011596516 -0.00046268591)
(104.09995 0.0013775717 -0.00084990878)
(107.68024 0.0015926902 -0.0013743764)
(109.63352 0.0017066393 -0.0017348787)
(118.00219 0.0017764629 -0.0020845436)
(118.00735 0.0013753034 -0.0018087872)
(109.64873 0.0014117903 -0.0018272908)
(107.69885 0.00129733 -0.0014932964)
(104.12584 0.0010792206 -0.00098041879)
(94.68191 0.00086967957 -0.00060018238)
(94.722386 0.00061550721 -0.00073105247)
(104.15071 0.00082142648 -0.0011026687)
(107.71629 0.0010457795 -0.0016063269)
(109.66257 0.0011639122 -0.0019182599)
(118.01099 0.0010590743 -0.0015920898)
(118.0134 0.00081657774 -0.0014236216)
(109.67545 0.00098936191 -0.00199863)
(107.73273 0.0008684834 -0.001701493)
(104.1749 0.00063926084 -0.0012012376)
(94.762448 0.00043659369 -0.00083137714)
(94.802889 0.00025591353 -0.000919324)
(104.19863 0.00046372149 -0.0012950954)
(107.74857 0.00070275162 -0.0017921418)
(109.6875 0.00083100304 -0.0020782468)
(118.01479 0.00061784138 -0.0012884568)
(118.01535 0.00046075399 -0.0011824062)
(109.69902 0.00071744962 -0.0021482028)
(107.76385 0.0005848773 -0.0018680086)
(104.22212 0.00034012298 -0.0013691933)
(94.843374 0.00013064579 -0.00098403949)
(94.884588 1.6836266e-05 -0.0010465549)
(104.24553 0.00022976459 -0.0014377984)
(107.77889 0.00048348568 -0.0019422753)
(109.7101 0.0006223871 -0.0022197393)
(118.01523 0.00033341518 -0.0011061826)
(118.01455 0.00023985051 -0.0010616767)
(109.72093 0.00054173693 -0.0022924704)
(107.79369 0.00039461397 -0.0020158422)
(104.26901 0.00013038664 -0.0015057253)
(94.926162 -8.4548149e-05 -0.0011085576)
(94.968639 -0.00016821997 -0.0011722203)
(104.29258 4.8728394e-05 -0.0015916445)
(107.80843 0.00032128148 -0.002105581)
(109.73152 0.00047717923 -0.0023815279)
(118.01338 0.00016323362 -0.0010528192)
(118.01177 6.978351e-05 -0.0010544643)
(109.74194 0.00035996176 -0.0024793492)
(107.823 0.00019168902 -0.0021980421)
(104.31627 -9.1150856e-05 -0.0016767065)
(95.011524 -0.00033111235 -0.0012010372)
(95.055386 -0.00072179304 -0.00099720179)
(104.34029 -0.00045536754 -0.0014987603)
(107.83778 -0.00014891373 -0.0020404376)
(109.75239 4.6607474e-05 -0.0023395363)
(118.00983 -0.00011795627 -0.00096006336)
(118.00781 -0.00034324849 -0.00074658711)
(109.76338 -0.00029235953 -0.0019134674)
(107.85314 -0.00050847051 -0.0015780233)
(104.36522 -0.00083043528 -0.0010066842)
(95.100431 -0.001072766 -0.00054848503)
(95.147177 -0.0013305361 -0.00033990512)
(104.39102 -0.0011110843 -0.00072173424)
(107.86916 -0.00077467793 -0.0013101819)
(109.77481 -0.00054388971 -0.0016653557)
(118.00576 -0.0005202038 -0.00059806944)
(118.00358 -0.00056789405 -0.00057764901)
(109.78641 -0.00050688766 -0.0016378077)
(107.88535 -0.00072964338 -0.0012722527)
(104.41729 -0.0010599729 -0.00067519353)
(95.194815 -0.0012778728 -0.00029563433)
(95.243545 -0.0011181609 -0.00020032069)
(104.44402 -0.00090488478 -0.00062036208)
(107.9019 -0.00058360176 -0.0012309167)
(109.79819 -0.0003752026 -0.0016142317)
(118.00126 -0.00056074187 -0.00059567388)
(117.99908 -0.00052107741 -0.00055981625)
(109.81077 -0.0002054242 -0.0014666347)
(107.91928 -0.0003994018 -0.0010516105)
(104.4719 -0.00071820841 -0.00042163098)
(95.293542 -0.00087101343 -5.2110973e-05)
(95.346405 0.00011259389 -0.00038754501)
(104.50166 6.2351945e-05 -0.00031208981)
(107.93821 0.00028631484 -0.0011014322)
(109.82461 0.00039316199 -0.0014917425)
(117.99743 -0.00022869286 -0.00055835313)
(117.99531 0.00082082606 -0.0017925978)
(109.83726 0.0024800674 -0.0039293153)
(107.95588 0.0024988294 -0.0036286049)
(104.53052 0.0023607282 -0.0029591714)
(95.399612 0.0024174625 -0.002824303)
(95.449257 0.0026099868 -0.0048406422)
(104.55571 0.0030782205 -0.0057941298)
(107.97025 0.0032895504 -0.0063441474)
(109.84679 0.0032736237 -0.006507631)
(117.99168 0.0014303143 -0.003222569)
(117.98847 0.0013334689 -0.0026049187)
(109.85812 0.0031439602 -0.0047554353)
(107.98649 0.00313775 -0.0044082086)
(104.58275 0.0029685516 -0.0036961662)
(95.499627 0.0025957792 -0.002594234)
(95.554938 0.00018028384 -0.0014621713)
(104.6144 0.00046428375 -0.0021235627)
(108.00707 0.00079640078 -0.0028563667)
(109.87326 0.00098986661 -0.0032714257)
(117.98681 0.00059276666 -0.0019799665)
(96.864865 -0.0012783251 -0.0018309032)
(105.7988 -0.001007256 -0.0024575589)
(109.10663 -0.00073865942 -0.0032090427)
(110.92069 -0.00056648345 -0.0036189323)
(117.8649 -0.00014305585 -0.0025897194)
(117.86666 8.611581e-06 -0.0034708473)
(110.90843 -0.00038796238 -0.0054876423)
(109.08924 -0.00055642569 -0.0051796711)
(105.77071 -0.00083189139 -0.004473731)
(96.813076 -0.0011878819 -0.0036780153)
(96.763725 -0.0026615083 -0.004313428)
(105.74517 -0.0021360621 -0.0050101269)
(109.07441 -0.0017104715 -0.0056503162)
(110.89848 -0.0014027665 -0.0059487509)
(117.86968 -0.00025376569 -0.0038513984)
(117.8731 -0.00032377592 -0.0029988152)
(110.88979 -0.0010022632 -0.004785251)
(109.06097 -0.0012308934 -0.0044939058)
(105.7212 -0.0015698906 -0.0038488608)
(96.715807 -0.0018293599 -0.0033541429)
(96.66623 -0.001759722 -0.001129631)
(105.69535 -0.0015864962 -0.0012012981)
(109.04575 -0.0013158192 -0.0019278231)
(110.87935 -0.0011368004 -0.0023021969)
(117.87528 -0.00059803403 -0.0013322883)
(117.87682 -0.00070101663 -0.00093484273)
(110.86756 -0.0011791855 -0.0019749662)
(109.02909 -0.001354752 -0.0015983008)
(105.66826 -0.0016130582 -0.0009051005)
(96.616196 -0.0018365666 -0.0005192593)
(96.568481 -0.0018514804 -0.00050009079)
(105.64255 -0.0016287617 -0.00095074611)
(109.01355 -0.0013823216 -0.0015851898)
(110.85672 -0.0012125936 -0.0019409363)
(117.87889 -0.00076040512 -0.00082653607)
(117.88113 -0.0008147834 -0.0007077531)
(110.84657 -0.0012400452 -0.0018328827)
(108.99878 -0.001403395 -0.0014928075)
(105.61788 -0.0016427579 -0.00088235588)
(96.52193 -0.0018567906 -0.00047110406)
(96.47641 -0.0018950582 -0.00048944706)
(105.5936 -0.0016821541 -0.00089953598)
(108.98428 -0.0014456579 -0.0014920269)
(110.83655 -0.00128443 -0.001815984)
(117.88322 -0.00085562492 -0.00069102199)
(117.88519 -0.00085744724 -0.00084787495)
(110.82683 -0.0013020272 -0.0020453422)