/*--------------------------------*- C++ -*----------------------------------*\
  =========                 |
  \\      /  F ield         | OpenFOAM: The Open Source CFD Toolbox
   \\    /   O peration     | Website:  https://openfoam.org
    \\  /    A nd           | Version:  7
     \\/     M anipulation  |
\*---------------------------------------------------------------------------*/
FoamFile
{
    version     2.0;
    format      ascii;
    class       volScalarField;
    location    "310";
    object      alphat;
}
// * * * * * * * * * * * * * * * * * * * * * * * * * * * * * * * * * * * * * //

dimensions      [1 -1 -1 0 0 0 0];

internalField   nonuniform List<scalar> 
25278
(
7.9172337
7.7959914
7.8373017
7.837282
7.7000872
7.7959793
7.8903463
7.9172123
7.890394
7.7832554
7.8507488
7.8875386
7.8460616
7.8042959
7.044021
7.8371958
7.7959249
7.1884449
6.7299716
7.2630622
7.5705392
7.6679113
7.7515858
7.7993647
7.6461867
7.799337
7.751585
7.5800284
7.5045792
7.5436434
7.4281107
7.3875212
7.0367173
7.2732328
7.3042797
7.2544335
7.2866237
7.1970979
7.1658054
6.9142106
7.0641879
7.0974309
6.963821
7.0002643
7.236703
7.4818518
7.7216311
7.6270265
7.3799483
7.318235
7.2369509
7.1785398
6.5536706
6.7724273
7.0733188
7.1110354
7.0208579
6.9812773
6.6097781
6.7640528
6.817088
6.6766034
6.5583539
6.9555212
6.9085514
6.8656548
6.9138629
6.4898258
6.4081561
6.4836734
5.9362732
6.1550833
6.3955264
6.6256379
6.843599
6.9985667
7.3047915
7.5438905
7.6680851
7.600925
7.5455727
7.0486653
7.1915449
6.7478283
7.4765266
7.4127659
6.511285
5.595252
6.1695856
6.726427
6.7648637
6.1867088
6.1567252
5.0969812
5.1923799
6.1992476
6.3282168
6.8556877
6.8731151
6.3400382
6.3162212
5.3100068
5.4327433
6.3506171
5.760412
5.7558521
5.6198858
4.046191
3.9690011
3.0467877
5.0790054
5.0549101
3.017494
3.0043658
4.1439976
4.2526863
2.9926234
5.1583186
5.1986308
5.1936133
6.7452937
7.476287
7.6999643
6.139682
5.0732501
3.9529951
3.038078
5.0736419
6.5081492
7.4124356
7.5452647
7.6007661
7.1895117
7.0449646
6.1589491
5.5856508
5.6099172
5.0485273
3.0069491
4.0274112
4.1234735
2.991473
2.9769411
5.1509328
5.7497361
5.7458494
6.3190132
6.1881234
5.1678219
6.1691672
7.0371801
6.7188507
6.7579698
6.8501943
7.1839569
6.868235
6.341992
5.4099691
4.2296151
2.4972408
1.1071082
1.1143996
2.5199103
4.1947923
5.7208764
5.7192482
5.1332543
5.0857239
2.8617712
2.8893026
4.090967
2.4645852
1.1482991
1.0482974
0.37257186
0.41324007
1.2129626
1.2064757
0.42612917
0.38539652
1.0453396
1.1418407
2.445154
4.0440915
5.2850263
6.3011334
6.3252119
5.685785
4.1435003
2.768357
2.806136
5.0640281
6.7096842
5.6841153
5.0112983
5.199531
2.7474778
0.95380227
0.35051113
0.33778889
0.95320991
2.8531173
5.2719872
5.8759982
6.4794954
6.9558584
7.2738736
7.5049929
7.3896012
7.4288932
7.2562827
7.0414565
7.0672807
7.0997862
7.2876
7.1992944
7.1691286
6.9202291
6.9683957
7.0034756
7.1422781
7.3670027
7.589431
7.7216681
7.6151599
7.3900689
7.3581675
7.5051314
7.4820687
7.32097
7.3349814
7.1606412
7.0332144
7.2505588
7.2380535
7.1570064
7.3808988
7.6271296
7.5711866
7.2672639
7.3203023
7.0787544
6.7858441
6.7751137
6.8258446
7.1145118
7.0265104
6.9891057
6.6265333
6.6901423
6.5760442
6.9628091
7.2397822
7.184204
6.5748833
6.9182862
6.5056564
6.431369
6.875206
6.9207502
6.5077134
6.5676697
6.6307943
6.7370294
6.8656407
6.90166
7.1717405
7.0903318
7.0751602
7.0154657
7.3091912
7.3330454
7.4054448
7.2023887
7.2801104
7.2900719
7.3719106
7.2038128
7.1909259
7.0595768
7.0802405
6.9549581
7.2133289
7.1361191
7.1262028
6.8147881
6.9308109
6.770654
6.8485113
6.9285646
6.9922265
7.1089896
7.3899619
7.6150455
7.5891964
7.3665373
7.3202875
7.3347642
7.2495461
7.0312736
7.1598013
7.1405458
6.9319526
7.0677246
6.9598961
6.8955081
6.8731443
6.8503285
6.6844595
6.8867575
6.5850698
6.542706
6.2309689
6.3181062
5.8729924
6.2817684
6.5880962
6.8901376
6.8472053
6.4889294
6.5466899
6.2451483
6.6352257
6.6923902
6.3296113
5.8846148
5.7894046
6.2172045
5.5919114
5.775418
5.2079609
5.342249
5.7200903
5.9406954
6.1680996
6.3566534
6.5456566
6.7049236
6.7281508
6.621464
6.7837514
6.7603593
6.5871682
6.4038751
6.4357049
6.5735916
6.648758
6.6728245
6.5984491
6.7540087
6.7676951
6.9078596
6.8237887
6.8108832
6.6468445
6.6665106
6.4874333
6.6169506
6.4353136
6.4174025
6.385224
6.2291483
6.1845938
5.9601022
6.0012397
6.2021105
6.3445891
6.6512495
6.9335385
6.9606768
6.6744949
6.6032508
6.7578985
6.8981326
6.8766358
6.8545832
6.7106195
6.7322998
6.6290546
6.7894397
6.7670756
6.5962175
6.4154235
6.5518329
6.5788751
6.3922428
6.3638089
6.199192
6.2414632
6.4455346
6.4723214
6.6529121
6.8155368
6.8270413
6.9097609
6.7706087
6.6716807
6.4941257
6.6206117
6.4400003
6.4227921
6.2713538
6.2961762
6.3194079
6.4677937
6.7229424
6.7342093
7.0096674
6.951961
6.9366272
6.800401
6.7919799
6.6899995
6.704052
6.8560056
6.8745537
6.8809114
6.9594546
6.8256435
6.8176911
6.7192838
6.7315513
6.5617692
6.6808596
6.6691574
6.6543321
6.6419606
6.5138233
6.5306632
6.3380967
6.4777592
6.4987326
6.5082592
6.3732482
6.3563431
6.5464137
6.4271391
6.6212441
6.7984283
6.7800056
6.6045609
6.5881809
6.5684757
6.7487224
6.7348152
6.7072931
6.6811776
6.4802958
6.4145685
5.9144202
5.9181115
6.0052366
5.6550418
6.2656298
6.1867614
5.5384819
4.7559678
5.3137719
4.401659
4.5842997
4.7098166
5.4114406
4.8661583
3.9419079
3.7938876
2.9098736
4.1490334
5.1818669
5.9803149
5.3437657
5.8499879
5.944551
6.0698674
5.3009442
5.0422563
4.9107418
3.661827
3.0046305
2.0440426
2.039113
2.9743907
4.242417
3.715308
4.3153816
4.5380093
4.8020231
5.0641891
5.321394
5.5525468
5.7755317
5.9753016
6.1749408
6.2085638
5.9789889
5.9450933
5.7122297
5.765789
6.0146978
6.0494594
6.2419752
6.3881453
6.2366729
6.2584012
6.0676175
6.2870914
6.2604267
6.4630914
6.3283669
6.5377416
6.7282782
6.8975962
7.1698583
7.153875
7.0715855
7.0878387
6.7729724
6.7267609
6.8589693
6.6716895
6.4635498
6.2374126
5.5992927
5.9760887
5.8851899
5.4782453
5.0954263
5.2171481
6.0303067
5.903524
5.8034174
4.8191614
4.9522452
3.5503509
4.0935497
4.7755503
5.3706438
5.2707721
4.3369872
4.6655219
3.6943316
4.548561
4.6722109
3.8348476
2.7853211
2.7436538
4.009382
3.5097535
1.8694299
1.8405766
2.4825557
3.3393821
4.1641185
4.8231195
5.3909897
5.821697
6.1870821
6.5544019
6.9721844
7.3078669
7.3326792
7.4051895
7.5049602
7.3578379
7.3718568
7.2897198
7.2792836
7.058485
7.1906042
7.2036541
7.0796756
6.9538772
7.2128018
7.2010445
7.1248531
7.1352951
6.8396738
6.8100764
6.9284202
6.7665578
6.8456569
6.926877
6.9913816
7.0095515
6.9510321
6.9354252
6.8541323
6.7012921
6.7985216
6.7897228
6.6856705
6.5088258
6.6392761
6.721829
6.7334193
6.6678324
6.816732
6.8249947
6.9588448
6.8798991
6.8727063
6.7172033
6.7301885
6.5597108
6.6798144
6.5068248
6.4962974
6.4748089
6.6517612
6.5266873
6.3329215
6.3117446
6.4636852
6.2867283
6.4347064
6.4597174
6.3238367
6.3013842
6.1195116
6.0950965
5.8586456
6.0744393
6.0376383
6.0180922
5.9739967
5.7524419
5.696691
5.4323863
5.4846618
5.7626618
5.4939295
5.4420809
5.1251702
5.1938149
5.2424758
5.5293775
5.7923504
6.0367172
5.8337215
6.0936042
6.0568378
6.2951893
6.5084583
6.6989629
6.6030534
6.5728114
6.3500386
6.4740089
6.2620465
6.1082451
6.1500636
6.3932478
6.4262111
6.6368343
6.6534872
6.743325
6.5609171
6.4529202
6.3440545
6.5738037
6.553765
6.5172797
6.4827022
6.3884694
6.4249725
6.1599064
6.2754746
6.2307197
6.1051562
5.790539
5.9528118
5.9970651
5.8423373
5.4710908
5.6771401
5.8739009
5.8144514
6.0121155
5.7485306
5.790876
5.564512
5.5083874
5.1524841
5.4474884
5.5018797
5.2257866
5.2793838
5.6131776
5.9163559
6.1867744
6.2196512
6.3554077
6.1255812
5.954672
5.7734125
6.0787078
6.0400225
6.3123234
6.2017405
6.4668174
6.4885114
6.2370594
5.9362862
5.8910587
5.5278651
5.7265586
5.3711758
5.3126776
5.2558778
5.616856
5.3950653
5.1858062
5.6361189
5.9946576
6.308433
6.6173612
7.0102372
7.0298777
6.9925316
6.6130288
6.6712023
6.7151964
7.0683409
7.081073
7.0468862
7.0337722
6.6610412
6.6987277
6.7491985
6.5052897
6.5662247
6.6407376
6.7144531
6.7963044
6.7770385
6.6912422
6.6801224
6.4778894
6.5822427
6.6004231
6.4986245
6.5190894
6.6179045
6.6331607
6.8050012
6.7229156
6.5363143
6.4420247
6.6515903
6.578241
6.3523385
6.3279619
6.4209147
6.3974593
6.6162724
6.6024514
6.5221706
6.5372659
6.2998002
6.2706242
6.3724828
6.1140107
6.2484365
6.3800711
6.4021947
6.2747585
6.0215388
6.1798056
6.1537806
5.9888812
5.81583
5.8555674
6.1455338
6.0171292
5.9776134
5.6341
5.5815419
5.3869216
5.7975064
6.1371896
6.4198155
6.3947125
6.3497337
6.2786999
6.234848
5.8923956
5.9559
6.0499052
6.0966111
6.0067676
6.3279446
6.3548974
6.0509471
5.9873958
6.3133578
6.2843393
6.2328692
6.207536
6.1603659
5.7839559
5.8508973
5.8854412
5.9392217
5.9062696
6.2602518
6.2897938
5.9549425
5.5284186
5.5770294
5.6727642
5.6155212
5.7457633
5.6904346
5.555367
5.495269
4.977198
5.0643528
5.2600388
5.3239338
5.1329677
5.2017591
5.0527578
4.9792581
5.515256
5.451715
5.3996949
5.336737
4.7383626
4.8270413
4.9073276
4.2260935
4.463914
4.7481911
5.0398041
4.971563
4.4688139
4.8420496
4.9123353
4.5582151
4.6271366
5.1050458
5.1686988
5.4243208
5.6573785
5.8697957
5.5894652
5.8256242
5.5676614
5.8349113
6.0415938
6.2625463
6.0774501
5.8365764
5.8040861
6.0217696
5.8058227
5.5376593
5.5749229
5.2851721
5.324676
5.6023698
5.8684028
6.0775037
6.290011
6.3047414
6.0904605
5.8923236
6.1254027
6.1031089
5.8661669
5.6089487
5.6394853
5.8901131
6.0876324
5.8853669
5.9119967
6.1422012
6.3527762
6.5434146
6.42222
6.4404449
6.320726
6.2983769
6.0504625
6.2035364
6.2253993
6.3702704
6.1623764
6.3368072
6.1286639
6.1173398
5.9183929
6.1197617
6.3258009
6.3384092
6.1298841
5.938438
6.1655143
6.1466043
5.9165575
5.6679664
5.6933272
5.9355168
5.6900611
5.9342991
5.7240686
5.9861662
5.960522
5.9329773
5.9029684
5.6983794
5.7362779
5.4207374
5.6616293
5.6267194
5.3754045
5.3285655
5.0346642
4.9740033
4.5505118
4.9210663
5.241238
5.5470541
5.1894309
5.1380554
4.7960477
4.8621381
4.486303
4.8593533
4.7953782
4.4020949
3.979076
4.4208197
4.4831916
4.0424136
3.969627
3.4458534
3.532005
4.0500943
4.1163362
4.5463797
4.9141032
4.9641797
5.2867163
4.9754759
4.6041743
4.1814363
4.6140299
4.1830802
4.6965526
4.7688353
5.231155
5.4751592
5.5242216
5.2937397
5.6837723
5.7315431
6.0530362
6.1750092
6.2019155
6.0861151
5.7752789
5.9269909
6.0768918
5.8041805
5.7711712
5.4624422
5.6935166
5.4057177
5.6628276
5.6334834
5.3606626
5.3944101
5.4253004
5.1357277
5.4394265
5.1718975
5.5012786
5.2617945
5.6137462
5.5702876
5.8918745
5.3545917
5.4127742
4.9934777
4.9183405
5.2071141
5.1509985
5.0929213
4.6788464
5.0274562
5.3290343
5.3682554
5.0777625
4.7156019
5.0546062
5.0101896
4.6597332
4.2479872
4.3164655
4.7435714
4.3419937
4.8425298
4.4863223
5.0438024
5.5091832
5.892796
6.2096978
6.4742124
6.4557259
6.3952993
6.415789
6.1326001
6.0937424
6.1753492
5.8460543
5.7282985
5.7816284
5.3430854
5.2714555
5.4476573
4.9664351
4.8921084
4.8202035
4.5378713
4.6151042
3.9008201
4.3118539
4.2356543
4.1639506
4.0873726
4.6816639
4.394752
3.6732105
3.7593422
3.8253697
3.4604981
4.2993592
4.3778029
4.2488339
4.9744668
4.8993787
5.464426
5.4747795
5.9110384
6.2626094
6.6147823
6.992999
7.3081115
7.6270534
7.5706509
7.1904254
6.7360929
6.3305667
6.8583509
6.3269879
5.7413294
5.1512332
5.1075719
5.7449754
4.2404436
2.9108505
2.9294729
4.1312768
5.324231
5.4463336
6.3495301
6.8753608
7.1915593
6.3523294
5.7564317
4.256691
2.5570256
1.0821546
1.1795812
2.497642
1.2329272
0.4390143
0.39830536
1.1339542
2.9880449
3.0036845
4.1505955
5.7541782
6.7455629
5.1950224
5.679408
4.0300993
2.4387622
1.2175669
0.43197493
0.39079991
1.1169955
2.4887109
1.0196143
1.1183778
2.7823655
2.7388086
4.1277169
5.6793383
6.7076911
5.0544425
5.0007172
5.1895145
2.7120631
0.92616347
0.35544391
0.36376566
0.98887232
2.9135765
5.295277
6.5589419
7.1798494
7.23724
7.3195173
7.2646091
6.7796578
6.9854958
6.9123872
6.8668169
6.9146382
6.9585281
6.5658925
6.4925986
6.4118683
6.492347
6.6187303
6.6842731
7.0234849
7.1135438
7.0761046
6.7712108
6.822959
6.8640119
7.1558668
7.3804244
7.4054389
7.3327278
7.0344478
7.0470854
7.0816951
7.0691994
7.0310932
7.0123297
6.9725272
6.5562518
6.6235479
6.6757197
6.7181821
6.6621621
6.699416
6.7510715
6.8414175
7.1357544
7.1255272
7.0890513
7.0734939
6.7330078
6.7771869
6.9005814
7.1711318
7.2020512
7.2133065
6.9548798
6.9304691
6.8127563
6.5296695
6.4638832
6.4024997
6.3611573
6.3351223
6.3333912
6.3554632
6.3782703
6.3566707
6.0465237
6.0751084
6.0331567
6.0025552
5.590553
5.6369792
5.6960382
5.6516048
5.1357062
5.2070573
5.1280965
5.0527515
4.3367514
4.4644594
4.6980785
4.7877349
4.0879929
3.9868723
4.3946063
3.74979
4.2588776
3.7379284
3.6632426
3.5955046
4.1109007
3.5974539
3.5319062
3.4801093
2.9480765
2.9867881
2.2421877
2.9179066
2.8703329
2.2036141
1.6297249
1.6078295
2.485039
3.4041381
3.2037748
4.0980472
4.0386893
3.1386485
2.2024983
2.184507
1.2098203
1.2443558
0.64228319
1.0171911
1.6472017
2.3648873
2.9957895
3.5638967
4.0243503
4.4471593
4.8133202
5.1655516
5.4765617
5.5295226
5.8157582
6.0770972
6.311233
6.5201737
6.4875005
6.3691799
6.5863651
6.6142991
6.4099083
6.4402143
6.5466773
6.341354
6.3666681
6.140402
6.1106197
5.9443968
6.2067126
6.1724594
6.1337745
6.2793662
6.0343134
5.8497175
5.9047429
5.7237474
6.0297064
6.2981928
6.5321699
6.4997904
6.256316
6.1391187
6.4098872
6.4436307
6.1888296
6.2270827
6.3320845
6.5665282
6.6461465
6.6611408
6.4643164
6.2363351
5.978566
5.809887
6.1034196
6.35998
6.5840485
6.7792568
6.6805055
7.0331012
6.9957387
6.9767719
6.9768002
7.3089451
7.6270704
7.7958679
7.837155
7.9170435
7.8902481
7.804329
7.7515118
7.667915
7.5710822
7.1839536
7.2391912
6.8747427
6.572693
6.4296991
6.5063516
6.9198862
6.9616193
6.9168832
6.5028372
6.5729921
6.6871115
7.0250885
7.320042
7.2663009
6.7826525
6.9875017
6.6222774
6.7721109
7.0771649
7.1137123
6.8232738
6.8637793
6.7345201
6.628204
6.5662986
6.6210448
6.6217821
6.6666629
6.7207179
7.0704185
7.0820183
6.7522647
6.8417391
6.645691
6.7176186
6.6958137
6.6861731
6.4869968
6.5057258
6.5241898
6.5400714
6.6351248
6.8064634
6.7250306
6.6551922
6.4473558
6.4288956
6.4078081
6.6225098
6.6106445
6.3858841
6.2889743
6.5328633
6.5013848
6.4825062
6.4139462
6.3717498
6.3336862
6.034563
6.0855596
5.9957434
6.3027683
6.263046
5.9364596
5.5634404
5.6953568
5.8382911
5.9886123
5.6669974
5.4646801
5.5350794
5.8862711
5.9310759
6.0684639
5.7682718
5.5866253
5.6346129
5.9702942
6.2580287
6.1644045
6.4356652
6.3723486
6.348605
6.0418698
6.1275554
5.7963902
5.7453738
5.3428865
5.2718044
5.078986
5.1617086
5.6188412
5.67395
5.7248646
5.8415122
5.4574886
5.4011115
5.2253689
5.2877823
5.145134
5.6312029
6.0186273
6.0811069
6.1199635
6.1980717
6.4687649
6.4850057
6.5458979
6.3141876
6.3391832
6.5723271
6.5825559
6.3601341
6.0994022
6.2107791
6.3263513
6.4434717
6.230451
6.2104519
6.1893434
6.4082129
6.3886894
6.1659811
6.009648
6.2621891
6.2855467
6.0373851
6.0629324
6.3061666
6.1872557
6.1619406
6.1340786
5.8469091
5.881291
5.7223071
6.0399521
6.0065093
5.6791195
5.30057
5.5198806
5.7252786
5.918566
5.8881839
5.854771
5.5728403
5.6109672
5.3687351
5.6882675
5.6490316
5.604093
5.2732559
5.202571
4.8490938
4.9130132
5.2152734
4.8769518
4.5302496
4.4478136
4.0617833
4.5081524
4.9212084
4.9895219
5.3746077
5.1284746
4.6726933
4.5850488
4.1035567
4.177353
4.5698208
4.1342897
3.6690867
3.578425
3.0551853
3.6620503
4.2430868
4.3226553
4.8662946
4.6071429
3.9565009
3.8638297
3.1735182
3.2293699
3.7232797
3.1166734
2.4922912
2.4311028
1.8642438
2.722852
3.5440445
3.6193321
4.3796823
5.0103515
5.5174997
5.9262818
6.2578992
6.2151187
5.8666722
5.8259094
6.1868574
6.2298176
5.8880663
5.9390231
5.9751408
6.3057705
6.3312168
6.3054345
6.278869
6.2785099
6.2285707
6.1857853
5.9411155
5.8460935
5.3359713
4.9046544
5.0344822
5.2851249
6.0627685
5.9724247
5.1657311
4.1232345
3.6483142
2.9849438
2.0248414
2.0147433
3.6989197
4.2122326
2.931658
2.8741773
3.7615662
4.7308313
5.5240147
6.1798882
5.9036523
6.4089814
6.4747985
6.2584614
5.6399489
5.9941538
5.9052899
5.294306
4.3764066
4.5552744
4.6806916
3.9047254
4.8392291
5.3920657
5.5355308
5.3000486
5.0385884
4.773836
4.5103882
4.2938896
4.1686164
4.1763199
4.8354213
4.9286664
5.4599455
5.4010997
5.4597419
4.9205551
4.988899
5.0771875
5.5756431
5.5196862
5.5768468
5.9828417
6.0262241
6.0597146
6.3700428
6.4091608
6.4267903
6.1529375
6.2275301
6.2565588
6.5125089
6.5251507
6.2810024
6.2139977
6.4717709
6.4580384
6.1852061
5.8624926
5.9607338
6.0704225
5.7616834
5.91274
5.9418844
6.0861238
5.8174709
5.9931218
5.9703131
5.9454713
5.6772643
5.6451076
5.410515
5.4497804
5.7583164
5.7888206
5.4860676
5.7060479
5.7327238
5.519196
5.1936473
5.4488659
5.4176069
5.3838762
5.3475409
5.307959
5.2646704
4.9306532
4.979165
4.6451301
5.0188844
4.9679467
5.3223024
5.0476789
5.4275959
5.4748407
5.1017386
4.8032024
5.2447416
5.1884703
4.7379004
4.2465827
4.6337896
4.6937116
4.2626725
4.1990069
4.5886608
4.1889783
4.5661563
4.5060228
4.0980704
3.6959884
4.1249617
4.052639
3.9023011
3.7823117
2.6255195
2.8262118
2.9417932
2.1343417
3.0100351
2.8901046
2.0138602
1.1305785
1.7245574
1.7254845
0.70318887
0.79700086
0.41851042
0.37442803
1.1472167
0.59438232
1.1884986
1.8516004
1.8388868
1.019791
1.1679257
0.46103725
0.88723089
0.78962806
0.41472485
0.23171863
0.25486263
0.62232078
0.24424408
0.22249234
0.21605858
0.22237683
0.23120208
0.26122987
0.43462335
0.82785345
1.9240653
3.551144
4.8398147
5.8130196
5.9122176
6.049134
5.9544796
5.138535
5.2617474
4.9748368
3.5998572
4.1826901
4.0860858
2.8513138
2.9147082
1.9090196
2.2480518
3.1750284
4.063607
4.7535539
5.3464403
5.788951
6.163553
6.2095447
6.2415699
6.1954599
5.8369728
5.9002446
5.8552115
5.4087293
5.4770065
5.4153233
4.8651235
4.9505087
4.8433813
4.9169542
4.9920896
5.5369042
5.9595301
6.2911037
6.3197393
6.2916675
5.9532106
5.9997204
6.0677351
6.3627652
6.3377645
6.289384
6.2472714
6.3221331
6.3623549
6.0712997
5.9748925
5.912697
6.0167535
5.6717004
5.5292761
5.5888904
5.7246717
5.314519
5.1185483
5.0309055
5.2401617
5.4444764
5.8222139
6.1264924
6.4010959
6.2545919
6.1733486
5.9001502
6.4089625
6.4754383
5.9992107
5.6364241
5.517202
5.9097232
5.3085726
4.7298268
4.3892141
3.7779603
3.9269898
4.8432393
5.4070208
4.7151721
4.5897975
5.223504
5.7930277
6.2435482
6.6331869
6.9181611
7.168202
7.4285713
7.6679275
7.7215912
7.4820573
7.5050574
7.6151266
7.6461956
7.58933
7.5437746
7.5801475
7.5048834
7.3885147
7.0396105
7.2556933
7.3049122
7.2873022
7.198485
6.9669554
7.0991818
7.0662482
6.8475653
6.9997202
6.8902327
6.690575
6.3285184
6.5890287
6.5480161
6.4876969
6.9575626
7.2738304
6.4895705
5.6039961
6.2237835
6.2863448
5.8869971
5.3552334
5.8858133
5.7917492
6.2437055
6.5485524
6.5889806
6.8899582
6.8470074
6.6337059
6.6906242
6.3276571
6.3638219
6.6517873
7.0685003
6.9337223
6.8539947
7.0024215
7.2377073
7.2502734
7.3349324
7.3669481
7.3206114
7.1418714
7.160658
7.0325937
7.0592735
7.2798213
7.2899238
7.3719132
7.3900638
7.3577845
7.1910485
7.2037735
7.0798532
6.8742955
6.7983063
6.7173053
6.6447516
6.5710034
6.5105054
6.455073
6.4180426
6.3952872
6.3939808
6.4139873
6.4499264
6.4662694
6.5196919
6.2712666
6.2422671
6.1700929
6.2026559
6.1525354
6.4319453
6.4128654
6.1268051
6.0886722
6.1158256
5.7533053
5.8328049
5.9363721
5.9768763
5.8806804
5.4836535
5.6245986
5.5679334
5.4136903
5.2875783
5.367343
5.8069662
5.7691655
5.7112955
5.2201893
5.3052175
4.6685996
4.7803998
4.9799826
5.1990138
5.1216557
4.8822494
4.2033058
4.5831678
4.6842612
4.3303129
3.960354
3.8181235
4.6662706
4.5605997
4.4358109
3.4772187
3.7003531
3.6043221
3.5252833
3.310782
3.2514757
4.1698103
4.2000932
4.1254015
4.2953567
4.2273608
3.4359088
3.5114702
3.245951
3.3000071
3.3651864
4.2797778
4.455178
5.0956887
5.6001503
5.5397555
5.0223348
5.1874688
5.6475831
6.0240716
6.1163777
6.4055757
6.4290423
6.154476
5.8276653
5.7025829
5.2547985
5.4365386
5.376343
5.7778403
5.9200605
6.218851
6.4768815
6.4360723
6.5275295
6.4938202
6.2490013
6.2918793
6.177988
5.8723603
6.0217346
5.9787839
5.6558405
5.7133238
5.5168639
5.5717487
5.6226601
5.961467
6.2522989
6.4966501
6.5814535
6.5622658
6.32717
6.3563637
6.4617574
6.6588848
6.643539
6.6106591
6.5821418
6.6786501
6.7054108
6.5180667
6.4053738
6.3634346
6.4843562
6.2767075
6.1280836
6.1681117
6.3081102
6.0748843
5.8995412
5.8426879
6.0313231
5.7731974
5.5458332
5.3077073
5.0394736
4.7618203
4.4762819
4.5498522
4.8298387
4.2802196
3.8858992
3.7896041
4.1971989
3.6170214
3.0958365
2.6050328
2.6291987
2.239336
1.2581382
1.2840879
1.7626875
1.7645776
1.7667144
2.6712972
3.5789863
4.3726146
4.626625
4.7048735
4.9726033
4.9017396
4.3557176
3.9618327
4.0446582
3.6565573
2.7233231
2.2697753
2.192421
2.5271852
3.0869928
3.6676005
3.0235928
2.9672761
2.2571684
3.0318432
2.5031096
2.1850375
1.16113
1.5789744
1.5468355
2.2776533
2.306073
3.1558783
3.2436433
3.8435585
3.1700519
3.8194034
3.9088481
4.4285509
4.8086474
5.1253515
4.7687776
5.0958623
4.7691065
5.1059343
5.0660737
5.0238583
4.6978506
5.0664754
5.1115305
4.7484699
4.7968607
5.1532517
4.8649398
5.2506905
5.6008026
5.5613429
5.2029588
5.1532052
4.8672233
4.9310999
5.353013
5.4037835
5.4510138
5.6365201
5.2947494
5.0532762
4.9928605
4.5337167
4.4596342
4.8086647
4.7518697
4.3253912
4.3879423
3.9562734
3.878514
4.3863659
4.3152996
3.8053777
3.736011
3.1785253
3.795383
4.3944224
4.9348232
5.0006101
4.4678821
4.106071
4.7516531
4.678752
4.0279371
3.2916949
3.3625559
3.8703122
3.2461909
2.5822444
2.5320466
1.8734689
2.792009
3.6849421
4.4532504
4.5288413
3.7585083
3.5159067
4.3834572
5.0571705
5.1279715
5.2124363
5.349362
5.5107859
5.8839667
5.9233346
5.5623018
5.4101836
5.818168
5.7723542
5.6841048
5.7352993
6.0962638
6.3894747
6.3663438
6.3455261
6.3454864
6.6656537
7.0356936
7.0357545
7.0477555
6.7013413
6.4226952
6.438186
6.1639908
6.1321195
6.1032332
6.4009804
6.4174804
6.1364953
5.7885395
5.830366
5.9024789
5.9946691
5.6578576
5.7976656
5.8315526
5.9678817
6.1077294
6.2483477
6.389828
6.5305077
6.7761241
7.1603435
7.4433223
7.6550887
7.7110757
7.8507299
7.8985769
7.9305713
7.8985832
7.7778505
7.8385694
7.7832333
7.6551205
7.6802932
7.4650705
7.4431947
7.398158
7.5509927
7.5719225
7.4288677
7.4078267
7.2426802
7.2337502
7.102175
7.3187077
7.3251763
7.1197357
7.1402692
7.269162
7.2807995
7.4421899
7.3596967
7.3508638
7.2751475
7.4749458
7.7015943
7.7599197
7.5238741
7.618599
7.7212097
7.7504026
7.5453758
7.5195135
7.468746
7.4780957
7.3204951
7.310905
7.1793418
7.3877046
7.3932429
7.1970167
7.2192152
7.3485087
7.4987342
7.6446344
7.5056527
7.3614111
7.4222731
7.4181199
7.3393417
7.5501362
7.3394996
7.0944395
7.0738237
7.3160173
7.311057
7.2836747
7.0361817
7.1579557
7.0353819
7.0940745
7.1949399
7.4649622
7.6802555
7.57192
7.5509434
7.3981047
7.4079519
7.3252649
7.3185415
7.1020232
7.2337604
7.2425543
7.1197596
7.1404651
7.3510576
7.4288705
7.4422447
7.35977
7.1583808
7.2807311
7.2690425
7.0783955
7.05217
7.0376937
6.9747957
6.9811593
6.9029003
6.8972018
6.7445956
6.8431303
6.8488489
6.7554837
6.7684279
6.9188714
6.9942429
7.0008529
6.9240827
6.7786763
6.8703557
6.8640153
6.7193998
6.7828321
6.7753473
6.6974393
6.7064444
6.5881123
6.5745895
6.388134
6.5293957
6.5360077
6.4024124
6.4172395
6.6009655
6.6134978
6.7288869
6.5605648
6.553049
6.3857208
6.5152351
6.7828071
7.0523112
7.0377177
6.9751839
6.9813909
6.8493029
6.8434487
6.745505
6.8978917
6.9030313
6.7559532
6.7685507
6.8644358
6.9943456
7.0009273
6.8706078
6.7786198
6.9239202
6.9187071
6.845447
6.9971598
7.2493917
7.4545084
7.2423134
6.9775371
6.8674637
7.1689981
7.1736999
6.8881925
6.9097281
7.0173836
6.8669991
6.9402085
7.0157343
7.0780729
6.8218494
6.8287053
6.7652742
6.9077494
6.8923898
7.0214267
6.9447265
6.8007009
6.7908139
6.8873774
6.744986
6.7289897
6.7193312
6.7070151
6.6978378
6.5760762
6.5887973
6.4034582
6.5366181
6.5540907
6.5610651
6.430777
6.6132677
6.601236
6.4174285
6.2156285
6.3858822
6.368666
6.4955805
6.3582073
6.3679462
6.1984265
6.1814087
5.9571163
6.1563575
6.1639507
5.975392
5.9941085
6.2145286
6.2292681
6.4300632
6.4444331
6.6260925
6.7910099
6.9401745
7.0156986
7.0217621
6.9446219
6.8007161
6.8923986
6.8872076
6.7449104
6.8217405
6.8287152
7.0939392
7.0353018
7.0415973
6.964897
6.9601914
6.8125584
6.9077418
6.9136205
6.8220621
6.660174
6.7742882
6.7649172
6.7528354
6.6370693
6.4559293
6.5859042
6.5808212
6.4136262
6.5474795
6.5647034
6.437434
6.6026339
6.6088148
6.4801598
6.4682665
6.6484443
6.5373015
6.7198867
6.88719
7.0362251
7.283682
7.474907
7.7016348
7.7599287
7.8385896
7.721187
7.6185374
7.4687038
7.5194228
7.4779378
7.3930909
7.3877371
7.1793093
7.3109473
7.3203138
7.1967962
7.247734
7.1220187
7.1366232
7.0757606
7.0622854
7.0569375
6.9809048
6.9845649
6.8430747
6.9349578
6.9305959
6.8337591
6.6720403
6.7902605
6.8687048
6.8751668
6.8099275
6.9499768
6.9549247
7.0808322
7.0029076
6.9997117
6.8542015
6.8629907
6.7039665
6.8182443
6.6552682
6.6499408
6.6332491
6.7976069
6.6823702
6.5040577
6.4927995
6.6290101
6.463766
6.596457
6.8687308
7.1219824
7.136912
6.8753987
6.8100221
6.9500834
7.0757044
7.0622065
7.0568962
7.0414345
6.9136666
6.8222921
6.9647655
6.9601696
6.8122552
6.6490494
6.6370175
6.7526719
6.5863086
6.5811448
6.4444198
6.6257868
6.5135085
6.6978512
6.6854958
6.8511311
6.7736383
6.7683142
6.7505903
6.8296386
6.8232313
6.6495311
6.6616249
6.5692248
6.5554237
6.7445986
6.6751095
6.6823861
6.4804341
6.4649024
6.3809441
6.6055657
6.6130261
6.3978844
6.4152702
6.4956826
6.5829327
6.6740882
6.4876573
6.4736085
6.4589926
6.3442491
6.3607171
6.1271255
6.2646757
6.280334
6.2946189
6.5001438
6.3906076
6.5947803
6.508681
6.7063356
6.6997944
6.6333896
6.6390331
6.4292264
6.1862411
6.2843231
6.2681852
6.3755095
6.1447253
6.1609293
6.0315728
6.0122257
5.9910951
6.2506236
6.2315327
6.1245616
6.1474062
5.8606781
5.8867286
6.1672692
6.077749
6.3438523
6.5793068
6.8037728
7.1212662
7.3871646
7.4043234
7.1496732
7.2022877
7.2080597
6.9282742
6.8456648
7.1557231
7.1232418
7.1179118
7.0881677
7.083385
7.1155973
6.7806071
6.7327487
6.7571435
6.7807806
6.8261018
6.6056803
6.658122
6.7234419
6.7908357
6.7950489
6.8723366
6.7084995
6.6186555
6.6074927
6.4038916
6.4167092
6.5252594
6.3217773
6.4558632
6.4687924
6.602744
6.6091059
6.774252
6.6599143
6.4801772
6.2825938
6.4454712
6.4372736
6.4212913
6.4136732
6.3951833
6.1938229
6.1875986
6.1641981
6.15711
6.358833
6.1840253
6.1992836
5.9768319
5.9590102
5.7172561
5.9600374
5.9742855
5.7362592
5.7143027
5.4536154
5.479004
5.7377577
5.7580319
5.9950261
6.1873793
6.1937468
6.3942074
6.009525
5.7746503
6.0065996
5.7751952
6.0096927
6.2294045
6.2442499
6.2567396
6.0392866
6.2213087
6.2171541
6.0254682
5.791922
6.0258843
6.2173442
6.2213425
6.4207486
6.2568278
6.2435243
6.0258798
6.0392454
6.0538356
6.2700845
6.2824983
6.4450226
6.2469471
6.2426638
6.0538069
6.2431223
6.2470103
6.0662923
6.053404
6.2697844
6.110056
6.3343743
6.5372182
6.7199942
6.8871741
6.8925828
6.7301629
6.6409081
6.8150812
6.8114742
6.6302267
6.4289032
6.4407951
6.5486804
6.3468767
6.2166511
6.2033701
6.1900032
6.1757937
6.3079463
6.0817483
6.0663441
6.0502338
6.0329232
6.0138144
5.7570112
5.7787157
5.577088
5.8655976
5.8422773
5.5491483
5.2293937
5.4772692
5.5029631
5.2065318
5.175928
5.1423592
4.8423191
4.5102561
4.9168991
4.6057295
4.1173468
4.035814
4.4492613
4.0191974
4.4166544
4.3616726
4.7210707
4.6721326
4.6203661
4.22214
4.1610415
3.7604209
3.823396
4.2476924
3.8227773
3.7580922
3.6916121
3.62852
3.1794357
3.6064718
3.145461
3.2163462
3.6253276
3.0644918
2.6604315
2.5810938
2.2188592
2.7342143
2.7928853
3.2518694
2.7340809
3.1787307
3.1066919
2.6524541
2.2515907
2.3159331
1.8779134
2.2834045
2.3399375
2.7180236
3.1246099
3.6918388
3.7567652
3.1874626
2.7786127
3.3456727
3.2806678
2.8566453
3.3170543
3.3814346
2.8545565
3.3080408
3.2422079
2.7925886
2.3725247
2.4309513
2.9199031
2.3982685
1.9797834
1.9269961
1.4201461
1.7406035
2.046418
2.4348155
2.3938326
1.6548693
1.2969732
2.0064772
1.9702427
1.2740496
0.70863704
0.67632276
0.96942298
0.57791199
0.32256585
0.36238803
0.25399145
0.57438337
1.0552918
1.6661312
1.6989787
1.0773083
0.87062945
1.3834901
1.3447775
1.8100223
1.3667327
1.721216
2.0712751
2.5188574
2.5587303
2.1126279
1.412285
1.8498169
1.8284341
1.3841437
1.1164349
1.139271
1.754835
1.4059054
0.90414655
0.87811844
0.50092905
0.61844
0.78895606
1.1818444
1.1436696
1.8691086
2.7482578
2.4102131
3.3946282
4.2372558
4.3081342
3.4502034
2.4290027
2.4566425
2.8436959
1.8842505
1.3467769
1.3746518
1.4072745
1.4252198
2.4104568
3.3211256
3.3100017
3.381111
4.2285127
4.9148632
5.4561186
5.8858279
5.8232123
5.8618412
6.2121326
6.2548002
5.9213317
5.9709661
5.9367083
5.9811981
6.3040307
6.3286146
6.3022898
6.3452408
6.6780747
7.0322068
6.9948684
7.0140511
7.074461
7.3805826
7.4053542
7.3328306
7.047514
6.7007226
6.7510299
7.0814221
7.0695882
6.7186115
6.8131525
7.1256633
7.0892907
6.7772443
6.9000315
7.1709711
7.1556371
7.2375627
7.481935
7.7215051
7.504887
7.2796692
7.2017194
7.2129838
7.1354459
6.8405346
6.9538138
6.9296279
7.0585199
7.0315218
7.2495958
7.3347747
7.3665359
7.3204165
7.2870114
7.1981208
7.4283163
7.3888118
7.0390126
7.1679814
6.917498
6.9661595
7.0982407
7.3036841
7.2550953
7.0650762
6.8448328
6.6305646
6.4816227
6.2357952
6.3218515
6.6881813
6.8878755
6.996046
6.5408503
6.5828448
6.2726623
5.8706491
5.7738243
5.5705762
5.1819766
5.3186901
5.8554489
5.7554169
6.2062379
6.5352198
6.4677398
6.952184
7.2726262
7.5798389
7.5047295
7.5436302
7.5892228
7.6460295
7.6149465
7.3897258
7.3576629
7.3716321
7.2895338
7.0791893
7.2032674
7.1901397
7.1595783
7.1410997
7.0013498
6.7646284
6.6776821
6.5821287
6.4953903
6.4047801
6.328734
6.2586585
6.2982253
5.9879468
5.9286138
6.0259238
6.0776935
6.367116
6.4094874
6.4317205
6.3683911
6.075147
6.013677
5.6228038
5.5733816
5.5159603
4.9829311
5.0514554
5.1295935
5.062493
5.5668059
5.5084678
5.4515755
5.3972799
4.8294521
4.9151221
4.9956109
5.1424191
5.6065805
5.5506804
5.0592873
5.2526415
5.6822201
5.7326425
5.3231321
5.3823038
5.2057538
5.6616445
6.0339404
6.1206161
6.1569734
5.8301496
5.7128741
5.2683642
5.438201
5.4929243
5.3304454
5.1968963
5.1216014
5.6290808
5.6318666
5.6862846
6.0641257
6.063632
6.3654297
6.3871909
6.3671789
6.0556458
6.0235884
6.0926528
6.1293011
6.1016129
6.4003947
6.4169164
6.1352593
6.1610817