/*--------------------------------*- C++ -*----------------------------------*\
  =========                 |
  \\      /  F ield         | OpenFOAM: The Open Source CFD Toolbox
   \\    /   O peration     | Website:  https://openfoam.org
    \\  /    A nd           | Version:  7
     \\/     M anipulation  |
\*---------------------------------------------------------------------------*/
FoamFile
{
    version     2.0;
    format      ascii;
    class       volScalarField;
    location    "310";
    object      k;
}
// * * * * * * * * * * * * * * * * * * * * * * * * * * * * * * * * * * * * * //

dimensions      [0 2 -2 0 0 0 0];

internalField   nonuniform List<scalar> 
25278
(
1047.166
988.79488
990.35611
990.35449
936.95927
988.79471
1046.0355
1047.1639
1046.0391
1031.9109
1033.3589
1034.937
1008.4652
979.06757
915.31964
990.06462
988.69257
942.41137
936.80413
966.70594
973.53425
975.58797
976.9452
1006.0293
1001.7873
1006.0277
976.94594
974.49009
968.47789
982.75503
982.67426
968.0279
966.77287
967.67697
981.99999
979.67881
987.21322
987.89827
980.16778
980.91034
980.14916
988.0457
989.0333
996.2864
994.17481
995.67192
1004.6226
1002.4342
994.83731
981.82582
981.01675
965.82692
962.78039
965.02967
979.86233
987.86774
987.45946
979.29624
979.63318
980.60086
989.18565
988.5196
987.48792
986.91983
978.64741
978.29464
986.53354
986.77339
977.63798
978.43264
975.03347
977.59507
979.67078
980.66292
979.9764
981.85122
982.03556
982.77437
975.59209
950.89564
924.37247
915.40367
942.49127
937.16502
948.49504
921.76125
906.63116
883.17101
895.32789
905.22193
920.7279
911.59246
895.1549
872.01757
890.73747
911.76413
928.13304
934.79437
951.3789
945.64344
927.92269
910.4151
930.91178
945.86388
937.43842
918.53708
900.61624
856.42335
835.76046
796.01555
871.14848
888.47982
815.79582
837.5022
878.41255
901.48197
860.59213
927.14297
907.88564
907.84613
937.11659
948.44553
936.86605
894.90317
871.78835
835.64252
795.87967
871.109
906.58348
921.71413
924.24248
950.75403
942.35901
915.27082
895.22269
883.1212
900.58168
888.44664
815.63543
856.35523
878.39823
837.32495
860.3666
927.10243
937.42245
918.52458
928.07161
911.69319
890.5759
911.41842
915.07706
905.05895
920.58956
934.66891
942.19477
951.27214
945.82788
930.92643
901.52205
817.98028
664.99848
665.43107
817.79039
900.06451
936.67445
917.88152
906.49918
925.61033
855.34157
832.64303
877.06228
791.66175
638.76625
652.20202
400.37234
385.83556
650.55913
650.25353
390.70199
405.41174
652.73662
638.43601
791.61257
876.60623
910.34138
927.79794
945.59331
936.53923
899.78917
852.84123
830.10931
905.68084
936.53103
917.62986
924.93157
946.87968
878.19485
670.58564
429.97589
424.9997
668.87433
880.61251
947.31036
956.27749
962.90059
965.86203
967.70902
968.50141
968.10459
982.7331
979.76448
966.92438
980.25628
988.14004
987.28394
988.02662
980.32197
981.10583
989.20509
996.43566
994.44471
995.13867
995.6748
1004.6254
1010.1344
1008.2915
1006.1445
1009.459
995.71135
993.34498
1000.1538
1001.1656
1002.8372
1000.9301
994.28264
994.3512
994.91754
1002.4574
973.56549
966.84965
981.94184
980.07106
965.37263
980.91032
989.4625
988.05109
987.70536
979.58067
980.0706
988.91351
987.96481
987.20496
981.16793
966.01735
963.28528
978.9635
978.96086
978.2153
978.62687
986.83215
987.27967
995.1839
995.83644
996.68682
997.06824
1003.5345
1000.9928
1000.6471
994.0544
993.55679
994.16113
1007.4049
1008.4117
1006.7746
1006.8539
1013.2368
1012.8639
1013.2173
1006.9299
1008.6665
1014.3718
1014.6838
1013.0315
1012.4602
1006.3484
1008.756
1009.2216
1011.2274
1010.6807
1009.211
1007.969
1007.8949
1008.269
1010.1229
995.65871
995.1093
993.28248
1000.0978
1000.8368
1002.7096
1001.0897
994.36208
995.56384
995.2958
1002.4092
1003.3002
1000.3212
996.31433
990.12117
988.7198
988.74763
979.25374
978.62948
989.34006
985.36714
988.10285
988.8281
988.81483
980.08834
963.09682
979.34042
978.91282
980.90459
990.33972
989.58433
985.58115
973.80701
977.60695
952.23421
973.5518
963.69929
977.12041
992.12072
994.32203
996.23713
997.18195
997.58425
997.38379
1001.5865
1002.9561
1001.7437
997.58372
998.77251
998.78646
1003.2024
1002.0012
996.41764
1003.2872
1005.1267
1004.6554
1007.8228
1006.5288
1007.9428
1004.7861
1006.2793
1009.2371
1009.5541
1008.2838
1008.0352
1004.9035
1001.7128
1002.4024
997.79938
995.8028
1000.5146
1000.948
996.6839
996.48647
995.64521
1002.483
1003.345
1005.2626
1004.7943
1003.4342
1000.4661
996.47243
997.55563
1001.7397
1003.1835
1001.9461
997.79713
999.02598
999.05671
997.75735
1002.1522
1001.8616
997.35419
998.08922
1002.6534
1003.4438
1006.8314
1006.4808
1004.9675
1008.1102
1006.6546
1007.9523
1009.4245
1009.7445
1008.4009
1008.1496
1005.0232
1006.0929
1009.0079
1011.5947
1010.6016
1008.7615
1014.1974
1013.9393
1014.707
1012.1604
1013.3125
1010.4762
1012.0837
1014.6769
1013.5215
1015.9873
1018.752
1017.6088
1018.5279
1015.7732
1017.1739
1019.6794
1019.6832
1018.6693
1016.0041
1013.6422
1010.8774
1012.3638
1014.8765
1014.0444
1013.2743
1015.5736
1018.1301
1018.6973
1016.3774
1017.2877
1017.464
1017.6389
1016.4131
1014.0198
1015.2026
1012.6748
1010.0366
1008.6996
1005.5692
1002.5163
998.19912
990.49199
980.09739
957.0054
976.14263
987.95289
983.96632
989.11309
978.26283
971.25642
956.17356
966.55772
926.00804
948.96098
963.0201
979.39798
969.76241
942.8776
926.90704
899.7426
944.10681
965.95006
975.90563
948.70684
974.33979
985.5747
987.0616
979.02685
975.37783
961.94132
934.32204
886.14625
866.74476
883.5878
915.82683
958.09544
948.35317
971.5424
975.04236
979.3957
983.74618
987.99148
991.53091
994.32774
996.08554
996.38022
1001.0764
999.15949
994.4158
992.655
997.60864
1000.7484
1004.2645
1004.3268
1003.7832
1004.2239
1007.3293
1006.9939
1008.8176
1005.881
1006.614
1006.8389
1006.84
1005.323
1003.3273
1000.8581
994.19461
993.84043
1000.4756
1002.8824
996.34301
996.82457
997.91599
990.09852
988.49313
982.9821
987.40245
975.54714
970.18155
964.40302
977.58532
986.25265
984.70382
973.39379
960.14988
973.73196
944.60984
955.26673
968.204
978.70587
965.80926
924.59335
954.51727
924.42861
948.2627
962.33096
940.50735
909.83775
893.90479
941.20221
930.55072
856.27825
872.58695
918.62892
948.54594
968.88325
981.17567
989.19814
993.28027
994.43038
994.74666
992.94722
994.05366
1007.3341
1008.3602
1009.4304
1006.094
1012.8223
1013.1691
1006.7712
1008.5571
1006.862
1013.1601
1014.2754
1014.5394
1012.937
1006.6607
1006.2064
1012.3489
1013.8839
1008.522
1009.0407
1011.0257
1010.5284
1009.0961
1007.9015
1013.8835
1014.6074
1012.0548
1013.3803
1014.5187
1013.2041
1010.3598
1011.9059
1012.1931
1010.7754
1008.7152
1014.1588
1015.9179
1015.6814
1018.4356
1017.5143
1018.6246
1015.8512
1017.0283
1019.5455
1019.55
1018.5902
1018.0579
1015.5017
1013.1843
1013.5492
1014.7154
1013.8855
1011.4139
1010.5028
1009.7776
1009.0098
1014.1395
1014.6554
1012.3904
1012.0038
1009.583
1006.541
1008.0634
1005.5135
1002.5329
999.07781
997.38523
992.39667
988.00727
993.01155
997.06257
993.15969
988.17117
981.62638
987.05798
990.83802
996.69898
1001.0034
1004.0697
1002.4274
1005.4045
1001.8127
1003.3271
1003.4341
1002.2552
1002.2527
997.84003
998.72702
999.05989
998.67911
997.84916
1002.5967
1003.2176
1006.6639
1005.3644
1008.5181
1008.4814
1009.7828
1009.6192
1008.9176
1008.1621
1004.9941
1001.8684
997.36446
996.61228
1001.1434
1001.3574
1002.4551
997.89903
996.67808
994.48824
996.37886
1001.2093
999.41859
994.97658
997.84619
1000.2178
995.17221
997.00239
993.86515
998.76948
995.87941
990.79791
983.88475
988.95063
994.06235
989.40209
993.26126
999.64492
1003.8754
1006.167
1009.1252
1009.7736
1008.344
1006.8663
1004.6548
1007.8481
1004.8385
1005.9507
1004.8954
1004.3083
1007.4722
1007.8912
1006.1666
1003.1243
998.83608
1001.601
995.95205
992.06914
986.92943
992.75519
989.62131
986.55031
992.51385
995.43142
995.81802
995.41796
993.3131
999.9356
999.53694
1001.3237
1001.9818
1007.5946
1005.6055
1011.6922
1011.2298
1005.204
1006.9261
1012.1832
1012.8761
1014.3404
1015.0588
1015.7555
1016.1807
1016.2395
1013.8362
1013.8091
1011.0442
1012.2588
1012.4405
1014.9874
1014.7752
1017.1843
1017.4379
1019.8675
1018.9501
1018.8261
1019.5676
1018.8022
1018.3719
1017.6309
1017.7694
1015.4375
1016.4549
1014.0692
1013.427
1010.6717
1009.9977
1012.729
1013.0655
1010.5511
1011.5681
1010.4943
1011.7514
1012.3988
1014.8723
1014.1997
1011.9149
1013.3672
1010.9419
1009.4806
1007.3271
1009.7826
1012.9512
1011.337
1008.853
1004.7323
1001.982
999.13492
1004.3539
1006.7317
1006.7641
1003.5834
1000.4029
999.59735
994.99934
994.17293
998.96462
1000.1227
1003.7048
1002.5757
1002.8133
1005.9935
1005.632
1004.7951
1005.4725
1002.2805
999.0576
998.73279
994.10296
992.77895
997.60966
998.06663
1001.7125
1001.2658
1001.977
1005.1691
1004.3613
1000.6749
1001.3543
1002.6521
999.47335
1001.2374
997.4686
995.64784
990.60179
983.43928
989.05231
991.92135
995.8887
993.11982
996.48607
994.43147
990.96594
998.12615
994.25378
993.52315
988.44134
979.89955
985.6378
986.81004
974.53817
978.26707
982.85203
987.62226
982.26127
970.82092
978.07906
983.59845
976.87593
981.1373
991.66439
994.95402
999.10066
1002.6717
1005.3984
1000.8017
1003.9617
999.68896
1003.5841
1005.5788
1007.4195
1007.1797
1004.1211
1001.1888
1002.601
1000.5762
996.83131
999.80264
993.87411
996.51344
1002.2845
1006.109
1008.1156
1009.8573
1012.4576
1010.5614
1009.0524
1012.1495
1009.7468
1006.6789
1002.3828
1004.7563
1008.5292
1010.5088
1008.9347
1011.2173
1014.3191
1016.242
1017.1436
1017.2449
1019.5781
1018.8261
1016.5402
1014.2187
1015.6941
1017.9483
1018.573
1016.5699
1017.119
1015.1154
1012.8363
1010.7802
1012.8707
1014.7129
1017.1712
1015.1534
1013.5163
1016.6858
1014.4382
1011.3124
1007.0033
1009.1751
1013.0199
1009.1164
1013.4305
1010.2952
1014.8968
1012.6759
1010.3998
1007.9926
1005.3231
1007.7601
1001.5633
1005.8258
1003.4325
999.07987
996.37656
990.91246
987.63861
976.34649
984.56943
991.37122
997.80559
987.55909
982.50072
975.20044
980.57808
969.28702
979.11103
973.75163
963.26018
951.49354
966.73584
972.11542
962.20729
956.33687
936.23672
943.21533
957.44144
961.88463
973.41142
983.03213
986.19123
994.45728
987.78826
976.78105
965.58823
979.81524
970.59435
984.66943
987.7724
997.85453
1001.84
1004.3614
1000.4923
1007.2606
1009.6292
1013.6875
1015.2775
1017.5503
1015.9501
1011.8992
1014.3398
1016.4489
1012.2679
1010.0665
1003.9002
1008.1121
1001.8542
1006.9472
1004.667
998.9198
1001.1889
1003.3657
996.00403
1004.0545
997.84757
1006.1353
1001.192
1008.9709
1006.7172
1012.1019
1002.9701
1005.3136
995.81861
993.28616
998.86503
996.40488
993.79114
982.87446
990.60055
997.12182
999.57465
993.17257
982.42229
991.44105
988.95005
979.71863
968.87742
971.90445
985.68199
977.20822
990.62934
984.50474
996.47842
1004.6161
1009.6155
1011.9373
1012.0314
1009.2936
1008.5457
1011.2726
1010.8916
1008.3414
1009.4202
1007.0852
1005.4535
1008.0319
1002.2041
999.46653
1001.9965
993.64079
990.55867
987.06397
982.65845
986.35507
970.96722
977.86632
974.04386
969.49237
963.41682
977.45978
972.64354
955.25366
961.93739
966.78163
960.40848
979.09644
982.97191
981.1315
993.34861
989.83848
997.42178
997.50173
1001.3076
1002.0021
1001.3384
999.53687
994.03073
1002.3797
973.48377
942.32854
936.846
928.12778
934.75944
928.04957
918.16054
906.75645
925.90713
936.96361
901.04545
857.11628
834.21368
878.07636
910.71059
931.09125
945.70236
951.26997
942.28555
945.76816
937.27594
901.62889
820.00512
659.58341
645.07331
793.91711
654.33085
400.75629
417.31377
669.19544
860.45554
837.72297
878.77491
918.51901
936.95621
907.80397
917.5162
876.28068
791.00689
651.44955
393.3169
407.68632
665.89558
817.33141
647.75274
634.32639
829.22105
851.80213
899.47993
936.46901
936.48904
905.54295
924.79065
946.77625
877.06904
664.70092
431.52294
444.34301
677.26542
882.5762
947.58801
962.82863
965.82127
981.00029
981.77544
966.66486
965.0628
979.30167
978.66387
978.29852
986.53199
986.93053
987.55027
986.79959
977.6842
978.50043
979.69946
988.56536
987.44578
987.83023
979.83415
980.62571
989.19483
996.8157
994.14548
994.77486
1008.2884
1007.3109
1005.2035
1011.2222
1011.6695
1005.5892
999.92807
993.31288
992.94461
994.76571
995.46803
1002.0146
1007.6064
1006.9324
1012.1801
1012.8762
1013.8553
1012.2986
1006.1602
1000.4419
993.81442
996.37355
1002.893
1003.3087
1000.7984
1006.5964
1012.8607
1014.4825
1009.0042
1008.5106
1010.0508
1009.3644
1008.6147
1008.0875
1007.7508
1007.738
1008.0278
1010.7594
1010.4546
1009.6713
1010.0907
1007.5328
1007.1046
1003.5495
1004.204
1006.8319
1006.195
999.38197
1000.3517
997.50934
996.48212
984.75841
986.47828
989.66443
992.72393
978.4192
974.80719
981.31541
964.06922
974.04621
956.18024
952.34258
948.11002
966.77807
955.77477
950.79682
944.86804
931.55056
937.97679
903.73399
925.81034
918.90458
895.43267
868.84612
876.26217
924.95583
955.31051
951.39795
972.5147
966.78117
944.3508
909.78291
916.01428
851.04588
843.58509
733.6677
797.40796
850.62188
887.82063
913.11909
933.71654
949.60961
963.38231
974.0608
982.94199
989.42659
994.48924
999.17377
1002.2013
1003.6816
1003.7548
999.40099
999.18742
998.21383
1002.6028
1003.6432
1007.0471
1007.1201
1007.1603
1010.0686
1008.6567
1005.7441
1004.4025
1006.6207
1003.0898
998.38834
999.06568
997.42915
995.81795
1000.7937
998.6457
1001.8694
1003.0024
1002.2983
997.82818
998.47984
997.40046
997.16935
1001.6631
1002.0182
1005.4917
1006.444
1005.3907
1005.6828
1008.8045
1009.9626
1009.534
1007.3404
1005.3058
1008.3807
1009.3576
1008.5099
1003.1749
1002.3271
1000.1378
999.74528
993.20793
993.19097
994.12955
1002.3988
988.68912
990.05758
1046.8296
1045.9173
978.69739
976.68313
975.43942
973.5086
965.99083
981.14057
978.61734
963.26177
978.19622
987.25802
986.8299
987.16295
978.9295
978.91803
987.9143
988.8165
987.62661
981.85797
966.77228
965.294
979.49932
979.9849
980.821
979.9746
987.94923
989.36149
996.94748
996.58554
995.77458
995.16836
1001.6612
1001.6855
1007.2034
1007.8628
1005.7629
1011.8168
1013.0868
1014.0668
1015.9927
1016.3912
1014.0453
1011.3012
1012.5678
1015.0544
1017.4328
1019.7871
1020.0486
1019.1116
1019.0154
1018.5817
1019.0578
1016.7498
1014.4055
1013.6928
1010.9822
1011.9513
1011.0195
1010.3657
1007.8899
1004.7847
1004.1174
1000.9871
996.43655
996.25049
1000.8883
999.7987
1000.2245
995.67092
995.07111
991.80535
993.57199
995.38684
997.09631
993.61969
990.78091
996.03815
1000.2491
1003.8822
1005.4436
1002.322
999.79296
1002.8409
1006.8512
1008.4222
1007.351
1007.2416
1006.5055
1003.3941
1003.3417
1004.4057
1002.1471
998.45956
993.23592
987.96613
985.10749
990.59736
996.76413
1000.5065
1003.5687
1005.1694
1000.2271
997.08176
994.53213
997.77153
995.8089
1002.3151
1005.5081
1006.3249
1008.9434
1009.9611
1009.7007
1012.3745
1013.045
1013.4638
1015.7827
1015.3247
1017.8611
1018.0601
1016.316
1017.8563
1019.0849
1019.7729
1018.1492
1015.9181
1013.6298
1015.1169
1012.6611
1011.2334
1009.9134
1012.1121
1014.5283
1012.2904
1014.5437
1016.833
1015.6411
1013.3689
1010.966
1007.9071
1010.2938
1007.9202
1011.8501
1009.4581
1005.4892
998.85261
1002.5621
1005.8065
1008.2978
1005.7331
1002.7941
998.17115
1001.1463
996.99057
1003.2078
1000.2367
996.54099
990.14848
984.7139
976.10893
981.41554
987.94875
979.40143
970.10759
964.1527
953.24723
968.29352
979.38003
984.81618
993.046
988.99203
978.68991
972.77682
958.8845
964.62871
973.58397
959.12817
946.27663
939.45357
924.30207
948.76147
966.16743
972.10483
984.67693
980.51953
965.43961
958.93857
937.30497
943.64978
954.56607
931.14272
912.7835
904.57008
882.60951
926.19589
952.95007
959.50961
977.06321
988.46725
995.42235
998.94368
999.70728
995.12221
994.21685
993.69469
994.78121
999.36982
998.46349
1002.0403
1002.5127
1002.8766
1006.0095
1005.6884
1002.5634
1002.5475
999.36308
994.76355
985.5446
974.30828
948.6576
961.88918
975.31901
978.91907
986.98856
975.84408
965.86398
943.93684
934.16911
885.85328
866.04123
882.70907
948.16148
957.88355
915.21325
899.29625
926.98846
956.16126
971.20043
978.18859
956.9725
980.03747
990.40751
989.02065
983.89162
987.93119
976.13526
966.65997
926.098
949.25019
963.33299
942.93258
969.72752
979.50015
991.55098
987.9544
983.63896
979.22709
974.83112
971.35693
969.31805
969.39879
981.6595
982.96973
990.45728
989.67318
994.67181
987.26291
991.32339
992.48575
999.19257
998.47636
1001.6152
1005.0637
1007.713
1008.1648
1008.4919
1008.9895
1011.6478
1011.4004
1012.4041
1014.7164
1014.6374
1017.159
1016.9751
1015.9733
1016.4116
1013.9171
1013.7155
1011.0427
1012.5263
1014.1268
1010.1967
1012.549
1014.7068
1016.7309
1012.5688
1015.0946
1012.9108
1010.6664
1006.0895
1003.7173
999.63274
1002.035
1008.1731
1010.4209
1004.2919
1008.3234
1010.4874
1006.4544
998.2033
1004.207
1002.0417
999.79067
997.39078
994.766
991.72786
983.29269
986.42635
977.46704
988.46697
985.31665
993.93845
988.74472
996.84761
999.90808
991.92389
986.19424
996.08718
992.9106
982.81387
969.02495
977.71052
981.05797
967.02908
963.44389
974.16289
960.28373
972.68067
968.61323
955.41856
938.84048
956.01718
950.26244
936.65072
922.00747
846.61907
880.6217
897.2066
836.53264
899.71976
883.26557
816.00284
713.96267
815.82531
831.5257
703.05291
699.8585
516.72616
519.60927
733.04518
602.4371
740.07099
841.12228
825.13963
683.41919
720.88995
539.83015
723.3587
728.54051
543.77527
433.90177
421.45761
587.3884
413.53466
427.93307
459.44569
407.57104
421.09684
432.63462
527.09406
707.89286
859.21257
931.30154
960.39062
973.48639
984.79254
986.4341
975.22178
964.89557
978.0539
973.9678
945.43827
956.54048
942.42823
897.23933
913.43764
876.07206
911.2776
944.98176
967.06956
980.05091
988.52132
992.82639
994.13282
998.76551
999.14126
994.51577
993.42843
998.20929
997.64633
993.60592
994.47308
989.43075
981.59269
987.20982
985.7845
989.98291
993.48829
1000.7406
1004.3963
1005.1943
1005.5485
1002.3665
1001.8373
1004.9068
1005.7797
1006.0825
1002.9139
999.71092
995.11469
995.9532
1000.5273
1000.3298
999.14874
994.37625
995.65287
992.85374
990.93402
995.96121
997.78598
992.44363
989.56928
983.96971
987.10587
990.11205
994.80341
996.89512
996.74036
988.66251
977.77235
956.5323
979.77468
990.17962
987.61539
983.37197
970.60623
975.78632
966.24534
955.39239
925.5459
926.2146
942.23537
969.04734
979.09367
962.94101
948.92423
963.8638
973.70072
978.70928
980.68124
980.87822
980.1081
982.56357
975.44212
1004.4584
995.54978
1009.3015
1009.9382
1001.5114
995.47863
982.58363
974.23809
968.31653
967.93109
966.71654
979.57796
981.84504
987.1026
987.82727
988.98659
987.95448
980.06634
979.91447
981.70053
988.64521
990.12495
989.39882
988.69068
979.20412
962.91516
965.71418
967.52521
962.95008
952.34139
977.58694
988.04999
985.46481
977.23141
985.4855
973.73482
978.74666
979.21635
988.68814
988.62601
979.90618
980.70687
990.13305
989.40622
997.20128
996.3419
995.13724
995.47899
996.28169
996.23311
994.09266
1000.7473
999.97296
994.94482
993.16619
994.26134
1000.9842
1002.6436
1008.4789
1006.6751
1013.0666
1012.6877
1008.0969
1005.9626
1006.7445
1013.0333
1014.1806
1015.7972
1016.2091
1016.1564
1015.7505
1015.0621
1014.3647
1013.624
1013.1094
1012.7901
1012.787
1013.0854
1013.6004
1016.1428
1016.9036
1016.6534
1014.3217
1013.2911
1015.6298
1014.8519
1015.6341
1015.3203
1014.4393
1012.0896
1012.5095
1009.2998
1010.4593
1011.9923
1014.2855
1012.7869
1007.207
1009.4213
1007.0733
1004.7631
1003.0126
1005.5279
1011.6614
1011.0651
1008.6786
1002.0883
1004.6598
994.34373
995.6941
998.2913
1001.6283
999.13005
995.57946
981.82948
987.50015
990.32275
985.06832
980.51464
976.85728
992.78584
989.73587
988.13037
970.0108
973.08755
969.12372
964.92803
961.37521
956.66762
977.14418
977.4428
972.8166
975.29099
969.63961
950.11777
956.88101
952.07374
957.36489
962.09277
981.41516
983.67117
994.77531
1001.5375
998.33173
991.33526
993.6016
999.75704
1002.7441
1003.8841
1003.6955
1006.8587
1006.8851
1004.5991
1002.9001
996.92574
999.55767
996.35388
1001.5198
1003.3759
1005.0583
1004.4095
1001.261
1001.9578
997.47107
998.07798
1002.6202
1001.5399
999.70716
1001.4443
996.63204
993.12028
998.18886
995.42405
999.23974
1002.336
1006.3842
1008.0253
1007.5522
1008.2158
1005.0744
1006.0884
1009.0324
1009.6949
1008.5505
1005.4068
1002.3139
997.90369
997.94263
1002.2715
1003.5135
1003.3314
998.85553
999.13644
998.80305
998.03717
1002.7728
1003.4415
1001.9627
1000.4461
995.43248
997.16105
994.07658
991.15651
987.46743
982.99648
978.35005
973.59144
979.19263
983.71848
970.95211
963.65736
956.98015
964.90367
947.30431
934.72788
921.89992
928.49771
917.7013
855.37969
847.29035
876.11244
884.30605
891.26237
934.49529
961.99725
979.81959
983.54106
987.17982
991.30356
987.87632
975.43568
968.48835
972.61114
966.51228
940.02887
929.60582
927.59043
936.06353
948.28832
960.12627
936.2389
931.33048
909.78236
943.40062
930.7386
921.93528
856.50135
882.25286
887.91392
915.42869
920.85952
952.9021
957.27139
967.79171
945.25399
959.78082
963.13058
980.18543
988.28041
995.58404
984.92795
993.78874
983.87367
993.92931
991.61656
989.14422
980.34119
991.19484
993.67916
982.95128
985.36619
995.99369
989.08794
999.51493
1007.2417
1004.9775
997.1773
994.67284
989.14725
991.82134
1001.367
1003.7035
1005.9054
1009.4056
1001.7224
996.62149
994.28161
981.59124
978.87639
986.63692
983.97512
970.1789
973.04336
962.01526
958.68509
975.91596
972.67938
955.05916
951.02645
936.48315
959.37842
976.46798
988.74792
992.08372
980.11645
974.05648
988.26358
984.75143
970.09193
948.91858
953.58708
963.47905
941.20615
924.50262
918.85453
897.15955
938.2954
964.41865
981.44431
985.1187
968.68763
965.12419
983.22386
994.69607
997.66132
998.73375
1000.6
1002.9575
1007.8046
1010.2447
1005.4602
1003.1933
1008.7342
1006.2531
1005.0453
1007.551
1010.625
1011.1545
1010.8332
1008.1961
1008.1726
1007.1813
1005.3562
1005.3741
1011.3554
1012.3854
1013.4108
1015.899
1015.2021
1012.9395
1012.5143
1013.1
1015.5699
1014.775
1011.5087
1012.1358
1013.2623
1014.7204
1009.9897
1012.3663
1014.4638
1016.8139
1018.8728
1020.3486
1020.9722
1020.3578
1019.2684
1019.581
1021.2907
1023.2409
1030.2253
1033.3593
1065.2765
1067.4164
1065.276
1060.5787
1063.9424
1031.9157
1023.2487
1038.5198
1035.0579
1021.3073
1018.8546
1022.4041
1036.9355
1032.0642
1025.6879
1025.3352
1018.9668
1020.0524
1019.1263
1025.6178
1025.8332
1031.7524
1031.3976
1038.0759
1039.2726
1038.7052
1031.9009
1031.1556
1035.1837
1029.653
1061.3568
1049.2398
1051.2854
1052.9393
1069.4125
1064.4335
1049.3478
1045.9396
1053.4317
1051.4968
1044.4997
1044.0779
1045.2896
1052.4021
1050.4975
1057.1923
1058.3828
1060.5404
1067.109
1068.4823
1065.9731
1067.0404
1059.4793
1058.0127
1064.8399
1065.3784
1055.2886
1048.9636
1051.1428
1044.1851
1037.7959
1036.9597
1037.8259
1036.8729
1037.196
1032.4942
1035.0453
1038.5133
1036.9137
1022.3871
1018.8195
1025.6575
1025.5674
1019.0696
1019.9688
1018.9162
1025.2957
1025.7606
1031.6933
1031.8546
1032.0404
1039.2509
1038.6707
1037.7774
1038.0497
1031.3629
1030.859
1025.2328
1019.1857
1019.9934
1022.8882
1023.8503
1021.0803
1022.0061
1020.8288
1023.582
1024.5175
1027.0174
1026.3574
1025.4887
1028.4572
1029.1669
1029.5632
1028.8829
1026.0824
1025.9169
1024.6507
1019.2318
1020.8868
1023.5435
1024.3123
1021.9195
1020.8567
1020.2975
1022.8342
1023.1677
1025.4739
1026.7111
1029.1367
1028.6217
1027.7149
1025.1497
1023.9775
1023.8997
1024.6754
1025.2711
1019.2376
1020.0813
1022.9729
1023.6649
1020.9156
1022.1335
1021.1986
1023.9649
1024.6355
1027.1284
1026.1619
1025.5709
1028.5346
1028.9617
1029.667
1029.2677
1026.4679
1026.5865
1025.5976
1025.0771
1021.0109
1018.7337
1020.1093
1019.2979
1018.0506
1024.2047
1024.5838
1029.9773
1031.2125
1031.7585
1031.83
1031.1423
1030.8893
1030.0514
1035.6659
1036.2973
1036.9313
1034.2975
1034.1351
1034.6581
1034.7699
1032.1979
1031.4765
1031.0855
1028.6878
1025.9791
1023.6097
1020.9612
1022.0391
1024.4271
1023.2631
1022.8883
1025.1816
1027.7496
1027.8797
1029.2314
1026.8158
1025.5529
1023.3388
1024.0047
1021.7765
1018.8387
1019.2899
1021.748
1021.0276
1018.7912
1015.598
1017.3378
1019.594
1017.773
1019.9646
1023.2796
1025.5281
1027.8164
1030.1481
1031.5692
1032.107
1031.7324
1031.0707
1034.0756
1034.5844
1034.704
1034.2482
1031.4078
1031.0332
1030.0346
1035.6519
1037.1717
1036.8251
1039.9166
1040.1501
1037.2331
1037.3173
1036.8911
1039.8058
1039.9754
1039.0721
1039.0862
1036.2663
1033.7734
1034.0397
1032.5247
1032.6624
1030.0656
1028.7075
1028.7908
1034.0865
1033.5747
1035.1
1037.7659
1037.3607
1034.9216
1036.5313
1035.8987
1036.991
1036.9713
1036.8954
1037.7441
1035.1506
1029.6409
1061.3455
1063.9413
1052.9299
1051.2603
1045.9165
1049.3301
1053.4135
1052.3613
1045.258
1044.032
1044.48
1051.4805
1050.4333
1045.4358
1043.0907
1049.727
1048.7656
1045.8539
1042.7041
1042.8846
1045.854
1045.373
1045.4644
1042.5002
1042.6526
1041.6324
1041.6625
1041.3637
1047.2914
1047.1912
1048.2768
1051.3025
1052.0101
1051.688
1048.6702
1048.1225
1050.8754
1049.4937
1050.1361
1048.4076
1045.618
1043.0127
1044.5484
1044.2369
1042.331
1039.8257
1040.2811
1038.568
1039.3122
1041.3799
1043.1139
1049.7749
1047.3187
1047.2407
1048.3139
1048.8064
1045.8734
1042.7308
1039.9527
1039.8339
1040.014
1040.1927
1037.2908
1037.3606
1036.5778
1034.0987
1033.8114
1032.681
1030.0897
1030.2099
1031.6555
1031.2496
1032.1022
1029.6698
1029.3041
1028.906
1026.2902
1023.9441
1024.1823
1021.4826
1022.4333
1024.8417
1024.4372
1022.0991
1021.3266
1020.8377
1023.3985
1023.6007
1021.3198
1020.2879
1020.0974
1022.5997
1022.5203
1024.7329
1025.8564
1026.7579
1027.2507
1026.6334
1024.3457
1022.0482
1021.3015
1023.5174
1021.008
1022.5513
1024.7547
1026.9698
1028.9431
1027.9427
1029.1024
1028.1333
1028.2478
1025.6745
1024.8507
1027.3474
1026.9569
1024.7848
1026.4828
1024.3295
1025.7261
1023.1332
1025.269
1023.0419
1020.9732
1018.8953
1022.1887
1020.0187
1018.4595
1020.5839
1016.529
1018.5637
1022.6937
1021.0263
1023.5677
1024.0534
1023.3681
1023.396
1019.8646
1033.7032
1029.2447
1030.1635
1036.5965
1035.4998
1034.0042
1035.5977
1034.9239
1028.6616
1022.8239
1016.8382
1017.321
1018.2123
1017.4605
1022.559
1027.7563
1028.631
1028.7668
1029.6477
1030.5775
1031.2993
1033.9456
1034.5095
1034.563
1033.8179
1031.4374
1030.1708
1032.4199
1033.5875
1031.4531
1032.5752
1034.9573
1035.1054
1037.7808
1039.1081
1039.1026
1037.3909
1034.8126
1036.1591
1033.572
1031.2267
1028.7146
1026.4641
1024.1594
1021.8913
1019.6272
1017.3646
1019.3395
1018.8992
1021.1247
1017.8437
1015.693
1011.3129
1015.1689
1017.3895
1013.3934
1011.263
1005.4931
1007.6139
1013.4396
1015.5742
1019.5616
1021.8766
1024.1517
1026.4578
1022.1659
1017.6901
1021.8032
1017.7194
1022.1972
1025.5888
1027.8428
1030.1267
1026.6478
1028.779
1026.46
1024.4157
1019.8914
1023.9998
1026.4604
1028.7756
1031.2364
1030.0993
1027.7974
1024.3758
1026.6246
1028.9072
1032.4405
1034.7894
1036.1563
1033.5526
1031.1856
1028.5745
1031.1794
1033.557
1031.228
1028.9253
1032.453
1030.2783
1033.7416
1035.9524
1037.045
1037.0388
1039.8525
1039.5796
1038.6546
1039.1094
1036.4095
1036.2105
1034.696
1037.0111
1038.3593
1036.0537
1034.0151
1031.7785
1029.5805
1027.4033
1029.2017
1025.8528
1023.6922
1021.528
1019.3823
1017.2413
1012.6093
1014.7185
1010.6282
1016.7657
1014.6757
1008.5588
1000.3429
1006.3359
1008.4268
1000.3889
998.27154
996.12161
987.65613
978.15101
991.39811
984.09952
967.86921
965.06087
975.6848
959.01379
972.24602
969.65481
981.45838
978.84677
975.98081
963.28941
959.72105
943.42603
947.24701
963.78719
949.57196
945.69679
941.06655
935.4264
912.64037
932.07721
911.48573
918.04407
939.41609
919.81827
892.2859
884.07919
852.5861
886.51704
892.83856
919.18587
895.40035
923.25038
916.69852
887.34245
854.66854
862.4567
822.88311
860.5182
866.84138
898.04108
925.12021
944.13848
948.13286
929.7686
903.14252
927.42463
923.08819
898.39249
924.17491
928.42911
905.95764
932.87962
928.39766
901.02739
868.69201
874.21554
903.20101
872.47128
836.22835
829.93005
780.06572
825.52837
864.98392
900.5765
894.45142
858.48884
807.39597
858.19768
850.17999
796.76158
714.56528
721.67991
802.57529
732.91917
590.16846
592.36648
478.61553
645.67194
744.59794
810.14963
817.97622
755.43666
698.29246
771.81081
762.01525
812.97022
765.07501
815.42447
856.77566
894.4255
901.0146
864.7202
820.1215
870.87024
862.98101
809.6595
755.32445
765.63026
823.03761
774.76875
706.10556
693.61578
593.98711
663.94214
737.40322
818.99862
825.24415
890.55463
932.57593
924.13301
955.62242
974.99321
979.46162
960.6739
929.99859
935.47279
943.49474
903.58807
880.72551
874.36281
868.15254
860.02771
917.80428
948.77901
948.61
955.44116
974.90729
987.20266
994.63342
998.43524
993.66836
994.15884
995.07661
999.65997
998.88789
1002.4519
1002.0299
1005.0348
1005.694
1005.9664
1002.8435
1003.3173
1002.2612
1000.0912
999.73591
993.52177
993.96669
994.83144
1008.3193
1007.3727
1011.3381
1012.3579
1013.0143
1011.7651
1005.7213
1007.7963
1008.6483
1006.2594
1000.5644
1003.0586
1003.4087
1000.8744
994.24324
994.15704
995.57134
1004.455
1009.3086
1006.7092
1006.6573
1012.9073
1012.3733
1013.9556
1014.5436
1009.0866
1008.5185
1002.6974
1000.7958
999.9945
994.95178
993.20232
987.14845
987.91689
982.60158
967.98206
966.81824
980.20611
981.00555
989.09062
988.01587
981.8648
979.63305
980.13964
980.00819
980.84065
963.05772
978.92298
989.59463
990.26459
988.72571
981.74429
979.33412
988.81705
988.20038
985.72843
973.93408
952.33066
963.98278
977.45676
985.62497
973.76493
977.69845
979.28464
962.89363
965.75314
967.55405
974.23084
968.32739
982.59022
995.47664
1001.5025
1009.9273
1008.0899
1005.9759
1012.6916
1013.0927
1014.2115
1013.0414
1006.7528
1001.0069
994.30301
996.31317
997.69491
998.09595
998.10508
997.72265
997.06067
996.355
995.60485
1000.1608
999.70735
994.99567
996.15146
1000.7821
1000.8824
1004.0176
1007.1349
1006.4385
1006.2248
1005.4638
1002.2387
1001.5933
998.43923
991.27734
994.63837
995.6904
992.37149
999.12922
995.34421
990.37838
989.63572
981.60128
982.86059
988.35922
990.44914
996.66104
991.70474
984.96537
987.8364
993.4589
998.33582
993.10707
996.94373
994.38923
1000.3894
1003.2516
1004.2783
1007.2349
1005.0306
1003.4628
997.61501
1000.0767
1002.8094
1000.4428
998.60896
997.61794
1004.3416
1004.377
1006.8991
1010.1945
1010.1643
1010.8272
1011.1087
1008.4582
1008.0957
1007.6972
1010.5688
1012.8852
1012.4958
1013.0782
1015.5576
1014.7471
1015.1464
1015.8528
1013.3675
1013.8556
1011.591
1008.9179