/*--------------------------------*- C++ -*----------------------------------*\
  =========                 |
  \\      /  F ield         | OpenFOAM: The Open Source CFD Toolbox
   \\    /   O peration     | Website:  https://openfoam.org
    \\  /    A nd           | Version:  7
     \\/     M anipulation  |
\*---------------------------------------------------------------------------*/
FoamFile
{
    version     2.0;
    format      ascii;
    class       volScalarField;
    location    "310";
    object      nut;
}
// * * * * * * * * * * * * * * * * * * * * * * * * * * * * * * * * * * * * * //

dimensions      [0 2 -1 0 0 0 0];

internalField   nonuniform List<scalar> 
25278
(
6.7444888
6.6412885
6.6764001
6.676388
6.5593828
6.6412995
6.7216324
6.7444738
6.7216578
6.6306132
6.6880404
6.7193104
6.6839276
6.6482696
6.0006398
6.67631
6.6412276
6.1236632
5.7330837
6.1872253
6.4492781
6.5321972
6.6034562
6.6442623
6.5139557
6.6442498
6.6034663
6.4574504
6.3928761
6.4264735
6.3282474
6.2934208
5.9950749
6.1962398
6.2229195
6.1800471
6.2076656
6.1316857
6.104876
5.8910163
6.0185438
6.0470505
5.9331836
5.964523
6.1655914
6.3742394
6.578123
6.4976313
6.2874911
6.2346495
6.165444
6.1152652
5.5834895
5.7698758
6.0258524
6.0582844
5.9816008
5.9476108
5.6317374
5.7629179
5.8082596
5.6886182
5.5878763
5.9258652
5.885437
5.8489577
5.8904175
5.5294959
5.459831
5.5240761
5.0571137
5.2439696
5.4485868
5.644895
5.8301113
5.962554
6.2233581
6.4266906
6.5323608
6.474956
6.4276671
6.004612
6.1263162
5.7483173
6.3690507
6.3145743
5.5469056
4.7668694
5.2559983
5.730038
5.7630231
5.2708348
5.2450175
4.3425504
4.4237242
5.2815373
5.3909659
5.8400066
5.8551712
5.4013335
5.3807313
4.5236703
4.6282337
5.4103603
4.9077367
4.9035352
4.788136
3.4476981
3.3819922
2.5963094
4.3271284
4.3068881
2.571189
2.5596519
3.5308101
3.6234114
2.5494943
4.3946734
4.4287391
4.4245115
5.7462196
6.3688701
6.5592906
5.2306104
4.3224272
3.3684366
2.588916
4.3225804
5.5442774
6.3143101
6.4274282
6.4748494
6.1246525
6.0015199
5.2470164
4.7587571
4.7797499
4.3014866
2.5622439
3.4318029
3.5134552
2.5487196
2.536203
4.3884502
4.8987701
4.8951138
5.3832455
5.2721889
4.4029195
5.2560494
5.9949045
5.72365
5.7572563
5.8354087
6.1199414
5.8511323
5.4031761
4.6090015
3.6039022
2.1289165
0.94405912
0.9501824
2.1480956
3.5740546
4.8740262
4.8723145
4.3729663
4.3327737
2.4380052
2.4615625
3.485584
2.1006907
0.97899256
0.89378691
0.31827053
0.35285239
1.0341773
1.0287137
0.36385984
0.32920743
0.891305
0.97352847
2.0842576
3.4458238
4.5025251
5.3680135
5.3888806
4.8443266
3.5305736
2.3584197
2.3907473
4.314113
5.7159083
4.84254
4.269489
4.4297791
2.3408937
0.81347902
0.29966777
0.2888573
0.81294918
2.4308631
4.4913996
5.006203
5.5200799
5.9256903
6.1967869
6.393233
6.2952245
6.3289571
6.181625
5.9991273
6.0211832
6.0490673
6.2084975
6.1335939
6.1077429
5.8961586
5.9370944
5.9672849
6.0854907
6.2765698
6.4656861
6.5781739
6.4875555
6.29611
6.2691201
6.3940382
6.3744738
6.2371524
6.2490747
6.1011109
5.992715
6.1774372
6.166784
6.0976439
6.2883391
6.4977641
6.4498619
6.1908245
6.2364397
6.0304973
5.7813256
5.7723513
5.8157335
6.0612589
5.9864731
5.9543372
5.646043
5.7001719
5.6029873
5.9321057
6.1679216
6.1201482
5.6016171
5.8937656
5.54284
5.4796833
5.8571753
5.8963654
5.544793
5.596269
5.6500028
5.7404747
5.8499455
5.8808054
6.1102641
6.0410918
6.0280916
5.9771389
6.2273594
6.2476541
6.3092168
6.136643
6.2028337
6.2111033
6.2806216
6.1376891
6.1270635
6.0152193
6.0327168
5.9261875
6.1457928
6.0801493
6.0719224
5.8070269
5.9057107
5.7694048
5.8359096
5.9037046
5.9578718
6.0570449
6.2960104
6.4874468
6.465475
6.2761647
6.236568
6.2488838
6.1765262
5.9910318
6.1003749
6.0839997
5.9061385
6.0217918
5.9300769
5.8751759
5.8557987
5.8363107
5.6953675
5.8673585
5.610885
5.5745052
5.3094204
5.3834253
5.0043963
5.3523419
5.6134578
5.8702366
5.8331878
5.5281209
5.5778902
5.321489
5.6530696
5.702124
5.393215
5.0142847
4.9327076
5.2966349
4.764086
4.9208034
4.4383222
4.5524224
4.8744387
5.062832
5.2556014
5.4170168
5.577158
5.713347
5.7331222
5.6420899
5.7802461
5.7603384
5.6131671
5.4568478
5.4839991
5.6010315
5.6654573
5.6860688
5.6224284
5.7553368
5.766907
5.8855688
5.8144739
5.8036051
5.6639699
5.6807146
5.5283198
5.638208
5.4841515
5.4689808
5.4413425
5.3081687
5.2706076
5.0790185
5.1141982
5.2848367
5.4062249
5.6675734
5.9074881
5.9307451
5.6874865
5.6264912
5.7586417
5.8773956
5.8587606
5.8399267
5.7181896
5.7366528
5.6485526
5.7851185
5.7660891
5.6208728
5.4666749
5.5824061
5.6055122
5.4473055
5.4230935
5.2830173
5.3186369
5.4923569
5.5153763
5.669139
5.8075986
5.8172837
5.8871785
5.7693917
5.6851226
5.5340106
5.6413087
5.4881309
5.4735504
5.3444374
5.3656026
5.3855391
5.5121215
5.7290208
5.7381336
5.9724928
5.9237961
5.910214
5.7947052
5.7878423
5.7008497
5.7127673
5.8419524
5.858109
5.8630223
5.9297229
5.8160031
5.8096965
5.7257483
5.736076
5.5916431
5.6927836
5.6830949
5.6701794
5.659825
5.5509278
5.5652493
5.4014306
5.5202097
5.5384064
5.5458958
5.4312247
5.4169715
5.578682
5.4772277
5.6423709
5.7932217
5.7770996
5.6281378
5.6142087
5.597294
5.7503263
5.7385371
5.7148209
5.6924425
5.5214854
5.464827
5.0389461
5.04248
5.1169525
4.8186601
5.3386804
5.2709748
4.7195822
4.0522068
4.5269452
3.7505921
3.9062694
4.0138098
4.6112655
4.1467823
3.3597089
3.2339201
2.4796537
3.5341751
4.4152164
5.0946804
4.5525549
4.9837579
5.0651109
5.1718626
4.5169046
4.2964972
4.1844689
3.1194063
2.5599179
1.74241
1.7382013
2.5351378
3.6151942
3.1660668
3.6772645
3.8671934
4.0919516
4.3157712
4.5346842
4.731805
4.921552
5.0919403
5.2614178
5.2903134
5.0955659
5.066564
4.8685093
4.9137262
5.1256336
5.1555017
5.3190043
5.4436993
5.3145143
5.3330856
5.1711129
5.3578837
5.3351498
5.5075251
5.3927989
5.5710748
5.7329808
5.8773137
6.1086382
6.0949615
6.0249849
6.0388975
5.7712584
5.7316924
5.8442388
5.6843627
5.5072234
5.3146459
4.7712011
5.0921446
5.0144454
4.6682847
4.3415667
4.4455375
5.1381495
5.0301293
4.9440257
4.1064149
4.2198258
3.0255863
3.4884129
4.0696452
4.5765455
4.4903035
3.6954915
3.9751812
3.1491409
3.8758211
3.9818115
3.2685638
2.3740985
2.3380307
3.415169
2.9898613
1.5936022
1.5690635
2.1157689
2.8465834
3.5484074
4.1106351
4.5936777
4.9610587
5.2715548
5.5848869
5.9402655
6.2261463
6.2472408
6.3089455
6.3938377
6.2688298
6.2805622
6.2107412
6.2020761
6.0142466
6.1267628
6.1375223
6.0321824
5.9251985
6.1452978
6.1354684
6.0706916
6.0793483
5.8280577
5.8029494
5.9036272
5.7659227
5.833437
5.9022788
5.9571429
5.9723806
5.923009
5.9091939
5.840299
5.7103968
5.7930888
5.7859177
5.6971503
5.5466725
5.6575619
5.728074
5.7374597
5.6819804
5.8088637
5.8154186
5.9291963
5.8620814
5.8564754
5.7239446
5.7348721
5.5898557
5.691892
5.5446614
5.5363361
5.5176992
5.6680001
5.5618558
5.3970276
5.3790231
5.5086374
5.3575782
5.4835766
5.504748
5.3893769
5.369866
5.2154762
5.1946729
4.9935529
5.1774998
5.145802
5.1291798
5.0913299
4.9023819
4.8553005
4.6298178
4.6745293
4.9110479
4.6824064
4.6380509
4.3688195
4.4268126
4.4687878
4.7129405
4.9368162
5.1446742
4.9718298
5.1931075
5.1615345
5.3643811
5.545923
5.7077369
5.6264327
5.6005643
5.4112544
5.5165463
5.3358881
5.2050347
5.240841
5.4477971
5.4761794
5.6554615
5.6695646
5.7457374
5.5908623
5.4989599
5.4063127
5.6014984
5.5844463
5.5531071
5.5234295
5.4434832
5.4747787
5.2491031
5.3475502
5.3094142
5.2027333
4.9344055
5.0724945
5.1105825
4.9788049
4.6626496
4.8382097
5.0056965
4.9554107
5.1233641
4.8985681
4.9351491
4.7423942
4.6942383
4.3918567
4.6425583
4.6891541
4.4539554
4.5001122
4.7841336
5.0422574
5.2723299
5.3004537
5.4159576
5.2204481
5.0749857
4.9207233
5.1805007
5.1473573
5.3791985
5.2850828
5.5106663
5.5291402
5.3152424
5.0592718
5.0205543
4.7114655
4.8806329
4.5780596
4.5279977
4.4789017
4.7867925
4.5982647
4.4195853
4.8025568
5.1083426
5.3749141
5.6385079
5.9726498
5.9895056
5.9577308
5.635109
5.6846384
5.7222333
6.0225674
6.033217
6.0041135
5.9931546
5.6761491
5.708165
5.7511041
5.5438901
5.5958152
5.6590891
5.7218975
5.7914021
5.774566
5.7017207
5.6926067
5.5203609
5.6091496
5.6246001
5.5380004
5.5554315
5.6394973
5.6523583
5.7983636
5.7285138
5.5699695
5.4897898
5.6678283
5.6054355
5.413502
5.392868
5.4719369
5.4519544
5.6377938
5.6262998
5.5581767
5.5707133
5.36887
5.3440015
5.4306757
5.2107368
5.3251191
5.4371059
5.4559414
5.3475494
5.132149
5.2667811
5.2446137
5.1042971
4.9570519
4.9909749
5.2376291
5.1283933
5.0946671
4.8023695
4.7573603
4.5916941
4.9411397
5.2302371
5.4704628
5.4490272
5.4104743
5.3501345
5.3124233
5.0214161
5.0753283
5.1554321
5.1955347
5.1190329
5.3923093
5.4153471
5.156797
5.1026957
5.3798776
5.3550484
5.3109858
5.2894517
5.2488401
4.9289479
4.9858756
5.0153161
5.0614909
5.0334209
5.3345698
5.3598563
5.0750494
4.7119822
4.7533994
4.8349017
4.7858603
4.8967838
4.8494326
4.73435
4.6826666
4.2421364
4.3161402
4.4829185
4.5377566
4.3750774
4.4339442
4.3070815
4.2441259
4.7004413
4.6460557
4.6017203
4.5474752
4.0384863
4.1139453
4.1823819
3.6022554
3.8048706
4.0471519
4.2955272
4.2369323
3.8095634
4.1269423
4.1871132
3.885362
3.9446328
4.3514356
4.4059922
4.6236637
4.8220047
5.0027775
4.7642791
4.9652285
4.7457382
4.9730019
5.1491509
5.3365977
5.1794606
4.9745302
4.9467869
5.1322887
4.9480282
4.719976
4.7519028
4.5053274
4.5392232
4.7754974
5.0017556
5.1800829
5.3603469
5.3727123
5.1907245
5.0222115
5.2204795
5.2014767
4.9999354
4.781083
4.8071459
5.0202285
5.1883388
5.0163059
5.0389868
5.2347892
5.4139232
5.5761066
5.4730244
5.4884003
5.3865617
5.3676747
5.1567722
5.2869864
5.3054416
5.4286654
5.2518114
5.3999927
5.2229096
5.2140276
5.0444252
5.2160646
5.3910321
5.401354
5.2239277
5.0612959
5.2545001
5.2385421
5.0428653
4.8313882
4.8527772
5.0587302
4.849989
5.0577673
4.8789468
5.1019091
5.0802507
5.0567969
5.0311969
4.8571218
4.8894808
4.6210634
4.8259972
4.7962102
4.5823425
4.5421985
4.2920553
4.2400537
3.8794874
4.1950497
4.4675865
4.7279532
4.423219
4.378768
4.0877629
4.1444751
3.8243977
4.1421694
4.0873076
3.7530537
3.3920914
3.7677572
3.8218264
3.4462436
3.3837389
2.9385267
3.0115056
3.4530107
3.5099369
3.8761717
4.1892007
4.2321859
4.5066575
4.2417328
3.9257237
3.5658952
3.9340934
3.5669724
4.0040731
4.0659967
4.4594765
4.6671969
4.7091161
4.5129763
4.8447966
4.8855081
5.1590024
5.2627495
5.2855186
5.1870308
4.9226245
5.0516489
5.1791282
4.9471187
4.9191839
4.6565796
4.8531404
4.6083159
4.8270146
4.8020486
4.5699653
4.5987013
4.6247838
4.3784616
4.6367763
4.4092228
4.6894584
4.4857807
4.785159
4.748338
5.0218925
4.5648422
4.614234
4.2575388
4.1936654
4.4394154
4.3916177
4.3419769
3.9896668
4.2862919
4.5429242
4.5764345
4.3293024
4.0212014
4.3096344
4.2716558
3.9734013
3.6230364
3.6816703
4.0450426
3.7030888
4.1290127
3.8260306
4.3004263
4.6963072
5.0226458
5.2922384
5.5169421
5.5014532
5.4501392
5.467328
5.2266231
5.1934624
5.2629352
4.982722
4.8824604
4.9280263
4.5548577
4.4936287
4.6437214
4.2342271
4.1705375
4.1087976
3.8682395
3.9344911
3.3261697
3.6765357
3.6111337
3.5495419
3.4839233
3.9894427
3.7451887
3.1314443
3.2046675
3.2614817
2.9505617
3.665029
3.7324243
3.6224896
4.2403522
4.1760535
4.6571336
4.665927
5.0374621
5.3365853
5.6365824
5.9581279
6.2263453
6.4976478
6.4493658
6.125341
5.7382768
5.3929996
5.8422867
5.3898634
4.8911633
4.3882212
4.351295
4.8945907
3.6130428
2.4797131
2.4957257
3.5200101
4.5357504
4.6397638
5.4093666
5.8570849
6.1263152
5.4118366
4.9043521
3.6267474
2.1797882
0.92258626
1.0056207
2.1289145
1.0512574
0.37483344
0.34021211
0.96693744
2.5455565
2.5590445
3.53637
4.9021327
5.7463781
4.4257295
4.8385355
3.4339328
2.0788092
1.0382024
0.36884724
0.33380428
0.95252855
2.1216178
0.86941664
0.9535492
2.3705153
2.3332905
3.5171505
4.8388362
5.7142444
4.3059682
4.2605118
4.4213405
2.3108559
0.78997163
0.30381809
0.31098198
0.84324166
2.4822189
4.511119
5.5879216
6.1163648
6.1656823
6.2357277
6.1885338
5.776027
5.9511984
5.8886825
5.8499402
5.8910728
5.9284067
5.5942703
5.5318299
5.4629734
5.5314392
5.6393347
5.6951132
5.9838204
6.060399
6.0282092
5.7689794
5.8132195
5.8484798
6.0966308
6.2878739
6.3091416
6.2472751
5.9937271
6.0042803
6.0337283
6.0232724
5.9905197
5.9744106
5.9405566
5.5864453
5.6437435
5.6884441
5.7247299
5.6770824
5.7087319
5.7526579
5.8294921
6.0797209
6.071239
6.0399096
6.0265892
5.7369651
5.7747915
5.8797966
6.1096994
6.1362945
6.145708
5.9260028
5.9053125
5.805173
5.5644953
5.5083422
5.4562331
5.4209472
5.398852
5.3973768
5.4161365
5.4353386
5.4169816
5.1533945
5.1777339
5.141911
5.1158484
4.7652161
4.8047613
4.855262
4.8174254
4.3784154
4.4392117
4.3716387
4.3074289
3.6979243
3.8067637
4.0055683
4.0822845
3.4864221
3.3999154
3.7475084
3.1986572
3.6319533
3.1884445
3.1243561
3.0662184
3.5050148
3.0675727
3.0113286
2.9659279
2.5129273
2.5466439
1.9122312
2.4883063
2.4472718
1.8795769
1.3898205
1.3714302
2.1190014
2.9020078
2.731212
3.4931089
3.4415906
2.6756461
1.8772801
1.8627913
1.0320274
1.0614485
0.54773609
0.86703733
1.4046965
2.0156998
2.5542819
3.0377376
3.4305207
3.7901871
4.1025941
4.4021731
4.6672966
4.7126565
4.9562973
5.1787572
5.3780201
5.5558916
5.5280253
5.4275479
5.6121429
5.6360391
5.4619771
5.4880987
5.5786747
5.4038351
5.4255247
5.2330369
5.2075642
5.0660951
5.2892837
5.2598867
5.226763
5.3506335
5.1422412
4.9853996
5.0319231
4.8778499
5.1383398
5.3668835
5.5657755
5.5379887
5.3311973
5.2316509
5.4617751
5.4907064
5.2737238
5.3066556
5.3960114
5.595303
5.6634226
5.6761257
5.5086621
5.3146358
5.0952913
4.951721
5.2014994
5.4198612
5.610213
5.7766515
5.6926219
5.9922926
5.9605563
5.9442598
5.9442781
6.2271648
6.4977342
6.6412216
6.676297
6.7443401
6.7215571
6.6483245
6.6034383
6.532249
6.4497898
6.1199457
6.1674303
5.8567705
5.5998175
5.4782727
5.543675
5.8956296
5.9311613
5.8926328
5.5405507
5.6004803
5.6977224
5.9853257
6.2362749
6.1900611
5.7787289
5.9530096
5.6425376
5.7699534
6.0292207
6.0606743
5.8136997
5.8485184
5.7384666
5.6478857
5.595133
5.6420628
5.6426527
5.6810614
5.7270244
6.0243907
6.0341018
5.7538465
5.8299106
5.663326
5.7246678
5.7056843
5.6978032
5.5281232
5.5440687
5.559816
5.5732322
5.654078
5.7996395
5.7304204
5.6709457
5.4944012
5.478776
5.4607817
5.6431167
5.6332681
5.442085
5.3596323
5.5673342
5.5401547
5.5240659
5.4653892
5.4292075
5.3964319
5.1423155
5.1857858
5.109261
5.3706854
5.3365169
5.0589648
4.7407474
4.8530194
4.9750626
5.1029822
4.8294507
4.6574963
4.7170923
5.0161819
5.0545932
5.1715359
4.9160968
4.7614476
4.8024925
5.0881865
5.3330919
5.2533964
5.4839439
5.4302739
5.4099568
5.1489298
5.2218708
4.9398411
4.8961726
4.5534179
4.4927785
4.3288044
4.3990109
4.7883738
4.8355788
4.8792156
4.9785429
4.6517001
4.6034082
4.4537194
4.5071471
4.3856869
4.7994674
5.1293028
5.1824828
5.2158067
5.2822789
5.5125414
5.5261444
5.5781502
5.3811439
5.4024795
5.6011062
5.6092476
5.4202299
5.19841
5.2931192
5.3914016
5.4910128
5.3097709
5.2928808
5.274889
5.4610629
5.4444291
5.2549769
5.1219463
5.3368125
5.3567338
5.145622
5.167398
5.3743297
5.2731919
5.2515802
5.2277865
4.983459
5.0128403
4.8775674
5.1478043
5.1192326
4.8406466
4.5184635
4.7051712
4.8799625
5.044436
5.0183896
4.9897122
4.7498712
4.7825437
4.5763433
4.848242
4.8146061
4.7760472
4.4943291
4.434456
4.1328825
4.1877463
4.4451889
4.1571357
3.8617841
3.7919532
3.462516
3.8421165
4.194315
4.2527765
4.5806621
4.3709652
3.9827931
3.9084914
3.4977438
3.561099
3.8955214
3.5246564
3.1282174
3.0514099
2.6047378
3.1208961
3.616507
3.6846408
4.1476437
3.9267819
3.3725553
3.2937897
2.704946
2.7532532
3.1742589
2.6575904
2.1253257
2.0734354
1.589702
2.3204975
3.0209077
3.0852861
3.7330026
4.2700981
4.7020567
5.0501162
5.3323044
5.295458
4.9993756
4.9647494
5.2715105
5.3085144
5.0175641
5.0613559
5.0920921
5.3732962
5.3950874
5.3732757
5.3505057
5.3501678
5.3074251
5.2705551
5.0622451
4.9804567
4.5460523
4.1793115
4.2899682
4.5036178
5.1659509
5.0880678
4.4016736
3.5123834
3.107934
2.5433286
1.7261111
1.7175829
3.1522382
3.5897256
2.4990115
2.4495194
3.2067175
4.0309821
4.7074825
5.2652249
5.0299196
5.4602074
5.5170044
5.332751
4.8060433
5.1077782
5.0318203
4.5105761
3.72926
3.8818814
3.9893797
3.3283818
4.1241422
4.5950911
4.7176311
4.5168018
4.294212
4.0681846
3.8438082
3.6590753
3.5522974
3.5588361
4.1211814
4.2005063
4.652441
4.6023487
4.6528526
4.1935694
4.2522678
4.3274771
4.7518236
4.7041767
4.7531841
5.0988472
5.1360582
5.1645483
5.4285516
5.4620068
5.4767996
5.2439764
5.3074384
5.33223
5.5500634
5.5603322
5.3529703
5.2960058
5.5150444
5.5038939
5.2715474
4.9969723
5.080543
5.173824
4.9111776
5.0396629
5.0643775
5.1870271
4.9584536
5.1078479
5.0885794
5.0674046
4.8392763
4.8118246
4.612178
4.645741
4.9081942
4.9341928
4.6766772
4.8637981
4.8863235
4.7047281
4.4277418
4.6448172
4.6184188
4.5896938
4.5586347
4.5247001
4.4875006
4.2032759
4.2449243
3.9605562
4.2786218
4.2349053
4.5366014
4.3027149
4.6260214
4.6665826
4.3490793
4.094823
4.4706391
4.4223898
4.0388906
3.620482
3.9503085
4.0018234
3.6349956
3.5802757
3.9121354
3.5717959
3.8929197
3.8413955
3.4939295
3.151399
3.5168063
3.4545591
3.3260805
3.2220611
2.2386359
2.4086577
2.5079715
1.8203807
2.566098
2.463029
1.7182199
0.96422138
1.4685617
1.4711985
0.59962506
0.67903659
0.35734318
0.31964774
0.97901156
0.5076566
1.0140804
1.5786537
1.5659658
0.86974033
0.99608477
0.39359608
0.75588013
0.67327157
0.3539663
0.19826824
0.21784571
0.53010108
0.20882978
0.19042842
0.18549615
0.19116807
0.1986796
0.22329492
0.37102541
0.70521474
1.6400492
3.0250222
4.1239496
4.9521662
5.0374892
5.1541516
5.0726015
4.3782872
4.4834993
4.2389927
3.0676404
3.5643396
3.4805172
2.4298258
2.4843735
1.6272477
1.9160368
2.7066125
3.4627874
4.0514137
4.5557263
4.9331955
5.2515677
5.291168
5.3183629
5.2786587
4.9740361
5.0279039
4.9895255
4.6093853
4.6675724
4.614382
4.1463844
4.2191438
4.127821
4.1909851
4.2553088
4.7191734
5.0789301
5.3609768
5.3852746
5.3612574
5.0733762
5.1131598
5.1710316
5.4220159
5.400651
5.3592107
5.3230063
5.3865451
5.4211769
5.1736045
5.0914584
5.0386763
5.1271013
4.8328244
4.7116237
4.7628507
4.8785339
4.5292659
4.3622478
4.2878558
4.4658235
4.640268
4.9613379
5.2208365
5.4542058
5.3292321
5.2595161
5.0267872
5.4600102
5.5173007
5.111789
4.8027806
4.7014345
5.035312
4.5224984
4.0299486
3.7400493
3.2203776
3.3470313
4.1272623
4.6074835
4.018374
3.9109676
4.4515092
4.9357469
5.3200666
5.6512801
5.8943315
6.1068875
6.3286209
6.5322041
6.5780836
6.3743894
6.3939039
6.487512
6.5139592
6.4655763
6.4265774
6.4575431
6.393131
6.2942487
5.9975022
6.1811101
6.2234347
6.2082325
6.1328383
5.9358107
6.0484929
6.0202585
5.8334708
5.9635143
5.8702868
5.7005217
5.3922358
5.6142002
5.5789855
5.5270262
5.9271372
6.1967353
5.5286646
4.7743384
5.3022102
5.3561974
5.0162599
4.5634215
5.0152544
4.9346881
5.3202308
5.5794266
5.6141577
5.8700657
5.8330067
5.6517689
5.700596
5.3915137
5.4230147
5.6679632
6.0224223
5.9076053
5.8394142
5.9663049
6.1664135
6.1771182
6.249015
6.2764872
6.2368257
6.085073
6.1010535
5.9920998
6.0148642
6.2025007
6.2108942
6.280602
6.2960845
6.2687634
6.12709
6.1375935
6.0322902
5.8577559
5.7930467
5.7242471
5.6624391
5.5998111
5.5482668
5.5012001
5.469652
5.4503331
5.449228
5.4662401
5.4968674
5.5101871
5.5556129
5.3445728
5.3199984
5.2585915
5.286212
5.2435972
5.4809724
5.4647377
5.2216881
5.1893274
5.2124528
4.9041107
4.9716751
5.0597971
5.0941454
5.012328
4.6745727
4.7944933
4.7463788
4.6150664
4.5078945
4.5756598
4.9496589
4.9174544
4.8683211
4.4504075
4.5226183
3.9809406
4.0764718
4.2460787
4.4324626
4.3667922
4.1629187
3.5847453
3.9086119
3.9944843
3.6929364
3.3781145
3.2574241
3.9795197
3.889232
3.7829291
2.9665224
3.1567413
3.0742148
3.0062897
2.8233862
2.7723882
3.5546214
3.5803617
3.5163531
3.6612431
3.6022612
2.9288139
2.993453
2.7670728
2.8136644
2.8696466
3.6487727
3.7982974
4.3436034
4.7730532
4.7212779
4.2807861
4.4214305
4.8131121
5.1337168
5.2123066
5.4582335
5.4782678
5.2448906
4.9667469
4.8602232
4.4790246
4.6338572
4.5823188
4.9240387
5.0451755
5.2995798
5.5191853
5.4841802
5.5617881
5.5328606
5.3249136
5.3614558
5.2644401
5.004302
5.131516
5.0945597
4.81992
4.8689477
4.7015612
4.748745
4.7922643
5.0806232
5.3281397
5.5360111
5.6079603
5.5916361
5.3917653
5.4167144
5.5064034
5.6740896
5.6611012
5.6328428
5.6084544
5.6902547
5.713186
5.5540365
5.4580561
5.422576
5.525289
5.3483148
5.2218653
5.2561329
5.375309
5.1768205
5.0274531
4.979355
5.1396455
4.9195147
4.7260572
4.5229942
4.2947269
4.0576905
3.8146379
3.87802
4.1166415
3.6485449
3.3124381
3.2305939
3.5774457
3.0825549
2.6388214
2.2201043
2.2418624
1.9094231
1.0731275
1.0952624
1.5031671
1.5050723
1.5073548
2.278136
3.0515051
3.7274083
3.9437757
4.0108613
4.2390047
4.178178
3.7133424
3.3776772
3.4486107
3.1181077
2.3231147
1.9362649
1.8704587
2.155953
2.632982
3.1280204
2.5795722
2.5309299
1.9255048
2.5854564
2.1347956
1.8636352
0.9908656
1.3472557
1.3203269
1.9433768
1.9680303
2.692166
2.7673918
3.2791442
2.7058033
3.2582133
3.3346062
3.7769724
4.1004825
4.3698342
4.0665388
4.344768
4.066849
4.3533348
4.3193775
4.2832719
4.0058101
4.3194337
4.3579741
4.0491363
4.0904301
4.3935457
4.1483315
4.4764959
4.7742786
4.74063
4.4357739
4.3932097
4.1497034
4.2043594
4.5633226
4.6066555
4.6467937
4.8045684
4.5138757
4.3085124
4.2571133
3.8663976
3.8030946
4.1003121
4.0516962
3.68885
3.7424309
3.3747487
3.3081666
3.7403884
3.6794706
3.2453953
3.1858544
2.7108417
3.2360439
3.7462621
4.2062912
4.2627737
3.8093018
3.5009675
4.0506473
3.9881218
3.4339778
2.806762
2.8676684
3.3005059
2.7691427
2.203038
2.1597538
1.5982773
2.3808739
3.1416932
3.7959775
3.860873
3.2048938
2.9980786
3.7369562
4.310752
4.3714481
4.4433803
4.5599198
4.6973844
5.014933
5.0485936
4.7414573
4.6119566
4.9590956
4.919918
4.844808
4.8886086
5.1957903
5.444912
5.4253561
5.4078034
5.4077393
5.6802448
5.9948997
5.9949525
6.0049883
5.7105682
5.473712
5.486404
5.2535316
5.2264361
5.2018834
5.455351
5.4688936
5.2301752
4.9341538
4.9697072
5.0309846
5.1093694
4.822901
4.9417437
4.9704125
5.0863276
5.2052541
5.3248759
5.4452341
5.5652198
5.7739591
6.1006074
6.3414399
6.5216908
6.5691338
6.6880348
6.7286922
6.755906
6.7286925
6.6258746
6.6776053
6.6306169
6.5217381
6.5428927
6.3595617
6.341347
6.3033051
6.4331168
6.4505822
6.329203
6.3111499
6.1703907
6.1633135
6.0512503
6.2356936
6.2407916
6.0659336
6.0831519
6.1929526
6.2024442
6.3401938
6.2698536
6.2627154
6.1983241
6.3680255
6.5611602
6.6106165
6.4095954
6.4902603
6.5777482
6.6024775
6.4276915
6.4057979
6.3628264
6.3705967
6.2360317
6.228037
6.1159667
6.293669
6.2981893
6.1308738
6.1496802
6.2598188
6.3880933
6.5122838
6.3939476
6.2708192
6.322803
6.3192931
6.2522267
6.4317888
6.2523312
6.0433395
6.0258895
6.2324687
6.2284526
6.2051868
5.9942266
6.0979491
5.994147
6.0436004
6.1296338
6.3594578
6.5428501
6.4505384
6.4330136
6.3032313
6.3112344
6.2407983
6.2354791
6.0510537
6.1632767
6.1702474
6.0658846
6.0832511
6.2628062
6.3291674
6.3402189
6.2698621
6.0982541
6.2023585
6.192802
6.0306355
6.0083449
5.9964811
5.9433607
5.9481504
5.8814058
5.8772134
5.7470798
5.8311589
5.8353963
5.7561188
5.7669942
5.8953079
5.9597088
5.9647781
5.8991232
5.7754707
5.8533386
5.8485341
5.7255867
5.778866
5.7732855
5.7072118
5.7144001
5.6137105
5.6024457
5.4437503
5.5642517
5.5690474
5.45562
5.4680222
5.6244797
5.6348721
5.7332176
5.5894544
5.5838273
5.441588
5.5513181
5.7788541
6.008485
5.9965312
5.9437087
5.9483647
5.8358258
5.8314715
5.7479113
5.8778853
5.8816099
5.7565836
5.7671723
5.8489493
5.9598299
5.9648683
5.8536014
5.7754996
5.8990793
5.8952664
5.8330417
5.9616319
6.1763417
6.3510351
6.1707139
5.9452334
5.8516118
6.1083827
6.1118875
5.8689204
5.8868693
5.9785282
5.8510496
5.913185
5.9778123
6.0304007
5.8120349
5.8172843
5.763876
5.8849572
5.8717951
5.982126
5.9164809
5.7939002
5.7857368
5.8680636
5.747062
5.7333268
5.7255611
5.7148986
5.7075629
5.6037627
5.6143545
5.4565629
5.5695917
5.5847544
5.589912
5.4792972
5.6347519
5.6247813
5.4682471
5.296457
5.4417499
5.4268624
5.5351071
5.418564
5.4262445
5.282025
5.2678427
5.0769917
5.2468641
5.2523496
5.0921608
5.1077807
5.2954602
5.3076613
5.4786187
5.4906243
5.6454113
5.7858238
5.9130529
5.9777283
5.9823817
5.9163085
5.7938384
5.8717599
5.8678487
5.7469449
5.8119213
5.8172818
6.0434689
5.9940231
5.9990568
5.9333179
5.9296609
5.8037683
5.8848849
5.889555
5.8116691
5.6737605
5.7712138
5.7635144
5.7532748
5.6544813
5.5001075
5.6105872
5.6068733
5.4648064
5.5783936
5.5925862
5.4845047
5.6248731
5.6297563
5.5202991
5.5104022
5.6639844
5.5693031
5.7248308
5.8677161
5.994181
6.2051311
6.3679365
6.5611387
6.6105987
6.6776107
6.5777115
6.4901711
6.3627522
6.4057067
6.3704446
6.2980274
6.2936401
6.1158919
6.2280342
6.2358625
6.1306531
6.1742928
6.067264
6.0795241
6.0278437
6.0164858
6.0121117
5.9469574
5.949896
5.8293205
5.9075461
5.9040014
5.8215159
5.6837292
5.7847119
5.8511891
5.856519
5.8011722
5.9202643
5.9244488
6.0321293
5.9654163
5.9627214
5.8387122
5.8461322
5.7106186
5.8082158
5.6690167
5.6644612
5.6503662
5.7908206
5.6923872
5.5403597
5.5309129
5.6468974
5.5064479
5.6193412
5.8512298
6.0672668
6.0797777
5.8567228
5.8012965
5.9203979
6.0278395
6.016446
6.0121328
5.9989483
5.8896289
5.811927
5.9332707
5.9297324
5.8035817
5.6645708
5.6545107
5.7531578
5.6109592
5.6072036
5.490686
5.6452298
5.5496471
5.7066073
5.6962648
5.8373124
5.771137
5.7673484
5.7518915
5.8192464
5.814366
5.6662822
5.6763541
5.5977407
5.5862179
5.747534
5.6883957
5.6939343
5.5222388
5.5092455
5.4378497
5.6293338
5.6348768
5.4520272
5.4666059
5.5350162
5.6092319
5.6868148
5.5281471
5.5163481
5.5041627
5.4065374
5.4202933
5.2214754
5.3384853
5.3515809
5.3633992
5.5384697
5.4452101
5.6190428
5.5457933
5.7140316
5.7091378
5.6526205
5.6565858
5.4781757
5.2713009
5.3547698
5.3413748
5.4326791
5.2361712
5.2496126
5.1395371
5.1234433
5.1057813
5.3266562
5.3106779
5.2197136
5.2388688
4.9948798
5.0166948
5.255518
5.1794042
5.4058876
5.6066741
5.7971096
6.0673105
6.2937525
6.3078604
6.0915393
6.1362771
6.1407082
5.9023116
5.8319334
6.0962009
6.0684971
6.0644991
6.0391378
6.0355974
6.0629628
5.7777615
5.737097
5.7574688
5.7771019
5.8156699
5.6286288
5.6731228
5.7288473
5.7860459
5.7889886
5.8550833
5.7154036
5.6388719
5.6296521
5.456267
5.4668505
5.5593408
5.3859154
5.5001202
5.5109157
5.6250207
5.6300258
5.7712041
5.6735991
5.5203697
5.3520095
5.4910148
5.4844134
5.4708333
5.4648867
5.449036
5.2771191
5.2727262
5.2525453
5.2474877
5.4190997
5.270107
5.2828029
5.0934187
5.078624
4.8728577
5.0795577
5.0912046
4.8885885
4.8703218
4.6485192
4.6696613
4.8898956
4.9067565
5.1086906
5.2725425
5.2770588
5.4481934
5.120482
4.920422
5.1180391
4.9209269
5.1206758
5.3078441
5.3202001
5.330504
5.1451626
5.2999664
5.2971184
5.1337818
4.9347697
5.13424
5.2972692
5.2999939
5.4703623
5.330516
5.3195146
5.1340816
5.1450778
5.1572216
5.341554
5.3518799
5.490626
5.3213739
5.3181099
5.1573451
5.31852
5.3214328
5.1675966
5.1568996
5.3413576
5.2052487
5.3964002
5.5693251
5.7250137
5.8677877
5.8720388
5.7334563
5.6573875
5.8057271
5.8030884
5.6485205
5.477
5.4868668
5.5788388
5.4067853
5.2958023
5.2847686
5.2736739
5.2619353
5.3744767
5.1817939
5.1690022
5.1556674
5.1412222
5.1252853
4.9067462
4.9248231
4.7532956
4.9988502
4.9793415
4.7299235
4.4577211
4.6686237
4.690018
4.4376746
4.412183
4.3841031
4.1289209
3.8465385
4.1923829
3.9276714
3.5122388
3.442782
3.7948039
3.429019
3.7670338
3.7200748
4.025914
3.9840241
3.9396009
3.6005905
3.5480395
3.2069316
3.2610674
3.6223126
3.2605852
3.2047951
3.147776
3.0927635
2.71084
3.0753572
2.6818631
2.7429604
3.0913696
2.6134112
2.2691647
2.2017976
1.8924521
2.330965
2.3822737
2.7732085
2.3319007
2.7106798
2.648677
2.2625842
1.9202764
1.9756785
1.6022487
1.9479831
1.9966226
2.318815
2.6651174
3.1484326
3.2044496
2.719259
2.3709757
2.8543727
2.7982966
2.437064
2.8292872
2.8848212
2.435739
2.8219335
2.7652387
2.382358
2.0243731
2.0748694
2.4918356
2.0470123
1.6900473
1.6445028
1.2124323
1.4857845
1.7464532
2.0772903
2.0419154
1.4118234
1.106872
1.7118816
1.6802029
1.0874825
0.6046274
0.57737714
0.82723354
0.49324014
0.27538689
0.30936382
0.21675887
0.489827
0.90064195
1.4204604
1.4498638
0.91972719
0.74341696
1.1807812
1.1470857
1.5446012
1.165851
1.4673826
1.766327
2.1468514
2.1823789
1.8023524
1.205178
1.5779691
1.5590926
1.1813383
0.95268603
0.97251272
1.497464
1.1999124
0.77197793
0.74999805
0.4276469
0.52738509
0.67314928
1.007355
0.97583224
1.5941247
2.3432434
2.0550344
2.8937345
3.6116013
3.6723091
2.9416062
2.0713905
2.0954463
2.4255221
1.6080196
1.1494249
1.1728199
1.2002837
1.2156138
2.0544369
2.8310973
2.8216372
2.8822878
3.6042155
4.1887737
4.6498063
5.0156921
4.9624489
4.9953746
5.2929989
5.3297645
5.0459763
5.0886258
5.0594129
5.0974817
5.3720474
5.3929836
5.3704235
5.4071357
5.6906492
5.9915993
5.9598112
5.9759963
6.0275523
6.2881391
6.3092102
6.2474906
6.0047853
5.7100892
5.7529159
6.0336665
6.0237574
5.7253423
5.8057964
6.071537
6.0402711
5.775082
5.8795915
6.1097057
6.096567
6.1664626
6.3744378
6.5780747
6.3939107
6.2025746
6.1361811
6.1456035
6.0796542
5.8290579
5.925411
5.9048937
6.0145139
5.9914539
6.1767223
6.2489938
6.2763131
6.2367659
6.2080848
6.1326973
6.3285301
6.2946109
5.9971906
6.1068526
5.894008
5.9353511
6.047941
6.2225515
6.1806806
6.019468
5.8312749
5.6492601
5.5220595
5.3138178
5.3868687
5.6987442
5.8684869
5.960568
5.5731493
5.6092681
5.3448661
5.0027063
4.9196942
4.7461273
4.4165774
4.5327099
4.9897807
4.9040375
5.287471
5.5683661
5.5102443
5.9226801
6.1958419
6.4573601
6.3930512
6.4265346
6.4655834
6.5139025
6.48745
6.2959576
6.2687943
6.2804869
6.2107596
6.0320204
6.1374325
6.1266063
6.1004194
6.0846751
5.9656417
5.7641696
5.6895902
5.6086674
5.5343661
5.4575018
5.3923337
5.3327984
5.3668748
5.1027542
5.0523945
5.1351645
5.1792568
5.4254141
5.4617276
5.4807534
5.4269685
5.1775577
5.1251776
4.7924242
4.7502728
4.7010355
4.24723
4.3059385
4.3725769
4.3150826
4.7444002
4.6944597
4.6454008
4.5991064
4.1160998
4.1891224
4.2576494
4.3827739
4.7780927
4.7299831
4.3121869
4.4767447
4.84201
4.8855406
4.5368365
4.5876595
4.4372139
4.8252584
5.1423156
5.2161505
5.2472648
4.9691041
4.8691826
4.49083
4.6355596
4.6824828
4.544051
4.4302817
4.3660823
4.7980126
4.8003407
4.8468989
5.1684587
5.1680811
5.4245465
5.4430865
5.4262178
5.1611819
5.1338507
5.1928182
5.2241483
5.2005511
5.4548261
5.4683895
5.2291768
5.2511725