/*--------------------------------*- C++ -*----------------------------------*\
  =========                 |
  \\      /  F ield         | OpenFOAM: The Open Source CFD Toolbox
   \\    /   O peration     | Website:  https://openfoam.org
    \\  /    A nd           | Version:  7
     \\/     M anipulation  |
\*---------------------------------------------------------------------------*/
FoamFile
{
    version     2.0;
    format      ascii;
    class       volScalarField;
    location    "350";
    object      p;
}
// * * * * * * * * * * * * * * * * * * * * * * * * * * * * * * * * * * * * * //

dimensions      [1 -1 -2 0 0 0 0];

internalField   nonuniform List<scalar> 
24866
(
101318.95
101318.89
101318.9
101318.93
101318.94
101318.94
101318.95
101318.95
101318.94
101318.95
101318.95
101318.95
101318.95
101318.94
101318.95
101318.95
101318.94
101318.94
101318.94
101318.94
101318.94
101318.94
101318.95
101318.95
101318.94
101318.94
101318.94
101318.95
101318.95
101318.95
101318.95
101318.95
101318.95
101318.95
101318.95
101318.96
101318.95
101318.95
101318.95
101318.94
101318.95
101318.96
101318.95
101318.95
101318.94
101318.95
101318.95
101318.94
101318.95
101318.95
101318.95
101318.95
101318.95
101318.95
101318.95
101318.94
101318.95
101318.95
101318.94
101318.94
101318.98
101319
101318.97
101318.97
101318.99
101319.01
101318.98
101318.98
101318.99
101319
101319
101318.99
101318.98
101318.98
101319.02
101319
101318.97
101318.97
101319
101318.97
101318.97
101318.99
101319.01
101319.02
101319.03
101318.99
101318.98
101318.99
101318.98
101318.99
101319.03
101319.04
101319.13
101319.13
101319.11
101319.08
101319.04
101319.1
101319.04
101319.08
101319.16
101319.23
101319.15
101319.2
101319.23
101319.23
101319.21
101319.12
101319.08
101319.01
101319
101318.98
101318.98
101319
101319.04
101319.1
101319.16
101319.24
101319.3
101319.33
101319.33
101319.29
101319.37
101319.29
101319.21
101319.12
101319.04
101319.06
101319.14
101319.23
101319.33
101319.41
101319.45
101319.41
101319.41
101319.37
101319.3
101319.21
101319.16
101319.08
101319.04
101319
101318.98
101318.98
101318.97
101318.96
101318.97
101318.93
101318.94
101318.94
101318.93
101318.94
101318.93
101318.93
101318.93
101318.92
101318.93
101318.94
101318.93
101318.92
101318.91
101318.92
101318.93
101318.92
101318.93
101318.93
101318.93
101318.94
101318.93
101318.93
101318.94
101318.94
101318.94
101318.93
101318.93
101318.93
101318.94
101318.93
101318.96
101318.97
101318.96
101318.96
101318.99
101318.96
101318.99
101318.99
101319.05
101319.04
101319.1
101319.04
101319.08
101319.12
101319.04
101319.06
101319.14
101319.23
101319.33
101319.41
101319.45
101319.46
101319.46
101319.41
101319.33
101319.23
101319.14
101319.12
101319.03
101319.01
101319.01
101318.99
101318.99
101318.94
101318.93
101318.94
101318.92
101318.9
101318.91
101318.91
101318.9
101318.92
101318.91
101318.9
101318.91
101318.92
101318.91
101318.91
101318.89
101318.89
101318.91
101318.89
101318.9
101318.9
101318.89
101318.91
101318.9
101318.9
101318.91
101318.91
101318.91
101318.91
101318.9
101318.9
101318.91
101318.86
101318.83
101318.85
101318.85
101318.83
101318.89
101318.93
101318.94
101318.94
101318.93
101318.94
101318.94
101318.94
101318.94
101318.93
101318.94
101318.95
101318.93
101318.94
101318.94
101318.93
101318.94
101318.92
101318.93
101318.94
101318.93
101318.92
101318.94
101318.94
101318.94
101318.93
101318.93
101318.97
101318.97
101318.97
101318.97
101318.99
101318.99
101319.02
101319
101318.99
101318.99
101318.99
101319.05
101319.04
101319.13
101319.23
101319.33
101319.41
101319.37
101319.41
101319.41
101319.37
101319.29
101319.21
101319.16
101319.23
101319.29
101319.33
101319.33
101319.3
101319.23
101319.29
101319.2
101319.11
101319.03
101319.01
101319.08
101319.16
101319.1
101319.16
101319.21
101319.24
101319.24
101319.21
101319.16
101319.09
101319.12
101319.14
101319.14
101319.12
101319.09
101319.04
101319
101319.04
101319
101318.98
101318.98
101318.96
101318.97
101318.97
101318.96
101318.99
101318.99
101318.97
101318.96
101318.9
101318.91
101318.9
101318.9
101318.91
101318.99
101318.98
101319.01
101319.01
101318.97
101318.99
101318.98
101318.98
101318.98
101318.91
101318.92
101318.92
101318.92
101318.91
101318.91
101318.86
101318.87
101318.85
101318.86
101318.86
101318.84
101318.87
101318.86
101318.85
101318.86
101318.87
101318.86
101318.86
101318.84
101318.85
101318.86
101318.83
101318.85
101318.85
101318.83
101318.86
101318.85
101318.84
101318.86
101318.86
101318.86
101318.86
101318.84
101318.85
101318.78
101318.8
101318.76
101318.78
101318.78
101318.76
101318.8
101318.86
101318.91
101318.9
101318.9
101318.91
101318.91
101318.91
101318.91
101318.9
101318.91
101318.92
101318.9
101318.91
101318.91
101318.85
101318.84
101318.87
101318.86
101318.85
101318.86
101318.87
101318.87
101318.87
101318.85
101318.79
101318.8
101318.81
101318.77
101318.79
101318.79
101318.77
101318.81
101318.8
101318.78
101318.8
101318.81
101318.81
101318.8
101318.78
101318.79
101318.8
101318.76
101318.78
101318.78
101318.76
101318.8
101318.78
101318.77
101318.79
101318.8
101318.8
101318.79
101318.77
101318.67
101318.69
101318.71
101318.66
101318.68
101318.68
101318.66
101318.71
101318.69
101318.68
101318.77
101318.84
101318.86
101318.86
101318.86
101318.86
101318.85
101318.86
101318.87
101318.84
101318.85
101318.79
101318.79
101318.77
101318.81
101318.8
101318.78
101318.81
101318.81
101318.81
101318.81
101318.73
101318.69
101318.71
101318.73
101318.68
101318.7
101318.7
101318.68
101318.73
101318.71
101318.69
101318.72
101318.73
101318.73
101318.72
101318.68
101318.7
101318.72
101318.66
101318.69
101318.69
101318.66
101318.72
101318.69
101318.68
101318.71
101318.71
101318.71
101318.71
101318.58
101318.54
101318.56
101318.59
101318.51
101318.55
101318.55
101318.51
101318.59
101318.56
101318.54
101318.59
101318.71
101318.8
101318.8
101318.8
101318.8
101318.78
101318.79
101318.81
101318.77
101318.67
101318.69
101318.7
101318.67
101318.73
101318.71
101318.69
101318.72
101318.73
101318.73
101318.62
101318.61
101318.56
101318.59
101318.62
101318.54
101318.57
101318.57
101318.54
101318.61
101318.58
101318.56
101318.6
101318.61
101318.61
101318.6
101318.55
101318.57
101318.6
101318.52
101318.56
101318.55
101318.52
101318.6
101318.57
101318.54
101318.58
101318.59
101318.59
101318.42
101318.41
101318.35
101318.38
101318.42
101318.32
101318.36
101318.37
101318.32
101318.42
101318.38
101318.35
101318.41
101318.43
101318.6
101318.72
101318.72
101318.71
101318.68
101318.7
101318.72
101318.6
101318.53
101318.56
101318.56
101318.53
101318.61
101318.58
101318.56
101318.61
101318.62
101318.45
101318.45
101318.44
101318.38
101318.41
101318.45
101318.35
101318.39
101318.39
101318.35
101318.45
101318.41
101318.38
101318.43
101318.45
101318.44
101318.43
101318.37
101318.4
101318.44
101318.33
101318.37
101318.37
101318.33
101318.43
101318.39
101318.35
101318.41
101318.42
101318.2
101318.2
101318.18
101318.11
101318.15
101318.2
101318.07
101318.13
101318.13
101318.07
101318.2
101318.15
101318.11
101318.19
101318.21
101318.21
101318.43
101318.6
101318.59
101318.55
101318.57
101318.4
101318.44
101318.34
101318.38
101318.39
101318.34
101318.45
101318.41
101318.38
101318.44
101318.22
101318.24
101318.24
101318.22
101318.14
101318.18
101318.24
101318.11
101318.16
101318.16
101318.1
101318.23
101318.18
101318.14
101318.21
101318.23
101318.23
101318.21
101318.13
101318.17
101318.22
101318.08
101318.14
101318.14
101318.08
101318.21
101318.15
101318.11
101318.19
101317.9
101317.93
101317.92
101317.9
101317.81
101317.86
101317.92
101317.77
101317.84
101317.84
101317.77
101317.93
101317.86
101317.81
101317.91
101317.93
101317.93
101317.91
101318.19
101318.42
101318.36
101318.12
101318.16
101318.22
101318.09
101318.15
101318.15
101318.1
101318.23
101318.18
101318.14
101317.85
101317.94
101317.96
101317.96
101317.94
101317.85
101317.9
101317.97
101317.81
101317.88
101317.88
101317.81
101317.96
101317.9
101317.84
101317.93
101317.95
101317.95
101317.93
101317.83
101317.88
101317.94
101317.79
101317.86
101317.85
101317.78
101317.93
101317.87
101317.81
101317.49
101317.58
101317.61
101317.6
101317.58
101317.48
101317.54
101317.61
101317.45
101317.53
101317.53
101317.45
101317.62
101317.55
101317.49
101317.59
101317.61
101317.62
101317.6
101317.5
101317.82
101317.88
101317.95
101317.79
101317.87
101317.87
101317.8
101317.96
101317.9
101317.58
101317.52
101317.62
101317.65
101317.65
101317.63
101317.53
101317.59
101317.66
101317.5
101317.58
101317.57
101317.49
101317.66
101317.58
101317.52
101317.62
101317.64
101317.63
101317.61
101317.51
101317.57
101317.63
101317.47
101317.55
101317.54
101317.46
101317.62
101317.55
101317.26
101317.19
101317.28
101317.29
101317.29
101317.27
101317.18
101317.25
101317.32
101317.17
101317.25
101317.25
101317.17
101317.32
101317.25
101317.19
101317.28
101317.3
101317.31
101317.29
101317.21
101317.28
101317.57
101317.64
101317.48
101317.56
101317.56
101317.49
101317.65
101317.36
101317.3
101317.23
101317.32
101317.34
101317.34
101317.33
101317.24
101317.3
101317.37
101317.22
101317.3
101317.3
101317.22
101317.37
101317.29
101317.23
101317.31
101317.33
101317.32
101317.3
101317.21
101317.28
101317.34
101317.19
101317.27
101317.27
101317.18
101317.33
101317.14
101317.09
101317.02
101317.08
101317.08
101317.08
101317.07
101317.01
101317.07
101317.13
101317.02
101317.09
101317.09
101317.02
101317.13
101317.08
101317.02
101317.08
101317.09
101317.09
101317.09
101317.04
101317.1
101317.16
101317.35
101317.2
101317.29
101317.29
101317.21
101317.07
101317.18
101317.13
101317.07
101317.13
101317.13
101317.13
101317.13
101317.07
101317.13
101317.19
101317.08
101317.15
101317.15
101317.07
101317.18
101317.12
101317.06
101317.12
101317.11
101317.11
101317.11
101317.04
101317.1
101317.16
101317.04
101317.11
101317.11
101317.04
101317.13
101317.18
101317.15
101317.1
101317.13
101317.11
101317.11
101317.12
101317.09
101317.14
101317.17
101317.11
101317.17
101317.17
101317.12
101317.17
101317.14
101317.1
101317.13
101317.12
101317.13
101317.14
101317.12
101317.17
101317.21
101317.15
101317.06
101317.14
101317.14
101317.22
101317.16
101317.22
101317.19
101317.15
101317.18
101317.17
101317.17
101317.18
101317.15
101317.2
101317.23
101317.17
101317.23
101317.22
101317.17
101317.22
101317.19
101317.14
101317.16
101317.15
101317.14
101317.15
101317.12
101317.16
101317.2
101317.14
101317.19
101317.18
101317.53
101317.51
101317.51
101317.5
101317.48
101317.48
101317.46
101317.46
101317.47
101317.47
101317.49
101317.5
101317.49
101317.52
101317.52
101317.49
101317.5
101317.5
101317.48
101317.49
101317.47
101317.48
101317.5
101317.5
101317.52
101317.54
101317.53
101317.56
101317.21
101317.28
101317.12
101317.28
101317.23
101317.04
101317.27
101317.16
101317.12
101317.12
101317.17
101317.28
101317.49
101317.54
101317.55
101317.56
101317.55
101317.58
101317.57
101317.54
101317.55
101317.54
101317.52
101317.52
101317.5
101317.5
101317.51
101317.5
101317.52
101317.53
101317.51
101317.54
101318.1
101318.1
101318.09
101318.06
101318.07
101318.07
101318.05
101318.03
101318.03
101318.04
101318.06
101318.06
101318.05
101318.08
101318.09
101318.09
101318.09
101318.05
101318.07
101318.07
101318.06
101318.05
101318.05
101318.07
101318.09
101318.09
101318.09
101318.12
101318.13
101318.13
101317.57
101317.54
101317.56
101317.55
101317.53
101317.54
101317.52
101317.53
101317.54
101318.1
101318.12
101318.11
101318.11
101318.13
101318.13
101318.13
101318.12
101318.1
101318.1
101318.1
101318.08
101318.07
101318.06
101318.07
101318.09
101318.08
101318.07
101318.1
101318.8
101318.79
101318.78
101318.8
101318.74
101318.76
101318.78
101318.74
101318.72
101318.72
101318.74
101318.78
101318.76
101318.73
101318.8
101318.78
101318.78
101318.8
101318.74
101318.77
101318.79
101318.75
101318.74
101318.74
101318.76
101318.81
101318.78
101318.77
101318.83
101318.81
101318.82
101318.83
101318.13
101318.1
101318.11
101318.12
101318.1
101318.09
101318.09
101318.77
101318.78
101318.82
101318.8
101318.78
101318.82
101318.81
101318.81
101318.82
101318.77
101318.78
101318.81
101318.77
101318.75
101318.75
101318.76
101318.79
101318.77
101318.75
101319.5
101319.58
101319.55
101319.54
101319.58
101319.49
101319.52
101319.57
101319.51
101319.49
101319.49
101319.51
101319.57
101319.53
101319.5
101319.59
101319.55
101319.55
101319.59
101319.5
101319.54
101319.58
101319.52
101319.5
101319.51
101319.53
101319.59
101319.54
101319.52
101319.59
101319.56
101319.57
101319.59
101319.52
101318.77
101318.8
101318.82
101318.79
101318.77
101319.52
101319.51
101319.53
101319.58
101319.54
101319.51
101319.58
101319.56
101319.55
101319.58
101319.51
101319.53
101319.57
101319.52
101319.5
101319.5
101319.52
101319.57
101319.53
101320.33
101320.3
101320.38
101320.35
101320.34
101320.39
101320.3
101320.33
101320.39
101320.33
101320.32
101320.32
101320.34
101320.4
101320.35
101320.31
101320.41
101320.36
101320.37
101320.41
101320.32
101320.36
101320.41
101320.35
101320.33
101320.33
101320.34
101320.4
101320.34
101320.31
101320.39
101320.34
101320.35
101320.38
101320.3
101320.33
101319.55
101319.58
101319.53
101320.32
101320.31
101320.31
101320.32
101320.36
101320.32
101320.29
101320.36
101320.33
101320.33
101320.37
101320.29
101320.32
101320.37
101320.32
101320.31
101320.31
101320.32
101320.38
101321.15
101321.1
101321.07
101321.15
101321.12
101321.11
101321.16
101321.08
101321.11
101321.18
101321.13
101321.13
101321.13
101321.14
101321.19
101321.14
101321.1
101321.19
101321.15
101321.15
101321.19
101321.1
101321.14
101321.19
101321.14
101321.13
101321.13
101321.12
101321.17
101321.1
101321.08
101321.14
101321.09
101321.1
101321.12
101321.05
101321.08
101321.12
101320.37
101320.09
101320.04
101320
101320
101320.04
101320.08
101320.87
101321.11
101321.06
101321.04
101321.1
101321.07
101321.07
101321.11
101321.05
101321.07
101321.13
101321.08
101321.09
101321.09
101321.1
101321.77
101321.81
101321.77
101321.74
101321.82
101321.79
101321.79
101321.83
101321.77
101321.79
101321.86
101321.81
101321.81
101321.82
101321.82
101321.88
101321.82
101321.79
101321.87
101321.83
101321.83
101321.87
101321.79
101321.82
101321.87
101321.82
101321.8
101321.8
101321.79
101321.84
101321.76
101321.74
101321.8
101321.75
101321.75
101321.77
101321.71
101321.73
101321.77
101321.72
101321.08
101321.07
101321.07
101321.07
101321.72
101321.75
101321.71
101321.69
101321.75
101321.72
101321.72
101321.76
101321.7
101321.72
101321.79
101321.74
101321.75
101321.76
101322.32
101322.34
101322.38
101322.34
101322.32
101322.39
101322.37
101322.36
101322.41
101322.35
101322.37
101322.44
101322.39
101322.4
101322.4
101322.41
101322.46
101322.4
101322.38
101322.45
101322.41
101322.41
101322.45
101322.37
101322.4
101322.44
101322.39
101322.38
101322.37
101322.36
101322.4
101322.32
101322.31
101322.36
101322.31
101322.31
101322.33
101322.27
101322.28
101322.32
101322.28
101322.27
101321.72
101321.72
101322.27
101322.27
101322.31
101322.26
101322.25
101322.3
101322.28
101322.28
101322.32
101322.27
101322.28
101322.35
101322.31
101322.32
101322.82
101322.83
101322.84
101322.88
101322.85
101322.83
101322.9
101322.88
101322.88
101322.92
101322.86
101322.88
101322.95
101322.91
101322.91
101322.92
101322.92
101322.97
101322.92
101322.9
101322.96
101322.93
101322.93
101322.96
101322.89
101322.91
101322.95
101322.91
101322.89
101322.88
101322.87
101322.91
101322.83
101322.82
101322.86
101322.81
101322.82
101322.83
101322.77
101322.78
101322.81
101322.78
101322.77
101322.77
101322.77
101322.8
101322.76
101322.75
101322.8
101322.78
101322.78
101322.81
101322.77
101322.78
101322.85
101322.81
101323.26
101323.27
101323.28
101323.29
101323.33
101323.3
101323.29
101323.35
101323.34
101323.33
101323.37
101323.32
101323.34
101323.4
101323.36
101323.37
101323.37
101323.38
101323.42
101323.37
101323.36
101323.42
101323.38
101323.38
101323.41
101323.35
101323.36
101323.4
101323.36
101323.35
101323.34
101323.32
101323.36
101323.28
101323.27
101323.31
101323.27
101323.27
101323.28
101323.22
101323.23
101323.26
101323.23
101323.22
101323.22
101323.22
101323.25
101323.21
101323.2
101323.25
101323.23
101323.23
101323.26
101323.22
101323.23
101323.29
101323.69
101323.66
101323.67
101323.68
101323.69
101323.73
101323.71
101323.7
101323.76
101323.75
101323.75
101323.78
101323.73
101323.75
101323.81
101323.77
101323.77
101323.78
101323.78
101323.82
101323.78
101323.76
101323.82
101323.79
101323.79
101323.82
101323.75
101323.77
101323.81
101323.76
101323.75
101323.74
101323.73
101323.76
101323.69
101323.68
101323.72
101323.68
101323.68
101323.68
101323.63
101323.64
101323.67
101323.64
101323.63
101323.63
101323.63
101323.66
101323.62
101323.61
101323.66
101323.65
101323.64
101323.67
101323.63
101323.64
101324
101324.05
101324.02
101324.03
101324.03
101324.05
101324.09
101324.06
101324.06
101324.12
101324.11
101324.11
101324.15
101324.1
101324.11
101324.16
101324.12
101324.13
101324.13
101324.14
101324.18
101324.14
101324.12
101324.18
101324.15
101324.15
101324.18
101324.11
101324.13
101324.16
101324.12
101324.11
101324.1
101324.08
101324.12
101324.05
101324.05
101324.08
101324.04
101324.05
101324.05
101324
101324.01
101324.04
101324.01
101324
101323.99
101323.99
101324.03
101323.99
101323.98
101324.03
101324.02
101324.01
101324.04
101324
101324.33
101324.31
101324.36
101324.32
101324.33
101324.34
101324.35
101324.39
101324.38
101324.38
101324.45
101324.44
101324.44
101324.48
101324.42
101324.44
101324.48
101324.44
101324.44
101324.44
101324.45
101324.5
101324.46
101324.44
101324.51
101324.48
101324.48
101324.5
101324.44
101324.45
101324.48
101324.43
101324.42
101324.41
101324.4
101324.45
101324.39
101324.38
101324.42
101324.39
101324.39
101324.4
101324.34
101324.36
101324.38
101324.35
101324.33
101324.33
101324.33
101324.37
101324.34
101324.33
101324.38
101324.37
101324.36
101324.38
101324.67
101324.61
101324.59
101324.61
101324.58
101324.59
101324.6
101324.6
101324.64
101324.64
101324.65
101324.73
101324.73
101324.73
101324.76
101324.69
101324.71
101324.75
101324.69
101324.69
101324.69
101324.7
101324.76
101324.73
101324.71
101324.78
101324.76
101324.75
101324.78
101324.71
101324.72
101324.75
101324.69
101324.67
101324.67
101324.67
101324.72
101324.67
101324.66
101324.71
101324.68
101324.69
101324.69
101324.64
101324.65
101324.69
101324.64
101324.61
101324.6
101324.61
101324.66
101324.63
101324.62
101324.68
101324.66
101324.66
101324.88
101324.9
101324.85
101324.75
101324.78
101324.75
101324.76
101324.76
101324.77
101324.8
101324.8
101324.87
101324.95
101324.92
101324.93
101324.96
101324.9
101324.93
101324.95
101324.89
101324.88
101324.88
101324.9
101324.96
101324.94
101324.91
101324.98
101324.95
101324.95
101324.98
101324.91
101324.93
101324.95
101324.89
101324.87
101324.87
101324.88
101324.93
101324.91
101324.88
101324.93
101324.9
101324.9
101324.92
101324.86
101324.87
101324.89
101324.87
101324.85
101324.83
101324.85
101324.89
101324.88
101324.85
101324.91
101324.88
101324.93
101324.93
101324.94
101324.91
101324.92
101324.91
101324.92
101324.92
101324.92
101324.93
101324.93
101324.97
101324.96
101324.97
101324.98
101324.95
101324.96
101324.98
101324.95
101324.96
101324.96
101324.96
101324.98
101324.97
101324.95
101324.99
101324.98
101324.98
101324.99
101324.95
101324.97
101324.98
101324.95
101324.96
101324.95
101324.94
101324.96
101324.94
101324.93
101324.96
101324.95
101324.94
101324.96
101324.91
101324.91
101324.91
101324.92
101324.92
101324.92
101324.91
101324.93
101324.92
101324.91
101324.94
101324.9
101324.89
101324.88
101324.83
101324.8
101324.82
101324.82
101324.82
101324.82
101324.81
101324.84
101324.89
101324.91
101324.91
101324.88
101324.85
101324.84
101324.83
101325.01
101325.11
101325.11
101325
101324.82
101324.83
101324.84
101324.86
101324.89
101324.9
101324.9
101324.9
101324.75
101324.76
101324.82
101324.78
101324.76
101324.8
101324.76
101324.82
101324.79
101324.91
101324.89
101324.76
101324.76
101324.77
101324.86
101324.87
101324.85
101324.85
101324.86
101324.88
101324.87
101324.87
101324.91
101324.9
101324.9
101324.92
101324.77
101324.83
101324.77
101324.76
101324.81
101324.78
101324.78
101324.72
101324.81
101324.67
101324.74
101324.74
101324.91
101325
101324.99
101324.89
101324.74
101324.71
101324.77
101324.7
101324.71
101324.84
101324.87
101324.85
101324.84
101324.86
101324.88
101324.87
101324.87
101324.69
101324.71
101324.78
101324.74
101324.9
101324.74
101324.75
101324.48
101324.5
101324.48
101324.5
101324.54
101324.52
101324.55
101324.25
101323.89
101323.85
101323.89
101324.25
101324.21
101324.1
101324.2
101323.84
101323.82
101323.85
101324.21
101324.18
101323.83
101323.81
101324.15
101324.44
101324.71
101324.69
101324.71
101324.77
101324.63
101324.7
101324.41
101324.32
101324.27
101324.42
101324.41
101324.26
101324.54
101324.59
101324.44
101324.55
101324.65
101324.7
101324.76
101324.48
101324.41
101324.32
101324.47
101324.46
101324.64
101324.97
101324.95
101324.97
101324.97
101324.97
101324.99
101324.66
101324.67
101324.64
101324.64
101324.65
101324.45
101324.44
101324.42
101324.42
101324.72
101324.86
101324.82
101325
101324.56
101324.57
101324.6
101324.63
101324.58
101324.59
101324.61
101324.56
101324.73
101324.75
101324.59
101324.67
101324.66
101324.67
101324.73
101324.75
101324.68
101324.67
101324.66
101324.59
101324.77
101324.77
101324.85
101324.84
101324.9
101324.9
101324.92
101324.89
101324.88
101324.87
101324.88
101324.91
101324.9
101324.88
101324.82
101324.82
101324.74
101324.68
101324.58
101324.62
101324.61
101324.6
101324.66
101324.67
101324.6
101324.61
101324.61
101324.57
101324.67
101324.71
101324.55
101324.6
101324.99
101324.69
101324.53
101324.33
101324.36
101324.36
101324.36
101324.37
101324.35
101324.56
101324.72
101325.02
101324.66
101325.02
101324.84
101324.87
101324.88
101324.85
101325.16
101324.65
101324.63
101325.19
101324.97
101324.36
101324.82
101324.63
101324.98
101324.82
101325.07
101325.04
101325.05
101325.05
101324.81
101324.96
101324.61
101324.79
101324.32
101324.59
101325.35
101325.57
101325.78
101325.89
101325.97
101325.97
101325.9
101325.79
101325.59
101325.38
101324.63
101325
101324.4
101324.86
101325.34
101325.47
101324.69
101324.72
101325.16
101324.86
101324.88
101324.88
101324.85
101325.05
101324.65
101324.66
101325.38
101325.48
101325.01
101325.01
101324.4
101325.1
101324.84
101325.82
101325.61
101325.88
101326.15
101326.31
101326.4
101326.4
101326.3
101326.14
101325.87
101325.58
101324.96
101324.35
101324.79
101325.78
101326.14
101326.54
101326.69
101326.84
101326.84
101326.7
101326.55
101326.16
101326.33
101325.94
101326.02
101325.09
101325.1
101324.42
101325.12
101325.95
101326.02
101326.44
101326.43
101326.85
101326.7
101326.9
101327.04
101327.04
101326.89
101326.69
101326.31
101325.91
101325.05
101324.34
101325.04
101325.98
101326.41
101326.84
101327.04
101327.2
101327.2
101327.05
101327.06
101326.86
101326.73
101326.34
101326.19
101325.84
101324.86
101324.43
101324.88
101325
101325.23
101325.06
101324.65
101324.58
101324.96
101324.9
101324.75
101324.6
101324.4
101324.67
101325.05
101325.65
101325.94
101326.2
101326.59
101326.73
101326.92
101327.06
101327.21
101327.21
101327.05
101326.85
101326.42
101325.98
101325.04
101324.36
101325.07
101325.92
101326.33
101326.72
101326.92
101327.06
101326.87
101326.88
101326.46
101326.36
101325.98
101325.86
101325.66
101325.44
101324.69
101324.91
101324.4
101324.44
101325.06
101324.89
101325.15
101325.13
101326.05
101326.05
101326.46
101326.36
101326.73
101326.57
101326.17
101325.81
101324.81
101324.37
101325
101325.62
101325.92
101326.19
101325.85
101325.97
101325.14
101325.13
101324.43
101324.44
101325.03
101324.89
101325.01
101324.75
101325.06
101324.96
101324.94
101324.04
101324.23
101322.96
101323.3
101322.05
101322.24
101322.28
101322.03
101323.31
101323.03
101324.25
101324.58
101324.92
101324.88
101324.92
101325.01
101325.16
101325.29
101325.4
101325.4
101325.29
101325.15
101325
101324.91
101324.87
101324.9
101324.84
101324.69
101324.91
101324.8
101324.92
101324.93
101324.8
101324.92
101324.71
101324.86
101325.06
101324.28
101323.07
101323.33
101322.09
101322.3
101322.29
101322.11
101323.35
101323.07
101324.29
101324.11
101324.57
101324.24
101325.06
101324.65
101324.35
101325.44
101325
101324.17
101325.48
101324.78
101324.73
101324.46
101324.48
101324.66
101323.03
101324.34
101323.3
101325.15
101324.92
101324.8
101325.28
101325.4
101324.94
101324.93
101325.42
101325.31
101324.82
101324.95
101324.35
101324.87
101324.65
101325.04
101324.87
101324.42
101324.38
101324.57
101324.72
101325.02
101325.18
101323.27
101322.03
101322.22
101322.25
101322.03
101324.16
101325.01
101325.45
101324.47
101325.15
101320.6
101324.26
101322.71
101325.52
101325.42
101325.52
101322.69
101326.69
101324.78
101320.39
101325.11
101325.45
101321.79
101323.7
101326.77
101325.17
101324.8
101324.45
101324.81
101325.13
101324.75
101320.35
101323.7
101324.76
101326.82
101321.75
101325.47
101325.18
101324.89
101325.27
101324.8
101325.54
101325.51
101324.17
101325.06
101325.47
101324.36
101322.98
101324.68
101324.48
101324.48
101324.78
101324.81
101325.48
101325.5
101320.99
101320.38
101323.59
101325.74
101326.5
101325.03
101324.46
101324.49
101324.51
101324.46
101324.11
101324.44
101324.49
101324.74
101325.03
101324.97
101324.48
101325.73
101320.46
101325.25
101325.46
101321.04
101323.59
101326.44
101325.01
101324.88
101324.48
101324.46
101324.51
101325.04
101324.63
101324.6
101324.53
101324.6
101324.96
101324.49
101324.52
101325.04
101324.63
101324.54
101325.07
101325.02
101325.07
101324.54
101324.55
101325.12
101324.52
101324.52
101324.56
101325.14
101325.11
101325.01
101325.1
101323.47
101322.9
101323.88
101322.88
101324.99
101324.6
101324.53
101324.03
101323.33
101323.1
101324.08
101324.29
101325.35
101323.48
101323.18
101323.51
101323.32
101323.94
101325.11
101325.01
101325.47
101325.61
101325.61
101324.17
101325.48
101325
101325.44
101324.36
101324.66
101324.48
101324.47
101324.74
101324.77
101325.46
101321.04
101323.6
101320.46
101325.26
101324.89
101325.02
101326.44
101325.73
101326.78
101321.8
101325.45
101325.12
101320.4
101323.71
101324.78
101324.8
101325.17
101324.51
101324.49
101324.46
101324.51
101324.5
101324.97
101325.04
101324.64
101324.61
101324.75
101325.04
101324.46
101324.12
101324.45
101324.52
101324.48
101324.51
101324.97
101325.03
101325.07
101324.54
101324.53
101324.54
101324.55
101325.12
101325.08
101325.05
101324.64
101324.6
101324.5
101324.47
101324.53
101326.54
101325.77
101326.84
101324.78
101326.7
101322.72
101325.52
101325.16
101324.47
101320.63
101324.28
101322.72
101325.53
101325.43
101324.8
101325.13
101324.73
101320.38
101323.74
101321.77
101325.46
101325.18
101324.89
101325.27
101324.78
101320.4
101323.64
101321.02
101325.5
101325.03
101325.02
101324.47
101324.64
101324.54
101324.55
101324.55
101324.54
101324.64
101324.46
101325.02
101326.47
101320.94
101323.6
101320.39
101325.3
101324.9
101325.8
101326.82
101321.71
101325.47
101325.18
101324.82
101325.17
101320.33
101323.71
101324.83
101324.15
101324.48
101324.51
101324.52
101325.05
101324.98
101324.61
101324.49
101324.5
101324.75
101325.06
101324.49
101324.52
101324.45
101324.81
101325.64
101325.41
101324.63
101325.54
101322.65
101324.28
101326.75
101325.44
101325.55
101324.47
101325.21
101320.57
101322.71
101320.36
101324.81
101323.74
101326.86
101325.18
101325.48
101324.75
101325.16
101321.77
101320.42
101325.81
101324.52
101324.98
101325.04
101325.07
101325.12
101325.08
101324.54
101324.53
101324.61
101324.64
101325.06
101324.55
101324.47
101324.49
101324.89
101325.02
101326.54
101323.64
101321.02
101324.8
101325.29
101325.5
101325.51
101325.02
101324.47
101324.65
101324.55
101325.09
101325.13
101325.08
101325.05
101324.53
101324.61
101325
101325.05
101324.54
101324.52
101324.48
101324.5
101324.75
101324.61
101324.99
101325.06
101324.56
101324.53
101324.49
101324.51
101324.51
101325.07
101324.49
101324.17
101324.46
101324.82
101325.18
101324.9
101325.83
101326.51
101323.64
101320.97
101324.8
101325.48
101325.29
101320.42
101321.73
101326.85
101323.75
101324.87
101320.37
101324.77
101325.47
101325.17
101325.54
101325.44
101324.81
101325.18
101324.89
101325.81
101326.55
101323.65
101321.02
101324.81
101325.29
101320.42
101321.78
101326.87
101323.75
101324.83
101320.37
101324.77
101325.49
101325.16
101325.55
101324.47
101322.73
101326.76
101324.29
101322.67
101324.47
101325.22
101320.6
101324.48
101325.22
101325.06
101325.57
101325.65
101325.63
101325.51
101325.01
101325.13
101325.03
101325.49
101323.53
101323.18
101323.49
101323.51
101323.73
101325.24
101323.67
101324.28
101324.26
101324.42
101324.46
101324.74
101324.71
101324.76
101324.46
101324.5
101324.52
101324.5
101324.51
101324.43
101324.34
101324.29
101324.6
101324.55
101324.36
101324.35
101324.27
101324.27
101324.25
101324.36
101324.26
101324.55
101324.81
101324.81
101324.85
101324.75
101324.63
101324.6
101324.29
101324.28
101324.56
101324.82
101325.13
101325.13
101324.83
101324.87
101324.87
101324.71
101324.71
101324.43
101324.44
101324.47
101324.44
101324.73
101324.87
101324.83
101325.03
101324.84
101324.82
101324.87
101324.87
101324.86
101324.86
101324.84
101325.05
101325.18
101325.17
101325.06
101324.85
101324.87
101324.87
101324.89
101324.94
101324.93
101324.91
101324.87
101324.84
101324.86
101324.87
101324.87
101324.85
101324.83
101324.86
101324.9
101324.91
101324.92
101324.93
101324.91
101324.79
101324.79
101324.82
101324.85
101324.78
101324.59
101324.53
101324.5
101324.49
101324.21
101324.19
101324.15
101324.15
101324.16
101324.18
101323.86
101323.5
101323.09
101323.06
101323.07
101323.11
101323.52
101323.47
101323.51
101323.1
101323.06
101322.96
101323.06
101323.47
101323.44
101323.48
101323.07
101323.05
101323.46
101323.44
101323.03
101322.98
101322.99
101323.03
101322.87
101323.27
101323.37
101323.74
101323.64
101324.01
101324.17
101324.11
101323.76
101323.75
101324.1
101323.93
101323.95
101323.59
101323.56
101323.19
101323.38
101323.39
101323.23
101322.84
101322.81
101322.86
101322.88
101322.83
101322.92
101322.96
101323.37
101323.48
101323.85
101324.19
101324.1
101323.74
101323.65
101323.83
101324.17
101324.01
101323.96
101324.12
101323.78