/*--------------------------------*- C++ -*----------------------------------*\
  =========                 |
  \\      /  F ield         | OpenFOAM: The Open Source CFD Toolbox
   \\    /   O peration     | Website:  https://openfoam.org
    \\  /    A nd           | Version:  7
     \\/     M anipulation  |
\*---------------------------------------------------------------------------*/
FoamFile
{
    version     2.0;
    format      ascii;
    class       volVectorField;
    location    "350";
    object      U;
}
// * * * * * * * * * * * * * * * * * * * * * * * * * * * * * * * * * * * * * //

dimensions      [0 1 -1 0 0 0 0];

internalField   nonuniform List<vector> 
24866
(
(120.00024 -0.00061301138 -0.00074304287)
(120.00037 -0.00038720552 -0.00056124156)
(120.00034 -0.00044914014 -0.00046755324)
(120.00013 -0.00023874579 -0.00024017434)
(120.00003 -6.6701457e-05 -7.0479659e-05)
(120.00003 -6.1670836e-05 -8.4669966e-05)
(120.00002 -4.917389e-05 -9.627417e-05)
(120.00003 -4.9029965e-05 -9.011406e-05)
(120.00003 -2.9802801e-05 -9.7157902e-05)
(120.00003 -2.0730764e-05 -0.00010983362)
(120.00003 -6.8368046e-06 -0.00010854525)
(120.00003 5.5718039e-06 -0.00010850133)
(120.00003 1.9658153e-05 -0.00010970481)
(120.00003 2.9185752e-05 -9.6975542e-05)
(120.00003 4.8812537e-05 -9.0204358e-05)
(120.00002 4.942332e-05 -9.5207703e-05)
(120.00003 6.3454869e-05 -8.3951313e-05)
(120.00003 6.8352584e-05 -6.8205518e-05)
(120.00003 7.3906271e-05 -6.6575428e-05)
(120.00003 9.2074203e-05 -5.7250057e-05)
(120.00003 0.00011099621 -5.4380467e-05)
(120.00004 0.00012437511 -4.0829737e-05)
(120.00003 0.00011133671 -2.7016975e-05)
(120.00005 9.7950006e-05 -4.3024306e-05)
(120.00003 0.00012411737 -1.2472293e-05)
(120.00003 0.00013404401 1.4456677e-06)
(120.00003 0.00011587548 1.6054762e-05)
(120.00005 9.0516526e-05 4.5943505e-05)
(120.00005 0.00010552002 2.8124925e-05)
(120.00003 0.00010698678 5.5221019e-05)
(120.00003 8.5936208e-05 5.577136e-05)
(120.00003 7.1269549e-05 6.6900381e-05)
(120.00003 6.8526045e-05 7.0002052e-05)
(120.00003 5.7494508e-05 8.4725981e-05)
(120.00003 5.7031224e-05 0.00010555629)
(120.00005 2.9578129e-05 0.00010429668)
(120.00005 4.761407e-05 8.979161e-05)
(120.00003 1.7830527e-05 0.00011491551)
(120.00003 3.1909142e-06 0.00013329947)
(120.00003 -1.056129e-05 0.00012345328)
(120.00005 -4.1567062e-05 9.7513085e-05)
(120.00003 -2.6171384e-05 0.00011093447)
(120.00004 -3.9999093e-05 0.00012380473)
(120.00003 -5.3663826e-05 0.00011041606)
(120.00003 -5.674069e-05 9.1376717e-05)
(120.00003 -6.628525e-05 7.3387245e-05)
(120.00003 -6.7836225e-05 6.7546989e-05)
(120.00003 -8.3784606e-05 6.2697581e-05)
(120.00002 -9.4915173e-05 4.8478155e-05)
(120.00003 -9.0167671e-05 4.8009992e-05)
(120.00003 -9.6514355e-05 2.8204317e-05)
(120.00003 -0.00010940946 1.8510019e-05)
(120.00003 -0.00010815694 4.4916331e-06)
(120.00003 -0.00010801425 -8.0436159e-06)
(120.00003 -0.00010892418 -2.2076699e-05)
(120.00003 -9.6579125e-05 -3.1239385e-05)
(120.00003 -8.9293941e-05 -5.0435136e-05)
(120.00002 -9.5256472e-05 -5.0683557e-05)
(120.00003 -8.3350126e-05 -6.3017124e-05)
(120.00003 -6.9510424e-05 -6.8318729e-05)
(120.00003 -0.00012402554 -9.7636761e-05)
(120.00001 -0.0001254532 -0.00012673897)
(120.00003 -9.6410852e-05 -0.00012532595)
(120.00003 -0.00010010699 -0.00011931352)
(120.00002 -0.00010366341 -0.00016052404)
(120.00002 -7.6477326e-05 -0.00017816465)
(120.00002 -6.5148959e-05 -0.00016203068)
(120.00002 -5.5436952e-05 -0.00014635142)
(120.00001 -4.1642649e-05 -0.00018479626)
(120.00001 -1.4804686e-05 -0.00019562565)
(120.00001 1.3479858e-05 -0.00019560748)
(120.00001 4.0614892e-05 -0.00018472799)
(120.00002 5.4885045e-05 -0.0001462012)
(120.00002 6.4917977e-05 -0.0001619343)
(120.00002 7.6298189e-05 -0.00017784057)
(120.00001 0.00010453461 -0.00015976804)
(120.00003 0.00010185354 -0.0001186123)
(120.00003 9.7905427e-05 -0.00012341935)
(120.00001 0.00012842416 -0.00012489575)
(120.00003 0.00012862187 -9.8122764e-05)
(120.00004 0.00012689833 -0.00010245181)
(120.00001 0.00017726435 -0.00010898329)
(120.00002 0.00020745014 -8.9692341e-05)
(120.00002 0.00021422804 -6.6388239e-05)
(120.00002 0.00021213815 -1.3963766e-05)
(120.00001 0.00019221133 -2.8330378e-05)
(120.00002 0.0001911846 -1.3710444e-05)
(120 0.00019828529 9.6044935e-06)
(120.00002 0.00017589945 3.1736461e-05)
(120.00001 0.000176879 4.8679353e-05)
(120.00002 0.00019556459 4.4365456e-05)
(120.00001 0.0002229019 1.5104024e-05)
(120.00001 0.00025616959 2.36807e-05)
(120.00001 0.00025607527 -3.2358714e-05)
(120.00001 0.00023931132 -8.5941526e-05)
(120.00001 0.0002152296 -0.00012378132)
(120.00001 0.00017227365 -0.00013398478)
(120.00001 0.00017868092 -0.00017722709)
(120.00001 0.00013511083 -0.00016770814)
(120.00001 0.00011973554 -0.00021431958)
(120.00001 0.00015382128 -0.00021588613)
(120 0.00018857168 -0.0001899722)
(120.00001 0.00021733423 -0.00015561496)
(120.00001 0.0002459947 -0.00010897541)
(120.00001 0.00026190971 -4.1734677e-05)
(120 0.00026151388 3.3343067e-05)
(120.00001 0.0002444613 0.00010237888)
(120.00001 0.00024028221 7.6735081e-05)
(120.00001 0.00020979238 0.00011799868)
(120.00002 0.00018685492 8.0207232e-05)
(120.00001 0.00017012775 0.000105184)
(120.00003 0.00011965712 9.774658e-05)
(120.00003 0.00012479834 9.6387994e-05)
(120.00001 0.00012540239 0.00012392662)
(120.00001 0.00016889037 0.00013135783)
(120.00001 0.00017705874 0.00017540975)
(120.00001 0.00021509718 0.00015094153)
(120 0.00018759565 0.00018583671)
(120 0.00021487453 0.00012634251)
(119.99999 0.00023034124 4.2396908e-05)
(119.99999 0.0002307858 -5.033666e-05)
(120 0.00021537803 -0.000132418)
(119.99998 0.00014822438 -0.0001512578)
(120 0.00012933848 -0.00021694303)
(120.00001 0.0001058821 -0.00024725698)
(120.00001 8.0686895e-05 -0.00024639801)
(120.00001 5.743719e-05 -0.00021387971)
(120.00002 2.2315796e-05 -0.00023383166)
(120.00001 2.856066e-05 -0.00026471419)
(120 3.7170648e-05 -0.0002646787)
(119.99999 4.5731766e-05 -0.00023247908)
(119.99997 5.2484352e-05 -0.00016221415)
(119.99996 5.636611e-05 -6.0917631e-05)
(119.99997 0.00015910234 -5.6966529e-05)
(119.99997 0.00015873818 4.9718059e-05)
(119.99998 0.00014746427 0.00014562569)
(120 0.00012813499 0.00021308638)
(120.00001 0.00010411488 0.00024279199)
(120.00001 0.00015266869 0.00021343206)
(120.00001 0.00011967378 0.00020827496)
(120.00001 0.00013302056 0.00016730698)
(120.00002 0.0001069696 0.00016878622)
(120.00003 9.9404553e-05 0.0001184349)
(120.00003 9.7654052e-05 0.00012330504)
(120.00003 0.00018721129 0.0002542745)
(120.00003 0.00020966632 0.00023873976)
(120.00006 0.00029554384 0.0003576183)
(120.00014 0.00019093324 0.00028876826)
(120.00012 0.0002398897 0.00023695002)
(120.00012 0.00024107265 0.0002352863)
(120.00014 0.00029236747 0.00018559798)
(120.00012 0.0003280733 0.0001477308)
(120.00012 0.00038592886 0.00016135836)
(120.00004 0.00022742723 6.9824647e-05)
(120.00005 0.00019407 8.9229066e-05)
(120.00012 0.00039750588 0.00011937416)
(120.00012 0.00038827979 7.320215e-05)
(120.00012 0.00039849167 7.0762569e-06)
(120.00013 0.00041416543 -5.6872034e-05)
(120.00011 0.00043692596 -0.00011814463)
(120.00015 0.0005251059 -0.00013133036)
(120.00014 0.00044376026 -0.00019428519)
(120.00013 0.00034314574 -0.0001461973)
(120.00015 0.00030590408 -0.00019077475)
(120.00013 0.0002502321 -0.00023701354)
(120.00013 0.00024563076 -0.00023421028)
(120.00014 0.00020754225 -0.00028223324)
(120.00012 0.00015856435 -0.00029478839)
(120.00013 0.00016995232 -0.0003152657)
(120.00013 9.1934473e-05 -0.00034436395)
(120.00013 6.7310422e-05 -0.00035555641)
(120.00014 1.9491252e-05 -0.00037393396)
(120.00014 -2.3283895e-05 -0.00037405009)
(120.00013 -7.0354887e-05 -0.00035569932)
(120.00014 -9.3868541e-05 -0.00034497164)
(120.00014 -0.00017079208 -0.00031564453)
(120.00012 -0.00015733124 -0.00029648149)
(120.00014 -0.00020291004 -0.00028520885)
(120.00007 -0.00030015377 -0.00035873354)
(120.00007 -0.00027490821 -0.00033956781)
(120.00003 -0.00018632403 -0.00025975716)
(120.00003 -0.00021120917 -0.00024133064)
(120.00006 -0.00036123279 -0.00038720023)
(120.00013 -0.00035438799 -0.00042650505)
(120.00007 -0.00029941531 -0.00039555637)
(120.00005 -0.00036276132 -0.00036639463)
(120.00001 -0.00052192783 -0.00042761104)
(120.00001 -0.00016738193 -0.00013528209)
(120.00001 -0.00017599649 -0.00017753139)
(120.00001 -0.00013376398 -0.00016877385)
(120.00001 -0.00011967513 -0.00021481907)
(120.00001 -8.1377152e-05 -0.00024659804)
(120.00001 -5.828992e-05 -0.00021399837)
(120.00002 -2.3588636e-05 -0.00023383558)
(120.00001 -2.9758667e-05 -0.00026475444)
(120 -3.8337621e-05 -0.00026469194)
(119.99999 -4.7045811e-05 -0.00023240689)
(119.99997 -5.4196294e-05 -0.00016203086)
(119.99996 -5.8661402e-05 -6.0641652e-05)
(119.99996 -5.9051741e-05 5.4355129e-05)
(119.99996 5.5990611e-05 5.4070136e-05)
(119.99997 5.1542836e-05 0.0001568331)
(119.99999 4.415277e-05 0.00022852187)
(120 3.5035821e-05 0.0002598476)
(120.00001 2.5288427e-05 0.00025470509)
(120.00001 7.8425977e-05 0.00023879757)
(120.00002 4.603808e-05 0.00019421454)
(120.00002 8.1897983e-05 0.00018556563)
(120.00005 0.0002283645 0.00053705842)
(120.00011 0.00018294902 0.00051969268)
(120.00005 0.00010183585 0.00033424074)
(120.00004 7.3070304e-05 0.00022513945)
(120.00012 0.00016668105 0.00038238185)
(120.00012 0.00015269827 0.00032415804)
(120.00029 0.00031821421 0.00064280104)
(120.00035 0.000377869 0.00056579193)
(120.00032 0.00045225719 0.00046192539)
(120.00032 0.0004691037 0.00044371318)
(120.00035 0.00057282222 0.00036883445)
(120.00029 0.00064977683 0.00030953496)
(120.0003 0.00066872933 0.00030272861)
(120.00031 0.0007265221 0.0002005654)
(120.0003 0.00073071401 0.00013389237)
(120.0003 0.00076559011 2.1445222e-05)
(120.0003 0.00076825717 -9.0002512e-05)
(120.00028 0.00078489125 -0.00019420974)
(120.00032 0.00084448042 -0.00023590012)
(120.00032 0.00073800133 -0.00034841461)
(120.00031 0.00067894655 -0.00031729699)
(120.00036 0.00059260225 -0.0003727928)
(120.00033 0.00048134456 -0.00044650377)
(120.00034 0.00046086048 -0.00046137426)
(120.00036 0.00039428434 -0.00055719097)
(120.00032 0.00032672729 -0.00061364915)
(120.00035 0.00030715456 -0.00061063412)
(120.00035 0.00018552133 -0.00067848618)
(120.00034 0.00013450198 -0.0007188848)
(120.00035 3.6148669e-05 -0.00075969119)
(120.00035 -4.2685585e-05 -0.00075967933)
(120.00034 -0.00014012717 -0.00071889496)
(120.00036 -0.0001893488 -0.00067883278)
(120.00035 -0.00030865122 -0.00061137716)
(120.00032 -0.00032520189 -0.00061567592)
(120.00065 -0.00059251923 -0.0011023556)
(120.00072 -0.00070523653 -0.001030437)
(120.00069 -0.00082877019 -0.0008596827)
(120.00069 -0.00085010602 -0.00084023284)
(120.00072 -0.0010204888 -0.0007166997)
(120.00037 -0.00055497913 -0.00039495604)
(120.00014 -0.00028185994 -0.00020743996)
(120.00012 -0.00029298698 -0.00016146841)
(120.00013 -0.00031294392 -0.00017495036)
(120.00014 -0.0003429834 -9.828602e-05)
(120.00013 -0.00035339305 -7.4457162e-05)
(120.00014 -0.00037233224 -2.7174937e-05)
(120.00013 -0.00037257092 1.5882328e-05)
(120.00013 -0.00035430881 6.3798309e-05)
(120.00013 -0.00034314794 8.8784868e-05)
(120.00013 -0.00031432159 0.00016684524)
(120.00011 -0.00029392633 0.00015579365)
(120.00014 -0.00028112776 0.00020491053)
(120.00013 -0.00023307962 0.00024312561)
(120.00013 -0.00023560786 0.00024821765)
(120.00014 -0.0001890985 0.00030371144)
(120.00012 -0.00014432216 0.00034124663)
(120.00014 -0.00019107066 0.00044134766)
(120.00006 -7.7519834e-05 0.00026006762)
(120.00002 -6.3661486e-05 0.00026695917)
(120.00004 -7.2276915e-05 0.00022763318)
(120.00011 -0.00011427223 0.0004344517)
(120.00012 -5.2795021e-05 0.00041121357)
(120.00011 1.1925681e-05 0.00039607876)
(120.00012 7.8214451e-05 0.00038595905)
(120.00012 0.00012461297 0.00039462303)
(120.00005 9.2567659e-05 0.00019236203)
(120.00004 0.0001058289 0.0003045817)
(120.00009 0.00015102712 0.00048221226)
(120.00011 0.00020781204 0.00049827047)
(120.00015 0.00019814806 0.00058882197)
(120.0001 0.00014022231 0.00052393092)
(120.0001 0.00010818583 0.00055670675)
(120.00009 8.7763815e-05 0.00061457747)
(120.00003 4.9091541e-05 0.00041988519)
(120.00001 5.0413142e-05 0.00017559548)
(120.00002 3.3848073e-05 0.00017458893)
(120 1.1221509e-05 0.00019721129)
(120.00001 1.6681343e-05 0.00022164417)
(120.00002 -1.2641641e-05 0.00021112796)
(120.00001 -3.0870903e-05 0.00025466653)
(120.00001 -4.0149014e-05 0.00026027385)
(119.99999 -4.8673971e-05 0.00022895107)
(119.99997 -5.5216509e-05 0.00015714174)
(119.99998 -0.00014962942 0.00014625081)
(119.99997 -0.00016046845 5.0435807e-05)
(119.99997 -0.00016016455 -5.6236436e-05)
(119.99998 -0.00014888311 -0.00015082179)
(119.99999 -0.00012974814 -0.00021681783)
(120.00001 -0.00010637401 -0.0002473799)
(120.00001 -0.00015332314 -0.00021625104)
(120 -0.00018801304 -0.00018977608)
(119.99999 -0.000215051 -0.00013167889)
(119.99999 -0.00023071624 -4.9056023e-05)
(119.99999 -0.00023090726 4.3730603e-05)
(119.99999 -0.00021548448 0.00012743315)
(120 -0.00018861852 0.00018682994)
(120 -0.00013089535 0.00021355848)
(120.00001 -0.00010752784 0.00024438449)
(120.00001 -8.4570909e-05 0.00023796511)
(120.00002 -6.5063618e-05 0.00021311032)
(120.00002 -8.8538829e-05 0.00020628286)
(120.00001 -0.00012258653 0.00021392966)
(120.00001 -0.00015434319 0.00021579299)
(120.00001 -0.00017615971 0.00017725723)
(120.00001 -0.00021472883 0.00015221228)
(120.00001 -0.00024598108 0.00010413478)
(120 -0.00026330201 3.5322983e-05)
(120 -0.00026320429 -4.0208441e-05)
(120.00001 -0.00024582453 -0.00010817925)
(120.00001 -0.0002146768 -0.00015502313)
(120.00001 -0.00021347488 -0.00012127355)
(120.00001 -0.0002452635 -8.3023499e-05)
(120.00001 -0.00026346093 -3.1414585e-05)
(120.00001 -0.00026351775 2.6939974e-05)
(120.00001 -0.00024530424 7.9155385e-05)
(120.00001 -0.00021334333 0.00011829583)
(120.00001 -0.00016688201 0.00013384542)
(120.00001 -0.00012419676 0.00012742171)
(120.00001 -0.00013305624 0.00017110691)
(120.00001 -0.00010802629 0.00017617578)
(120.00004 -0.0001017266 0.0001259775)
(120.00003 -9.7535952e-05 0.00012773177)
(120.00003 -0.00018561438 0.00026156591)
(120.00006 -0.00027258743 0.00034254353)
(120.00007 -0.00030051621 0.00037664826)
(120.00003 -0.00021316179 0.00025165819)
(120.00006 -0.00036356988 0.00040613262)
(120.00007 -0.00029868328 0.00039561381)
(120.00012 -0.00035564463 0.0004381957)
(120.00023 -0.00061000647 0.00075844444)
(120.00035 -0.00036980673 0.000588707)
(120.00031 -0.00031366288 0.00067520682)
(120.00031 -0.00034315539 0.00073408231)
(120.00032 -0.00023036108 0.00084055906)
(120.00015 -0.0001278168 0.00052241591)
(120.00008 -0.00022192749 0.00063595898)
(120.00014 -0.00016784462 0.00056898121)
(120.00013 -0.00013497436 0.00058443939)
(120.00005 -7.5998581e-05 0.00041553931)
(120.00003 -7.4772048e-05 0.00038090462)
(120.0001 -9.0033707e-05 0.00059161393)
(120.00015 -0.00014804984 0.00065445365)
(120.00008 -0.00011629293 0.0005448952)
(120.00019 -0.00024201782 0.0010757836)
(120.00028 -0.00018775625 0.00078083879)
(120.0003 -8.2814579e-05 0.00076409368)
(120.0003 2.9603118e-05 0.00076156427)
(120.0003 0.00014236649 0.00072609898)
(120.00031 0.00020919362 0.00072080676)
(120.0003 0.00031181316 0.00066296711)
(120.0006 0.00055300007 0.0011254542)
(120.00059 0.00058556891 0.0011233524)
(120.00067 0.00070010756 0.0010306224)
(120.00065 0.00083207479 0.00084826898)
(120.00065 0.00085936101 0.00081880544)
(120.00067 0.0010420751 0.00068670843)
(120.0006 0.0011340425 0.00057242251)
(120.0006 0.0011341365 0.00053927647)
(120.00063 0.0012789722 0.00034104525)
(120.00061 0.0012908035 0.00023034477)
(120.0006 0.0013376227 4.9772253e-05)
(120.00059 0.0013398566 -0.00012469745)
(120.00058 0.0013372299 -0.00030496434)
(120.00062 0.0013633002 -0.00039264461)
(120.0006 0.0011856381 -0.0005815592)
(120.0006 0.0011594453 -0.00059290348)
(120.00069 0.0010622152 -0.00070108633)
(120.00067 0.00087215529 -0.00082897787)
(120.00067 0.00084230965 -0.00085446055)
(120.0007 0.00071250909 -0.0010257465)
(120.00064 0.00059244148 -0.0011002902)
(120.00066 0.00055237174 -0.0010862519)
(120.00069 0.00033828796 -0.0012319446)
(120.00065 0.0002400856 -0.0012667401)
(120.00064 7.0304729e-05 -0.0013101091)
(120.00064 -8.1006044e-05 -0.0013106251)
(120.00065 -0.00024948915 -0.0012672353)
(120.00069 -0.00034513118 -0.0012318292)
(120.00067 -0.00055625044 -0.0010870751)
(120.00108 -0.00089930818 -0.0017560302)
(120.00106 -0.00096701032 -0.0017646182)
(120.00116 -0.0011595537 -0.0016758725)
(120.00112 -0.0013566238 -0.0014094556)
(120.00112 -0.0013960711 -0.0013723318)
(120.00116 -0.0016618927 -0.0011751941)
(120.00105 -0.0017519215 -0.00098251179)
(120.00065 -0.0010931646 -0.00060378001)
(120.00032 -0.00060961964 -0.00033263948)
(120.00035 -0.00060672973 -0.00031631121)
(120.00036 -0.00067456707 -0.00019689325)
(120.00034 -0.00071510956 -0.00014746291)
(120.00034 -0.00075644476 -4.9899159e-05)
(120.00034 -0.00075658835 2.9327932e-05)
(120.00034 -0.00071611145 0.00012817354)
(120.00035 -0.00067613147 0.00017979037)
(120.00034 -0.00060866903 0.00030145566)
(120.00032 -0.00061184716 0.00032173733)
(120.00036 -0.00055518632 0.00038956648)
(120.00033 -0.00045925084 0.00045646563)
(120.00033 -0.00044404141 0.00047761027)
(120.00066 -0.00082451722 0.00086572473)
(120.00068 -0.0006959932 0.0010555852)
(120.00059 -0.00058682468 0.0011531923)
(120.0006 -0.00057362603 0.0011795766)
(120.00062 -0.00038416545 0.0013570219)
(120.00058 -0.00029505273 0.0013306299)
(120.00059 -0.0001136601 0.0013331379)
(120.00059 6.1851711e-05 0.0013307939)
(120.0006 0.00024304225 0.0012833227)
(120.00063 0.00035429793 0.0012698777)
(120.00103 0.00056822124 0.0020232701)
(120.001 0.0008894802 0.0017815837)
(120.00098 0.00095924479 0.0017773373)
(120.00109 0.0011553457 0.00166985)
(120.00106 0.0013593509 0.0013903769)
(120.00106 0.0014061296 0.0013408241)
(120.00109 0.0016863273 0.0011369068)
(120.00098 0.0017923682 0.00094105455)
(120.001 0.0017940009 0.00087045045)
(120.00104 0.0020364448 0.00054979224)
(120.00098 0.002054177 0.00037678963)
(120.00097 0.0021132246 9.2956698e-05)
(120.00096 0.002115839 -0.00017548815)
(120.00096 0.0020889062 -0.00045983358)
(120.00102 0.0020947981 -0.00061368014)
(120.001 0.00183053 -0.00092200353)
(120.00099 0.00181137 -0.00097910025)
(120.00112 0.0017012341 -0.0011658031)
(120.00109 0.0014161273 -0.0013632788)
(120.0011 0.0013683815 -0.0014060522)
(120.00114 0.0011641822 -0.0016722204)
(120.00104 0.00096322616 -0.0017633821)
(120.00107 0.0008910778 -0.0017557732)
(120.00111 0.00056096486 -0.0019972078)
(120.00105 0.00039615003 -0.0020260145)
(120.00103 0.00011979771 -0.0020806555)
(120.00103 -0.00013613329 -0.0020808245)
(120.00105 -0.00041074177 -0.00202601)
(120.00111 -0.00057256605 -0.0019961537)
(120.00169 -0.00089124915 -0.0030360616)
(120.00165 -0.0013648549 -0.0026770774)
(120.00161 -0.0014822121 -0.0026678523)
(120.00176 -0.0017837781 -0.0025477454)
(120.00171 -0.0020734256 -0.0021625273)
(120.00171 -0.0021448247 -0.0020938085)
(120.00176 -0.0025293443 -0.0018041124)
(120.00161 -0.0026511622 -0.0015024803)
(120.00165 -0.0026628694 -0.0013861673)
(120.00168 -0.0030216378 -0.0009126677)
(120.00111 -0.0019854644 -0.00058880621)
(120.00069 -0.0012245717 -0.00035677206)
(120.00065 -0.0012606808 -0.00026064949)
(120.00064 -0.0013047152 -9.1786346e-05)
(120.00064 -0.0013055364 5.9993513e-05)
(120.00064 -0.0012625795 0.0002301963)
(120.00068 -0.0012279329 0.00032902193)
(120.00065 -0.0010827432 0.00054309638)
(120.00063 -0.0010968438 0.00058430655)
(120.0007 -0.0010220699 0.00070477144)
(120.00067 -0.00085057525 0.00083488029)
(120.00109 -0.0013999023 0.0013572062)
(120.00108 -0.0013562768 0.0014063061)
(120.0011 -0.0011580497 0.0016912062)
(120.00098 -0.00097007797 0.0018020114)
(120.00099 -0.00091078499 0.0018216239)
(120.00101 -0.00060174401 0.0020854621)
(120.00095 -0.00044599354 0.0020791871)
(120.00095 -0.00016015485 0.0021059204)
(120.00096 0.00010960668 0.0021030173)
(120.00097 0.00039433524 0.0020431587)
(120.00149 0.00061069729 0.0030751564)
(120.00157 0.00087586246 0.0030484443)
(120.00154 0.0013500335 0.0026881065)
(120.0015 0.0014728789 0.0026681754)
(120.00167 0.0017792279 0.0025320676)
(120.00162 0.0020756049 0.00213361)
(120.00162 0.00215491 0.0020509944)
(120.00167 0.0025543214 0.0017548342)
(120.00151 0.0026883651 0.001448796)
(120.00155 0.0027050949 0.0013248832)
(120.00158 0.0030664137 0.00085148813)
(120.0015 0.0030904128 0.00058755357)
(120.00147 0.003167374 0.0001554918)
(120.00146 0.0031700507 -0.00025027383)
(120.00149 0.0031155069 -0.00068165948)
(120.00158 0.00310454 -0.00093039607)
(120.00156 0.0027291043 -0.0013927217)
(120.00153 0.0026999166 -0.001504837)
(120.0017 0.0025624231 -0.0018000122)
(120.00167 0.0021599463 -0.0020887346)
(120.00168 0.0020800901 -0.0021616165)
(120.00173 0.0017830702 -0.0025466044)
(120.00159 0.0014726068 -0.0026684879)
(120.00164 0.0013501268 -0.0026782446)
(120.00168 0.00087270845 -0.0030386604)
(120.00159 0.00061407813 -0.0030674253)
(120.00156 0.0001875286 -0.0031413201)
(120.00156 -0.00021138208 -0.0031411818)
(120.0016 -0.00063598719 -0.0030667205)
(120.00236 -0.00094442607 -0.0044765117)
(120.00249 -0.0013262161 -0.0044364147)
(120.00245 -0.0019925615 -0.0039232836)
(120.00239 -0.0021787312 -0.0038836482)
(120.0026 -0.0026227233 -0.0037137196)
(120.00254 -0.0030336054 -0.0031743706)
(120.00254 -0.0031518892 -0.0030591531)
(120.0026 -0.0036904195 -0.0026482563)
(120.00239 -0.0038624279 -0.0022042681)
(120.00244 -0.0039048999 -0.0020195426)
(120.00248 -0.004417622 -0.0013534668)
(120.00235 -0.0044604465 -0.00097138654)
(120.00159 -0.0030544959 -0.00065700614)
(120.00105 -0.0020168826 -0.00042651879)
(120.00102 -0.0020725337 -0.00015136735)
(120.00102 -0.0020733447 0.00010508282)
(120.00104 -0.0020192544 0.00038171817)
(120.0011 -0.0019910191 0.00054740088)
(120.00106 -0.0017503981 0.00087751371)
(120.00103 -0.0017578615 0.00095123849)
(120.00113 -0.0016663714 0.0011526323)
(120.00172 -0.002538067 0.0017668806)
(120.00166 -0.0021526806 0.0020643783)
(120.00165 -0.0020786965 0.0021459667)
(120.00168 -0.001789068 0.0025482555)
(120.00151 -0.0014923571 0.0026867216)
(120.00154 -0.0013776018 0.0027165764)
(120.00156 -0.00091436466 0.0030913743)
(120.00147 -0.00066326055 0.0031019211)
(120.00145 -0.00023000739 0.0031561804)
(120.00146 0.00017745908 0.0031530905)
(120.00217 0.00027174951 0.004577883)
(120.00222 0.00090989736 0.0044711044)
(120.00235 0.0013015445 0.0044322659)
(120.00231 0.0019726275 0.0039191535)
(120.00225 0.0021668291 0.0038694366)
(120.00247 0.002617271 0.0036853871)
(120.00241 0.0030352129 0.0031335582)
(120.00241 0.0031613624 0.0030034977)
(120.00248 0.0037143621 0.0025858662)
(120.00226 0.0038957357 0.0021358736)
(120.00232 0.0039416082 0.0019403909)
(120.00236 0.0044559287 0.0012702883)
(120.00223 0.00449145 0.00088029632)
(120.00219 0.0045970953 0.00024365197)
(120.00219 0.004599333 -0.00035609677)
(120.00223 0.0045084928 -0.00099078606)
(120.00237 0.0044780959 -0.0013682793)
(120.00234 0.0039548782 -0.0020280938)
(120.00229 0.0038991298 -0.0022110649)
(120.00252 0.0037144315 -0.0026494253)
(120.00248 0.0031600109 -0.0030592116)
(120.00249 0.0030326804 -0.0031766671)
(120.00256 0.002614426 -0.0037163333)
(120.00236 0.0021612552 -0.0038872243)
(120.00243 0.0019691066 -0.0039267492)
(120.00247 0.0012983528 -0.0044411242)
(120.00235 0.00091279354 -0.0044781794)
(120.0023 0.00028076376 -0.0045818755)
(120.00231 -0.00031457476 -0.0045813687)
(120.00333 -0.00045317906 -0.0064798658)
(120.0034 -0.0013555515 -0.0063298061)
(120.00358 -0.0019023855 -0.0062732734)
(120.00353 -0.0028130771 -0.0055621073)
(120.00345 -0.0030920252 -0.0054702107)
(120.00373 -0.0037190878 -0.005232149)
(120.00365 -0.0042838756 -0.0044959316)
(120.00365 -0.0044681914 -0.0043151157)
(120.00373 -0.0052033914 -0.0037503276)
(120.00345 -0.0054438778 -0.0031233299)
(120.00353 -0.0055389913 -0.002846341)
(120.00357 -0.0062493132 -0.001936097)
(120.00339 -0.0063090229 -0.0013891053)
(120.00331 -0.0064603218 -0.00048710248)
(120.00229 -0.0045664057 -0.00034155258)
(120.00155 -0.0031299008 -0.0002321186)
(120.00155 -0.0031308843 0.00016732004)
(120.00158 -0.0030575605 0.00059423377)
(120.00166 -0.0030296614 0.00085389996)
(120.00162 -0.002670294 0.0013314405)
(120.00157 -0.0026603885 0.0014559129)
(120.00233 -0.0038759813 0.0021388559)
(120.00253 -0.0037045713 0.0025926103)
(120.00246 -0.0031643854 0.003011428)
(120.00245 -0.0030456049 0.0031409531)
(120.00249 -0.0026347331 0.0036951827)
(120.00226 -0.0021945675 0.0038811759)
(120.00231 -0.0020084137 0.0039378212)
(120.00234 -0.0013474659 0.004460185)
(120.00221 -0.00096708842 0.0044901333)
(120.00216 -0.00033013614 0.0045806197)
(120.00315 -0.00046667243 0.0064615926)
(120.00316 0.00039923786 0.0064596566)
(120.00323 0.0013104259 0.0063090122)
(120.0034 0.0018686284 0.0062526311)
(120.00336 0.0027872775 0.0055429184)
(120.00328 0.0030765826 0.0054410142)
(120.00357 0.0037121331 0.0051895997)
(120.00349 0.0042848505 0.0044415793)
(120.00349 0.0044769981 0.0042447733)
(120.00357 0.0052264566 0.0036724714)
(120.00329 0.0054745312 0.0030375892)
(120.00337 0.0055718474 0.0027467711)
(120.00343 0.0062830636 0.0018293644)
(120.00325 0.0063354558 0.0012733457)
(120.00319 0.0064848252 0.00036405608)
(120.00318 0.0064862348 -0.00049922941)
(120.00326 0.0063455216 -0.0014054283)
(120.00344 0.0062920857 -0.0019504399)
(120.00341 0.0055751875 -0.0028577241)
(120.00334 0.0054689444 -0.0031344737)
(120.00364 0.0052171564 -0.0037570747)
(120.00357 0.0044679144 -0.0043211569)
(120.00359 0.0042734867 -0.0045024978)
(120.00368 0.0037013004 -0.0052398193)
(120.00341 0.0030646773 -0.00547787)
(120.0035 0.0027786161 -0.0055688168)
(120.00356 0.0018626577 -0.006280784)
(120.00339 0.0013114984 -0.0063327826)
(120.00332 0.00040660997 -0.0064808293)
(120.00466 0.00057078698 -0.0088963115)
(120.00467 -0.00063326976 -0.0088947686)
(120.00477 -0.0018846412 -0.0086792284)
(120.005 -0.0026397605 -0.0085980881)
(120.00494 -0.0038405291 -0.0076427676)
(120.00484 -0.0042445655 -0.0074605344)
(120.00518 -0.0051001216 -0.0071360495)
(120.00508 -0.0058490464 -0.006161198)
(120.00508 -0.0061276806 -0.0058865161)
(120.00517 -0.0071011948 -0.0051376055)
(120.00484 -0.0074284035 -0.0042821468)
(120.00493 -0.0076142451 -0.0038806796)
(120.00498 -0.0085680351 -0.002680599)
(120.00475 -0.0086527148 -0.0019255)
(120.00465 -0.0088695476 -0.00067499832)
(120.00464 -0.0088718185 0.00052867107)
(120.0033 -0.0064620342 0.00037279581)
(120.00229 -0.0045676864 0.00025418878)
(120.00233 -0.0044645968 0.00088660372)
(120.00245 -0.0044287208 0.0012733248)
(120.0024 -0.003915551 0.0019441854)
(120.00347 -0.0055536121 0.0027461079)
(120.00338 -0.0054628294 0.0030353616)
(120.00364 -0.0052242375 0.0036726358)
(120.00355 -0.0044862831 0.004245442)
(120.00354 -0.0043034029 0.0044426442)
(120.0036 -0.0037380266 0.0051916463)
(120.0033 -0.0031133214 0.0054450871)
(120.00337 -0.0028327446 0.0055525246)
(120.0034 -0.0019240768 0.0062683128)
(120.00322 -0.0013755703 0.0063212936)
(120.00456 -0.0019034979 0.008649037)
(120.00446 -0.00064515931 0.0088585099)
(120.00446 0.00056577881 0.0088577586)
(120.00456 0.0018274171 0.008643049)
(120.00478 0.0025964524 0.0085617519)
(120.00473 0.003808411 0.0076089751)
(120.00463 0.0042251872 0.0074166417)
(120.00497 0.005091607 0.0070787457)
(120.00488 0.0058498853 0.006092194)
(120.00489 0.0061365509 0.0057999712)
(120.00498 0.0071249162 0.0050421924)
(120.00465 0.007458713 0.0041767197)
(120.00475 0.0076455492 0.0037581472)
(120.00481 0.0086002216 0.0025477609)
(120.00459 0.0086767389 0.0017815748)
(120.0045 0.0088900789 0.00052234372)
(120.00451 0.0088903495 -0.00068539548)
(120.0046 0.0086804258 -0.0019405079)
(120.00484 0.0085976149 -0.0026962638)
(120.00479 0.0076393342 -0.0038961654)
(120.00471 0.0074431489 -0.0042984441)
(120.00506 0.0071047501 -0.0051506805)
(120.00499 0.0061181952 -0.005899583)
(120.005 0.0058279715 -0.0061735039)
(120.00511 0.0050712822 -0.007150271)
(120.00479 0.004205363 -0.0074737101)
(120.0049 0.0037927266 -0.0076538711)
(120.00497 0.0025854698 -0.0086093572)
(120.00475 0.0018251841 -0.0086840723)
(120.00645 0.0024464125 -0.011491692)
(120.00634 0.00077182398 -0.011787072)
(120.00635 -0.00085349218 -0.011784675)
(120.00647 -0.0025243068 -0.011484094)
(120.00671 -0.0035320136 -0.011376072)
(120.00665 -0.0050400384 -0.010145853)
(120.00655 -0.0056154821 -0.0098114259)
(120.00689 -0.0067449506 -0.0093882761)
(120.0068 -0.0076945884 -0.0081506357)
(120.00679 -0.008110687 -0.0077389922)
(120.00689 -0.0093466052 -0.0067893285)
(120.00654 -0.0097727483 -0.0056599663)
(120.00664 -0.010111112 -0.0050877936)
(120.00669 -0.011338916 -0.0035807441)
(120.00644 -0.011450749 -0.0025733209)
(120.00632 -0.011752505 -0.00090416243)
(120.00631 -0.011755545 0.00071996048)
(120.00641 -0.011461675 0.0023935771)
(120.00472 -0.0086606938 0.0017828378)
(120.00336 -0.0063147897 0.0012778871)
(120.00353 -0.0062643004 0.0018302529)
(120.00493 -0.0085878874 0.0025442592)
(120.00486 -0.0076337698 0.0037509943)
(120.00475 -0.0074541323 0.0041676199)
(120.00506 -0.0071301772 0.0050342491)
(120.00495 -0.0061526875 0.0057915945)
(120.00494 -0.0058770464 0.0060852975)
(120.00501 -0.0051266139 0.0070715281)
(120.00466 -0.0042719539 0.0074120464)
(120.00474 -0.0038650677 0.00760977)
(120.00479 -0.002663491 0.0085666523)
(120.00647 -0.0035590385 0.011320321)
(120.00622 -0.0025431585 0.011433395)
(120.00611 -0.00086396621 0.011730976)
(120.00611 0.00076998944 0.01173184)
(120.00622 0.0024536067 0.01143379)
(120.00646 0.0034787 0.011325777)
(120.0064 0.0050017989 0.010098604)
(120.0063 0.0055926631 0.0097540048)
(120.00665 0.0067360065 0.0093167838)
(120.00656 0.0076971465 0.0080665904)
(120.00657 0.0081215606 0.0076353234)
(120.00667 0.0093738704 0.0066748906)
(120.00633 0.0098060901 0.0055327988)
(120.00643 0.010144077 0.0049397467)
(120.0065 0.011373557 0.0034188172)
(120.00626 0.011475889 0.0023973956)
(120.00616 0.011772518 0.00071682575)
(120.00617 0.011771312 -0.00091323385)