/*--------------------------------*- C++ -*----------------------------------*\
  =========                 |
  \\      /  F ield         | OpenFOAM: The Open Source CFD Toolbox
   \\    /   O peration     | Website:  https://openfoam.org
    \\  /    A nd           | Version:  7
     \\/     M anipulation  |
\*---------------------------------------------------------------------------*/
FoamFile
{
    version     2.0;
    format      ascii;
    class       volScalarField;
    location    "230";
    object      nut;
}
// * * * * * * * * * * * * * * * * * * * * * * * * * * * * * * * * * * * * * //

dimensions      [0 2 -1 0 0 0 0];

internalField   nonuniform List<scalar> 
25278
(
6.7562408
6.6879857
6.6961595
6.6961348
6.6196074
6.6880486
6.7523924
6.7562423
6.7523636
6.7206969
6.7426853
6.7440876
6.7163531
6.68688
6.1843547
6.6961143
6.6880099
6.3290571
5.9374633
6.4109539
6.5953563
6.6512857
6.6817376
6.7132153
6.6587234
6.7131759
6.681763
6.6155901
6.5791926
6.6145527
6.5513066
6.5071644
6.2532286
6.4316679
6.4703168
6.4422499
6.4758028
6.4142981
6.3794419
6.182647
6.3027606
6.3407104
6.2368014
6.2767871
6.4492707
6.5896579
6.6871294
6.6369816
6.5224135
6.4739802
6.4109793
6.3431733
5.8332464
6.027469
6.3043842
6.3478644
6.2732802
6.2275558
5.9184352
6.0543104
6.1143059
5.9915675
5.8852616
6.2177867
6.1642417
6.1263541
6.1811075
5.8229135
5.7373855
5.8057319
5.3290354
5.525766
5.7397721
5.9421997
6.1246482
6.2468001
6.4711413
6.6150115
6.6514667
6.6025841
6.55172
6.1886429
6.3323512
5.9546824
6.5186548
6.4537314
5.7215113
4.9283179
5.4287074
5.9213148
5.970328
5.4606961
5.418688
4.4979915
4.5953537
5.4709712
5.5993928
6.0623401
6.0994002
5.6361524
5.5892885
4.7138937
4.8444626
5.6462775
5.127453
5.0985399
4.9657018
3.6216185
3.5459727
2.7890293
4.4874019
4.4822609
2.7732635
2.7714436
3.7180005
3.8282418
2.7734543
4.6067078
4.6183587
4.61314
5.9522842
6.5184231
6.6195603
5.4042122
4.4802479
3.5329415
2.7822618
4.4832614
5.71871
6.4534217
6.5513785
6.6024414
6.3303965
6.1857757
5.420197
4.9204513
4.9570697
4.4775304
2.7648883
3.607173
3.7018127
2.7611846
2.760787
4.6003554
5.117932
5.0898906
5.5913212
5.4622638
4.5770861
5.4460627
6.1786511
5.9146952
5.9641597
6.0570525
6.3252704
6.0947195
5.6382706
4.8257692
3.8098623
2.3256921
1.1186476
1.1253682
2.3416386
3.7801651
5.0923013
5.0666347
4.5611343
4.5430324
2.6647207
2.6773351
3.6756399
2.2917586
1.1636016
1.0660279
0.39969784
0.44926503
1.2203554
1.2145978
0.46219857
0.41256165
1.0712807
1.1655758
2.2784833
3.6416354
4.6952844
5.5759592
5.6234292
5.0645275
3.7434616
2.6007739
2.6213392
4.509901
5.9211467
5.0396101
4.4870793
4.6675085
2.5951765
0.98000594
0.36995176
0.35723855
0.97133343
2.6689499
4.723831
5.2521808
5.7839353
6.1869752
6.4327974
6.5799245
6.5095622
6.5528573
6.4447749
6.258803
6.3063926
6.3436133
6.4776829
6.417885
6.383961
6.1898805
6.2426112
6.2812725
6.3829747
6.5206397
6.6440592
6.6871864
6.6588531
6.5349898
6.5312105
6.6043547
6.5905799
6.5045725
6.5151091
6.3994349
6.3097661
6.4626307
6.452028
6.3919005
6.5242949
6.6374998
6.5963928
6.4160699
6.477151
6.3113039
6.0417159
6.0665791
6.1245341
6.3533163
6.2810492
6.2371389
5.9367591
6.0069431
5.9047071
6.227021
6.4151922
6.3498585
5.8549332
6.1757325
5.8287431
5.7608503
6.1379367
6.1903626
5.8426725
5.9086812
5.9661374
6.0608727
6.1707566
6.2066952
6.4059477
6.3422458
6.3271039
6.2769802
6.4719496
6.4891162
6.5406088
6.4295306
6.4845188
6.4888545
6.538688
6.4297976
6.4230177
6.3307669
6.3450697
6.2496053
6.4353338
6.3766595
6.3714494
6.1352472
6.2318621
6.1202604
6.1828694
6.2421895
6.2796626
6.3467863
6.5346785
6.6586497
6.6437328
6.520089
6.5031086
6.5140155
6.4605883
6.3065323
6.3978332
6.3807702
6.2243261
6.3143287
6.2520944
6.2113273
6.1894299
6.1636598
6.0125046
6.1775463
5.9262461
5.872317
5.6034563
5.7010674
5.3129284
5.6690212
5.9298204
6.181125
6.1290349
5.7930189
5.8764325
5.6172334
5.952724
6.0214327
5.7129194
5.3241985
5.2179942
5.5914588
5.0103248
5.2052289
4.7052505
4.8445802
5.1985103
5.3925556
5.5903093
5.7540939
5.9140327
6.0481422
6.0749094
5.9883736
6.1200707
6.092979
5.9518039
5.7958921
5.8324564
5.9468048
5.9953952
6.0222411
5.9726159
6.1012831
6.1141743
6.222853
6.1591678
6.1472906
6.0149237
6.0339747
5.8846841
5.9909044
5.8381001
5.8207692
5.7876765
5.6547844
5.6076619
5.4105416
5.4560195
5.6297119
5.7414216
5.9982264
6.2269978
6.2539991
6.0242624
5.9781158
6.1061229
6.2152565
6.1940383
6.1691298
6.0547674
6.0805802
5.9972135
6.1271199
6.1011108
5.9620396
5.8081447
5.9215118
5.9532418
5.7947833
5.7621136
5.6219237
5.6673233
5.8432069
5.8711245
6.0224631
6.1532733
6.1641563
6.2261217
6.1182202
6.0403459
5.8925266
5.995488
5.8432237
5.8267775
5.6989624
5.7232075
5.7443597
5.8686402
6.0671782
6.0736521
6.2914622
6.2594898
6.2473789
6.1426011
6.1373616
6.0565247
6.067933
6.1877523
6.2028131
6.2054831
6.2632718
6.1608927
6.1570417
6.079862
6.0885991
5.9489803
6.0442953
6.0362468
6.0241292
6.01468
5.9105961
5.9248005
5.7608019
5.8761082
5.8940426
5.8999028
5.7892425
5.7763574
5.9378283
5.8374627
6.0000048
6.142783
6.1275398
5.9867534
5.9727719
5.9548736
6.1010046
6.0872739
6.059376
6.0285155
5.8393531
5.7597764
5.2873328
5.3282289
5.4282833
5.114299
5.648469
5.5576645
4.9911181
4.3050323
4.7968054
3.9760304
4.1553021
4.2827515
4.9049689
4.4187814
3.6028469
3.4636779
2.7022043
3.7786794
4.6741904
5.3716106
4.7878887
5.2543586
5.3563754
5.4708492
4.7962703
4.5666772
4.437451
3.3633969
2.7954438
1.9705651
1.9650807
2.7610955
3.8692946
3.4157944
3.9405854
4.1365011
4.3720969
4.607823
4.8402579
5.0489612
5.248335
5.4255455
5.5977181
5.6363238
5.4358606
5.3976602
5.193298
5.2492024
5.4694224
5.5052039
5.6707547
5.7883922
5.6651407
5.6866023
5.5226831
5.7138979
5.6880356
5.8618054
5.7450754
5.9228997
6.0790094
6.2008741
6.4028288
6.3876392
6.3211035
6.3378389
6.0951622
6.0485841
6.1626557
6.0173423
5.8216434
5.6194595
5.0625538
5.400181
5.2981538
4.93662
4.5974125
4.7205482
5.431752
5.315866
5.2103342
4.3551383
4.4852329
3.2750606
3.7432409
4.3402981
4.8682042
4.7593257
3.9216413
4.2285045
3.3801821
4.1251643
4.2506451
3.5134602
2.6053398
2.5655885
3.6616945
3.2346783
1.8205148
1.7951761
2.3482127
3.0930942
3.8097849
4.3857146
4.8841146
5.2632445
5.5811653
5.8930212
6.2368371
6.4694599
6.4878504
6.5396239
6.6038178
6.5303444
6.5380554
6.4877775
6.4829616
6.3285092
6.4218549
6.428949
6.3434929
6.2469832
6.4337873
6.4272743
6.3683235
6.3746071
6.1533736
6.1290872
6.2278314
6.1145276
6.1787331
6.2394279
6.2782693
6.2905627
6.2576327
6.2451388
6.1844006
6.0636711
6.139869
6.13403
6.0512361
5.9041375
6.0109038
6.0657741
6.0727757
6.0338302
6.1549136
6.1591594
6.2617675
6.2032777
6.2000126
6.0764577
6.0859242
5.9457379
6.0423971
5.8978222
5.8913664
5.8727102
6.021074
5.9195215
5.7544891
5.7365547
5.8643797
5.7126513
5.8306812
5.8508055
5.7447141
5.7254738
5.5695671
5.5484304
5.3399203
5.5288562
5.4950571
5.4754259
5.4311176
5.2365663
5.1793248
4.9440962
4.9989603
5.2461561
5.007629
4.953647
4.6706082
4.7390667
4.7870361
5.043869
5.2778866
5.4933481
5.3128753
5.5419002
5.5041492
5.7113145
5.8929696
6.0497031
5.9665549
5.9322077
5.7448605
5.8544197
5.6722806
5.5355308
5.58186
5.791509
5.8254053
6.0009584
6.0171722
6.0941027
5.9454587
5.8515158
5.7544313
5.9475791
5.9277328
5.8908548
5.851637
5.766229
5.8070626
5.5800413
5.6859547
5.6380377
5.5239766
5.2478643
5.3955255
5.4439301
5.3026952
4.9742405
5.1623395
5.3402061
5.2792914
5.4555709
5.222855
5.2703207
5.0663489
5.0085587
4.6925508
4.9569326
5.0138167
4.7650703
4.8171348
5.1146473
5.3832709
5.620047
5.6515926
5.771967
5.5728282
5.4199363
5.2550093
5.5246425
5.4876457
5.7241474
5.6226141
5.8490973
5.8706634
5.6571368
5.3940958
5.3513642
5.0293409
5.2116426
4.8947902
4.8394104
4.7813738
5.1012168
4.9006108
4.7110143
5.1073874
5.4223358
5.6930885
5.9505701
6.2698236
6.290125
6.2584092
5.9522609
6.0050583
6.0459039
6.3228316
6.331621
6.3035198
6.294078
5.9974972
6.0313599
6.0759597
5.8874464
5.9421745
6.0079878
6.0710228
6.1390267
6.1229177
6.0509898
6.0420104
5.8745331
5.9649856
5.9804337
5.8930661
5.9105767
5.9949551
6.0066552
6.1443461
6.0763731
5.9247426
5.8425555
6.0160957
5.951485
5.7625791
5.7411844
5.8250288
5.8039353
5.9865178
5.9742923
5.902387
5.9161994
5.7156671
5.6888132
5.7814651
5.5572741
5.6786973
5.794557
5.8138012
5.7023477
5.4811455
5.6222817
5.5992778
5.4521424
5.2944632
5.3309416
5.5864415
5.4686754
5.4329709
5.1274237
5.0797545
4.9003283
5.2659413
5.5650862
5.8081664
5.783176
5.7385091
5.6724312
5.6258766
5.328378
5.3919706
5.4794115
5.5261804
5.4421857
5.7211579
5.7477612
5.484689
5.425221
5.7094891
5.6808155
5.6304128
5.606289
5.556727
5.2282222
5.2945585
5.3272382
5.3799599
5.3484588
5.6581282
5.687341
5.3949307
5.0156323
5.0613197
5.1501231
5.097043
5.2174906
5.1635962
5.0396091
4.9794109
4.5235911
4.6049118
4.7828746
4.8431825
4.6684097
4.7305409
4.5944178
4.5292963
5.0048871
4.9446493
4.8963786
4.8348262
4.3091343
4.390624
4.4641022
3.8652445
4.0759997
4.3300374
4.5922746
4.5262493
4.0820222
4.4148697
4.4829566
4.1648177
4.2275421
4.6530906
4.710582
4.9444146
5.156438
5.3480614
5.0990881
5.3103752
5.0805063
5.3177143
5.4986716
5.6914162
5.5328958
5.3202964
5.2891538
5.4795382
5.2897834
5.0517992
5.087565
4.8279609
4.8646241
5.1132303
5.3488436
5.5318651
5.716638
5.7287246
5.5424726
5.371122
5.5765684
5.5569934
5.3483075
5.1193783
5.1468655
5.3682477
5.5399957
5.3641344
5.3874643
5.5893156
5.7713841
5.9336557
5.8308286
5.8457275
5.7420846
5.7234541
5.5072747
5.6428605
5.6609863
5.7854156
5.6058905
5.7543601
5.5740711
5.5667677
5.3931065
5.5686872
5.7472412
5.7563072
5.5755385
5.4108867
5.6101125
5.5948259
5.3929417
5.1724023
5.194482
5.4076256
5.1912852
5.4066654
5.2205503
5.452317
5.4304096
5.4058833
5.3786986
5.1942067
5.2288924
4.9471664
5.1655522
5.1340135
4.9066011
4.8635776
4.5960844
4.5414637
4.1619082
4.4964919
4.7856847
5.059854
4.7355564
4.6816715
4.3754692
4.4410676
4.1032329
4.439343
4.3758045
4.0241267
3.6465893
4.0409779
4.1009555
3.7076855
3.6415506
3.1760654
3.2528993
3.7130407
3.772928
4.1602083
4.492118
4.5388125
4.8288396
4.5467123
4.2130999
3.8312064
4.2195704
3.8315761
4.2895665
4.3532922
4.7671848
4.9910063
5.0355135
4.8234104
5.1729489
5.2161538
5.5016492
5.6128978
5.6365448
5.5314788
5.2563552
5.3953892
5.5306998
5.2899231
5.2608239
4.9852727
5.1945167
4.9373923
5.1682479
5.1416582
4.8978887
4.9284883
4.9561325
4.695963
4.9679081
4.7255185
5.0205445
4.8012667
5.1170219
5.0776703
5.3646153
4.8786993
4.9317535
4.5542639
4.4869072
4.7524851
4.7014188
4.6491757
4.2772255
4.5943226
4.8678909
4.9039409
4.6401391
4.3142639
4.6225236
4.5819283
4.2641492
3.8906724
3.9521636
4.3355997
3.9702116
4.4193258
4.0946694
4.5940997
5.0114774
5.3538159
5.6328425
5.8593992
5.8421916
5.7859744
5.8049895
5.5608604
5.5250996
5.6013071
5.3111673
5.2010516
5.2500755
4.8574861
4.7934036
4.9561967
4.5254855
4.4594759
4.3953515
4.1412862
4.2086268
3.5773499
3.9436268
3.8777302
3.8146204
3.7454601
4.2677725
4.013169
3.3826168
3.4579483
3.5145114
3.193931
3.9289075
3.9960053
3.8796545
4.5226578
4.4562931
4.9576496
4.9654806
5.35285
5.6603837
5.9542925
6.2590473
6.4698392
6.6371177
6.5956691
6.3315602
5.9426669
5.6021636
6.0656759
5.5982538
5.083152
4.5742269
4.5590343
5.1112247
3.8144171
2.6990997
2.7051772
3.7054381
4.7257005
4.8554769
5.6447963
6.1019115
6.3333388
5.6477792
5.1241176
3.8311686
2.3698258
1.0915142
1.1866033
2.3165549
1.2361486
0.47043691
0.42104582
1.1412539
2.7697988
2.7718015
3.7241575
5.0977835
5.9536992
4.6153563
5.0337009
3.6290272
2.2724294
1.2242534
0.46744517
0.41761929
1.127784
2.3184438
1.0498104
1.1466573
2.6011844
2.575992
3.7290541
5.0582454
5.9193627
4.5020382
4.4780381
4.6587135
2.5649128
0.95613899
0.37471212
0.37903435
0.99890854
2.7118714
4.7413475
5.8379062
6.3443162
6.4116591
6.4752665
6.4128671
6.0340632
6.2314471
6.1675802
6.1276167
6.1821186
6.2206527
5.892198
5.8258424
5.7405646
5.8135006
5.9268789
5.9989253
6.2764779
6.3506228
6.3077749
6.061053
6.1200623
6.1673285
6.3897847
6.5231651
6.5400273
6.4880271
6.2945737
6.3037949
6.3323437
6.3240232
6.2918333
6.2720854
6.237646
5.8955162
5.9564555
6.0096798
6.0491616
5.9989663
6.032274
6.0779981
6.155309
6.3753736
6.369576
6.3396686
6.3235857
6.0547201
6.0997877
6.2042798
6.404349
6.4283666
6.4344561
6.2483716
6.2301562
6.1322456
5.9100065
5.8502928
5.7934037
5.7548418
5.7304349
5.7286344
5.7492694
5.7704621
5.7504092
5.4802706
5.5075352
5.4685736
5.4397571
5.0725062
5.1162517
5.1700737
5.1285865
4.6652486
4.7319878
4.661765
4.5920815
3.9548698
4.0706806
4.281155
4.3598665
3.7362743
3.6504464
4.0155564
3.4423539
3.898272
3.4317843
3.3676531
3.309011
3.7690703
3.3134584
3.2579147
3.2124185
2.7495341
2.7815027
2.1243559
2.7140467
2.6734047
2.0936598
1.5948082
1.5709057
2.3464808
3.1482958
2.9718754
3.7515846
3.6990374
2.9179112
2.1045394
2.0841747
1.2175111
1.2541301
0.68215185
1.0323082
1.5906791
2.2187915
2.7716323
3.273733
3.6842059
4.0627793
4.3910967
4.705736
4.9834428
5.0388474
5.2938112
5.5243964
5.727838
5.9059125
5.8690517
5.7652983
5.9473805
5.9798607
5.8095451
5.8411101
5.9340052
5.7594647
5.784316
5.5883331
5.5597453
5.4109269
5.6412191
5.6057298
5.5619639
5.690694
5.4778253
5.3131126
5.3708839
5.2064163
5.4769195
5.7099678
5.9077115
5.87081
5.664764
5.5578006
5.7898548
5.8281413
5.6104224
5.64964
5.7452995
5.9423712
6.012415
6.0268387
5.8648997
5.6698881
5.4442129
5.290974
5.5504997
5.7726058
5.9599636
6.1041674
6.0165643
6.2953673
6.2635985
6.2440142
6.2435894
6.4717124
6.6374815
6.6880325
6.6961131
6.7561612
6.7523787
6.6870427
6.6818642
6.6514478
6.5963068
6.3493536
6.4148373
6.1373255
5.8528852
5.7594705
5.8413653
6.1898472
6.2255625
6.1741151
5.8252583
5.9015518
6.0031809
6.2792892
6.4764795
6.4151255
6.0382724
6.2351238
5.932573
6.0627789
6.3093496
6.3516633
6.1211946
6.1677916
6.0575316
5.9632478
5.9075262
5.9627089
5.9637421
6.0052054
6.0537154
6.3264558
6.3339531
6.0807835
6.1572622
6.0145721
6.0761922
6.0574741
6.0500133
5.8856755
5.9021304
5.9177358
5.9302632
6.0105524
6.1473056
6.0803666
6.0211388
5.8500034
5.8348009
5.8163125
5.9947897
5.9846164
5.7966941
5.7086626
5.9155096
5.8863851
5.8674917
5.8044219
5.7627207
5.7201817
5.4621099
5.5156867
5.4322431
5.6989919
5.6554489
5.3724726
5.0427899
5.1635756
5.2942514
5.4313985
5.1483808
4.964204
5.0339266
5.3458438
5.3906178
5.5171949
5.2519111
5.084838
5.1301734
5.428824
5.6805922
5.5936191
5.8264474
5.7679404
5.7445371
5.4785512
5.558741
5.2663042
5.2166192
4.8585224
4.7896763
4.6149553
4.6932088
5.0998664
5.1530193
5.2008432
5.3096847
4.9664265
4.9147097
4.7530297
4.8099374
4.679078
5.1141551
5.4580652
5.5167797
5.5525156
5.6255667
5.8574301
5.8716753
5.9267679
5.7318511
5.753987
5.9504742
5.9577584
5.7722817
5.5466868
5.6475303
5.7497319
5.8507936
5.6674892
5.6513669
5.6330477
5.8221295
5.8048098
5.6123911
5.4729701
5.6940845
5.7149648
5.4983365
5.5209993
5.7334326
5.6273171
5.6046123
5.5792585
5.3256742
5.3571386
5.2108313
5.4935211
5.4628549
5.1718615
4.831405
5.0338186
5.2210985
5.3946143
5.3666011
5.3339205
5.0827593
5.1195782
4.9004119
5.1872772
5.1490912
5.1039184
4.8081299
4.7381407
4.4216901
4.4855678
4.7584952
4.4546302
4.1420451
4.0636517
3.7168699
4.1157031
4.4841784
4.5509329
4.8958287
4.6716269
4.2643128
4.1826643
3.7538682
3.8219123
4.1757708
3.7851312
3.3679304
3.2872249
2.8254095
3.363624
3.8773393
3.9496221
4.4341121
4.200911
3.6245096
3.5433636
2.9360305
2.9823881
3.4175459
2.8780769
2.3306667
2.2813327
1.7910952
2.5486369
3.2654407
3.3293298
3.9989469
4.5569987
5.0070497
5.3684523
5.6573072
5.6111119
5.3082575
5.2701091
5.5846756
5.6311176
5.332679
5.3826785
5.4172181
5.704421
5.7298886
5.7058561
5.6797702
5.678802
5.6300435
5.5835323
5.35341
5.2514288
4.7809936
4.4316489
4.5601259
4.7822252
5.4639512
5.3647281
4.6607983
3.7571753
3.3528159
2.7796445
1.9555491
1.9460551
3.4027822
3.8442669
2.7269879
2.6742076
3.4360338
4.2836202
4.9771688
5.549988
5.2774673
5.7530327
5.8329378
5.6408866
5.1001508
5.4170782
5.3165174
4.7791272
3.9551932
4.1307432
4.2576243
3.5718379
4.3954735
4.8871724
5.0321638
4.8204005
4.5849607
4.3477314
4.1134424
3.9231622
3.8131234
3.8196136
4.3974321
4.4811831
4.9495167
4.8956676
4.9540253
4.4761849
4.538318
4.6189018
5.0629724
5.0109939
5.0637249
5.4249353
5.4651747
5.4967031
5.7662916
5.8028318
5.8185615
5.5834138
5.6527198
5.6787471
5.8970634
5.9070114
5.7007164
5.6390257
5.8589095
5.8475885
5.613317
5.3278952
5.4198299
5.5215187
5.2470623
5.3857743
5.4116085
5.5412173
5.3039874
5.4603142
5.4409152
5.4190502
5.1805548
5.1518151
4.9393615
4.9752411
5.2514948
5.2791061
5.008325
5.206551
5.229818
5.0385204
4.7467081
4.9773482
4.949485
4.9187243
4.8852085
4.848357
4.8071053
4.5066477
4.552342
4.2491604
4.58638
4.5389337
4.8573769
4.6065411
4.9475088
4.9925344
4.6570014
4.3835507
4.7813138
4.7288469
4.3252238
3.8842913
4.2351673
4.2899234
3.9018931
3.8448733
4.1979955
3.8365525
4.1782599
4.1218234
3.7541637
3.3903619
3.7780019
3.7087144
3.5663096
3.4503055
2.4363318
2.6127422
2.7176993
1.9860461
2.7744737
2.6664122
1.8812579
1.0930715
1.6578911
1.6554133
0.73933551
0.83700151
0.44380976
0.39312578
1.1026099
0.596416
1.1404668
1.7629677
1.7562623
1.0325278
1.1277412
0.48760976
0.92119362
0.8216678
0.43526783
0.24402194
0.2716119
0.62603749
0.25944245
0.23331379
0.21106462
0.22132279
0.22933541
0.27305925
0.4570278
0.85962693
1.8591771
3.2638494
4.3708675
5.2175854
5.3232133
5.4478946
5.3451546
4.631384
4.7564981
4.5028726
3.3113346
3.8113983
3.7192946
2.6445182
2.7017429
1.8444326
2.1371575
2.9442299
3.7174784
4.3210473
4.8423327
5.232743
5.5593459
5.608685
5.6379279
5.588938
5.2762614
5.339794
5.2990474
4.9041401
4.9655086
4.9045065
4.4189354
4.4983479
4.4035801
4.4698857
4.5365768
5.0232217
5.3990663
5.6893567
5.7158248
5.6877143
5.3919738
5.436465
5.4998603
5.7562734
5.7305991
5.6827443
5.6368321
5.7055938
5.750172
5.4982954
5.4092715
5.3463524
5.4422129
5.1373281
5.0073512
5.0677885
5.1931858
4.8280583
4.6495565
4.5672477
4.7561063
4.9412019
5.2756336
5.5430292
5.7785203
5.6352653
5.5421227
5.2718085
5.7519449
5.8327964
5.4201679
5.0942699
4.9682157
5.3188309
4.7890423
4.2779389
3.9615978
3.4438915
3.5846749
4.3943076
4.8982185
4.2850507
4.1581534
4.7178705
5.2194855
5.614788
5.9495728
6.1871361
6.3819974
6.552209
6.651566
6.6872571
6.5902614
6.6042266
6.6591701
6.6592457
6.6443183
6.6151882
6.6162506
6.5800536
6.5085061
6.2567684
6.4439642
6.4713307
6.477094
6.4163256
6.2404285
6.3428702
6.305421
6.1284492
6.2480335
6.1806467
6.0188647
5.7109654
5.9304603
5.8772712
5.7915796
6.1888264
6.4330516
5.7934663
5.0204119
5.5964147
5.6729453
5.3255303
4.8555113
5.3250395
5.2198215
5.6157873
5.8777121
5.9305346
6.1810126
6.1291364
5.9510769
6.0196767
5.7110242
5.7611794
5.9986227
6.3151098
6.2266903
6.1676484
6.2796411
6.4508328
6.4617319
6.514795
6.5208597
6.5041327
6.3824413
6.3990847
6.3085873
6.3299086
6.483802
6.4883316
6.538537
6.5352304
6.5309427
6.4227495
6.4295407
6.3443276
6.2018712
6.1415024
6.0743144
6.0121044
5.9471023
5.892796
5.8420045
5.8078424
5.7866369
5.7853726
5.803976
5.8369539
5.8510098
5.8997698
5.6888272
5.6629977
5.5955217
5.6255775
5.5790267
5.8201092
5.8021317
5.5549953
5.5199041
5.5455628
5.2226499
5.2972535
5.3939816
5.4310225
5.3414775
4.9851045
5.1169536
5.0654136
4.9218993
4.8043281
4.8768785
5.2726244
5.2366135
5.1837503
4.7413079
4.8184393
4.2443768
4.3481821
4.5313298
4.7341477
4.6642425
4.4440136
3.83594
4.180304
4.2702162
3.947742
3.615357
3.4935462
4.2476308
4.1545561
4.0407555
3.1937825
3.3933134
3.3123526
3.247033
3.0570617
3.0101871
3.813217
3.836174
3.7725608
3.9194785
3.8589539
3.1653826
3.229356
3.0032478
3.0462998
3.0983524
3.9044048
4.0581115
4.6300978
5.0813609
5.0255841
4.5645709
4.7135468
5.1245475
5.4585625
5.5437846
5.7936933
5.8175515
5.5810875
5.292406
5.1763396
4.7751187
4.9431815
4.8877044
5.2458467
5.3766366
5.6388527
5.85925
5.8183693
5.9007593
5.8625782
5.6544841
5.701117
5.5976766
5.3295316
5.4660566
5.4188186
5.1338091
5.1935902
5.0136396
5.0672917
5.1153801
5.417148
5.6716694
5.8795787
5.9552032
5.936486
5.7378492
5.7665154
5.8608392
6.0234028
6.0081706
5.9748051
5.9414152
6.0245323
6.0560375
5.9020792
5.8035286
5.7581474
5.8644938
5.6857531
5.5537969
5.5988143
5.7236251
5.5202461
5.3632129
5.3040888
5.4729589
5.2441532
5.0399585
4.8242076
4.581242
4.3312044
4.0765282
4.1443257
4.3963851
3.9064648
3.5563227
3.4721963
3.8315867
3.3175274
2.8610506
2.4389222
2.4542095
2.1239733
1.2515483
1.2819903
1.6925322
1.6876551
1.6825367
2.4852296
3.2854869
3.9873957
4.2129414
4.2822336
4.5265981
4.4628302
3.9741122
3.62172
3.6923039
3.3496203
2.5248757
2.1368548
2.0792595
2.3736956
2.8616968
3.3733418
2.8018027
2.7553032
2.1339314
2.8179702
2.3577902
2.0790401
1.166947
1.540489
1.5071843
2.1478231
2.1684973
2.9177484
2.9903252
3.5230383
2.9251625
3.5029134
3.5812507
4.047024
4.3942556
4.6840924
4.3630645
4.6606557
4.3653072
4.6695911
4.6331966
4.5941939
4.2977159
4.6303418
4.6717467
4.344414
4.3890787
4.7106146
4.4459238
4.7934656
5.1077765
5.0721417
4.7501602
4.7045933
4.4413562
4.4990654
4.879633
4.9258137
4.9690764
5.1404329
4.8338688
4.6106215
4.5558602
4.1408601
4.0743476
4.3951562
4.3430239
3.9586066
4.0155742
3.6211566
3.5525658
4.0089562
3.9457529
3.4882147
3.4275218
2.9300397
3.4795035
4.0137864
4.4968856
4.5564565
4.0784109
3.7527701
4.3297671
4.2654515
3.6865693
3.0333769
3.0915372
3.5440032
2.9871684
2.399462
2.3610224
1.7853226
2.597613
3.383948
4.0632786
4.1288877
3.4449205
3.2338381
3.9999068
4.5995723
4.6621531
4.7395906
4.8657722
5.0155644
5.3492541
5.3858203
5.0628493
4.9210837
5.2878418
5.245554
5.1628484
5.2096649
5.5306428
5.7841158
5.7625732
5.7440015
5.7431358
6.004399
6.2974074
6.2976948
6.3057443
6.0359348
5.8146411
5.8279517
5.5925884
5.5637178
5.5359279
5.7947383
5.8088135
5.5666245
5.2574945
5.2971497
5.3650115
5.4508002
5.1502619
5.2803002
5.3103647
5.4347204
5.5592076
5.6819285
5.8019803
5.9182115
6.106492
6.3813337
6.5675494
6.6796311
6.6951757
6.7427484
6.7741276
6.7753234
6.7740278
6.7331966
6.7540074
6.7208485
6.6797758
6.692453
6.5770397
6.567756
6.5541938
6.6286735
6.6375162
6.5689473
6.5568208
6.4517115
6.4497038
6.3585962
6.5067285
6.5069612
6.3688533
6.3807647
6.4688709
6.4730434
6.5744456
6.5240636
6.5226444
6.4704411
6.5757354
6.6786155
6.7125672
6.601619
6.6619478
6.7144978
6.7306065
6.6216077
6.6091522
6.5890209
6.5907224
6.4941099
6.4916833
6.4021637
6.5397336
6.5382777
6.4115155
6.4235488
6.5113082
6.6016117
6.6744231
6.6016287
6.5163499
6.5486693
6.5516439
6.4961361
6.6129641
6.4890625
6.3306283
6.3201854
6.4846579
6.4868973
6.4717498
6.2998476
6.3906088
6.3109021
6.3435101
6.4016224
6.5768608
6.6923315
6.6371901
6.6283689
6.5536832
6.5564183
6.5063333
6.5059237
6.3574841
6.4490264
6.4512033
6.368011
6.3801241
6.522097
6.5686246
6.5741711
6.5236314
6.3901255
6.4727281
6.4684322
6.3350368
6.3176846
6.3103101
6.2738646
6.275906
6.2184656
6.2170215
6.0962993
6.1734405
6.175012
6.1035581
6.1124158
6.2308034
6.2857623
6.2882241
6.2319583
6.1190032
6.1889959
6.186783
6.0703043
6.1067512
6.1058887
6.0560099
6.061152
5.9665326
5.9572289
5.7991238
5.916604
5.9191366
5.8098819
5.82097
5.9758919
5.9842744
6.0761699
5.9364946
5.9332827
5.7923103
5.8915255
6.1070848
6.3181584
6.3109626
6.2751188
6.2769451
6.1761632
6.1748533
6.0984253
6.2188071
6.2199006
6.1052224
6.1137466
6.187761
6.2866684
6.2890211
6.1898197
6.1201078
6.2329968
6.2320252
6.1750938
6.2770778
6.4548958
6.5679458
6.4539069
6.264845
6.1758842
6.3992205
6.3983254
6.1901721
6.2039123
6.2893754
6.1885277
6.2449667
6.2998589
6.3353695
6.1366629
6.1376231
6.1009013
6.2145243
6.2032923
6.3013819
6.2453457
6.133947
6.1282343
6.2024591
6.0885552
6.076895
6.0711927
6.0623019
6.0575051
5.9596845
5.9683903
5.8119451
5.9203308
5.9341631
5.9371272
5.8313943
5.9853501
5.9772784
5.8224147
5.6488935
5.7930552
5.7793066
5.8790881
5.7719835
5.7782503
5.634621
5.621676
5.4254121
5.5980074
5.6018335
5.4404184
5.4555169
5.6474269
5.6582205
5.8303624
5.840411
5.9930356
6.1273222
6.2439893
6.2991286
6.3007916
6.2445675
6.1332144
6.202731
6.2017466
6.0879288
6.1364323
6.1374951
6.3432548
6.3103659
6.3127115
6.2567843
6.2560332
6.141072
6.2140538
6.2161191
6.1470055
6.0158568
6.1060641
6.1005164
6.0920091
6.0003544
5.8484322
5.9537815
5.9527588
5.812486
5.9155178
5.926365
5.8290893
5.9669029
5.9695826
5.8656728
5.8575228
6.0083239
5.9172202
6.0675969
6.2000164
6.2991705
6.4711315
6.5752296
6.6782844
6.7121512
6.7539256
6.71431
6.661513
6.5886995
6.6089167
6.5904572
6.537769
6.5393078
6.4016981
6.4914472
6.4938298
6.4108684
6.435235
6.3615277
6.3687763
6.3338648
6.3248837
6.3233921
6.2681957
6.2684737
6.1604275
6.2296079
6.2286516
6.1548396
6.0241057
6.1177062
6.1677581
6.1692522
6.130388
6.2405448
6.2423547
6.3355891
6.2791107
6.2791722
6.1679605
6.173455
6.0464496
6.1359022
6.0031626
6.0000228
5.9868367
6.1218446
6.0312099
5.8828717
5.8750103
5.9855372
5.8479305
5.9503066
6.1678854
6.3617047
6.3691483
6.1695227
6.1306198
6.240751
6.3341576
6.325132
6.3237352
6.3131273
6.2164629
6.1474583
6.2572868
6.2566608
6.1415961
6.0088331
6.0010047
6.092469
5.9541522
5.9532327
5.8411712
5.9939131
5.9015339
6.0540695
6.0459752
6.1772925
6.1141649
6.1130352
6.0986773
6.1632242
6.1604275
6.0211095
6.0295683
5.9525414
5.9426113
6.0964705
6.0379155
6.041945
5.876581
5.8646493
5.7899817
5.97793
5.9821808
5.8042408
5.8182778
5.8884153
5.9628049
6.0385747
5.8835616
5.873507
5.8627987
5.7643127
5.7772442
5.575233
5.6947423
5.7065524
5.7172927
5.8927383
5.7996055
5.9710485
5.8979494
6.0590749
6.0564617
5.999508
6.0017354
5.8293442
5.6220275
5.7083257
5.6957538
5.7889996
5.5895377
5.6023528
5.4890709
5.4732629
5.4551743
5.6814852
5.6655206
5.5692779
5.5891651
5.3370235
5.3603851
5.6067516
5.5255272
5.7554491
5.9529647
6.1202855
6.3579235
6.5210752
6.5264163
6.3764922
6.4168824
6.4156643
6.2149794
6.1476025
6.3757784
6.350146
6.3515581
6.3315413
6.3316323
6.3577372
6.1032704
6.0615206
6.0805733
6.0973734
6.1356732
5.9726387
6.0173277
6.0724207
6.1275475
6.1278178
6.190066
6.0606637
5.9870076
5.9798445
5.8094107
5.8184505
5.9096557
5.7367763
5.8490014
5.8579379
5.9671094
5.9697539
6.1063172
6.0161672
5.8659341
5.6976281
5.8338803
5.8291886
5.816764
5.8128187
5.7984129
5.6247408
5.622534
5.6026115
5.5990978
5.773453
5.624825
5.6368433
5.4425744
5.428496
5.2150448
5.4282851
5.4391293
5.2309379
5.2126425
4.9811317
5.0033637
5.2325674
5.2490734
5.4564101
5.6220396
5.6244404
5.7979175
5.4676261
5.2624144
5.4647331
5.2630631
5.4684407
5.659195
5.6699417
5.6788984
5.4906597
5.6450065
5.6442617
5.4807468
5.2765275
5.4800466
5.6441111
5.6449159
5.8165522
5.6785
5.6692618
5.4802447
5.4903554
5.5016415
5.6885414
5.6974615
5.8337986
5.6637786
5.6627721
5.500978
5.6628307
5.6638009
5.5111438
5.5017703
5.6887188
5.5523931
5.745985
5.9177623
6.0682174
6.2007313
6.2022567
6.074653
6.0017495
6.1404062
6.1403996
5.9950688
5.8272142
5.8356307
5.9256511
5.7549002
5.6444964
5.6347161
5.6246343
5.6139198
5.7273747
5.5313112
5.5196663
5.5070925
5.4931193
5.4776939
5.2507791
5.2693187
5.0901217
5.3459989
5.3261929
5.065749
4.7796136
5.0025347
5.0249402
4.7609415
4.7335183
4.7030298
4.4312095
4.1275005
4.494253
4.2067082
3.7664775
3.6929763
4.072225
3.6835873
4.0460131
3.9954518
4.321852
4.2763275
4.2287453
3.8679738
3.8129022
3.4494919
3.5063395
3.8908619
3.5053082
3.4475559
3.3873027
3.3286134
2.9238063
3.308812
2.8951688
2.9596598
3.3308773
2.8324114
2.4629469
2.3936604
2.0595977
2.5223638
2.5747139
2.9898712
2.525348
2.9282977
2.8645042
2.4538885
2.0877731
2.1440933
1.7461271
2.1160623
2.164862
2.5129389
2.8846217
3.3905667
3.4485661
2.938966
2.5654885
3.0753638
3.0176963
2.6312288
3.0482907
3.1059008
2.6305091
3.0409745
2.9839477
2.5768686
2.1932739
2.2445266
2.6877728
2.2159896
1.8344869
1.7887213
1.3305865
1.627411
1.9157758
2.2760775
2.2428308
1.5936126
1.25236
1.8833966
1.853276
1.2357852
0.71983693
0.6845442
0.98304515
0.61334068
0.34941952
0.39501056
0.27505849
0.57497575
1.0173933
1.5656717
1.592926
1.0340491
0.83437331
1.3000235
1.2673512
1.6874604
1.2872575
1.6139472
1.9388773
2.3465816
2.3792894
1.9731549
1.3525602
1.7565283
1.7425962
1.3321037
1.0736374
1.0907765
1.6418402
1.320394
0.86657231
0.84605934
0.49765819
0.61915228
0.79565595
1.1763347
1.1344198
1.7890845
2.5655892
2.2767233
3.136114
3.8742338
3.9356567
3.1812163
2.286527
2.3038716
2.6372319
1.7877646
1.319947
1.3539198
1.3915888
1.4148287
2.2830437
3.0748489
3.0655353
3.1251554
3.8669172
4.47144
4.9510285
5.3307861
5.2682544
5.3030451
5.6077748
5.6540242
5.3633388
5.4122252
5.3808913
5.4231639
5.7049415
5.7269436
5.7013444
5.7401642
6.0140827
6.2943656
6.2632825
6.2757824
6.3256474
6.5238777
6.5403714
6.4889625
6.3055423
6.0353163
6.079331
6.3333461
6.3256955
6.0517011
6.1329986
6.3704576
6.3410423
6.1012788
6.2042238
6.4047796
6.3904993
6.450962
6.590366
6.6872656
6.6042661
6.4837979
6.4286293
6.4346033
6.3758939
6.1555439
6.2480653
6.229867
6.3293267
6.3079176
6.4617635
6.5145726
6.5202197
6.5039268
6.4768069
6.4165358
6.5523945
6.508848
6.2562243
6.3823336
6.1868065
6.2399982
6.341801
6.4702415
6.4435629
6.3041519
6.12532
5.9473869
5.7859931
5.6081346
5.7048475
6.0166638
6.177966
6.2441052
5.8699324
5.9241462
5.6599988
5.3113034
5.2038728
4.9923559
4.6835837
4.8243197
5.297522
5.1878086
5.5811273
5.8646326
5.7732713
6.1833476
6.4315295
6.6156609
6.5796479
6.61494
6.644135
6.6590872
6.6590339
6.5348142
6.5307636
6.5383818
6.4883111
6.3438691
6.429065
6.4220626
6.3982585
6.3815228
6.2790645
6.0971806
6.0239092
5.9420819
5.8650597
5.7838425
5.7144925
5.6506538
5.6943473
5.4248808
5.3649584
5.4534448
5.5073344
5.7571852
5.7992462
5.8215673
5.763783
5.5100375
5.4533173
5.1061502
5.0607511
5.0079564
4.5333694
4.5944182
4.6657102
4.6058614
5.0549145
4.9989653
4.9416789
4.8927554
4.393061
4.4690629
4.5444279
4.6762271
5.0886318
5.0317179
4.5984489
4.7717808
5.1511649
5.2042149
4.8404339
4.8966327
4.7357272
5.1418271
5.4714584
5.5507263
5.586078
5.2980277
5.1899728
4.7925023
4.9485921
4.9983572
4.8485642
4.7260794
4.6568703
5.1115758
5.1145381
5.1638579
5.5008952
5.4993908
5.7618272
5.7817236
5.7636413
5.4921898
5.4635406
5.5265789
5.5601044
5.5345651
5.7940122
5.8082273
5.5654047