/*--------------------------------*- C++ -*----------------------------------*\
  =========                 |
  \\      /  F ield         | OpenFOAM: The Open Source CFD Toolbox
   \\    /   O peration     | Website:  https://openfoam.org
    \\  /    A nd           | Version:  7
     \\/     M anipulation  |
\*---------------------------------------------------------------------------*/
FoamFile
{
    version     2.0;
    format      ascii;
    class       volScalarField;
    location    "230";
    object      p;
}
// * * * * * * * * * * * * * * * * * * * * * * * * * * * * * * * * * * * * * //

dimensions      [1 -1 -2 0 0 0 0];

internalField   nonuniform List<scalar> 
25278
(
101315.64
101314.34
101315.78
101315.67
101318.68
101313.87
101314.69
101315.56
101315.04
101310.16
101311.94
101313.46
101314.23
101315.86
101323.33
101315.81
101314.44
101320.94
101324.55
101318.39
101313.77
101313.92
101314.32
101311.88
101307.59
101311.65
101314.11
101311.96
101317.86
101311.09
101308.58
101314.84
101309.14
101312.69
101306.23
101313.42
101308.85
101304.96
101308.9
101302.8
101305.67
101300.83
101302.04
101294.09
101299.94
101302.79
101309.89
101307.84
101301.54
101308.83
101308.83
101318.59
101313.84
101311.66
101313.26
101306.65
101305.17
101311.37
101303.37
101306.76
101301.41
101301.5
101302.33
101306.73
101315.69
101315.06
101306.47
101302.7
101307.2
101308.45
101324.41
101313.4
101315.9
101309.2
101315.35
101305.91
101306.13
101310.91
101313.58
101318.65
101322.38
101323.08
101320.7
101324.28
101318.54
101323.12
101325.67
101332.11
101330.13
101329.77
101324.13
101323.8
101330.4
101332.4
101333.61
101323.55
101329.99
101329.26
101321.72
101322.08
101330.25
101337.93
101335.14
101321.75
101322.72
101331.75
101324.56
101332.12
101330.79
101336.64
101335.48
101327
101342.59
101356.09
101337.48
101334.98
101360.74
101330.14
101338.83
101338.26
101323.61
101318.23
101318.5
101330.08
101332.17
101330.11
101336.03
101335.34
101325.31
101322.96
101322.28
101318.35
101320.23
101322.84
101330.05
101331.88
101323.6
101326.54
101341.86
101330.98
101336.22
101355.48
101359.81
101329.16
101321.79
101331.22
101329.49
101322.62
101333.14
101322.65
101322.83
101330.02
101323.68
101329.32
101320.12
101321.08
101320.46
101334.3
101334.02
101317.3
101337.74
101344
101319.12
101335.55
101323.15
101332.13
101339.42
101330.4
101359.15
101356.01
101338.17
101331.39
101343.57
101343.56
101418.14
101376.9
101343.36
101339.31
101377.76
101427.18
101342.97
101341.82
101328.78
101336.08
101337.44
101329.78
101320.85
101321.72
101332.91
101363.7
101357.94
101339.45
101324.05
101331.44
101330.62
101327.88
101348.76
101318.41
101438.57
101409.54
101315.73
101345.36
101327.16
101318.39
101319.01
101318.11
101312.62
101317.72
101314.2
101307.71
101313.24
101308.76
101305.45
101300.5
101308.73
101304.12
101308.07
101302.35
101301.58
101293.38
101294.27
101299.56
101305.97
101309.45
101305.98
101299.76
101295.72
101301.92
101301.79
101302.98
101302
101293.25
101289.63
101297.63
101299
101300.62
101300.67
101306.85
101313.1
101317.95
101308.17
101312.78
101311.17
101306.33
101300.88
101306.21
101303.9
101310.07
101302.56
101300.85
101301.3
101305.95
101307.54
101317.55
101312.87
101314.85
101307.62
101305.69
101313.44
101304.85
101301.45
101290.53
101290.96
101290.99
101292.22
101286.68
101297.81
101295.17
101298.32
101300.21
101299.15
101297.42
101299.51
101291.37
101292.28
101295.32
101298.72
101294.3
101288.92
101287.18
101287.99
101283.77
101293.42
101291.07
101288.41
101280.39
101283.44
101279.32
101277.18
101283.18
101285.56
101291.02
101299.98
101306.26
101306.25
101299.77
101303.17
101302.22
101298.65
101290.37
101293.75
101294.7
101296.96
101295.68
101292.31
101292.37
101300.41
101301.85
101299.99
101305.08
101297.48
101305.27
101298.73
101299.24
101298.65
101301.87
101297.48
101304.98
101315.12
101318.82
101305.35
101298.84
101308.87
101299.75
101299.25
101298.8
101312.38
101318.29
101324.95
101312.21
101296.39
101298.33
101289.05
101279.05
101296.43
101281.63
101296.3
101287.45
101286.82
101289.69
101290.9
101290.88
101286.29
101289.17
101287.03
101294.27
101287.5
101282.76
101287.44
101281.24
101282.22
101294.08
101286.03
101284.24
101282.96
101281.71
101278.14
101285.81
101274.18
101273.41
101280.76
101284.93
101280.25
101286.7
101281.6
101290.44
101289.67
101287.52
101296.84
101292.14
101282.77
101287.74
101281.19
101292.43
101300.42
101301.73
101287.39
101286.69
101289.49
101290.13
101290.02
101286.12
101289.13
101296.28
101294.46
101280.92
101281.79
101280.62
101285.13
101287.09
101280.96
101282.7
101283.42
101285.08
101294.08
101282
101281.42
101278.13
101285.98
101274.3
101273.64
101275.97
101273.53
101268.33
101265.83
101274.99
101282.19
101288.67
101278.99
101289.33
101280.88
101275.73
101277.57
101277.37
101282.98
101275.37
101284.15
101286.92
101283.01
101274.86
101276.14
101277.65
101272.11
101278.01
101273.41
101280.15
101277.72
101273.56
101272.51
101267.01
101272.44
101264.5
101275.5
101266.96
101265.31
101270.79
101266.85
101272.77
101274.6
101283.68
101274.45
101275.37
101279.56
101288.57
101288.19
101295.65
101298.36
101300.1
101315.19
101318.11
101308.56
101299.6
101300.37
101299.95
101312.73
101299.53
101322.07
101328.83
101322.91
101319.01
101297.96
101299.8
101300.73
101297.36
101292.05
101333.6
101355.26
101313.77
101323.1
101327.57
101321.86
101302.56
101302.03
101303.96
101305.3
101308.65
101349.71
101348.67
101302.84
101300.33
101306.91
101307.92
101309.69
101305.58
101297.58
101302.02
101288.93
101293.51
101288.23
101291.64
101287.1
101296.46
101290.73
101275.03
101279.22
101275.12
101279.5
101282.01
101273.76
101282.37
101278.11
101282
101279.07
101268.5
101273.33
101275.78
101280.98
101280.21
101282.13
101288.29
101287.5
101298.41
101301.12
101299.72
101296.67
101285.65
101292
101292.96
101298.72
101300.36
101300.23
101299.91
101299.44
101308.54
101299
101313.84
101303.56
101302.53
101303.26
101323.15
101308.73
101304.67
101306.24
101306.08
101299.36
101299.21
101329.46
101322.68
101321.4
101289.47
101319.17
101296.95
101294.74
101302.88
101332.9
101357.23
101348.95
101298.16
101293.04
101310.97
101278
101305.19
101282.62
101299.01
101288.47
101301.55
101292.33
101300.96
101300.88
101299.55
101300.7
101303.03
101296.04
101299.11
101296.6
101293.39
101288.13
101289.53
101294.99
101289.13
101285.26
101294.47
101292.11
101290.13
101293.11
101282.1
101281.86
101284.54
101279.46
101278.15
101283.17
101285.84
101289.02
101279.09
101289.43
101284.23
101277.91
101281.3
101275.94
101277.99
101273.71
101277.45
101275.04
101282.29
101273.3
101275.31
101283.74
101287.23
101285.77
101276.65
101276.89
101278.61
101272.88
101278.16
101275.84
101264.53
101272.49
101280.08
101272.79
101267.05
101268.26
101265.67
101268.94
101270.43
101270.48
101261.6
101271.05
101260.11
101262.59
101254.63
101253.78
101264.13
101264.98
101274.76
101279.1
101274.55
101280.99
101273.69
101280.02
101274.02
101281.6
101266.39
101272.54
101256.03
101262.73
101266.48
101273.39
101271.58
101274.39
101282.25
101285.82
101288.05
101295.74
101289.36
101291.73
101285.34
101290.47
101292.1
101289.65
101284.43
101288.07
101280.16
101282.21
101283.06
101288.68
101279.69
101277.87
101275.96
101285.81
101286.42
101293.98
101298.77
101293.38
101289.01
101286.98
101286.77
101289.29
101284.03
101290
101292.89
101283.14
101282.63
101280.55
101279.88
101282.5
101278.42
101286.42
101291.64
101278.88
101277.21
101287.29
101270.88
101284.12
101274.63
101274.6
101259.13
101267.59
101271.44
101277.53
101273.08
101275.88
101270.01
101266.98
101263.3
101270.54
101276.68
101279.52
101277.92
101281.81
101280.92
101274.45
101268.38
101274.75
101267.46
101269.94
101265.21
101274.03
101293.25
101284.52
101275.1
101284.48
101297.33
101289.52
101301.1
101292.29
101301.1
101296.79
101296.39
101284.15
101284.51
101279.82
101289.53
101291.61
101291.3
101289.08
101278.91
101278.41
101279.59
101266.54
101267.15
101270.49
101271.5
101275.02
101284.03
101280.31
101274.43
101273.42
101275.62
101274.9
101272.26
101270.83
101273.49
101275.12
101282.75
101281.76
101272.3
101268.75
101279.11
101277.64
101265.89
101264.75
101267.5
101269.17
101280.37
101276.14
101271.83
101276.73
101266.68
101268.95
101271.03
101264.64
101267.8
101270.96
101269.39
101265.61
101257.33
101262.27
101264.45
101260.55
101256.02
101251.65
101261.58
101257.92
101261.7
101252.28
101260.78
101256.94
101266.03
101272.89
101283.37
101285.59
101292.87
101290.06
101297.88
101285.66
101287.04
101286.45
101277.77
101277.08
101283.07
101280.24
101272.25
101271.35
101281.58
101285.16
101292.05
101291.32
101300.9
101287.56
101287.15
101286.87
101277.04
101276.99
101284.58
101280.7
101271.28
101263.46
101263.51
101265.13
101273.76
101274.51
101282
101282.4
101295.05
101277.08
101280.28
101278.87
101266.42
101265.56
101256.26
101253.41
101264.82
101273.57
101282.07
101282.44
101298.55
101280.52
101280.11
101279.38
101271.19
101272.72
101271.4
101273.74
101287.25
101264.15
101281.26
101269.58
101270.44
101251.53
101262.22
101250.79
101254.23
101259.66
101264.15
101256.18
101262.07
101255.05
101264.39
101264.5
101279.34
101268.91
101262.55
101266.91
101265.38
101271.42
101263.1
101255.45
101247.86
101237.56
101246.87
101256.21
101254.28
101269.37
101271.24
101260.4
101252.3
101260.29
101262.89
101255.03
101247.23
101242.62
101253.64
101259.97
101251.96
101249.46
101258.25
101265.62
101271.32
101267.26
101268.96
101265.17
101263.6
101255.29
101260.41
101262.26
101267.51
101260
101268.85
101263.87
101250.27
101248.98
101250.76
101261.87
101268.86
101264.27
101251.96
101259.61
101258.12
101249.53
101239.89
101242.19
101252.71
101242.33
101252.06
101243.41
101253.68
101251.7
101254.02
101257.58
101252.04
101247.24
101234.86
101243.63
101248.07
101241.11
101250.92
101243.49
101255.6
101247.93
101253.14
101259.48
101263.95
101269.43
101288.64
101280.83
101267.01
101264.16
101265.59
101279.34
101258.78
101273.29
101290.49
101260.99
101260.44
101278.2
101244.73
101255.43
101255.47
101235.33
101242.82
101251.05
101238.02
101247.68
101240.32
101228.84
101214.55
101229.7
101224.2
101239.37
101225.66
101240.26
101245.39
101239.08
101232.15
101246.74
101243.52
101255.2
101259.25
101260.66
101256.44
101244.22
101250.49
101256.71
101246.48
101244.78
101231.52
101240.98
101228.63
101239.82
101242.31
101231.31
101227.74
101230.13
101215.99
101231.57
101218.59
101233.35
101221.68
101238.17
101236.32
101249.25
101228.04
101229.16
101208.88
101208.96
101219.73
101223.54
101231.84
101214.88
101228.45
101238.14
101231.68
101219.85
101202.22
101217.36
101225.88
101213.52
101194.88
101179.8
101203.4
101191.65
101214.98
101196.02
101220.18
101239.88
101253.56
101263.76
101277.01
101273.45
101270.76
101274.3
101262.19
101265.61
101266.74
101258.39
101256.8
101251.17
101237.35
101245.51
101246.98
101231.17
101244.4
101260.31
101259.41
101243.67
101229.46
101229.43
101247.66
101266.31
101281.74
101301.71
101296.21
101265.87
101268.52
101246.38
101242.59
101257.69
101238.1
101238.3
101253.66
101264.9
101273.58
101274.2
101277.43
101284.46
101284.56
101296.42
101301.08
101307.99
101313.93
101321.11
101324.94
101329.4
101329.03
101331.06
101331.27
101340.99
101332.77
101322.37
101332.67
101363.69
101358.56
101335.58
101338.87
101336.16
101323.12
101321.69
101321.04
101321.4
101322.68
101337.38
101316.52
101351.69
101348.15
101328.99
101337.08
101379.5
101424.12
101334.3
101362.23
101357.31
101339.47
101331.31
101324.69
101337.28
101331.36
101334.93
101328.07
101334.84
101380.74
101430.93
101331.57
101318
101336.56
101338.5
101356.75
101361.36
101332.11
101321.76
101323.46
101338.84
101329.6
101325.52
101342.27
101309.06
101455.67
101432.41
101331.71
101352.21
101330.16
101315.01
101318.88
101308.99
101309.14
101318.58
101311.82
101311.5
101316.13
101315.2
101306.56
101307.11
101302.87
101303.26
101307.62
101308.97
101303.94
101302.25
101305.53
101307.11
101313.6
101307.46
101302.22
101294.11
101301.73
101302.07
101301.14
101299.72
101289.16
101291.39
101292.06
101290.1
101297.23
101301.55
101300.98
101292.68
101293
101285.38
101280.81
101279.35
101278.82
101280.53
101283.31
101293.63
101290.77
101297.13
101300.18
101293.01
101286.86
101288.8
101298.98
101292.9
101295.06
101286.49
101285.91
101283.16
101273.32
101274.68
101271.64
101272.52
101271.1
101271.06
101271.75
101274.45
101273.69
101259.73
101260.09
101264.13
101263.91
101253.77
101254.14
101247.23
101246.55
101229.68
101230.2
101240.85
101240.72
101219.11
101219.9
101229.42
101216.74
101195.65
101211.25
101211.32
101182.08
101206.65
101185.49
101207.96
101228.59
101242.97
101236.58
101254.78
101303.5
101289.15
101256.65
101247.28
101246.33
101272.45
101237.62
101263.09
101238.71
101252.01
101265.59
101266.37
101271.98
101303.41
101271.65
101301.1
101251.34
101235.05
101238.67
101296.43
101344.28
101281.27
101321.56
101273.44
101295.87
101278.65
101292.51
101279.13
101288.89
101284.51
101275.47
101279.67
101282.68
101286.07
101287.95
101290.39
101285.29
101290.66
101288.5
101287.95
101280
101282.05
101280.42
101276.11
101270.49
101274.87
101272.14
101277.79
101284.73
101289.67
101291.86
101286.77
101279.41
101283.12
101280.93
101283.8
101286.77
101293.89
101298.18
101289.34
101284.06
101291.91
101287.95
101286.96
101277.84
101279.55
101286.29
101281.28
101281.97
101277.67
101273.37
101267.69
101264.56
101271.26
101275.97
101285.7
101284.58
101283.05
101295.83
101294.49
101299.16
101299.4
101298.94
101306.48
101313.57
101315.33
101315.35
101314.52
101315.36
101313.51
101313.08
101312.86
101317.53
101307.43
101313.82
101311.9
101305.69
101300.79
101304.98
101305.02
101314.1
101305.93
101300.03
101299.12
101303.27
101307.47
101317.36
101309.72
101310.05
101301.12
101304.31
101312.16
101305.09
101298.88
101290.12
101289.28
101289.73
101290.09
101281.58
101282.19
101276.25
101277.84
101288.27
101289.85
101276.78
101280.07
101269.87
101269.87
101278.77
101273.33
101273.07
101271.66
101269.86
101270.92
101274.06
101281.95
101279.57
101277.9
101267.17
101266.49
101268.69
101279.9
101275.99
101270.85
101268.66
101270.5
101279.64
101280.65
101285.55
101292.91
101300.4
101289.67
101286.49
101286.94
101288.74
101295.84
101285.27
101294.6
101296.83
101290.09
101292.58
101285.5
101276.9
101281.8
101283.34
101275.44
101277.31
101271.12
101268.85
101262.21
101269.2
101274.37
101273.05
101283.41
101278.7
101281.64
101276.88
101277.89
101275.71
101283.09
101280.57
101286.16
101278.82
101281.97
101283.35
101274.77
101266.45
101267.55
101259.31
101268.5
101267.44
101258.21
101255.96
101265.29
101271.11
101272.09
101265.2
101266.69
101273.42
101276.54
101274.84
101266.06
101263.48
101265.08
101274.76
101263.95
101255.02
101259.48
101264.06
101268.15
101261.63
101260.2
101262.43
101269.3
101271.09
101264.83
101261.14
101267.96
101265.5
101257.65
101255.07
101263.04
101258.85
101261.84
101265.25
101257.19
101252.43
101247.76
101258.3
101262.43
101253.64
101243.7
101247.98
101253.41
101258.38
101265.01
101272.34
101264.84
101257.15
101252.46
101261.04
101268.84
101278.38
101275.89
101272.64
101282.72
101268.71
101270.41
101266.23
101265.6
101260.52
101274.78
101291.48
101282.82
101271.85
101276.01
101276.16
101273.22
101267.77
101282.01
101264.52
101264.2
101258.51
101259.45
101249.55
101276.44
101305.08
101284.89
101270.48
101274.9
101276.46
101272.99
101270.44
101293.8
101263.65
101261.12
101252.96
101254.86
101245.17
101269.47
101312.85
101282.39
101270.7
101275.38
101281
101283.02
101286.49
101291.89
101300.69
101288.34
101286.28
101298.34
101289.47
101286.61
101276.21
101276.77
101284.95
101281.39
101278.58
101282.69
101283.57
101290.25
101299.5
101301.54
101321.9
101325.07
101308.5
101303.43
101300.83
101300.02
101321.71
101310.16
101352.29
101349.41
101343.22
101300.95
101293.18
101306.04
101303.01
101299.51
101326.2
101286.12
101320.61
101296.48
101312.05
101316.89
101314.08
101297.58
101297.62
101297.05
101296.26
101305.25
101327.46
101321.76
101314.78
101293.01
101291.7
101296.3
101295.62
101284.05
101289.36
101285.51
101297.81
101295.31
101303.12
101303.95
101304.26
101281.27
101284.45
101298.25
101297.47
101283.15
101281.76
101266.7
101267.06
101274.88
101274.42
101264.77
101270.55
101262.85
101263.67
101271.48
101269.19
101272.06
101261.38
101263.31
101260.19
101265.73
101274.01
101260.26
101257.44
101270.51
101261.48
101257.76
101247.28
101250.49
101254.77
101243.51
101249.19
101249.5
101255.88
101246.11
101253.32
101251.85
101254.61
101244.39
101249.02
101242.66
101236.18
101248.36
101245.22
101232.1
101241.29
101243.28
101233.17
101218.89
101231.58
101229.2
101232.73
101239.33
101248.83
101260.47
101251.6
101238.68
101230.47
101242.49
101255.1
101260.62
101258.11
101267.27
101256.68
101246.3
101242.49
101253.88
101264.9
101254.64
101247.72
101251.5
101234.08
101218.41
101238.6
101244.4
101237.38
101245.62
101259.21
101255.76
101254.3
101256.81
101280.8
101297.4
101360.1
101290.45
101332.95
101293.29
101284.15
101294.6
101336.24
101260.86
101368.05
101445.53
101311.48
101308.74
101385.61
101251.24
101283.48
101294.3
101383.93
101306.28
101314.1
101440.4
101316.57
101362.29
101258.74
101394.21
101319.92
101294.41
101438.21
101495.74
101654.08
101465.9
101424.26
101446.93
101201.08
101224.24
101502.1
101269.29
101399.45
101306.14
101352.59
101310.45
101324.06
101304.26
101303.3
101324.87
101313.99
101304.39
101306.73
101310.84
101306.93
101356.84
101330.42
101302.88
101303.04
101305.05
101273.57
101304.61
101281.09
101298.97
101287.77
101300.66
101291.23
101292.72
101302.26
101289.23
101287.31
101287.7
101283.19
101282.75
101299.61
101283.65
101280.13
101281.34
101266.03
101255.13
101264.29
101271.85
101280.64
101282.3
101285.82
101277.67
101272.02
101273.56
101280.91
101283.58
101290.57
101297.94
101301.97
101293.81
101287.47
101288.02
101286.43
101290.85
101298.32
101295.43
101283.67
101283.35
101280.36
101281.86
101278.24
101286.15
101277.28
101291.14
101285.54
101294.14
101301.2
101313.66
101318.15
101316.34
101301.35
101300.47
101301.04
101299.94
101309.17
101329.55
101321.9
101320.94
101290.94
101296.54
101300.75
101300.31
101297.87
101318.59
101297.54
101313.42
101300.13
101310.12
101303.8
101309.53
101309.01
101314.12
101310.08
101303.4
101303.51
101306.51
101307.83
101306.64
101311.34
101312.26
101318.01
101315.23
101309.88
101313.69
101306.79
101309.15
101305.57
101302.91
101301.85
101306.52
101315.78
101306.47
101305.76
101301.11
101300.41
101298.65
101306.18
101319.79
101318.23
101313
101318.92
101325.86
101318.95
101302.74
101300
101299.6
101299.85
101312.67
101299.45
101306.48
101298.66
101305.52
101315.56
101309.17
101300.46
101300.11
101283.91
101289.16
101296.53
101297.9
101302.39
101295.3
101300.7
101299.33
101302.64
101300.5
101303.67
101295.92
101294.91
101291.66
101289.43
101294.24
101297.23
101299.54
101300.47
101296.68
101290.76
101295.85
101290.28
101278.42
101276.55
101273.36
101272.1
101268.85
101267.99
101265.25
101264.73
101263.57
101263.34
101263.87
101264.09
101274.14
101275.68
101262.56
101261.56
101259.62
101260.31
101258.24
101273.21
101272.86
101257.83
101257.11
101257.4
101243.35
101247.53
101250.52
101251.78
101248.18
101232.37
101237.36
101236.39
101232.86
101225.22
101226.93
101244.7
101244.34
101243.02
101226.23
101228.71
101200.72
101195.57
101209.86
101218.27
101215.68
101210.27
101189.1
101189.93
101193.24
101186.11
101165.9
101152.2
101190.68
101200.67
101198.05
101162.98
101166.33
101194.9
101219.79
101220.79
101242.19
101257.62
101259.65
101274.05
101272.36
101306.12
101279.51
101267.17
101269.83
101245.84
101225.35
101240.92
101240.16
101254.79
101264.43
101274.33
101265.9
101267.5
101275.06
101278.21
101279.07
101286.55
101284.42
101274.28
101267.74
101266.82
101258.77
101259.3
101268.39
101275.95
101276.43
101279.46
101282.95
101290.08
101294.95
101299.66
101290.78
101288.08
101288.24
101284.22
101284.74
101294.18
101286.29
101281.6
101282.28
101269.69
101263.39
101270.34
101276.1
101282.17
101286.91
101287.51
101281.08
101277.6
101279.55
101284.57
101283.74
101290.75
101293.02
101299.6
101296.63
101289.46
101289.43
101287.16
101291.92
101293.44
101291.1
101286.02
101287.35
101283.93
101284.13
101280.71
101288.04
101293.12
101289.09
101294.75
101288.94
101302.9
101296.88
101274.99
101273.47
101268.78
101271.53
101268.02
101283.78
101305.04
101291.13
101312.91
101254.63
101257.75
101245.03
101245.47
101265.08
101241.97
101204.39
101231.79
101245
101259.19
101261.97
101247.04
101247.4
101262.68
101251.08
101250.28
101234.65
101223.42
101197.09
101198.68
101189.06
101190.6
101208.19
101208.13
101183.41
101217.28
101213.38
101234.77
101227.78
101224.54
101192.54
101199.02
101152.41
101183.64
101150.63
101182.87
101159.48
101157.14
101110.62
101166.57
101153.75
101182.43
101198.54
101215.65
101195.81
101213.04
101194.48
101213.41
101218.01
101226.58
101215.33
101230.84
101222.17
101204.07
101196.83
101217.07
101201.74
101220.79
101237.44
101241.37
101226.15
101234.81
101228.91
101218.08
101235.59
101230.21
101229.55
101237.92
101221.25
101208.42
101210.23
101188.51
101199.12
101208.59
101219.99
101199.47
101184.47
101171.57
101189.63
101213.07
101229.58
101211.89
101232.85
101225.47
101244.65
101252.7
101264.44
101249.72
101235.38
101234.19
101249.09
101263.83
101251.38
101243.56
101218.7
101219.02
101193.65
101190.94
101222.01
101213.29
101240.11
101249.5
101263.45
101245.95
101227.72
101227.9
101246.44
101255.55
101242.71
101243.8
101247.38
101249.5
101259.96
101254.75
101242.04
101238.83
101252.26
101258.19
101256.29
101249.38
101259.21
101273.62
101270.82
101268.97
101269.75
101275.49
101286.89
101286.81
101288.52
101274.66
101262.46
101270.62
101254.47
101255.13
101253.91
101259.87
101268.14
101252.95
101240.17
101242.2
101246.22
101250.22
101235.68
101243.05
101245.63
101252.16
101258.29
101263.43
101268.4
101268.14
101279.45
101293.72
101300.19
101304.2
101309.45
101311.72
101313.98
101314.7
101314.09
101313.13
101313.16
101309.65
101303.74
101309.2
101307.87
101299.83
101293.18
101301.6
101308.52
101298.72
101300.07
101301.13
101291.82
101290.32
101291.65
101298.93
101295.45
101301.07
101301.79
101309.85
101305.48
101306.36
101298.96
101296.33
101306.91
101307.48
101312.69
101310.27
101311.14
101310.25
101313.27
101315.02
101311.71
101306.37
101310.29
101315.52
101311.8
101311.55
101308.16
101312.26
101315.1
101317.61
101317.56
101312.5
101314.61
101313.5
101317.73
101315.35
101314.53
101313.68
101314.34
101314.59
101318.52
101315.76
101310.9
101306.43
101304.19
101306.17
101306.89
101294.86
101305.07
101303.16
101308.17
101309.49
101309.45
101302.86
101293.85
101300.65
101300.39
101293.15
101291.74
101292.78
101301.95
101296.95
101302.57
101300.53
101299.59
101306.06
101307.59
101308.2
101310.52
101302.85
101297.15
101295.09
101286.43
101276.89
101288.18
101290.22
101278.36
101279.35
101278.06
101289.48
101283.56
101286.51
101285.23
101281.42
101291.65
101296.68
101291.61
101296.85
101285.8
101278.74
101294.44
101279.76
101272.22
101281.06
101278.5
101273.88
101269.31
101268.66
101283.91
101274.71
101279.36
101282.1
101287.95
101287.53
101294.27
101279.61
101270.33
101284.21
101294.15
101294.57
101285.75
101276.37
101287.65
101288.51
101277.13
101278.12
101276.62
101288.3
101282.15
101284.91
101284.54
101280.56
101290.89
101295.74
101289.9
101294.67
101283.18
101278.46
101292.47
101296.19
101298.85
101289.06
101286.59
101283.15
101286.61
101295.32
101289.6
101297.75
101299.3
101286.15
101291.41
101286.15
101296.23
101297.16
101309.23
101296.54
101303.06
101303.52
101296.04
101301.73
101298.83
101293.34
101293.31
101286
101286.9
101277.92
101280.66
101271.84
101272.78
101277.18
101273.56
101283.32
101278.69
101293.49
101284.69
101286.26
101280.53
101277.93
101273.21
101269.72
101273.13
101273.42
101261.84
101273.31
101268.62
101262.66
101255.36
101256.46
101274.93
101263.2
101270.38
101274.55
101282.38
101286.29
101291.83
101292.38
101295.13
101293.6
101287.41
101296.88
101303.59
101300.55
101304.58
101294.87
101287.25
101297.69
101309.56
101305.54
101296.17
101302.46
101309.84
101303.03
101304.34
101304.56
101311.24
101308.79
101308.24
101303.97
101297.9
101295.72
101298.57
101298.87
101304.55
101292.61
101283.09
101293.6
101304.91
101297
101305.46
101313.23
101309.97
101304.27
101303.16
101302.68
101303.78
101298
101308.1
101305.67
101308.24
101308.71
101313.3
101313.45
101310.63
101311.94
101307.22
101312.03
101310.75
101313.03
101309.4
101312.65
101312.66
101315.92
101315.9
101310.73
101309.15
101313.3
101310.47
101307.43
101303.88
101310.82
101314.44
101314.98
101316.03
101312.46
101311.84
101311.92
101307.15
101314.27
101318.48
101314.07
101318.15
101319.05
101311.3
101317.38
101316.63
101317.25
101319.01
101319.94
101315.31
101322.41
101322.38
101318.99
101310.57
101315.44
101317.88
101314.14
101315.83
101309.01
101312.65
101313.81
101308.37
101313.04
101318.27
101313.04
101317.14
101309.45
101306.67
101302.58
101301.61
101310.34
101307.29
101308.32
101301.05
101302.66
101301.48
101296.85
101295.04
101303.79
101291.35
101290.14
101290.59
101288.33
101291.35
101287.22
101289.07
101291.93
101278.22
101284.34
101283.96
101273.59
101274.74
101278.79
101276.03
101271.94
101271
101268.56
101280.37
101272.44
101268.3
101265.07
101265.29
101279.76
101269.46
101273.95
101276.54
101279.63
101281.83
101276.96
101273.54
101268.77
101265.29
101270.18
101263.89
101268.96
101273.95
101281.45
101283.45
101281.41
101285.34
101282.61
101286.64
101274.01
101272.97
101288.51
101280.5
101275.46
101278.25
101270.76
101274.48
101270.02
101277.98
101274
101265.29
101258.2
101265.91
101260.78
101256.34
101261.86
101252.19
101260.17
101267.33
101263.12
101270.71
101269.61
101287.03
101293.15
101296.97
101306.61
101293.62
101295.59
101304.99
101305.62
101305.37
101303.28
101303.65
101293.07
101292.49
101283.31
101284.78
101279.97
101277.65
101285.08
101295.32
101296.47
101280.56
101284.71
101283.4
101288.29
101300.48
101295.94
101297.25
101296.56
101290.24
101287.39
101294.96
101295.33
101295.84
101297.22
101302.68
101304.19
101312.59
101303.31
101306.76
101308.57
101308.91
101304.24
101295.92
101293.37
101282.13
101282.39
101289.46
101271.66
101275.18
101256.77
101261.7
101261.87
101267.56
101262.47
101254.9
101247.31
101253.24
101262.68
101256.75
101247.75
101237.1
101247.68
101256.06
101265.41
101267.37
101271.68
101289.47
101282.74
101280.15
101277.15
101278.46
101276.19
101278.94
101280.85
101287.78
101295.71
101296.72
101303.22
101289.26
101287.25
101286.58
101285.07
101289.6
101303.37
101293.72
101297.25
101289.36
101288.49
101297.97
101305.61
101303.82
101310.16
101304.55
101314.9
101306.72
101302.41
101306.19
101314.67
101311.79
101304.44
101302.35
101302.38
101302.09
101300.44
101301.63
101296
101303.07
101306.67
101306.99
101308.31
101299.82
101301.56
101300.89
101307.26
101306.35
101308.64
101309.16
101302.02
101294.61
101285.94
101287.93
101285.81
101277.76
101269.02
101262.57
101256.02
101247.55
101255.9
101247.5
101256.78
101249.78
101238.5
101227.86
101238.59
101249.23
101239.83
101226.4
101216.21
101198.69
101176.26
101203.3
101186.3
101151.19
101156.32
101174.61
101141.83
101172.72
101182.72
101200.33
101211.65
101226.47
101214.74
101235.95
101226.2
101202.67
101216.2
101200.51
101230.23
101249.54
101296.85
101276.17
101253.36
101277.37
101244.19
101246.68
101245.98
101245
101240.02
101276.01
101301.57
101237.37
101245.27
101246.76
101250.07
101278.64
101242.63
101280.25
101242.9
101252.24
101241.37
101205.22
101209.83
101219.82
101226.87
101196.23
101188.85
101175.52
101181.23
101216.19
101207.65
101217.03
101182.66
101174.76
101193.53
101224.56
101210.7
101206.6
101156
101158.89
101155.71
101155.19
101209.45
101199.28
101191.94
101193.21
101205.78
101235.98
101236.19
101234.06
101234.25
101290.54
101220.82
101280.63
101226.75
101229.02
101221.24
101221.19
101205.31
101266.87
101390.36
101273.6
101345.15
101236.53
101239.73
101268.83
101255.3
101331.28
101249.22
101324.92
101345
101289.58
101323.07
101242.54
101236.46
101236.35
101243.26
101288.69
101226.31
101282.9
101244.05
101237.97
101253.06
101266.98
101252.42
101363.36
101385.73
101278.37
101344.12
101234.68
101247.78
101260.14
101262.12
101272.6
101276.65
101263.71
101249.68
101239.87
101209.17
101208.24
101169.45
101169.8
101211.94
101248.54
101248.5
101305.9
101276.03
101275.83
101270.32
101275.06
101280.63
101282.41
101286
101286.58
101286.23
101299.3
101290.17
101285.35
101275.31
101275.75
101269.96
101279.43
101279.38
101283.41
101281.46
101281.55
101294.8
101294.65
101299.39
101297.8
101299.62
101298.21
101297.06
101288.48
101273.75
101274.51
101288.55
101287.07
101275.92
101277.63
101287.27
101294.31
101282.4
101284.07
101296.43
101299.58
101297.82
101300.57
101308.68
101300.39
101290.34
101289.62
101291.5
101289.66
101276.83
101280.07
101280.21
101283.86
101286.88
101296.07
101300.56
101297.32
101301.97
101307.75
101302.9
101306.9
101313.65
101307.04
101307.29
101300.1
101299.55
101297.89
101304.28
101312.83
101303.49
101314.67
101307.37
101317.54
101294.96
101296.13
101297.26
101302.98
101304.13
101302.86
101293.85
101298.84
101295.13
101309.92
101323.4
101291
101294.31
101295.05
101309.82
101317.54
101302.81
101317.77
101317.33
101311.32
101310.87
101317.39
101309.98
101304.71
101306.01
101304.48
101297.12
101293.95
101296.75
101293.18
101284.26
101290.4
101285.25
101289.8
101291.59
101291.13
101288.25
101297.44
101289.49
101297.04
101291.63
101298.89
101296.3
101288.24
101284.87
101283.64
101286.2
101283.97
101290.64
101283.67
101280.72
101277.97
101269.6
101269.58
101263.3
101264.03
101273.88
101265.77
101254.38
101253.39
101264.65
101273.06
101281.4
101296.76
101297.47
101281.52
101281.11
101279.04
101278.46
101280.66
101293.29
101275.97
101280.7
101294.13
101279.72
101276.47
101263.73
101263.68
101272.12
101274.67
101274.92
101269.86
101263.53
101263.33
101253.93
101254.11
101243.67
101242.55
101240.91
101241.38
101254.59
101255.43
101248.19
101258.2
101257.41
101271.58
101271.41
101269.6
101261.95
101262.17
101257.35
101253.04
101252.99
101260.49
101268.68
101251.87
101252.18
101268.28
101260.21
101260.11
101270.95
101268.48
101262.38
101258.27
101259.39
101273.45
101270.88
101263.09
101255.51