/*--------------------------------*- C++ -*----------------------------------*\
  =========                 |
  \\      /  F ield         | OpenFOAM: The Open Source CFD Toolbox
   \\    /   O peration     | Website:  https://openfoam.org
    \\  /    A nd           | Version:  7
     \\/     M anipulation  |
\*---------------------------------------------------------------------------*/
FoamFile
{
    version     2.0;
    format      ascii;
    class       volScalarField;
    location    "110";
    object      k;
}
// * * * * * * * * * * * * * * * * * * * * * * * * * * * * * * * * * * * * * //

dimensions      [0 2 -2 0 0 0 0];

internalField   nonuniform List<scalar> 
25201
(
1130.18
1164.2592
1130.1813
1164.2629
1315.9817
1186.5262
1137.2559
1166.7571
1212.0811
1326.1708
1212.057
1186.5111
1249.0552
1757.3335
1813.0749
1365.6345
1446.7053
1530.8392
1572.96
1778.7295
1629.5858
1620.629
1567.4519
1679.6299
1693.2309
1822.9269
1712.5437
1499.0833
1528.6831
1720.7642
1701.947
1670.3251
1905.2722
1881.2058
1840.9685
1809.2433
1658.6587
1688.3577
1845.6285
1867.7156
1705.9896
1715.7539
1731.0933
1916.2372
1877.8759
1837.4856
1696.6104
1504.0914
1298.6448
1248.9917
1270.0524
1318.8581
1470.4894
1427.6032
1365.6081
1365.9568
1358.1172
1430.3988
1431.5695
1620.024
1571.2925
1510.6396
1511.1601
1502.8055
1515.0474
1376.9607
1440.436
1623.4332
1619.3052
1698.5646
1698.785
1652.3095
1477.9371
1474.6335
1499.6446
1734.236
1695.0125
1675.8447
1670.2216
1643.5211
1606.2449
1558.144
1660.8084
1652.9156
1704.072
1611.2337
1724.6571
1753.6097
1860.2935
1799.8041
1850.6232
1872.3149
1890.3559
1906.9604
1927.0465
1875.8393
1891.3226
1944.3782
2038.6965
1978.7359
1961.3068
2017.4815
1993.8243
1941.3717
1921.0149
1966.5335
2057.2199
2001.1679
1950.0885
1974.7807
2058.7841
2039.2855
2104.2013
2126.4701
2208.366
2140.4736
2122.1932
2186.5979
2164.825
2081.3175
2020.1928
2102.4015
2086.0518
2144.3734
2224.1768
2159.6878
2088.2925
1951.985
1802.6329
1849.7684
1872.247
1882.7745
1840.3083
1830.917
1809.7133
1777.3116
1726.3747
1662.8165
1511.2721
1358.5866
1366.0877
1511.2301
1620.3594
1571.8239
1431.2307
1431.8448
1427.7367
1365.6469
1270.0539
1376.998
1515.0587
1502.7433
1619.5909
1623.5233
1440.5132
1482.7902
1318.9017
1298.8134
1479.0217
1475.0554
1699.3662
1653.2788
1611.9565
1608.2699
1559.8636
1645.8747
1672.7757
1676.9653
1783.1854
1755.312
1704.8191
1653.5496
1760.9889
1681.6331
1671.4494
1753.8409
1760.4939
1772.9709
1918.4272
1900.7823
2009.0432
1977.6869
1985.8872
2039.166
2023.0799
2099.3919
2049.8601
2066.7508
2123.2134
2205.8724
2142.3666
2058.6215
1919.2196
1774.3488
1873.9642
1853.4997
1864.6217
2169.8323
2106.7098
2024.6008
1945.7608
1923.8492
1969.6465
1893.4828
1911.6001
1998.4429
2086.2258
2060.3132
2003.7817
2088.3744
2147.3165
2226.4613
2161.2138
2178.6748
2199.2367
2119.4266
1164.1768
1129.8603
1246.1538
1499.2031
1528.6771
1731.1199
1881.447
1702.0338
1720.8875
1706.0589
1715.7709
1877.8805
1916.2339
1905.2226
1867.8529
1845.8392
1688.4323
1658.7582
1670.5325
1841.1437
1809.4847
1753.812
1620.8249
1446.7816
176.32206
364.54125
521.51771
661.26212
1444.1775
1445.4649
668.6792
527.27055
368.45051
178.49645
179.66787
372.64042
532.71865
674.85315
1448.4062
1449.6101
675.21199
533.10158
373.0602
179.94709
179.90953
372.71623
532.46067
674.30036
1450.138
1450.3476
672.8248
531.28356
371.94085
179.74225
179.72396
371.67419
530.83677
672.20602
1450.4212
1450.5166
671.62978
530.36149
371.3523
179.66366
179.72967
371.41792
530.41935
671.6545
1450.5666
1450.6787
671.45475
530.23518
371.28616
179.71047
179.7903
371.4376
530.42951
671.66014
1450.7434
1450.8559
671.50265
530.27961
371.32773
179.76795
179.84517
371.49862
530.51019
671.7632
1450.9697
1451.1226
671.61583
530.36489
371.38931
179.81622
179.88864
371.56118
530.59834
671.88201
1451.2626
1451.4922
671.775
530.48366
371.47182
179.862
179.94228
371.67794
530.76734
672.10472
1451.7891
1452.2689
672.11873
530.74372
371.64771
179.93141
180.02637
371.90723
531.10676
672.5506
1452.8488
1453.6053
672.71406
531.19207
371.94615
180.03482
180.14373
372.25134
531.62005
673.22651
1454.4775
1455.5359
673.53702
531.82217
372.37029
180.17745
180.31694
372.77287
532.3946
674.23557
1456.8128
1458.3593
674.76234
532.76523
373.00573
180.3873
180.56778
373.53525
533.52721
675.70488
1460.1587
1462.2839
676.49268
534.10309
373.90742
180.68333
180.91076
374.58386
535.08334
677.71594
1464.68
1467.3761
678.8038
535.89362
375.11379
181.0772
181.35382
375.9385
537.08568
680.28719
1470.3322
1473.564
681.7604
538.19074
376.65665
181.57756
181.85954
377.52009
539.44774
683.33213
1476.9594
1480.3112
684.88044
540.58237
378.24691
182.07885
1502.5615
625.31471
491.27996
343.82288
170.67717
170.50133
343.218
490.32178
623.98909
1499.26
1495.5859
622.48094
489.14948
342.42249
170.24716
170.028
341.71389
488.05046
621.02352
1492.1467
1489.0549
619.69343
486.98423
340.96464
169.77558
169.60966
340.43503
486.15975
618.59484
1486.3477
1483.9669
617.57379
485.34152
339.85583
169.41277
169.29812
339.4841
484.7469
616.76602
1481.8636
1480.0746
616.01393
484.13976
339.04833
169.14739
169.07705
338.8108
483.74072
615.45371
1478.5464
1477.281
614.93923
483.31936
338.50062
168.96775
168.93002
338.36158
483.06362
614.55912
1476.1659
1475.2344
614.17849
482.74477
338.11906
168.84176
168.8231
338.04418
482.58752
613.92909
1474.4672
1473.8143
613.67208
482.36131
337.86162
168.75196
168.74617
337.83267
482.27149
613.50806
1473.3052
1473.2053
613.47813
482.20959
337.75268
168.70318
168.71385
337.78002
482.19787
613.40626
1473.0114
1472.8986
613.34014
482.11434
337.68944
168.66582
168.67004
337.71118
482.09907
613.27054
1472.627
1472.4197
613.14888
481.9718
337.59042
168.60738
168.60418
337.61318
481.96748
613.10494
1472.256
1472.1254
613.01767
481.86378
337.50477
168.53722
168.53502
337.56291
481.9193
613.05693
1472.0285
1471.9578
613.16191
481.95927
337.54427
168.48379
168.51937
337.77779
482.28712
613.5553
1471.812
1471.9668
614.41459
482.89897
338.12513
168.56155
168.70901
338.80852
483.92522
615.70956
1471.8838
1471.7399
616.94577
484.80273
339.29013
168.77895
168.6132
339.01157
484.53937
616.70588
1470.918
1469.2271
612.86401
481.28875
336.56728
167.82456
166.70572
331.44184
474.38846
604.58239
1466.5717
1456.4975
577.70794
449.83167
311.99949
160.75361
166.62378
332.07296
475.21881
605.50831
1468.7075
1470.4253
613.34844
481.67969
336.8318
167.6856
168.5691
339.26469
484.89726
617.13697
1471.5876
1471.8988
617.00723
484.86319
339.35506
168.71523
168.66495
338.85354
483.98638
615.78501
1471.9025
1471.7723
614.21379
482.74852
338.04843
168.49864
168.47916
337.75086
482.24864
613.5156
1471.684
1471.6323
612.92047
481.76067
337.42565
168.42355
168.4784
337.4476
481.75495
612.86524
1471.6322
1471.6477
612.62054
481.54072
337.30143
168.45858
168.53113
337.42894
481.70476
612.79385
1471.6439
1471.6941
612.6248
481.54697
337.31722
168.51062
168.58018
337.46361
481.74337
612.84304
1471.7725
1471.9344
612.71197
481.6136
337.36881
168.5579
168.62836
337.5366
481.84522
612.97892
1472.1421
1472.4429
612.90267
481.75615
337.4675
168.60962
168.68644
337.66648
482.03514
613.23159
1472.8325
1473.3562
613.24678
482.01711
337.6449
168.68006
168.77357
337.90381
482.38569
613.69126
1474.0323
1474.9005
613.85142
482.47961
337.95667
168.78877
168.90408
338.2904
482.96055
614.44093
1475.9274
1477.1498
614.78343
483.18513
338.42464
168.94229
169.07151
338.80295
483.73183
615.45662
1478.5939
1480.2344
615.93495
484.06974
339.01752
169.13745
169.31107
339.53066
484.8185
616.87043
1482.1533
1484.385
617.6205
485.37036
339.89027
169.42473
169.64557
340.54833
486.33107
618.82542
1486.9156
1489.7865
619.89459
487.13129
341.07562
169.81347
170.08795
341.89202
488.31765
621.37677
1492.9784
1496.5211
622.80426
489.41165
342.62401
170.32174
170.65389
343.63773
490.88423
624.63914
1500.3182
1504.3684
626.49834
492.29172
344.54554
170.93251
171.15324
345.25638
493.35951
627.90468
1508.6332
180.22021
371.86765
530.98072
672.78769
1472.4665
1468.0552
671.05227
529.68887
371.01771
179.95691
179.63808
370.00673
528.15426
669.05554
1463.6894
1459.6641
667.16169
526.63804
368.94431
179.28516
179.02054
368.11274
525.3739
665.51496
1456.0791
1452.8897
664.00118
524.15831
367.25558
178.72895
178.53352
366.64037
523.20557
662.74158
1450.0175
1447.4835
661.57329
522.26675
365.97407
178.30573
178.16671
365.52747
521.556
660.61412
1445.222
1443.5279
659.84178
520.92193
365.06384
178.00389
177.91856
364.77555
520.43793
659.16299
1441.8686
1440.484
658.53236
519.92074
364.39495
177.78533
177.7318
364.20702
519.59061
658.05761
1439.2616
1438.2247
657.58585
519.19631
363.90829
177.6238
177.59585
363.80565
518.9945
657.27897
1437.4212
1436.8409
657.00645
518.75166
363.60638
177.51713
177.51259
363.58129
518.66244
656.84133
1436.3506
1435.9793
656.66276
518.49322
363.43215
177.44792
177.45555
363.45457
518.47596
656.59235
1435.7204
1435.5075
656.47717
518.35532
363.33751
177.39745
177.40844
363.38509
518.3772
656.45941
1435.3826
1435.2665
656.38279
518.28449
363.28518
177.34996
177.35868
363.34857
518.33255
656.40131
1435.238
1435.2463
656.39352
518.28996
363.27909
177.30054
177.31043
363.38213
518.39938
656.49139
1435.2427
1435.2953
656.67579
518.50371
363.40702
177.26701
177.32023
363.71677
518.92759
657.17659
1435.2587
1435.5404
658.18498
519.67004
364.15885
177.38014
177.55509
364.99002
520.88711
659.69174
1435.6218
1435.638
661.04318
521.87273
365.54989
177.60684
177.38302
365.40438
521.77395
660.98698
1435.3062
1434.4443
657.20052
518.58415
363.0599
176.42577
175.19236
359.32294
513.09887
650.23885
1433.2918
1445.92
662.20532
522.50832
365.35638
175.52216
178.26522
367.89019
526.58279
667.96379
1445.1111
1447.7114
674.42771
532.36804
372.39908
179.49719
179.90062
372.96597
532.93858
674.95998
1448.5812
1449.027
673.71739
531.97325
372.37234
179.77107
179.69972
371.82428
531.08555
672.52786
1449.1977
1449.3139
671.57039
530.30198
371.29568
179.58448
179.61881
371.21354
530.13142
671.29475
1449.4139
1449.4562
670.99044
529.86436
371.02693
179.59017
179.66811
371.14815
530.00705
671.12184
1449.5497
1449.6246
671.00668
529.87882
371.04749
179.65219
179.72376
371.18251
530.04444
671.16683
1449.6842
1449.7896
671.07449
529.93162
371.09003
179.70209
179.76925
371.23443
530.11683
671.26655
1449.9535
1450.1122
671.17198
530.00517
371.14377
179.74334
179.81613
371.31967
530.24017
671.43282
1450.3774
1450.6958
671.41814
530.19152
371.27151
179.80071
179.8895
371.50539
530.51208
671.78826
1451.2099
1451.8611
671.93883
530.5858
371.53645
179.89654
180.00472
371.83546
531.00136
672.42826
1452.7173
1453.7414
672.73358
531.20063
371.95346
180.03882
180.17964
372.35966
531.77819
673.43578
1455.0042
1456.4503
673.95521
532.1387
372.58341
180.24616
180.41443
373.07525
532.8424
674.81767
1458.1382
1460.0523
675.5431
533.36498
373.40883
180.51711
180.72852
374.0314
534.26221
676.65355
1462.2493
1464.7686
677.65457
535.00957
374.5226
180.88439
181.16006
375.34307
536.19911
679.13847
1467.6664
1470.8968
680.50366
537.23442
376.03031
181.37957
181.7145
377.03578
538.69313
682.3237
1474.4971
1478.3346
684.09793
540.03708
377.91731
181.99108
182.32215
378.92645
541.51179
685.94766
1482.3277
1486.2305
687.73459
542.8251
379.76957
182.5794
180.19466
371.78727
530.85849
672.62787
1472.0858
1467.9597
671.00791
529.64524
370.98308
179.94387
179.63302
369.99502
528.14041
669.0432
1463.6988
1459.7614
667.16825
526.63981
368.94414
179.28466
179.0222
368.11704
525.38145
665.52632
1456.1324
1452.938
663.98118
524.14186
367.24478
178.72641
178.53169
366.63315
523.19701
662.73338
1450.0362
1447.5571
661.55223
522.24824
365.96081
178.30213
178.16993
365.53807
521.57699
660.64797
1445.366
1443.52
659.76897
520.8679
365.03003
177.99456
177.91195
364.75579
520.41308
659.1372
1441.8675
1440.5192
658.50009
519.89314
364.37522
177.77887
177.73106
364.20654
519.59366
658.06621
1439.3221
1438.3854
657.63267
519.22795
363.9271
177.62922
177.60911
363.84836
519.06073
657.36699
1437.6391
1437.1966
657.13564
518.84844
363.66954
177.53716
177.53992
363.66602
518.7901
657.00674
1436.7337
1436.4369
656.85636
518.6409
363.53011
177.47973
177.49199
363.56596
518.6418
656.80463
1436.1904
1436.1024
656.74678
518.56097
363.47357
177.44149
177.45429
363.52361
518.58146
656.71815
1435.9419
1435.842
656.67255
518.50626
363.4328
177.39841
177.4067
363.49279
518.54532
656.67121
1435.8284
1435.7708
656.6239
518.46956
363.40102
177.34175
177.34771
363.49221
518.56158
656.69729
1435.6982
1435.666
656.83231
518.62535
363.48991
177.29568
177.35071
363.80844
519.06584
657.35744
1435.7043
1435.9113
658.31609
519.77128
364.228
177.40407
177.58091
365.06799
521.0027
659.84202
1436.0043
1436.0484
661.18318
521.98051
365.62392
177.63278
177.39429
365.44796
521.84251
661.07889
1435.6309
1434.6863
657.18425
518.57303
363.05821
176.43253
175.04133
359.20043
512.98592
650.13853
1433.9169
1470.442
606.917
476.7292
333.44307
166.31601
167.71381
336.84609
481.6161
613.25918
1470.688
1472.1464
617.31077
485.00751
339.31732
168.54862
168.82417
339.64876
485.26509
617.47322
1472.6202
1472.7086
616.02406
484.13847
338.94009
168.68904
168.60978
338.3594
483.19221
614.74503
1472.6057
1472.5141
613.73607
482.38338
337.82479
168.50038
168.52827
337.71719
482.17339
613.40938
1472.5121
1472.4908
613.06737
481.88857
337.52805
168.50303
168.58142
337.65138
482.03844
613.21379
1472.5313
1472.6012
613.11519
481.9272
337.56647
168.57255
168.64026
337.69137
482.08203
613.26729
1472.6991
1472.7903
613.18651
481.98113
337.61021
168.62356
168.68397
337.73432
482.1367
613.34
1472.8848
1473.033
613.29237
482.05718
337.66432
168.6647
168.72274
337.795
482.22375
613.46105
1473.2526
1473.5685
613.45989
482.18081
337.74962
168.70791
168.77598
337.92221
482.41261
613.71631
1473.9821
1474.5372
613.80412
482.43875
337.92313
168.77358
168.85828
338.15573
482.76387
614.18679
1475.3049
1476.2237
614.36805
482.87159
338.21607
168.87457
168.99044
338.55416
483.3608
614.97194
1477.3635
1478.7254
615.32826
483.60364
338.70461
169.03481
169.18341
339.14341
484.24346
616.12655
1480.3343
1482.218
616.71119
484.6677
339.41765
169.26928
169.46372
339.99656
485.51467
617.77517
1484.4004
1486.891
618.64342
486.15992
340.42033
169.59783
169.83894
341.14157
487.21249
619.96514
1489.687
1492.7689
621.13491
488.09948
341.73132
170.02777
170.31983
342.617
489.39128
622.7524
1496.1149
1499.6734
624.28726
490.53898
343.35928
170.54624
170.80648
344.15904
491.70933
625.75629
1503.3548
1507.1673
627.37962
492.90276
344.92548
171.04007
1485.2838
686.95281
542.20854
379.35231
182.44365
182.19465
378.55416
540.98144
685.30939
1481.389
1477.7982
683.74476
539.74301
377.69556
181.91091
181.65278
376.85345
538.43006
681.99139
1473.9816
1470.4575
680.42503
537.16981
375.9653
181.35446
181.13554
375.26668
536.08179
678.97595
1467.3855
1464.577
677.72434
535.06983
374.54558
180.88986
180.72709
374.01851
534.23347
676.59522
1462.1024
1459.9229
675.65273
533.46453
373.46258
180.53504
180.42381
373.09365
532.86059
674.81962
1458.1022
1456.5588
674.2013
532.34113
372.70326
180.28479
180.21812
372.469
531.93223
673.61124
1455.3017
1454.2119
673.19403
531.56928
372.18404
180.11284
180.0767
372.0472
531.30479
672.78975
1453.3627
1452.6194
672.51383
531.05291
371.83752
179.99457
179.97962
371.77115
530.89336
672.24627
1452.0357
1451.5271
672.04461
530.70043
371.60211
179.909
179.90906
371.59226
530.62897
671.89689
1451.1867
1450.9177
671.79693
530.51384
371.47451
179.8517
179.86101
371.50435
530.502
671.72702
1450.7676
1450.6163
671.67492
530.42331
371.41039
179.80695
179.8148
371.45236
530.4312
671.63256
1450.5438
1450.4268
671.5895
530.35772
371.36025
179.75451
179.75617
371.4099
530.3813
671.57181
1450.3801
1450.3083
671.66572
530.40572
371.37681
179.70258
179.71829
371.51191
530.55804
671.80939
1450.3694
1450.2939
672.23324
530.84258
371.65081
179.69924
179.80294
372.1385
531.53309
673.06907
1450.2166
1450.0113
674.37666
532.51538
372.73366
179.88666
180.00409
373.30136
533.40543
675.51529
1449.514
1448.4671
675.07941
532.89244
372.74291
179.5981
178.36213
368.36477
527.15754
668.57234
1445.548
1445.7738
662.64841
522.94415
365.72438
175.71352
176.27498
364.89178
521.97625
661.76154
1444.8121
1445.697
668.91849
527.48706
368.61572
178.42944
179.56825
372.5713
532.59561
674.67715
1448.0107
1448.835
675.07187
532.99652
372.98756
179.877
179.8255
372.5436
532.18561
673.92411
1449.1496
1449.2536
672.58416
531.09976
371.81577
179.67913
179.64077
371.45938
530.50323
671.76141
1449.327
1449.4001
671.28281
530.09638
371.17426
179.5937
179.64662
371.18368
530.05898
671.17824
1449.4223
1449.4428
671.096
529.95515
371.09352
179.63913
179.69751
371.16485
530.01494
671.11849
1449.4834
1449.4997
671.08762
529.95098
371.09968
179.68694
179.74221
371.18881
530.04131
671.15376
1449.5781
1449.7264
671.15159
529.99989
371.1387
179.72989
179.79021
371.26197
530.14515
671.29248
1449.9209
1450.2107
671.35618
530.15272
371.24356
179.78358
179.85316
371.40617
530.35582
671.56979
1450.5879
1451.1025
671.75743
530.4566
371.44813
179.86264
179.94695
371.66287
530.73654
672.07037
1451.7877
1452.6567
672.38972
530.9446
371.7802
179.97967
180.09592
372.10139
531.38544
672.91222
1453.7081
1454.9798
673.43476
531.74481
372.31652
180.1576
180.29392
372.7021
532.27994
674.07802
1456.395
1458.0648
674.77391
532.77595
373.01016
180.3857
180.5596
373.51182
533.48562
675.64416
1459.9864
1462.2132
676.57283
534.16858
373.94939
180.69495
180.92322
374.61804
535.12628
677.76142
1464.7412
1467.6282
679.00582
536.06378
375.23292
181.11782
181.41457
376.10893
537.32289
680.57265
1470.8529
1474.4582
682.22467
538.58894
376.95091
181.68335
182.05079
378.05697
540.17779
684.19524
1478.4318
1482.628
686.31595
541.78269
379.09238
182.37223
182.60761
379.83429
542.88375
687.75411
1486.5601
1191.1878
1215.0773
1191.1873
1215.0565
1280.6449
1229.1024
1190.9665
1224.9704
1257.6499
1229.1316
1337.9128
1350.2556
1257.6548
1303.7819
1387.3486
1387.3508
1375.9698
1509.8118
1521.8339
1628.3099
1449.4093
1436.6011
1624.7686
1703.4844
1478.2189
1323.9251
1345.7618
1487.1262
1446.4903
1457.0948
1397.3605
1525.9114
1516.0852
1628.6347
1630.442
1707.5719
1497.085
1520.9933
1510.4104
1514.7668
1490.6989
1706.1791
1741.3287
1738.5358
1501.5222
1507.1868
1494.4006
1470.7104
1698.842
1701.9685
1737.0807
1733.955
1734.9077
1696.34
1505.3569
1500.1842
1500.1935
1298.8296
1164.1874
1129.8676
1186.4006
1249.0908
1431.5537
647.53873
510.84447
357.71302
175.13733
176.33471
361.91025
516.90166
655.13776
1432.2755
1433.2998
659.11663
520.19823
364.28243
177.16094
177.49432
364.8774
520.88642
659.83433
1433.8235
1434.0562
658.46356
519.84075
364.23998
177.36786
177.29155
363.7208
519.00416
657.34923
1434.1345
1434.2534
656.28772
518.16484
363.17021
177.16777
177.21439
363.14778
518.09221
656.15013
1434.3767
1434.5343
655.85904
517.83844
362.97377
177.18719
177.26843
363.11641
518.01689
656.039
1434.6756
1434.8184
655.88968
517.87447
363.01371
177.25171
177.33111
363.18409
518.1041
656.14886
1434.9683
1435.0817
655.98291
517.95071
363.07391
177.30503
177.3818
363.25647
518.20335
656.27797
1435.2597
1435.4997
656.13783
518.06984
363.15967
177.35547
177.4393
363.37802
518.37826
656.50629
1435.7927
1436.1799
656.45776
518.30865
363.31957
177.42089
177.50808
363.55508
518.64086
656.85567
1436.6699
1437.2802
656.89418
518.64434
363.54908
177.5054
177.61973
363.87591
519.11378
657.4699
1438.0908
1439.0715
657.70703
519.26307
363.96314
177.64433
177.77781
364.35063
519.81805
658.38595
1440.2139
1441.6067
658.8277
520.12208
364.53967
177.83396
177.997
365.0191
520.813
659.67998
1443.1967
1445.0364
660.32844
521.28251
365.32232
178.09118
178.30185
365.94723
522.18954
661.45903
1447.2211
1449.7214
662.38796
522.88911
366.41148
178.4503
178.72581
367.23547
524.09031
663.89531
1452.5776
1455.7887
665.22122
525.09673
367.90516
178.94037
179.27318
368.9015
526.54134
667.02184
1459.3425
1463.2285
668.78745
527.88851
369.792
179.55581
179.90636
370.8596
529.45071
670.74723
1467.3955
1471.7939
672.6603
530.86748
371.77328
180.18521
179.69765
370.2596
528.59133
669.71903
1465.6152
1462.2436
668.38017
527.5787
369.57729
179.48353
179.22064
368.73634
526.29049
666.69107
1458.6311
1455.2658
665.09138
525.00197
367.82572
178.91529
178.706
367.16803
523.99055
663.76016
1452.343
1449.7399
662.60309
523.04874
366.49257
178.47454
178.33058
366.02683
522.3074
661.59674
1447.5474
1445.5502
660.69497
521.57285
365.49678
178.14807
178.04988
365.17003
521.03321
659.94375
1443.7692
1442.33
659.31824
520.51367
364.78497
177.91446
177.85775
364.58269
520.15291
658.78961
1441.0074
1439.8625
658.30504
519.74512
364.27376
177.74688
177.7119
364.14362
519.49654
657.92682
1438.9147
1438.1398
657.60449
519.21008
363.91317
177.62445
177.61324
363.86204
519.07876
657.37795
1437.5728
1437.1115
657.24393
518.93195
363.72184
177.55195
177.56153
363.74078
518.90217
657.14322
1436.9846
1436.66
656.96605
518.73157
363.59058
177.49632
177.50242
363.61148
518.71121
656.88837
1436.3535
1436.1456
656.7732
518.5825
363.48496
177.43949
177.44225
363.51062
518.56988
656.70625
1435.9502
1435.9149
656.67291
518.49716
363.41639
177.38237
177.38327
363.45766
518.50851
656.63596
1435.8007
1435.6114
656.57362
518.41574
363.3504
177.31092
177.32428
363.47305
518.56286
656.72603
1435.4985
1435.4019
657.10322
518.80768
363.5845
177.30324
177.41636
364.08427
519.53064
657.99519
1435.3733
1435.2947
659.32237
520.51892
364.68031
177.51965
177.64549
365.2862
521.48265
660.57211
1435.045
1434.2646
660.15896
521.0033
364.79027
177.3651
176.59487
362.50212
517.80635
656.28843
1432.7358
1430.2206
648.78013
511.6026
358.00381
175.37717
172.26853
347.95958
498.0459
633.07757
1423.7546
1442.713
676.9116
535.81538
375.78112
184.95881
175.62944
365.19927
522.08111
661.42573
1443.4594
1442.6285
666.37046
525.34313
367.08464
178.16899
179.46807
371.97199
531.68548
673.51231
1445.9008
1447.1823
673.90877
532.06815
372.36079
179.78083
179.76369
372.13675
531.60125
673.21204
1447.9599
1448.3185
671.83166
530.49514
371.40538
179.60404
179.58985
371.18024
530.11046
671.29017
1448.5806
1448.7256
670.7806
529.67954
370.88362
179.53053
179.58735
370.93318
529.7068
670.7548
1448.7325
1448.7477
670.62198
529.56212
370.82053
179.56859
179.63402
370.93199
529.68886
670.72908
1448.8733
1449.0367
670.59802
529.55751
370.834
179.61321
179.69159
371.01315
529.79827
670.8677
1449.1735
1449.3277
670.75885
529.68246
370.92288
179.66726
179.74257
371.1052
529.92818
671.03702
1449.561
1449.9603
670.99357
529.86152
371.04787
179.72534
179.81429
371.2842
530.19176
671.38397
1450.3904
1450.9334
671.42615
530.19237
371.27244
179.80949
179.91584
371.56874
530.61099
671.92987
1451.6524
1452.5521
672.1212
530.72907
371.63686
179.93527
180.06963
372.02619
531.28863
672.80945
1453.654
1454.915
673.18212
531.5445
372.18429
180.11633
180.27305
372.64387
532.20744
674.0042
1456.3859
1458.0688
674.56816
532.61289
372.90341
180.35276
180.54879
373.48226
533.44938
675.60689
1459.9549
1462.1768
676.47109
534.08521
373.89547
180.67814
180.92023
374.61441
535.12605
677.76758
1464.7503
1467.6348
678.90781
535.99022
375.18867
181.10339
181.40944
376.10539
537.32204
680.57581
1470.8011
1474.2591
682.09698
538.48548
376.8815
181.65771
182.02068
377.96031
540.02851
683.99574
1477.8798
1481.5457
686.12448
541.6349
379.00298
182.34915
182.57987
379.69734
542.55842
687.2712
1485.1074
179.67125
370.17745
528.47396
669.57023
1465.3283
1462.0689
668.22976
527.44905
369.48148
179.45011
179.18578
368.64337
526.16617
666.54941
1458.5261
1455.2125
665.05163
524.95954
367.79104
178.89843
178.70645
367.17787
524.00515
663.78058
1452.3875
1449.8288
662.64782
523.09019
366.52626
178.48557
178.35224
366.08967
522.39139
661.69477
1447.6309
1445.5709
660.74865
521.63211
365.54918
178.16887
178.07494
365.23291
521.11577
660.03654
1443.7686
1442.2197
659.26727
520.48964
364.77795
177.91866
177.85042
364.55329
520.11251
658.74091
1440.8613
1439.7182
658.15597
519.63138
364.19779
177.72241
177.68924
364.08195
519.41173
657.8284
1438.7466
1437.9349
657.5139
519.13541
363.86083
177.60585
177.60023
363.82563
519.02937
657.32175
1437.4905
1437.1382
657.16814
518.87386
363.68352
177.53969
177.54906
363.70031
518.84323
657.07016
1436.8407
1436.4829
656.83379
518.63247
363.52656
177.47743
177.48092
363.54085
518.60814
656.75987
1436.0948
1435.8394
656.57212
518.42908
363.38412
177.40924
177.4138
363.41847
518.43781
656.5446
1435.646
1435.5907
656.44399
518.32244
363.30087
177.34816
177.35215
363.35302
518.35794
656.45057
1435.4477
1435.3144
656.36633
518.25462
363.24199
177.28023
177.29815
363.37637
518.42347
656.55391
1435.1654
1435.1859
656.93906
518.67911
363.49744
177.28226
177.3995
364.00276
519.41098
657.84551
1435.0827
1435.0032
659.13548
520.37495
364.58533
177.50181
177.63238
365.19604
521.3461
660.39934
1434.7208
1433.8706
660.01661
520.8936
364.72327
177.36358
176.60052
362.4662
517.73421
656.18916
1432.4961
1430.0884
648.83256
511.66504
358.07082
175.40853
172.56296
349.03487
499.33487
634.45852
1424.0135
1456.4151
582.97056
454.80464
315.99727
162.55705
178.57741
361.05854
515.99024
654.07269
1438.9432
1442.5752
655.85024
517.8286
362.95204
179.2438
175.01626
357.93318
511.22812
648.0514
1432.2378
1432.6585
655.27617
516.99374
361.97108
176.3124
177.21364
364.52083
520.54711
659.53664
1433.5658
1434.0036
659.83915
520.86322
364.84952
177.45792
177.42549
364.44685
520.1245
658.78657
1434.1957
1434.1966
657.30936
518.94751
363.67003
177.25671
177.22848
363.36497
518.43038
656.58476
1434.2514
1434.3402
656.08656
518.01183
363.07724
177.17746
177.23668
363.11849
518.02425
656.04365
1434.4541
1434.5863
655.93499
517.90798
363.02894
177.22967
177.30644
363.16887
518.07838
656.10371
1434.747
1434.8986
656.0428
517.99902
363.10208
177.29648
177.36906
363.25502
518.194
656.24845
1435.0476
1435.2157
656.22035
518.13196
363.19386
177.35321
177.41359
363.32374
518.2925
656.38282
1435.4013
1435.6931
656.36944
518.24343
363.27272
177.39753
177.46912
363.44885
518.47472
656.6236
1435.9926
1436.4693
656.72136
518.50895
363.45121
177.46688
177.55028
363.66992
518.80315
657.05862
1437.074
1437.9238
657.27476
518.93622
363.7433
177.57043
177.68922
364.07959
519.40963
657.84703
1438.9061
1440.1166
658.26526
519.69561
364.25321
177.73984
177.88518
364.67308
520.29096
658.99117
1441.5398
1443.1852
659.6337
520.74658
364.95827
177.97098
178.1493
365.47734
521.48512
660.53701
1445.0541
1447.2225
661.44607
522.14827
365.90276
178.28118
178.50874
366.57162
523.10787
662.63187
1449.7833
1452.6624
663.8206
524.0048
367.16392
178.69744
178.9991
368.06111
525.30195
665.43801
1455.9146
1459.5147
667.04608
526.53188
368.88101
179.26208
179.63594
369.99619
528.13402
669.02541
1463.5147
1467.7941
671.19696
529.79211
371.07803
179.97613
180.23777
371.91296
531.04106
672.83431
1472.2193
1509.6899
628.1963
493.53644
345.34514
171.17495
170.94104
344.56015
492.29877
626.50254
1505.1489
1500.6348
624.64986
490.85153
343.57615
170.62314
170.35046
342.70653
489.51683
622.8964
1496.5036
1492.7329
621.31357
488.25073
341.82108
170.05382
169.83769
341.13521
487.19093
619.91167
1489.4064
1486.4753
618.70021
486.21729
340.44746
169.60417
169.44789
339.94398
485.4225
617.63062
1483.8817
1481.7904
616.76557
484.71872
339.43771
169.27304
169.16595
339.08159
484.13668
615.96161
1479.7612
1478.0021
615.25022
483.55738
338.66247
169.02095
168.94665
338.41023
483.13395
614.65593
1476.4854
1475.2231
614.14721
482.71051
338.09416
168.83378
168.78965
337.93833
482.43059
613.73806
1474.1534
1473.3656
613.44033
482.16724
337.72713
168.7086
168.69282
337.66305
482.02211
613.20194
1472.7579
1472.1899
613.0899
481.89775
337.54232
168.63846
168.641
337.53995
481.8406
612.95771
1472.0689
1471.8115
612.92066
481.77419
337.45784
168.5965
168.60297
337.47787
481.75093
612.83235
1471.6829
1471.4749
612.73686
481.64485
337.37174
168.54747
168.54375
337.3795
481.61118
612.64709
1471.1992
1471.0605
612.57589
481.5182
337.27744
168.48185
168.47473
337.3018
481.515
612.53073
1470.9196
1470.8284
612.60276
481.52491
337.26179
168.421
168.42879
337.37224
481.65376
612.72578
1470.858
1470.763
613.11982
481.9129
337.49336
168.40738
168.49815
337.93849
482.56201
613.92516
1470.7219
1470.7032
615.23334
483.52898
338.51419
168.58367
168.70766
339.11298
484.47127
616.45962
1470.5828
1470.2675
616.27506
484.18009
338.72718
168.42625
167.64297
336.09428
480.52366
611.93268
1468.9576
1469.1213
605.76947
475.76454
332.70172
166.19502
1458.3845
576.36442
448.97054
311.66024
160.09456
166.46678
330.63804
473.12002
602.94524
1466.1432
1467.7386
611.39624
480.13676
335.81112
167.57056
168.4499
338.452
483.69223
615.62661
1469.1427
1469.7802
615.89272
483.96914
338.74361
168.62053
168.58307
338.37431
483.28302
614.9036
1470.1347
1470.2749
613.60849
482.24945
337.698
168.43625
168.40862
337.41204
481.75465
612.90031
1470.4339
1470.5663
612.42371
481.36264
337.15203
168.36437
168.42736
337.21801
481.4153
612.43425
1470.6849
1470.8016
612.3427
481.31438
337.14287
168.42368
168.49658
337.27773
481.47745
612.49967
1470.9487
1471.0915
612.49432
481.43154
337.23074
168.49104
168.5506
337.34447
481.56346
612.60876
1471.2061
1471.3838
612.61779
481.52668
337.30169
168.54042
168.59873
337.42786
481.68185
612.76804
1471.6479
1471.97
612.78539
481.6592
337.39807
168.58995
168.66211
337.58086
481.90473
613.06001
1472.3982
1472.9038
613.18127
481.95515
337.59534
168.66372
168.74157
337.80019
482.22961
613.48788
1473.5167
1474.3572
613.73966
482.37864
337.87988
168.7621
168.86082
338.15664
482.76493
614.19548
1475.3901
1476.5635
614.54931
483.00201
338.29972
168.90195
169.03306
338.68115
483.54761
615.21623
1477.9606
1479.5736
615.77722
483.94304
338.92853
169.10713
169.26918
339.40355
484.62601
616.61971
1481.4645
1483.6982
617.41462
485.20874
339.78066
169.38655
169.60228
340.42273
486.14177
618.57995
1486.2534
1489.1758
619.68731
486.96975
340.96588
169.77373
170.04596
341.77983
488.1528
621.16636
1492.4563
1496.098
622.64755
489.27945
342.5275
170.28423
170.62398
343.54731
490.75307
624.47437
1500.0998
1504.3679
626.48011
492.27684
344.53469
170.93179
171.16461
345.2851
493.40161
627.95887
1508.7655
182.57229