/*--------------------------------*- C++ -*----------------------------------*\
  =========                 |
  \\      /  F ield         | OpenFOAM: The Open Source CFD Toolbox
   \\    /   O peration     | Website:  https://openfoam.org
    \\  /    A nd           | Version:  7
     \\/     M anipulation  |
\*---------------------------------------------------------------------------*/
FoamFile
{
    version     2.0;
    format      ascii;
    class       volScalarField;
    location    "110";
    object      p;
}
// * * * * * * * * * * * * * * * * * * * * * * * * * * * * * * * * * * * * * //

dimensions      [1 -1 -2 0 0 0 0];

internalField   nonuniform List<scalar> 
25201
(
101315.62
101314.92
101315.65
101315.02
101314.01
101314.11
101314.35
101314.58
101314.2
101313.84
101314.18
101314.05
101313.72
101317.45
101318.79
101312.69
101313.85
101314.23
101310.54
101316.27
101313.21
101314.81
101312.31
101317.33
101316.52
101314.62
101314.1
101313.79
101315
101314.88
101315.24
101312.63
101321.38
101319.68
101317.8
101319.27
101314.16
101316.16
101321
101322.41
101315.77
101316.72
101316.25
101322.43
101323.28
101323.15
101319.06
101317.02
101314.19
101313.87
101313.85
101313.98
101315.39
101315.09
101314.5
101313.88
101313.9
101315.42
101314.87
101316.86
101313.28
101316.21
101315.38
101315.57
101313.21
101313.14
101313.15
101314.05
101315.8
101316.55
101318.07
101314.62
101315.82
101315.13
101315.77
101319
101315.74
101316.29
101318.28
101316.17
101316.62
101314.3
101318.78
101317.36
101319.86
101315.63
101318.82
101317.82
101314.53
101315.99
101313.61
101321.03
101318.38
101319.93
101318.07
101311.73
101311.57
101318.25
101321.29
101320.81
101320.37
101321.89
101322.69
101322.08
101320.23
101324.17
101323.91
101318.3
101321.85
101322.52
101318.76
101318.35
101324.38
101323.99
101328.65
101328.56
101326.41
101328.7
101328.56
101324.51
101320.37
101328.77
101325.37
101327.81
101330.46
101323.93
101323.34
101321.76
101315.86
101320.47
101321.86
101322.77
101323.12
101322.25
101321.26
101319.58
101318.6
101318.54
101316.08
101313.73
101313.81
101315.34
101316.84
101313.15
101315.19
101314.79
101315.08
101314.45
101313.8
101313.12
101313.21
101315.55
101315.83
101314.09
101313.16
101313.3
101313.94
101313.92
101315.49
101315.01
101318.1
101314.42
101315.5
101316.33
101313.97
101315.77
101317.92
101316.17
101322.01
101319.49
101319.81
101317.32
101316.77
101316.63
101316.62
101318.15
101316.8
101318.24
101324.01
101321.18
101323.67
101317.2
101320.76
101325.62
101321.95
101327.77
101323.32
101327.68
101327.73
101329.6
101325.94
101323.96
101323.88
101318.04
101320.91
101313.42
101314.03
101328.39
101328.49
101319.94
101321.69
101320.19
101323.99
101318.08
101319.52
101322.37
101324.24
101323.75
101318.15
101325.31
101327.73
101330.46
101323.92
101326.33
101324.19
101322.97
101315.04
101315.65
101313.08
101313.86
101315.03
101316.27
101319.78
101315.37
101314.96
101315.79
101316.75
101323.29
101322.44
101321.43
101322.43
101321.04
101316.23
101314.22
101312.81
101317.95
101319.33
101317.9
101314.91
101313.97
101340.45
101340.72
101340.82
101341.74
101361.33
101412.03
101410.27
101409.27
101408.19
101407.33
101374.66
101374.72
101374.65
101374.77
101377.67
101373.63
101372.57
101372.41
101372.28
101372.2
101358.83
101358.87
101358.91
101359.01
101360.27
101353
101352.13
101352.05
101351.99
101351.95
101344.87
101344.9
101344.94
101345.01
101345.73
101340.36
101339.86
101339.81
101339.77
101339.74
101335.25
101335.27
101335.3
101335.34
101335.73
101331.96
101331.68
101331.64
101331.62
101331.6
101328.48
101328.49
101328.51
101328.54
101328.75
101326.04
101325.87
101325.85
101325.83
101325.82
101323.53
101323.54
101323.55
101323.57
101323.69
101321.65
101321.56
101321.54
101321.53
101321.53
101319.75
101319.76
101319.77
101319.78
101319.84
101318.23
101318.19
101318.18
101318.17
101318.17
101316.73
101316.73
101316.74
101316.74
101316.76
101315.42
101315.42
101315.41
101315.41
101315.41
101314.19
101314.19
101314.19
101314.2
101314.18
101313.02
101313.04
101313.04
101313.04
101313.04
101311.93
101311.93
101311.93
101311.93
101311.9
101310.83
101310.88
101310.88
101310.88
101310.88
101309.88
101309.88
101309.87
101309.87
101309.81
101308.77
101308.83
101308.84
101308.84
101308.84
101307.84
101307.84
101307.83
101307.83
101307.77
101306.78
101306.85
101306.86
101306.86
101306.86
101305.89
101305.89
101305.89
101305.88
101305.79
101304.75
101304.85
101304.86
101304.86
101304.86
101303.7
101303.7
101303.7
101303.7
101303.62
101302.69
101302.68
101302.67
101302.67
101302.65
101302.26
101302.25
101302.23
101302.21
101301.98
101300.49
101300.61
101300.63
101300.64
101300.65
101300.58
101300.83
101300.86
101300.89
101300.92
101302.38
101302.36
101302.34
101302.32
101302.04
101302.75
101302.68
101302.67
101302.66
101302.65
101303.39
101303.41
101303.42
101303.43
101303.51
101304.66
101304.76
101304.76
101304.76
101304.76
101305.8
101305.8
101305.8
101305.8
101305.72
101306.71
101306.77
101306.77
101306.77
101306.76
101307.75
101307.75
101307.75
101307.75
101307.69
101308.71
101308.78
101308.78
101308.78
101308.79
101309.81
101309.81
101309.8
101309.8
101309.75
101310.77
101310.8
101310.8
101310.8
101310.8
101311.84
101311.84
101311.84
101311.84
101311.83
101312.95
101312.97
101312.97
101312.97
101312.96
101314.1
101314.1
101314.1
101314.1
101314.11
101315.33
101315.3
101315.3
101315.29
101315.29
101316.58
101316.58
101316.58
101316.59
101316.65
101318.09
101318
101317.99
101317.99
101317.98
101319.53
101319.53
101319.54
101319.55
101319.67
101321.44
101321.28
101321.26
101321.25
101321.25
101323.18
101323.19
101323.21
101323.22
101323.43
101325.72
101325.44
101325.42
101325.41
101325.39
101327.94
101327.95
101327.97
101328
101328.35
101331.45
101330.99
101330.95
101330.93
101330.91
101334.37
101334.39
101334.42
101334.46
101335.07
101339.51
101338.71
101338.65
101338.62
101338.59
101343.36
101343.4
101343.44
101343.51
101344.61
101351.46
101350.07
101349.99
101349.94
101349.9
101356.28
101356.33
101356.38
101356.47
101358.32
101370.35
101368.31
101368.17
101368.11
101368.03
101373.16
101373.22
101373.27
101373.43
101375.77
101401.34
101394.33
101393.74
101393.32
101392.97
101373.39
101374.46
101375.27
101376.01
101380.76
101401.69
101276.38
101259.44
101242.92
101224.62
101420.92
101421.93
101423.11
101423.89
101424.06
101427.26
101421.05
101420.58
101420.3
101420.13
101391.94
101391.9
101391.93
101391.98
101392.8
101381.87
101380.67
101380.61
101380.58
101380.58
101365.09
101365.09
101365.1
101365.14
101366.3
101357.23
101356.34
101356.29
101356.27
101356.26
101348.1
101348.11
101348.13
101348.17
101348.9
101342.75
101342.25
101342.22
101342.2
101342.19
101337.14
101337.15
101337.17
101337.19
101337.57
101333.41
101333.13
101333.11
101333.1
101333.09
101329.66
101329.67
101329.68
101329.69
101329.9
101326.96
101326.8
101326.79
101326.78
101326.78
101324.3
101324.31
101324.31
101324.32
101324.44
101322.26
101322.18
101322.17
101322.16
101322.16
101320.28
101320.28
101320.28
101320.29
101320.34
101318.64
101318.61
101318.61
101318.61
101318.6
101317.1
101317.1
101317.1
101317.1
101317.11
101315.71
101315.73
101315.72
101315.72
101315.72
101314.46
101314.46
101314.46
101314.46
101314.43
101313.23
101313.27
101313.27
101313.27
101313.27
101312.15
101312.15
101312.15
101312.15
101312.1
101311.03
101311.1
101311.11
101311.11
101311.11
101310.08
101310.08
101310.08
101310.07
101309.98
101308.9
101308.98
101308.99
101308.99
101308.99
101307.9
101307.91
101307.91
101307.9
101307.84
101306.82
101306.89
101306.89
101306.89
101306.89
101305.9
101305.9
101305.9
101305.9
101305.81
101304.74
101304.84
101304.84
101304.84
101304.84
101303.45
101303.47
101303.48
101303.49
101303.57
101302.77
101302.72
101302.71
101302.7
101302.68
101302.51
101302.49
101302.47
101302.44
101302.15
101300.88
101301.27
101301.31
101301.34
101301.36
101299.38
101299.37
101299.36
101299.35
101299.23
101299.37
101299.36
101299.35
101299.34
101299.24
101300.9
101301.18
101301.2
101301.23
101301.25
101302.19
101302.19
101302.18
101302.17
101302.01
101302.81
101302.87
101302.87
101302.87
101302.87
101303.54
101303.55
101303.56
101303.57
101303.59
101304.77
101304.87
101304.87
101304.88
101304.88
101305.94
101305.93
101305.93
101305.93
101305.84
101306.84
101306.92
101306.92
101306.92
101306.92
101307.94
101307.94
101307.94
101307.93
101307.87
101308.92
101309
101309.01
101309.01
101309.01
101310.08
101310.07
101310.07
101310.06
101309.99
101311.05
101311.11
101311.12
101311.12
101311.12
101312.16
101312.16
101312.16
101312.16
101312.11
101313.24
101313.28
101313.28
101313.28
101313.28
101314.47
101314.47
101314.47
101314.47
101314.45
101315.73
101315.74
101315.74
101315.74
101315.74
101317.12
101317.12
101317.12
101317.12
101317.13
101318.67
101318.64
101318.64
101318.64
101318.64
101320.31
101320.31
101320.32
101320.32
101320.38
101322.3
101322.22
101322.21
101322.21
101322.2
101324.36
101324.36
101324.37
101324.38
101324.49
101327.03
101326.88
101326.87
101326.86
101326.85
101329.76
101329.76
101329.78
101329.79
101329.99
101333.53
101333.27
101333.24
101333.23
101333.22
101337.32
101337.33
101337.35
101337.38
101337.75
101343
101342.51
101342.47
101342.45
101342.44
101348.48
101348.49
101348.51
101348.56
101349.28
101357.86
101356.96
101356.91
101356.89
101356.87
101366.28
101366.27
101366.28
101366.33
101367.51
101384.25
101383.44
101383.4
101383.4
101383.42
101399.88
101399.64
101399.45
101399.31
101399.32
101443.38
101446.04
101446.47
101446.94
101447.55
101477.87
101476.54
101475.24
101473.97
101468.72
101362.65
101350.01
101351.72
101354.49
101357.8
101427.84
101428.86
101430.1
101431.24
101430.77
101382.54
101379.66
101379.58
101379.63
101379.63
101376.6
101376.67
101376.81
101376.95
101377.85
101362.85
101361.56
101361.47
101361.43
101361.4
101353.98
101354.02
101354.06
101354.14
101355.01
101347.22
101346.5
101346.44
101346.41
101346.38
101340.94
101340.96
101340.99
101341.04
101341.53
101336.65
101336.28
101336.24
101336.21
101336.2
101332.36
101332.38
101332.4
101332.43
101332.7
101329.36
101329.15
101329.13
101329.11
101329.1
101326.33
101326.34
101326.36
101326.38
101326.53
101324.09
101323.98
101323.96
101323.95
101323.94
101321.88
101321.88
101321.89
101321.9
101321.98
101320.12
101320.06
101320.05
101320.05
101320.04
101318.41
101318.41
101318.42
101318.43
101318.46
101316.96
101316.95
101316.94
101316.94
101316.94
101315.59
101315.59
101315.59
101315.6
101315.59
101314.33
101314.35
101314.35
101314.34
101314.34
101313.18
101313.18
101313.18
101313.18
101313.14
101312.03
101312.07
101312.07
101312.07
101312.07
101311.02
101311.02
101311.02
101311.01
101310.96
101309.92
101309.98
101309.99
101309.99
101309.99
101308.98
101308.98
101308.97
101308.97
101308.9
101307.89
101307.96
101307.97
101307.97
101307.97
101306.98
101306.98
101306.98
101306.97
101306.88
101305.88
101305.98
101305.98
101305.99
101305.99
101304.97
101304.97
101304.97
101304.96
101304.86
101303.79
101303.89
101303.9
101303.9
101303.9
101302.9
101302.9
101302.9
101302.89
101302.78
101301.83
101301.98
101301.99
101301.99
101301.99
101300.85
101300.85
101300.84
101300.82
101300.65
101299.19
101299.27
101299.28
101299.29
101299.29
101299.38
101299.37
101299.36
101299.34
101299.24
101300.91
101301.2
101301.22
101301.25
101301.27
101302.21
101302.21
101302.2
101302.19
101302.03
101302.81
101302.86
101302.87
101302.87
101302.86
101303.5
101303.52
101303.52
101303.53
101303.57
101304.73
101304.82
101304.82
101304.83
101304.83
101305.88
101305.88
101305.88
101305.87
101305.8
101306.81
101306.87
101306.87
101306.88
101306.87
101307.88
101307.88
101307.88
101307.88
101307.82
101308.88
101308.96
101308.96
101308.97
101308.97
101310.04
101310.04
101310.03
101310.03
101309.95
101311.02
101311.08
101311.09
101311.09
101311.09
101312.13
101312.13
101312.13
101312.13
101312.09
101313.22
101313.25
101313.25
101313.25
101313.25
101314.44
101314.44
101314.44
101314.44
101314.42
101315.71
101315.71
101315.71
101315.71
101315.71
101317.08
101317.08
101317.08
101317.09
101317.1
101318.62
101318.59
101318.59
101318.58
101318.58
101320.26
101320.26
101320.27
101320.27
101320.33
101322.24
101322.16
101322.15
101322.14
101322.14
101324.28
101324.29
101324.3
101324.31
101324.42
101326.94
101326.79
101326.78
101326.76
101326.76
101329.65
101329.65
101329.67
101329.69
101329.89
101333.41
101333.14
101333.11
101333.1
101333.09
101337.16
101337.18
101337.19
101337.22
101337.59
101342.82
101342.33
101342.29
101342.27
101342.25
101348.28
101348.29
101348.31
101348.36
101349.07
101357.64
101356.76
101356.72
101356.69
101356.68
101366.09
101366.08
101366.08
101366.13
101367.26
101384.11
101383.34
101383.31
101383.32
101383.35
101399.62
101399.37
101399.18
101399.04
101399.01
101444.77
101447.05
101447.48
101447.95
101448.58
101478.96
101477.76
101476.53
101475.21
101467.93
101415.15
101420.87
101422.31
101423.91
101425.7
101429.18
101429.41
101429.9
101430.42
101433.93
101391.46
101390.56
101390.55
101390.58
101390.67
101380.02
101380
101380.03
101380.08
101381.01
101365.21
101364.06
101364.02
101364.01
101364.02
101355.42
101355.43
101355.45
101355.5
101356.34
101348.17
101347.46
101347.42
101347.4
101347.39
101341.62
101341.63
101341.65
101341.68
101342.17
101337.1
101336.74
101336.71
101336.7
101336.69
101332.72
101332.73
101332.74
101332.76
101333.02
101329.59
101329.39
101329.38
101329.37
101329.36
101326.53
101326.54
101326.54
101326.56
101326.7
101324.23
101324.12
101324.11
101324.1
101324.1
101321.99
101321.99
101322
101322.01
101322.08
101320.2
101320.15
101320.14
101320.14
101320.13
101318.48
101318.48
101318.49
101318.49
101318.52
101317
101317
101316.99
101316.99
101316.99
101315.63
101315.63
101315.63
101315.63
101315.62
101314.35
101314.38
101314.38
101314.37
101314.37
101313.19
101313.19
101313.19
101313.19
101313.16
101312.03
101312.08
101312.08
101312.08
101312.08
101311.05
101311.05
101311.05
101311.04
101310.97
101309.92
101310.02
101310.02
101310.03
101310.03
101308.95
101308.94
101308.94
101308.94
101308.84
101307.79
101307.86
101307.86
101307.87
101307.86
101306.86
101306.86
101306.86
101306.86
101306.78
101305.77
101305.86
101305.86
101305.86
101305.86
101304.79
101304.79
101304.79
101304.79
101304.7
101303.52
101303.44
101303.43
101303.43
101303.41
101302.64
101302.66
101302.67
101302.68
101302.75
101302.14
101302.42
101302.44
101302.46
101302.48
101301.28
101301.25
101301.23
101301.19
101300.82
101299.15
101299.26
101299.28
101299.29
101299.29
101299.09
101299.15
101299.16
101299.17
101299.17
101300.85
101300.84
101300.83
101300.81
101300.62
101302.04
101302.24
101302.25
101302.27
101302.28
101302.64
101302.65
101302.66
101302.66
101302.68
101303.62
101303.69
101303.69
101303.7
101303.69
101304.89
101304.88
101304.88
101304.87
101304.77
101305.81
101305.89
101305.9
101305.9
101305.91
101306.89
101306.89
101306.89
101306.88
101306.81
101307.81
101307.87
101307.87
101307.88
101307.88
101308.9
101308.89
101308.89
101308.88
101308.83
101309.88
101309.93
101309.94
101309.94
101309.95
101310.96
101310.96
101310.96
101310.95
101310.92
101311.99
101312.01
101312.01
101312.01
101312.01
101313.13
101313.13
101313.13
101313.13
101313.11
101314.3
101314.3
101314.3
101314.3
101314.3
101315.55
101315.55
101315.55
101315.55
101315.56
101316.93
101316.89
101316.89
101316.88
101316.88
101318.35
101318.35
101318.36
101318.36
101318.42
101320.08
101319.99
101319.98
101319.98
101319.97
101321.79
101321.8
101321.8
101321.81
101321.94
101324.05
101323.88
101323.87
101323.86
101323.86
101326.23
101326.24
101326.25
101326.26
101326.48
101329.31
101329.02
101329.01
101328.99
101328.99
101332.24
101332.25
101332.27
101332.29
101332.66
101336.62
101336.13
101336.1
101336.08
101336.07
101340.82
101340.83
101340.85
101340.89
101341.53
101347.29
101346.38
101346.34
101346.31
101346.3
101353.94
101353.94
101353.97
101354.03
101355.16
101363.34
101361.72
101361.66
101361.65
101361.66
101376.89
101376.91
101376.97
101377.07
101378.52
101385.16
101381.87
101381.86
101381.93
101381.98
101429.12
101430.05
101431.13
101432.05
101432.55
101375.76
101365.62
101367.78
101371.18
101375.07
101363.88
101363.9
101363.84
101364.55
101383.86
101428.39
101426.69
101425.9
101425.16
101424.26
101384.2
101384.13
101384.04
101384.1
101387.28
101380.39
101378.98
101378.87
101378.77
101378.74
101363.33
101363.34
101363.36
101363.41
101364.94
101356.47
101355.43
101355.37
101355.34
101355.33
101347.4
101347.42
101347.44
101347.48
101348.33
101342.37
101341.78
101341.74
101341.72
101341.71
101336.79
101336.8
101336.81
101336.84
101337.29
101333.2
101332.87
101332.85
101332.83
101332.83
101329.45
101329.46
101329.47
101329.49
101329.74
101326.83
101326.65
101326.63
101326.62
101326.62
101324.18
101324.19
101324.19
101324.21
101324.34
101322.18
101322.07
101322.07
101322.06
101322.06
101320.2
101320.2
101320.2
101320.21
101320.28
101318.59
101318.55
101318.54
101318.54
101318.54
101317.04
101317.04
101317.05
101317.05
101317.07
101315.69
101315.68
101315.68
101315.68
101315.68
101314.42
101314.42
101314.42
101314.42
101314.41
101313.21
101313.24
101313.25
101313.25
101313.24
101312.13
101312.13
101312.13
101312.13
101312.08
101311.01
101311.07
101311.07
101311.07
101311.07
101310.06
101310.06
101310.05
101310.05
101309.97
101308.92
101308.99
101309
101309
101309
101307.97
101307.97
101307.97
101307.97
101307.89
101306.88
101306.97
101306.97
101306.97
101306.97
101305.98
101305.98
101305.98
101305.97
101305.87
101304.82
101304.94
101304.95
101304.95
101304.95
101303.78
101303.79
101303.78
101303.78
101303.69
101302.73
101302.72
101302.72
101302.71
101302.7
101302.31
101302.29
101302.28
101302.25
101302.04
101300.71
101300.89
101300.91
101300.92
101300.94
101299.28
101299.28
101299.27
101299.26
101299.2
101314.61
101313.2
101314.59
101313.17
101312.18
101312.83
101313.19
101312.77
101312.04
101312.84
101312.08
101309.99
101312.04
101310.55
101309.85
101310.98
101312.72
101312.46
101309.74
101310.04
101310.39
101312.63
101312.16
101312.28
101312.72
101312.18
101310.05
101309.03
101309.29
101307.33
101308.29
101305.88
101308.59
101307.75
101305.36
101304.54
101306.71
101306.54
101308.95
101310.14
101310.27
101309.87
101309.88
101312.44
101312.84
101313.47
101315.97
101315.38
101316.65
101314.55
101314.92
101317.33
101319.18
101315.52
101316.69
101315.76
101315.77
101313.93
101314.94
101315.63
101314.09
101313.77
101407.32
101409.38
101410.12
101410.91
101411.71
101413.8
101413.4
101413.11
101412.88
101411.03
101377.1
101376.52
101376.55
101376.65
101376.81
101368.74
101368.77
101368.83
101368.94
101370.05
101357.29
101355.82
101355.72
101355.68
101355.65
101349.28
101349.31
101349.37
101349.46
101350.57
101343.82
101342.91
101342.84
101342.8
101342.77
101338.12
101338.15
101338.18
101338.24
101338.89
101334.57
101334.08
101334.03
101334
101333.98
101330.61
101330.63
101330.65
101330.69
101331.05
101328.04
101327.76
101327.73
101327.71
101327.69
101325.2
101325.21
101325.23
101325.25
101325.47
101323.24
101323.08
101323.06
101323.04
101323.04
101321.12
101321.13
101321.14
101321.16
101321.28
101319.54
101319.45
101319.44
101319.43
101319.43
101317.9
101317.9
101317.91
101317.92
101317.98
101316.57
101316.53
101316.52
101316.51
101316.51
101315.23
101315.23
101315.24
101315.24
101315.26
101314.05
101314.05
101314.05
101314.04
101314.04
101312.92
101312.93
101312.93
101312.93
101312.91
101311.83
101311.86
101311.86
101311.86
101311.86
101310.84
101310.84
101310.84
101310.83
101310.8
101309.79
101309.84
101309.84
101309.84
101309.84
101308.87
101308.87
101308.86
101308.86
101308.8
101307.82
101307.89
101307.9
101307.9
101307.9
101306.94
101306.94
101306.94
101306.93
101306.84
101305.85
101305.95
101305.96
101305.96
101305.96
101304.97
101304.97
101304.97
101304.96
101304.85
101303.82
101303.93
101303.93
101303.94
101303.94
101302.89
101302.89
101302.89
101302.88
101302.77
101301.73
101301.85
101301.86
101301.86
101301.86
101300.7
101300.7
101300.69
101300.68
101300.54
101299.11
101299.17
101299.18
101299.19
101299.19
101300.79
101300.77
101300.75
101300.72
101300.53
101301.87
101302.03
101302.04
101302.05
101302.06
101302.89
101302.9
101302.89
101302.89
101302.82
101303.58
101303.55
101303.54
101303.54
101303.52
101304.79
101304.79
101304.79
101304.79
101304.7
101305.74
101305.82
101305.82
101305.82
101305.82
101306.77
101306.77
101306.77
101306.77
101306.71
101307.67
101307.72
101307.72
101307.72
101307.72
101308.72
101308.72
101308.72
101308.72
101308.67
101309.65
101309.69
101309.69
101309.69
101309.69
101310.69
101310.69
101310.68
101310.68
101310.66
101311.75
101311.77
101311.77
101311.77
101311.77
101312.87
101312.87
101312.88
101312.88
101312.87
101313.98
101313.97
101313.96
101313.96
101313.96
101315.14
101315.14
101315.15
101315.15
101315.18
101316.48
101316.43
101316.42
101316.42
101316.42
101317.8
101317.8
101317.81
101317.82
101317.89
101319.43
101319.34
101319.33
101319.32
101319.31
101320.99
101320.99
101321
101321.02
101321.14
101323.07
101322.9
101322.88
101322.87
101322.86
101324.99
101325
101325.02
101325.04
101325.26
101327.8
101327.51
101327.48
101327.46
101327.45
101330.31
101330.33
101330.35
101330.39
101330.76
101334.2
101333.71
101333.66
101333.64
101333.62
101337.63
101337.65
101337.68
101337.74
101338.39
101343.18
101342.27
101342.2
101342.16
101342.14
101348.29
101348.32
101348.37
101348.45
101349.59
101355.94
101354.43
101354.33
101354.29
101354.26
101365.7
101365.74
101365.8
101365.91
101367.27
101373.43
101372.41
101372.37
101372.42
101372.5
101400.99
101400.69
101400.49
101400.4
101400.42
101395.83
101394.87
101395.25
101395.67
101395.99
101358.94
101364.6
101370.34
101376.46
101420.81
101815.14
101945.67
101956.75
101963.89
101969.99
101322.68
101319.33
101316.51
101314.82
101329.77
101410.96
101411.35
101410.22
101409.06
101407.99
101362.44
101362.43
101362.38
101362.44
101365.41
101365.41
101364.39
101364.24
101364.13
101364.05
101351.34
101351.37
101351.41
101351.5
101352.99
101347.48
101346.46
101346.37
101346.32
101346.28
101340.27
101340.3
101340.34
101340.41
101341.27
101336.85
101336.24
101336.18
101336.14
101336.11
101332.34
101332.36
101332.39
101332.44
101332.91
101329.71
101329.35
101329.31
101329.28
101329.27
101326.58
101326.59
101326.61
101326.64
101326.92
101324.55
101324.33
101324.31
101324.29
101324.28
101322.27
101322.28
101322.29
101322.31
101322.48
101320.65
101320.52
101320.51
101320.49
101320.49
101318.89
101318.9
101318.91
101318.92
101319.02
101317.54
101317.48
101317.47
101317.46
101317.46
101316.14
101316.14
101316.15
101316.15
101316.2
101314.95
101314.93
101314.93
101314.92
101314.92
101313.79
101313.79
101313.79
101313.8
101313.8
101312.7
101312.71
101312.71
101312.71
101312.71
101311.68
101311.68
101311.68
101311.68
101311.65
101310.63
101310.67
101310.68
101310.68
101310.68
101309.7
101309.7
101309.69
101309.69
101309.64
101308.66
101308.72
101308.73
101308.73
101308.73
101307.77
101307.77
101307.77
101307.76
101307.68
101306.71
101306.8
101306.8
101306.8
101306.8
101305.85
101305.84
101305.84
101305.84
101305.74
101304.76
101304.86
101304.86
101304.87
101304.87
101303.86
101303.86
101303.86
101303.85
101303.75
101302.73
101302.83
101302.84
101302.85
101302.85
101301.82
101301.82
101301.81
101301.8
101301.68
101300.43
101300.57
101300.58
101300.59
101300.59
101299.08
101299.08
101299.07
101299.06
101299
101300.38
101300.38
101300.37
101300.36
101300.3
101301.67
101301.81
101301.82
101301.82
101301.82
101302.88
101302.88
101302.88
101302.87
101302.77
101303.74
101303.84
101303.85
101303.85
101303.86
101304.92
101304.92
101304.91
101304.91
101304.8
101305.8
101305.89
101305.89
101305.9
101305.9
101306.87
101306.86
101306.86
101306.85
101306.77
101307.73
101307.81
101307.82
101307.82
101307.82
101308.73
101308.73
101308.73
101308.72
101308.68
101309.44
101309.33
101309.31
101309.3
101309.28
101310.4
101310.41
101310.41
101310.42
101310.44
101311.6
101311.63
101311.63
101311.63
101311.63
101313
101312.99
101312.98
101312.97
101312.87
101313.92
101313.91
101313.9
101313.9
101313.9
101315.02
101315.03
101315.03
101315.04
101315.07
101316.34
101316.29
101316.28
101316.28
101316.27
101317.62
101317.63
101317.63
101317.64
101317.72
101319.22
101319.12
101319.11
101319.1
101319.09
101320.72
101320.72
101320.74
101320.75
101320.89
101322.76
101322.58
101322.56
101322.55
101322.54
101324.6
101324.61
101324.63
101324.66
101324.89
101327.33
101327.03
101326.99
101326.97
101326.96
101329.71
101329.72
101329.75
101329.79
101330.18
101333.47
101332.96
101332.91
101332.88
101332.85
101336.69
101336.72
101336.76
101336.82
101337.48
101342.04
101341.12
101341.04
101341
101340.97
101346.83
101346.87
101346.92
101347.01
101348.14
101354.11
101352.64
101352.54
101352.49
101352.46
101363.42
101363.46
101363.52
101363.64
101364.96
101370.61
101369.64
101369.61
101369.66
101369.75
101397.79
101397.47
101397.26
101397.13
101396.89
101393.91
101393.4
101393.71
101394.03
101394.15
101358.4
101363.5
101368.72
101374.35
101418.35
101403.98
101293.86
101278.78
101263.83
101246.91
101614.9
101615.75
101617.55
101617.59
101577.5
101684.21
101773.83
101780.49
101784.7
101789.24
101423.31
101422.56
101421.73
101420.8
101414.62
101417.47
101418.32
101418.53
101418.83
101419.26
101380.72
101380.56
101380.44
101380.39
101380.72
101372.88
101371.8
101371.72
101371.68
101371.67
101357.9
101357.91
101357.94
101358.02
101359.38
101352.16
101351.12
101351.04
101351
101350.98
101344.07
101344.09
101344.12
101344.18
101345.04
101339.83
101339.22
101339.17
101339.14
101339.12
101334.77
101334.79
101334.81
101334.85
101335.31
101331.65
101331.31
101331.27
101331.25
101331.24
101328.2
101328.21
101328.23
101328.25
101328.52
101325.86
101325.66
101325.64
101325.63
101325.62
101323.36
101323.37
101323.38
101323.4
101323.56
101321.55
101321.43
101321.42
101321.41
101321.4
101319.66
101319.66
101319.67
101319.68
101319.76
101318.16
101318.11
101318.1
101318.09
101318.09
101316.67
101316.67
101316.68
101316.68
101316.72
101315.39
101315.37
101315.37
101315.37
101315.37
101314.15
101314.16
101314.16
101314.16
101314.16
101313
101313.02
101313.02
101313.02
101313.02
101311.94
101311.94
101311.94
101311.94
101311.9
101310.85
101310.89
101310.9
101310.9
101310.9
101309.89
101309.89
101309.89
101309.88
101309.83
101308.83
101308.89
101308.89
101308.89
101308.89
101307.91
101307.91
101307.91
101307.9
101307.83
101306.84
101306.92
101306.93
101306.93
101306.93
101305.96
101305.96
101305.96
101305.95
101305.86
101304.85
101304.95
101304.96
101304.96
101304.96
101303.94
101303.94
101303.93
101303.93
101303.82
101302.79
101302.9
101302.91
101302.91
101302.92
101301.91
101301.91
101301.9
101301.89
101301.77
101300.6
101300.75
101300.76
101300.77
101300.78
101299.27
101299.26
101299.25
101299.24
101299.17
101299.16
101299.21
101299.23
101299.23
101299.24
101300.79
101300.78
101300.78
101300.76
101300.6
101301.79
101301.94
101301.95
101301.96
101301.96
101302.92
101302.92
101302.91
101302.91
101302.79
101303.81
101303.93
101303.93
101303.94
101303.94
101304.98
101304.98
101304.98
101304.97
101304.85
101305.87
101305.98
101305.99
101305.99
101305.99
101306.98
101306.98
101306.98
101306.97
101306.87
101307.87
101307.96
101307.96
101307.97
101307.97
101308.96
101308.96
101308.95
101308.95
101308.87
101309.89
101309.95
101309.96
101309.96
101309.96
101310.97
101310.97
101310.97
101310.97
101310.92
101311.98
101312.02
101312.02
101312.02
101312.02
101313.11
101313.11
101313.11
101313.11
101313.09
101314.26
101314.26
101314.26
101314.26
101314.26
101315.48
101315.48
101315.49
101315.49
101315.51
101316.86
101316.82
101316.81
101316.81
101316.81
101318.25
101318.26
101318.26
101318.27
101318.34
101319.98
101319.87
101319.86
101319.86
101319.85
101321.64
101321.65
101321.65
101321.67
101321.81
101323.88
101323.69
101323.68
101323.67
101323.66
101325.97
101325.98
101325.99
101326.01
101326.26
101329.01
101328.69
101328.67
101328.65
101328.64
101331.78
101331.79
101331.81
101331.85
101332.27
101336.09
101335.52
101335.48
101335.46
101335.44
101339.95
101339.98
101340.01
101340.06
101340.81
101346.28
101345.22
101345.16
101345.12
101345.09
101352.25
101352.29
101352.34
101352.42
101353.73
101361.25
101359.43
101359.35
101359.31
101359.27
101373.31
101373.37
101373.45
101373.57
101375.33
101381.26
101378.8
101378.72
101378.75
101378.78
101414
101414.44
101414.99
101415.68
101420.99
101383.72
101379.5
101380.06
101381.01
101381.78
101398.41
101280.24
101264.74
101249.69
101233.18
101376.42
101377.53
101378.66
101379.46
101380.31
101398.58
101393.07
101392.61
101392.34
101392.14
101370.45
101370.43
101370.48
101370.57
101371.62
101367.22
101365.85
101365.74
101365.67
101365.64
101353.88
101353.9
101353.93
101354.01
101355.37
101349.17
101348.12
101348.05
101348
101347.98
101341.76
101341.78
101341.81
101341.87
101342.73
101338.02
101337.41
101337.36
101337.33
101337.31
101333.33
101333.34
101333.37
101333.41
101333.87
101330.49
101330.14
101330.11
101330.09
101330.08
101327.26
101327.27
101327.29
101327.31
101327.58
101325.09
101324.89
101324.87
101324.85
101324.85
101322.74
101322.74
101322.75
101322.77
101322.93
101321.02
101320.91
101320.89
101320.89
101320.88
101319.22
101319.23
101319.24
101319.25
101319.33
101317.8
101317.75
101317.74
101317.74
101317.73
101316.37
101316.38
101316.38
101316.38
101316.42
101315.14
101315.12
101315.12
101315.12
101315.12
101313.94
101313.95
101313.95
101313.95
101313.94
101312.82
101312.84
101312.84
101312.84
101312.84
101311.78
101311.78
101311.78
101311.78
101311.75
101310.72
101310.77
101310.77
101310.77
101310.77
101309.78
101309.78
101309.78
101309.77
101309.72
101308.73
101308.8
101308.8
101308.8
101308.8
101307.84
101307.84
101307.84
101307.83
101307.75
101306.78
101306.87
101306.88
101306.88
101306.88
101305.92
101305.91
101305.91
101305.91
101305.8
101304.8
101304.92
101304.93
101304.93
101304.93
101303.92
101303.92
101303.92
101303.91
101303.79
101302.75
101302.87
101302.88
101302.89
101302.89
101301.86
101301.86
101301.85
101301.85
101301.7
101300.5
101300.67
101300.69
101300.69
101300.7
101299.17
101299.17
101299.16
101299.15