/*--------------------------------*- C++ -*----------------------------------*\
  =========                 |
  \\      /  F ield         | OpenFOAM: The Open Source CFD Toolbox
   \\    /   O peration     | Website:  https://openfoam.org
    \\  /    A nd           | Version:  7
     \\/     M anipulation  |
\*---------------------------------------------------------------------------*/
FoamFile
{
    version     2.0;
    format      ascii;
    class       volScalarField;
    location    "430";
    object      p;
}
// * * * * * * * * * * * * * * * * * * * * * * * * * * * * * * * * * * * * * //

dimensions      [1 -1 -2 0 0 0 0];

internalField   nonuniform List<scalar> 
25278
(
101315.43
101314.98
101316.23
101316.15
101319.89
101314.66
101314.29
101315.36
101314.59
101310.26
101311.9
101313.64
101314.69
101316.87
101325.37
101316.14
101314.96
101323.01
101326.68
101320.09
101315.12
101315.49
101315.54
101312.39
101309.04
101312.21
101315.39
101314.12
101319.64
101313.02
101310.94
101317.01
101312.63
101315.38
101309.22
101315.63
101311.06
101307.57
101311.82
101306.65
101309.71
101304.73
101305.14
101299.04
101303.13
101305.6
101310.75
101308.36
101304.52
101311.17
101310.69
101319.82
101315.75
101314.18
101315.49
101308.87
101306.76
101313.02
101305.49
101309.57
101304
101303.38
101303.15
101308.09
101317.19
101315.87
101307.2
101302.88
101307.47
101309.72
101322.9
101313.34
101316.61
101311.59
101317.07
101309.16
101309.24
101312.98
101315.31
101319.77
101323.28
101325.26
101322.95
101327.1
101319.61
101323.8
101328.52
101331.66
101331.34
101330.2
101324.81
101325.34
101331.42
101335.44
101336.77
101325.44
101331.21
101329.38
101322.51
101323.73
101331.22
101341.43
101338.01
101323.81
101322.59
101330.66
101324.47
101334.4
101332.79
101341.35
101335.82
101328.17
101348.12
101362.35
101340.25
101336.7
101366.41
101330.29
101338.55
101337.69
101326
101319.17
101319.59
101330.82
101335.21
101331.29
101340.96
101335.66
101327.88
101323.54
101323.07
101319.35
101322.22
101324.78
101330.86
101331.04
101323.3
101327.55
101347.33
101332.76
101338.43
101361.2
101365.13
101328.82
101321.44
101329.82
101329.98
101324.01
101336.39
101324.03
101324.69
101330.28
101324.22
101329.27
101321.98
101321.78
101321.96
101337.02
101335.61
101309.49
101337.43
101345.92
101311.94
101336.56
101322.6
101331.08
101338.25
101329.42
101362.63
101360.87
101340.5
101328.18
101346.2
101345.46
101439.11
101391.11
101346.35
101340.37
101394.07
101451.46
101342.78
101343.13
101324.52
101337.75
101340.8
101330.51
101322.42
101320.74
101333.42
101369.78
101364.28
101338.41
101326.34
101329.81
101329.75
101327.06
101351.87
101316.1
101471.15
101431.77
101313.94
101347.34
101326.53
101318.47
101320.48
101319.36
101315.38
101319.58
101316.71
101310.48
101315.67
101312.69
101309.73
101304.73
101311.16
101307.23
101311.58
101306.8
101305.17
101298.92
101299.36
101302.86
101308.57
101310.45
101307.2
101301.14
101299.13
101303.43
101305.01
101306.43
101304.4
101297.11
101294.74
101300.25
101302.7
101303.98
101304.16
101307.65
101314.77
101319.87
101311.03
101315.48
101314.31
101309.81
101304.18
101308.97
101306.28
101312.57
101305.83
101303.57
101303.24
101308.15
101310.09
101319.34
101316.05
101316.96
101309.96
101307.65
101315.2
101306.59
101302.89
101293.7
101294.73
101295.65
101297.5
101291.69
101300.32
101296.94
101301.03
101302.68
101302.11
101298.82
101301.44
101294.4
101295.28
101296.64
101300.5
101295.56
101292.51
101291.29
101290.66
101286.31
101294.99
101291.64
101290.5
101283.79
101287.47
101283.58
101282.12
101288.37
101289.43
101293.71
101301.24
101307.37
101308.69
101302.94
101306.38
101304.41
101300.81
101294.93
101297.29
101299.47
101300.99
101299.58
101295.91
101296.58
101303.09
101305.21
101303.54
101307.62
101301.13
101308.86
101301.97
101301.55
101299.66
101303.17
101301.26
101307.74
101317.04
101320.52
101308.94
101302.53
101311.81
101303.75
101301.91
101299.98
101313.31
101319.04
101326.3
101312.81
101299.26
101297.45
101289.49
101284.15
101297.78
101288.07
101299.58
101294.13
101292.04
101292.29
101295.18
101296.92
101291.75
101292.8
101289
101295.77
101292.92
101286.9
101289.64
101286.78
101286.56
101296.75
101289.65
101289.31
101286.53
101284.32
101279.55
101287.17
101277.43
101278.59
101285.13
101285.65
101284.12
101288.02
101281.54
101289.62
101293.15
101293.01
101301.02
101295.91
101286.99
101290.17
101287.03
101296.99
101303.4
101305.47
101294.4
101292.27
101292.54
101294.99
101296.87
101292.16
101293.31
101299.94
101296.22
101285.49
101288.42
101284.83
101286.16
101289.42
101283.56
101286.75
101289.11
101289.22
101297.01
101286.63
101284.45
101279.87
101287.58
101277.69
101278.98
101278.13
101274.39
101268.83
101269.51
101278.71
101282.97
101290.75
101283.63
101292.11
101283.75
101280.34
101280.25
101279.29
101285.82
101278.87
101285.5
101289.35
101284.09
101277.71
101277.3
101278.18
101271.7
101278.62
101275.14
101281.22
101280.14
101275.06
101273.26
101266.69
101273.66
101266.1
101274.74
101265.31
101264.32
101271.02
101266.46
101273.49
101278.15
101286.09
101275.73
101277.4
101281.84
101291.57
101292.52
101298.9
101302.92
101303.33
101316.52
101318.64
101309.8
101301.18
101300.62
101302.24
101313.76
101301.09
101320.4
101326.43
101322.89
101318.24
101296.12
101299.53
101299.35
101294.79
101295.17
101332.21
101350.44
101313.32
101322.55
101327.96
101320.93
101302.5
101302.94
101302.45
101302.16
101307.32
101344.31
101351.71
101295.6
101290.93
101302.54
101304.51
101303.59
101296.67
101292.13
101295.24
101286.28
101290.38
101287.49
101291.63
101288.74
101298.09
101290.04
101278.1
101284.37
101277.46
101278.38
101282.15
101274.13
101282.69
101281.77
101282.2
101278.03
101267.71
101273.92
101277.61
101283.18
101281.23
101284.73
101291.97
101291.74
101300.43
101303.93
101301.63
101297.73
101289.09
101295.61
101297.44
101302.56
101302.82
101301.52
101299.19
101300.3
101309.24
101299.32
101312.13
101300.6
101302.06
101301.49
101320.48
101304.7
101299.49
101297.53
101301.19
101297.14
101298.32
101326.52
101322.25
101318.59
101291.49
101318.15
101294.57
101291.38
101296.93
101329.97
101351.36
101340.55
101287.45
101280.82
101296.19
101270.49
101294.16
101277.63
101293.6
101286.94
101301.3
101294.1
101301.89
101303.16
101300.31
101302.17
101304.19
101299.21
101300.7
101297.56
101295.97
101291.73
101292.83
101296
101291.35
101287.2
101295.63
101294.66
101291.55
101293.13
101283.34
101284.38
101287.88
101283.13
101282.57
101288.06
101289.6
101290.97
101283.47
101291.94
101286.61
101279.46
101283.91
101280.32
101280.27
101274.9
101279.72
101278.72
101283.01
101274.9
101277.96
101284.59
101289.43
101286.73
101279.71
101277.72
101278.84
101272.25
101278.6
101274.98
101266.07
101273.58
101280.93
101273.25
101266.5
101268.52
101269.26
101268.93
101273.14
101271.82
101261.34
101269.49
101258.29
101261.46
101252.82
101256.16
101266.04
101269.3
101277.75
101277.83
101276.77
101280.61
101272.03
101278.45
101272.39
101281.21
101267.5
101268.89
101253.7
101261.09
101266.56
101273.53
101270.16
101274.76
101282.24
101286.91
101290.14
101298.39
101292.27
101295.95
101288.75
101294.19
101294.25
101291.05
101284.66
101289.08
101282
101285.81
101285.32
101291.15
101281.44
101278.76
101275.9
101287.22
101288.92
101295.62
101301.48
101295.48
101290.22
101286.42
101286.92
101291.08
101285.41
101289.12
101292.41
101282.3
101281.06
101277
101277.39
101280.9
101279.64
101287.92
101290.98
101277.79
101275.16
101285.87
101270.87
101283.14
101272.69
101270.83
101256.35
101265.24
101270.7
101277.69
101272.49
101276.28
101269.33
101265.06
101260.22
101268.98
101275.67
101280.24
101277.91
101283.52
101281.63
101273.67
101265.91
101272.84
101264.41
101267.78
101261.35
101270.85
101289
101283.47
101274.22
101281.11
101293.9
101289.37
101302.23
101294.83
101302.79
101297.81
101296.66
101285.71
101286.84
101281.34
101290.92
101291.82
101290.77
101289.67
101279.68
101278.13
101279.95
101266.95
101267.5
101272.21
101273.33
101278.07
101285.95
101281.44
101277.4
101274.01
101277.15
101275.73
101272.22
101270.22
101273.8
101274.81
101283.98
101281.6
101271.17
101267.03
101279.2
101276.38
101263.47
101262.68
101266.21
101268.37
101281.18
101278.44
101273.05
101276.53
101265.14
101267.84
101270.73
101262.84
101266.95
101271.21
101268.94
101264.14
101254.48
101260.57
101263.49
101258.32
101252.66
101247.83
101259.3
101254.73
101258.93
101247.93
101256.77
101251.64
101262.53
101271.13
101283.73
101286.76
101293.43
101289.8
101298.04
101285.09
101284.89
101284.78
101276.66
101275.34
101283.15
101279.68
101269.92
101268.26
101280.94
101285.05
101291.59
101290.33
101299.98
101285.65
101283.93
101283.82
101274.48
101274.12
101283.82
101279.5
101267.93
101257.97
101258.39
101260.89
101269.89
101271.43
101279.15
101278.93
101291.58
101273.84
101274.7
101274.01
101261.88
101260.31
101250.3
101246.16
101258.25
101268.78
101277.56
101277.62
101293.01
101275.2
101272.9
101272.48
101263.1
101266.53
101265.8
101269.84
101283.35
101262.94
101277.85
101265.12
101264.89
101246.6
101257.62
101245.6
101249.88
101256.5
101262.1
101253.29
101260.59
101252.25
101262.19
101266.43
101278.41
101268.31
101261.18
101267.13
101269.72
101270.1
101261.54
101252.71
101243.83
101232.98
101243.51
101253.86
101256.64
101269.4
101269.8
101260.1
101249.65
101258.63
101261.91
101253.31
101243.94
101238.55
101250.57
101259.65
101249.22
101246.17
101255.94
101264.45
101271.3
101266.54
101267.6
101262.78
101261.78
101251.99
101258.27
101259.47
101265.69
101257.1
101267
101261.31
101250.48
101245.69
101250.93
101261.62
101267.09
101261.7
101247.94
101256.82
101255.93
101246.3
101235.22
101236.8
101248.8
101236.89
101248.01
101238.12
101249.66
101248.29
101250.97
101255.16
101248.41
101243.05
101229.52
101239.53
101244.75
101236.45
101246.76
101238.02
101251.12
101242.15
101249.11
101256.01
101262.2
101266.78
101285.34
101277.8
101263.51
101259.08
101262
101276.56
101259.86
101269.59
101283.25
101256.67
101255.74
101273.49
101247.24
101249.9
101250.4
101229.71
101238.93
101247.22
101233.01
101243.57
101235.31
101223.23
101207.7
101223.43
101217.81
101233.27
101218.93
101234.52
101240.57
101233.88
101226.08
101242.02
101238.47
101251.72
101256.68
101257.61
101252.54
101238.82
101245.9
101252.91
101241.34
101240.16
101225.7
101236.4
101222.67
101235.07
101238.17
101225.86
101221.72
101223.36
101208.13
101224.89
101210.82
101226.95
101214.43
101232.14
101230.74
101245.07
101221.63
101222.31
101200.95
101201.52
101212.98
101217.13
101225.86
101207.83
101222.67
101233.36
101226.22
101213.36
101194.78
101210.82
101220.12
101207.03
101187.12
101171.38
101195.91
101183.83
101207.87
101187.63
101213.04
101234.26
101249.64
101261.49
101276.79
101274.38
101270.55
101273.11
101259.35
101263
101264.77
101254.71
101252.34
101246.55
101231.11
101239.26
101241.47
101223.96
101237.59
101253.84
101252.41
101236.35
101221.27
101221.31
101240.4
101259.1
101276.13
101293.33
101288.71
101261.84
101260.68
101239.01
101232.36
101248.76
101228.83
101228.66
101246.07
101257.92
101268.37
101268.9
101274.47
101283.86
101285.94
101296.75
101303.3
101308.42
101315.2
101322.89
101326.84
101329.95
101329.11
101332.03
101329.98
101340
101331.91
101321.43
101332.61
101367.25
101363.93
101336.83
101341.98
101338.81
101324.57
101322.28
101323.02
101322.77
101322.26
101339.12
101309.13
101353.57
101350.82
101324.98
101337.83
101393.6
101446.06
101333.78
101368.42
101363.09
101342.1
101329.98
101327.19
101336.42
101329.94
101336.79
101324.6
101335.22
101396.42
101456.19
101330.5
101311.88
101334.31
101337.96
101362.36
101366.86
101333.09
101321.31
101325.56
101337.5
101328.37
101323.95
101342.9
101304.54
101493.49
101460.34
101331.2
101354.1
101329.38
101316.73
101320.15
101310.82
101311.15
101319.98
101313.75
101312.98
101317.28
101316.15
101307.34
101308.13
101303.34
101303.28
101307.9
101309.69
101305.5
101303.51
101306.84
101308.84
101315.41
101309.48
101304.07
101297.7
101304.03
101304.59
101302.19
101300.42
101289.8
101290.9
101291.95
101291.14
101297.91
101302.89
101301.98
101294.29
101295.08
101287.24
101281.82
101279.94
101278.37
101280.41
101283.78
101293.36
101291.87
101297.92
101301.81
101295.91
101289.53
101292.1
101300.51
101294.89
101295.73
101287.5
101288.27
101284.89
101273.99
101275.03
101271.2
101271.81
101270.24
101270.09
101271.4
101273.32
101272.02
101256.1
101256.7
101260.84
101260.32
101248.13
101248.87
101242.02
101241.05
101222.42
101223.11
101233.4
101232.91
101208.99
101210.17
101221.6
101209.1
101187.31
101202.47
101202.69
101172.3
101199.36
101178.27
101201.81
101224.02
101237.33
101227.96
101247.93
101291.55
101279.97
101249.65
101240.15
101238.7
101267.78
101237.25
101257.19
101227.16
101241.4
101255.26
101255.61
101263.48
101292.35
101263.55
101285.7
101240.01
101224.37
101230.74
101284.13
101335.51
101275.25
101308.77
101270.9
101286.32
101274.9
101285.67
101276.68
101285.95
101283.91
101273.85
101278.98
101283.16
101287.72
101290.68
101294.79
101289.58
101296.02
101292.23
101289.65
101282.58
101285.25
101281.96
101276.96
101270.17
101275.65
101271.96
101278.63
101285.6
101292.01
101294.79
101288.8
101281.24
101282.04
101279.18
101283.82
101287.82
101296.38
101301.96
101292.13
101286.74
101295.54
101290.25
101287.31
101278.84
101281.13
101289.7
101285.78
101284.97
101279.19
101273.35
101266.21
101262.04
101270.4
101276.67
101287.85
101288.99
101286.58
101297.57
101295.64
101300.98
101301.23
101301.82
101307.22
101314.24
101315.71
101315.02
101314.03
101316.24
101314.63
101314.61
101314.43
101319.03
101309.93
101315.39
101314.5
101307.4
101302.04
101306.75
101306.98
101315.88
101308.23
101301.7
101301.46
101305.52
101310.01
101318.92
101312.64
101312.11
101304.13
101307.49
101314.25
101307.55
101301.73
101294.66
101293.32
101293.1
101293.09
101284.33
101285.08
101278.24
101280.45
101290.37
101290.65
101278.08
101282.07
101272.28
101272.33
101280.54
101277.06
101274.26
101272.18
101269.75
101270.22
101274.12
101283.6
101279.95
101278.54
101265.96
101265.79
101268.53
101281.38
101279.11
101271.26
101268.36
101272.71
101281.31
101283.53
101287.83
101294.55
101302.81
101290.82
101286.01
101285.99
101289.82
101297.75
101286.45
101293.09
101295
101290.65
101293.31
101285.27
101277.07
101278.98
101282.7
101274.49
101277.08
101269.63
101266.63
101258.84
101267.55
101274.44
101272.3
101284.71
101279.32
101283.06
101276.44
101277.93
101273.72
101281.49
101276.83
101283.97
101277.34
101277.53
101281.23
101272.22
101263.38
101265.04
101254.84
101264.96
101263.4
101253.21
101249.96
101261.54
101269.28
101270.87
101263.63
101265.65
101275.35
101277.15
101275.47
101265.26
101262.08
101266.24
101274.18
101262.1
101251.6
101256.83
101262.02
101267.07
101259.02
101258.29
101261.01
101269.23
101271.74
101264.19
101259.33
101267.64
101264.51
101255.16
101252.09
101261.64
101256.77
101260.11
101264.08
101254.31
101249.04
101243.55
101255.8
101260.42
101249.88
101238.51
101243.59
101250.13
101256.22
101263.27
101271.28
101263.31
101254.44
101248.5
101258.27
101266.97
101276.76
101272.44
101272.88
101279.95
101265.4
101267.97
101262.79
101260.63
101261.62
101271.65
101285.07
101280.05
101267.93
101273.52
101272.98
101268.13
101267.2
101278.04
101260.2
101260.32
101253.74
101254.04
101252.17
101272.58
101294.48
101280.27
101264.27
101270.54
101271.6
101266.16
101268.11
101286.49
101257.72
101255.33
101246.17
101248.5
101246.19
101265.77
101300.01
101276.83
101262.27
101269.35
101275.7
101280.22
101284.91
101292.73
101301.86
101288.47
101286.65
101299.32
101290
101284.86
101274.9
101275.64
101286.09
101281.87
101278.75
101283.34
101284.23
101290.86
101300.22
101301.23
101320.37
101324.35
101306.68
101299.82
101299.02
101300.66
101320.93
101309.9
101347.14
101342.84
101343.67
101291.99
101281.28
101298.88
101299.2
101294.58
101325.26
101288.4
101318.18
101297.71
101312.49
101317.05
101314.66
101300.38
101299.54
101296.92
101297.41
101306.13
101323.89
101321.58
101313.04
101290.52
101288.49
101294.44
101294.8
101282.89
101285.57
101282.34
101290.9
101289.31
101294.52
101295.1
101296.33
101278.69
101281.22
101294.79
101294.46
101280.13
101276.23
101261.48
101261.95
101271.56
101270.92
101260.84
101268.57
101260.53
101261.54
101272.27
101270.14
101271.89
101259.49
101261.89
101258.27
101267
101273.8
101257.94
101254.66
101269.35
101261.66
101255.34
101243.35
101247.08
101251.9
101238.91
101245.37
101245.16
101252.31
101241.16
101249.44
101248.63
101251.79
101240.39
101245.82
101238.16
101230.98
101244.49
101240.87
101226.38
101236.78
101238
101226.76
101211.21
101224.95
101223.33
101227.38
101234.65
101244.86
101257.17
101247.84
101233.72
101224.84
101237.63
101251.3
101258.14
101254.04
101264.03
101252.86
101241.12
101236.65
101249.32
101261.05
101250.17
101242.44
101246.1
101228.09
101211.61
101233.17
101240.56
101232.59
101240.45
101255.72
101251.86
101249.62
101252.84
101276.87
101294.03
101352.87
101281.38
101332.82
101291.51
101286.69
101291.98
101335.96
101277
101376.96
101440.85
101304.98
101305.27
101377.56
101252.31
101285.91
101286.02
101394.03
101304.01
101306.77
101435.92
101315.18
101372
101258.52
101390.06
101318.04
101295.77
101456.64
101517.61
101671.53
101479.03
101441.63
101455.94
101202.88
101232.37
101521.15
101267.7
101389.95
101296.23
101344.23
101306.56
101321.43
101302.32
101302.32
101322.87
101311.45
101300.81
101301.44
101302.04
101301.12
101350.15
101326.39
101295.76
101291.67
101289.99
101265.48
101293.54
101275.78
101293.41
101285.9
101300.03
101290.39
101291.84
101301.5
101287.22
101284.09
101284.32
101278.2
101277.97
101293.84
101278.12
101273.04
101273.91
101258.89
101247.35
101258.69
101268.39
101279.59
101281.26
101285.32
101274.84
101268.7
101270.8
101280.16
101283.49
101290.11
101298
101302.37
101293.71
101285.26
101285.4
101285.38
101289.81
101294.11
101291.48
101279.66
101279.81
101274.87
101275.71
101274.4
101281.77
101275.3
101289.42
101286.01
101295.8
101301.7
101313.13
101317.72
101316.37
101302.89
101300.27
101299.39
101299.46
101308.87
101325.61
101318.33
101319.69
101292.02
101292.17
101297.38
101298.21
101294.4
101316.55
101299.15
101313.01
101302.19
101311.78
101306.74
101311.98
101311.01
101315.46
101310.69
101305.72
101304.22
101307.22
101308.8
101308.65
101312.93
101313.96
101319.58
101317.09
101312.66
101315.56
101309
101310.95
101307.66
101305.21
101304.72
101309.63
101317.04
101309.02
101307.58
101303.69
101301.64
101301.02
101308.64
101320.81
101319.17
101315.09
101320
101326.6
101318.81
101303.08
101299.81
101297.6
101299.87
101312.7
101301.9
101308.84
101301.12
101307.49
101316.83
101311.26
101303.31
101301.61
101288.45
101293.03
101299.56
101301.12
101305.22
101299.28
101303.34
101300.96
101304.34
101302.81
101306.39
101299.59
101297.31
101295.18
101291.99
101296.22
101297.67
101300.61
101300.96
101299.27
101292.93
101295.83
101291.5
101280.4
101278.72
101274.28
101273.05
101268.59
101267.78
101264.18
101263.6
101262.25
101261.94
101263.1
101263.29
101272.17
101274.79
101259.61
101258.88
101256.35
101256.83
101254.36
101271.46
101270.54
101253.7
101253.11
101253.66
101238.1
101242.73
101246.42
101247.34
101243.1
101225.71
101231.35
101230.61
101226.46
101218.24
101219.81
101239.25
101238.55
101237.46
101219.08
101221.23
101191.62
101186.96
101201.64
101210.77
101208.51
101202.57
101180.99
101181.87
101184.87
101176.96
101156.16
101142.83
101182.25
101191.66
101188.97
101152.52
101155.52
101182.91
101208.58
101209.34
101231.58
101248.25
101250.09
101265.32
101264.01
101294.71
101271.31
101256.62
101258.79
101234.93
101213.47
101231.01
101230.73
101247.32
101259.05
101269.25
101259.03
101261.7
101270.75
101276.02
101277.33
101287.13
101284.16
101271.95
101263.62
101262.14
101252.3
101253.32
101263.11
101272.22
101273.77
101278.68
101284.16
101290.74
101295.85
101301.57
101291.44
101287.42
101286.94
101281.78
101282.93
101292.63
101283.96
101278.16
101277.87
101265.77
101258.55
101267.13
101274.58
101282.33
101287.61
101289.32
101280.92
101276.7
101279.48
101285.99
101286.53
101292.81
101296.43
101302.6
101298.52
101290.52
101289.5
101289.3
101294.38
101294.38
101291.38
101285.21
101287.33
101282.76
101281.5
101280.48
101288.12
101291
101286.33
101289.21
101283.95
101293.61
101288.73
101268.07
101267.02
101260.73
101262.92
101263.2
101277.02
101292.09
101281.12
101297.9
101243.81
101246.39
101234.06
101237.57
101258.33
101230.05
101191.99
101219.83
101234.47
101250
101254.35
101239.14
101239.8
101255.39
101242.86
101242.11
101225.74
101212.06
101184.81
101184.97
101175.73
101177.78
101200.14
101199.13
101173.92
101208.93
101207.57
101226.94
101215.77
101211.97
101181.66
101187.11
101138.66
101177.07
101142.68
101174.05
101151.05
101147.66
101099.97
101158.4
101145.23
101174.27
101190.73
101208.62
101187.81
101205.95
101186.51
101206.27
101211.44
101220.82
101208.78
101225.19
101215.83
101196.58
101188.78
101210.22
101194.11
101214.09
101232.22
101236.55
101219.84
101229
101222.35
101211.11
101230.06
101224.31
101223.02
101232.1
101213.86
101200.31
101202.93
101180.87
101191.6
101201.24
101213.1
101191.57
101175.85
101163.15
101181.98
101205.94
101223.41
101205.45
101228.25
101217.77
101236.91
101246.22
101259.01
101243.86
101227.82
101226.56
101242.92
101258.11
101244.92
101236.63
101211.33
101210.79
101184.42
101183.78
101216.44
101202.79
101230.04
101240.84
101256.25
101238.39
101217.8
101218.18
101238.92
101249.42
101236.25
101237.44
101242
101244.67
101257.16
101251.61
101237
101233.37
101248.61
101254.79
101252.26
101245.27
101256.89
101273.48
101270.34
101269.24
101270.07
101277.4
101288.3
101288.18
101288.67
101275.45
101262.69
101269.67
101251.38
101252.35
101250.94
101259.55
101266.77
101249.66
101235.17
101237.44
101241.77
101246.32
101229.95
101237.96
101240.27
101247.48
101254.3
101260.39
101266.14
101267.75
101279.46
101294.63
101300.53
101305.24
101309.29
101311.71
101313.26
101314.31
101313.37
101311.95
101312.27
101309.84
101304.92
101308.8
101306.31
101300.27
101295.67
101302.34
101307.24
101299.37
101300.7
101299.78
101292.71
101291.42
101293.18
101298.59
101295.03
101299.34
101300.16
101306.87
101304.83
101304.55
101298.55
101296.32
101305.74
101307.37
101311.4
101308.42
101309.34
101309.42
101311.89
101312.4
101309.61
101305.45
101308.65
101311.9
101308.69
101308.19
101306.21
101309.53
101311.33
101313.76
101313.99
101310.47
101312.27
101311.38
101314.25
101312.4
101311.73
101311.05
101311.89
101311.79
101314.31
101311.62
101308.48
101304.81
101302.79
101303.1
101304.17
101294.76
101303.06
101301.96
101306.54
101309.03
101308.02
101303.31
101296.14
101301.13
101299.8
101294.35
101292.46
101293.44
101300.41
101296.22
101300.61
101299.92
101300.07
101305.31
101305.65
101305.33
101307.46
101301.06
101296.36
101294.82
101288.07
101280.87
101289.53
101289.63
101280.12
101278.93
101279.08
101288.4
101282.4
101284.75
101285.32
101283.96
101292.28
101294.82
101289.27
101294.41
101285
101278.7
101291.88
101279.74
101273.35
101280.49
101276.66
101272.79
101266.92
101268.23
101280.93
101271.64
101275.87
101279.84
101285.13
101286.3
101290.05
101277.27
101268.84
101282.39
101291.63
101294.4
101287.5
101280.58
101289.21
101287.64
101278.32
101277.96
101278.74
101288.03
101281.24
101283.35
101283.89
101283.32
101291.7
101293.44
101287.75
101293.05
101283.55
101279.87
101291.81
101296.31
101299.89
101290.9
101287.49
101283.47
101287.34
101294.35
101288.43
101295.13
101297.23
101286.23
101290.29
101287.66
101295.55
101294.08
101304.89
101294.47
101299.78
101299.97
101295.69
101298.91
101295.62
101290.73
101291.24
101285.04
101285.78
101277.96
101280.24
101273.06
101271.87
101275.51
101270.61
101280.43
101276.39
101289.33
101280.77
101283.56
101278.41
101274.52
101268.98
101268.21
101270.74
101273.1
101261.07
101270.85
101264.7
101259.28
101250.8
101254.43
101270.32
101258.01
101264.88
101270.3
101277.74
101282.29
101287.56
101289.24
101292.38
101292.28
101288.73
101296.38
101300.6
101297.21
101300.92
101292.67
101286.21
101294.56
101305.19
101303.48
101295.9
101301.28
101306.2
101300.4
101300.78
101301.17
101307.03
101304.85
101304.08
101301.2
101295.75
101293.46
101294.88
101294.18
101299.32
101288.75
101280.71
101290.6
101301.02
101293.84
101300.58
101307.76
101305.01
101299.53
101299.32
101298.65
101300.06
101296.53
101304.83
101304.1
101306.86
101308.41
101311.98
101312.53
101309.75
101310.07
101306.19
101309.88
101309.06
101310.28
101307.36
101309.21
101309.47
101312.29
101312.1
101308.52
101306.68
101310.32
101308.06
101305.42
101302.47
101307.32
101310.34
101310.67
101311.44
101308.38
101307.81
101307.69
101304.19
101309.7
101313.74
101310.54
101313.65
101314.47
101308.88
101313.16
101312.56
101312.99
101314.66
101315.49
101311.76
101317.13
101316.83
101313.47
101307.2
101310.99
101312.86
101309.22
101310.41
101305.24
101308.4
101309.28
101305.97
101310.07
101313.54
101309.57
101312.69
101307.13
101304.75
101301.31
101300.55
101306.18
101303.43
101304.76
101298.56
101299.19
101297.69
101293.23
101292.86
101298.61
101287.52
101285.9
101287.53
101284.99
101288.52
101284.82
101288.63
101289.52
101277.79
101283.19
101284.53
101276.32
101274.22
101277.53
101274.08
101270.63
101272.16
101270.15
101279.95
101270.09
101266.53
101262.64
101265.36
101277.81
101266.53
101270.5
101273.69
101277.14
101280.04
101274.49
101271.37
101267.36
101262.87
101267.11
101259.38
101265.25
101269.91
101276.95
101280.38
101277.54
101282.34
101279.29
101285.24
101274.4
101271.67
101285.42
101276.68
101270.6
101273.98
101266.91
101271.09
101265.19
101272.84
101268.33
101259.85
101253.06
101262.34
101257.8
101252.63
101257.59
101246.43
101254.15
101262.8
101258.22
101266.95
101269.03
101285.31
101292.52
101297.37
101304.76
101292.82
101294.52
101302.58
101302.02
101301.26
101301.18
101301.02
101291.66
101291.24
101283.5
101285.67
101279.66
101276.9
101283
101291.82
101293.3
101278.79
101282.08
101282.5
101286.42
101296.98
101294.42
101293.88
101292.67
101286.8
101283.24
101290.43
101291.49
101290.78
101292.57
101297.94
101299.35
101307.13
101300.59
101302.64
101303.61
101303.66
101300.54
101292.76
101290
101279.73
101279.52
101283.6
101267.62
101270.56
101254.67
101260.9
101258.57
101263.7
101257.3
101250.36
101241.35
101249.08
101257.95
101250.28
101241.73
101229.79
101240
101249.63
101258.65
101262.5
101267.69
101283.61
101279.83
101274.25
101270.22
101273.23
101269.27
101273.05
101276.25
101282.94
101290.6
101290.45
101296.75
101283.76
101281.18
101279.55
101279.77
101284.13
101296.89
101290.32
101292.14
101284.54
101282.45
101291.72
101299.49
101298.72
101304.94
101300.84
101308.41
101300.43
101297
101299.91
101308.2
101305.65
101298.28
101297.23
101296.77
101297.01
101296.47
101298.01
101294.72
101300.77
101302.68
101302.56
101304.15
101296.66
101297.45
101296.27
101302.42
101302.07
101303.41
101303.54
101296.45
101289.03
101280.55
101283.19
101280.29
101272.38
101263.97
101257.75
101251.77
101241.83
101249.63
101240.31
101250.97
101244.43
101231.67
101219.52
101231.38
101241.56
101230.8
101217.68
101208.21
101189.64
101166.17
101194.78
101177.67
101141
101147.78
101165.74
101132.79
101164.12
101174.56
101192.85
101204.93
101220.74
101208.84
101231.22
101222.66
101197.02
101210.2
101193.41
101223.81
101245.67
101287.69
101273.75
101256.85
101274.63
101240.51
101242.74
101242.85
101242.98
101249.04
101278.78
101291.74
101234.51
101241.58
101244.17
101246.74
101275.98
101250.82
101281.76
101242.89
101255.61
101241.63
101204.33
101208.97
101215.73
101220.38
101189.16
101183.81
101172.32
101174.5
101211.11
101201.08
101212.06
101176.01
101170.81
101187.83
101220.09
101209.2
101205.19
101152.32
101151.19
101152.63
101155.85
101213.86
101196.23
101183.15
101185.51
101197.26
101230.19
101232.01
101231.26
101229.95
101289.75
101227.33
101279.39
101220.02
101220.63
101213.81
101219.57
101193.69
101253.22
101389.89
101278.88
101335.46
101233.08
101243.3
101277.83
101254.2
101338.27
101267.49
101332.64
101334.8
101287.79
101311.01
101237.15
101231.64
101233.42
101239.12
101283.52
101231.84
101286.08
101249.2
101234.61
101252.27
101276.5
101277.14
101387.31
101388.97
101277.02
101335.79
101226.81
101238.22
101251.73
101253.57
101264.13
101270.48
101256.54
101241.21
101229.98
101199.05
101197.67
101156.3
101157.53
101202.74
101240.44
101245.16
101294.16
101271.58
101270.67
101261.7
101268.82
101275.04
101279.39
101284.19
101286.63
101286.67
101300.2
101290.84
101283.69
101274.13
101274.38
101267.94
101279.67
101279.75
101284.14
101282.47
101284.7
101296.31
101295.86
101301.43
101300.09
101302.64
101299.91
101298.46
101288.69
101274.5
101275.66
101289.14
101288.8
101278.24
101280.63
101289.07
101295.93
101286.24
101288.42
101298.59
101302.27
101300.9
101303.38
101309.51
101301.7
101292.88
101292.13
101292.78
101290.12
101278.61
101282.33
101283.76
101287.48
101291.35
101298.37
101302.64
101300.09
101304.8
101309.9
101305.71
101309.39
101315.8
101310.68
101310.26
101304.26
101302.69
101301.56
101306.99
101314.71
101307.15
101315.84
101309.76
101318.84
101298.26
101298.38
101300.78
101305.43
101306.95
101305.59
101297.16
101299.7
101295.73
101310.29
101324.39
101293.14
101292.72
101295.25
101309.5
101317.3
101305.59
101318.89
101318.29
101313.74
101312.75
101318.85
101311.81
101306.99
101307.24
101305.52
101298.15
101296.87
101298.24
101294.25
101286.61
101291.27
101288.2
101293.15
101295.8
101295.93
101293.92
101300.8
101293.66
101299.78
101294.25
101300.58
101297.57
101289.27
101283.78
101284.68
101287.56
101283.32
101292.04
101285.2
101281.83
101278.57
101268.3
101267.75
101259.6
101260.07
101270.31
101260.48
101248.22
101247.58
101259.73
101269.77
101278.58
101293.47
101293.91
101278.48
101278.53
101273.8
101274.07
101278.54
101291.27
101274.57
101279.14
101292.11
101278.08
101272.8
101260.33
101259.73
101269.51
101274.07
101274.75
101269
101261.02
101260.26
101249.06
101249.83
101239.04
101237.31
101234.78
101234.9
101250.36
101251.22
101244
101255.74
101254.94
101271.18
101271.17
101270.04
101259.78
101259.83
101255.03
101250.21
101249.99
101260.24
101267.4
101248.58
101249.07
101267.21
101260.14
101260.12
101270.81
101269.13
101260.71
101256.35
101257.89
101273.9
101272.16
101261.9
101252.68
101251.29
101250.11