/*--------------------------------*- C++ -*----------------------------------*\
  =========                 |
  \\      /  F ield         | OpenFOAM: The Open Source CFD Toolbox
   \\    /   O peration     | Website:  https://openfoam.org
    \\  /    A nd           | Version:  7
     \\/     M anipulation  |
\*---------------------------------------------------------------------------*/
FoamFile
{
    version     2.0;
    format      ascii;
    class       surfaceScalarField;
    location    "430";
    object      phi;
}
// * * * * * * * * * * * * * * * * * * * * * * * * * * * * * * * * * * * * * //

dimensions      [1 0 -1 0 0 0 0];

internalField   nonuniform List<scalar> 
76358
(
36.221022
-0.010785786
2.0236949
1.4730949
-1.4800985
-2.0330641
0.060316256
-34.801511
0.00035010984
2.1431099
2.1296218
-2.0920249
-2.0989511
-1.4916795
1.472975
2.0312027
-2.0570354
-0.05937407
-36.221172
-1.4918647
1.4727593
-2.0570832
2.0311672
-34.67497
-2.0402398
2.0188315
-2.0328755
1.9931309
0.0012410372
-34.802011
2.1296023
-2.0920818
-2.0984887
2.1437142
0.00099056851
0.010338266
0.00054279401
-2.0829461
2.07666
2.078241
-2.0870968
1.47296
2.0236702
-2.0331126
-1.4801954
2.0766499
2.0778706
-2.087076
-2.0828623
0.00029765126
-0.05383819
10.408431
0.36959787
-0.37439582
-0.53853435
0.53263765
-0.0095186673
-8.2577298
-0.0056889328
9.6651725
-0.0074499998
-7.6821769
10.34007
0.0058607912
-7.4055651
7.4254585
-0.034587114
-0.034345347
0.00087693401
0.0011609499
-9.2581065
0.37594197
-0.38792431
-0.52744685
0.51583573
-0.060798362
-36.220988
1.4732607
2.0314575
-1.4914395
-2.0568013
-2.0989328
2.1431086
2.1298553
-2.0917803
-34.801485
0.010176375
-2.4921214
-2.5116539
-2.1922636
-2.3386139
0.38492961
-0.38288514
-0.39068836
0.53365966
-2.5292139
-2.4593406
-2.198881
-2.2187869
-0.3885944
0.5436971
0.54250351
-0.38393832
0.00015196663
-0.42597503
-0.015767056
-2.048302
-0.00030996679
-0.038859859
0.010405978
-7.8090157
-0.52202017
-0.50293709
0.41262639
0.00012191036
0.12972828
0.32541485
-0.37540158
-0.52803025
0.41893202
-8.2469269
-7.6926676
-0.13122705
-0.023761405
-0.095356149
0.024012438
9.3822761
0.3761688
0.36845248
-0.38037617
-0.38628181
-0.38643487
-0.38054556
0.36825843
0.37600474
-9.3852959
7.6927081
-0.094887359
-9.6652368
-0.13153102
-0.12916276
0.33163182
-0.3758231
0.41560677
-0.36755851
-0.36739741
-0.37562102
0.41576951
0.33182663
-1.8165352
-0.0035461042
-0.014993428
-0.047104055
-0.04532008
-2.4753357
2.0864212
0.086706505
-0.097807947
-0.13073505
0.10676283
-2.6281483
0.0016664564
-0.025613759
0.019323114
-0.63965592
-0.61825665
-0.55975763
-0.61093165
0.022549812
0.16885154
-2.082992
0.16431454
0.083734067
-0.096730257
0.10150208
-0.12927087
-0.11191223
-2.3431934
-0.47668497
0.0019457229
0.0055239034
-0.0041560034
-0.0022251218
-0.66484205
0.52137532
0.00018273306
-0.65504191
-0.0014071948
0.0068335823
0.0049936452
0.00024911747
-0.57148692
0.0047808878
0.013532862
-0.51608646
0.012429907
-0.013244938
-0.62323737
-0.011100141
-0.57661252
-9.2841448e-05
-0.0078437623
-0.00086427643
-0.57599994
0.010880109
-0.023996666
0.02058283
-0.032542053
0.02562354
-0.00029606425
-0.12865594
0.0014631163
-0.52785149
-0.00086187451
-0.52635371
-0.0065719051
-0.0065624476
0.095170073
-0.097473878
-0.13149183
-2.0835206
-0.0093384595
-0.37292053
0.36648529
-0.53645672
0.53354063
0.51248116
-0.51864581
-0.53914432
0.00014735591
-9.9056842
2.5262968
-0.13219388
0.13076959
0.13353002
-0.13509469
-0.0023157332
-1.9940234
0.0030115133
0.10750209
-0.13137835
-0.13448773
0.11299359
2.0130021
-0.13412871
0.11252642
0.10743855
-0.12961628
-2.4691701
2.2419351e-05
-0.034039204
1.7186274e-05
-0.0059130501
-0.64131464
-0.61827779
-0.56452116
-0.57425194
0.17135172
6.6854027e-06
-0.62642429
-0.64164359
-0.57398342
-0.56878692
0.16982818
-0.52579047
0.0051017732
0.0067601454
0.00011143764
0.00085720257
-0.65954465
0.53207384
0.00087481081
0.00023060629
-0.66755555
0.006965939
0.0015596723
-0.0045978031
-0.57699055
0.0016420789
0.012928796
-0.5750875
0.013243812
0.0013015874
-0.5631584
-0.012466325
0.00047195453
-0.56284244
-0.012443664
-0.00098955779
-0.00032363205
0.57601288
-0.012206491
-0.56202125
0.53091473
0.00031659033
-0.66611898
-0.0033608727
0.0070470513
-0.52148762
0.0072857565
1.7577495e-06
0.0010565358
-0.65184564
1.7924448e-06
0.57268648
-0.012005118
-0.55994786
-6.0129691e-07
0.0024852542
0.012965913
-8.8203099e-08
0.012935324
-0.0016149579
0.58434554
0.010502919
-0.57759018
-0.0027080029
-0.0049064117
0.58410675
-0.57840576
0.010519262
-0.0042028955
0.58015102
-0.57854952
0.010938794
0.0019514307
0.57209861
-0.57542228
0.010702215
-0.10009742
0.62546535
-0.52044651
0.0094599227
0.1121062
2.2122105
-2.3688013
-0.12832265
-0.093020116
0.087393752
-0.092965261
-0.12824472
0.10017704
0.087456988
0.045398652
2.0830062
0.083809888
0.10156855
-0.12921071
-0.096656065
-2.3432077
0.37548023
1.8165495
-0.04689351
-2.4753586
10.416401
0.32534942
0.4189742
-0.52797683
-8.2470392
-0.009788938
8.3784404
-0.2013238
-0.0094382837
-0.063597392
-0.012998857
-9.2582498
-0.0037843044
0.51583106
0.37579475
-0.38808622
-0.52750085
0.011138356
0.53362642
0.38475609
-0.38306679
-0.39077494
-2.3386872
-2.4921638
-2.5116399
-2.1922757
0.30119235
8.8014042
-0.38867427
0.54373383
-0.38372036
0.54294335
0.00087152009
-2.5293499
-2.2189301
-2.4594114
-2.198921
8.3862729
0.00073088146
-10.128125
-0.07552704
0.00070621711
0.51887254
-0.52790551
0.51651339
-0.52432503
0.00071700828
-0.003130703
-2.0950481
0.0023466872
0.00097155348
-0.0045318942
0.00063407633
-2.0932606
-1.8942119
0.0043704379
-0.0031501445
-0.0029779076
-2.6640944
2.0931847
0.0031071773
-2.6276293
0.00075257179
-2.3253997
0.0025046249
-0.0029565713
-2.3268273
0.0038587118
-2.6277243
0.0010283765
-0.006332846
0.01245129
-2.1037845
0.003568154
-1.9068906
0.0061491028
-0.015798017
-0.015604896
-2.6414396
2.1037069
-0.013930929
-0.001201442
-2.4950609
0.012624254
0.0032620332
-2.3079583
0.0032011503
0.003005405
0.014111306
-0.0010770086
-0.0012590711
-2.3336644
-0.00093491144
-2.4951181
2.1047726
-0.0022440782
0.0023002989
-2.494438
2.62931
0.021589212
0.0011753803
0.0064749031
0.00090993742
2.3144598
0.0018410941
-2.3139616
0.0016289259
-0.0024301268
-2.3049762
0.0003234425
-2.0882357
0.00027929677
0.0070074718
-2.6189989
0.00034062161
-2.3046543
0.00037335154
-0.0017846834
-2.2894542
-0.02307766
0.00043772616
0.0092244769
-2.2996229
0.0086669961
0.0027056176
0.0068580578
-2.3125077
-0.0013008682
0.00051212371
0.0094766679
-2.2954365
2.0983325
0.00039718924
-2.4814506
0.00037465755
-0.54323266
2.6187234
0.02388413
-2.0981008
-0.00089942127
0.30001434
8.8010047
-0.010475036
-0.38325052
-0.38771063
0.54451834
-2.4595303
-2.1988959
-2.5293589
-2.2186772
2.0325515
8.3862381
0.010158542
-10.128203
1.9934694
2.0198445
-2.0392411
-34.675255
0.0013438866
-2.0926149
-0.51640427
-0.0050279332
0.0029742381
-0.0016003933
-2.3244919
0.0014383714
-0.0034953142
-2.3134268
-0.0030124273
-2.3044073
-0.51673788
-0.0007398307
-2.0880243
0.074381553
0.0042990986
0.5195466
-0.52698718
-0.52398029
0.013702659
-8.378472
-0.061901823
-0.19962547
-10.416589
9.2578502
0.53444614
0.38538222
-0.38239261
-0.38981085
-2.5117383
-2.1920678
-2.3385771
-2.49226
0.51654674
-0.52653875
0.37637943
-0.38737469
0.0032789671
-2.0928006
-0.0048279578
-2.0946042
0.00064592957
0.0077311424
-2.6287695
-0.0011989666
0.0077052848
-0.001642782
-2.3040053
-2.312885
-0.0043692889
0.00161666
-0.02293132
-2.2985205
0.010766885
-0.0038166905
-2.2887605
0.010693799
-0.0022990311
-0.0025674079
0.011202705
-2.2945847
-0.0019965072
-2.4812566
2.1043359
0.00073210981
-0.00074877657
-2.4940264
-0.0037459337
2.6271884
-0.0066651579
-2.1033817
0.01355869
0.0040013079
0.002648754
-0.0037249039
-2.3258966
0.52660411
0.0024476794
-2.626961
0.37618548
-0.38755181
-9.2574966
-1.8939334
-2.6637634
-0.38520861
-1.9066797
0.0068419718
-0.38253913
0.53429509
-0.38990516
0.011458101
-2.3385819
-2.1919716
-2.5116575
-2.492248
-0.015231452
-0.015068474
-2.6413115
-0.012919539
-2.4947723
-0.00034007553
2.3070372
0.013184372
-2.9036418e-05
-2.332772
0.0091559232
-2.3113327
0.011111697
0.0135125
2.2682484
-0.0085905722
-2.2751261
-0.0014006822
2.2232932
0.021414761
-2.2209929
-0.011318711
0.017530868
2.2252594
-2.2233956
-0.007182487
2.2708924
0.0098930878
-2.2780636
0.0021219953
0.0022601795
2.2991721
-2.3119958
2.1045137
0.0019315707
-2.4941191
0.00081949108
0.021622175
-2.097856
0.022675916
-1.8372212e-05
0.0010403059
-2.4808818
-2.1213239e-05
2.2878612
0.0090910139
-2.2935986
-5.3037127e-05
-0.0013334345
0.0085465481
-4.2910964e-05
0.0088905253
0.0076955968
0.0090583141
-2.2206015
0.011801922
-0.00054008452
0.016292314
-2.2173948
-0.00051498162
1.9882904
-0.0019812517
-1.9482869
-0.0041990655
-0.013194435
-0.0017465559
-0.0035435656
0.001202202
0.016461068
-0.0087407931
-1.9931722
-0.013469165
-0.0019524518
-0.017138158
-1.9542981
-0.0023024394
2.2149483
-0.0098975579
-2.210537
0.0018606235
-0.011159517
-0.0096728159
0.0014733774
-0.010167273
-0.0041659582
-2.2974475
0.0022302896
-0.022690315
-0.013283303
-2.1031918
0.0040845548
-0.00044773089
-2.4945333
-0.00098174272
0.38770152
2.1036844
0.0024356303
-2.4932875
0.0031653531
-2.3102142
2.2854427
-0.0020535252
-2.2907732
0.00065179995
-0.02373118
0.0005674624
-0.5431452
-0.0013302205
-2.0968062
0.00030764808
0.54425448
-0.38294109
0.00052660861
-2.2184419
-2.1983465
-2.5292496
-2.4592838
-2.479667
0.00030187048
0.0089061766
0.00034147867
-0.57239743
-0.57897096
-0.0055154749
-0.58420623
-0.57558475
-0.17223981
0.017649481
0.00075608428
-0.56528263
-0.56889732
-0.0064261764
-0.58187332
-0.57779309
0.023949088
0.0021546207
-0.016797633
-0.56392323
-0.55527015
-0.52828229
-0.55471795
0.0022043271
-0.0027908484
-0.030435872
-0.53237379
-0.49771353
-0.38249147
-0.48674781
-0.024026134
-0.005026203
-0.02482792
-0.4973977
-0.53355518
-0.48787755
-0.37337187
-0.016532528
-0.00040964354
-0.013597165
-0.55747929
-0.56519938
-0.55631238
-0.53189053
-0.0078292049
-0.0054079076
-0.56975671
-0.58234917
-0.5784111
-0.56634581
-3.1263751e-05
-0.0050176546
-0.57934414
-0.57577959
-0.57286275
-9.6313036e-06
-0.013952677
-0.57854153
-0.57944747
0.0068908283
0.050503199
-0.59913945
-0.5745448
-0.019416995
-0.1641318
-0.050279646
0.015065044
-0.019108396
-0.0033731731
-2.0864365
-0.025648306
0.016045951
0.086682303
-0.097835646
-0.13072407
0.10677015
-2.6281791
0.0019795562
0.63967307
0.005504224
-0.47669174
0.0020066426
-0.61095817
-0.61825172
-0.55975738
0.022861549
0.16874639
-0.51609281
-0.00018123072
0.012388646
0.0022461515
-0.013168
-0.6232423
-0.011139368
-0.0040863136
-0.66485099
0.52138187
0.0001685856
-0.65504913
-0.0013117174
0.0068201993
0.0050867477
-0.57149713
0.0048772081
0.013501513
-0.57661852
-6.4240449e-06
-0.0078716039
0.01079585
-0.57600537
-0.00085275421
-0.00019702148
-0.024009305
0.020571722
-0.032542675
0.025621041
-0.12424323
0.00082937469
-0.48125497
-0.0077776241
-0.0050611066
-2.0750354
0.09112
-0.095422751
-0.12893849
0.12205561
-0.36642142
-1.7523072
0.006761416
-0.37298554
-0.53640133
0.52642641
-0.0088480328
-10.408621
-0.011766354
-0.017617352
-2.4762852
0.093487431
-0.093744377
-0.12646315
0.12668676
-0.13053447
-2.3425158
-0.098002189
0.66458122
0.0012195613
-0.47514107
0.00082989989
2.0835608
-0.00078708847
0.13198206
-0.13038621
-0.096723133
-2.6396673
0.095146587
-0.097499324
-0.13147424
0.12867311
-0.0062766247
-0.47636368
-0.0013913498
-0.0020716304
-0.0026328994
-0.0016530826
-0.60476423
-0.0058477783
0.0013753689
-0.00055510373
-0.57747337
0.023287852
0.031869274
-0.032338403
-0.023824075
0.52785764
-0.0016224752
-0.65896693
-0.00076248465
-0.13076978
0.65955949
0.0022739325
-0.53249546
0.00066932921
-0.53362011
2.5263585
-0.13219624
-0.13503351
0.13358948
-0.0020565639
-1.9940879
7.8092311
0.51279622
-0.51839306
-0.53909117
0.00056594502
-9.9060659
0.42604814
-0.52197998
-0.50265674
0.41290957
0.00071010916
-2.0483512
-0.038814661
-8.9890885e-05
0.10750321
-0.13138775
-0.13444066
0.11304206
0.0032899596
0.62645891
0.0067593871
-0.52580399
0.0051756543
-0.56882963
-0.64165444
-0.57398908
0.0062471521
0.16980174
-0.57510574
0.004684764
0.013227941
-0.00085926967
0.0013990207
-0.56317082
-0.012481099
0.00019676777
0.53208896
0.00089717936
0.00034140155
-0.66757144
0.0069838455
0.0016683919
-0.57701784
0.0017621867
0.012935181
0.00057889022
-0.56286071
-0.012439816
-0.0010454116
0.57604866
-0.00021226911
-0.56204571
-0.012166372
0.13409535
0.53093851
0.00040755562
-0.66614543
2.0130603
0.11257859
0.10755067
-0.12951317
-2.4692569
0.00030907303
-0.033812201
0.00028083538
-0.64137417
-0.57430282
-0.56451572
-0.61830865
0.17165515
0.00036014563
0.0070926252
-0.0032813089
-0.0023845638
0.012985211
-0.0073727693
-0.57272495
0.013080767
0.00011666828
-0.52151055
9.8487596e-05
0.001156769
-0.65187253
9.9598956e-05
-0.55997447
-0.011908005
0.00010202641
-0.00018734565
-0.0026741429
0.00011225157
-0.54462655
-0.032454084
0.026121372
0.026127819
-0.032393792
-0.00041608702
-0.0025698559
-0.54648133
-0.032555338
0.026108097
-0.032458464
0.026139922
-0.00055134005
-0.0024320485
-0.032636135
0.026011166
0.026120786
-0.032539117
-0.54725011
-0.54823712
-0.032727715
0.025900796
0.026028473
-0.03260968
0.0011450749
-0.54931613
-0.032545039
0.032088302
0.031954009
-0.032345322
0.0002268788
-0.00064238035
-0.66452672
0.53602198
-0.67070612
-0.0010716354
7.9886099e-05
0.00027730111
-0.1332678
-0.5346715
-0.00049868162
-1.956497
-0.13454366
-0.12997931
0.12895344
0.00028151191
-0.0016404618
0.13595589
-0.1339294
0.1315499
-0.12943023
-2.4776354
0.0002396608
0.13346167
-0.13169996
-0.13438236
0.13633384
-2.5393198
-0.00070995111
-0.53186218
0.00071908535
0.00078799497
-0.52710938
0.00063412516
0.0010553417
0.00075266382
-0.00073887949
-0.65856472
-8.1366222e-05
-0.66447187
0.48111631
0.00052551616
-0.0036841041
-0.60450224
0.00011096739
0.0037577688
-0.57718173
0.00013527135
0.032474759
0.023838626
-0.023720656
-0.032274546
0.00024586387
0.023908343
0.032582668
-0.032303379
-0.023756488
-0.57658056
-0.00083953705
0.54923746
0.032742753
0.00021611776
0.032648065
-0.032562254
-0.032385427
-0.54881132
-0.00053754122
-0.66460302
0.53476018
6.2777135e-05
0.0009188843
-0.67066174
0.00089499769
0.00021199286
-0.0002513611
0.5477456
0.0002891259
-0.54766818
-0.032289363
0.032610201
0.032668314
-0.032209332
0.032715368
-0.032474984
-0.032270527
0.032623382
-0.00018431421
-0.13132209
0.00017682542
0.16393337
0.00011158474
-0.00023839856
0.16348422
0.00013233265
-0.13108771
-0.023550187
0.16518459
-0.11860176
0.00056758188
-0.13115164
0.64873362
-0.00061812941
-0.51329178
-0.023543113
-0.032765734
0.032844363
0.13035157
2.1284891
0.098712721
-0.098141592
-0.13081647
0.13105897
-0.13090623
0.098638949
-0.098217397
-2.3908557
0.011703688
2.0750181
0.093409485
-0.093813929
0.12661674
-0.12652863
-2.3424887
1.7522851
-0.017799388
-2.4762481
0.0051306451
0.09104309
-0.095500168
-0.12900594
0.12417791
0.12224519
-0.4763566
-0.00080916791
-0.0027074707
-0.0020532861
-0.66456989
-0.0013676092
-0.0017264846
-0.6589567
0.0017402116
0.023299644
-0.023812387
-0.032339866
0.031868328
-0.00065598128
-0.5774675
0.48125116
-0.0058110998
-0.60475907
-0.0077373592
-0.13195733
-0.51132576
-0.024010047
0.019814159
0.64641193
0.025722521
-0.033125311
0.0007324734
-0.13213507
0.10135667
-0.099338629
0.1014194
0.13204338
-0.1320452
-0.099269337
0.023109971
0.00034053559
0.032341083
-0.032754122
-0.023579322
-0.64873007
0.1644797
0.0003154394
-0.11844912
6.3588149e-05
0.11803585
-0.00078630529
-0.00077655514
0.15598037
0.0016829616
0.00076951122
0.01531719
0.0073470768
-0.15541807
-0.15413316
-0.1424661
0.0020673848
0.0018598245
0.5272115
-0.015502828
-0.030801844
-0.57206712
-0.0019047954
0.026830516
-0.57950271
0.010405091
0.0033502307
0.0068152047
-0.15366024
-0.15631955
-0.14456355
-0.14270067
0.0027703515
0.012841913
0.58124877
-0.00058387087
-0.1479235
-0.15570572
-0.14320048
0.0031963772
-0.14305828
0.030872304
-0.012767045
0.58311022
-0.61917541
-0.001815735
0.52721846
-0.015424972
-0.5720707
0.52045422
-0.015236556
-0.64641748
0.62548342
0.0094186863
-0.00188221
-0.59917473
-0.5745616
-0.57209135
-0.019616328
0.014276038
-0.0018396994
0.026759103
-0.010662218
-0.57952353
0.010340276
0.0034441791
-0.57543782
0.0043035581
0.0073005535
-0.15598504
-0.15542671
-0.15413038
-0.14246593
0.0021615331
0.0067514158
-0.14455903
-0.15632472
-0.15367017
-0.14270289
0.0028574362
0.58126905
-0.00066215257
0.0032801422
-0.14319579
-0.15570999
-0.1479348
-0.14306209
0.00032954129
0.58566261
0.0023378185
0.0032793541
0.637422
-0.00039261763
-0.58567504
-0.57846524
0.0073834105
0.0071437271
0.0023986418
0.0031875659
-0.58126998
0.0038130248
0.0037281737
-0.15631519
0.0033156561
0.0032285135
-0.14443734
-0.14442927
-0.14387837
-0.0061582372
-0.0061319384
0.00099550516
-0.14603846
0.0010179389
-0.0010860422
-0.022178
-0.13199096
0.0011732617
-0.0019118888
0.0012538518
-0.13022232
-0.025911404
-0.00099924327
-0.025537167
-0.1301585
0.0011227854
-0.001829043
0.00099624205
-0.13120926
-0.025276736
-0.13072148
0.00087985025
-0.00070650862
4.1156906e-05
-0.16396774
0.00043424768
0.14366184
0.00046570932
-0.14548027
0.00021196464
0.13012623
-0.16292849
-8.2107191e-05
0.0014569069
0.00092921718
0.0021466134
0.0013858823
-0.14412983
0.0010884083
0.001620727
0.00075883654
0.00055410601
-0.14526465
0.00028759054
0.033030054
-0.16378317
0.00034384534
-0.49413434
-0.032320476
0.038692994
0.032187022
-0.032589859
-0.031931582
0.031868613
-0.032362406
-0.56030422
-0.00028828631
-0.13155981
0.00030941624
-5.7468067e-05
-0.13153058
-6.8931603e-05
0.00046199768
0.00012197816
-0.00014740872
-0.16472127
-0.00019616648
-0.16518266
0.13091674
0.00010222102
-0.16348366
-7.1337363e-05
-6.4874546e-05
-1.4955189e-05
-0.14579428
0.00014850381
3.1694615e-05
0.0001828307
-0.14584751
9.4607129e-05
-0.00015423826
0.0002448608
0.14554337
-0.14558834
0.00013717907
8.0336121e-05
-0.16453165
0.13003494
8.4214872e-05
0.00019276314
-0.16216317
0.16181654
0.00040051698
-4.0887669e-06
-0.00065910005
0.00034050939
0.14376345
0.00053373626
-0.14475659
0.00035440627
0.0015456122
0.0017283659
-0.14308387
0.00095482729
0.0017280288
0.00036938867
0.00039720232
-0.14375561
0.00043888799
0.032357138
-0.16197144
0.0001018798
-0.038609966
0.02593851
-0.032328961
-0.023945064
0.022199759
-0.52550454
-0.023964416
-0.00068290862
-0.49413722
0.025303814
-0.033002876
-0.032300718
0.025558633
-0.51132967
-0.023984104
0.01983892
0.025744837
-0.033104617
0.00029209208
0.032364083
0.023137775
-0.023551996
-0.032730981
0.032217224
-0.03255941
-0.031908047
0.031891247
-0.56030547
-0.032450011
-0.00027379986
0.16378547
-2.9157423e-05
-0.13156076
0.00029547829
-0.00030642522
0.16396964
-4.1690621e-05
-0.13153124
0.16448197
8.7454183e-05
-0.11845022
0.1180379
-0.00079554943
-0.00075379761
0.0016745127
0.00078899508
-0.13072366
0.00090151376
0.0018147846
-0.00068089739
2.6713271e-05
0.00044246795
0.14366428
0.00045457441
-0.14548194
0.00023972151
0.13012765
-0.16292971
-5.1936493e-05
0.0014491999
0.00095809899
0.0021341004
0.0014149617
-0.0010182765
0.0010758976
-0.14413272
0.0016501684
-0.13121163
0.00098723061
0.00033019652
-0.00073252006
0.13016092
-0.00063251978
-0.1618186
0.00031968022
0.0011446224
0.0018919857
-0.14376686
0.0015268775
0.0017576206
-0.00054005248
-0.14475884
0.00051636545
0.00038314647
-0.14526661
0.00031589746
-0.00013778339
-0.14554435
0.00028293341
0.00010342762
7.2482159e-05
-0.14579524
6.1341786e-05
-0.13091726
1.6756151e-05
0.00017121236
9.5359911e-05
-3.8019724e-05
-0.00047049012
0.00015079747
-0.00016140692
-0.16472211
0.00017273356
-0.14584807
0.00012625687
-0.00018462929
0.00023123065
-0.1455886
0.0001703876
6.6463065e-05
-0.16453267
0.13003552
0.00022439878
-0.16216352
6.2011086e-05
2.4888169e-05
0.00037876187
-0.14490915
0.00030473386
0.00015339845
-0.14493554
0.00026868613
0.00021332884
-0.00012075947
-0.00019738897
-0.14503987
0.00023261452
0.00018986751
-0.032256048
-0.00020554948
-0.13016548
0.00034280604
-0.49553906
-0.032615908
0.032718998
-0.031997452
0.032966494
-0.00087028016
-0.032550864
0.032929457
0.032409467
-0.031998427
-0.032351402
-0.5612486
0.023859438
-0.023452001
-0.032666131
0.033145993
-0.64954993
0.16519439
0.00043971069
-0.11846875
0.00060242923
-0.00042774612
-0.00024338701
0.1317014
2.790627e-05
-0.16476528
-0.00015750511
1.9459783e-05
0.00037177937
-0.14597077
0.00016425308
0.00011023563
-0.00012161705
-0.14605707
0.00013591878
9.9906219e-05
-0.16370476
-2.2496549e-05
-0.13102371
0.00010975665
0.00023156978
0.00011074387
6.7171946e-05
-2.8202438e-05
-0.1634768
-0.00045140433
-0.16511509
0.13161965
0.00017858645
-0.00021288392
-0.16470289
0.0002153862
0.00038740833
-0.145966
0.00011251799
0.00012155659
6.3663568e-05
9.2652975e-05
-0.14587656
-0.00016535622
6.0304722e-05
0.14571571
9.89709e-05
-0.14564597
0.13166224
-3.596318e-05
-0.16455538
0.16458817
0.00018343787
0.00020750122
0.13171905
6.724416e-05
2.8458512e-05
7.1609514e-05
-0.1456987
0.0001485728
0.00015772672
-0.14578183
0.00012856452
-0.00010446489
-0.14512171
0.00018298407
0.00016104373
-0.16226341
2.4470604e-05
-0.1301557
0.00020342292
0.00028177276
0.00015654754
-9.9160217e-05
-0.16224748
0.14507641
5.631772e-05
0.000106851
-0.14502273
-0.00011890476
0.00012574414
0.00015128904
0.00013499398
-0.00012221605
-0.14437858
0.00013415864
0.14437519
0.00012643851
-0.00011458699
0.14565112
0.00010585712
-0.14564305
0.16404727
9.853751e-05
-0.13128607
0.00015626532
7.1431302e-05
0.14560954
0.00012543484
0.00017231635
0.14554266
0.00014181074
0.00021212682
-0.00013075408
0.14543566
0.00021594928
0.00014806499
0.13114446
7.5089901e-05
0.16320061
-6.3339364e-05
0.00011224876
0.13077467
-0.00051241359
0.00015870823
0.15580298
0.0015113635
0.00031921827
0.57858018
0.0072234378
0.0021110102
-0.14416683
-0.14325247
-0.15501191
0.5802083
0.010906554
0.004996819
-0.57862685
-0.58414223
-0.57952926
0.0067275931
0.0054187726
-0.58015007
0.0041414219
0.011732534
0.0022490258
0.0064476177
-0.14500607
-0.14616856
-0.14438916
-0.14320204
-0.0070957106
0.57855247
0.0062057329
0.0010741757
-0.14489549
-0.14518765
-0.14337133
-0.14303317
0.57845661
0.0008502332
-0.15518785
-0.14340342
-0.14313533
-0.15500475
0.010500178
0.001746206
0.011851191
0.0018136193
-0.0029921148
0.58326877
-0.57507105
0.0046856012
0.0019599832
0.58580081
0.0041044816
-0.57788552
-0.57672018
-0.57151642
0.0059010132
0.013008497
-0.5756717
0.0025112358
0.0043577851
-0.0047808883
0.0028401169
-0.14373511
-0.14453358
-0.14322187
-0.14262998
0.0037052593
0.0024277774
-0.1435881
-0.14486455
-0.14405143
-0.14286235
0.0048102163
0.0015130409
-0.1433956
-0.14377351
-0.14301423
-0.14257746
0.57228789
0.0024024401
-0.14276336
-0.14339096
-0.14290287
-0.1421831
0.0042002917
0.0027498893
0.005218421
-0.0048846918
0.57031603
0.0018991483
-0.57003646
0.0054558658
-0.011939029
-0.00010224975
0.58270082
-0.57358425
-0.010521116
0.57951345
-0.57752542
-0.00159233
0.58446816
-0.0025960116
-0.57766184
-0.57586134
-0.5729789
0.0079603751
0.00048478609
-0.57612855
0.010615521
0.00013644585
6.6819196e-05
0.0074641619
-0.15485493
-0.14307392
-0.14301423
-0.15475162
0.0001271604
0.0072860305
-0.15505465
-0.1431892
-0.15489057
-0.14306277
0.00026461733
0.0064226073
-0.14484578
-0.14497771
-0.14310154
-0.1429274
0.57637946
0.0067442297
0.00014736942
-0.14287707
-0.14295818
-0.14488309
-0.14482394
0.012256171
0.00016758506
0.57878896
0.0056686734
-0.57251424
0.00021052124
-0.56713364
0.0006848344
0.016679492
-0.5680287
0.00036890205
0.0080939771
-0.0019593189
-0.0061128123
-0.14156059
-0.14272074
0.0003107269
0.0075600074
-0.14104646
-0.14249952
-0.0053244024
-0.14224202
-0.14302302
-0.14265575
-0.14162778
0.0052796211
0.00082321051
-0.1432946
-0.14349455
-0.142652
-0.14235506
-0.14335729
-0.14239294
0.00019158947
-0.14326428
-0.14223669
-0.00025722321
0.0011100077
-0.14287125
0.00013116378
-0.0014699837
-0.00026276935
-0.0014128746
-0.14292032
0.0010441384
-0.00039752808
-0.0013378549
0.00095210308
-0.14297404
-0.00036199289
-0.0012732769
-0.14304135
0.00088349568
-0.00063106659
-0.0012298349
0.0008339845
-0.14310859
-0.00061006881
-0.0012047979
-0.14321887
0.00081456532
-0.0017576027
0.00096851109
-0.14330162
-0.0013838989
-0.0012757507
0.00093707909
-0.14308784
-0.13022472
0.0010694703
8.2139759e-05
-0.00034254283
-0.16197359
0.13199277
-2.2754464e-05
-0.0091278215
-0.14670512
0.0011952607
-0.14373227
0.0011972294
0.0016052892
-0.00037617605
0.00035549401
-0.14426902
0.00053468381
-0.1437583
0.0004681099
-0.00013485447
-0.14386879
0.00031621098
0.00023385978
-0.032325461
-0.12956534
0.00016111527
0.032293681
-0.032240903
-0.59135489
-0.02407719
0.024488319
-0.024053783
-0.032207959
0.024510304
-0.12956465
0.00018215606
0.00010525135
0.00024688892
-0.16222117
0.00025294219
-0.00028663231
-0.14389851
0.14386741
0.00023376529
0.00033085376
0.14490808
-0.14493546
0.00017837665
-0.00029691268
0.00032250336
0.00012180952
7.283711e-05
-0.00018278673
0.00035180745
0.14388995
0.00018338956
-0.14416952
5.8376913e-05
0.14509142
0.00013315466
-0.14543405
-0.032096252
0.16319758
8.4680755e-05
-0.13114259
0.0011590777
0.00011220752
0.54822879
-0.54930842
0.031946574
-0.032353632
-0.032536835
0.5324838
-0.00073515515
-0.66450993
0.0005801106
0.0022667515
-0.53600988
0.0024024637
0.00016200041
-0.0011117048
-0.67068844
-3.9578689e-05
0.54723756
-0.54773532
-0.032360075
0.031944753
0.031999384
-0.032290265
0.0002044678
-0.00043904593
-0.032630273
0.026013586
0.026110263
-0.032550194
0.00029324694
0.02590844
-0.032717769
-0.032614137
0.026025499
0.15579481
-0.13077156
0.00029692949
0.0015174831
0.0020039826
0.0072588794
-0.15501183
-0.14325061
-0.14415407
0.0071169204
0.00072996689
-0.1551749
-0.15500058
-0.1433865
-0.14313035
-0.0021507144
0.57845982
0.0009610077
0.0062598127
-0.14488612
-0.14516888
-0.14334438
-0.14301363
0.5801018
0.006506569
-0.14615843
-0.14500548
-0.14319373
-0.14437222
0.0040573181
0.01179198
0.0016838018
0.011905132
-0.57737933
-0.0017155721
0.011937486
-0.0072721671
0.00012702316
0.0064520237
-0.1430593
-0.14494579
-0.1448248
-0.14289532
-0.00019930328
-0.1431675
-0.15503507
-0.15488116
-0.14305584
0.5760501
0.0073783193
-0.14305194
-0.15482988
-0.15473821
-0.14301162
-1.1949218e-06
0.010529949
-1.5310101e-06
-0.57620699
0.012162724
-4.1040855e-06
0.0066889158
-0.1429067
-0.14483917
-0.14479552
-0.14284816
-1.0225002e-06
-0.00066952191
0.5721158
0.0061083357
-0.14226704
-0.14326751
-0.14319014
-0.14213412
-6.8967079e-06
-0.0014048815
0.0054110589
0.57328642
-0.14256856
-0.14343606
-0.14323884
-0.14226664
-0.0023338065
0.57491257
0.0048971894
-0.14374502
-0.14337056
-0.1425338
-0.14297163
0.57781714
0.0048635634
-0.14485252
-0.14358298
-0.14284623
-0.14402983
0.58571317
0.0029114012
0.0041721144
-0.58314386
-0.57129915
-0.57660335
0.013390359
0.0047629558
0.0018222933
-0.0024331754
-0.57205898
0.0026057978
0.0053501637
-0.57560325
0.0044670123
0.0027315083
-0.14452207
-0.14321497
-0.14371357
-0.14261271
0.0038206317
0.0022697845
-0.14270567
-0.14334974
-0.14285699
-0.14211809
0.0043304143
0.56947109
0.0017187197
-0.1429142
-0.14252889
-0.14209551
-0.14144245
0.0054720919
-0.0049327245
0.0016919914
0.0055609137
-0.00023569861
0.0056480915
-1.635826e-05
-0.567014
0.0080826849
-7.4416882e-05
-0.1425078
-0.14124008
-0.14229699
-0.14072592
0.0076253743
-4.152109e-05
-0.0015671921
-0.00046609825
0.0014693861
-0.14216542
0.00022153058
-0.001114523
-0.00032473432
-0.14254026
0.00014528192
-0.0014623389
-0.1427969
-0.00021121609
8.8419921e-05
-0.0011888426
-0.0001497737
5.9966369e-05
-0.14309039
-0.0025384608
-9.8462078e-05
-0.14342649
3.5400628e-05
-0.0017537229
-6.8483029e-05
2.1864618e-05
-0.14379006
-0.026099077
-3.5722666e-05
-0.1304505
1.6983491e-06
-0.0025642546
-6.0878149e-05
-0.54460355
-0.032469454
-0.032433338
0.026085629
-1.0871799e-06
-0.1288349
0.00059247565
-0.52616977
2.3005629e-06
-1.9563998
0.13321938
-0.13458925
-0.13009695
2.702404e-05
-0.0014132535
0.13589105
-0.13398147
-0.12954406
0.13141556
3.8626627e-05
-2.477452
0.001055742
-0.13170312
0.13345211
0.13626009
-0.13444683
-2.539199
0.098021463
-0.096702401
-0.13040594
0.13195718
-2.6395913
-0.47513126
0.0011461418
0.00084617188
-0.0011252983
-6.7394633e-05
-0.66445489
0.52709754
0.00075214556
-0.00083715003
-0.65854378
0.00063724483
0.00060692437
-2.1985663e-05
-0.57717187
3.0291277e-05
0.032471775
0.023849225
-0.023709643
-0.032278041
-0.48111028
0.0037921429
0.00043727582
-0.0036529303
-0.60449065
0.00014062341
0.023917869
-0.023746673
-0.032308094
0.032577497
-0.57656367
-0.00081256005
9.5181997e-05
0.54922497
0.032632927
0.032746429
-0.032557503
-0.03240038
-0.54878844
0.53184467
-0.00062527025
-0.66457222
0.0006272297
0.00076653884
-0.53473998
0.00084420194
9.4652593e-05
0.0008592867
-4.7826494e-05
-0.67062354
0.54765191
9.287673e-05
0.03265051
0.032629383
-0.032405895
-0.032372863
-0.54729145
-0.00013125892
0.00015925839
-0.032290849
0.032609279
0.032647164
-0.032232806
0.032721478
-0.03246876
-0.03228292
0.032612327
-0.00014970073
0.16393121
-0.13132027
8.1117476e-05
0.00017912842
-0.00021270001
-0.13108714
0.00013825313
-0.023521844
-0.11859994
0.00057564837
-0.51328725
-0.023572256
-0.032791456
0.032819851
-0.00056969475
0.023829472
0.00091722022
0.033119061
-0.032691976
-0.023480161
-0.64954002
0.16519156
0.00060951235
-0.11846643
0.00041269094
-0.0002701242
-0.0004201507
0.0001266173
-0.16370338
-5.8533205e-05
3.9016036e-06
0.14597016
-0.14605607
0.00014424933
6.438324e-05
0.13170048
-0.16476397
-0.00014421605
-1.0775537e-05
0.00038548805
0.0001735094
7.6611125e-05
-3.921413e-05
-0.14569866
0.00021044164
0.00011260063
-0.032686675
-0.13171812
0.00021942274
-0.49553714
-0.032024939
-0.032649645
0.032230561
0.033059524
0.032894178
-0.032585184
-0.032027695
0.03238037
-0.03225539
-0.5612436
-0.00040019573
-0.13166078
0.00019687577
0.16458682
0.00017146053
-0.13161828
0.00018268969
0.00044497824
0.00014559718
-0.00020097008
-0.16469986
-0.00013777203
-0.16511051
0.13102186
7.0362339e-05
-6.5133045e-05
-0.16347295
0.00011374892
0.00019490888
-0.1459641
8.4655967e-05
0.00011981123
7.004253e-05