/*--------------------------------*- C++ -*----------------------------------*\
  =========                 |
  \\      /  F ield         | OpenFOAM: The Open Source CFD Toolbox
   \\    /   O peration     | Website:  https://openfoam.org
    \\  /    A nd           | Version:  7
     \\/     M anipulation  |
\*---------------------------------------------------------------------------*/
FoamFile
{
    version     2.0;
    format      ascii;
    class       volScalarField;
    location    "140";
    object      alphat;
}
// * * * * * * * * * * * * * * * * * * * * * * * * * * * * * * * * * * * * * //

dimensions      [1 -1 -1 0 0 0 0];

internalField   nonuniform List<scalar> 
24866
(
9.3763909
9.3844021
9.3806728
9.6003077
9.7934946
9.790938
9.7861708
9.7911758
9.7903177
9.7846085
9.7849142
9.7849572
9.7846359
9.7903573
9.791273
9.7861531
9.7907325
9.7922517
9.7912401
9.7859266
9.7741324
9.7910512
9.8268278
9.8120262
9.7818243
9.7771877
9.7864018
9.8145943
9.8090228
9.7778874
9.7886625
9.7922639
9.7922651
9.7886723
9.7779433
9.8090785
9.8147205
9.7865102
9.7770609
9.7816208
9.8119474
9.8267749
9.7910399
9.7741354
9.7859558
9.7912988
9.7922752
9.7908208
9.7861641
9.7911831
9.790455
9.7847493
9.7849112
9.7849283
9.7847059
9.7903158
9.7910363
9.7860342
9.7908957
9.7935503
9.7980823
9.7942878
9.7980722
9.7942171
9.7869062
9.7901246
9.7969688
9.7929982
9.7840912
9.7840774
9.784106
9.7840956
9.7930587
9.7970262
9.7901332
9.7867526
9.7936201
9.7968552
9.7927284
9.7940504
9.7878941
9.7788806
9.7769444
9.789567
9.7938921
9.8000674
9.7819902
9.7773708
9.7864185
9.8006221
9.7937968
9.7882868
9.7870999
9.7880352
9.7861035
9.7830215
9.7859992
9.7847749
9.7889899
9.7861511
9.7835774
9.7831887
9.783244
9.7839899
9.7848265
9.7848292
9.7846169
9.7879693
9.7868743
9.7865178
9.7825472
9.7908045
9.7954972
9.7928985
9.7880713
9.7853344
9.7843334
9.783744
9.7841587
9.7845321
9.7844499
9.7838417
9.7843105
9.7834151
9.7828601
9.7836004
9.7859468
9.7830674
9.7822419
9.7825188
9.7835728
9.7846023
9.7852148
9.7849152
9.7850193
9.784655
9.7841627
9.7846227
9.7843361
9.7868788
9.7880748
9.7825566
9.7908083
9.7954994
9.6718201
9.6679158
9.5852588
9.5914992
9.5994262
9.5994226
9.5914894
9.588762
9.5519489
9.6984032
9.7015602
9.5594713
9.5886715
9.5909335
9.584004
9.553498
9.5049424
9.5227659
9.5766146
9.5896928
9.5980799
9.5975774
9.5966055
9.5942398
9.5932397
9.5900943
9.587626
9.5783242
9.5782778
9.5876119
9.5899827
9.59293
9.5947136
9.5962867
9.5882152
9.5971929
9.6737561
9.6717361
9.5884148
9.5127551
9.598538
9.600522
9.5909797
9.7895959
9.785697
9.7896041
9.7862083
9.7835361
9.7858929
9.7830404
9.782208
9.7824702
9.783498
9.7844965
9.7850897
9.7852204
9.7853413
9.7850249
9.7845414
9.7848397
9.7871091
9.7879752
9.7938096
9.7865301
9.5913186
9.602568
9.6286194
9.6984705
9.5518946
9.5887384
9.3924932
9.3781598
9.3801674
9.380163
9.3781505
9.3925042
9.3522029
9.3514111
9.3740579
9.3987199
9.3732627
9.3463885
9.3302443
9.3496159
9.3796984
9.3775756
9.3790052
9.3776363
9.3846754
9.3981008
9.378027
9.3750799
9.392606
9.382219
9.3822882
9.392714
9.3750518
9.3777311
9.3986338
9.2053209
9.1938453
9.186566
9.1868408
9.1935353
9.38406
9.5959876
9.5948439
9.5927369
9.5900778
9.5876041
9.5782976
9.5783022
9.5877666
9.5898124
9.5934007
9.5942559
9.5968647
9.597502
9.5982506
9.5896653
9.5766614
9.522822
9.6618664
9.7155907
9.7005983
9.5536137
9.5841623
9.5910504
9.5885125
9.5592168
9.701599
9.6364213
9.5595528
9.5559872
9.5109375
9.5889023
9.583754
9.6212589
9.6667699
9.800676
9.7864594
9.7773467
9.788293
9.7938801
9.7880458
9.7848421
9.784465
9.7849264
9.7843264
9.7846122
9.7845009
9.783986
9.783222
9.7827612
9.7836488
9.783023
9.7832251
9.7835059
9.7835858
9.7834341
9.7832134
9.7838621
9.7840114
9.7861207
9.7895615
9.7769558
9.7830509
9.7832727
9.7848086
9.783606
9.7828805
9.7825339
9.7824817
9.7827669
9.7836485
9.7862016
9.7835453
9.7822227
9.7822598
9.7836205
9.786184
9.7890346
9.7927612
9.7860362
9.7789188
9.7879434
9.7940952
9.6700155
9.5938777
9.5818018
9.6654824
9.5840555
9.5946683
9.5082239
9.3741048
9.3775336
9.3797537
9.3496647
9.3302789
9.5051189
9.5357421
9.5476622
9.6072538
9.6167491
9.6287581
9.5867019
9.5083676
9.551119
9.3546543
9.3464191
9.3732818
9.3987445
9.3740382
9.3514069
9.3522245
9.171208
9.1992643
9.1873447
9.186224
9.1862203
9.1873389
9.1992766
9.1711953
9.1653113
9.1818063
9.2082849
9.1812811
9.1587351
9.1564047
9.1785329
9.1904028
9.1864509
9.1848057
9.1838818
9.1940291
9.2048126
9.1879284
9.1847213
9.2039492
9.1976795
9.19764
9.2039714
9.1847568
9.1877206
9.0164
9.0291979
9.0218925
9.0145422
9.0147524
9.0216358
9.0293316
9.2054795
9.3987852
9.3775528
9.3752242
9.3925011
9.3822305
9.3823564
9.392795
9.3749563
9.3782655
9.3980056
9.3849729
9.3775442
9.3792009
9.1849661
9.1864016
9.1904517
9.1785855
9.1564271
9.1587654
9.1813206
9.2083237
9.1817656
9.1652817
8.9990189
9.0056849
9.0237318
9.0157724
9.014105
9.0141014
9.0157683
9.0237421
9.0056745
8.9990444
9.0103597
9.0340852
9.0092614
8.9909951
8.9948633
9.0154244
9.0177267
9.014701
9.0125449
9.0121316
9.0218567
9.0286959
9.0165163
9.013804
9.0298895
9.0260108
9.0260364
9.0300014
9.0138841
8.8585058
8.8603864
8.8689124
8.8650013
8.8586114
8.858763
8.8647996
8.8690125
8.8602532
8.8585189
9.0139536
9.1848784
9.2038182
9.1977033
9.1977181
9.2039922
9.1846681
9.188199
9.2046986
9.1942953
9.1837965
9.0120626
9.0126634
9.0146515
9.0177633
9.0154722
8.9948732
8.991018
9.0093018
9.0341252
9.0103219
8.8550105
8.8473298
8.8535569
8.8643447
8.8595765
8.8580236
8.8580196
8.8595732
8.8643522
8.8535493
8.8473521
8.8550438
8.8747356
8.8531432
8.8385443
8.8451574
8.8630759
8.8605797
8.8584174
8.8564414
8.8563827
8.8647277
8.8684048
8.8604096
8.8583784
8.870654
8.8683692
8.8684266
8.8708173
8.7260541
8.7170713
8.7183458
8.7236355
8.7220267
8.7169256
8.7170306
8.7218716
8.7237028
8.7182227
8.7170308
8.7257605
8.8705403
9.0297668
9.0260404
9.0261105
9.0299801
9.0138044
9.0167856
9.0285931
9.0220718
8.8648938
8.8563301
8.8565226
8.858371
8.8606042
8.863116
8.8451608
8.8385616
8.8531827
8.8747745
8.7296546
8.714031
8.7088334
8.7141428
8.7200082
8.7174149
8.7162208
8.7162167
8.7174118
8.7200128
8.7141377
8.708853
8.7140593
8.7296182
8.7114125
8.6999477
8.7074227
8.7225106
8.7179223
8.7162789
8.7146737
8.7148248
8.7215438
8.7231112
8.7182825
8.7169064
8.7258589
8.7246144
8.724692
8.5937856
8.5945341
8.5881491
8.5889171
8.5919373
8.5917567
8.5879343
8.5880049
8.5916374
8.5919761
8.5887998
8.5880645
8.5942381
8.5937065
8.7246313
8.8683951
8.8684871
8.8707765
8.8584271
8.8606651
8.8683316
8.72307
8.7216702
8.7147858
8.7147256
8.7162367
8.7179364
8.7225422
8.7074224
8.6999611
8.7114498
8.5825986
8.5976829
8.5857583
8.5822609
8.5865156
8.5891706
8.5879449
8.5871629
8.5871589
8.5879416
8.5891727
8.5865124
8.5822781
8.5857816
8.5976497
8.582564
8.5736944
8.5810908
8.5935321
8.5882733
8.5869005
8.5856732
8.5859295
8.5911024
8.5913877
8.5887751
8.5879538
8.5943196
8.5936963
8.4740232
8.4741183
8.4745351
8.4700737
8.4704425
8.4719446
8.4725898
8.4698869
8.469933
8.4724967
8.47196
8.4703277
8.4699553
8.4742447
8.4740286
8.4741403
8.5938172
8.7247361
8.7260025
8.7169948
8.7185216
8.5889986
8.5913753
8.5911994
8.5859013
8.5857039
8.5868623
8.5882791
8.5935556
8.5810885
8.573705
8.4580698
8.4648615
8.4772509
8.4684019
8.4660707
8.4693039
8.4699242
8.4695058
8.4690959
8.469092
8.4695022
8.4699242
8.4693021
8.4660856
8.4684208
8.4772208
8.4648297
8.4580612
8.4649557
8.4750739
8.4698365
8.4685882
8.4676727
8.4679624
8.4718011
8.4713648
8.47023
8.4698526
8.4743096
8.3640586
8.3639349
8.3640334
8.3642925
8.3612117
8.361276
8.3617999
8.3628759
8.3610872
8.3611161
8.3628013
8.3617964
8.3611612
8.3610682
8.3640104
8.3639368
8.364046
8.364227
8.4744733
8.594476
8.5880738
8.4699958
8.4704399
8.4713766
8.4718777
8.4679423
8.4676887
8.4685536
8.4698359
8.4750901
8.4649523
8.3576216
8.351404
8.3565166
8.3666508
8.3602569
8.3587233
8.3610441
8.3604126
8.3604306
8.3603161
8.3603125
8.3604266
8.360411
8.3610432
8.3587361
8.3602721
8.3666236
8.3564876
8.3513969
8.3576257
8.3657701
8.3608631
8.3596558
8.3589654
8.3592391
8.361987
8.3611886
8.3610011
8.3609669
8.2599092
8.2620484
8.2619881
8.2620885
8.2622884
8.2601759
8.260015
8.2599349
8.2611881
8.2601112
8.2601282
8.2611264
8.2599163
8.2598987
8.2600145
8.2620161
8.2619876
8.2620923
8.2622191
8.2600804
8.3611267
8.3612
8.3612199
8.3620499
8.3592252
8.3589712
8.3596241
8.3608575
8.3657802
8.2643425
8.257834
8.2523204
8.2561048
8.2643813
8.2598956
8.2589017
8.2604469
8.2590788
8.259293
8.259391
8.2593876
8.2592888
8.259076
8.2604464
8.2589127
8.2599075
8.2643569
8.2560785
8.2523144
8.2578386
8.2643376
8.2598784
8.2586643
8.258117
8.2583428
8.2602289
8.2592939
8.259686
8.1651783
8.1655882
8.1670782
8.1670307
8.1671318
8.1673229
8.1658749
8.1655537
8.1651235
8.166395
8.1658507
8.1658595
8.1663419
8.1650928
8.1654349
8.1657012
8.1670609
8.1670287
8.1671276
8.1672494
8.1657664
8.1653609
8.259876
8.2593405
8.260283
8.2583335
8.2581159
8.2586349
8.259869
8.165714
8.1697137
8.164563
8.159733
8.1624762
8.1692345
8.166202
8.1655666
8.1664762
8.1647085
8.1649681
8.1652031
8.1651999
8.1649636
8.1647048
8.166476
8.165576
8.1662111
8.1692126
8.1624525
8.1597279
8.1645681
8.1697131
8.1657264
8.1644795
8.1640079
8.1641675
8.1653903
8.1644563
8.0757377
8.0766236
8.0771628
8.0782221
8.0781656
8.0782666
8.0784701
8.077468
8.0770382
8.0764269
8.0776214
8.0774605
8.0774636
8.0775738
8.0763864
8.0769167
8.0772863
8.0782188
8.078163
8.0782552
8.0783921
8.0773449
8.0768
8.0758049
8.1645146
8.1654388
8.1641615
8.1640023
8.1644517
8.0762018
8.0775051
8.0810502
8.0770057
8.072811
8.074745
8.0802676
8.0783223
8.0779183
8.0783234
8.0763742
8.0765889
8.076899
8.0768959
8.0765844
8.07637
8.0783232
8.0779261
8.0783292
8.0802479
8.0747237
8.0728068
8.0770113
8.0810531
8.0775199
8.0762284
8.0757827
8.0758673
8.0765909
7.9931419
7.9924117
7.9933539
7.9939776
7.9947606
7.9946905
7.994791
7.9950113
7.9942994
7.9938015
7.9931187
7.9941826
7.9942864
7.9942855
7.9941385
7.9930702
7.9936775
7.9941132
7.9947704
7.994688
7.9947733
7.9949283
7.9941611
7.9935251
7.9924857
7.9931854
8.0766362
8.0758639
8.075774
7.9927676
7.9932067
7.9945551
7.9976832
7.9945328
7.9909146
7.992226
7.9967444
7.9955976
7.9953359
7.9953521
7.9933607
7.9934801
7.9938177
7.9938148
7.9934755
7.9933561
7.9953519
7.9953425
7.9956028
7.9967269
7.9922071
7.9909113
7.9945392
7.9976893
7.994572
7.9932325
7.9927784
7.9927861
7.9143927
7.9144828
7.9138945
7.9148253
7.9154987
7.916113
7.9160335
7.9161332
7.9163657
7.9158353
7.9153002
7.9146151
7.9155217
7.9157987
7.9157949
7.9154796
7.9145601
7.915174
7.9156471
7.9161352
7.9160317
7.9161099
7.9162774
7.9156818
7.9149917
7.9139734
7.9145252
7.9143926
7.9927846
7.9969333
8.0005736
7.9970354
7.9980132
8.0000085
7.9988029
7.9994308
7.999961
8.0007985
8.0008817
7.9992872
7.9205923
7.9173158
7.9170412
7.9150942
7.9150937
7.915425
7.9154223
7.9150892
7.9150898
7.9170414
7.9173218
7.9175016
7.9180547
7.9143513
7.9135274
7.91664
7.9190741
7.9163292
7.9149428
7.9144591
7.8403707
7.8402354
7.8401375
7.8396952
7.8405736
7.8412706
7.8417892
7.8417076
7.8418062
7.842043
7.8416198
7.8410705
7.840425
7.841165
7.8415471
7.8415414
7.8411241
7.8403649
7.8409427
7.8414317
7.8418226
7.8417069
7.8417781
7.8419494
7.8414518
7.8407356
7.8397776
7.8401795
7.8402364
7.8403573
7.9144469
7.9149174
7.9163103
7.919065
7.9166324
7.9135292
7.9143674
7.9180696
7.9174972
7.8435716
7.8434284
7.842944
7.8410932
7.8409646
7.8412676
7.8412654
7.840961
7.8410899
7.8429458
7.8434357
7.8435773
7.8437302
7.8406913
7.8402215
7.8428786
7.8447406
7.8423247
7.8408954
7.7706881
7.770118
7.7699204
7.7696922
7.7693913
7.7701946
7.7708961
7.7713677
7.7712923
7.7713897
7.7716219
7.7712555
7.7707085
7.7701261
7.7707006
7.7711387
7.7711315
7.7706605
7.7700621
7.7705799
7.7710692
7.7714115
7.771293
7.7713573
7.7715231
7.771074
7.7703519
7.7694757
7.7697334
7.7699214
7.7701025
7.77066
7.8408695
7.8423033
7.8447278
7.8428683
7.8402202
7.8407029
7.8437409
7.7733272
7.7734314
7.7732982
7.7726689
7.7709431
7.7706885
7.7709503
7.7709489
7.7706874
7.7709436
7.7726759
7.7733114
7.7734437
7.7733258
7.7708288
7.7706205
7.7728772
7.7742834
7.7721556
7.7054651
7.7039624
7.7033463
7.7030932
7.7027768
7.7026094
7.703326
7.7040184
7.7044765
7.704416
7.7045119
7.7047304
7.7043857
7.7038524
7.7033448
7.7037595
7.7042189
7.7042106
7.7037199
7.7032779
7.7037238
7.7042027
7.7045298
7.7044181
7.7044758
7.7046264
7.7041918
7.7034783
7.7026941
7.7028161
7.7030923
7.7033263
7.7039278
7.7054288
7.7721295
7.7742638
7.7728599
7.7706113
7.770831
7.7043964
7.7064491
7.7067294
7.7065861
7.705863
7.7042767
7.7039029
7.7041178
7.7041185
7.7039079
7.7042873
7.7058839
7.7066165
7.7067609
7.70647
7.7044162
7.7043958
7.7062994
7.7073423
7.6435863
7.6419252
7.6403844
7.6397234
7.6394205
7.6390453
7.6390045
7.6396293
7.6403029
7.6407726
7.6407362
7.6408305
7.6410253
7.6406757
7.6401636
7.6397361
7.6399961
7.640453
7.6404441
7.6399568
7.6396672
7.6400358
7.6404969
7.6408342
7.6407398
7.6407911
7.6409162
7.6404705
7.6397757
7.6390875
7.6390807
7.6394137
7.6396932
7.6403344
7.6418658
7.6435195
7.7073081
7.7062647
7.704367
7.6411727
7.64107
7.6427581
7.64314
7.6429702
7.6421937
7.6407539
7.6402678
7.6404363
7.6404417
7.6402875
7.6407885
7.6422487
7.6430435
7.6432191
7.6428305
7.6411404
7.6412477
7.6428352
7.5821863
7.5826973
7.5812181
7.5796272
7.5789204
7.5785705
7.5781558
7.5782382
7.5787687
7.5794162
7.5799188
7.5799164
7.5800088
7.5801697
7.5797924
7.5793067
7.578961
7.5790676
7.5795066
7.5794972
7.5790289
7.5788911
7.5791806
7.5796186
7.5799878
7.5799214
7.5799665
7.5800557
7.5795773
7.5789086
7.5783173
7.5781837
7.5785512
7.5788687
7.5795435
7.581109
7.5825602
7.5820206
7.6427596
7.6457239
7.6466141
7.6471373
7.6477346
7.6473458
7.6454595
7.5847512
7.5821264
7.5813291
7.5800394
7.5794459
7.5795737
7.5795897
7.5794984
7.5801276
7.5814604
7.5822965
7.5825245
7.5820976
7.5807068
7.5808905
7.5230608
7.5240728
7.5243732
7.523037
7.5213685
7.5206081
7.5202091
7.5197658
7.5199743
7.520409
7.5210253
7.5215832
7.5216261
7.5217167
7.521832
7.5214033
7.5209472
7.5206834
7.5206306
7.5210406
7.521031
7.5205924
7.5206131
7.5208233
7.5212351
7.5216591
7.521633
7.5216721
7.5217138
7.5211799
7.5205421
7.5200472
7.5197809
7.5201657
7.5205144
7.5212168
7.5228278
7.5240938
7.523723
7.5226758
7.5807136
7.5805255
7.581912
7.5823385
7.5240012
7.5237281
7.5229355
7.5217995
7.5210985
7.5211962
7.5212337
7.5212179
7.5219971
7.5232236
7.5240973
7.5244068
7.5239918
7.5228477
7.4673484
7.4675426
7.4682571
7.4683497
7.4671058
7.4653088
7.4644742
7.4640165
7.4635484
7.4638948
7.4642316
7.4648148
7.4654561
7.4655581
7.4656466
7.4657021
7.4651937
7.4647676
7.4645857
7.4643566
7.4647287
7.464719
7.4643187
7.4645152
7.4646462
7.4650315
7.4655387
7.4655677
7.4656012
7.4655805
7.4649633
7.4643579
7.463959
7.4635427
7.4639307
7.4643045
7.4650307
7.4667096
7.467803
7.4675595
7.4667646
7.4665178
7.5224412
7.523576
7.4674403
7.4678246
7.4674646
7.4666959
7.4657181
7.4649015
7.464984
7.4650619
7.4651463
7.466121
7.4672796
7.4682099
7.4686443
7.4682889
7.4148647
7.4140922
7.4142165
7.4145971
7.4144516
7.4132267
7.4112219
7.4102741
7.4097376
7.4092434
7.4097479
7.4099854
7.410538
7.4112963
7.411475
7.4115623
7.4115413
7.4109191
7.4105198
7.4104189
7.4099867
7.4103117
7.4103018
7.4099488
7.4103479
7.4104004
7.4107626
7.4113865
7.4114879
7.4115159
7.411416
7.4106816
7.410106
7.4098015
7.4092079
7.4095853
7.4099797
7.4107304
7.41251
7.4134422
7.4132954
7.4127564
7.4125286
7.4132695
7.4135774
7.4130975
7.4123637
7.4115474
7.4105991
7.4106832
7.4108296
7.4110568
7.4123012
7.4134565
7.4144922
7.4151121
7.3638808
7.3637891
7.3631551
7.3631581
7.3631527
7.3626988
7.3613804
7.3590641
7.3579441
7.3572981
7.3567757
7.3574586
7.357603
7.358136
7.3590448
7.3593177
7.3594053
7.3592927
7.3585245
7.3581417
7.3581156
7.3574546
7.3577217
7.3577113
7.3574157
7.3580428
7.3580231
7.358372
7.3591445
7.3593334
7.3593558
7.3591614
7.3582772
7.357721
7.3575032
7.356705
7.3570566
7.357469
7.3582507
7.3601664
7.3609581
7.360891
7.3606142
7.3604282
7.3610116
7.3612141
7.3605824
7.3598819
7.3592208
7.358123
7.3582215
7.358473
7.3589027
7.3605163
7.3617755
7.3630029
7.314162
7.3153663
7.3154608
7.3149407
7.3147891
7.314348
7.3134561
7.3118607
7.3091201
7.3077555
7.3069701
7.3064232
7.3072846
7.3073703
7.3079118
7.3089844
7.3093592
7.3094497
7.309242
7.3083174
7.3079279
7.3079468
7.3070602
7.307261
7.3072498
7.307019
7.3078705
7.3078077
7.3081663
7.3090975
7.3093785
7.309395
7.3091005
7.3080555
7.3074934
7.30733
7.3063264
7.3066376
7.3070654
7.3078901
7.3099594
7.310664
7.3106897
7.3106567
7.3105086
7.3109494
7.3110342
7.3102422
7.3095526
7.3090078
7.3077578
7.3078717
7.3082598
7.3089621
7.3110539
7.3125976
7.2667112
7.2688813
7.2704564
7.2707182
7.2702882
7.2699988
7.2691018
7.2675196
7.2653079
7.2620348
7.2603655
7.2594361
7.2588724
7.2598512
7.2599937
7.2605999
7.2617956
7.2622731
7.2623706
7.2620738
7.261038
7.2605931
7.2605539
7.259521
7.259666
7.2596534
7.2594758
7.2604716
7.2604683
7.2608827
7.2619268
7.262298
7.2623099
7.2619172
7.2607551
7.260136
7.2599202
7.258786
7.2590606
7.259501
7.2603719
7.2625587
7.2633481
7.2635305
7.2636402
7.2634491
7.2637552
7.2637412
7.262845
7.2621051
7.2615435
7.2601919
7.2603114
7.2608371
7.2618675
7.2645458
7.2216342
7.2251964
7.228459
7.2303687
7.2306872
7.2303304
7.2300147
7.2287128
7.2259734
7.2223799
7.2184664
7.2165003
7.2154685
7.2148736
7.2157079
7.216304
7.2170445
7.2181733
7.2188768
7.2190008
7.2184987
7.2175278
7.216964
7.2164906
7.2156041
7.2157576
7.2157431
7.2155534
7.2164006
7.2168335
7.2173639
7.2183276
7.2189094
7.2189351
7.2183257
7.2172214
7.2164812
7.215837
7.2148645
7.2151664
7.2156192
7.2165029
7.2186086
7.2200439
7.2204782
7.2204291
7.2199664
7.2202449
7.2201108
7.2193115
7.2183943
7.2173775
7.2161731
7.2163061
7.2169209
7.2182632
7.1783706
7.1823024
7.1892825
7.1947469
7.1964192
7.1964892
7.1962091
7.1961818
7.1950526
7.1900402
7.1830547
7.1786047
7.1766162
7.1755757
7.1748512
7.1748381
7.1769889
7.1778941
7.1784984
7.1798829
7.1799866
7.1788301
7.1784222
7.1777071
7.1757191
7.1756818
7.1760172
7.1760016
7.1756262
7.1756206
7.17757
7.1782506
7.1786777
7.1799222
7.1799173
7.1786371
7.1780964
7.1772109
7.1750626
7.1749837
7.1754904
7.1759841
7.1767214
7.1783121
7.1820739
7.1825037
7.1813639
7.1804604
7.1812612
7.1805022
7.1801208
7.1789952
7.1765099
7.1761236
7.1763776
7.1769739
7.1464597
7.1467419
7.1498286
7.1603651
7.1695831
7.1698842
7.1697808
7.1695253
7.1697569
7.1699624
7.1611222
7.1506469
7.1470496
7.1462528
7.1451648
7.1438471
7.1439109
7.1450861
7.1460309
7.1463175
7.1462034
7.1463314
7.1466912
7.1465958
7.1458433
7.1448657
7.1447599
7.1457198
7.1457044
7.1446915
7.1447456
7.1456862
7.1464355
7.1465041
7.1462525
7.1462662
7.1464832
7.1462829
7.1453575
7.1441921
7.1441202
7.1452598
7.1460204
7.1461125
7.1484636
7.1549473
7.1565451
7.1515993
7.1490301
7.1481376
7.1484382
7.1482761
7.1470645
7.1455995
7.1450333
7.145934
7.1212437
7.1215811
7.1224346
7.1248664
7.1238864
7.1251169
7.1263826
7.1261343
7.1254259
7.124426
7.1257623
7.1228012
7.1214867
7.1204945
7.1198501
7.1214341
7.1203566
7.1211611
7.1231754
7.12291
7.1230481
7.1235589
7.1217231
7.1211505
7.122423
7.1208737
7.1212003
7.1211817
7.1207978
7.1223136
7.1209827
7.1215436
7.1233697
7.122959
7.1229816
7.1233451
7.1213911
7.1206866
7.1217771
7.1202763
7.1208617
7.1217442
7.1227215
7.125589
7.1223059
7.1219964
7.1266554
7.1266846
7.1253331
7.1254566
7.1235059
7.1223265
7.1231224
7.1209964
7.1197928
7.1188661
7.1296969
7.1468123
7.1687516
7.193318
7.2056388
7.2037472
7.1896142
7.1672316
7.1473533
7.1298004
7.1187009
7.1196002
7.1289318
7.1472761
7.1783831
7.2216543
7.2585592
7.261146
7.2619606
7.2608771
7.2229179
7.1777601
7.1466971
7.1306147
7.1216866
7.1191748
7.1324935
7.1339006
7.1462852
7.1475889
7.1610468
7.1464361
7.1447626
7.1547152
7.1460596
7.1600323
7.1456895
7.1319933
7.1321801
7.1443628
7.1442417
7.1525471
7.1292122
7.136739
7.1496235
7.156047
7.1545612
7.1450897
7.1362346
7.1308885
7.1213642
7.1196156
7.1325611
7.1329254
7.1451411
7.1601105
7.1446926
7.1461959
7.1463309
7.1536831
7.1611117
7.1545004
7.1673272
7.1570299
7.157478
7.1541398
7.1474064
7.1398919
7.1392239
7.1475016
7.1550997
7.1548771
7.1695771
7.1554202
7.1535449
7.1430452
7.1269386
7.1333692
7.1335222
7.1308657
7.1221459
7.1223552
7.1349452
7.1472232
7.1496489
7.1645422
7.1488008
7.1349467
7.1474914
7.1550589
7.1879336
7.1861813
7.1948543
7.1842576
7.1811296
7.1875005
7.1823902
7.2224956
7.2666606
7.2747055
7.2657582
7.2213044
7.2297774
7.2481881
7.226357
7.2711293
7.2805641
7.2686639
7.2249154
7.2284745
7.2724094
7.2742719
7.2304594
7.1907581
7.157163
7.1811757
7.1728324
7.1613755
7.19531
7.1692106
7.2040623
7.232695
7.2626403
7.2074969
7.2167172
7.2796198
7.2373485
7.2226612
7.300961
7.2578606
7.2049593
7.1698098
7.1551143
7.1882783
7.2051904
7.2335753
7.2007018
7.1952669
7.1657371
7.1463687
7.1461525
7.1467619
7.1465103
7.1462636
7.1468978
7.1662359
7.1682282
7.1692604
7.1694042
7.1681826
7.1994323
7.2011484
7.2202263
7.2136439
7.1719692
7.1442021
7.18578
7.2540165
7.2625393
7.2068825
7.2010602
7.20126
7.2071896
7.2624323
7.2630889
7.2665235
7.2588744
7.2596395
7.2680847
7.2672643
7.2674863
7.2131806
7.207827
7.2079557
7.2134717
7.2682197
7.2683202
7.2700841
7.2619335
7.2620046
7.2238795
7.1702217
7.1375569
7.1216546
7.1212875
7.1304285
7.1334949
7.1334898
7.1303544
7.1211247
7.1214542
7.1372879
7.1700158
7.2239114
7.2619883
7.2618372
7.2697612
7.2661484
7.2654181
7.2077421
7.2016952
7.2011246
7.2072515
7.2660105
7.2666416
7.2695725
7.2611023
7.2600584
7.2675476
7.2634772
7.2729442
7.2791572
7.2358158
7.0750649
6.873463
6.7564797
6.7578074
6.8766546
7.0790187
7.2384839
7.2818865
7.2763183
7.269157
7.2631676
7.1963107
7.1514628
7.1595877
7.2109644
7.2666524
7.2156147
7.2692303
7.2712279
7.2553504
7.0828498
6.9202562
6.8060531
6.6302913
6.5303726
6.423718
6.3857824
6.3851181
6.422202
6.5279276
6.6265284
6.8011641
6.9158591
7.0768976
6.8020179
6.6686178
6.4801268
6.3712156
6.2504805
6.2075025
6.2080493
6.2519287
6.3738317
6.4841337
6.6742694
6.8071167
6.6344237
6.8860945
7.1178639
7.1626155
7.1521778
7.2105755
7.2109075
7.2667215
7.2109592
7.1595942
7.1515568
7.196386
7.2630119
7.2693404
7.216093
7.1635446
7.1525721
7.0928868
7.0923387
6.7727306
6.43279
6.5370773
6.3799436
6.487557
6.337444
6.2013737
6.0820882
6.0233805
6.0228977
6.0805708
6.1985728
6.3333094
6.4815424
6.6288981
6.8787448
6.5309576
6.3734201
6.1996527
6.0272857
5.8927782
5.8227149
5.8232631
5.8944037
6.0303548
6.2043652
6.0872946
6.2604639
6.2178764
6.3961021
6.3962232
6.7733654
6.4331234
6.2606452
6.2178304
6.0296213
6.0298624
5.8264914
5.8965914
5.7479635
5.6687539
5.6681966
5.7462781
5.8933149
6.0823718
6.2533945
6.4260589
6.7633531
6.3890414
6.2104165
6.0246106
5.8230389
5.667975
5.5856858
5.5862222
5.6698017
5.6694748
5.8262955
5.8962035
6.0870661
6.2047843
6.3806888
6.5381661
6.8880892
7.1191722
7.2562467
7.271593
7.2765503
7.2690524
7.2702021
7.301659
7.317323
7.2823752
7.2401219
7.0860707
6.811001
6.636525
6.4896202
6.3391023
6.203096
6.0304637
5.8945854
5.7472668
5.668204
5.585908
5.5853083
5.6676687
5.8230902
6.0245788
6.210621
6.389247
6.7641255
6.426494
6.2538027
6.0824529
5.8932537
5.745801
5.667652
5.8231562
5.823459
6.0253595
6.08382
6.2561342
6.3777445
6.487935
6.6785154
6.8099976
6.923375
7.0845469
6.8840672
6.6338667
6.5344339
6.4280905
6.3904828
6.2124642
6.2122017
6.0249709
6.0828795
5.8933493
6.0281344
6.2005705
6.3746173
6.5323085
6.8808432
6.6313689
6.4841482
6.3356122
6.2010076
6.3760385
6.2551904
6.4272722
6.3901788
6.767279
6.767649
7.0879646
7.1147999
7.2545842
7.2814286
7.2755317
7.3015597
7.2880705
7.3033793
7.3138135
7.2828974
7.2804743
7.1453157
7.1380605
7.1376196
7.1445637
7.2801719
7.2827285
7.3131682
7.2704459
7.3015788
7.2880667
7.301334
7.2741185
7.2680047
7.155097
7.1432024
7.1419119
7.1533953
7.2673404
7.27333
7.2999745
7.2866192
7.2994996
7.3147184
7.2782991
7.2489839
7.1061829
7.0781446
7.0797847
7.1085239
7.2507915
7.2797839
7.3167117
7.3227197
7.3131309
7.2804932
7.2773673
7.137836
7.1300737
7.1285404
7.1360285
7.2765311
7.2796404
7.3114427
7.3013608
7.3299967
7.3113175
7.3207164
7.2872405
7.3085267
7.2656971
7.1139432
7.1479007
7.0944477
6.7846219
6.8979271
7.0938568
7.2532262
7.2879846
7.2799091
7.3087881
7.2769035
7.2671315
7.2508956
7.1138577
7.1585329
7.1474669
7.0870946
7.0878644
7.1479015
7.1592461
7.115088
7.2521793
7.0805741
6.9196511
6.8058944
6.6311909
6.5330066
6.8823636
7.0816601
7.2378167
7.2796088
7.2730234
7.2674255
7.2772134
7.1432635
7.135878
7.1354193
7.1426698
7.155404
7.1214949
7.2672671
7.0960869
6.9047793
6.8156599
6.7759496
6.7507568
6.8067782
6.6712864
6.8076677
6.7509836
6.6820865
6.4379736
6.4952328
6.6020793
6.5237839
6.4347041
6.4264306
6.3691938
6.3674394
6.4621045
6.3240113
6.4637388
6.6047833
6.9038755
6.4971654
6.4289232
6.4397354
6.3714926
6.436868
6.5269769
6.369818
6.2370666
6.4047006
6.7922891
7.1029524
7.1036816
7.1557737
7.1223457
7.2681331
7.3089054
7.2798663
7.2880611
7.2542533
7.0983793
6.9049452
6.7927799
6.3754071
6.3752347
6.2605748
6.283376
6.2190097
6.2161715
6.1887229
6.1995985
6.0149425
6.0725583
6.1919678
6.1871118
6.3183595
6.1858587
6.1907089
6.0132132
5.9991428
5.8578942
6.0634065
6.2127958
6.2801732
6.4004015
6.3709658
6.2573253
6.2152001
6.1852194
6.1964097
6.2338051
6.0705375
6.0130927
6.0056691
5.7857174
5.8047376
5.8758259
5.7262264
5.8765027
5.8584999
6.0654557
6.0076157
5.7861556
5.8050829
5.6466987
5.6225941
5.7036378
5.62283
5.6467703
5.5629712
5.53724
5.5104794
5.59796
5.7656893
6.0020092
6.0601251
6.1858843
6.3206421
6.310286
6.1684792
5.969216
6.1700489
6.1872523
5.9844099
5.839279
5.8206312
6.0445227
5.9819709
5.7451036
5.7271273
5.9889656
6.1987798
6.8563104
6.9714982
7.1560093
7.305813
7.2792769
7.1387686
6.9557662
6.8506715
6.8518822
7.1496398
7.0960045
7.1158938
7.2672099
7.3093529
7.2882868
7.2552634
7.0970757
6.9006662
6.7858408
6.3715921
6.2578363
6.215934
6.280978
6.4016662
6.2351509
6.1970034
6.1858212
6.2137155
6.3711761
6.4365346
6.5259908
6.6050938
6.4973697
6.4284516
6.4400897
6.4652541
6.3697315
6.1931502
6.0720188
6.0135531
6.0060486
6.0645489
5.8590961
5.7861138
5.8053475
5.8773273
6.0158672
6.0012783
6.1876964
6.3209876
6.3274086
6.1958315
6.1901075
6.0685243
5.8606805
5.7051072
5.623304
5.6473843
5.7277155
5.6483613
5.5634889
5.537694
5.6240697
5.7884714
5.8080676
5.8791686
6.0765362
6.0191885
6.0108687
6.1940706
6.2213726
6.3763348
6.4443615
6.6864426
6.7548154
6.8111135
6.9089711
7.0992383
6.8193242
6.779742
6.7547703
6.8124884
6.6761493
6.4688428
6.6100495
6.9070374
6.5013862
6.4331732
6.4412658
6.5328099
6.3753216
6.2430068
6.4111132
6.7960751
6.2883007
6.2239093
6.2654301
6.3818515
6.2058894
6.2058186
6.0189108
5.8079073
5.6480598
5.5632282
5.562618
5.6463927
5.8051627
6.0148635
6.1997368
6.1886195
6.2604297
6.2188004
6.2830692
6.4048838
6.237177
6.2158416
6.371641
6.4370963
6.5279608
6.3704388
6.465261
6.6063373
6.497312
6.4287693
6.4399345
6.318731
6.1868457
6.0649378
6.0073956
5.7858502
5.8577993
5.8761247
6.0724082
6.1923316
6.0134803
5.9986388
6.1861765
6.192263
6.3254669
6.4657919
6.4849056
6.6735559
6.8063923
6.8114344
6.7539915
6.7785677
6.6852413
6.6753464
6.811275
7.0974298
6.9083794
6.817948
6.7532968
6.4971666
6.4405452
6.428592
6.3718664
6.3712646
6.5285237
6.9026947
6.6065227
6.436596
6.2820086
6.2153624
6.0635945
5.8570005
5.7028264
5.6222367
5.5368237
5.6218525
5.6460799
5.725521
5.8757541
5.8046839
5.7847346
6.0056881
6.0141826
6.0718258
6.2374219
6.2001237
6.1879101
6.2173381
6.2588849
6.7901474
6.4052126
6.3757623
6.3760755
6.2004042
6.0145688
5.8050609
5.6466699
5.6222326
5.5373904
5.623645
5.704001
5.7270021
5.8787107
5.8597921
5.7879774
6.0104666
6.0678595
6.0760999
6.1957467
6.0154964
5.8770426
5.858096
5.7851256
6.0059492
6.064368
6.0727518
6.1940128
6.1875725
6.0002022
6.1893862
6.3208255
6.3282426
6.4699219
6.3756573
6.2430366
6.2209664
6.1937809
6.2234134
6.2651783
6.7964428
6.3818805
6.4111382
6.2878791
6.4411118
6.3759943
6.4324951
6.4439643
6.5010912
6.9080387
6.5334699
6.6111747
6.8157524
6.6796058
6.4680952
6.3726961
6.2383104
6.2159292
6.1881451
6.2176047
6.2591941
6.7904259
6.4059288
6.282395
6.4376846
6.3730368
6.4296369
6.4419171
6.4984164
6.9038558
6.5298305
6.6084428
6.8148432
7.0995056
6.7566639
6.6890227
6.78157
6.757304
7.1011456
6.9118559
6.8210939
7.2559562
7.2816923
7.1446393
6.964216
6.8609191
6.8607051
6.9639417
7.1437039
7.2811877
7.1414406
6.9581826
6.9735495
6.8574066
6.1996127
6.4266525
6.4327195
7.0119198
7.1996656
7.3573596
7.2777755
7.2134322
7.1895472
7.1569363
7.1779602
7.1688052
7.2045452
7.1899382
7.1874111
7.1938903
7.1847193
7.20386
7.2313456
7.2598639
7.2190295
7.2352236
7.300315
7.3009962
7.3577531
7.3541718
7.3042465
7.2449205
7.3033342
7.25574
7.219828
7.16629
7.1375284
7.1645538
7.1942596
7.2176258
7.2618315
7.2773491
7.2298762
7.1953821
7.2555165
7.2552933
7.1951899
7.1480817
7.1481912
7.1763076
7.1762103
7.2201281
7.2010015
7.1994088
7.213654
7.1720433
7.1443594
7.1856296
7.2535457
7.2191116
7.1662728
7.137909
7.1311081
7.1468548
7.177507
7.2225695
7.2617412
7.2649936
7.265149
7.2624167
7.2237439
7.1791441
7.1477267
7.1294342
7.1201555
7.1190483
7.1299772
7.1477345
7.1702052
7.1961524
7.2104242
7.2103277
7.1957735
7.1694922
7.14675
7.1294387
7.1192682
7.121953
7.1339247
7.1325039
7.1447516
7.1464147
7.1475738
7.1609757
7.1463372
7.1823189
7.1886584
7.201056
7.1957355
7.2319275
7.2358717
7.2378352
7.2380052
7.2359438
7.2314791
7.2730217
7.3184768
7.3669964
7.3766685
7.3682396
7.363202
7.3136951
7.3217228
7.3130615
7.3627924
7.37081
7.3883309
7.3674415
7.3181831
7.3270872
7.3156826
7.3652714
7.3684314
7.3192007
7.3208697
7.3698386
7.3953906
7.3883037
7.3756489
7.4140917
7.3674256
7.3403151
7.2937882
7.3217073
7.2761538
7.2362064
7.2503678
7.294832
7.3027616
7.2583765
7.3270574
7.3079856
7.3543462
7.3750464
7.4215069
7.3483427
7.3407319
7.3998496
7.4454768
7.4674284
7.5997827
7.5663055
7.4934771
7.4286316
7.3886299
7.3408051
7.3194567
7.2730571
7.2292183
7.249294
7.2945514
7.3229451
7.2832149
7.2402667
7.2777554