/*--------------------------------*- C++ -*----------------------------------*\
  =========                 |
  \\      /  F ield         | OpenFOAM: The Open Source CFD Toolbox
   \\    /   O peration     | Website:  https://openfoam.org
    \\  /    A nd           | Version:  7
     \\/     M anipulation  |
\*---------------------------------------------------------------------------*/
FoamFile
{
    version     2.0;
    format      ascii;
    class       volScalarField;
    location    "140";
    object      T;
}
// * * * * * * * * * * * * * * * * * * * * * * * * * * * * * * * * * * * * * //

dimensions      [0 0 0 1 0 0 0];

internalField   nonuniform List<scalar> 
24866
(
299.99997
299.99997
299.99997
299.99999
300
300
300
300
300
300
300
300
300
300
300
300
300
300
300
300
300
300
300
300
300
300
300
300
300
300
300
300
300
300
300
300
300
300
300
300
300
300
300
300
300
300
300
300
300
300
300
300
300
300
300
300
300
300
300
300
300
300
300
300
300
300
300
300
300
300
300
300
300
300
300
300
300
300
300
300
300
300
300
300
300
300
300
300
300
300
300
300
300
300
300
300
300
300
300
300
300
300
300
300
300
300
300
300
300
300
300
300
300
300
300
300
300
300
300
300.00001
300.00001
300
300.00001
300
300
300
300
300
300
300
300.00001
300.00001
300.00001
300.00001
300.00001
300.00001
300
300
300
300
300
300
300
300
300
300
299.99999
299.99999
299.99999
299.99999
299.99999
299.99999
299.99999
300
300
299.99999
299.99999
299.99999
299.99999
299.99999
299.99999
299.99999
299.99999
299.99999
299.99999
299.99999
299.99998
299.99999
299.99999
299.99999
299.99999
299.99999
299.99999
299.99999
299.99999
299.99999
299.99999
299.99998
299.99999
299.99999
300
300
299.99999
299.99998
299.99999
300
300
300
300
300
300
300
300
300
300
300
300.00001
300.00001
300.00001
300.00001
300.00001
300.00001
300.00001
300
300
300
300
300
300
299.99999
299.99999
300
299.99999
299.99999
299.99997
299.99997
299.99997
299.99997
299.99997
299.99997
299.99997
299.99997
299.99997
299.99997
299.99997
299.99997
299.99997
299.99997
299.99997
299.99997
299.99997
299.99997
299.99997
299.99997
299.99997
299.99997
299.99997
299.99997
299.99997
299.99997
299.99997
299.99997
299.99997
299.99994
299.99994
299.99994
299.99994
299.99994
299.99997
299.99998
299.99999
299.99999
299.99999
299.99999
299.99999
299.99999
299.99999
299.99999
299.99999
299.99999
299.99999
299.99999
299.99999
299.99999
299.99999
299.99999
300
300
300
299.99999
299.99999
299.99999
299.99999
299.99999
300
299.99999
299.99999
299.99999
299.99999
299.99999
299.99999
299.99999
299.99999
300
300
300
300
300
300
300
300.00001
300.00001
300.00001
300.00001
300.00001
300.00001
300
300
300
300
300
300.00001
300.00001
300
300
300
300
300
300
300
300
300
300
300
300
300
300
300
300
300
300
300
300
300
300
300
300
300
300
300
300
300
299.99999
299.99999
300
299.99999
299.99999
299.99998
299.99998
299.99997
299.99997
299.99997
299.99997
299.99999
299.99999
299.99999
299.99999
299.99999
299.99999
299.99999
299.99999
299.99999
299.99998
299.99997
299.99997
299.99997
299.99997
299.99997
299.99997
299.99995
299.99995
299.99994
299.99994
299.99994
299.99994
299.99995
299.99995
299.99995
299.99995
299.99995
299.99995
299.99995
299.99995
299.99995
299.99995
299.99994
299.99994
299.99994
299.99994
299.99994
299.99994
299.99994
299.99994
299.99994
299.99994
299.99994
299.99994
299.99994
299.99991
299.99991
299.99991
299.99991
299.99991
299.99991
299.99991
299.99994
299.99997
299.99997
299.99997
299.99997
299.99997
299.99997
299.99997
299.99997
299.99997
299.99997
299.99997
299.99997
299.99997
299.99994
299.99994
299.99995
299.99995
299.99995
299.99995
299.99995
299.99995
299.99995
299.99995
299.99992
299.99991
299.99992
299.99991
299.99991
299.99991
299.99991
299.99992
299.99991
299.99991
299.99992
299.99992
299.99992
299.99992
299.99992
299.99991
299.99992
299.99991
299.99991
299.99991
299.99991
299.99991
299.99991
299.99991
299.99991
299.99992
299.99992
299.99991
299.99991
299.99987
299.99987
299.99987
299.99986
299.99986
299.99986
299.99986
299.99987
299.99987
299.99987
299.99991
299.99994
299.99994
299.99994
299.99994
299.99994
299.99994
299.99994
299.99994
299.99994
299.99994
299.99991
299.99991
299.99991
299.99992
299.99991
299.99992
299.99992
299.99992
299.99992
299.99992
299.99988
299.99987
299.99987
299.99987
299.99987
299.99987
299.99987
299.99987
299.99987
299.99987
299.99987
299.99988
299.99988
299.99988
299.99988
299.99987
299.99987
299.99987
299.99987
299.99987
299.99987
299.99986
299.99987
299.99987
299.99987
299.99987
299.99988
299.99988
299.99987
299.99982
299.99981
299.99981
299.99981
299.9998
299.9998
299.9998
299.9998
299.99981
299.99981
299.99981
299.99982
299.99987
299.99991
299.99992
299.99992
299.99991
299.99991
299.99991
299.99991
299.99991
299.99987
299.99987
299.99987
299.99987
299.99987
299.99987
299.99987
299.99988
299.99988
299.99988
299.99983
299.99982
299.99982
299.99981
299.99982
299.99981
299.99981
299.99981
299.99981
299.99982
299.99981
299.99982
299.99982
299.99983
299.99983
299.99982
299.99982
299.99981
299.99981
299.99981
299.9998
299.9998
299.9998
299.99981
299.99981
299.99981
299.99982
299.99982
299.99982
299.99975
299.99974
299.99973
299.99973
299.99973
299.99972
299.99972
299.99972
299.99972
299.99973
299.99973
299.99973
299.99974
299.99975
299.99982
299.99988
299.99988
299.99987
299.99987
299.99987
299.99987
299.99981
299.9998
299.9998
299.99981
299.99981
299.99982
299.99981
299.99982
299.99982
299.99983
299.99976
299.99976
299.99975
299.99974
299.99974
299.99974
299.99973
299.99972
299.99972
299.99973
299.99974
299.99973
299.99974
299.99975
299.99975
299.99975
299.99975
299.99974
299.99973
299.99974
299.99972
299.99972
299.99972
299.99972
299.99973
299.99973
299.99973
299.99974
299.99975
299.99965
299.99965
299.99964
299.99963
299.99963
299.99963
299.99961
299.99961
299.99961
299.99961
299.99963
299.99962
299.99963
299.99964
299.99965
299.99965
299.99975
299.99982
299.99982
299.99981
299.99981
299.99973
299.99973
299.99972
299.99972
299.99972
299.99973
299.99974
299.99974
299.99974
299.99975
299.99965
299.99966
299.99966
299.99965
299.99964
299.99963
299.99963
299.99962
299.99962
299.99962
299.99962
299.99963
299.99963
299.99964
299.99965
299.99966
299.99966
299.99965
299.99964
299.99963
299.99963
299.99962
299.99962
299.99962
299.99962
299.99963
299.99963
299.99963
299.99964
299.99952
299.99952
299.99952
299.99951
299.9995
299.9995
299.99949
299.99949
299.99948
299.99948
299.99949
299.99949
299.99949
299.9995
299.99951
299.99952
299.99952
299.99952
299.99964
299.99974
299.99973
299.99963
299.99963
299.99963
299.99962
299.99962
299.99962
299.99962
299.99963
299.99963
299.99964
299.99951
299.99952
299.99953
299.99953
299.99952
299.99951
299.9995
299.9995
299.99949
299.99949
299.99949
299.99949
299.9995
299.9995
299.99951
299.99952
299.99953
299.99953
299.99952
299.99951
299.9995
299.9995
299.99949
299.99949
299.99949
299.99949
299.9995
299.9995
299.9995
299.99936
299.99937
299.99937
299.99937
299.99937
299.99936
299.99935
299.99935
299.99935
299.99934
299.99934
299.99934
299.99935
299.99935
299.99936
299.99937
299.99937
299.99937
299.99937
299.99936
299.9995
299.9995
299.9995
299.99949
299.99949
299.99949
299.99949
299.9995
299.9995
299.99936
299.99937
299.99937
299.99938
299.99938
299.99937
299.99937
299.99936
299.99935
299.99935
299.99935
299.99935
299.99935
299.99935
299.99935
299.99936
299.99937
299.99938
299.99938
299.99937
299.99936
299.99935
299.99935
299.99935
299.99934
299.99934
299.99935
299.99935
299.99935
299.99921
299.99922
299.99922
299.99922
299.99922
299.99922
299.99922
299.99921
299.99921
299.99922
299.99921
299.99921
299.99922
299.9992
299.99921
299.99922
299.99922
299.99922
299.99922
299.99922
299.99922
299.99921
299.99935
299.99935
299.99935
299.99934
299.99935
299.99935
299.99935
299.99921
299.99922
299.99923
299.99922
299.99923
299.99923
299.99922
299.99923
299.99922
299.99921
299.99922
299.99922
299.99922
299.99922
299.99921
299.99922
299.99923
299.99922
299.99922
299.99922
299.99922
299.99922
299.99921
299.99921
299.99922
299.99921
299.99921
299.99922
299.99921
299.99913
299.99913
299.99914
299.99912
299.99912
299.99911
299.99912
299.99914
299.99913
299.99912
299.99915
299.99914
299.99914
299.99915
299.99912
299.99913
299.99914
299.99912
299.99911
299.99911
299.99912
299.99914
299.99913
299.99913
299.99921
299.99922
299.99922
299.99922
299.99922
299.99916
299.99913
299.99914
299.99915
299.99913
299.99912
299.99912
299.99913
299.99915
299.99914
299.99913
299.99916
299.99915
299.99915
299.99916
299.99913
299.99914
299.99915
299.99913
299.99912
299.99912
299.99913
299.99914
299.99914
299.99913
299.99915
299.99915
299.99915
299.99915
299.9992
299.99917
299.99917
299.99918
299.99915
299.99914
299.99914
299.99915
299.99918
299.99917
299.99916
299.9992
299.99919
299.99919
299.9992
299.99916
299.99917
299.99918
299.99915
299.99914
299.99914
299.99915
299.99918
299.99917
299.99917
299.9992
299.99915
299.99915
299.99915
299.9992
299.99921
299.99917
299.99918
299.99919
299.99916
299.99915
299.99915
299.99916
299.99919
299.99918
299.99917
299.99921
299.9992
299.9992
299.9992
299.99917
299.99918
299.99918
299.99916
299.99914
299.99914
299.99916
299.99918
299.99918
299.99917
299.9992
299.99919
299.99919
299.99938
299.99939
299.99935
299.99936
299.99936
299.99933
299.99932
299.99932
299.99933
299.99936
299.99936
299.99935
299.99938
299.99938
299.99938
299.99938
299.99935
299.99936
299.99936
299.99933
299.99931
299.99931
299.99933
299.99936
299.99936
299.99935
299.99939
299.99939
299.9992
299.99907
299.99892
299.99907
299.99894
299.9988
299.99901
299.99892
299.99886
299.99886
299.99892
299.99901
299.99917
299.99937
299.99936
299.99936
299.99939
299.99939
299.99939
299.99939
299.99935
299.99936
299.99936
299.99934
299.99932
299.99932
299.99933
299.99936
299.99936
299.99935
299.99939
299.99938
299.99969
299.99969
299.99969
299.99966
299.99967
299.99966
299.99964
299.99962
299.99962
299.99964
299.99966
299.99967
299.99966
299.99969
299.99969
299.99969
299.99969
299.99966
299.99966
299.99966
299.99964
299.99962
299.99962
299.99964
299.99967
299.99967
299.99966
299.9997
299.9997
299.9997
299.99939
299.99939
299.99936
299.99937
299.99937
299.99934
299.99933
299.99933
299.99934
299.99965
299.99967
299.99967
299.99967
299.9997
299.9997
299.9997
299.9997
299.99966
299.99967
299.99967
299.99964
299.99962
299.99962
299.99964
299.99966
299.99967
299.99966
299.99969
300.00009
300.00009
300.00009
300.00009
300.00006
300.00007
300.00006
300.00003
300.00002
300.00002
300.00003
300.00006
300.00007
300.00006
300.00009
300.00009
300.00009
300.00009
300.00006
300.00007
300.00006
300.00003
300.00002
300.00002
300.00004
300.00006
300.00007
300.00007
300.00009
300.0001
300.0001
300.00009
299.9997
299.99967
299.99968
299.99967
299.99965
299.99963
299.99963
300.00003
300.00004
300.00007
300.00007
300.00007
300.00009
300.0001
300.0001
300.00009
300.00006
300.00007
300.00006
300.00004
300.00002
300.00002
300.00003
300.00006
300.00007
300.00006
300.00053
300.00055
300.00055
300.00055
300.00055
300.00053
300.00053
300.00052
300.0005
300.00049
300.00049
300.00051
300.00052
300.00054
300.00053
300.00055
300.00056
300.00056
300.00055
300.00053
300.00054
300.00052
300.00051
300.0005
300.0005
300.00051
300.00053
300.00054
300.00054
300.00055
300.00056
300.00056
300.00055
300.00054
300.00007
300.00008
300.00007
300.00005
300.00003
300.0005
300.0005
300.00051
300.00053
300.00054
300.00054
300.00055
300.00056
300.00056
300.00055
300.00053
300.00054
300.00052
300.00051
300.0005
300.0005
300.00051
300.00052
300.00054
300.00103
300.00103
300.00104
300.00105
300.00105
300.00104
300.00103
300.00103
300.00102
300.00101
300.00101
300.00101
300.00101
300.00102
300.00104
300.00103
300.00104
300.00105
300.00105
300.00104
300.00104
300.00104
300.00102
300.00101
300.00101
300.00101
300.00102
300.00102
300.00104
300.00104
300.00104
300.00105
300.00105
300.00104
300.00104
300.00104
300.00054
300.00053
300.00052
300.00102
300.00101
300.00101
300.00102
300.00102
300.00104
300.00104
300.00104
300.00105
300.00105
300.00104
300.00103
300.00104
300.00102
300.00101
300.00101
300.00101
300.00101
300.00102
300.00149
300.00151
300.00151
300.0015
300.00151
300.00151
300.0015
300.00151
300.00151
300.00149
300.00149
300.00149
300.00149
300.00149
300.00149
300.00151
300.00151
300.0015
300.00152
300.00152
300.00151
300.00151
300.00151
300.00149
300.00149
300.00149
300.00149
300.00149
300.00149
300.00151
300.00151
300.0015
300.00152
300.00152
300.0015
300.00151
300.00151
300.00149
300.00102
300.00094
300.00087
300.00083
300.00083
300.00087
300.00094
300.00145
300.00149
300.00151
300.00151
300.0015
300.00151
300.00151
300.0015
300.00151
300.00151
300.00149
300.00149
300.00149
300.00149
300.00149
300.0019
300.0019
300.00192
300.00192
300.00191
300.00192
300.00192
300.00191
300.00192
300.00192
300.0019
300.0019
300.00191
300.00191
300.0019
300.0019
300.00192
300.00192
300.00191
300.00192
300.00192
300.00191
300.00192
300.00192
300.0019
300.00191
300.00191
300.00191
300.00191
300.0019
300.00192
300.00192
300.00191
300.00192
300.00192
300.00191
300.00192
300.00192
300.0019
300.0019
300.00149
300.00149
300.00149
300.00149
300.0019
300.0019
300.00192
300.00192
300.00191
300.00192
300.00192
300.00191
300.00192
300.00192
300.0019
300.0019
300.0019
300.0019
300.00224
300.00224
300.00223
300.00225
300.00226
300.00224
300.00226
300.00226
300.00225
300.00226
300.00226
300.00224
300.00225
300.00225
300.00225
300.00225
300.00224
300.00226
300.00226
300.00225
300.00226
300.00226
300.00225
300.00226
300.00226
300.00224
300.00225
300.00225
300.00225
300.00225
300.00224
300.00226
300.00226
300.00225
300.00226
300.00226
300.00225
300.00226
300.00225
300.00223
300.00224
300.00224
300.0019
300.0019
300.00224
300.00224
300.00224
300.00225
300.00226
300.00224
300.00225
300.00225
300.00224
300.00225
300.00225
300.00223
300.00224
300.00224
300.0025
300.0025
300.0025
300.00249
300.00251
300.00252
300.00251
300.00252
300.00252
300.00251
300.00252
300.00252
300.0025
300.00251
300.00252
300.00252
300.00251
300.00251
300.00252
300.00253
300.00251
300.00252
300.00252
300.00251
300.00253
300.00252
300.00251
300.00251
300.00252
300.00252
300.00251
300.0025
300.00252
300.00252
300.00251
300.00252
300.00252
300.00251
300.00252
300.00251
300.0025
300.0025
300.00251
300.00251
300.0025
300.0025
300.00251
300.00252
300.00251
300.00251
300.00251
300.0025
300.00252
300.00251
300.00249
300.0025
300.00269
300.00269
300.00269
300.00269
300.00268
300.0027
300.0027
300.00269
300.0027
300.0027
300.0027
300.00271
300.00271
300.00269
300.0027
300.00271
300.00271
300.0027
300.0027
300.00271
300.00272
300.0027
300.00271
300.00271
300.0027
300.00272
300.00271
300.0027
300.0027
300.00271
300.00271
300.0027
300.00269
300.00271
300.00271
300.0027
300.0027
300.0027
300.00269
300.00271
300.0027
300.00268
300.00269
300.0027
300.0027
300.00269
300.00269
300.0027
300.00271
300.00269
300.0027
300.0027
300.00269
300.0027
300.0027
300.00268
300.0028
300.0028
300.00281
300.00281
300.0028
300.0028
300.00281
300.00282
300.00281
300.00282
300.00282
300.00282
300.00283
300.00283
300.00282
300.00282
300.00283
300.00283
300.00283
300.00282
300.00283
300.00284
300.00282
300.00282
300.00282
300.00282
300.00284
300.00283
300.00282
300.00283
300.00283
300.00283
300.00283
300.00282
300.00283
300.00283
300.00282
300.00282
300.00282
300.00281
300.00282
300.00282
300.00281
300.00281
300.00282
300.00282
300.00282
300.00281
300.00282
300.00283
300.00281
300.00281
300.00281
300.00281
300.00282
300.00281
300.00287
300.00286
300.00287
300.00287
300.00287
300.00287
300.00286
300.00287
300.00288
300.00287
300.00287
300.00287
300.00287
300.00289
300.00289
300.00288
300.00289
300.0029
300.0029
300.00289
300.00288
300.00289
300.00289
300.00288
300.00288
300.00288
300.00288
300.00289
300.00289
300.00288
300.00289
300.0029
300.0029
300.00289
300.00288
300.00289
300.00289
300.00287
300.00287
300.00287
300.00287
300.00288
300.00287
300.00286
300.00288
300.00289
300.00289
300.00288
300.00287
300.00288
300.00288
300.00287
300.00287
300.00287
300.00287
300.00288
300.0029
300.00289
300.00287
300.00289
300.00289
300.00289
300.00289
300.00287
300.00289
300.0029
300.00288
300.00288
300.00289
300.00289
300.00291
300.00291
300.0029
300.00292
300.00293
300.00293
300.00292
300.0029
300.00291
300.00292
300.0029
300.00289
300.00289
300.0029
300.00292
300.00291
300.0029
300.00292
300.00293
300.00293
300.00292
300.0029
300.00291
300.00292
300.0029
300.00289
300.00289
300.00289
300.0029
300.00289
300.00288
300.00289
300.00291
300.00291
300.00291
300.0029
300.00291
300.00292
300.0029
300.00289
300.00289
300.00289
300.00285
300.00287
300.00287
300.00286
300.00288
300.00288
300.00288
300.00287
300.00286
300.00287
300.00287
300.00285
300.00284
300.00284
300.00285
300.00288
300.00287
300.00288
300.0029
300.00291
300.00291
300.0029
300.00288
300.00288
300.00288
300.00286
300.00285
300.00285
300.00286
300.00288
300.00288
300.00288
300.0029
300.00292
300.00292
300.0029
300.00288
300.00288
300.00288
300.00286
300.00285
300.00284
300.00285
300.00286
300.00284
300.00284
300.00286
300.00289
300.0029
300.00289
300.00288
300.00287
300.00288
300.00285
300.00285
300.00285
300.00281
300.00281
300.00284
300.00284
300.00283
300.00286
300.00286
300.00286
300.00286
300.00283
300.00284
300.00284
300.00281
300.0028
300.0028
300.00281
300.00285
300.00283
300.00284
300.00288
300.0029
300.0029
300.00288
300.00284
300.00284
300.00285
300.00282
300.00281
300.00281
300.00282
300.00285
300.00284
300.00285
300.00288
300.0029
300.0029
300.00288
300.00285
300.00283
300.00285
300.00282
300.00281
300.00281
300.0028
300.00283
300.00278
300.00279
300.00284
300.00288
300.00289
300.00288
300.00284
300.00283
300.00285
300.00281
300.00281
300.00278
300.00278
300.0028
300.00284
300.00283
300.00284
300.00286
300.00286
300.00284
300.00283
300.00284
300.0028
300.00278
300.00278
300.00279
300.00284
300.00282
300.00283
300.00287
300.00289
300.00289
300.00287
300.00283
300.00282
300.00284
300.0028
300.00278
300.00278
300.0028
300.00284
300.00282
300.00283
300.00287
300.00289
300.00289
300.00287
300.00283
300.00282
300.00284
300.0028
300.00278
300.00278
300.0028
300.00283
300.00279
300.00278
300.00284
300.00287
300.00288
300.00287
300.00283
300.00282
300.00284
300.0028
300.00282
300.00281
300.00295
300.00323
300.00368
300.00416
300.00446
300.00441
300.00405
300.00361
300.00321
300.00294
300.00282
300.00282
300.00295
300.00322
300.00389
300.00492
300.00599
300.00667
300.00671
300.0061
300.005
300.00391
300.00322
300.00294
300.00282
300.00281
300.00277
300.00278
300.00281
300.00283
300.0028
300.00284
300.00281
300.00294
300.00284
300.00281
300.00283
300.00278
300.00277
300.00282
300.00281
300.00296
300.00295
300.00307
300.00328
300.00342
300.00337
300.00316
300.00302
300.00293
300.00282
300.00281
300.00277
300.00278
300.0028
300.0028
300.00281
300.00283
300.00282
300.00294
300.00304
300.00286
300.00281
300.00283
300.00281
300.00283
300.00276
300.00277
300.00279
300.00277
300.00285
300.00295
300.00288
300.00288
300.00293
300.00286
300.00289
300.00299
300.003
300.00296
300.00286
300.00287
300.00282
300.00287
300.0029
300.00285
300.00288
300.00282
300.00285
300.00298
300.00299
300.00291
300.00309
300.00298
300.00287
300.00298
300.00287
300.00294
300.00291
300.00297
300.00291
300.00294
300.00302
300.00319
300.00301
300.00296
300.00302
300.00293
300.00297
300.00302
300.00298
300.00301
300.00305
300.00305
300.00304
300.00349
300.00332
300.00309
300.00375
300.00325
300.00323
300.00367
300.00429
300.00331
300.00347
300.00475
300.00478
300.00436
300.00717
300.00549
300.00404
300.00325
300.00296
300.00298
300.00323
300.00367
300.0031
300.00294
300.00291
300.0028
300.00283
300.00283
300.00283
300.00283
300.0028
300.00291
300.00296
300.00299
300.00299
300.00296
300.00299
300.00304
300.00346
300.00332
300.00326
300.00315
300.00398
300.00593
300.00848
300.00868
300.00873
300.00873
300.00869
300.0085
300.00802
300.0072
300.00644
300.00644
300.00721
300.00803
300.00853
300.00872
300.00877
300.00877
300.00872
300.00853
300.00804
300.00724
300.00647
300.00647
300.00502
300.0037
300.00309
300.00288
300.00287
300.00297
300.00302
300.00302
300.00297
300.00287
300.00288
300.00308
300.00367
300.00497
300.00642
300.00642
300.00718
300.00797
300.00845
300.00864
300.00868
300.00867
300.00864
300.00849
300.00802
300.00723
300.00646
300.00645
300.00721
300.008
300.00894
300.00869
300.00739
300.00512
300.00312
300.00188
300.0019
300.00317
300.00517
300.00744
300.00871
300.00892
300.00799
300.00608
300.00417
300.00329
300.00346
300.00452
300.00674
300.00867
300.00848
300.00913
300.00814
300.00522
300.00367
300.0023
300.00139
300.00058
300.00003
299.99972
299.9997
300
300.00056
300.00135
300.00226
300.00362
300.00514
300.00225
300.00112
300.00055
300.00011
299.99983
299.99965
299.99966
299.99984
300.00014
300.00058
300.00116
300.0023
300.00139
300.00325
300.00705
300.00912
300.00898
300.00873
300.00873
300.00676
300.00453
300.00347
300.0033
300.00419
300.00612
300.00851
300.00869
300.00915
300.00899
300.00652
300.00651
300.002
300
300.00056
300.0001
300.00057
300.00058
300.00071
300.00075
300.00074
300.00074
300.00073
300.00069
300.00055
300.00054
300.00135
300.00315
300.00053
300.00009
300.00067
300.00129
300.00167
300.00183
300.00186
300.00171
300.00132
300.00069
300.00072
299.99979
299.99959
299.99968
299.99968
300.002
299.99998
299.99976
299.99959
300.00067
300.0007
300.00179
300.00168
300.00231
300.00257
300.00254
300.00227
300.00164
300.0007
299.99979
299.99997
300.00191
299.99965
299.99959
300.00068
300.00175
300.00249
300.00281
300.00283
300.00254
300.0025
300.00179
300.00162
300.00066
300.00062
300.00006
300.00054
300.00325
300.00707
300.00818
300.00917
300.00897
300.00803
300.00723
300.00831
300.00896
300.00877
300.00752
300.00526
300.0023
300.00137
300.00052
300.0005
300.00062
300.00124
300.00162
300.00224
300.0025
300.00281
300.00278
300.00247
300.00178
300.00067
299.99958
299.99964
300.00191
299.99996
299.99977
300.0007
300.00164
300.00223
300.00249
300.00177
300.00177
300.00065
300.00066
299.99975
300.00005
300.00052
300.00112
300.0023
300.0037
300.00527
300.00326
300.00136
300.00054
299.99997
299.99965
299.99955
299.99955
300.00064
300.00067
300.00164
300.00128
300.00066
300.00008
300.00053
300.00318
300.00136
300.00054
300.00054
300.00066
300.00009
299.99975
299.99998
299.99965
300.00201
300.002
300.00655
300.0071
300.0082
300.00878
300.00899
300.00831
300.00746
300.00773
300.00861
300.00979
300.00992
300.01014
300.01014
300.01012
300.01011
300.00987
300.00972
300.00853
300.00719
300.00826
300.00741
300.00825
300.0089
300.00909
300.00903
300.00886
300.00885
300.00901
300.00909
300.00891
300.00828
300.00745
300.00828
300.0089
300.00866
300.00802
300.00687
300.0063
300.00632
300.0069
300.00805
300.00868
300.00889
300.00897
300.00852
300.00968
300.0098
300.00999
300.00997
300.00997
300.00998
300.00979
300.0097
300.00854
300.00767
300.00789
300.00856
300.00897
300.00909
300.00995
300.00844
300.00726
300.00947
300.00672
300.0016
300.00312
300.00542
300.00808
300.00911
300.00972
300.00997
300.0099
300.00915
300.00809
300.00698
300.00914
300.00901
300.00643
300.00645
300.00903
300.00918
300.00703
300.00817
300.00523
300.0037
300.00232
300.0014
300.00057
300.00328
300.00528
300.00752
300.00878
300.009
300.0092
300.00995
300.01017
300.01017
300.01016
300.01014
300.00958
300.00737
300.0085
300.00546
300.00328
300.00293
300.00171
300.00116
300.00171
300.00025
300.00171
300.00116
299.99968
299.99853
299.99957
300.00061
299.99966
299.99845
299.99786
299.99775
299.99883
299.99948
299.99937
299.99948
300.00061
300.00317
299.99955
299.99785
299.99851
299.99773
299.99841
299.99963
299.99882
299.99833
299.99889
300.00162
300.00684
300.00686
300.00961
300.00741
300.00858
300.01006
300.00979
300.0092
300.0082
300.00554
300.00319
300.00162
299.99847
299.99848
299.9968
299.99726
299.99547
299.99696
299.99662
299.99803
299.99904
299.99917
299.99934
299.99782
299.99809
299.99784
299.99935
299.99977
299.99801
299.99788
299.99741
299.99699
299.99731
299.99891
299.99854
299.99687
299.99553
299.99665
299.99808
299.99835
299.9992
299.99909
299.99718
299.99776
299.99995
299.99993
300.00027
299.99991
299.99786
299.99739
299.99712
299.9977
299.99988
300.00036
299.99783
299.99791
299.99787
300.0004
300.00054
299.99784
299.9949
299.99515
299.99544
299.99552
299.99589
299.99657
299.9972
299.99611
299.99499
299.99428
299.99497
299.99656
299.99618
299.99573
299.99348
299.99405
299.99345
299.99299
299.99058
299.99195
299.99402
300.00237
300.00454
300.00713
300.00978
300.00859
300.00606
300.00367
300.0019
300.00193
300.00948
300.00673
300.00729
300.00847
300.00994
300.0091
300.00811
300.00547
300.00316
300.0016
299.99854
299.99688
299.99555
299.99732
299.99894
299.99838
299.9981
299.99667
299.997
299.99778
299.99848
299.99968
300.00066
299.99961
299.99791
299.99856
299.99952
299.99886
299.99938
299.99923
299.99911
299.99719
299.99744
299.99792
299.99779
300
299.99998
299.99981
299.99804
299.99786
299.99813
299.99941
299.99936
299.99785
299.99741
299.9979
299.99797
299.99791
300.00044
300.00032
300.00042
300.00057
299.99788
299.99791
299.99775
299.99993
299.99994
299.99921
299.99906
299.99715
299.99663
299.99698
299.99775
299.99856
299.99973
300.00121
300.00175
300.00333
300.00551
300.00298
300.00177
300.00121
300.00176
300.00029
299.9995
300.00066
300.00322
299.99961
299.99791
299.99845
299.99967
299.99882
299.99833
299.99892
300.00167
299.9973
299.99552
299.99683
299.99851
299.99804
299.99804
299.99904
299.99992
300.0004
300.00055
300.00053
300.00036
299.9999
299.99903
299.99802
299.99659
299.99679
299.99546
299.99723
299.99886
299.9983
299.99691
299.99769
299.9984
299.99963
299.99879
299.99947
300.00062
299.99955
299.99782
299.99849
299.99805
299.99778
299.99734
299.99711
299.99769
299.99782
299.9999
299.99917
299.99932
299.99975
299.99796
299.99779
299.99932
299.99936
299.99948
300.00057
300.00114
300.00229
300.00174
300.00119
300.00175
299.99969
300.00026
300.00176
300.00555
300.00335
300.00298
300.0012
299.99957
299.99851
299.99784
299.9977
299.9988
299.99965
300.00323
300.00065
299.99841
299.99724
299.99691
299.99734
299.99781
299.99788
299.99783
299.99784
299.99784
300.00036
300.00023
299.99987
299.9999
299.99769
299.9971
299.99901
299.99912
299.99827
299.998
299.99657
299.99545
299.99677
300.00167
299.99887
299.99847
299.99847
299.99801
299.99902
299.99992
300.00039
299.99786
299.99787
299.99787
299.99791
300.00027
299.9999
299.99784
299.99771
299.99714
299.99736
299.99914
299.9993
299.99973
299.9999
299.99785
299.99772
299.99711
299.99737
299.99914
299.9993
299.99779
299.99797
299.99779
299.99805
299.99934
299.99946
299.99879
299.99831
299.99694
299.99663
299.99549
299.99683
300.00167
299.99851
299.9989
299.99727
299.99841
299.99771
299.99784
299.9985
299.99956
300.00321
299.99965
300.00063
300.00175
300.00025
299.99946
299.99878
299.99829
299.99692
299.99658
299.99546
299.99677
300.00166
299.99887
299.99723
299.9984
299.9977
299.99783
299.99849
299.99954
300.00322
299.99964
300.00062
300.00174
300.00554
300.00118
299.99968
300.00174
300.00119
300.00553
300.00334
300.00298
300.00818
300.00868
300.00616
300.00375
300.00197
300.00198
300.00378
300.00615
300.00861
300.00612
300.00373
300.00459
300.0024
299.99405
299.9973
299.99727
300.00575
300.01169
300.00826
300.00472
300.00343
300.00302
300.00301
300.00343
300.00321
300.00325
300.00291
300.00286
300.00306
300.00297
300.00322
300.00364
300.00423
300.00427
300.00473
300.00803
300.00806
300.00829
300.00713
300.00529
300.00389
300.00529
300.00546
300.00493
300.00361
300.00305
300.00308
300.00371
300.00427
300.00428
300.00474
300.00464
300.00421
300.00652
300.00652
300.00422
300.00322
300.00322
300.00336
300.00336
300.00346
300.00304
300.003
300.00332
300.00326
300.00315
300.00399
300.00594
300.00493
300.00361
300.00305
300.00294
300.00322
300.00391
300.005
300.00612
300.00677
300.00677
300.00612
300.00502
300.00394
300.00324
300.00296
300.00283
300.00282
300.00295
300.00324
300.00369
300.00419
300.00453
300.00453
300.00418
300.00369
300.00323
300.00295
300.00281
300.00282
300.00278
300.00277
300.00281
300.00284
300.00283
300.0028
300.00281
300.00287
300.00298
300.00311
300.00294
300.00295
300.003
300.00304
300.00304
300.003
300.00295
300.00293
300.00286
300.00274
300.00274
300.00275
300.00273
300.00285
300.00289
300.00286
300.00273
300.00274
300.00272
300.00275
300.00289
300.00291
300.00287
300.00274
300.00277
300.0029
300.00293
300.00278
300.00278
300.00275
300.00274
300.00275
300.00307
300.00293
300.00308
300.00335
300.00356
300.0031
300.00328
300.00316
300.00327
300.0034
300.00462
300.00415
300.00384
300.00429
300.00382
300.00304
300.00298
300.00344
300.00294
300.00324
300.0058
300.00448
300.00319
300.00271
300.00272
300.00293
300.00289
300.00296
300.003
300.00319
300.00308
300.00336
300.00302
300.00309
300.00357
300.00418
300.00328
300.00317
300.00297
300.00301
300.00293
300.0029
300.00276
300.00279
300.0028
300.00276
300.00299
300.00291
300.00308
300.00276
300.00297
300.00349
300.00389
300.00439
300.00329
300.00342
300.00469
300.00862
300.00712
300.00508
300.00372
300.00344
300.00456
300.00506
300.00856
300.00855
300.01143
300.01168
300.0057
300.00835
300.01068
300.01148
300.00713
300.00711
300.00801
300.00832
300.01181
300.00576
300.0084
300.00719
300.00612
300.00375
300.0046
299.99722
300.00218
300.00313
300.00465
300.0101
300.01236
300.01014
300.00735
299.99771
299.99716
299.993
300.00348
300.00242
300.00197
300.00197
300.00243
299.99392
299.99394
299.99265
299.99397
299.99555
299.99724
299.9972
299.99775
300.00731
300.00461
300.00344
299.9931
299.99271
299.9867
299.98949
299.99323
299.99322
299.99415
299.99446
299.99238
299.99398
299.99255
299.99063
299.99236
299.99072
299.98894
299.99128
299.99345
299.99399
299.99586
299.99571
299.99537
299.99546
299.99337
299.99292
299.99052
299.99186
299.98966
299.98791
299.98616
299.98723
299.98898
299.99077
299.99269
299.99131
299.99006
299.99275
299.99538
299.9951
299.99224
299.99179
299.99228
299.98934
299.9862
299.98799