/*--------------------------------*- C++ -*----------------------------------*\
  =========                 |
  \\      /  F ield         | OpenFOAM: The Open Source CFD Toolbox
   \\    /   O peration     | Website:  https://openfoam.org
    \\  /    A nd           | Version:  7
     \\/     M anipulation  |
\*---------------------------------------------------------------------------*/
FoamFile
{
    version     2.0;
    format      ascii;
    class       volScalarField;
    location    "290";
    object      rho;
}
// * * * * * * * * * * * * * * * * * * * * * * * * * * * * * * * * * * * * * //

dimensions      [1 -3 0 0 0 0 0];

internalField   nonuniform List<scalar> 
24866
(
1.1739138
1.1739132
1.1739133
1.1739135
1.1739136
1.1739136
1.1739137
1.1739136
1.1739136
1.1739136
1.1739137
1.1739137
1.1739136
1.1739136
1.1739136
1.1739137
1.1739136
1.1739136
1.1739136
1.1739135
1.1739136
1.1739136
1.1739137
1.1739136
1.1739135
1.1739136
1.1739136
1.1739136
1.1739137
1.1739136
1.1739136
1.1739136
1.1739136
1.1739136
1.1739136
1.1739137
1.1739137
1.1739136
1.1739136
1.1739136
1.1739136
1.1739137
1.1739136
1.1739136
1.1739136
1.1739136
1.1739136
1.1739136
1.1739137
1.1739137
1.1739136
1.1739137
1.1739137
1.1739137
1.1739137
1.1739136
1.1739137
1.1739137
1.1739136
1.1739136
1.173914
1.1739142
1.1739139
1.1739139
1.1739142
1.1739144
1.173914
1.173914
1.1739141
1.1739142
1.1739142
1.1739141
1.173914
1.173914
1.1739144
1.1739141
1.1739139
1.1739139
1.1739142
1.1739139
1.1739139
1.1739141
1.1739143
1.1739144
1.1739145
1.1739141
1.173914
1.1739141
1.173914
1.1739141
1.1739145
1.1739146
1.1739156
1.1739156
1.1739153
1.173915
1.1739146
1.1739152
1.1739146
1.1739151
1.1739159
1.1739166
1.1739158
1.1739163
1.1739166
1.1739166
1.1739164
1.1739154
1.1739151
1.1739143
1.1739141
1.1739139
1.1739139
1.1739142
1.1739146
1.1739153
1.1739159
1.1739167
1.1739173
1.1739177
1.1739177
1.1739173
1.1739181
1.1739173
1.1739164
1.1739155
1.1739147
1.1739149
1.1739157
1.1739167
1.1739177
1.1739185
1.173919
1.1739185
1.1739186
1.1739181
1.1739173
1.1739164
1.1739159
1.1739151
1.1739146
1.1739141
1.1739139
1.1739139
1.1739138
1.1739138
1.1739139
1.1739135
1.1739135
1.1739135
1.1739135
1.1739135
1.1739134
1.1739135
1.1739134
1.1739134
1.1739135
1.1739135
1.1739135
1.1739133
1.1739132
1.1739133
1.1739135
1.1739134
1.1739135
1.1739135
1.1739135
1.1739136
1.1739136
1.1739135
1.1739136
1.1739136
1.1739136
1.1739136
1.1739135
1.1739136
1.1739136
1.1739135
1.1739139
1.1739139
1.1739138
1.1739138
1.1739141
1.1739139
1.1739141
1.1739141
1.1739147
1.1739146
1.1739153
1.1739146
1.1739151
1.1739155
1.1739147
1.1739149
1.1739157
1.1739167
1.1739177
1.1739185
1.173919
1.173919
1.173919
1.1739186
1.1739177
1.1739167
1.1739156
1.1739154
1.1739145
1.1739143
1.1739143
1.1739141
1.173914
1.1739135
1.1739134
1.1739136
1.1739134
1.1739132
1.1739133
1.1739133
1.1739132
1.1739134
1.1739133
1.1739133
1.1739133
1.1739134
1.1739133
1.1739133
1.1739131
1.1739132
1.1739133
1.1739131
1.1739133
1.1739133
1.1739132
1.1739134
1.1739133
1.1739132
1.1739133
1.1739133
1.1739133
1.1739133
1.1739132
1.1739133
1.1739134
1.173913
1.1739127
1.1739128
1.1739128
1.1739127
1.1739132
1.1739135
1.1739136
1.1739136
1.1739135
1.1739136
1.1739136
1.1739136
1.1739136
1.1739135
1.1739136
1.1739136
1.1739135
1.1739136
1.1739135
1.1739135
1.1739135
1.1739134
1.1739134
1.1739135
1.1739134
1.1739134
1.1739135
1.1739136
1.1739135
1.1739134
1.1739134
1.1739138
1.1739139
1.1739139
1.1739139
1.1739141
1.173914
1.1739144
1.1739142
1.1739141
1.173914
1.1739141
1.1739146
1.1739146
1.1739156
1.1739166
1.1739177
1.1739186
1.1739181
1.1739185
1.1739185
1.1739181
1.1739173
1.1739164
1.1739159
1.1739167
1.1739173
1.1739177
1.1739177
1.1739173
1.1739167
1.1739173
1.1739164
1.1739154
1.1739145
1.1739143
1.173915
1.1739159
1.1739153
1.1739159
1.1739164
1.1739167
1.1739167
1.1739164
1.1739159
1.1739151
1.1739155
1.1739157
1.1739157
1.1739155
1.1739151
1.1739147
1.1739142
1.1739146
1.1739141
1.1739139
1.1739139
1.1739138
1.1739139
1.1739139
1.1739138
1.1739141
1.1739141
1.1739139
1.1739138
1.1739132
1.1739134
1.1739132
1.1739132
1.1739133
1.1739141
1.173914
1.1739143
1.1739143
1.1739139
1.1739141
1.173914
1.1739139
1.173914
1.1739133
1.1739134
1.1739134
1.1739134
1.1739133
1.1739133
1.1739129
1.173913
1.1739127
1.1739129
1.1739128
1.1739127
1.173913
1.1739129
1.1739128
1.1739129
1.1739129
1.1739129
1.1739129
1.1739127
1.1739128
1.1739129
1.1739126
1.1739128
1.1739128
1.1739127
1.173913
1.1739128
1.1739127
1.1739129
1.1739129
1.1739129
1.1739129
1.1739127
1.1739128
1.1739123
1.1739124
1.173912
1.1739122
1.1739122
1.173912
1.1739125
1.173913
1.1739134
1.1739133
1.1739133
1.1739134
1.1739133
1.1739134
1.1739134
1.1739133
1.1739133
1.1739134
1.1739132
1.1739133
1.1739133
1.1739128
1.1739127
1.173913
1.1739129
1.1739127
1.1739129
1.173913
1.173913
1.1739129
1.1739128
1.1739122
1.1739123
1.1739125
1.1739121
1.1739123
1.1739123
1.1739121
1.1739125
1.1739123
1.1739122
1.1739124
1.1739124
1.1739124
1.1739124
1.1739121
1.1739123
1.1739124
1.173912
1.1739122
1.1739122
1.173912
1.1739124
1.1739123
1.1739121
1.1739124
1.1739124
1.1739124
1.1739124
1.1739121
1.1739113
1.1739115
1.1739117
1.1739111
1.1739114
1.1739114
1.1739111
1.1739117
1.1739115
1.1739113
1.1739122
1.1739128
1.1739129
1.173913
1.173913
1.1739129
1.1739128
1.1739129
1.173913
1.1739127
1.1739128
1.1739123
1.1739123
1.1739121
1.1739125
1.1739123
1.1739122
1.1739124
1.1739125
1.1739125
1.1739124
1.1739117
1.1739114
1.1739116
1.1739118
1.1739112
1.1739115
1.1739115
1.1739112
1.1739118
1.1739116
1.1739114
1.1739117
1.1739117
1.1739117
1.1739117
1.1739113
1.1739115
1.1739117
1.1739111
1.1739114
1.1739114
1.1739111
1.1739117
1.1739115
1.1739113
1.1739116
1.1739117
1.1739117
1.1739116
1.1739105
1.1739101
1.1739104
1.1739107
1.1739099
1.1739103
1.1739103
1.1739099
1.1739107
1.1739104
1.1739101
1.1739106
1.1739116
1.1739124
1.1739124
1.1739124
1.1739124
1.1739122
1.1739123
1.1739125
1.1739121
1.1739112
1.1739115
1.1739115
1.1739112
1.1739118
1.1739116
1.1739114
1.1739117
1.1739118
1.1739118
1.1739108
1.1739107
1.1739102
1.1739105
1.1739108
1.17391
1.1739104
1.1739104
1.17391
1.1739108
1.1739105
1.1739102
1.1739106
1.1739107
1.1739107
1.1739106
1.1739102
1.1739104
1.1739107
1.1739099
1.1739103
1.1739103
1.1739099
1.1739107
1.1739104
1.1739101
1.1739105
1.1739106
1.1739106
1.1739092
1.1739091
1.1739085
1.1739088
1.1739092
1.1739082
1.1739087
1.1739087
1.1739082
1.1739092
1.1739088
1.1739085
1.1739091
1.1739092
1.1739107
1.1739117
1.1739117
1.1739117
1.1739113
1.1739115
1.1739118
1.1739107
1.17391
1.1739103
1.1739103
1.17391
1.1739108
1.1739105
1.1739102
1.1739107
1.1739108
1.1739093
1.1739093
1.1739092
1.1739086
1.173909
1.1739094
1.1739083
1.1739088
1.1739088
1.1739083
1.1739094
1.1739089
1.1739086
1.1739092
1.1739093
1.1739093
1.1739091
1.1739085
1.1739089
1.1739093
1.1739082
1.1739087
1.1739087
1.1739082
1.1739093
1.1739088
1.1739085
1.1739091
1.1739092
1.1739073
1.1739073
1.1739071
1.1739063
1.1739068
1.1739073
1.173906
1.1739066
1.1739066
1.173906
1.1739073
1.1739068
1.1739064
1.1739071
1.1739073
1.1739073
1.1739092
1.1739107
1.1739106
1.1739102
1.1739104
1.1739089
1.1739093
1.1739083
1.1739088
1.1739088
1.1739083
1.1739094
1.173909
1.1739086
1.1739092
1.1739073
1.1739074
1.1739075
1.1739073
1.1739065
1.173907
1.1739075
1.1739062
1.1739068
1.1739068
1.1739062
1.1739075
1.173907
1.1739065
1.1739072
1.1739074
1.1739074
1.1739072
1.1739064
1.1739069
1.1739074
1.1739061
1.1739067
1.1739067
1.1739061
1.1739074
1.1739068
1.1739063
1.1739071
1.1739047
1.1739049
1.1739049
1.1739047
1.1739037
1.1739043
1.173905
1.1739034
1.1739042
1.1739042
1.1739034
1.173905
1.1739043
1.1739038
1.1739047
1.1739049
1.1739049
1.1739047
1.1739072
1.1739091
1.1739085
1.1739064
1.1739069
1.1739074
1.1739061
1.1739068
1.1739068
1.1739062
1.1739075
1.173907
1.1739065
1.173904
1.1739049
1.1739051
1.1739051
1.1739049
1.173904
1.1739046
1.1739052
1.1739036
1.1739044
1.1739044
1.1739036
1.1739052
1.1739045
1.1739039
1.1739048
1.173905
1.173905
1.1739048
1.1739039
1.1739044
1.1739051
1.1739035
1.1739042
1.1739042
1.1739035
1.173905
1.1739044
1.1739038
1.1739009
1.1739019
1.1739022
1.1739021
1.1739019
1.1739009
1.1739016
1.1739023
1.1739006
1.1739015
1.1739015
1.1739006
1.1739023
1.1739016
1.1739009
1.173902
1.1739022
1.1739022
1.173902
1.173901
1.1739038
1.1739044
1.1739051
1.1739036
1.1739043
1.1739043
1.1739036
1.1739052
1.1739045
1.1739018
1.1739012
1.1739022
1.1739024
1.1739024
1.1739022
1.1739012
1.1739019
1.1739026
1.1739009
1.1739017
1.1739017
1.1739009
1.1739026
1.1739018
1.1739011
1.1739021
1.1739023
1.1739023
1.1739021
1.173901
1.1739017
1.1739024
1.1739007
1.1739016
1.1739016
1.1739007
1.1739024
1.1739016
1.1738991
1.1738984
1.1738993
1.1738995
1.1738995
1.1738993
1.1738984
1.1738991
1.1738998
1.1738982
1.1738991
1.1738991
1.1738982
1.1738998
1.1738991
1.1738984
1.1738994
1.1738996
1.1738996
1.1738994
1.1738985
1.1738992
1.1739017
1.1739025
1.1739008
1.1739017
1.1739017
1.1739008
1.1739026
1.1739001
1.1738994
1.1738986
1.1738996
1.1738998
1.1738998
1.1738996
1.1738987
1.1738994
1.1739001
1.1738985
1.1738994
1.1738994
1.1738985
1.1739001
1.1738993
1.1738986
1.1738995
1.1738997
1.1738997
1.1738995
1.1738985
1.1738992
1.1738999
1.1738983
1.1738992
1.1738992
1.1738983
1.1738999
1.1738982
1.1738976
1.1738969
1.1738976
1.1738976
1.1738976
1.1738976
1.1738969
1.1738975
1.1738982
1.1738969
1.1738977
1.1738977
1.173897
1.1738982
1.1738976
1.1738969
1.1738976
1.1738977
1.1738977
1.1738977
1.173897
1.1738977
1.1738984
1.1739
1.1738984
1.1738993
1.1738993
1.1738985
1.1738972
1.1738985
1.1738979
1.1738972
1.1738979
1.1738979
1.173898
1.1738979
1.1738972
1.1738979
1.1738985
1.1738973
1.173898
1.173898
1.1738972
1.1738984
1.1738978
1.1738971
1.1738978
1.1738978
1.1738978
1.1738977
1.173897
1.1738977
1.1738983
1.1738971
1.1738978
1.1738978
1.173897
1.1738978
1.1738985
1.1738981
1.1738976
1.1738979
1.1738978
1.1738978
1.1738979
1.1738976
1.173898
1.1738984
1.1738977
1.1738983
1.1738983
1.1738978
1.1738984
1.1738981
1.1738976
1.173898
1.1738979
1.1738979
1.1738981
1.1738977
1.1738982
1.1738986
1.173898
1.1738972
1.173898
1.173898
1.1738986
1.173898
1.1738987
1.1738984
1.1738979
1.1738983
1.1738982
1.1738982
1.1738983
1.1738979
1.1738984
1.1738988
1.1738981
1.1738986
1.1738986
1.173898
1.1738987
1.1738983
1.1738978
1.1738981
1.173898
1.173898
1.1738981
1.1738977
1.1738982
1.1738985
1.1738978
1.1738984
1.1738984
1.1739013
1.1739011
1.1739012
1.1739011
1.1739009
1.173901
1.1739008
1.1739008
1.1739009
1.1739009
1.173901
1.1739011
1.173901
1.1739013
1.1739013
1.173901
1.1739011
1.1739011
1.1739009
1.173901
1.1739009
1.1739009
1.1739011
1.1739011
1.1739012
1.1739014
1.1739013
1.1739015
1.1738986
1.1738995
1.1738983
1.1738995
1.1738993
1.1738977
1.1738995
1.1738987
1.1738984
1.1738984
1.1738987
1.1738996
1.1739011
1.1739013
1.1739014
1.1739015
1.1739013
1.1739016
1.1739016
1.1739013
1.1739014
1.1739013
1.1739011
1.1739012
1.173901
1.173901
1.1739011
1.173901
1.1739012
1.1739013
1.1739011
1.1739014
1.1739062
1.1739061
1.1739062
1.1739058
1.1739059
1.173906
1.1739058
1.1739057
1.1739057
1.1739058
1.173906
1.1739059
1.1739057
1.1739061
1.1739061
1.1739061
1.1739061
1.1739058
1.1739059
1.1739061
1.1739059
1.1739058
1.1739058
1.173906
1.1739062
1.1739061
1.173906
1.1739064
1.1739063
1.1739064
1.1739016
1.1739013
1.1739015
1.1739014
1.1739013
1.1739013
1.1739012
1.1739012
1.1739013
1.1739062
1.1739063
1.1739062
1.1739061
1.1739064
1.1739064
1.1739064
1.1739064
1.173906
1.1739061
1.1739062
1.173906
1.1739059
1.1739059
1.1739059
1.1739061
1.173906
1.1739059
1.1739062
1.1739123
1.173912
1.173912
1.1739123
1.1739115
1.1739118
1.1739122
1.1739117
1.1739116
1.1739115
1.1739117
1.1739121
1.1739118
1.1739115
1.1739123
1.173912
1.173912
1.1739123
1.1739115
1.1739119
1.1739122
1.1739118
1.1739117
1.1739117
1.1739119
1.1739123
1.173912
1.1739117
1.1739125
1.1739122
1.1739122
1.1739125
1.1739064
1.1739061
1.1739062
1.1739063
1.1739062
1.1739061
1.1739061
1.1739119
1.173912
1.1739124
1.1739121
1.1739118
1.1739124
1.1739122
1.1739122
1.1739124
1.1739117
1.173912
1.1739123
1.1739119
1.1739117
1.1739117
1.1739118
1.1739122
1.1739119
1.1739116
1.1739179
1.173919
1.1739185
1.1739185
1.173919
1.1739179
1.1739183
1.1739189
1.1739182
1.173918
1.173918
1.1739182
1.1739189
1.1739184
1.1739179
1.173919
1.1739185
1.1739185
1.1739191
1.173918
1.1739184
1.173919
1.1739183
1.1739181
1.1739182
1.1739184
1.1739191
1.1739184
1.1739181
1.1739191
1.1739186
1.1739187
1.1739191
1.1739181
1.1739118
1.1739121
1.1739124
1.173912
1.1739119
1.1739182
1.1739182
1.1739184
1.173919
1.1739185
1.173918
1.173919
1.1739186
1.1739186
1.173919
1.173918
1.1739184
1.173919
1.1739183
1.1739181
1.1739181
1.1739183
1.1739189
1.1739184
1.1739253
1.1739248
1.173926
1.1739254
1.1739254
1.173926
1.1739248
1.1739253
1.173926
1.1739253
1.1739251
1.1739251
1.1739253
1.1739261
1.1739254
1.1739249
1.1739261
1.1739255
1.1739255
1.1739262
1.1739249
1.1739255
1.1739262
1.1739254
1.1739253
1.1739253
1.1739254
1.1739261
1.1739253
1.1739249
1.1739261
1.1739254
1.1739254
1.173926
1.1739248
1.1739253
1.1739185
1.173919
1.1739184
1.1739253
1.1739251
1.1739251
1.1739252
1.1739259
1.1739252
1.1739248
1.1739259
1.1739254
1.1739253
1.1739259
1.1739248
1.1739252
1.173926
1.1739253
1.1739251
1.1739251
1.1739253
1.173926
1.1739328
1.173932
1.1739315
1.1739327
1.1739321
1.1739321
1.1739328
1.1739316
1.173932
1.1739329
1.1739322
1.1739321
1.1739321
1.1739322
1.173933
1.1739322
1.1739317
1.1739329
1.1739323
1.1739323
1.173933
1.1739317
1.1739322
1.173933
1.1739323
1.1739322
1.1739322
1.1739322
1.1739329
1.173932
1.1739316
1.1739326
1.1739319
1.173932
1.1739325
1.1739314
1.1739318
1.1739325
1.1739259
1.1739221
1.1739216
1.1739211
1.1739211
1.1739216
1.173922
1.1739288
1.1739325
1.1739318
1.1739313
1.1739324
1.1739319
1.1739318
1.1739325
1.1739314
1.1739318
1.1739327
1.173932
1.173932
1.173932
1.1739321
1.1739379
1.1739386
1.1739378
1.1739374
1.1739385
1.1739379
1.1739379
1.1739386
1.1739375
1.1739379
1.1739387
1.173938
1.173938
1.173938
1.1739381
1.1739388
1.1739381
1.1739376
1.1739388
1.1739381
1.1739381
1.1739388
1.1739376
1.1739381
1.1739388
1.1739381
1.173938
1.173938
1.1739379
1.1739386
1.1739377
1.1739373
1.1739383
1.1739376
1.1739377
1.1739381
1.1739371
1.1739375
1.1739382
1.1739375
1.1739319
1.1739318
1.1739318
1.1739318
1.1739375
1.1739381
1.1739374
1.173937
1.1739381
1.1739375
1.1739375
1.1739382
1.1739372
1.1739375
1.1739384
1.1739378
1.1739378
1.1739378
1.1739426
1.1739428
1.1739434
1.1739427
1.1739423
1.1739434
1.1739428
1.1739428
1.1739434
1.1739424
1.1739428
1.1739436
1.173943
1.1739429
1.173943
1.1739431
1.1739437
1.173943
1.1739426
1.1739437
1.1739431
1.1739431
1.1739437
1.1739426
1.173943
1.1739437
1.173943
1.1739429
1.1739429
1.1739428
1.1739435
1.1739425
1.1739422
1.1739431
1.1739425
1.1739425
1.1739429
1.1739419
1.1739423
1.1739429
1.1739423
1.1739422
1.1739375
1.1739374
1.1739422
1.1739423
1.1739429
1.1739422
1.1739419
1.1739428
1.1739424
1.1739424
1.173943
1.173942
1.1739424
1.1739432
1.1739426
1.1739426
1.1739468
1.1739469
1.173947
1.1739476
1.1739469
1.1739466
1.1739476
1.1739471
1.1739471
1.1739477
1.1739467
1.1739471
1.1739478
1.1739472
1.1739472
1.1739472
1.1739473
1.173948
1.1739472
1.1739469
1.1739479
1.1739474
1.1739474
1.1739479
1.1739469
1.1739472
1.1739479
1.1739473
1.1739472
1.1739471
1.173947
1.1739476
1.1739467
1.1739464
1.1739473
1.1739467
1.1739467
1.1739471
1.1739461
1.1739464
1.173947
1.1739465
1.1739464
1.1739464
1.1739464
1.173947
1.1739464
1.1739461
1.173947
1.1739466
1.1739466
1.1739471
1.1739463
1.1739466
1.1739474
1.1739468
1.1739504
1.1739505
1.1739505
1.1739506
1.1739512
1.1739506
1.1739503
1.1739512
1.1739508
1.1739508
1.1739513
1.1739504
1.1739507
1.1739515
1.1739509
1.1739509
1.1739509
1.173951
1.1739516
1.1739509
1.1739506
1.1739515
1.1739511
1.173951
1.1739515
1.1739506
1.1739509
1.1739515
1.1739509
1.1739508
1.1739507
1.1739507
1.1739512
1.1739504
1.1739501
1.1739509
1.1739503
1.1739503
1.1739506
1.1739498
1.1739501
1.1739506
1.1739501
1.17395
1.17395
1.1739501
1.1739506
1.17395
1.1739498
1.1739506
1.1739503
1.1739502
1.1739507
1.17395
1.1739502
1.173951
1.173954
1.1739535
1.1739535
1.1739536
1.1739536
1.1739542
1.1739536
1.1739534
1.1739542
1.1739539
1.1739539
1.1739543
1.1739536
1.1739538
1.1739545
1.1739539
1.1739539
1.173954
1.173954
1.1739545
1.173954
1.1739537
1.1739545
1.1739541
1.1739541
1.1739545
1.1739537
1.173954
1.1739545
1.1739539
1.1739538
1.1739538
1.1739537
1.1739542
1.1739535
1.1739532
1.1739539
1.1739534
1.1739534
1.1739537
1.1739529
1.1739531
1.1739536
1.1739532
1.1739531
1.1739531
1.1739531
1.1739536
1.1739531
1.1739529
1.1739537
1.1739534
1.1739533
1.1739538
1.1739531
1.1739533
1.1739558
1.1739565
1.173956
1.173956
1.173956
1.1739561
1.1739566
1.1739562
1.173956
1.1739568
1.1739565
1.1739565
1.1739569
1.1739562
1.1739564
1.173957
1.1739564
1.1739564
1.1739565
1.1739565
1.173957
1.1739565
1.1739563
1.173957
1.1739567
1.1739567
1.1739571
1.1739563
1.1739565
1.173957
1.1739565
1.1739564
1.1739563
1.1739562
1.1739567
1.173956
1.1739559
1.1739565
1.173956
1.1739561
1.1739563
1.1739556
1.1739558
1.1739562
1.1739557
1.1739557
1.1739557
1.1739557
1.1739562
1.1739558
1.1739555
1.1739563
1.173956
1.173956
1.1739564
1.1739557
1.1739578
1.1739579
1.1739584
1.1739579
1.173958
1.173958
1.1739581
1.1739586
1.1739582
1.1739581
1.1739589
1.1739586
1.1739586
1.173959
1.1739582
1.1739585
1.173959
1.1739584
1.1739584
1.1739584
1.1739585
1.173959
1.1739586
1.1739584
1.1739591
1.1739588
1.1739588
1.1739591
1.1739583
1.1739586
1.173959
1.1739584
1.1739583
1.1739583
1.1739583
1.1739588
1.1739582
1.173958
1.1739586
1.1739582
1.1739583
1.1739585
1.1739577
1.173958
1.1739584
1.1739579
1.1739578
1.1739578
1.1739578
1.1739583
1.1739579
1.1739577
1.1739585
1.1739582
1.1739582
1.1739585
1.1739603
1.1739596
1.1739595
1.1739599
1.1739595
1.1739595
1.1739596
1.1739596
1.17396
1.1739598
1.1739598
1.1739606
1.1739604
1.1739604
1.1739608
1.17396
1.1739602
1.1739606
1.17396
1.17396
1.17396
1.1739601
1.1739607
1.1739603
1.1739601
1.1739609
1.1739605
1.1739605
1.1739609
1.1739601
1.1739603
1.1739606
1.1739601
1.1739599
1.1739599
1.1739599
1.1739605
1.17396
1.1739598
1.1739605
1.17396
1.1739601
1.1739603
1.1739596
1.1739598
1.1739602
1.1739597
1.1739596
1.1739595
1.1739596
1.1739601
1.1739598
1.1739596
1.1739603
1.17396
1.17396
1.173961
1.1739614
1.1739607
1.1739605
1.1739609
1.1739605
1.1739606
1.1739606
1.1739606
1.173961
1.1739608
1.1739608
1.1739616
1.1739613
1.1739613
1.1739617
1.173961
1.1739612
1.1739615
1.1739609
1.1739608
1.1739608
1.1739609
1.1739615
1.1739613
1.173961
1.1739618
1.1739614
1.1739614
1.1739618
1.173961
1.1739613
1.1739615
1.1739609
1.1739608
1.1739608
1.1739608
1.1739614
1.1739611
1.1739609
1.1739614
1.1739611
1.1739611
1.1739614
1.1739607
1.1739608
1.173961
1.1739608
1.1739606
1.1739606
1.1739606
1.1739611
1.1739609
1.1739607
1.1739614
1.173961
1.1739617
1.1739617
1.1739617
1.1739612
1.1739613
1.1739612
1.1739611
1.1739611
1.1739612
1.1739614
1.1739613
1.1739619
1.1739619
1.173962
1.173962
1.1739614
1.1739617
1.1739618
1.1739615
1.1739615
1.1739615
1.1739615
1.1739619
1.1739618
1.1739615
1.1739621
1.1739621
1.1739621
1.1739621
1.1739615
1.1739618
1.1739619
1.1739615
1.1739615
1.1739615
1.1739614
1.1739618
1.1739616
1.1739613
1.1739618
1.1739618
1.1739617
1.1739618
1.1739612
1.1739617
1.1739618
1.1739614
1.1739612
1.1739612
1.1739612
1.1739616
1.1739615
1.1739612
1.1739618
1.1739613
1.1739612
1.1739604
1.1739591
1.1739574
1.1739558
1.1739548
1.1739549
1.1739562
1.1739577
1.1739592
1.1739604
1.1739613
1.1739614
1.1739603
1.1739592
1.1739571
1.1739533
1.1739508
1.1739485
1.1739484
1.1739504
1.173953
1.173957
1.1739592
1.1739602
1.1739613
1.1739612
1.1739606
1.1739608
1.17396
1.1739603
1.1739597
1.1739599
1.1739597
1.1739596
1.1739598
1.1739597
1.1739604
1.1739608
1.1739605
1.1739597
1.17396
1.1739592
1.1739602
1.17396
1.173959
1.1739586
1.1739588
1.1739597
1.17396
1.1739602
1.1739614
1.1739612
1.1739605
1.1739608
1.17396
1.1739597
1.1739598
1.1739598
1.1739605
1.1739592
1.1739591
1.1739592
1.173959
1.1739588
1.1739594
1.1739596
1.1739608
1.1739615
1.1739614
1.1739605
1.1739596
1.1739586
1.1739586
1.1739588
1.1739596
1.1739597
1.1739608
1.17396
1.1739601
1.1739601
1.173961
1.1739608
1.1739601
1.173959
1.173959
1.1739592
1.1739599
1.1739605
1.1739597
1.1739591
1.1739577
1.1739579
1.1739575
1.1739579
1.1739585
1.1739582
1.1739585
1.1739566
1.1739542
1.1739537
1.1739542
1.1739565
1.1739561
1.1739543
1.1739559
1.1739535
1.1739532
1.1739537
1.173956
1.1739557
1.1739534
1.173953
1.1739553
1.1739573
1.1739587
1.1739569
1.1739577
1.1739589
1.1739555
1.1739579
1.1739563
1.1739541
1.1739518
1.1739563
1.1739556
1.1739499
1.1739512
1.1739531
1.1739415
1.1739489
1.1739548
1.1739579
1.1739592
1.1739578
1.1739563
1.1739542
1.1739575
1.1739578
1.1739589
1.1739613
1.1739614
1.1739614
1.1739614
1.1739615
1.1739614
1.173959
1.173959
1.1739587
1.1739587
1.1739589
1.1739576
1.1739573
1.1739558
1.1739562
1.1739581
1.1739596
1.1739566
1.1739511
1.1739346
1.1739315
1.1739302
1.1739303
1.1739314
1.1739345
1.1739385
1.1739424
1.1739479
1.1739479
1.1739424
1.1739385
1.1739347
1.1739316
1.1739305
1.1739305
1.1739316
1.1739346
1.1739384
1.1739423
1.1739478
1.1739479
1.1739529
1.1739576
1.1739601
1.173961
1.1739613
1.1739603
1.1739602
1.1739602
1.1739603
1.1739612
1.173961
1.17396
1.1739576
1.1739531
1.1739481
1.1739478
1.1739426
1.1739387
1.1739348
1.1739317
1.1739306
1.1739306
1.1739315
1.1739346
1.1739384
1.1739423
1.1739477
1.1739479
1.1739424
1.1739386
1.1739344
1.1739276
1.173926
1.1739334
1.1739465
1.1739564
1.1739562
1.1739461
1.1739331
1.1739259
1.1739277
1.1739346
1.1739389
1.1739505
1.173956
1.1739592
1.1739587
1.1739548
1.1739485
1.1739319
1.1739349
1.1739317
1.1739276
1.1739328
1.1739473
1.1739593
1.1739736
1.1739865
1.173997
1.1740031
1.1740033
1.1739973
1.1739871
1.1739742
1.1739601
1.173948
1.1739332
1.17396
1.173981
1.1740012
1.1740197
1.1740343
1.1740423
1.1740421
1.1740339
1.1740191
1.1740004
1.1739801
1.1739591
1.1739731
1.1739452
1.1739293
1.1739293
1.173929
1.1739307
1.1739306
1.1739485
1.1739548
1.1739587
1.1739592
1.1739559
1.1739504
1.1739347
1.1739317
1.1739292
1.173929
1.1739315
1.1739315
1.1739549
1.1739961
1.1739857
1.1740186
1.1740001
1.1740262
1.1740501
1.1740694
1.1740801
1.1740803
1.1740698
1.1740508
1.1740272
1.1740013
1.1739742
1.1739461
1.1739871
1.17402
1.1740511
1.1740803
1.1741038
1.174117
1.1741168
1.1741033
1.1740795
1.1740499
1.1740691
1.1740333
1.1740416
1.1740021
1.1740023
1.173955
1.1739965
1.1740339
1.1740418
1.1740802
1.17408
1.1741168
1.1741033
1.1741314
1.1741474
1.1741475
1.1741319
1.1741042
1.1740704
1.1740349
1.1739976
1.173956
1.1740037
1.1740431
1.1740813
1.1741178
1.1741481
1.1741655
1.1741653
1.1741475
1.1741478
1.1741172
1.1741041
1.1740698
1.1740509
1.1740194
1.1739862
1.1739454
1.1739293
1.1739274
1.1739315
1.1739342
1.1739385
1.1739423
1.1739393
1.1739326
1.1739274
1.1739255
1.1739327
1.1739594
1.1739736
1.1740008
1.1740271
1.1740512
1.1740806
1.1741045
1.1741323
1.1741484
1.1741657
1.1741659
1.1741484
1.1741181
1.1740815
1.1740433
1.1740038
1.173956
1.1739978
1.1740352
1.1740709
1.1741049
1.1741328
1.1741485
1.1741182
1.1741181
1.1740813
1.1740705
1.1740346
1.1740198
1.174001
1.1739806
1.1739595
1.1739474
1.1739327
1.1739455
1.1739738
1.1739867
1.1739972
1.1740033
1.1740429
1.1740429
1.1740814
1.1740708
1.1741049
1.1740813
1.1740517
1.1740204
1.1739872
1.173946
1.1739744
1.1740016
1.1740277
1.1740516
1.1740201
1.1740348
1.1739973
1.1740033
1.1739554
1.1739554
1.1739315
1.1739292
1.1739274
1.1739273
1.1739342
1.1739393
1.1739446
1.1739342
1.1739313
1.1739141
1.1739134
1.1739008
1.1739018
1.1739022
1.1739012
1.1739142
1.1739152
1.1739322
1.1739426
1.1739395
1.1739447
1.1739396
1.1739346
1.1739317
1.1739294
1.1739292
1.1739292
1.1739294
1.1739315
1.1739343
1.1739393
1.1739445
1.1739393
1.1739327
1.1739276
1.1739277
1.1739299
1.1739322
1.1739321
1.1739297
1.1739276
1.1739277
1.1739329
1.1739337
1.1739324
1.1739158
1.1739147
1.1739023
1.1739034
1.1739033
1.1739024
1.1739146
1.1739156
1.1739323
1.1739354
1.1739395
1.1739321
1.1739337
1.173924
1.1739232
1.1739277
1.1739262
1.1739172
1.1739302
1.1739446
1.1739358
1.1739244
1.1739192
1.1739241
1.1739153
1.1739233
1.1739142
1.1739315
1.1739276
1.1739294
1.1739292
1.1739288
1.1739316
1.1739316
1.1739288
1.173929
1.1739293
1.1739273
1.1739329
1.1739477
1.1739598
1.173974
1.1739869
1.1739456
1.1739328
1.1739255
1.1739273
1.1739342
1.1739314
1.1739135
1.1739011
1.173902
1.1739022
1.1739014
1.173917
1.1739261
1.1739278
1.1739243
1.1739409
1.173919
1.1739343
1.1739397
1.1739524
1.1739693
1.1739523
1.1739397
1.1739697
1.1739836
1.173947
1.173963
1.1739755
1.1739647
1.1739643
1.174005
1.1740052
1.1739872
1.1740123
1.1739872
1.1739629
1.1739355
1.1739468
1.1739644
1.1739835
1.1740054
1.1739647
1.1739755
1.1740055
1.1740194
1.1739841
1.1739443
1.1739303
1.1739301
1.1739169
1.173926
1.1739275
1.1739228
1.1739145
1.1739236
1.1739186
1.1739239
1.1739355
1.1739442
1.1739906
1.1739906
1.1739802
1.1739717
1.1739882
1.1740174
1.174027
1.1740276
1.1740672
1.1740562
1.1740368
1.1740371
1.1740094
1.1740368
1.1740366
1.1740674
1.1740692
1.1740943
1.174056
1.1740168
1.1739717
1.1739839
1.1739902
1.1739798
1.1739878
1.1740259
1.1740268
1.1740189
1.1740556
1.1740663
1.1740678
1.1741088
1.1741051
1.1740914
1.1741206
1.1740918
1.1740947
1.1740567
1.1740689
1.1741097
1.1741059
1.1741375
1.1741433
1.1741253
1.1741428
1.1741369
1.1741552
1.1741626
1.1741637
1.1741426
1.174107
1.174064
1.1740522
1.1740326
1.1740057
1.1740007
1.1740274
1.1740627
1.1740276
1.1740328
1.1740659
1.1740919
1.1740906
1.174049
1.1740614
1.1741067
1.1741065
1.1740576
1.1739827
1.1739241
1.173918
1.1739081
1.1739115
1.1739226
1.1739235
1.1739352
1.1739434
1.1739432
1.1739172
1.1739302
1.173926
1.1739276
1.1739234
1.1739241
1.1739191
1.1739241
1.1739355
1.1739444
1.1739901
1.1739797
1.1739876
1.1739714
1.1739837
1.1740185
1.1740266
1.1740258
1.1740164
1.1740045
1.1739643
1.173975
1.1739624
1.1739464
1.1739638
1.1739828
1.1739864
1.1740046
1.1740359
1.1740552
1.1740662
1.1740676
1.1740556
1.1740938
1.1741086
1.1741049
1.1740909
1.1740666
1.1740685
1.1740361
1.1740086
1.1740115
1.1740358
1.1740362
1.1740557
1.1740939
1.1741249
1.1741426
1.1741368
1.1741201
1.174137
1.1741551
1.1741624
1.1741428
1.174109
1.1741051
1.174091
1.1740552
1.1740662
1.174068
1.1740259
1.1740164
1.1740045
1.1739827
1.173969
1.1739392
1.1739518
1.1739404
1.1739239
1.1739186
1.1739339
1.173939
1.1739516
1.1739685
1.1739863
1.173962
1.1739349
1.1739461
1.1739638
1.1739638
1.1739744
1.1740043
1.1740182
1.173983
1.1739436
1.1739707
1.1739875
1.1739792
1.1739894
1.1740264
1.1740266
1.1740665
1.1741054
1.1741373
1.1741555
1.1741557
1.1741378
1.1741062
1.1740674
1.1740277
1.174027
1.1739802
1.1739885
1.1739719
1.1739843
1.1740197
1.1740179
1.1740059
1.1739648
1.1739757
1.1740059
1.1739876
1.1739631
1.173947
1.1739648
1.1739842
1.1740103
1.174038
1.1740573
1.1740692
1.17411
1.1740955
1.1740925
1.1740567
1.1740375
1.1740684
1.1740704
1.174038
1.1740375
1.174013
1.1739875
1.1740015
1.1739811
1.1739598
1.1739522
1.1739395
1.1739342
1.1739701
1.1739694
1.1739522
1.1739238
1.1739407
1.1739185
1.1739396
1.173947
1.1739841
1.1739649
1.1740059
1.1740057
1.1739755
1.1739352
1.1739628
1.1739649
1.173972
1.1740179
1.1740575
1.1740957
1.1741264
1.1741437
1.174163
1.174144
1.174138
1.1741215
1.1740926
1.1741064
1.1741104
1.1740695
1.1740676
1.1740567
1.1740195
1.1740276
1.1740272
1.1739888
1.1739803
1.173944
1.173984
1.1739904
1.1739904
1.1740276
1.1740675
1.1741063
1.1741379
1.1741438
1.1741629
1.1741433
1.174126
1.1741211
1.1740919
1.174095
1.1741093
1.1740683
1.1740566
1.1740558
1.1740368
1.1740678
1.1740923
1.1740954
1.1741103
1.1740695
1.1740573
1.1740565
1.1740371
1.1740378
1.1740699
1.1740374
1.1740099
1.1740125
1.173987
1.1740051
1.1740187
1.1740171
1.1740261
1.1739879
1.1739792
1.1739437
1.1739895
1.1739833
1.1739711
1.1739642
1.1740053
1.1739645
1.1739838
1.1739466
1.1739352
1.1739749
1.1739625
1.1739519
1.173969
1.1739871
1.1740055
1.1740194
1.1740177
1.1740272
1.1739888
1.1739803
1.173944
1.1739839
1.1739719
1.1739649
1.1740057
1.1739648
1.1739838
1.1739468
1.1739352
1.1739754
1.1739626
1.173952
1.1739238
1.1739395
1.1739698
1.1739341
1.1739393
1.1739238
1.1739405
1.1739185
1.1739185
1.1739223
1.1739231
1.173935
1.173943
1.1739428
1.1739346
1.173923
1.1739225
1.1739233
1.1739349
1.1739178
1.1739239
1.1739825
1.173957
1.1739482
1.1739215
1.1739072
1.1739367
1.17395
1.1739558
1.1739574
1.1739588
1.1739573
1.1739584
1.1739566
1.1739579
1.173958
1.1739577
1.1739579
1.1739564
1.1739543
1.173952
1.1739534
1.1739514
1.1739363
1.1739361
1.1739366
1.1739419
1.1739485
1.1739539
1.1739486
1.1739491
1.1739532
1.1739577
1.17396
1.1739591
1.1739558
1.1739536
1.173952
1.1739502
1.173952
1.1739558
1.1739494
1.1739494
1.1739558
1.1739595
1.1739595
1.1739577
1.1739577
1.1739558
1.1739573
1.1739577
1.1739563
1.1739581
1.1739597
1.1739566
1.1739511
1.1739532
1.1739578
1.1739601
1.1739603
1.1739593
1.1739571
1.173953
1.1739504
1.1739483
1.1739483
1.1739504
1.1739529
1.173957
1.1739593
1.1739604
1.1739616
1.1739615
1.1739605
1.1739593
1.1739576
1.1739559
1.1739548
1.1739548
1.1739559
1.1739575
1.1739593
1.1739605
1.1739614
1.1739615
1.1739609
1.1739607
1.1739599
1.17396
1.1739606
1.1739598
1.1739602
1.1739587
1.173958
1.1739576
1.1739579
1.1739561
1.1739558
1.1739554
1.1739554
1.1739557
1.1739559
1.1739537
1.173951
1.1739478
1.1739475
1.1739476
1.1739482
1.1739515
1.173951
1.1739514
1.1739482
1.1739478
1.1739462
1.1739475
1.1739508
1.1739505
1.1739509
1.1739477
1.1739474
1.1739506
1.1739502
1.173947
1.1739461
1.1739464
1.1739473
1.1739448
1.1739477
1.1739493
1.173952
1.1739502
1.1739523
1.1739555
1.1739543
1.1739521
1.1739516
1.1739537
1.1739481
1.1739499
1.173948
1.1739463
1.1739443
1.1739491
1.1739495
1.173946
1.1739435
1.173942
1.1739335
1.1739387
1.1739425
1.1739453
1.1739462
1.1739493
1.1739508
1.1739536
1.1739558
1.1739543
1.173952
1.1739503
1.1739534
1.1739556
1.1739523
1.17395
1.1739543