/*--------------------------------*- C++ -*----------------------------------*\
  =========                 |
  \\      /  F ield         | OpenFOAM: The Open Source CFD Toolbox
   \\    /   O peration     | Website:  https://openfoam.org
    \\  /    A nd           | Version:  7
     \\/     M anipulation  |
\*---------------------------------------------------------------------------*/
FoamFile
{
    version     2.0;
    format      ascii;
    class       volScalarField;
    location    "180";
    object      k;
}
// * * * * * * * * * * * * * * * * * * * * * * * * * * * * * * * * * * * * * //

dimensions      [0 2 -2 0 0 0 0];

internalField   nonuniform List<scalar> 
25201
(
1114.2129
1122.2361
1114.2158
1122.2427
1155.7347
1118.4343
1105.9559
1139.8657
1150.1187
1180.3641
1150.1095
1118.4278
1135.9457
1293.2873
1312.5424
1157.3454
1183.9083
1212.0458
1223.702
1295.7027
1243.0466
1245.6193
1227.5148
1266.1855
1265.3858
1311.4732
1274.968
1200.9076
1210.3616
1273.3585
1267.2408
1256.7997
1338.7384
1330.9056
1317.3527
1311.1715
1258.4789
1268.2847
1323.3092
1330.4361
1274.0144
1277.127
1276.6778
1342.1934
1333.6056
1324.5229
1275.629
1211.8692
1150.1746
1135.9349
1165.693
1178.9489
1221.0713
1207.6795
1187.833
1178.1331
1164.4982
1188.2513
1199.2755
1262.5146
1239.8324
1215.0487
1225.5673
1232.4623
1246.83
1202.7441
1222.5422
1283.3321
1272.1863
1299.0577
1289.2013
1267.4521
1203.5737
1213.0525
1220.9117
1300.6913
1281.4524
1275.1495
1267.0997
1258.3372
1245.6908
1229.2425
1264.5151
1267.379
1284.7437
1253.3447
1286.8855
1291.9481
1328.9509
1308.6906
1328.5157
1339.5402
1342.4825
1345.5613
1350.499
1332.1519
1335.0323
1354.1746
1389.0005
1366.9656
1363.2097
1383.5305
1377.2364
1358.2752
1353.6119
1369.6854
1403.2174
1383.0057
1362.9911
1366.4739
1396.4393
1391.816
1415.5348
1421.5037
1451.8655
1426.5665
1422.3822
1446.0353
1440.3614
1409.5076
1387.1875
1417.3874
1414.1497
1435.3064
1464.7884
1441.3419
1413.5882
1363.6947
1309.7236
1324.7809
1332.043
1335.3408
1325.4523
1322.5502
1315.7116
1305.013
1287.45
1265.2135
1215.2617
1164.6504
1178.1652
1225.579
1262.6127
1239.9833
1188.5199
1199.3515
1207.7105
1187.837
1165.6844
1202.7465
1246.8255
1232.4324
1272.2742
1283.3475
1222.5549
1235.623
1178.9559
1150.2178
1203.9241
1213.1751
1289.3745
1267.7563
1253.5533
1246.3843
1229.8358
1259.1476
1267.9761
1275.502
1311.4549
1302.3732
1284.9621
1267.5669
1305.3337
1274.1582
1281.1568
1307.4298
1305.1867
1304.0288
1356.5047
1355.7002
1394.665
1380.0137
1379.8559
1399.0988
1396.1642
1423.6726
1406.0556
1409.4182
1429.9878
1460.5847
1437.386
1407.9069
1356.7819
1304.5017
1340.0947
1329.5405
1330.571
1442.2717
1419.0371
1388.8554
1359.9216
1354.6191
1370.7833
1343.5839
1347.285
1378.9666
1411.3578
1404.3253
1383.9468
1414.9934
1436.3688
1465.6103
1441.8917
1445.618
1450.9906
1419.7203
1122.1286
1113.864
1114.7935
1200.9052
1210.3468
1276.6837
1331.0154
1267.2607
1273.4009
1274.025
1277.1334
1333.6116
1342.203
1338.7422
1330.4974
1323.3933
1268.294
1258.477
1256.8561
1317.4341
1311.2609
1291.9947
1245.6398
1183.8554
131.87101
231.21104
323.41395
409.03517
894.6406
898.70446
415.28386
328.34196
234.8418
133.86094
134.64528
237.98711
332.81524
420.56695
903.5187
907.10425
422.20589
334.18771
239.05196
135.09084
135.28777
239.51678
334.8098
422.93933
910.22644
913.14531
423.40636
335.18455
239.79901
135.44827
135.66223
240.31423
335.92176
424.3187
916.03206
918.97024
425.37386
336.74761
240.87653
135.87852
136.14516
241.61968
337.83817
426.7438
921.95594
925.02642
428.09618
338.89268
242.32797
136.3909
136.67448
243.15897
340.12207
429.64788
928.14127
931.32907
431.10093
341.25622
243.91861
136.92862
137.21919
244.79041
342.55026
432.73725
934.56546
937.84863
434.24738
343.7296
245.57924
137.47825
137.77369
246.47589
345.06083
435.92911
941.15283
944.49574
437.48498
346.27758
247.28973
138.03833
138.33951
248.20964
347.64268
439.20684
947.86009
951.263
440.80638
348.89345
249.04536
138.60947
138.91322
249.97627
350.27426
442.54587
954.65851
958.04904
444.1608
351.53508
250.81723
139.1838
139.48488
251.73852
352.89851
445.87325
961.39501
964.7012
447.46355
354.14315
252.57015
139.75273
140.05078
253.48224
355.49167
449.15467
967.96363
971.17352
450.7071
356.7074
254.29491
140.31251
140.60326
255.18338
358.02007
452.35071
974.30203
977.35258
453.83432
359.18254
255.96039
140.85354
141.13082
256.80705
360.43253
455.39678
980.27907
983.06616
456.78242
361.51672
257.53038
141.36375
141.62006
258.3072
362.65907
458.20113
985.67398
988.084
459.4821
363.65174
258.95843
141.82796
142.02852
259.57207
364.55589
460.59958
990.23367
992.0089
461.57011
365.29059
260.04939
142.17697
1007.373
422.32592
332.86369
237.49848
134.49667
134.37031
237.08888
332.22557
421.47473
1005.6338
1003.3282
420.39238
331.37333
236.51781
134.18724
133.99014
235.90233
330.42773
419.17089
1000.7759
998.06498
417.86927
329.38697
235.19236
133.75385
133.53234
234.50772
328.34587
416.53289
995.2395
992.29645
415.13305
327.22986
233.74821
133.28144
133.04688
233.02234
326.12623
413.71635
989.23449
986.09086
412.25101
324.96123
232.2317
132.78612
132.54444
231.48161
323.81949
410.78285
982.86806
979.58809
409.28501
322.63218
230.67811
132.28073
132.03504
229.91279
321.46521
407.78051
976.22997
972.82774
406.24533
320.2506
229.09197
131.76627
131.51672
228.31449
319.06607
404.71821
969.39497
965.93586
403.17641
317.84684
227.49075
131.24687
130.99734
226.71456
316.66317
401.64763
962.4808
959.16989
400.1778
315.49577
225.92236
130.73564
130.49297
225.17036
314.34603
398.68722
955.81081
952.4818
397.21855
313.18517
224.38515
130.23298
129.99203
223.6454
312.05495
395.75285
949.10801
945.78795
394.29725
310.90628
222.86846
129.73201
129.49389
222.15242
309.81613
392.88664
942.52989
939.33991
391.50274
308.72261
221.41002
129.23911
129.00937
220.74491
307.71403
390.19969
936.22699
933.19056
388.99188
306.75321
220.0855
128.7706
128.56852
219.55695
305.96114
387.97373
930.19329
927.37566
387.26313
305.37254
219.1304
128.38351
128.24175
218.88008
305.0258
386.83078
924.49901
921.54122
386.36058
304.60109
218.53096
128.07258
127.75361
217.67764
303.42986
384.93906
918.16591
914.08867
381.26087
300.42254
215.51607
127.10738
126.48643
211.6663
295.03778
374.71839
909.27203
899.5282
356.02396
278.30205
199.22848
122.93649
126.25642
211.91439
295.35679
375.06831
910.20416
914.63498
381.50984
300.62567
215.6337
126.93286
127.67814
217.8297
303.65445
385.20473
918.52193
921.70813
386.47489
304.70451
218.60923
128.01355
128.20601
218.94918
305.1268
386.95102
924.62213
927.43064
387.26822
305.38587
219.15057
128.34976
128.54753
219.59021
306.0118
388.03888
930.28124
933.19982
388.9693
306.73507
220.08021
128.74552
128.98739
220.73643
307.70387
390.19219
936.20091
939.27466
391.40763
308.64621
221.36585
129.21072
129.46836
222.1124
309.75997
392.8233
942.40716
945.61692
394.14738
310.78629
222.79506
129.6995
129.96339
223.58171
311.96286
395.64382
948.88789
952.22444
397.03338
313.04101
224.29792
130.20028
130.46998
225.11449
314.26371
398.58829
955.60172
959.01942
400.02568
315.37997
225.8556
130.71203
130.98654
226.69317
316.63398
401.6188
962.46072
965.9213
403.08811
317.77653
227.45192
131.23281
131.51101
228.30397
319.05178
404.70643
969.38804
972.85197
406.19118
320.20701
229.07103
131.75918
132.03711
229.92325
321.48178
407.80669
976.28222
979.66918
409.28312
322.62715
230.68198
132.28187
132.55255
231.50959
323.8621
410.84294
983.00005
986.24529
412.26154
324.96775
232.24469
132.79116
133.05896
233.06018
326.18412
413.79685
989.41575
992.50263
415.16621
327.25271
233.77117
133.29022
133.54789
234.55474
328.41877
416.63399
995.47465
998.32559
417.93173
329.43015
235.22733
133.76695
134.01144
235.9614
330.51641
419.2901
1001.0286
1003.5732
420.48954
331.45725
236.58943
134.21622
134.43817
237.27233
332.45952
421.72602
1005.896
1007.9826
422.87785
333.34474
237.83926
134.61433
134.72902
238.19184
333.87238
423.55932
1009.8179
140.93055
255.83377
358.94874
453.54545
986.40112
984.48844
452.70544
358.31779
255.4215
140.80067
140.6071
254.8086
357.38571
451.51451
982.20825
979.73546
450.22009
356.34081
254.08825
140.3709
140.14522
253.38805
355.28304
448.87386
977.1434
974.43111
447.45472
354.14059
252.60236
139.88307
139.63934
251.8498
353.00426
446.00603
971.58168
968.62195
444.49546
351.79309
251.02001
139.36467
139.10789
250.22473
350.59011
442.95784
965.5449
962.51085
441.42525
349.35993
249.38134
138.82832
138.56537
248.56329
348.11922
439.83349
959.29361
956.0205
438.20777
346.82258
247.67953
138.27524
138.00504
246.83795
345.5486
436.57557
952.67402
949.28467
434.91237
344.22468
245.93689
137.70948
137.43583
245.08623
342.93771
433.26338
945.89199
942.51475
431.6143
341.62486
244.19211
137.14168
136.87023
243.3504
340.35029
429.97842
939.12202
935.74411
428.34389
339.05127
242.46651
136.57861
136.31118
241.64231
337.80331
426.74095
932.39866
929.07931
425.14544
336.53656
240.78022
136.0245
135.76254
239.98215
335.32809
423.59144
925.81264
922.58567
422.05199
334.10643
239.14986
135.48171
135.22599
238.38713
332.95222
420.56634
919.43939
916.36365
419.11963
331.80281
237.60124
134.95317
134.70707
236.89744
330.73969
417.74991
913.3479
910.41751
416.49004
329.73401
236.20327
134.45066
134.2344
235.65641
328.9159
415.43782
907.5222
904.80936
414.72189
328.326
235.22765
134.03492
133.87805
234.99812
328.00675
414.31341
902.0465
899.1956
413.81253
327.56386
234.63599
133.66122
133.23919
233.77249
326.37351
412.35533
896.06061
892.40402
408.5329
323.25916
231.56169
132.38719
131.39317
228.51047
318.63161
402.61973
888.4222
895.74718
409.78461
324.23207
231.85076
131.0061
133.71124
234.54429
327.87404
414.78076
898.47117
903.27349
420.44739
332.71983
237.90499
134.53769
135.06501
239.04506
334.16247
422.15334
906.75867
909.89447
422.77798
334.67734
239.42495
135.23538
135.43444
239.79191
335.16405
423.36107
912.82434
915.74348
424.15027
335.78029
240.21594
135.61812
135.86823
240.86345
336.71861
425.31916
918.69127
921.67859
426.57053
337.69419
241.52048
136.10486
136.38373
242.31718
338.8683
428.04841
924.7446
927.86158
429.47804
339.97841
243.05873
136.63545
136.92069
243.90139
341.22374
431.04533
931.02121
934.252
432.54982
342.3928
244.68106
137.17861
137.46973
245.55695
343.69023
434.18427
937.53824
940.84768
435.73042
344.89583
246.36198
137.73272
138.03123
247.26905
346.24052
437.42474
944.20268
947.57351
439.01889
347.48545
248.10049
138.30077
138.60513
249.02994
348.86266
440.75191
950.98858
954.40578
442.38519
350.13661
249.87967
138.87912
139.18488
250.81474
351.52024
444.12205
957.82608
961.22153
445.75108
352.79434
251.66576
139.45893
139.7639
252.6002
354.17772
447.48822
964.59095
967.89153
449.09171
355.4299
253.43549
140.03243
140.32832
254.33963
356.76546
450.7632
971.11473
974.25042
452.29885
357.96633
255.14154
140.58673
140.873
256.01352
359.25248
453.90486
977.29219
980.24067
455.35585
360.39218
256.77719
141.12002
141.39666
257.61923
361.63361
456.90454
983.09145
985.80453
458.26295
362.69983
258.33269
141.62725
141.8819
259.10791
363.84072
459.67965
988.36808
990.70262
460.92717
364.80619
259.74064
142.08234
142.27382
260.32159
365.66263
461.98602
992.74622
994.38221
462.87125
366.32487
260.74755
142.40656
140.92161
255.80427
358.90225
453.48273
986.24331
984.47517
452.69522
358.30505
255.41023
140.796
140.6058
254.80752
357.38681
451.51963
982.25053
979.82067
450.23501
356.34995
254.09303
140.37187
140.14744
253.39532
355.29497
448.89067
977.20398
974.48077
447.45357
354.13926
252.60173
139.88343
139.63951
251.84895
353.0039
446.00711
971.6101
968.66438
444.48495
351.78394
251.01377
139.36338
139.10836
250.22551
350.59382
442.96655
965.60982
962.49062
441.38025
349.32674
249.36083
138.82315
138.56015
248.54568
348.09485
439.80555
959.26697
956.00471
438.17441
346.79504
247.66052
138.26953
138.00105
246.82569
345.53246
436.55812
952.66603
949.31307
434.9075
344.21776
245.93075
137.70732
137.4366
245.08972
342.94518
433.27601
945.94471
942.63251
431.64843
341.64796
244.20574
137.14563
136.87746
243.37383
340.38729
430.0284
939.25401
935.90536
428.4043
339.0957
242.49496
136.58767
136.32255
241.6777
337.85762
426.81226
932.56967
929.30804
425.24211
336.60826
240.82621
136.03914
135.7789
240.0319
335.40324
423.68828
926.03351
922.81502
422.16271
334.1895
239.20387
135.4995
135.24453
238.44228
333.03536
420.6733
919.68369
916.58468
419.21343
331.87502
237.64939
134.96998
134.7227
236.94136
330.80538
417.83392
913.53858
910.57219
416.55294
329.78271
236.23615
134.46315
134.24697
235.6909
328.96865
415.50745
907.70101
904.96034
414.77085
328.36367
235.25323
134.04509
133.88911
235.02845
328.05243
414.3733
902.20985
899.38591
413.8755
327.61232
234.66943
133.67441
133.24351
233.79196
326.40734
412.40123
896.23446
892.56577
408.53952
323.27038
231.58288
132.39964
131.28683
228.45005
318.6143
402.6173
888.85522
911.48452
376.16706
296.51498
212.79459
125.79188
126.94541
215.66595
300.56125
381.42068
914.82158
918.81717
385.31181
303.72855
217.86359
127.65731
128.05948
218.72781
304.86582
386.66505
922.01957
924.93648
387.03747
305.18007
218.97873
128.21725
128.39052
219.25547
305.53928
387.45509
927.72809
930.56883
388.10451
306.04879
219.60933
128.55725
128.78325
220.17685
306.87465
389.13585
933.50012
936.4943
390.25514
307.74518
220.76159
128.99876
129.25383
221.48437
308.81886
391.61568
939.57951
942.73865
392.9287
309.83173
222.15623
129.48384
129.74295
222.91877
310.96771
394.36804
945.95846
949.22707
395.74979
312.03401
223.62455
129.97738
130.2405
224.41455
313.21217
397.24148
952.52936
955.87933
398.67492
314.31862
225.14589
130.47933
130.74604
225.9551
315.52563
400.2016
959.25806
962.66706
401.66634
316.65818
226.70401
130.98862
131.25912
227.52954
317.89012
403.22417
966.07703
969.49844
404.70384
319.03565
228.28738
131.50373
131.77596
229.11995
320.27875
406.27615
972.92965
976.32708
407.73625
321.41507
229.87444
132.01994
132.29358
230.71363
322.66997
409.32599
979.69598
983.01355
410.76304
323.78932
231.45729
132.53405
132.80403
232.28238
325.02179
412.32175
986.26607
989.44178
413.7149
326.10956
233.00639
133.03945
133.303
233.80996
327.30808
415.22775
992.52468
995.49339
416.5525
328.34266
234.49895
133.52686
133.77648
235.25693
329.46921
417.96888
998.32173
1000.9802
419.18966
330.42284
235.89178
133.98435
134.21181
236.58142
331.44381
420.46286
1003.4381
1005.6516
421.57934
332.30148
237.13841
134.38557
134.54865
237.63091
333.02834
422.47797
1007.5691
1009.197
423.32562
333.66345
238.0397
134.67938
994.30755
462.65178
366.15313
260.63313
142.37188
142.23758
260.21559
365.51398
461.81497
992.60678
990.71799
460.83905
364.72918
259.67807
142.05947
141.86517
259.05761
363.77145
459.59545
988.33761
985.76089
458.28669
362.71421
258.32986
141.62408
141.39177
257.60576
361.61248
456.87165
983.08962
980.24379
455.41956
360.44243
256.80075
141.12567
140.87372
256.01386
359.2487
453.88939
977.28091
974.21011
452.34477
358.00739
255.16201
140.59293
140.32845
254.33656
356.75651
450.7416
971.07957
967.87574
449.15543
355.48281
253.46297
140.04067
139.77013
252.61662
354.19908
447.50686
964.62677
961.31074
445.88422
352.89867
251.72629
139.47744
139.20287
250.86794
351.59647
444.2102
957.98321
954.59837
442.55934
350.27721
249.9665
138.90677
138.63034
249.10355
348.96822
440.87592
951.20247
947.78476
439.21034
347.64047
248.19782
138.33263
138.05797
247.34508
346.34856
437.55013
944.40054
941.03605
435.91944
345.04949
246.45857
137.76479
137.49578
245.63004
343.79408
434.30448
937.72552
934.43997
432.72353
342.53578
244.77095
137.20879
136.94574
243.97182
341.32472
431.1635
931.21989
928.03327
429.64269
340.11466
243.14438
136.66432
136.40761
242.38432
338.96427
428.16003
924.92868
921.87637
426.77531
337.85683
241.62108
136.13745
135.89767
240.94971
336.84311
425.46662
918.94727
916.02003
424.36499
335.95539
240.32738
135.65432
135.4683
239.89464
335.31145
423.53623
913.13407
910.21818
423.02045
334.8769
239.55533
135.27665
135.10463
239.18392
334.35905
422.38476
907.11404
903.62255
420.74119
332.95154
238.05474
134.57833
133.73542
234.79924
328.22081
415.16224
898.79611
895.92074
410.13487
324.55906
232.12235
131.1502
131.75928
231.41344
323.6968
409.3373
895.00281
898.81399
415.37111
328.42138
234.88717
133.75438
134.56656
237.97459
332.79629
420.53041
903.41575
906.87969
422.20801
334.19423
239.05411
135.04351
135.24898
239.49308
334.76549
422.86602
909.94502
912.83871
423.39078
335.17736
239.79405
135.42296
135.63503
240.27963
335.86143
424.22795
915.73421
918.66635
425.31859
336.71065
240.85348
135.85782
136.12233
241.57786
337.76751
426.64117
921.64178
924.6782
428.03805
338.84995
242.29878
136.37231
136.6496
243.10023
340.02748
429.51689
927.78151
930.92662
431.0167
341.19121
243.87355
136.90762
137.19209
244.71721
342.434
432.57883
934.15035
937.43524
434.14566
343.65229
245.52701
137.45716
137.75005
246.40861
344.95345
435.78188
940.76294
944.13367
437.40499
346.21669
247.24817
138.02189
138.32088
248.1548
347.55424
439.08427
947.52932
950.94851
440.75267
348.85253
249.01675
138.59808
138.89938
249.93291
350.20286
442.44553
954.3801
957.80697
444.12037
351.50978
250.8022
139.17842
139.48168
251.72742
352.87444
445.83122
961.21454
964.58759
447.49819
354.17256
252.58886
139.75722
140.05175
253.48567
355.49218
449.14779
967.87783
971.09829
450.75554
356.74592
254.31839
140.31853
140.60461
255.18646
358.02164
452.34751
974.24278
977.30028
453.87679
359.21759
255.98257
140.86047
141.13722
256.82115
360.44875
455.41051
980.25497
983.10545
456.85477
361.5811
257.57649
141.38057
141.64584
258.37611
362.7516
458.30757
985.82634
988.41299
459.66102
363.81363
259.08393
141.8738
142.11705
259.82564
364.89331
460.98797
990.8375
992.99585
462.25371
365.8659
260.45
142.31157
142.42919
260.80834
366.39271
462.92264
994.63645
1181.478
1186.5719
1181.4749
1186.5608
1191.5269
1178.5467
1170.0177
1208.3869
1214.4571
1178.556
1206.6381
1234.9174
1214.4581
1225.1738
1239.4144
1228.1312
1212.7113
1254.9298
1269.0553
1303.74
1246.3916
1231.3654
1293.3299
1319.7628
1243.8831
1202.4849
1234.6151
1267.5865
1256.2661
1271.0498
1255.2394
1290.6971
1277.2638
1312.9039
1322.2886
1346.0945
1281.6553
1287.8777
1274.0752
1265.4606
1258.4944
1329.5009
1340.6184
1331.0617
1250.8748
1243.1048
1228.5111
1221.1359
1299.1301
1309.8986
1321.2988
1310.5414
1300.8928
1281.8782
1212.2854
1221.0778
1221.056
1150.1807
1122.1244
1113.8556
1118.164
1135.834
887.72137
401.2288
317.48021
227.70226
131.61733
132.47335
231.00335
322.40355
407.48052
891.53042
895.25805
411.45852
325.61461
233.24467
133.21011
133.65165
234.31024
327.08095
413.2331
898.49328
901.46872
413.78471
327.55025
234.67605
133.83291
134.01854
235.03542
328.03417
414.36622
904.32454
907.2159
415.0956
328.61639
235.44414
134.19453
134.44174
236.09923
329.57117
416.29115
910.16363
913.18199
417.52698
330.53588
236.74999
134.67377
134.94869
237.54224
331.70568
419.00071
916.25516
919.38928
420.39889
332.79616
238.27299
135.19611
135.47903
239.11443
334.04536
421.97936
922.57464
925.78706
423.43495
335.18304
239.87635
135.73149
136.02053
240.74975
336.48204
425.0795
929.06476
932.38272
426.58427
337.66018
241.53896
136.27893
136.57509
242.44235
339.00505
428.28624
935.73012
939.09974
429.83673
340.2173
243.25268
136.83817
137.13605
244.16345
341.57123
431.54653
942.4766
945.84633
433.10728
342.79575
244.98386
137.402
137.70411
245.91039
344.17335
434.84602
949.22417
952.57195
436.41858
345.40419
246.7332
137.96988
138.26718
247.64355
346.75447
438.11663
955.8629
959.11622
439.66103
347.96232
248.45047
138.52762
138.81739
249.33588
349.27352
441.30573
962.27861
965.36543
442.78611
350.43412
250.11277
139.06882
139.35073
250.97249
351.70622
444.37957
968.38383
971.3042
445.78061
352.80993
251.71368
139.59151
139.86431
252.54432
354.03834
447.31809
974.11913
976.80714
448.64683
355.08132
253.24263
140.09092
140.34417
254.00938
356.2084
450.04431
979.34327
981.70409
451.29064
357.17863
254.6491
140.54915
140.7506
255.26045
358.08247
452.41116
983.8523
985.75663
453.36355
358.79704
255.71974
140.89288
140.68322
255.06691
357.79638
452.07295
983.39767
981.60551
451.23451
357.14438
254.62716
140.54216
140.34278
253.99843
356.18775
450.01183
979.3271
976.81922
448.69632
355.12328
253.26295
140.09885
139.86898
252.55556
354.05447
447.33374
974.20283
971.45078
445.93115
352.92068
251.7736
139.6088
139.36603
251.02029
351.77957
444.46949
968.63748
965.66046
442.9587
350.56669
250.18932
139.0918
138.83606
249.39367
349.36067
441.41226
962.56265
959.42892
439.85347
348.11175
248.53986
138.55516
138.29286
247.72099
346.86749
438.25304
956.17344
952.84731
436.62645
345.5691
246.83583
138.00256
137.73186
245.9917
344.29027
434.9841
949.48281
946.09398
433.33678
342.97565
245.09529
137.43786
137.16646
244.25064
341.69578
431.69223
942.71541
939.33351
430.07732
340.4051
243.36927
136.87615
136.60969
242.543
339.152
428.46368
936.05726
932.69389
426.83579
337.85842
241.66321
136.31985
136.05484
240.84674
336.62157
425.24426
929.3408
926.04008
423.66209
335.36324
239.98923
135.76953
135.50876
239.19549
334.16096
422.11326
922.77973
919.63832
420.61807
332.96794
238.37872
135.23166
134.97888
237.62567
331.82737
419.14585
916.51261
913.41521
417.71715
330.68884
236.84486
134.70703
134.47019
236.17397
329.68102
416.4232
910.40846
907.47511
415.31817
328.78864
235.54881
134.232
134.05473
235.12489
328.16724
414.5286
904.62313
901.78308
414.04026
327.7483
234.79831
133.88406
133.71182
234.43339
327.26861
413.46876
898.82019
895.4915
411.85405
325.90708
233.41754
133.30966
132.62368
231.24657
322.80516
408.02029
891.56464
886.90704
401.88384
317.83608
227.80828
131.81451
129.76345
220.99042
308.09985
390.41139
879.70647
891.63409
419.23002
332.44719
238.26819
138.33957
131.23196
232.08441
324.42437
409.85689
895.28493
897.65797
414.18913
327.43988
234.31213
133.79652
134.58253
237.73652
332.43575
420.06783
902.65628
906.2549
421.70867
333.79453
238.80199
135.06443
135.26224
239.32036
334.50858
422.55775
909.50345
912.50391
423.07233
334.918
239.62337
135.42317
135.6349
240.15715
335.68552
424.02284
915.47618
918.43975
425.10653
336.53031
240.72957
135.84862
136.11028
241.46924
337.61339
426.46127
921.40618
924.44099
427.84169
338.68427
242.18502
136.35439
136.6326
243.00426
339.89241
429.35998
927.58425
930.79382
430.82543
341.03584
243.76975
136.88676
137.17782
244.64711
342.33745
432.46923
934.03877
937.32724
433.99851
343.53119
245.44485
137.43854
137.73487
246.34572
344.86742
435.68468
940.668
944.07472
437.26206
346.10059
247.17049
138.00246
138.30667
248.10158
347.48342
439.00726
947.48186
950.90325
440.6131
348.74099
248.94323
138.57872
138.88687
249.88868
350.1442
442.38187
954.33998
957.77264
444.00088
351.41375
250.7388
139.16103
139.46985
251.6879
352.8226
445.77595
961.18503
964.54246
447.37862
354.07857
252.52789
139.74026
140.04133
253.45129
355.44679
449.09894
967.83895
971.05393
450.64494
356.66033
254.26395
140.3033
140.59622
255.1607
357.98668
452.30743
974.16836
977.21126
453.79795
359.15415
255.94129
140.84768
141.12667
256.79253
360.41041
455.36742
980.16284
982.98092
456.7449
361.49509
257.52035
141.3621
141.62739
258.32715
362.68321
458.22534
985.63177
988.0964
459.5068
363.69103
259.0019
141.84579
142.08936
259.73093
364.74435
460.78901
990.30113
992.17861
462.06877
365.72751
260.3688
142.29219
142.41223
260.72325
366.18331
462.60371
993.67202
140.66969
255.01994
357.72954
451.98901
983.203
981.46222
451.14874
357.07033
254.57251
140.52367
140.32089
253.94112
356.11008
449.9215
979.21893
976.74856
448.64378
355.07547
253.22692
140.08301
139.86211
252.5418
354.03569
447.31263
974.19563
971.48041
445.93225
352.92366
251.77792
139.60938
139.37411
251.04487
351.8109
444.50488
968.66742
965.66982
442.98774
350.59909
250.21833
139.10324
138.85215
249.43127
349.40857
441.46488
962.56725
959.38096
439.85051
348.11875
248.55054
138.56439
138.29506
247.71781
346.86256
438.2468
956.11027
952.78642
436.57326
345.52927
246.8094
137.99514
137.72326
245.96741
344.25745
434.94654
949.41537
946.01478
433.30586
342.94916
245.07585
137.43123
137.16241
244.23895
341.68112
431.67719
942.70242
939.3716
430.06056
340.39206
243.36047
136.87355
136.6077
242.53477
339.14
428.4491
936.03271
932.65029
426.79897
337.832
241.64705
136.31615
136.04984
240.8258
336.58983
425.20395
929.25854
925.93363
423.59278
335.31149
239.95636
135.76148
135.50055
239.16218
334.1118
422.05254
922.66711
919.50807
420.52965
332.90121
238.33575
135.22153
134.96941
237.58377
331.76533
419.06897
916.36923
913.29202
417.63278
330.62326
236.80172
134.69829
134.46353
236.13406
329.62161
416.3497
910.27254
907.38714
415.25128
328.73577
235.51403
134.22863
134.05447
235.09247
328.11701
414.46549
904.50869
901.66464
413.9624
327.68862
234.76108
133.88545
133.71785
234.39887
327.21116
413.39469
898.68965
895.33942
411.8002
325.86734
233.39859
133.32475
132.64736
231.25338
322.7982
408.00411
891.50395
886.93586
401.95045
317.89205
227.85628
131.8405
129.92613
221.68719
308.99395
391.38542
880.03427
899.88983
359.52348
281.55181
201.82629
124.21872
134.3126
228.8664
319.04667
403.28605
888.89825
891.17591
404.58701
320.36887
230.21307
134.58264
131.44928
227.73195
317.59964
401.41537
888.03204
891.64774
407.53851
322.44659
231.03877
132.44474
133.2046
233.31862
325.73798
411.61306
895.34283
898.55779
413.23646
327.07427
234.29975
133.62499
133.8409
234.74722
327.65406
413.905
901.51438
904.33696
414.35199
328.01507
235.01791
133.99878
134.20865
235.51211
328.71328
415.20539
907.20451
910.13447
416.26804
329.54323
236.07513
134.42488
134.68676
236.80035
330.60326
417.59437
913.13465
916.20588
418.96047
331.66618
237.51201
134.93312
135.21218
238.32679
332.86909
420.47579
919.3439
922.53142
421.94038
334.00906
239.08756
135.46622
135.75114
239.93882
335.2695
423.53007
925.76155
929.0311
425.05712
336.4562
240.72813
136.00959
136.29644
241.59374
337.73714
426.67016
932.32898
935.66999
428.2303
338.95287
242.40359
136.55952
136.85333
243.29677
340.27544
429.89454
939.00777
942.38344
431.49561
341.52279
244.12664
137.12125
137.41699
245.02702
342.85455
433.16926
945.7586
949.152
434.77357
344.10929
245.86426
137.68724
137.98713
246.7804
345.46595
436.47936
952.50817
955.83564
438.07967
346.71628
247.61363
138.25548
138.54961
248.51094
348.04259
439.74282
959.1076
962.30304
441.30403
349.26049
249.32153
138.81048
139.09434
250.18411
350.5313
442.89004
965.39715
968.41559
444.38893
351.70053
250.96235
139.34509
139.61818
251.78959
352.91726
445.90388
971.36507
974.19837
447.30366
354.01618
252.52464
139.8563
140.12129
253.32617
355.19414
448.76863
976.91601
979.48959
450.09469
356.23512
254.02193
140.34655
140.59489
254.77031
357.32491
451.43164
981.91837
984.13107
452.72177
358.32272
255.41599
140.79877
140.926
255.8142
358.91692
453.48586
986.04365
1010.3528
423.661
333.91375
238.19776
134.72693
134.60602
237.80585
333.29374
422.82319
1008.3977
1006.062
421.74076
332.44269
237.23614
134.42052
134.22473
236.62337
331.50133
420.52514
1003.5501
1000.8761
419.25162
330.4798
235.92463
133.99276
133.77335
235.24557
329.445
417.92183
998.10065
995.21597
416.56467
328.35916
234.50428
133.52747
133.296
233.78574
327.2635
415.1543
992.22115
989.21527
413.74812
326.13959
233.01946
133.0424
132.80172
232.26973
324.99444
412.27011
986.01147
982.72187
410.76368
323.7977
231.45833
132.53519
132.28472
230.67849
322.6093
409.23235
979.36253
975.96096
407.69022
321.3858
229.84967
132.01252
131.75848
229.05924
320.18115
406.1371
972.51933
969.09126
404.60205
318.96341
228.23425
131.48717
131.23558
227.45216
317.77023
403.06104
965.6607
962.19536
401.56238
316.58021
226.64519
130.9694
130.72258
225.87972
315.41009
400.04604
958.87712
955.49877
398.57678
314.24493
225.08997
130.461
130.21848
224.34277
313.10204
397.0931
952.16959
948.82402
395.6289
311.94601
223.56103
129.95791
129.71682
222.82867
310.82799
394.17945
945.4867
942.24179
392.76849
309.71238
222.07175
129.45943
129.22354
221.37497
308.65141
391.39393
939.05157
935.93961
390.11271
307.63261
220.67786
128.97632
128.75615
220.06422
306.70178
388.90639
932.95113
929.97045
387.89679
305.89041
219.49822
128.53379
128.36295
219.10535
305.30893
387.15296
927.05175
924.1647
386.72392
304.93893
218.81329
128.19352
128.03703
218.49837
304.5156
386.21625
921.17781
917.97809
384.79833
303.31596
217.5739
127.62913
126.98866
215.28179
299.97216
380.7012
913.968
910.72296
375.45588
295.9088
212.32762
125.77154
900.99925
355.41583
277.95107
198.92695
122.32211
126.37274
211.30615
294.37889
373.84949
909.38062
913.6575
380.59393
299.90983
215.18816
126.99221
127.69675
217.46612
303.09252
384.50096
917.58229
920.89924
385.96888
304.29421
218.337
128.02273
128.2071
218.74179
304.81582
386.56781
923.96357
926.89313
387.00807
305.16618
218.99926
128.3496
128.54025
219.4538
305.80989
387.7926
929.85422
932.85355
388.77899
306.57913
219.97441
128.73912
128.98195
220.65317
307.57942
390.03771
935.91002
939.03114
391.31637
308.56832
221.31097
129.20871
129.46519
222.06297
309.68565
392.72979
942.22131
945.46165
394.11263
310.75075
222.76679
129.69903
129.95865
223.5426
311.90401
395.56893
948.72987
952.06371
397.00723
313.01282
224.27465
130.1977
130.46273
225.07654
314.20683
398.51606
955.44912
958.86237
399.9847
315.3442
225.82914
130.70666
130.97844
226.65856
316.58179
401.55126
962.30159
965.73641
403.05375
317.74342
227.42559
131.22547
131.4973
228.25532
318.9784
404.61145
969.15371
972.58788
406.12378
320.14793
229.02776
131.74559
132.01745
229.85852
321.38496
407.68366
975.99646
979.34427
409.16114
322.53272
230.61887
132.26243
132.53241
231.44396
323.76134
410.71065
982.63718
985.85419
412.15472
324.88256
232.1862
132.77161
133.03295
232.98153
326.06399
413.64034
988.99706
992.06852
415.02004
327.1382
233.69439
133.26346
133.51797
234.46822
328.28781
416.46454
995.0385
997.90397
417.77347
329.3073
235.14489
133.73734
133.98068
235.88019
330.39506
419.13303
1000.6403
1003.2322
420.36805
331.35863
236.52023
134.18855
134.41723
237.2086
332.36777
421.61254
1005.6569
1007.8534
422.81224
333.29067
237.80138
134.6049
134.72185
238.16487
333.83334
423.51229
1009.7401
142.4011
260.71609