/*--------------------------------*- C++ -*----------------------------------*\
  =========                 |
  \\      /  F ield         | OpenFOAM: The Open Source CFD Toolbox
   \\    /   O peration     | Website:  https://openfoam.org
    \\  /    A nd           | Version:  7
     \\/     M anipulation  |
\*---------------------------------------------------------------------------*/
FoamFile
{
    version     2.0;
    format      ascii;
    class       volScalarField;
    location    "180";
    object      nut;
}
// * * * * * * * * * * * * * * * * * * * * * * * * * * * * * * * * * * * * * //

dimensions      [0 2 -1 0 0 0 0];

internalField   nonuniform List<scalar> 
25201
(
6.8376459
6.8652861
6.8376621
6.8653174
6.9444766
6.8848788
6.8419781
6.8681701
6.9085962
6.9721169
6.9085529
6.8848465
6.9163727
6.7477921
6.6540433
6.9440607
6.9179622
6.8894474
6.8877606
6.7445786
6.8499156
6.8355207
6.8781886
6.8165952
6.8222477
6.7132843
6.7610905
6.869822
6.8256073
6.7056266
6.7473492
6.7994289
6.50086
6.5708097
6.6551561
6.6505174
6.7789178
6.7238979
6.567146
6.4953375
6.6791773
6.6539235
6.6808301
6.4625003
6.457876
6.4768148
6.6532966
6.8513943
6.9139991
6.9163232
6.9415326
6.9468263
6.9506165
6.9804959
6.9875797
6.9724782
6.9565894
6.9351048
6.9579079
6.8468054
6.8524821
6.9150733
6.9354844
6.9732578
6.9992439
7.0042405
7.0026233
6.9327381
6.8872084
6.7459965
6.6987946
6.7346429
6.8913026
6.9214245
6.8849404
6.5885655
6.62833
6.6944058
6.7257633
6.7749265
6.8398717
6.8795968
6.8302901
6.8300565
6.7804137
6.8243039
6.7592504
6.7442339
6.6709272
6.7084668
6.6387315
6.5916732
6.5974418
6.6206504
6.6230374
6.6749258
6.688016
6.6378528
6.5356641
6.604785
6.5932478
6.5297775
6.5287622
6.5946709
6.5840897
6.5327944
6.3982689
6.4802559
6.5208766
6.5345099
6.5004198
6.4918193
6.4061123
6.411308
6.2659083
6.3730882
6.362006
6.2616282
6.2600346
6.402326
6.4894791
6.3658963
6.3583244
6.2590407
6.096525
6.2299163
6.320903
6.522524
6.7111028
6.5708287
6.4992879
6.4621416
6.4794495
6.5132685
6.5869799
6.6628143
6.7611709
6.8324258
6.9158185
6.9571753
6.9726212
6.9355922
6.8470784
6.8532489
6.9360774
6.9581762
6.9805896
6.9876055
6.9415009
7.0042575
6.9992502
6.9732061
6.8873642
6.9327556
7.002655
6.9771778
6.9468344
6.9141524
6.8924719
6.9218083
6.69924
6.7356256
6.8252401
6.8420636
6.8815303
6.7772879
6.7282328
6.6954782
6.6101189
6.6724871
6.781298
6.8308804
6.7364639
6.7917144
6.8336657
6.7600048
6.7359276
6.7263143
6.5446408
6.5518444
6.3713648
6.4353789
6.4734272
6.3878522
6.3671529
6.2765292
6.3590755
6.3671366
6.263532
6.1015315
6.23874
6.3368062
6.5453618
6.7277408
6.5932221
6.6414769
6.6746131
6.2638927
6.3692313
6.4930472
6.5983391
6.5867624
6.5356866
6.6004601
6.6246271
6.5325757
6.4062562
6.4009695
6.4825774
6.3602741
6.261499
6.0984052
6.2312206
6.2358931
6.2330807
6.3263513
6.8652962
6.8375772
6.8995375
6.8700571
6.8256263
6.6808554
6.5709875
6.7474968
6.7057598
6.6792328
6.65391
6.4578146
6.4624664
6.5007535
6.4953384
6.5672356
6.723975
6.7791094
6.7997099
6.6553315
6.65069
6.74455
6.8359012
6.9182633
0.0012366361
0.0069148877
0.016897961
0.028886817
0.36921324
0.37534331
0.029837438
0.017423972
0.0071257629
0.0012698331
0.0012876437
0.0073121267
0.017883444
0.030600748
0.38290127
0.38737889
0.03085563
0.018043681
0.0073817506
0.0012958366
0.0012987571
0.0074069284
0.018097724
0.030927964
0.39024824
0.3920839
0.030935639
0.018110689
0.0074152134
0.0013000513
0.0013012075
0.007426026
0.018133841
0.030965048
0.39342644
0.39452923
0.03100355
0.018159423
0.007437337
0.0013022863
0.0013035806
0.0074530393
0.01819782
0.031065339
0.39552693
0.39649676
0.031125357
0.018233904
0.0074678647
0.0013047681
0.0013061306
0.0074856924
0.018278421
0.031199306
0.39746446
0.39845357
0.031265233
0.018317693
0.0075017153
0.0013073505
0.0013087401
0.0075204581
0.018364638
0.031343624
0.39946411
0.40049814
0.031412188
0.018405443
0.0075370975
0.001309978
0.0013113854
0.0075563262
0.018453517
0.031492405
0.40154878
0.40262351
0.031562916
0.018495512
0.0075734637
0.0013126446
0.0013140736
0.0075931417
0.018544668
0.031644878
0.40371912
0.40484364
0.031717668
0.018587914
0.007610738
0.0013153537
0.0013167909
0.0076306229
0.018637603
0.031800579
0.40598462
0.40714188
0.031874474
0.018681296
0.0076483257
0.0013180709
0.0013194908
0.0076679309
0.018730194
0.031955968
0.40830489
0.4094716
0.032028561
0.01877315
0.0076853608
0.0013207495
0.0013221436
0.0077047015
0.018821442
0.032109123
0.4106504
0.41183353
0.032179976
0.018863239
0.0077216349
0.0013233595
0.0013247036
0.0077403929
0.018910212
0.032258502
0.41301387
0.41418823
0.032326273
0.018950052
0.0077564936
0.0013258507
0.0013271204
0.0077743032
0.018994838
0.032401367
0.41534538
0.41647926
0.032465262
0.019032128
0.0077892666
0.0013281814
0.0013293538
0.0078056414
0.019073426
0.032534483
0.41758501
0.41865457
0.032596
0.019108789
0.0078194557
0.0013303008
0.0013312116
0.0078326537
0.019141628
0.032650821
0.41967208
0.42057401
0.032700229
0.019168699
0.0078428792
0.0013318807
0.47144466
0.029541786
0.017478487
0.0072164114
0.001272664
0.0012720899
0.0072076859
0.017455617
0.029500515
0.47039767
0.46917989
0.029447175
0.017423888
0.0071949246
0.0012712497
0.0012703457
0.0071812024
0.017388901
0.029387983
0.4678986
0.46658455
0.02932409
0.017350579
0.0071657831
0.0012692551
0.001268235
0.0071511061
0.017313655
0.029262022
0.46526939
0.46393412
0.029195202
0.017273425
0.0071347867
0.0012670744
0.0012659861
0.0071192299
0.017234551
0.029130218
0.46259092
0.46124028
0.029060945
0.017192753
0.0071022389
0.0012647679
0.0012636322
0.0070861853
0.017152742
0.02899419
0.45989696
0.45855068
0.028923996
0.017110326
0.0070689053
0.0012623846
0.0012612167
0.0070523674
0.017069139
0.028855318
0.45720283
0.4558539
0.028782855
0.017025311
0.0070345211
0.0012599356
0.0012587427
0.0070176306
0.016983285
0.02871292
0.45452472
0.45320287
0.028640265
0.016939277
0.0069996936
0.0012574517
0.0012562565
0.0069828104
0.016897242
0.028570274
0.45191334
0.45068308
0.028501861
0.016855442
0.0069656221
0.0012550019
0.0012538361
0.0069492202
0.016814487
0.028433439
0.44945725
0.44825238
0.028364265
0.016772476
0.00693206
0.0012525853
0.0012514235
0.0069158746
0.016732016
0.028296676
0.44705203
0.44587913
0.028227657
0.016690172
0.0068988298
0.0012501684
0.0012490144
0.0068831837
0.016651222
0.028162931
0.44474358
0.44362729
0.028097695
0.016611488
0.0068669357
0.0012477777
0.0012466548
0.0068524952
0.016575844
0.028039179
0.44252943
0.44140434
0.027985036
0.016541763
0.0068382129
0.001245477
0.0012444419
0.0068269773
0.016515607
0.027945623
0.44018922
0.43878967
0.027923159
0.016496576
0.0068174588
0.0012433779
0.0012420906
0.0068089735
0.016481619
0.027910832
0.43690775
0.43404365
0.027850604
0.016434628
0.006785984
0.0012392047
0.0012317513
0.0067236316
0.016289834
0.027623554
0.42954061
0.42288034
0.027063573
0.015953478
0.0065840185
0.0012156262
0.0011916509
0.0063666998
0.015436514
0.02619037
0.41525661
0.39220025
0.023698316
0.013830927
0.0056896836
0.0011449157
0.0011900336
0.006379322
0.015467776
0.026232952
0.41595335
0.42353187
0.027089841
0.015970723
0.0065912921
0.0012146122
0.0012313076
0.0067308475
0.016307019
0.027650062
0.43002727
0.43437361
0.027866095
0.016444756
0.0067905328
0.0012388833
0.0012419028
0.0068127425
0.016490715
0.027925162
0.43717226
0.4389946
0.027929538
0.016500835
0.0068195305
0.0012432102
0.001244339
0.0068291502
0.01652116
0.027954767
0.44037477
0.44153961
0.02798868
0.01654383
0.0068391749
0.0012453561
0.0012465495
0.006853272
0.016578113
0.02804326
0.44263081
0.44369942
0.028096469
0.016610513
0.0068666538
0.0012476414
0.0012488919
0.0068829653
0.016651088
0.028163201
0.44477627
0.44588105
0.028222646
0.01668692
0.0068976465
0.0012500125
0.0012512864
0.006914892
0.016729869
0.028293505
0.44701716
0.44818899
0.028356091
0.016767579
0.0069303349
0.001252429
0.0012537255
0.0069482387
0.016812161
0.028429688
0.44939116
0.45062399
0.028494476
0.016851188
0.0069642145
0.0012548875
0.0012562009
0.0069825439
0.016896801
0.02856978
0.45188542
0.45317378
0.02863603
0.016936697
0.0069988706
0.0012573768
0.0012587013
0.0070174762
0.016983025
0.028712562
0.45448908
0.4558265
0.028779686
0.017023369
0.0070339542
0.0012598789
0.0012611935
0.0070525154
0.017069634
0.028856171
0.457178
0.45853774
0.02892317
0.017109629
0.0070687734
0.001262346
0.0012636167
0.0070866465
0.017154103
0.028996631
0.4599057
0.46126737
0.02906043
0.017192287
0.0071022237
0.0012647305
0.0012659779
0.0071198045
0.017236219
0.029133221
0.46263517
0.46400288
0.029195301
0.017273288
0.0071348926
0.0012670495
0.0012682448
0.0071517892
0.017315561
0.029265435
0.46536324
0.46671253
0.029324944
0.017350822
0.007166054
0.0012692586
0.0012703944
0.007181934
0.017390597
0.029390882
0.46804701
0.46935528
0.02944739
0.017424325
0.0071956226
0.0012713432
0.0012723761
0.0072107842
0.017461821
0.029508619
0.47060595
0.47178466
0.029566257
0.017494795
0.0072233399
0.0012731941
0.0012737213
0.0072310758
0.017514933
0.029602187
0.47291292
0.0013217769
0.00772801
0.018850605
0.032103943
0.42118111
0.42017544
0.032058125
0.018826014
0.0077189102
0.0013211968
0.0013203188
0.007705401
0.018791072
0.031997465
0.4190935
0.41797119
0.03193262
0.018752663
0.0076900068
0.0013192391
0.0013182047
0.0076750758
0.018714961
0.031868715
0.41684172
0.41568654
0.03179955
0.018673799
0.0076584778
0.0013169949
0.0013158682
0.0076426872
0.018634114
0.031732367
0.41452593
0.41334178
0.03165996
0.018590923
0.0076251996
0.0013145934
0.0013133991
0.0076084588
0.018548925
0.031588975
0.41215562
0.41099122
0.031516639
0.018505467
0.0075907367
0.0013120952
0.0013108673
0.0075734611
0.018462068
0.031443179
0.40980152
0.40860546
0.031365967
0.018415869
0.0075547334
0.0013095086
0.0013082407
0.0075369016
0.018371276
0.031290865
0.40741746
0.40622448
0.031211893
0.018323994
0.0075177297
0.0013068504
0.0013055602
0.0074996649
0.018278907
0.031136155
0.40506359
0.40391628
0.031058279
0.018232128
0.0074806328
0.0013041699
0.0013028838
0.0074627179
0.018187418
0.030983183
0.40279294
0.40168106
0.030905878
0.018140994
0.0074438433
0.0013014985
0.0013002244
0.0074262703
0.018097174
0.030832365
0.4006065
0.39954223
0.030756857
0.018051821
0.007407831
0.0012988565
0.0012976024
0.007390808
0.018009357
0.03068562
0.39851891
0.39750746
0.030612734
0.017965572
0.0073730092
0.0012962567
0.0012950267
0.0073567792
0.017925085
0.030544868
0.39654019
0.39558496
0.030476997
0.017884122
0.0073400669
0.0012937127
0.001292522
0.0073252753
0.017847431
0.030416087
0.39464419
0.39367343
0.030360919
0.017812943
0.0073108497
0.0012912748
0.0012901953
0.0072999741
0.017787749
0.030323168
0.3926164
0.39136857
0.030305767
0.017771347
0.0072914133
0.0012890986
0.0012877616
0.0072842551
0.017760175
0.030301081
0.38965848
0.38697281
0.030236951
0.017710559
0.0072603409
0.0012845142
0.0012758511
0.0071943087
0.017554225
0.029985903
0.38284767
0.37697055
0.029355299
0.017184725
0.0070447431
0.0012567187
0.0012264137
0.0068357127
0.016666476
0.028434339
0.37073692
0.37043081
0.028938173
0.016948816
0.0069473902
0.0012332311
0.0012697245
0.0071133132
0.017390233
0.029788487
0.37498564
0.38293129
0.030604949
0.017886615
0.0073136637
0.0012874587
0.0012958767
0.0073830997
0.018046555
0.03085942
0.38729708
0.39018069
0.030922631
0.018094634
0.0074059508
0.0012985821
0.0013000125
0.0074158558
0.01811233
0.030937482
0.39201236
0.39336175
0.030957169
0.018128997
0.0074242536
0.001301006
0.001302239
0.0074375441
0.018160084
0.031003909
0.39446648
0.39545879
0.031056559
0.018192487
0.0074510772
0.0013033897
0.0013047334
0.0074680348
0.018234554
0.031125745
0.39642557
0.39738942
0.031190588
0.01827301
0.0074836523
0.0013059452
0.0013073129
0.0075016834
0.018317915
0.031265048
0.39836907
0.3993712
0.031333681
0.018358515
0.0075181505
0.0013085482
0.0013099374
0.0075368982
0.018405246
0.031411347
0.40040223
0.40144724
0.031481487
0.0184469
0.0075538539
0.0013111916
0.0013126099
0.0075732348
0.018495205
0.031561836
0.40252137
0.4036109
0.031634147
0.018538172
0.007590723
0.0013138887
0.0013153282
0.0076105444
0.018587573
0.031716342
0.40473456
0.40587466
0.031790872
0.018631649
0.007628411
0.0013166216
0.0013180626
0.0076483022
0.018681209
0.031873317
0.40703956
0.40821362
0.031947787
0.018725271
0.0076661656
0.0013193518
0.0013207855
0.0076860522
0.018775002
0.032030833
0.40940428
0.41059201
0.032104692
0.018818454
0.0077035978
0.0013220474
0.0013234372
0.0077227929
0.018866425
0.03218476
0.411782
0.41295663
0.032255406
0.018907922
0.0077395616
0.0013246498
0.001325991
0.0077579987
0.018954045
0.032332466
0.41412576
0.4152873
0.032399021
0.018993203
0.0077738704
0.001327144
0.0013284281
0.0077916639
0.01903797
0.032474122
0.41645126
0.41760313
0.032537122
0.019074769
0.007806463
0.0013294876
0.00133065
0.0078228912
0.019116387
0.032607094
0.4187464
0.41984285
0.032667592
0.019150955
0.0078363078
0.0013315506
0.0013324049
0.0078488146
0.019182407
0.032720564
0.42087825
0.4217858
0.032767168
0.019207464
0.007858101
0.0013329842
0.0013217241
0.0077272965
0.018848631
0.032100332
0.42114276
0.42019384
0.032058015
0.018825693
0.0077186833
0.0013211594
0.001320293
0.0077053742
0.018791216
0.031998002
0.41912561
0.41801211
0.031933415
0.018752968
0.0076900534
0.0013192209
0.0013181909
0.0076751311
0.018715201
0.031869214
0.41686641
0.41570455
0.031798826
0.018673356
0.0076583061
0.0013169735
0.0013158486
0.0076425072
0.018633698
0.031731698
0.4145302
0.4133488
0.03165869
0.018590151
0.0076249002
0.0013145708
0.0013133893
0.0076083582
0.018548785
0.031588932
0.41216456
0.41097559
0.031513434
0.018503698
0.0075901136
0.0013120627
0.0013108376
0.007572986
0.018460913
0.031441363
0.40978404
0.40859465
0.031364053
0.018414682
0.0075542576
0.0013094793
0.0013082209
0.0075366197
0.018370666
0.03129001
0.40740923
0.40623141
0.031211849
0.018323803
0.0075176004
0.00130684
0.0013055635
0.0074997642
0.018279307
0.031137051
0.40507878
0.40395095
0.031060361
0.018233149
0.0074809623
0.0013041884
0.0013029179
0.0074632559
0.018188923
0.030985929
0.40282906
0.40172636
0.030909059
0.018142708
0.0074444674
0.0013015414
0.0013002783
0.0074270482
0.018099225
0.030835961
0.40065154
0.39960179
0.030761835
0.018054568
0.0074088505
0.0012989261
0.0012976803
0.0073918814
0.018012093
0.030690243
0.39856999
0.39755841
0.030618051
0.017968586
0.0073741661
0.0012963412
0.0012951148
0.0073579389
0.017927994
0.030549716
0.39658952
0.39562396
0.030480989
0.017886499
0.0073410382
0.001293793
0.0012925966
0.0073261419
0.017849519
0.030419458
0.39467133
0.39369009
0.030363121
0.017814317
0.0073114496
0.0012913343
0.0012902536
0.0073006483
0.017789413
0.030325967
0.39264313
0.39139133
0.030307362
0.017772334
0.0072918487
0.0012891406
0.0012877969
0.0072848601
0.017761627
0.030303433
0.3896894
0.38702206
0.03023931
0.017712014
0.0072609319
0.0012845358
0.0012757829
0.0071941315
0.017553947
0.029985329
0.38289215
0.37703877
0.029351423
0.017182992
0.0070441349
0.0012565911
0.0012256634
0.0068319214
0.01665832
0.028420107
0.37094397
0.41708635
0.026280648
0.01551783
0.006408524
0.0011867749
0.0012145577
0.0065865718
0.015954812
0.027064327
0.42331067
0.43014398
0.02765697
0.016311174
0.006732541
0.0012313864
0.0012392554
0.0067940407
0.016453111
0.027879191
0.43449648
0.43727087
0.027929055
0.016492721
0.0068136263
0.0012420346
0.0012434359
0.0068219845
0.016507208
0.027939785
0.43906946
0.4404301
0.027955737
0.016521384
0.006829316
0.0012443958
0.0012455392
0.0068412076
0.016549028
0.027996807
0.44159854
0.44268311
0.028043404
0.016578178
0.0068534907
0.0012466043
0.0012478474
0.0068692182
0.016617057
0.028106735
0.4437594
0.44484965
0.028166027
0.016652613
0.0068836961
0.0012489656
0.0012502198
0.0069003874
0.016694014
0.028234001
0.44596978
0.44711172
0.028296849
0.0167316
0.0069156661
0.0012513533
0.0012526207
0.0069329696
0.01677448
0.028367231
0.44828202
0.44947988
0.028432529
0.016813492
0.0069488126
0.0012537698
0.0012550487
0.0069665031
0.016857287
0.028504391
0.45070959
0.4519645
0.028571015
0.016897121
0.0069826945
0.00125621
0.0012574998
0.0070007066
0.016941744
0.028644318
0.45324461
0.45454311
0.028711504
0.016981906
0.0070170318
0.0012586634
0.0012599549
0.0070351463
0.01702686
0.028785545
0.45587139
0.45720745
0.028851367
0.017066405
0.0070513041
0.0012611093
0.001262403
0.007069543
0.017111851
0.02892654
0.45855964
0.45991684
0.028991289
0.017150667
0.0070853958
0.0012635381
0.001264814
0.0071032488
0.017195269
0.029065235
0.46128286
0.46265161
0.029128507
0.017233139
0.0071186926
0.0012659265
0.0012671706
0.0071361787
0.017276949
0.029201296
0.46402326
0.46538454
0.029262203
0.017313226
0.0071509226
0.0012682246
0.0012693966
0.0071674248
0.01735468
0.029331188
0.46673205
0.46804867
0.029388384
0.017388564
0.0071810784
0.0012703648
0.0012714163
0.007196401
0.01742701
0.029451887
0.46932554
0.47052227
0.029505597
0.017458273
0.0072087238
0.0012722095
0.0012729485
0.0072190537
0.017483458
0.029546816
0.47162818
0.47264201
0.029589083
0.017506639
0.0072277726
0.0012735331
0.42160072
0.032752935
0.019199664
0.0078552302
0.0013328043
0.0013322091
0.0078462921
0.019176118
0.032710118
0.42069746
0.41975771
0.032663247
0.019148394
0.0078350743
0.0013314115
0.0013305339
0.0078217079
0.019113628
0.03260263
0.41868904
0.41756931
0.032537631
0.019075131
0.0078062949
0.0013294268
0.0013283528
0.0077910516
0.019036196
0.032470705
0.41646209
0.41531102
0.032400552
0.018994401
0.0077741458
0.0013271151
0.0013259394
0.0077575998
0.018952578
0.032329254
0.41416141
0.41298402
0.032255538
0.018908497
0.0077397019
0.0013246269
0.0013233901
0.0077223285
0.018864794
0.032181395
0.41182364
0.41064597
0.032106575
0.018819859
0.0077040086
0.001322045
0.0013207824
0.0076861857
0.018775062
0.032030655
0.40948685
0.40831023
0.031954338
0.018729162
0.0076674645
0.0013194153
0.0013181311
0.0076493485
0.018683662
0.031877307
0.40715723
0.40599314
0.031799575
0.018636947
0.0076303184
0.0013167417
0.001315441
0.0076120524
0.018591117
0.0317221
0.40485913
0.40372305
0.0316435
0.01854391
0.0075928458
0.0013140351
0.001312734
0.0075747722
0.0184987
0.031567325
0.40262846
0.4015421
0.031490477
0.018452501
0.0075559497
0.0013113419
0.0013100598
0.0075383614
0.018408524
0.031416424
0.40049915
0.39946192
0.031341794
0.018363671
0.0075200939
0.0013086902
0.0013074305
0.0075031114
0.018321156
0.031270168
0.39846782
0.39747685
0.031198302
0.018277945
0.0074855158
0.0013060814
0.0013048463
0.0074694216
0.018237695
0.031130691
0.39652455
0.3955589
0.031066944
0.018198763
0.0074533732
0.001303544
0.0013023782
0.0074394301
0.018164517
0.031010997
0.39459001
0.39348964
0.030968107
0.018135803
0.0074268272
0.0013011766
0.0013001701
0.0074182405
0.018117967
0.030946538
0.39216117
0.3903307
0.030935504
0.018102643
0.00740904
0.0012987688
0.0012960356
0.0073866901
0.018055124
0.03087321
0.38747891
0.38307347
0.030618634
0.017894189
0.0073163428
0.0012875309
0.0012693435
0.007120461
0.017406589
0.029812333
0.3752039
0.37027869
0.028935944
0.016948679
0.0069472545
0.0012324315
0.0012366849
0.0069280399
0.01692615
0.028927806
0.36963255
0.37559938
0.02984822
0.017431591
0.0071293547
0.0012693937
0.0012872206
0.0073135223
0.017885721
0.030602889
0.38306182
0.38746429
0.030860208
0.018046826
0.007383092
0.0012955769
0.0012985588
0.0074075682
0.018098649
0.030928317
0.39029602
0.39209592
0.030939117
0.018113039
0.0074161541
0.0012999268
0.0013010777
0.0074260638
0.018133484
0.030963606
0.39342926
0.39451618
0.031003822
0.018159883
0.0074375488
0.0013021885
0.0013034733
0.0074526633
0.018196498
0.031062363
0.39550178
0.39645008
0.031124921
0.018233803
0.0074677773
0.0013046803
0.0013060121
0.0074847706
0.018275782
0.031194222
0.39740893
0.3983756
0.031262832
0.018316368
0.0075011241
0.0013072504
0.0013086116
0.0075190735
0.018360758
0.031336384
0.39937489
0.40039786
0.031408048
0.018403199
0.007536206
0.0013098777
0.0013112725
0.0075549654
0.018449656
0.031485115
0.40144947
0.40252376
0.031559385
0.018493634
0.007572721
0.0013125653
0.0013139824
0.0075919794
0.018541291
0.031638395
0.4036251
0.40474745
0.031715003
0.018586538
0.0076101943
0.0013152932
0.0013167136
0.0076295894
0.018634521
0.031794635
0.40589942
0.40706692
0.031871475
0.018679943
0.0076478957
0.0013180247
0.0013194443
0.0076674673
0.018728544
0.031952368
0.40825579
0.40945233
0.032029278
0.018773736
0.0076855811
0.0013207279
0.0013220949
0.0077044291
0.018820471
0.032107034
0.41064887
0.41184001
0.032180875
0.018863818
0.0077218093
0.0013233257
0.0013246413
0.0077399625
0.01890889
0.032255968
0.41302831
0.41420142
0.032325927
0.018949993
0.0077564794
0.0013258111
0.0013270787
0.0077739741
0.018993553
0.03239864
0.41536583
0.41651494
0.032465052
0.019032506
0.0077896197
0.0013281917
0.0013294115
0.0078063876
0.019074447
0.03253526
0.4176547
0.41877949
0.032599521
0.019111929
0.0078213029
0.0013304613
0.0013315823
0.0078373336
0.019152063
0.032666391
0.4198825
0.42091648
0.032731943
0.019188746
0.0078510487
0.0013324774
0.0013330173
0.0078589834
0.019209208
0.032768597
0.42184081
6.8968814
6.9169947
6.8968659
6.9169449
6.9579325
6.9256368
6.8920599
6.9213261
6.9493464
6.9256824
6.9941451
7.0104563
6.9493479
6.9781141
7.0339081
7.0275382
7.014551
7.0309851
7.054381
7.0198592
7.0393339
7.0205827
6.9773242
6.8611143
7.0023585
6.9691672
6.993279
7.0441632
7.0512446
7.0637
7.0421524
7.0919765
7.0762348
7.0567462
7.0881872
7.0179346
7.0606451
7.0481776
7.0290148
7.0051713
7.0259651
6.9184423
6.8319091
6.7669571
6.9789658
6.9479944
6.9198552
6.9507709
6.7461717
6.8028699
6.7018832
6.6397535
6.5890245
6.6294921
6.8526874
6.8854302
6.885518
6.9142882
6.8652994
6.8375753
6.8851368
6.9166741
0.37162918
0.028393225
0.016644459
0.0068265748
0.0012303744
0.0012579099
0.007030221
0.01714765
0.029291128
0.37684975
0.38239234
0.029919048
0.01751349
0.007177795
0.0012758695
0.0012844912
0.0072491003
0.017683242
0.030192928
0.38647455
0.3892059
0.030261309
0.01773512
0.0072739974
0.0012875504
0.0012890218
0.0072848797
0.017755349
0.030280127
0.39097712
0.39230691
0.030297712
0.017771624
0.0072934401
0.0012900068
0.0012912327
0.0073072485
0.017804118
0.030346832
0.39341116
0.39442783
0.030399406
0.017836641
0.0073208903
0.0012923643
0.0012936915
0.0073379914
0.017879066
0.030469045
0.3954117
0.39639696
0.030532646
0.017917113
0.0073535415
0.0012948851
0.0012962441
0.0073717904
0.017962767
0.030608669
0.39739716
0.3984102
0.030674922
0.018002387
0.0073879948
0.0012974559
0.0012988379
0.0074068983
0.018049698
0.030753854
0.39945052
0.40051465
0.03082215
0.018090575
0.0074236379
0.0013000721
0.0013014819
0.0074431646
0.01813948
0.030903763
0.40159949
0.4027066
0.030974375
0.018181577
0.0074603384
0.0013027321
0.0013041435
0.007479929
0.018230548
0.031056048
0.4038327
0.40497365
0.031126879
0.018272876
0.0074972423
0.0013054014
0.0013068261
0.0075171591
0.018322773
0.031210234
0.406136
0.40730949
0.031282177
0.018365474
0.0075345202
0.0013080763
0.0013094723
0.0075540119
0.018414245
0.031363533
0.40848723
0.40967353
0.031434431
0.018456131
0.0075709974
0.0013106922
0.0013120468
0.0075898836
0.018503391
0.031513284
0.41085291
0.41202448
0.031580976
0.018543391
0.007606139
0.0013132184
0.0013145303
0.0076244148
0.018589215
0.0316576
0.41319832
0.41436334
0.031721411
0.018627021
0.0076398265
0.0013156458
0.0013169079
0.0076574739
0.018671471
0.03179598
0.41552159
0.4166682
0.031857334
0.018707467
0.007672016
0.0013179501
0.0013191136
0.0076883298
0.018748521
0.03192587
0.41779825
0.418901
0.031985785
0.018783194
0.0077019604
0.001320048
0.0013209637
0.0077152017
0.018816557
0.032041887
0.41996673
0.42097262
0.032092816
0.018844142
0.007725406
0.0013216021
0.0013206454
0.0077117249
0.018808414
0.032030276
0.41981248
0.41888746
0.0319879
0.018784395
0.0077022448
0.001320011
0.0013191009
0.0076885248
0.018749191
0.03192715
0.41783582
0.41671968
0.031861066
0.018709746
0.0076725993
0.0013179779
0.0013169164
0.0076575816
0.018671763
0.031796541
0.41561318
0.41447373
0.031728582
0.018631066
0.0076410649
0.0013157098
0.0013145818
0.0076251443
0.018590943
0.031660365
0.41334808
0.41217822
0.031587667
0.018547457
0.0076075278
0.0013133038
0.0013121118
0.0075907177
0.018505161
0.031515916
0.41100508
0.40982711
0.031442096
0.018460889
0.007572735
0.0013108008
0.0013095761
0.0075554992
0.018417543
0.031368564
0.40864769
0.40745018
0.031291432
0.018371253
0.0075366996
0.0013082171
0.0013069477
0.0075187285
0.018326287
0.031215613
0.4062719
0.40509278
0.031137593
0.01827934
0.0074996269
0.0013055644
0.0013042837
0.0074816493
0.018234396
0.031061918
0.40394979
0.40281016
0.030985797
0.018188406
0.0074628602
0.0013029097
0.0013016444
0.0074452237
0.018144328
0.030911559
0.40173356
0.40062999
0.030834044
0.018097768
0.0074263251
0.0013002651
0.0012989997
0.0074088304
0.018054072
0.030760552
0.39955507
0.39849864
0.030685216
0.018008723
0.0073903869
0.0012976355
0.0012963848
0.0073733394
0.017966117
0.030613578
0.39747759
0.39648511
0.030542751
0.017923231
0.007355802
0.0012950537
0.0012938353
0.0073396313
0.017882802
0.030474866
0.39550927
0.39451446
0.030407757
0.017841887
0.0073228638
0.0012925226
0.0012913681
0.0073086737
0.01780738
0.030352032
0.3935112
0.39240618
0.030308185
0.017777807
0.0072956637
0.0012901842
0.001289191
0.0072866188
0.017759549
0.030287041
0.39109567
0.38930912
0.03027373
0.017742284
0.0072765493
0.0012877881
0.0012847662
0.0072515397
0.01768995
0.030205262
0.38655038
0.38225731
0.029939424
0.017522885
0.0071803255
0.0012762951
0.0012583573
0.0070330685
0.017160418
0.029322445
0.37632918
0.36976277
0.02838658
0.016620328
0.0068124292
0.001230243
0.0011880719
0.0064075667
0.015621963
0.026720926
0.35694917
0.37067307
0.030119993
0.017556988
0.0071312244
0.0012516434
0.0012368889
0.0069690236
0.016992569
0.029003085
0.37177935
0.37500053
0.029764824
0.017379141
0.0071102517
0.0012708252
0.0012878002
0.0073086972
0.017873835
0.030581561
0.38276135
0.3870207
0.030826413
0.018026428
0.0073751612
0.001295887
0.0012987073
0.0074018311
0.018084821
0.030906214
0.3899283
0.39178056
0.030915795
0.018098681
0.0074103807
0.001299958
0.0013010856
0.0074217972
0.018123405
0.030947828
0.39316356
0.39428646
0.030988447
0.018150089
0.0074334824
0.0013021463
0.0013034157
0.0074492111
0.018188346
0.031049615
0.39529173
0.39625626
0.031111715
0.018225442
0.007464349
0.0013045952
0.0013059319
0.0074819413
0.018269104
0.031183846
0.39723681
0.39823472
0.03125055
0.018308838
0.0074981509
0.0013071524
0.0013085443
0.0075170583
0.018356103
0.031329283
0.39924728
0.40027925
0.031398903
0.018397542
0.0075339391
0.0013097898
0.0013112007
0.0075532679
0.018445777
0.031479268
0.40133989
0.40243289
0.031550916
0.018488423
0.0075706642
0.0013124725
0.0013139136
0.0075906035
0.018538282
0.031634113
0.40354176
0.40467015
0.031706963
0.018581649
0.0076082966
0.0013151995
0.0013166507
0.0076284819
0.018632137
0.031791291
0.40582326
0.40699329
0.031864858
0.018675866
0.0076462965
0.0013179376
0.0013193841
0.0076665201
0.018726597
0.031949807
0.40817904
0.4093666
0.032022967
0.018769907
0.0076840961
0.0013206474
0.0013220522
0.0077036981
0.018819059
0.032105352
0.41055901
0.41174615
0.032175883
0.018860765
0.0077206349
0.0013232716
0.0013246356
0.0077396328
0.018908436
0.032255722
0.41292576
0.41410608
0.032324258
0.018948681
0.0077558994
0.0013258037
0.0013270978
0.0077739006
0.018993908
0.03240011
0.41528584
0.41644854
0.032463351
0.019031125
0.0077889859
0.0013281853
0.0013294094
0.0078060605
0.019074192
0.03253573
0.41758621
0.41869032
0.032595845
0.019109325
0.0078201474
0.0013304097
0.0013315242
0.0078357972
0.019148326
0.032660126
0.41974044
0.420701
0.032728386
0.019187107
0.0078505975
0.0013324463
0.0013329802
0.0078611186
0.01920694
0.032757828
0.42155746
0.0013205747
0.0077103632
0.018805157
0.032024932
0.41975838
0.41884666
0.031981805
0.01878049
0.007700608
0.0013199146
0.0013189889
0.0076868882
0.018745151
0.031920653
0.41780522
0.41671191
0.031858084
0.018707868
0.0076718476
0.0013178982
0.0013168853
0.0076575258
0.018671652
0.031796355
0.41563213
0.41450934
0.031730379
0.01863218
0.007641516
0.0013157223
0.0013146391
0.0076261458
0.018593467
0.031664562
0.41338352
0.41220757
0.031591835
0.018550164
0.0076086825
0.0013133857
0.0013122202
0.0075920703
0.018508602
0.03152167
0.41102801
0.40982195
0.031443423
0.018461733
0.0075730797
0.0013108768
0.001309615
0.0075553163
0.018417291
0.031368632
0.4086204
0.40741749
0.031288039
0.018369157
0.007535882
0.0013082045
0.0013069226
0.0075182038
0.018325009
0.031213745
0.40624102
0.40506377
0.031136371
0.018278508
0.0074992637
0.0013055433
0.0013042708
0.0074814474
0.018234053
0.031061602
0.40393949
0.40281402
0.030985228
0.018188016
0.0074626812
0.0013029009
0.001301637
0.0074450182
0.01814386
0.030910822
0.40171091
0.40060055
0.030831822
0.018096562
0.0074258877
0.0013002487
0.001298977
0.0074082716
0.018052631
0.030758099
0.39951036
0.39844787
0.030681072
0.018006393
0.0073895195
0.0012975983
0.001296346
0.0073724818
0.017963998
0.030610122
0.3974245
0.39642518
0.030537619
0.017920296
0.0073546783
0.0012950057
0.0012937901
0.0073385324
0.017880121
0.030470515
0.39544224
0.39445395
0.030402928
0.017838999
0.0073216989
0.001292481
0.0012913365
0.0073075644
0.017804727
0.030347783
0.39344352
0.39234968
0.030304168
0.017775328
0.0072946247
0.0012901679
0.0012891881
0.0072855932
0.017757073
0.030283006
0.3910262
0.38924254
0.030268512
0.017739183
0.0072752936
0.0012877883
0.0012847818
0.0072504512
0.017687217
0.03020063
0.38649981
0.38225555
0.029937593
0.017521923
0.0071799778
0.0012763592
0.0012585313
0.0070342534
0.017163214
0.029326902
0.37644762
0.37004301
0.028404528
0.016630429
0.0068165009
0.0012307258
0.0011896847
0.0064416319
0.015705709
0.026854226
0.3582132
0.39670754
0.024206726
0.014160079
0.0058251407
0.0011555772
0.0012252494
0.0067834471
0.016571666
0.028269377
0.3648969
0.3694238
0.028369025
0.016638555
0.0068121943
0.0012227759
0.0012292365
0.0068225466
0.016635526
0.028381521
0.37143653
0.3768622
0.02929251
0.017148602
0.0070310105
0.0012575613
0.0012757387
0.0071792504
0.017517964
0.029926955
0.38244338
0.38658064