/*--------------------------------*- C++ -*----------------------------------*\
  =========                 |
  \\      /  F ield         | OpenFOAM: The Open Source CFD Toolbox
   \\    /   O peration     | Website:  https://openfoam.org
    \\  /    A nd           | Version:  7
     \\/     M anipulation  |
\*---------------------------------------------------------------------------*/
FoamFile
{
    version     2.0;
    format      ascii;
    class       surfaceScalarField;
    location    "180";
    object      phi;
}
// * * * * * * * * * * * * * * * * * * * * * * * * * * * * * * * * * * * * * //

dimensions      [1 0 -1 0 0 0 0];

internalField   nonuniform List<scalar> 
76009
(
0.0019677903
1.4788166
-1.4800497
-2.0324424
2.0331638
-36.228716
2.0782849
-2.0795204
-2.0789236
2.0769822
-34.810623
-3.4202587e-06
0.0019026623
2.0331828
1.4788594
-1.4800214
-2.0324204
-36.22866
2.0770722
2.0783243
-2.0794696
-2.0788207
4.6788497e-05
-34.810464
-0.0028842209
-9.3254331
-0.0028457579
-0.38312911
0.37475206
0.36799353
-0.39127413
0.36799624
0.37476531
-0.38312832
-0.39128025
-0.012632174
-7.6964232
0.066433969
-7.4069643
0.012670574
-0.01247443
-0.012460292
-10.342101
0.0058387172
-0.054670588
-9.6924862
-0.0058240888
0.38350474
0.3788118
-0.37525741
-0.38005111
0.38350152
-0.38005584
-0.37526449
0.37880414
-9.3277637
7.6964447
-0.054674642
-9.6924969
0.066463554
0.37062563
-0.37685756
0.52394061
-0.53756492
-8.2569215
-0.0018163269
-0.0001840328
-0.57874278
-0.020099394
0.023889877
-0.024991302
0.032513584
-0.0003787721
-0.56508077
0.032710625
-0.02523168
-0.025361784
0.032588356
-0.011150061
-0.0079238677
-2.4812084
0.098729286
0.13262763
-0.12927424
-0.096217894
0.0034545212
-2.6370714
0.094956159
-0.092245588
-0.12672837
0.12818394
-0.13063612
-2.3430925
0.0024013655
-0.47570859
0.0019440335
-0.0015074315
-0.001320508
0.00057691122
-0.57561181
-0.0319489
-0.023531099
0.023745394
0.032298689
-0.52713041
0.0015519631
-0.0006141043
0.00037094017
-0.6545302
-0.0016312859
-0.00049749258
-0.66428869
0.48073367
-0.62379689
0.0096606641
0.0061766938
0.0046074974
-0.13143552
-0.51113189
-0.023289482
0.023542383
0.032665666
-0.03279648
-0.0018514197
-0.13258346
-0.10192688
0.097912403
-0.10192682
-0.13258053
-2.381033
0.0019781917
0.13641742
0.13352671
-0.13114652
-0.1338356
-2.5354504
0.13595618
-0.13348438
-0.12917239
0.13142911
-2.4763012
5.7902834e-06
-2.0507207e-05
0.001451934
-0.53367427
-0.00069109077
-0.00074746167
0.0015074685
-0.53506067
0.0014877902
-0.53178317
0.00015212764
-0.54567572
-9.1056153e-05
0.032255665
0.03230901
-0.031990499
-0.031993116
8.0325225e-05
-0.54646556
0.032350012
-0.031975335
-0.032004287
0.032301684
-0.54759417
-0.032145156
0.03251308
0.032342865
-0.031980717
0.0029355242
-0.00036727887
0.00017803781
0.032713955
0.032593464
-0.025354528
-0.02522639
-0.56506696
-0.00060724244
-0.65901599
-0.003074812
-0.00017041007
-0.66625829
-0.00018500974
0.032599737
0.032552091
-0.025440891
-0.025361277
-0.5640723
0.0031547665
-4.6198843e-05
-0.025435776
0.032557726
0.032511056
-0.02543838
-0.56316392
0.00054427267
-0.66471856
0.52531945
-0.003183185
-0.6507666
2.214893e-06
0.0014059279
1.3493311e-06
-0.54384491
1.9326248e-06
-0.031970675
0.032245903
0.032217206
-0.031961016
-0.56123583
2.8301592e-06
-0.025415164
0.032500709
0.032475069
-0.025401906
0.0047711878
5.6606394e-05
-0.57254136
3.0455079e-06
0.0064746911
-0.12864762
0.00067015569
-0.5180206
2.6506799e-06
-0.50008047
0.0024844969
-2.0270841
-0.10840825
0.13305755
-0.10492671
8.6511919e-06
0.0018020382
-7.7911065
0.51959148
-0.54584126
-0.52582811
1.7341441e-05
-8.2568719
-0.37683979
0.37064279
0.52396127
-0.5375354
0.012501679
0.54786792
0.38624002
-0.37549227
-0.52871705
-10.433412
0.55329928
2.3749731e-05
-0.53172222
-0.51382231
0.53654159
-9.9017456
-0.0068973801
0.020355962
2.6816658
-2.1402907
-0.0015344806
-0.013400254
2.6567079
-2.1177833
0.015446116
2.6260972
0.0065003954
-1.8762531
1.8142746
0.021723595
0.030130062
0.042656713
0.035804353
-2.1039053
-0.085025254
-0.0030589581
0.12974094
0.096548834
-0.10475369
0.040332461
-0.0033416128
0.63395282
0.021543898
-2.3270055
-0.0074932799
0.61582088
0.53954327
0.62218428
0.077637097
-0.098092769
-0.13421926
0.096461019
0.084362011
0.47531638
-0.0045366348
-0.0062141938
-2.0378696
0.094751438
0.12572916
-0.11885106
0.081307521
-2.1869841
-0.19048567
-1.9495367
0.0027848399
0.14507994
-0.0049507972
0.0011110727
-0.14275747
-2.1781969
-0.006574007
-2.6301732
0.0051870573
-0.0023868907
-2.6558745
2.3145102
0.095948096
0.13061179
-0.12956029
-0.095131465
0.00049552034
-2.3105757
0.0015428147
0.13182076
0.096407893
-0.094781576
-0.12925428
2.2166285
-2.2006717
2.6542649e-05
-0.12991705
0.13279452
0.13216476
-0.12912681
0.62866801
-0.06441777
-0.0018507012
0.63344034
0.54557874
0.54234557
0.098743135
-0.13606184
-0.13524461
0.097934348
0.10545303
-0.0018853136
0.52333648
0.0054834771
-0.0037196643
-2.0662557
-0.10885895
0.13346263
0.1306717
0.0018094692
0.061818759
8.6102914e-06
-2.6129301
0.63255257
0.54167658
0.5393423
0.61787374
1.1316858e-05
0.097938772
-0.13493926
-0.13476538
0.097635917
-2.1973585
0.0010984682
-0.0040726297
0.52638248
0.00073599461
0.52778846
-0.0039939062
-0.00028069969
-0.0046029327
-0.00012357501
-0.00084752795
-0.0044409766
-0.0023558422
-0.52000362
-0.0032773261
-2.7875089e-05
-0.51585275
0.0098464227
0.0079107203
-0.0031058828
-0.020313689
0.0033037533
0.57486961
-0.03791716
-0.0038188132
0.57873149
0.0033194783
-0.00061225994
0.02389278
-0.020095753
-0.024986609
0.032516676
-0.023742311
-0.11766069
0.00055608619
0.16442317
0.0003165247
-0.020347227
0.032726428
-0.029857836
-0.010874387
-0.63292794
-0.15572431
-0.0011233933
-0.0012559711
0.15377361
0.15586215
0.13481291
-0.007009399
-0.022813009
0.018929679
0.023148502
-0.028248387
-0.0031292692
-0.57773162
0.12948534
-0.00068196954
-0.0011397615
0.16276532
-0.00025708978
4.9871402e-05
0.00014768008
0.13082456
-0.00014494198
-1.0881162e-05
0.11838591
-0.00063563699
0.00017593938
0.00037791416
-0.00015110722
7.0749245e-05
0.00014877849
-0.14570034
-0.00023312701
-9.1192124e-05
-0.1314803
3.033868e-05
-4.8703819e-05
-0.16410988
-0.00075383737
-0.14544981
-0.00039709861
-4.7078558e-05
-0.00033839367
-0.14392245
-0.0012958697
-0.00015018365
-0.13069337
-0.00071195072
-0.00065691981
-0.0052881012
-0.0094552506
-0.00099318388
0.00014039549
0.14498877
0.00026372994
-0.15428543
-0.00056271524
0.028534646
0.13143222
-2.6390103e-05
-0.16508819
0.49541603
0.03299518
0.03219852
-0.032393006
-0.035245339
-0.577238
0.032562412
-0.0324624
0.031879779
-0.032337423
0.031315373
-0.13151783
-0.00017579836
-0.00015786361
-7.065188e-05
-0.00058741155
-0.164076
0.14545408
-0.00048544079
-0.14535884
-7.7552038e-05
-0.0002760421
-0.00012487225
0.00019642303
-0.14482105
-0.00027503348
-0.00014963646
-0.13002582
-0.00013859692
-0.00011423705
-0.16219075
-0.00064566702
-0.14494757
-0.00036682298
-0.0001063387
0.0012042914
-0.00016987135
-0.14556852
-0.0003541007
-5.9371535e-05
-0.0003666185
-9.5030363e-05
-0.00072716939
-0.1305865
-0.00030276405
0.00010233581
-0.00075551617
-0.16235272
-0.000343786
-0.14477361
-8.5060434e-05
2.4046025e-06
-0.14379922
0.14395332
-6.3249275e-05
-0.00043703843
0.032671952
-0.16282618
-0.0004185727
0.12981969
0.035249249
-0.59587667
-0.03267345
0.032519983
0.52696667
0.024203745
-0.024844874
-0.02484334
0.024204791
0.032520504
0.010881379
-0.57724144
0.032197391
0.032995472
-0.028535945
-0.032395235
-0.63293446
-0.020348082
0.023743068
0.032725882
-0.029859909
-0.00020207116
-0.56408878
0.032594691
-0.025368983
-0.025451572
0.032544014
-6.7645691e-05
-0.56318164
0.03254987
-0.025446853
-0.02545329
0.032499009
-0.56125403
0.032489157
-0.025430289
-0.025421285
0.032458655
-2.0443412e-05
7.7834386e-05
0.0064233962
-1.8804515e-05
0.0048130639
-0.57254952
0.00029436891
0.0065661465
0.0047642501
-0.57472857
0.00075590105
0.0046267761
-0.57606027
0.0068831815
0.00062162919
0.0044577426
-0.57672808
0.0073238344
-0.0098409022
0.0032887502
-0.57487696
0.0033079605
-0.1257264
3.5014377e-05
-0.51585766
0.0079029209
-0.035787663
-2.0378778
-0.084365174
0.094752522
-0.11885728
0.081294679
-1.8142852
0.042656072
0.030120243
0.021713922
-2.6261052
-0.021563744
-2.1869874
-0.19048668
0.63395936
-0.040309085
-2.3270101
-0.0075327875
0.62219042
0.5395446
0.61582479
0.077634891
-0.098094105
-0.13422594
0.096454223
0.085033406
-0.0062190198
0.47532182
-0.0045420139
-2.1039263
-0.0030766784
-0.10476586
0.12973249
0.096542332
-2.6567206
-0.0033657761
-0.013388543
-0.54784927
0.015431086
-2.1177865
0.0068726238
-0.38623091
-1.8762559
0.0064945576
-0.37550007
-0.52873284
0.012469333
-10.433433
0.0049477369
-0.0065847273
-2.6301748
1.9495375
0.0010951028
-2.1781966
-0.14275273
0.002765589
0.14508317
-2.3145089
0.0015103884
0.09640795
-0.094781036
-0.12925776
0.13181595
-0.0051778516
-2.3105726
0.00047082784
0.095948989
-0.095130263
-0.12956196
0.13060901
-0.0024071455
-2.6558748
0.53174023
-2.6831013
0.0024525911
2.140292
0.0062093347
7.7911772
-9.901763
-0.51385669
0.53649306
0.55327556
-4.0166349e-05
0.51955794
-0.54588229
0.50001452
-0.52589936
-5.9437101e-05
-2.0662811
-0.1054678
0.13066177
0.13344426
-0.1088822
-0.0025153989
0.064371346
-2.6816792
0.0017786208
0.62867863
0.63344819
0.54234404
0.54558273
-2.2166288
-0.0019086909
-0.13606765
0.098735135
0.097915802
-0.13526086
0.0054931635
0.52334543
-0.0018947936
-0.0037329718
0.52001142
-0.0033127269
-0.0023526245
0.00084049744
0.0002718751
-0.5277988
-0.00013815102
-0.0040129383
-0.0011146558
0.00094055716
-0.00088421184
-0.037785515
0.0038301876
-0.037767944
0.0031127426
-0.037927633
-0.020319416
0.11757444
0.50187814
0.0071892548
0.0086663082
-0.65562756
-2.2130194
-0.11757026
0.12601626
0.091408973
-0.10255475
0.091406238
0.12601584
-0.10255933
0.10984952
0.096414614
0.10984443
-0.096308738
-0.098040279
0.096419765
-0.098035331
-0.096302985
-2.6178327
0.65562511
0.0029982803
-0.47150814
0.00037136035
0.50187497
0.0086683074
0.0071978758
-0.004135388
-0.51560665
-0.020977044
0.027459256
-0.030641573
0.031581315
0.01822028
-0.0050877466
-0.050164689
-0.55424066
0.15890663
0.15614088
0.13521416
0.15527069
-0.01194396
-0.002190773
0.023138499
0.018810349
-0.024701261
-0.033588958
-0.58014401
0.11864345
-0.0013340196
-0.0021928573
-0.00015496821
9.9170246e-05
-0.13046924
-0.00018754171
-0.00063511373
-0.0022588736
-0.0016518941
0.0012367398
0.14323499
-0.001369453
-0.01014699
0.12968989
-0.0060168963
7.0144351e-06
-0.00098935367
-0.0013721284
-0.00034701224
-4.4514935e-05
-0.1437314
-0.0011973605
-0.00019807701
-0.032524805
-0.13051002
-0.00082523087
-0.018220191
0.032522913
-0.029857276
-0.025305425
0.024178679
-0.56252226
-0.02985475
-0.025303405
0.024180518
0.0041397618
-0.020979425
0.027457849
0.031579144
-0.030644314
-0.51560841
0.0070022037
0.1557276
0.15586448
0.13481437
0.15377684
-0.0031431208
-0.5777368
-0.022814917
0.018927934
-0.028251901
0.023145668
0.11766318
-0.0012583815
-0.0011246736
0.00031361817
0.00055535891
-0.00016775956
0.0012077601
-0.14557086
-0.0003568666
-6.2892894e-05
0.00072953317
-0.13058803
-0.00030495183
0.00071528717
0.00036495002
-0.13143417
-0.13069584
0.0003371511
-0.0006586687
-0.0052909731
0.00068529412
0.14392571
-0.0094592046
-0.00099609567
0.12948861
-0.0011424521
-0.00026096476
4.8171905e-05
-0.0012996733
-0.00015233647
-0.14499157
-9.7824177e-05
0.00014273241
0.00026080085
-0.00056660298
-0.15428771
-2.8251156e-05
-0.1650901
9.9602396e-05
-0.00075703896
-0.16235408
-0.00034597163
-8.9180954e-05
-0.1447753
5.3857438e-06
0.14395507
-0.00043802023
-6.7977246e-05
-0.14380043
0.12982073
-0.00041879951
-0.16282703
0.16232643
-4.4713531e-05
-0.00024595614
0.032546879
0.12954937
-0.00023577268
-0.00018267164
0.032245421
0.024099207
-0.024675073
-0.032547126
0.032243445
-0.024674662
0.024098611
-0.0018253567
2.077087
-2.0788131
-2.0794294
2.0783803
-34.810386
1.4789226
2.0332381
-2.0323791
-1.4799773
-36.228467
-0.53061392
-10.423196
-0.36966272
0.37464706
0.058563373
0.0019695496
0.13642297
-0.13382958
-0.13113811
0.13353382
-0.003445231
-2.5354445
0.13143007
0.13596043
-0.13347956
-0.1291716
-2.4762995
0.00069303211
-0.52531911
0.0014081414
-0.0015163384
-0.00015398634
-0.54646319
8.0935274e-05
0.032353054
0.032304527
-0.032001252
-0.031971859
1.8816877e-05
-0.53505845
-0.00074645934
-0.53367285
0.0014580276
0.00054082501
-0.0031492976
0.00017389373
-0.66471783
-0.0031812277
-0.65076644
0.54384455
5.1338299e-05
-0.56123587
0.032475142
0.032502065
-0.025413859
-0.025401763
9.4284367e-05
-0.031960834
0.032217436
0.032247311
-0.031969214
-0.54567442
0.032257462
-0.03199132
-0.031987796
0.032311519
0.00018890047
-0.5631638
0.032512516
0.032560138
-0.025433308
-0.02543683
0.003066623
0.00036981701
-0.5640719
0.032602779
0.032554607
-0.025438206
-0.025358008
0.00060961275
-0.66625712
0.53178005
-0.0029255059
-0.00036875602
-0.65901429
0.0014984039
-0.0015510585
-0.54759076
0.032516336
0.032346192
-0.03197694
-0.032141252
-0.00057695703
0.00017953185
-0.56506614
0.03271731
0.032596597
-0.025351097
-0.025222644
0.0016199257
0.032520166
0.57560773
-0.02498273
-0.020091718
0.02389677
-0.57873039
-0.0096602282
0.1292653
0.52712701
-0.65452838
-0.00061276836
-2.6370642
0.13263551
-0.096206757
0.098739855
0.011156522
5.9728417e-05
-0.0022071704
1.4831514e-05
-3.6969813e-05
0.00012069014
-0.0026445647
1.898842e-05
-4.1117062e-05
0.00018805865
-0.0030062985
2.2151291e-05
-4.4920451e-05
0.00026674495
-0.0033758005
2.4893659e-05
-4.9068822e-05
-0.055200419
0.00050484301
-0.00047339161
-0.00017215463
-0.00023571278
-0.055263737
0.00031766409
-0.00020651116
0.00018787959
-0.00016628235
-0.0034407948
1.9339858e-05
-2.3775559e-05
-0.00010304494
-0.0030653471
1.7956285e-05
-2.2144655e-05
-4.6659691e-05
-0.002697072
1.670988e-05
-2.0586942e-05
-0.0022505364
1.5385765e-05
-1.8679433e-05
1.980811e-05
-0.0022678284
3.5162582e-06
-6.0317101e-06
4.0834624e-05
-0.0027156698
4.287726e-06
-6.7150852e-06
6.4095043e-05
-0.0030861198
4.7284332e-06
-7.2153608e-06
9.0444758e-05
-0.0034645375
5.1214806e-06
-7.7278843e-06
-0.055534941
0.00011612544
-6.8300199e-05
0.00031382589
-3.5706997e-05
-0.055876005
7.6676984e-05
-2.6163103e-05
0.00032625817
-2.5184169e-05
-0.0034753318
3.6762001e-06
-3.401009e-06
-1.5690534e-05
-0.0030958007
3.4361143e-06
-3.2449882e-06
-7.2250113e-06
-0.0027242611
3.2576906e-06
-3.1230468e-06
-0.002275165
3.1516868e-06
-3.0400582e-06
2.5876284e-06
-0.0022777179
1.7607268e-06
-1.7920554e-06
5.1977425e-06
-0.0027269522
1.9346643e-06
-1.8520207e-06
7.9907972e-06
-0.0030987665
2.0918963e-06
-1.9178374e-06
1.1062331e-05
-0.0034786822
2.274347e-06
-1.9950728e-06
-0.056165317
5.3266818e-05
-1.4463456e-05
0.00026157274
-5.0595781e-06
-0.056363604
4.2768003e-05
-1.2439034e-05
0.00017301896
-3.6882041e-06
-0.0034804076
2.0790486e-06
-1.7245166e-06
-2.3870217e-06
-0.0031003418
1.9301731e-06
-1.6557154e-06
-1.1600688e-06
-0.00272839
1.8046289e-06
-1.5928824e-06
-0.0022790473
1.7004573e-06
-1.531121e-06
8.5569386e-07
-0.0022799848
1.3930186e-06
-1.3138576e-06
1.648504e-06
-0.0027293071
1.5182924e-06
-1.3948013e-06
2.4450699e-06
-0.0031013062
1.6318316e-06
-1.4644496e-06
3.276244e-06
-0.0034814577
1.7551405e-06
-1.536188e-06
-0.056479739
3.3280557e-05
-1.1577834e-05
9.7708676e-05
-2.8060994e-06
-0.056540418
2.5869499e-05
-1.0353355e-05
4.7969298e-05
-2.1008957e-06
-0.0034823118
1.4846849e-06
-1.3341823e-06
-1.4224933e-06
-0.0031021035
1.3866571e-06
-1.2661777e-06
-7.4076379e-07
-0.0027300801
1.2948923e-06
-1.2000427e-06
-0.002280798
1.1953027e-06
-1.1229334e-06
6.714305e-07
-0.0022815174
9.7922588e-07
-9.2963153e-07
1.2465306e-06
-0.0027307206
1.0644867e-06
-9.9842739e-07
1.8060893e-06
-0.0031027449
1.1391182e-06
-1.0567685e-06
2.3816792e-06
-0.0034829874
1.2166737e-06
-1.1166341e-06
-0.056570117
2.0120613e-05
-8.8381634e-06
2.0798604e-05
-2.0732442e-06
-0.056584701
1.5920523e-05
-7.3704918e-06
8.1080798e-06
-1.5851925e-06
-0.0034835489
9.9408408e-07
-9.2052944e-07
-1.1093451e-06
-0.003103283
9.3212292e-07
-8.6973499e-07
-6.1146634e-07
-0.0027312696
8.7216186e-07
-8.2076287e-07
-0.0022821688
8.0329043e-07
-7.6334842e-07
5.6075601e-07
-0.0022827605
6.5777314e-07
-6.2665098e-07
9.9476843e-07
-0.0027317436
7.1401195e-07
-6.7382821e-07
1.3932622e-06
-0.0031037298
7.6280384e-07
-7.142682e-07
1.7954161e-06
-0.0034840076
8.1315579e-07
-7.5661152e-07
-0.056592529
1.2826473e-05
-6.1018482e-06
2.8980952e-06
-1.5845414e-06
-0.056597326
1.0488401e-05
-5.0596243e-06
9.5319403e-07
-1.2462436e-06
-0.0034843907
6.6929801e-07
-6.2430762e-07
-9.0676213e-07
-0.0031041083
6.2796164e-07
-5.8892958e-07
-5.2213941e-07
-0.0027321601
5.8787907e-07
-5.557498e-07
-0.0022833072
5.4199349e-07
-5.1741389e-07
4.9219503e-07
-0.0022838177
4.4747342e-07
-4.2872506e-07
8.3455805e-07
-0.0027325276
4.8492581e-07
-4.5965898e-07
1.1290963e-06
-0.0031044337
5.1786053e-07
-4.8676682e-07
1.4142942e-06
-0.0034847122
5.5214638e-07
-5.1590529e-07
-0.056600616
8.6249373e-06
-4.1871012e-06
2.6703236e-07
-1.2833892e-06
-0.056602991
7.0386323e-06
-3.4362256e-06
5.5950988e-08
-1.0375243e-06
-0.0034849864
4.5274847e-07
-4.2440552e-07
-7.8084118e-07
-0.0031047146
4.2477577e-07
-4.0055206e-07
-4.6948277e-07
-0.0027328581
3.9809906e-07
-3.7895278e-07
-0.0022843008
3.6813589e-07
-3.545523e-07
4.5394766e-07
-0.00228476
2.9315341e-07
-2.8812092e-07
7.4237235e-07
-0.0027331561
3.1557173e-07
-3.0613291e-07
9.7059079e-07
-0.0031049564
3.3602757e-07
-3.2259253e-07
1.1816085e-06
-0.0034852139
3.5755553e-07
-3.4109349e-07
-0.056604641
5.5132277e-06
-2.7356807e-06
5.3192805e-08
-1.1130904e-06
-0.05660563
3.8451368e-06
-1.9965633e-06
2.5344461e-07
-9.2322234e-07
-0.0034854011
2.5242142e-07
-2.5524485e-07
-7.156311e-07
-0.0031051602
2.3844643e-07
-2.4237225e-07
-4.4142809e-07
-0.0027334244
2.2557724e-07
-2.3177108e-07
-0.0022851929
2.1240257e-07
-2.2098771e-07
4.3650803e-07
-0.0022856023
1.2072923e-07
-1.4832383e-07
6.9660696e-07
-0.0027336561
1.2184194e-07
-1.5041242e-07
8.9266187e-07
-0.0031053277
1.2546885e-07
-1.5417231e-07
1.0642902e-06
-0.0034855429
1.3029618e-07
-1.6012587e-07
-0.056605998
1.9220208e-06
-1.164391e-06
6.7434731e-07
-1.0346198e-06
-0.056605568
-2.3811766e-07
-3.5231682e-07
1.195581e-06
-8.7269112e-07
-0.0034856226
-8.207831e-09
-7.4004004e-08
-6.870461e-07
-0.0031054362
-2.2719705e-09
-7.490222e-08
-4.315125e-07
-0.0027338386
5.0797199e-09
-7.8215594e-08
-0.0022859666
1.7913231e-08
-8.5135817e-08
4.3072454e-07
-0.0022863163
-8.0567517e-08
-6.3109433e-10
6.8439607e-07
-0.0027340014
-1.0769647e-07
1.6737258e-08
8.6252513e-07
-0.0031055164
-1.2570497e-07
2.7777649e-08
1.0209158e-06
-0.0034856749
-1.4208124e-07
3.5951934e-08
-0.056604511
-2.3052043e-06
5.5304971e-07
1.7160205e-06
-1.0094528e-06
-0.056602894
-3.5950446e-06
1.0135101e-06
1.9734824e-06
-8.5747813e-07
-0.0034856898
-2.2746096e-07
9.0354091e-08
-6.751538e-07
-0.0031055725
-2.0477928e-07
7.8483174e-08
-4.2792661e-07
-0.0027341327
-1.7981269e-07
6.364884e-08
-0.0022866419
-1.4362461e-07
4.127432e-08
4.2019809e-07
-0.0022869561
-1.3745522e-07
3.1262806e-08
6.6580273e-07
-0.0027342574
-1.7164827e-07
5.0691126e-08
8.3776004e-07
-0.0031056126
-1.952803e-07
6.3343976e-08
9.8314428e-07
-0.0034856916
-2.1669226e-07
7.3058593e-08
-0.056601022
-3.4108574e-06
8.1975051e-07
1.7021411e-06
-9.406945e-07
-0.056599313
-1.4761532e-06
-1.2700836e-07
8.3502113e-07
-8.0722997e-07
-0.0034857043
-9.5149096e-08
-2.5678802e-08
-6.4642504e-07
-0.0031056623
-8.4460153e-08
-2.6752242e-08
-4.1230653e-07
-0.0027343893
-7.2494494e-08
-2.9918115e-08
-0.0022872776
-5.4350759e-08
-3.6529564e-08
3.9573998e-07
-0.0022876222
1.0260611e-07
-1.5390246e-07
6.1877741e-07
-0.0027345549
1.1190863e-07
-1.693769e-07
7.6948088e-07
-0.0031057515
1.2083203e-07
-1.8243268e-07
8.8869455e-07
-0.0034857573
1.3000521e-07
-1.9614951e-07
-0.05659819
2.073133e-06
-1.7287173e-06
-5.7831042e-07
-8.5675402e-07
-0.056597842
6.4682757e-06
-3.6323039e-06
-2.3271662e-06
-7.4455807e-07
-0.0034858803
4.136481e-07
-4.0289742e-07
-6.0170201e-07
-0.003105903
3.8045835e-07
-3.7181711e-07
-3.8738735e-07
-0.0027347752
3.4532296e-07
-3.3948254e-07
-0.002288013
3.0029425e-07
-2.9689664e-07
3.6782519e-07
-0.0022884419
4.8822187e-07
-4.2719343e-07
5.6986449e-07
-0.0027350486
5.6442269e-07
-4.9307681e-07
7.008314e-07
-0.0031061151
6.2270804e-07
-5.4161294e-07
8.0021046e-07
-0.0034860704
6.7820075e-07
-5.8750246e-07
-0.05659836
1.0519777e-05
-5.3081333e-06
-3.8933153e-06
-7.7829787e-07
-0.056599458
1.2923336e-05
-6.1983853e-06
-4.8486387e-06
-6.8427092e-07
-0.0034863098
8.3083044e-07
-6.8548208e-07
-5.5800198e-07
-0.0031063716
7.6171149e-07
-6.314597e-07
-3.6012135e-07
-0.0027353616
6.8891657e-07
-5.7383057e-07
-0.0022888997
5.9385034e-07
-4.9623851e-07
3.5848638e-07
-0.0022893835
5.9316319e-07
-4.6770095e-07
5.6373023e-07
-0.0027357149
6.8971962e-07
-5.4150036e-07
6.9921829e-07
-0.003106674
7.6370176e-07
-5.9666265e-07
8.0192359e-07
-0.0034865979
8.3391001e-07
-6.4844241e-07
-0.056600791
1.3027941e-05
-5.9224227e-06
-4.9708867e-06
-8.8360717e-07
-0.05660172
1.0866761e-05
-4.7731926e-06
-4.2801696e-06
-7.5592485e-07
-0.0034868862
6.9012106e-07
-5.2936246e-07
-5.9482476e-07
-0.0031069775
6.3077954e-07
-4.8826545e-07
-3.6896031e-07
-0.0027360654
5.6973223e-07
-4.4487937e-07
-0.0022898575
4.9194003e-07
-3.8687707e-07
3.9365295e-07
-0.0022903245
3.0925203e-07
-2.3515333e-07
6.5093343e-07
-0.002736407
3.5395318e-07
-2.6929493e-07
8.4647001e-07
-0.0031072731
3.9468112e-07
-2.9438307e-07
1.0084158e-06
-0.0034871653
4.3547073e-07
-3.1835637e-07
-0.056601902
7.0564887e-06
-2.8324735e-06
-3.0335342e-06
-1.019165e-06
-0.056601173
2.4423193e-06
-7.5146097e-07
-1.4005262e-06
-8.577831e-07
-0.0034873689
1.3438958e-07
-9.215509e-08
-6.649779e-07
-0.0031074965
1.1743781e-07
-8.6898355e-08
-4.0207768e-07
-0.0027366884
9.9485187e-08
-8.1066834e-08
-0.0022907346
8.097967e-08
-7.2903438e-08
2.8516663e-07
-0.002290984
-9.2501811e-08
5.7229929e-08
4.6669694e-07
-0.0027368503
-9.1981461e-08
7.2612908e-08
5.9339022e-07
-0.0031076132
-9.3741484e-08
8.3890879e-08
6.8368462e-07
-0.0034874546
-9.8460524e-08
9.3841347e-08
-0.056600251
-1.3078852e-06
9.59065e-07
1.1047327e-07
-8.2169957e-07
-3.4884487e-06
2.0815324e-06
3.4243608e-07
-6.865297e-07
-2.4695892e-07
2.2280425e-07
-5.2979522e-07
-2.3098811e-07
2.0372062e-07
-3.2291386e-07
-2.1845981e-07
1.8189778e-07
-2.0503917e-07
1.4980828e-07
-1.7638018e-07
0.082682482
-1.9746271e-06
-1.4619418e-06
-1.8081546e-07
0.0036001046
-1.3707227e-07
-1.6664046e-07
0.0031468922
-1.2314054e-07
-1.2038531e-07
0.0027205704
-1.0633186e-07
0.0022353179
-8.0668587e-08
4.0523671e-08
0.0022350581
1.2730988e-07
5.7178771e-09
0.0027203952
1.182069e-07
-6.9903275e-08
0.0031467592
1.1507199e-07
-1.8005972e-07
0.0036000007
1.1565263e-07
0.0826809
8.4648995e-07
-7.521439e-07
-4.1331433e-07
0.082680682
4.0334423e-06
-9.6012553e-07
-3.9878911e-07
0.0035997927
3.2788858e-07
-3.61629e-07
0.0031465325
3.0699203e-07
-2.5964089e-07
0.0027201099
2.8288231e-07
0.002234635
2.445101e-07
4.2831077e-07
0.0022341056
4.1100607e-07
7.0193129e-07
0.0027197129
4.7756984e-07
9.1862845e-07
0.0031461836
5.2711731e-07
1.1180101e-06
0.0035994549
5.7396794e-07
0.082682174
7.7649193e-06
-1.0822779e-06
-1.2274891e-06
0.082683501
1.1198841e-05
-4.3144019e-07
-9.9637388e-07
0.0035990974
8.1647784e-07
-7.4870869e-07
0.0031458194
7.4733337e-07
-4.444433e-07
0.0027193031
6.7539145e-07
0.0022335733
5.7986191e-07
4.5327927e-07
0.0022330471
6.6611575e-07
7.6134131e-07
0.0027189064
7.783842e-07
1.0080909e-06
0.0031454734
8.6303267e-07
1.2344426e-06
0.0035987608
9.4420749e-07
0.082684569
1.3043835e-05
1.5071904e-07
-1.2873726e-06
0.082685743
1.246748e-05
5.6883574e-07
-1.0537195e-06
0.0035984606
8.9743271e-07
-7.9783936e-07
0.0031451599
8.1929962e-07
-4.7845896e-07
0.0027185381
7.3789339e-07
0.0022325319
6.3054905e-07
4.9789617e-07
0.0022320494
4.7289984e-07
8.3651589e-07
0.0027182112
5.52651e-07
1.1098475e-06
0.0031448955
6.1377525e-07
1.3633904e-06
0.003598212
6.7318524e-07
0.082687272
9.4539404e-06
9.0042386e-07
-1.3633739e-06
0.082689022
4.8516495e-06
1.2305769e-06
-1.1113314e-06
0.0035980408
3.3283784e-07
-8.34953e-07
0.0031446972
3.0240626e-07
-4.9669523e-07
0.0027179462
2.7214152e-07
0.0022316186
2.3443802e-07
4.6443674e-07
0.0022312365
2.0200097e-08
7.6690808e-07
0.0027177413
1.4267127e-08
1.0045479e-06
0.0031445692
1.1247486e-08
1.2241425e-06
0.0035979414
9.8620519e-09
0.0826907
1.5751452e-07
1.4614874e-06
-1.1159878e-06
0.082692347
-3.5650265e-06
1.5574659e-06
-9.2165924e-07
0.0035978928
-2.4088294e-07
-7.0790885e-07
0.0031444853
-2.1437902e-07
-4.3543301e-07
0.0027175803
-1.8390663e-07
0.002230886
-1.3922874e-07
4.4571447e-07
0.0022305413
-2.3849066e-07
7.2322625e-07
0.0027174271
-2.9603406e-07
9.3624136e-07
0.0031444167
-3.396844e-07
1.1356075e-06
0.0035978563
-3.7954689e-07
0.082693992
-5.6119659e-06
1.691644e-06
-1.2046638e-06
0.082695389
-5.7940363e-06
2.0071322e-06
-9.8851338e-07
0.0035978132
-4.0052876e-07
-7.5357403e-07
0.0031443374
-3.6042687e-07
-4.5918891e-07
0.0027172683
-3.1538161e-07
0.0022301921
-2.5361291e-07
4.6617853e-07
0.0022298171
-1.7187754e-07
7.65098e-07
0.002717084
-2.2228342e-07
1.0020835e-06
0.0031442327
-2.5798564e-07
1.2244068e-06
0.0035977382
-2.8946218e-07
0.08269622
-4.3222004e-06
2.4104719e-06
-1.2305872e-06
0.082696339
-2.0207214e-06
2.8940107e-06
-1.0029787e-06
0.0035976168
-1.1438954e-07
-7.6331807e-07
0.0031440874
-9.6608273e-08
-4.6451193e-07
0.0027168657
-7.5439728e-08
0.0022294155
-4.5013178e-08
4.649428e-07
0.0022289878
8.2868423e-08
7.6579909e-07
0.0027166139
7.248419e-08
1.0112593e-06
0.0031439011
6.6066769e-08
1.2442098e-06
0.003597452
6.215552e-08
0.082695688
3.232502e-07
3.4938743e-06
-1.2840969e-06
0.082694287
2.3173218e-06
4.2130954e-06
-1.0345703e-06
0.0035972427
2.1213797e-07
-7.7958706e-07
0.00314368
2.0455015e-07
-4.6850529e-07
0.0027163296
1.9873995e-07
0.0022285387
1.9296376e-07
4.8133182e-07
0.0022280659
2.8453654e-07
8.0920238e-07
0.0027160149
3.0228597e-07
1.0847902e-06
0.0031434231
3.1718863e-07
1.3577854e-06
0.0035969935
3.3370269e-07
0.082692062
3.9236295e-06
5.1721471e-06
-1.4690798e-06
0.082688833
5.2707816e-06
6.4660991e-06
-1.1605364e-06
0.0035967007
4.3691743e-07
-8.5206322e-07
0.003143126
4.1337936e-07
-5.0217222e-07
0.0027156717
3.9134005e-07
0.0022275673
3.645887e-07
5.2612201e-07
0.0022270445
4.4422263e-07
9.1597456e-07
0.0027152881
4.7862718e-07
1.265101e-06
0.0031427879
5.0678059e-07
1.6224349e-06
0.0035963591
5.3645801e-07
0.082684329
6.5276003e-06
8.2231388e-06
-1.8217997e-06
0.082677733
7.9160522e-06
1.0990287e-05
-1.4034338e-06
0.0035959603
6.4982215e-07
-9.9948546e-07
0.0031423983
6.1372189e-07
-5.6569599e-07
0.0027148634
5.7895694e-07
0.0022264846
5.3626408e-07
6.0891355e-07
0.0022258842
6.4881096e-07
1.1014048e-06
0.0027143826
7.0213095e-07
1.5747969e-06
0.0031419426
7.449979e-07
2.0702652e-06
0.0035954893
7.8860662e-07
0.082666951
9.584229e-06
1.609498e-05
-2.4006154e-06
0.082646868
1.161237e-05
2.6792322e-05
-1.8016391e-06
0.0035949253
9.5899266e-07
-1.2390262e-06
0.0031414057
9.062387e-07
-6.7078891e-07
0.0027138322
8.5392643e-07
0.0022252284
7.8832688e-07
7.4229247e-07
0.0022245092
9.5620342e-07
1.4057916e-06
0.002713197
1.0362e-06
2.0736806e-06
0.0031407774
1.0995411e-06
2.7864563e-06
0.0035942667
1.1625989e-06
0.0826061
1.3996247e-05
4.9678327e-05
-3.3642713e-06
0.082523002
1.6571049e-05
9.5760905e-05
-2.4771628e-06
0.0035934719
1.3924519e-06
-1.6510116e-06
0.0031400185
1.319472e-06
-8.5006974e-07
0.0027124449
1.2462093e-06
0.0022236999
1.1545532e-06
9.9722615e-07
0.0022227508
1.3411287e-06
1.9724388e-06
0.0027115421
1.4442206e-06
2.9885405e-06
0.0031391082
1.5248402e-06
4.0854562e-06
0.0035925259
1.6043176e-06
0.082363768
1.8828635e-05
0.00017777225
-6.5672577e-06
0.082091397
2.0147002e-05
0.00030155994
-4.73901e-06
0.0035909935
1.7833461e-06
-3.0502723e-06
0.0031376412
1.7086182e-06
-1.4884888e-06
0.0027101499
1.6354298e-06
0.0022214107
1.5520423e-06
2.9424139e-06
0.0022186602
1.5695608e-06
6.1730053e-06
0.0027072013
1.6528794e-06
9.7609894e-06
0.003134433
1.712405e-06
1.3818842e-05
0.0035874391
1.7711342e-06
0.081690596
1.9421795e-05
0.00044846554
-4.0085888e-05
0.081214757
2.0878681e-05
0.00057172401
-2.7964403e-05
0.0035768619
2.1340601e-06
-1.736767e-05
0.0031251706
2.1038264e-06
-8.0927212e-06
0.002699111
2.0775469e-06
0.0022116874
2.031836e-06
1.930108e-05
0.0021942388
1.6651104e-06
4.2234488e-05
0.0026785731
1.8921289e-06
6.8685651e-05
0.003101482
1.965984e-06
9.9293532e-05
0.0035493888
1.9868876e-06
0.080808924
2.4599639e-05
0.00059665254
-0.00019900561
0.080691215
8.5858287e-05
0.0005485217
-0.00013710833
0.0035004184
6.4128355e-06
-8.4028849e-05
0.0030603668
5.9919435e-06
-3.8458405e-05
0.0026443503
5.3621305e-06
0.0021668211
4.3450546e-06
5.4774974e-05
0.002124891
2.0046863e-06
0.00011706819
0.0025974167
3.6355347e-06
0.00018851685
0.0030062444
4.8301055e-06
0.00027138955
0.0034365559
5.8837658e-06
0.080735066
0.00013015294
0.00060222893
-0.001034768
0.00040785795
0.0017418296
-0.00075504057
4.3962726e-05
-0.00049479553
4.3507026e-05
-0.00024679146
3.9600454e-05
2.881834e-05
5.4882843e-05
-0.0021601782
-5.6308835e-06
1.5786347e-06
0.00011819744
-0.0026366769
-2.294395e-06
-2.5220597e-06
0.00019109141
-0.0030515813
-2.6896423e-08
-5.5713643e-06
0.00027588664
-0.0034904358
1.7954102e-06
-8.433951e-06
-0.080516008
0.00015513099
-0.00035333864
0.00054517421
-0.0001934331
-0.080702702
4.6283386e-05
-0.00018130447
0.0005151524
-0.00013293973
-0.0035436904
1.9686331e-07
-7.431234e-06
-8.1493413e-05
-0.0030964601
-2.4233669e-07
-6.3207292e-06
-3.7503463e-05
-0.0026742294
-1.0089474e-06
-5.418539e-06
-0.0021906796
-2.3391687e-06
-4.6628633e-06
1.8198858e-05
-0.0022098604
-4.4405534e-06
5.4228315e-06
3.9847025e-05
-0.0026968881
-4.5607524e-06
5.5717057e-06
6.5033252e-05
-0.0031225964
-4.6786421e-06
5.6297786e-06
9.4453925e-05
-0.0035739196
-4.8156698e-06
5.624959e-06
-0.08115104
-3.9267758e-05
2.3159602e-05
0.00055890223
-3.6897167e-05
-0.081649097
-4.5676619e-05
3.6030498e-05
0.00054460232
-2.556842e-05
-0.0035855893
-3.9169861e-06
4.2577543e-06
-1.5777225e-05
-0.0031328042