/*--------------------------------*- C++ -*----------------------------------*\
  =========                 |
  \\      /  F ield         | OpenFOAM: The Open Source CFD Toolbox
   \\    /   O peration     | Website:  https://openfoam.org
    \\  /    A nd           | Version:  7
     \\/     M anipulation  |
\*---------------------------------------------------------------------------*/
FoamFile
{
    version     2.0;
    format      ascii;
    class       volScalarField;
    location    "70";
    object      omega;
}
// * * * * * * * * * * * * * * * * * * * * * * * * * * * * * * * * * * * * * //

dimensions      [0 0 -1 0 0 0 0];

internalField   nonuniform List<scalar> 
25278
(
157.15714
158.38214
151.24155
151.23894
154.89473
158.38818
162.41003
157.16005
162.39916
175.86823
164.75289
157.69352
155.55221
152.66476
226.11933
151.19973
158.37503
227.11734
265.86347
229.71345
187.69296
175.3489
161.98467
164.1006
189.23
164.09033
161.97996
189.90182
199.39893
199.96027
218.26486
216.07777
264.40169
232.98014
236.7292
244.71278
244.6418
258.55365
257.73476
292.70664
272.19526
273.20662
292.69753
292.69212
255.77618
214.82769
176.80331
189.22182
228.32379
232.22739
241.23625
238.24467
309.21422
291.42561
268.77112
269.68792
279.90929
278.62172
324.85093
309.60616
310.63048
325.29368
336.02539
286.48552
285.48185
289.58847
290.52757
341.84488
341.62785
335.47014
391.63063
374.72175
352.65128
328.61119
300.55806
279.40931
236.7407
199.96491
175.32284
175.50083
172.15105
225.95281
227.0207
265.33539
189.0972
184.3479
263.93017
329.00737
292.33815
252.77303
260.58818
305.25102
292.80435
366.46724
378.00632
304.76005
307.00657
261.31462
272.15779
323.50992
307.39257
388.73638
401.18238
323.12998
371.27616
349.24599
344.43675
461.17
443.63996
506.92622
356.28156
376.65656
536.59715
567.53766
478.50309
497.67639
602.80512
410.93656
382.27207
382.43514
265.37183
189.09674
154.88938
292.99305
366.78309
444.01827
507.20755
356.38326
263.97732
184.35015
172.14697
175.4984
227.02957
225.97718
292.49036
329.20288
344.67377
376.80219
537.04458
461.6678
479.16
568.24282
603.83707
411.1782
371.58138
349.51319
307.16699
304.94212
378.36746
305.50788
226.19361
252.86824
260.68048
261.3939
227.18197
272.21891
323.30533
401.68623
498.569
690.43671
954.56858
952.79079
690.05276
500.91783
372.8156
350.68092
385.05625
414.21855
614.19496
576.53146
481.29928
652.33472
862.78109
973.28926
1363.4159
1171.5861
848.47846
849.33134
1162.1657
1349.5239
963.32404
856.44437
652.35651
482.0281
389.16736
307.63715
323.77693
373.43147
501.84655
615.2692
577.20653
386.04545
266.18507
351.2216
415.54202
422.63814
654.71085
1096.0737
1592.4293
1612.3157
1111.808
652.96017
421.12095
379.01046
325.86936
272.93823
232.94976
199.37869
216.05325
218.26201
244.68986
264.27552
272.11771
273.15907
244.63551
258.52956
257.69986
292.51018
292.55917
292.60925
270.40094
232.84505
197.39179
176.7881
197.80534
233.01925
240.29387
215.21771
214.83437
242.0879
242.14795
270.24249
291.24422
256.2039
255.77445
266.86388
228.35646
189.27472
187.68741
229.63624
232.23309
268.65483
291.01694
309.23418
310.33584
269.62231
279.77818
278.44068
324.22884
324.80181
335.33372
286.30579
241.21485
238.12733
308.49615
285.19692
334.61903
340.746
289.28506
290.32938
341.10474
341.28792
335.70074
325.38471
311.00417
309.29205
267.10611
276.88296
276.53042
282.87391
236.6065
236.47736
228.29394
264.06243
253.38565
253.0902
239.79202
266.7259
267.37136
288.89402
286.83403
303.93622
263.48404
272.67385
273.23912
320.0854
306.58631
336.12609
325.14759
311.72164
297.56512
274.6459
232.97686
197.78233
197.37535
232.81277
242.07329
242.11346
256.17134
291.26644
270.2149
270.41058
301.34984
276.89382
300.63
314.27087
315.76504
315.61946
331.35303
302.60986
340.32877
336.14
372.56551
374.91321
422.32006
376.60241
340.174
302.49572
300.41698
325.52772
335.96324
371.94326
328.21751
331.02526
374.35261
421.69897
417.76451
372.32293
410.41628
418.42352
474.28715
476.22232
449.8032
425.54456
400.70171
379.04497
356.49513
336.26168
336.87668
352.86886
329.8188
329.29534
353.28685
375.89326
376.2804
357.07457
338.84994
339.27285
355.78987
335.23972
334.7393
313.81536
327.56342
327.98538
351.67681
350.43214
373.55736
354.82584
377.13097
377.93767
379.76752
400.27653
400.88341
425.12774
425.16838
401.29338
377.51034
338.73144
301.2737
300.60432
339.1954
355.53643
335.06594
314.17969
315.63972
315.45369
336.01327
336.65703
352.51005
329.58885
329.00422
352.87341
375.31595
356.15843
356.77121
379.39664
378.64648
400.14207
399.58596
375.75541
374.67379
351.36783
327.80079
327.42898
313.76367
334.61087
350.19441
373.16314
354.60775
376.84658
377.59051
398.2602
396.53148
394.23892
373.87127
334.3618
333.26784
296.07962
309.21176
311.05544
331.57255
332.25449
348.3551
346.85495
324.52136
322.20592
321.42012
308.42648
328.4916
329.38898
344.89835
343.25804
365.18383
347.68379
349.10253
351.06583
352.2635
371.18104
369.31421
392.08603
372.81399
370.20464
368.88914
387.33792
389.62856
367.20837
382.66819
358.21043
332.82578
335.22519
360.33165
362.15096
364.08453
338.44059
339.04573
340.85478
340.2598
356.39908
351.83145
377.46877
404.5043
409.58208
441.99368
377.7115
373.33297
437.8245
512.32755
462.28187
514.49469
534.67977
539.41212
469.12039
519.57045
619.53982
615.49922
715.87738
563.58704
465.63009
389.64901
417.78999
399.46802
404.11415
394.39616
471.12332
490.84119
485.52938
606.02524
638.57249
833.47674
872.24685
734.78029
575.78428
623.63464
581.0077
561.26229
537.18008
513.70491
489.83788
468.09112
445.56799
424.26257
400.28823
400.91346
425.9414
425.23153
451.59669
450.45524
424.3294
422.71822
399.01977
376.33513
399.37276
398.12245
421.31849
397.08396
398.89928
375.12583
391.97375
366.02041
339.31254
309.38821
267.07653
266.882
276.58788
276.89791
323.53149
325.75207
311.20676
340.67873
357.13309
378.98885
444.87376
411.01735
405.97951
440.79319
470.26588
475.77323
396.25092
406.18716
401.66782
491.09777
496.42776
638.22911
586.38955
525.10263
471.38448
464.48253
518.28652
517.58107
623.46344
536.87439
541.80654
627.99537
755.93542
734.10808
573.17148
618.89751
865.42318
910.38965
821.97004
690.50806
592.65149
525.95532
470.58344
427.92145
387.77464
341.8589
286.77481
236.56886
236.39431
228.24151
215.19083
240.24063
239.73569
253.01183
253.32327
288.8632
267.31585
266.65751
286.7544
303.86463
263.3871
263.9911
273.1987
272.59049
316.93401
320.17163
306.57604
336.26864
325.2327
311.74425
297.54704
296.03797
309.17276
311.04647
324.55689
346.96478
331.61858
332.34467
348.51436
371.49895
352.44177
334.40519
333.27428
349.18385
329.41476
328.46814
308.35722
321.35688
322.18541
344.94689
343.25293
365.26175
347.71928
368.97268
370.35008
372.99574
351.19036
369.54051
392.44435
394.67952
374.10791
395.19101
371.81405
368.7377
390.72668
393.51323
415.96166
418.60908
443.55142
418.78889
422.44197
423.60305
426.2446
451.27781
452.4546
479.66853
478.95073
449.99796
478.33748
479.0041
511.0943
508.7866
505.94832
476.50166
449.21737
423.50232
445.76953
418.3455
419.84046
393.24211
367.25773
341.20399
352.5944
352.03854
381.01905
367.23707
392.29757
408.65314
408.97456
380.40122
378.93881
350.36577
349.72067
338.65205
364.48822
377.19048
388.67029
358.54615
359.42882
361.78099
361.37504
370.44265
370.8057
403.30427
392.38466
392.76865
404.28122
437.8506
423.27436
423.87301
437.93248
475.85661
457.29124
438.68182
439.76313
419.90967
447.10852
447.67809
470.23393
470.64399
506.35682
477.69498
477.04544
504.20272
501.44205
467.96642
436.85132
407.46315
405.25552
390.07105
416.09176
434.20692
452.00682
419.49711
422.03757
390.69552
401.35744
368.10394
367.17019
399.0761
432.91344
435.84709
473.35115
455.10623
491.08055
493.81291
493.73703
458.03488
477.59835
495.41515
450.68173
413.78701
377.54315
336.22548
282.97032
283.04085
286.81239
338.93433
333.5651
329.74087
279.2039
278.32012
281.78514
282.72699
334.79969
330.74912
325.97626
365.08314
359.1049
351.34124
343.06475
332.83614
335.30384
345.92849
346.92867
374.87411
362.45526
360.54405
372.68382
370.15629
358.32375
356.28486
331.72297
341.90893
367.84625
378.06543
349.90887
357.55438
387.10018
390.0938
380.7107
383.56518
354.35906
355.62321
363.86266
362.5092
393.3332
396.14878
386.0778
416.48363
402.64052
387.80335
385.44282
399.87076
427.77734
410.63561
413.42895
431.08638
448.36402
444.41185
413.27029
425.76721
429.46315
465.56831
469.79277
487.38616
445.34512
408.19439
373.7111
374.85992
377.70802
383.90521
383.77169
422.24054
420.90558
412.91245
410.73691
418.5121
380.78694
379.58083
415.75689
421.21318
383.22833
384.56282
387.78207
389.99634
389.99332
431.05776
429.61921
426.63788
424.11938
427.02393
386.69223
385.33819
424.04144
468.71916
464.37994
456.16948
459.69146
448.59957
450.97851
462.25006
462.23116
513.02793
510.96544
494.11017
491.35333
508.09274
503.87331
517.21646
521.5357
468.08437
470.78377
475.24757
475.12212
533.54951
531.73501
524.38362
594.60228
571.81338
545.38123
518.83997
519.44557
571.4651
535.63607
534.25367
568.64025
565.30274
515.84
511.58961
487.35545
464.77626
443.10021
471.58695
446.71431
473.47724
445.46869
422.19917
397.80595
420.6384
445.99644
448.43076
423.31952
447.52471
475.9205
472.93423
502.31773
498.21098
469.89427
442.06895
418.57065
394.92589
393.29683
416.95809
439.94569
415.47979
418.02514
442.91052
469.40639
465.82339
439.42505
417.12647
440.49036
437.10199
413.0635
389.90733
367.3613
382.9394
380.45068
394.0609
396.96138
424.31311
407.73189
404.79674
387.51833
410.26979
388.87118
411.71441
413.5385
435.89339
413.38919
390.55487
388.75228
411.61378
433.58234
410.00021
412.67184
436.64755
462.0111
458.31126
433.13052
458.59058
433.92036
456.06784
429.85009
433.26771
436.70321
439.98487
461.09254
457.12352
488.64429
464.09815
467.96813
493.34312
497.69723
526.70639
531.07704
575.97328
537.9376
505.70995
474.74755
508.58945
508.73974
542.76353
541.24945
581.93758
542.75074
544.4268
585.58856
632.24556
580.06231
579.69322
626.90243
627.81394
697.315
693.92833
630.3084
626.21467
578.03875
539.36498
535.04753
502.02966
533.56579
573.02753
620.68329
570.98996
618.31518
560.48946
554.46539
506.49306
482.97102
478.1856
500.72267
460.92616
455.99046
421.85605
409.87985
406.5056
417.9027
450.93027
436.08027
420.81462
448.7786
452.99226
483.71303
460.10106
488.62137
462.38476
466.23748
493.86439
489.36455
484.85564
513.83273
483.89299
511.15647
478.68557
503.1338
467.89428
473.10157
440.2688
494.49575
487.98007
531.32687
539.65436
509.57407
515.76051
521.54399
565.03037
528.52009
497.80656
493.32928
523.0139
560.83446
524.90563
530.17465
567.20259
613.96124
606.21312
558.26838
603.47016
547.46823
585.83819
525.1632
477.23867
437.2667
401.80755
368.66896
370.26161
375.82834
374.13563
408.82503
412.25407
404.97699
441.45913
451.94457
447.29728
492.6595
498.65767
482.60704
531.89109
537.65555
542.23449
568.98475
564.39859
646.40172
600.48776
605.32501
608.20138
608.98796
545.0214
571.30151
652.91601
651.68278
650.21871
693.93866
592.31902
588.07024
601.99693
524.56697
528.92706
472.50795
472.14081
426.82304
386.60295
338.84748
286.79429
236.54817
189.21778
187.69345
227.10456
265.75541
307.03823
261.357
307.22899
350.18107
384.68467
413.70803
372.18162
499.23057
612.2213
575.09614
479.95566
388.34485
400.67547
323.22357
272.09434
227.07745
323.05731
371.27167
497.17784
687.06128
968.74638
859.68188
649.98183
845.34797
1166.7442
1356.3777
948.3934
602.23725
567.07521
478.03606
349.34495
265.44262
382.37743
351.51642
482.90904
653.03991
847.01835
1162.3128
1349.5876
951.08989
691.30195
968.12824
859.39206
578.69042
617.31358
502.96027
373.86269
266.26439
386.34135
415.95094
423.11214
657.61112
1103.7608
1592.0601
1602.2616
1105.0454
650.23186
420.52975
309.09273
238.22695
241.20921
232.20854
229.6707
291.23216
278.5143
285.38703
289.54333
290.48304
286.4014
335.7835
341.74037
341.55598
335.19834
324.55985
325.01474
279.78885
269.60011
268.66393
309.37425
310.41525
311.01503
266.80765
228.30582
228.23026
236.38387
282.71966
281.77044
278.28224
279.15136
282.97778
282.89528
286.73833
341.75435
336.00648
333.37422
329.58119
334.72509
330.68639
325.86468
316.8046
272.53764
273.1225
276.81104
276.48219
325.50056
323.31893
309.24505
267.01545
263.95364
263.3478
303.77068
306.46535
319.99867
363.46905
369.86712
375.47594
379.1274
381.28594
381.37693
379.3709
377.52632
379.47406
416.47993
413.86485
417.53233
420.25159
464.1131
459.90125
454.93658
458.97037
512.34548
505.31061
511.73424
518.97288
596.06197
581.99564
558.28256
550.77132
631.71072
640.25659
593.96599
674.27624
611.6313
678.62885
685.65862
690.76853
623.50393
684.79594
686.62485
683.3256
752.97839
759.83608
904.41492
781.85931
777.87254
895.61589
1027.2211
1061.1077
839.34869
692.97955
719.11127
607.74836
605.31168
715.95251
872.12193
896.79306
1199.5508
1147.0877
1553.2259
1293.8747
1057.2157
880.84615
769.76801
687.59802
630.35874
582.03731
543.24254
507.01992
475.94758
475.32148
446.17009
418.67612
392.40492
366.71048
366.60415
380.09716
351.45046
352.09311
379.59542
378.23007
365.52856
391.2302
389.44595
415.1539
417.26727
435.18266
406.33771
407.71112
407.29144
391.38425
418.66909
437.8324
436.86274
454.58879
422.08422
391.27516
361.12304
360.61379
391.51987
402.66369
369.46574
369.94191
401.82702
400.02123
389.70563
358.8841
349.95032
349.38467
376.58668
404.27185
432.70705
449.68029
418.02837
387.80593
358.07954
323.31635
333.21566
283.01171
286.77329
286.67397
286.67887
236.59437
189.2654
158.38054
151.20212
157.11809
162.40138
152.61401
161.95369
175.31398
187.68164
238.13336
241.20931
289.30727
308.55371
340.77983
341.13523
290.36348
286.32642
285.23698
334.72034
335.41097
324.81875
279.76194
232.21066
229.62238
291.04147
278.41968
324.2681
309.26071
268.63117
269.58877
310.33527
310.95894
325.3834
335.74866
341.32479
338.57246
338.55516
334.58393
329.54375
279.22707
278.3986
325.94248
316.95158
351.16472
342.98032
345.77068
346.67697
374.39016
372.32471
369.91223
367.71021
356.24554
331.7733
341.9008
349.8302
377.78471
380.28775
382.98589
354.07993
355.25852
385.34961
395.14685
363.34293
366.52775
367.36955
373.97268
376.67429
376.36386
411.7828
411.08088
418.77027
382.70026
382.43167
419.90809
458.44358
447.4555
435.30081
421.38723
455.20715
473.62626
472.05283
435.50529
433.59949
420.40821
452.55941
469.70826
466.40026
430.88279
397.89148
406.70323
372.94351
378.67041
379.7569
416.56863
409.07612
445.69623
447.87127
489.04116
490.22288
506.64189
504.72966
458.56166
456.22476
452.93765
442.67489
482.76745
486.43729
501.99283
498.05028
510.62179
460.84335
419.35425
414.02299
410.74048
403.68324
369.60873
368.14181
362.10297
392.49891
389.45983
358.80105
357.37465
386.64707
416.96533
405.90463
393.73599
380.28265
404.45579
407.23833
410.00981
385.05466
387.28498
412.65104
429.8033
401.80568
399.21464
426.69276
423.45135
396.47312
409.06389
412.22651
415.21232
446.30209
442.65563
458.24222
424.23148
427.68022
462.48736
501.4927
479.81531
459.18616
438.9035
441.85025
444.37239
473.09038
470.08434
494.8953
462.62617
465.62506
467.76566
501.0923
503.14703
539.21262
537.75957
506.85851
541.52138
578.55115
582.19147
625.4505
573.80448
530.47487
529.09181
489.94676
513.11058
560.44665
563.2562
617.1998
616.00071
573.28652
623.26873
680.76441
684.54371
756.47976
666.85868
597.19773
596.01357
537.38637
561.45094
634.77246
636.59121
728.48804
733.13754
668.95372
758.65218
865.28132
860.01144
974.58779
789.59118
670.66182
671.96171
582.5032
517.39691
466.76175
424.38189
386.53336
386.36664
425.44895
428.65282
388.63419
388.79793
427.42838
425.02879
422.05472
383.48643
382.29642
384.45094
385.6713
385.70519
388.84791
388.66594
404.22244
399.55941
418.06172
485.82815
491.18658
471.83035
394.62971
389.8795
466.29023
565.12869
606.81912
640.03669
835.743
875.3282
624.66567
577.65625
739.03247
719.2852
617.99997
513.63783
438.43564
373.54556
377.78078
351.98978
356.51214
377.90533
442.61789
409.99014
404.92165
463.15118
515.67296
536.19438
541.07703
622.40656
521.05113
470.04431
468.96384
490.96944
515.12831
538.81125
562.8808
582.27782
593.9772
593.51238
526.50182
518.85428
466.45383
471.07411
471.33339
524.8334
522.19075
514.6747
464.26968
468.83488
465.31879
422.27781
418.71963
415.92541
378.58732
375.06109
373.51141
407.53575
400.73142
397.37462
364.6959
363.03065
394.22242
400.41946
367.98977
369.7692
403.86387
440.1874
431.11024
420.61717
453.75779
438.85283
434.97494
420.18127
447.7215
429.29711
432.54332
435.79104
462.93363
466.58974
490.79248
486.37203
455.4657
451.62756
481.77562
459.11689
455.31602
477.12256
509.14214
483.00333
487.51915
492.02317
496.36107
500.45645
504.05276
538.15837
533.89278
569.74042
530.26134
534.48555
498.44586
526.00363
487.37897
483.88455
521.84874
552.43372
506.23015
510.22776
557.10167
612.3152
569.58368
564.72069
613.53115
619.04613
574.66393
620.52312
576.8373
580.91056
627.47177
680.22463
625.11715
627.95316
628.55817
621.07648
724.74469
748.59844
758.60019
931.66685
750.44425
740.81493
921.90042
1212.9292
950.37054
999.9134
1437.8237
1273.867
1696.4936
1942.9547
1277.2553
1680.8016
1252.158
969.30253
924.1582
1081.7893
1192.026
1627.9715
1212.1322
1356.5691
1850.39
2321.956
2014.361
1532.8359
2064.368
2384.8547
2596.1591
2253.5801
2249.4567
2061.4423
1688.7213
1267.3231
861.50922
617.31157
490.45159
401.43256
405.92483
395.63646
391.03962
468.82694
474.17819
495.64797
636.07155
582.50977
570.05939
727.64081
747.6288
904.8479
868.87302
714.03016
604.25053
532.95602
474.78593
430.86707
389.89877
389.90994
387.48954
387.47144
427.3874
426.11844
429.39987
474.88376
469.80104
469.65877
524.27656
522.61147
531.05455
528.19873
523.7985
468.32407
423.84058
385.25439
382.97256
384.3023
423.59048
420.69106
415.03348
379.20265
380.39422
383.48914
383.34046
377.05201
377.23033
412.09095
420.14603
421.49247
412.94291
449.31803
460.99829
460.93839
449.55977
491.76618
508.63865
510.81035
493.15696
475.57715
436.57474
403.48113
369.94844
378.36981
374.1072
378.31862
352.18957
356.66282
410.11187
443.44937
439.46038
405.10205
463.03737
515.08456
516.19884
619.13356
623.02061
522.19967
469.80246
539.58972
534.81991
473.45103
417.72269
372.06794
328.33062
292.54517
257.67753
218.25294
175.33479
176.7765
214.82431
215.18613
197.82788
189.25879
197.41848
199.98791
189.94238
199.41647
216.06343
264.30459
244.68605
236.73944
244.62498
258.49881
292.55963
273.15052
272.11987
300.42511
279.36492
302.49365
331.09471
374.45691
340.11097
335.89605
325.57983
272.85433
232.96894
325.45554
409.89181
372.07095
376.35533
421.62174
475.45446
421.48962
417.51142
371.87364
335.85786
340.0783
302.46607
300.3775
328.2239
331.0316
374.30663
378.58582
338.66096
276.88635
301.26202
315.46982
292.58727
255.73212
256.1398
242.11357
232.85437
242.07431
270.38049
270.20527
291.18539
288.80417
253.30363
252.99754
239.74571
233.02336
240.24329
267.31386
266.6541
286.69701
322.08349
332.6931
342.8361
351.06694
358.7697
364.75237
369.93486
373.29642
375.2687
375.34909
373.51693
370.24142
368.29769
363.26919
394.85666
398.21867
404.89896
401.19786
405.72752
371.41465
373.18131
408.06761
412.17114
409.70094
449.53742
442.29663
432.78058
428.23753
437.16987
479.02694
465.41686
471.43739
486.02668
498.07361
490.2423
443.94763
447.53872
453.35278
504.77387
496.52438
566.38911
553.49322
532.25817
509.55131
517.63722
541.98685
620.60346
576.24036
565.46372
607.16783
654.36041
669.22991
564.5412
574.13502
588.10059
712.83996
680.31543
687.83297
692.28039
722.18393
722.05911
605.91334
604.47215
606.47821
591.32598
589.79607
685.32616
686.93074
716.70858
719.15679
718.69837
600.35532
583.97767
515.18944
463.34638
467.07083
519.61118
505.63849
458.34235
417.76333
409.92535
374.41676
373.28682
407.40915
443.93434
454.80706
501.33623
484.92361
488.90478
447.16503
434.55737
400.58703
367.66452
370.33185
361.35601
360.93326
392.06921
391.71803
402.4946
436.63111
422.79506
422.18823
456.38092
455.64547
473.79486
471.26963
467.73816
431.66578
398.34078
366.7472
358.17623
359.04755
390.05453
388.06799
376.71699
349.4164
350.02839
352.23123
351.63799
340.36041
340.91225
366.86948
379.85193
380.42962
366.78936
391.67099
407.79169
408.15043
392.64889
418.98514
437.43639
438.48418
419.00289
445.92489
468.91767
491.41194
516.44047
541.50884
567.7424
567.77507
541.54203
602.07121
644.70643
646.768
603.42023
675.25699
743.42484
813.34075
828.3753
892.43922
1193.588
1142.5663
1013.2061
1042.8019
1071.8602
836.15106
686.73067
588.61077
564.5559
559.63478
533.40725
538.15243
598.59311
642.28171
637.45095
683.75453
840.57013
924.75965
932.10876
858.6321
762.56438
680.75017
780.79731
782.68676
916.15678
762.57852
850.15934
915.39387
1265.0025
1096.8878
1134.7295
925.59281
932.42005
759.43922
752.55571
665.35569
768.29122
669.75966
659.00529
594.0387
550.82959
517.18982
554.00372
519.43026
553.50268
518.56946
523.92372
529.07544
564.08195
525.41656
520.18763
557.91534
551.38999
514.70604
545.80819
505.98555
470.74094
475.38237
511.62665
516.9693
546.75559
540.29816
496.22982
490.61489
484.80397
466.01081
500.18048
525.93762
533.25333
584.16952
592.78373
552.64154
558.99507
606.94936
599.5046
655.53785
664.32579
600.47062
607.04803
671.55781
677.09648
757.7013
666.23058
592.81971
534.29258
529.90266
587.92074
628.10522
554.01068
558.52587
632.5208
733.57146
731.1317
661.35555
754.06354
876.07331
872.31502
1026.0756
809.52053
671.59615
579.99925
575.69878
668.67553
697.62595
589.61716
518.13493
512.95787
505.547
493.21636
478.34838
439.07965
435.22757
473.4669
487.76251
444.76922
449.01383
456.69579
452.12891
412.50126
376.89338
378.88101
380.65046
380.66717
334.59352
282.75888
282.76188
281.86377
330.68068
373.02837
371.08221
404.8942
408.58555
411.15704
374.89999
372.88005
407.31502
445.82625
442.09737
435.51783
426.93699
462.82001
449.16417
444.56967
431.11174
416.91856
401.65318
384.7975
365.7529
327.97615
269.545
228.43778
195.48598
188.27542
164.76938
167.49629
161.08346
167.47204
187.85484
177.53566
175.89718
195.51065
196.11511
228.46079
228.48764
237.02391
211.50416
211.93961
235.02553
236.7871
262.8077
263.2588
284.1457
249.74234
249.60938
282.0464
279.41021
259.94644
259.13245
234.51035
246.44589
246.86603
256.41017
223.67119
186.44595
187.58392
219.92291
208.85318
194.36579
195.11117
224.73941
224.3879
232.05553
232.08043
255.36364
255.85832
274.46704
243.43455
243.47501
272.32644
269.6528
252.79031
230.84217
209.4828
231.50703
252.26511
241.82216
241.29721
249.84133
220.04131
250.37609
283.25035
286.4265
252.24371
252.4823
255.7048
292.28378
277.18148
297.91188
286.12556
266.79165
228.41904
196.08924
211.86541
211.48524
236.96667
236.72901
249.51057
249.65507
284.03364
263.18087
262.73209
281.91656
279.28186
246.76045
234.97187
234.44394
246.34302
277.05557
259.06439
259.8727
287.77336
290.96779
292.4806
306.14106
305.30897
318.07656
318.88466
341.13293
325.89943
325.03378
339.47695
337.47392
315.75839
303.47494
302.65509
314.89646
335.80291
321.91903
322.86526
341.80621
326.7815
327.95031
345.14685
343.76294
360.93707
362.96802
384.89227
365.80343
364.57335
382.61023
380.19226
358.81276
356.80609
340.3707
360.73781
362.05169
381.41881
360.76113
326.81094
291.03242
292.54635
306.22806
305.42009
325.11758
325.95172
341.1922
318.98023
318.20858
339.57494
337.60295
322.97041
303.6028
302.79268
322.04567
335.95285
315.06266
315.91417
325.86
298.14435
259.41505
223.77111
259.89243
300.87752
313.3555
268.49462
268.03168
310.18002
306.66872
295.08579
322.29194
312.67985
300.67354
287.83146
321.90405
320.66668
334.74587
316.51033
318.67261
299.78222
311.78654
332.25156
333.90643
319.6026
338.03294
340.46095
341.85947
343.7943
345.14684
362.95108
360.98163
382.56855
364.55921
362.03904
360.76031
378.02546
356.91454
358.89771
380.19096
401.93779
381.38826
384.0036
363.81535
385.80232
384.065
404.68737
407.32469
430.51739
407.95958
406.23939
427.49929
424.40485
401.99908
399.51032
377.99332
375.59614
354.64409
333.75602
312.49819
300.53455
299.65853
311.63338
332.12814
318.5763
319.48025
337.95234
321.87552
320.63404
286.06581
297.80205
296.9063
308.41639
309.33192
330.1601
316.42343
315.4359
328.50278
348.7955
333.26286
334.67861
336.59001
352.72069
373.53481
356.65177
357.80441
376.93287
356.21058
353.42622
372.98908
354.275
353.04541
369.3362
371.34023
350.69518
363.9783
341.70368
318.61672
292.11679
255.55258
223.55861
186.37883
187.48663
177.51874
194.32383
208.75389
231.97185
224.32388
232.00874
243.32498
243.32262
274.32693
255.79777
255.31363
272.13097
261.93924
282.64557
280.99542
292.07758
293.90082
294.79361
306.06148
305.15125
324.85584
312.09503
313.02893
326.48053
346.72317
330.91633
315.68286
314.5313
327.726
309.99172
308.90855
291.18158
301.86539
302.89358
322.88119
321.09403
340.89325
326.25238
345.71086
346.94024
349.19694
329.59853
344.87906
365.2397
367.1398
350.25658
368.94507
349.19357
315.72197
282.7141
281.13473
314.59161
327.85815
310.11255
292.21328
293.97346
294.87098
296.99733
315.50763
328.6016
308.52715
309.46457
330.25274
350.79285
352.82082
336.6571
356.68024
357.82758
375.66041
354.76832
368.54028
345.88124
348.03549
324.73644
334.08016
335.22809
337.97577
328.25619
329.29918
354.06122
352.12924
363.07311
365.24329
339.0482
346.85418
345.51071
372.58176
375.03663
383.56957
354.0485
352.62611
380.8085
377.84774
369.91355
360.66596
349.99652
373.15868
375.51903
377.84068
390.96161
388.27107
413.74092
398.95256
396.28523
393.7001
370.86661
382.98656
358.50687
367.50907
341.28789
342.64465
349.44723
348.01371
375.19335
402.87646
393.60885
396.54656
385.58363
410.63588
407.65361
420.21289
423.69673
427.33534
399.61993
402.70051
413.29094
409.72743
440.0778
435.73462
406.23071
414.62406
384.4772
354.59555
318.3224
273.34592
231.16239
231.00186
269.7217
264.49673
263.78968
303.50849
311.03521
268.80972
271.80257
272.7376
276.52845
277.26965
274.02991
321.90479
326.34272
322.51948
318.46603
314.49022
349.72869
344.89429
338.44612
331.31151
330.16278
321.15217
343.94903
354.01264
356.11489
380.41379
377.94175
366.31246
388.74101
373.60637
371.40888
354.28909
353.0861
333.31866
348.8695
369.4063
390.3264
371.50759
372.98394
375.37598
376.91926
379.69493
401.30677
402.88083
406.20595
407.87912
385.72729
407.16093
404.60228
427.35727
430.30824
454.54914
429.59286
426.97743
451.16643
454.74991
480.38579
476.11785
451.03879
447.5894
423.74904
402.91613
401.32993
379.72521
421.66998
444.48264
421.38449
444.44831
421.61702
399.51132
396.97474
394.7234
416.44248
396.63344
397.99949
418.84022
441.41472
418.38562
398.02316
396.63718
375.39941
394.69962
396.94848
418.83405
416.42822
413.94525
392.40416
390.27248
371.49058
392.49022
393.74305
413.66907
393.73253
392.50281
411.81986
413.96988
392.42397
409.08069
386.37828
364.08348
341.82156
318.77055
317.5951
339.91621
349.64516
326.3018
327.4739
351.69339
375.50038
373.15566
361.92642
384.08094
396.91148
399.41489
402.03821
404.76135
391.16171
414.21338
417.01901
419.90111
422.93593
426.05722
451.53595
447.90535
468.0207
440.10152
443.85388
472.5075
503.5993
478.55296
474.24073
502.55275
507.75389
513.12376
544.69718
582.83974
538.71618
574.92604
634.15222
645.35178
591.38697
643.75103
593.16158
600.91923
559.98924
566.13861
571.82573
617.14751
622.87544
675.10953
668.60521
614.78428
669.27401
675.49088
680.32815
681.31512
749.54623
685.63045
753.5827
750.66766
686.83621
768.65669
849.63858
854.08825
944.36044
829.13815
828.57059
746.38085
838.00278
754.95866
756.45198
842.71143
937.07981
935.15364
1063.8277
942.26329
938.41543
846.34928
765.62431
682.1211
675.96731
760.47547
840.61846
738.517
745.43171
822.98473
741.09134
734.13604
828.51567
745.77817
751.36005
834.43418
931.28237
924.75183
815.45438
931.83251
1055.7683
1061.5948
1269.2798
1124.145
1008.1104
894.15878
890.83026
1081.6655
1263.2092
1003.7056
994.53236
1238.8636
1605.8753
1716.3717
1374.4527
1710.4688
2306.0577
2055.9784
2406.5559
1846.7929
1399.3614
1108.7772
1120.6323
1428.0479
1607.5945
1263.8672
1254.0897
1068.4108
1242.469
1089.5754
971.07508
856.4224
864.47319
978.91321
1213.012
1032.6677
1012.4658
1191.1853
1354.9981
1383.0113
1101.0222
1251.8564
1570.1023
1544.1644
1971.6733
1760.2496
1514.473
1218.2203
1286.8798
1000.5548
802.94992
856.22289
697.08908
595.51729
593.55486
698.70277
870.13746
881.31302
812.94198
1049.5775
1232.9526
1176.7386
1124.2958
1081.745
836.16471
695.04652
695.93456
698.16666
596.06429
525.09478
471.46708
427.49181
428.71169
425.66425
386.47408
386.63925
424.5989
422.26488
425.12145
422.3404
384.5161
382.39915
383.60791
379.87742
333.23877
283.01044
286.78361
282.90035
276.49348
228.33184
228.2657
236.46199
281.85605
330.67228
325.91198
278.37782
279.22793
329.5461
320.03529
273.19014
276.84731
323.26966
309.22319
267.03401
266.81198
255.73073
214.81705
176.78339
215.19538
253.31304
263.99051
263.40613
272.62458
316.87719
303.82106
306.49021
288.79208
291.15406
256.13962
242.0919
232.81264
242.05461
244.60641
258.51251
218.2365
216.03745
264.27815
257.66688
292.50764
292.52675
273.12632
236.69926
244.66432
272.10013
300.44818
328.29767
325.66619
372.20449
374.58719
331.07354
302.49936
279.4155
336.10303
340.27777
376.85246
422.22704
418.30951
410.9709
475.23673
477.18029
422.84685
418.98808
372.62166
336.31052
326.10473
272.96847
232.94922
189.9024
199.37592
199.95478
197.38565
189.25611
197.80687
232.98462
240.22749
239.73575
253.02656
286.71335
266.63392
267.2593
270.1529
270.34179
292.55514
329.00214
340.27937
351.50066
360.70588
369.57777
376.52493
382.57994
382.85091
419.04607
420.2136
412.09441
411.37649
376.79271
374.08383
373.03293
378.79648
414.27197
419.58004
461.2682
465.4885
468.97575
522.49815
518.44341
511.46629
515.49273
464.71312
467.16636
466.83423
471.19423
526.72823
519.59227
518.17293
505.73132
459.11661
458.96883
507.59613
491.23066
448.01182
448.43211
490.08729
487.50004
503.05174
456.76496
416.83786
409.32587
406.95038
443.19995
453.49109
499.11682
483.81253
479.38435
494.28792
506.40376
513.30121
461.21261
461.06346
456.3263
415.20471
415.25871
378.9185
376.96423
378.68997
416.09926
418.79352
412.67871
408.74503
411.21636
374.90734
372.89792
407.35048
405.02182
371.11939
373.08417
369.84707
373.61871
375.16287
410.98276
407.74645