/*--------------------------------*- C++ -*----------------------------------*\
  =========                 |
  \\      /  F ield         | OpenFOAM: The Open Source CFD Toolbox
   \\    /   O peration     | Website:  https://openfoam.org
    \\  /    A nd           | Version:  7
     \\/     M anipulation  |
\*---------------------------------------------------------------------------*/
FoamFile
{
    version     2.0;
    format      ascii;
    class       volScalarField;
    location    "70";
    object      rho;
}
// * * * * * * * * * * * * * * * * * * * * * * * * * * * * * * * * * * * * * //

dimensions      [1 -3 0 0 0 0 0];

internalField   nonuniform List<scalar> 
25278
(
1.1739157
1.1738981
1.1739163
1.173916
1.1739228
1.1738971
1.1739024
1.1739156
1.1739034
1.1738611
1.1738756
1.1738985
1.1739053
1.1739167
1.1738712
1.1739165
1.1738984
1.1738483
1.1738266
1.1738672
1.173868
1.1738834
1.1738894
1.1738741
1.1738309
1.1738733
1.1738889
1.1738579
1.1738968
1.1738538
1.1738159
1.1738464
1.1737507
1.1738099
1.1737747
1.1738678
1.1738256
1.1737655
1.1738123
1.1737019
1.1737599
1.1737058
1.17371
1.1737026
1.1737657
1.1737917
1.1738591
1.1738315
1.173787
1.1738184
1.1737985
1.1738444
1.1737115
1.1737513
1.1738512
1.1737778
1.1737311
1.1738095
1.1736566
1.1737182
1.1736862
1.173658
1.1736366
1.1737398
1.1738356
1.173815
1.1737182
1.173624
1.1736428
1.1736681
1.173739
1.1737115
1.1737746
1.1737406
1.1738477
1.1737692
1.1737745
1.1738534
1.1738828
1.1738937
1.1739146
1.1738702
1.1738476
1.1738245
1.1738716
1.1738997
1.1738579
1.1738918
1.1738781
1.173927
1.1738687
1.1738011
1.1738791
1.1738473
1.1737997
1.1737998
1.1738219
1.1738944
1.1738341
1.1737544
1.1738223
1.1737652
1.1737199
1.1737539
1.1737503
1.1738269
1.1738077
1.1737591
1.1738213
1.1737933
1.17387
1.1737678
1.1737201
1.1736587
1.1737047
1.1736409
1.1735895
1.17371
1.1737974
1.1737955
1.1738234
1.1738714
1.1739226
1.1738718
1.1738385
1.1738148
1.17379
1.1738682
1.1738565
1.1738994
1.1739137
1.1738929
1.1738452
1.1738676
1.1738728
1.1738875
1.1738027
1.1737659
1.1737159
1.1737509
1.1736953
1.173654
1.1735843
1.1737079
1.1737452
1.1738218
1.1738155
1.1737937
1.1737889
1.1737924
1.1738666
1.1739222
1.1738633
1.1738893
1.1738437
1.1738286
1.1737472
1.1737066
1.1736308
1.1734539
1.1732612
1.1732698
1.1734781
1.1736472
1.1737528
1.1738291
1.1737997
1.173713
1.1735937
1.173662
1.1737096
1.1735926
1.1734458
1.1732529
1.1730785
1.173363
1.1734577
1.1734521
1.1733823
1.173102
1.17323
1.1734287
1.1735746
1.1736895
1.173753
1.1738132
1.1737445
1.1737376
1.1736214
1.1735581
1.1736364
1.1737852
1.1738187
1.1738165
1.1736944
1.173676
1.1734215
1.1729644
1.1726183
1.1725904
1.1730029
1.1734677
1.1736957
1.173725
1.1737605
1.1738223
1.17381
1.173897
1.1738452
1.1738141
1.1738688
1.1737496
1.1737605
1.173705
1.1738256
1.1737634
1.1738113
1.1737004
1.1737085
1.1737007
1.1736947
1.1737468
1.1738357
1.1738576
1.1738229
1.1737231
1.1737606
1.1737665
1.1737892
1.1738197
1.173785
1.173637
1.1736517
1.1737181
1.1737637
1.1737756
1.173785
1.1738275
1.173867
1.173867
1.1738173
1.1738525
1.1737497
1.1737175
1.1736841
1.1737768
1.1737276
1.1738088
1.1736532
1.1736547
1.1736326
1.1737375
1.1737965
1.1738434
1.1737094
1.1738378
1.1736662
1.1736393
1.1738159
1.1737142
1.1736192
1.1735968
1.1736137
1.1736395
1.1736752
1.1736093
1.173719
1.1736572
1.1737259
1.1737355
1.1737572
1.1737162
1.1737499
1.1736904
1.1736963
1.1736957
1.1737628
1.1736238
1.1736147
1.1736102
1.1735979
1.1735421
1.1736872
1.173632
1.1736283
1.1735035
1.1735571
1.1735618
1.1735276
1.1736797
1.1736092
1.1736504
1.1737238
1.1738241
1.1738361
1.173747
1.173819
1.1737858
1.1737225
1.1736551
1.173639
1.173695
1.173725
1.1737163
1.1736507
1.1737565
1.1737577
1.1738422
1.1736751
1.173732
1.1735836
1.1736904
1.17353
1.1735708
1.1734515
1.173565
1.1735835
1.1737315
1.1738485
1.1737603
1.1736916
1.1735284
1.1737395
1.1736742
1.1735699
1.1734505
1.1735735
1.1737701
1.1736619
1.1735754
1.1732525
1.1732853
1.1733869
1.1733595
1.1736226
1.1734934
1.173716
1.1736319
1.1735468
1.1735335
1.1736261
1.173727
1.1735365
1.1735504
1.1734454
1.173572
1.1735797
1.173445
1.1735618
1.173538
1.1734656
1.1737035
1.1735513
1.1736224
1.1734841
1.1734395
1.173334
1.1734888
1.1732313
1.173351
1.1733526
1.1733226
1.1733132
1.1733539
1.1731981
1.1733655
1.1735452
1.1735803
1.1737256
1.1736498
1.1734453
1.1735631
1.1735376
1.1737583
1.1737581
1.1738447
1.1736335
1.1735451
1.1735306
1.1736225
1.1737253
1.173534
1.1735481
1.1737183
1.1735712
1.1733509
1.1734955
1.1733099
1.1733193
1.1734421
1.1733912
1.1734801
1.1736187
1.1735447
1.1737028
1.1734621
1.1734338
1.1733277
1.1734869
1.1732281
1.1733512
1.1732403
1.1731713
1.1731312
1.1732127
1.1733933
1.1734127
1.1736047
1.1736188
1.1736595
1.1734201
1.1734472
1.1734008
1.1733823
1.1735023
1.1734802
1.1735146
1.1736499
1.1734443
1.1734077
1.1733807
1.1733999
1.1733016
1.1734504
1.1734221
1.1734371
1.1734624
1.1732914
1.1732702
1.1731117
1.1731856
1.1731757
1.173249
1.1731669
1.1731247
1.1732742
1.1731969
1.1733224
1.1735044
1.1735351
1.1733234
1.1733433
1.1733797
1.1735833
1.1736612
1.1736619
1.1738012
1.1736409
1.1737748
1.1737225
1.1735611
1.173505
1.1734304
1.1735899
1.1737091
1.1734123
1.1734865
1.173647
1.1735469
1.1733184
1.1731148
1.1733442
1.1732281
1.172933
1.1729891
1.1730834
1.1735646
1.1734506
1.1737397
1.173695
1.1737156
1.1735408
1.1735605
1.173385
1.173358
1.1733999
1.1735122
1.1734658
1.1729647
1.1727658
1.1728353
1.1731634
1.173126
1.1730487
1.1730379
1.1731216
1.1730883
1.1732214
1.1732125
1.1733869
1.1733503
1.1736242
1.1733641
1.1731257
1.1733622
1.1730405
1.1730407
1.1731946
1.1731105
1.1733676
1.173398
1.1733667
1.1732394
1.1730228
1.1731776
1.1732447
1.1733956
1.1733405
1.1734421
1.1736623
1.1736142
1.1737226
1.1737763
1.1737291
1.1736657
1.1735725
1.1736433
1.1736776
1.1737987
1.1736424
1.1735928
1.1734349
1.1735075
1.1735622
1.173419
1.1734557
1.1733919
1.1735642
1.1735449
1.1737163
1.1734084
1.1733647
1.1731349
1.1731744
1.1732345
1.1733477
1.1736478
1.1735541
1.1734929
1.1729989
1.1733194
1.1731182
1.17294
1.1728524
1.1730945
1.1735655
1.173516
1.1729807
1.1727738
1.1725868
1.1725522
1.1730588
1.1729887
1.1733749
1.1733448
1.1737019
1.1736026
1.1737151
1.1737606
1.1737248
1.1737551
1.1737709
1.1737611
1.1737646
1.1737028
1.1737013
1.1736157
1.1736169
1.1736276
1.1736054
1.1735539
1.1736947
1.173695
1.1736382
1.1736467
1.1735047
1.1735157
1.1735653
1.173566
1.1735344
1.1736792
1.1736098
1.1736068
1.17362
1.1736611
1.173512
1.1733912
1.1734256
1.1734498
1.1734079
1.1732991
1.1734628
1.173393
1.1734133
1.1734244
1.1734127
1.1734517
1.1736528
1.1735272
1.1734905
1.1733914
1.1734124
1.1733155
1.1734553
1.1732558
1.1731797
1.1731905
1.1734404
1.17328
1.1731214
1.1731389
1.1732144
1.173223
1.1733142
1.1733054
1.173183
1.1731937
1.1729579
1.172977
1.1727654
1.1729356
1.1729449
1.173128
1.1731259
1.1730432
1.1730433
1.173067
1.1728534
1.1730493
1.1728518
1.1730631
1.1726638
1.1726574
1.1724652
1.1727214
1.1729215
1.1731151
1.1730042
1.1731574
1.1732383
1.1733893
1.1734929
1.1736632
1.173556
1.1736997
1.173453
1.1735624
1.173571
1.1734744
1.1733177
1.1734443
1.173379
1.173557
1.1734631
1.1735871
1.1733873
1.1733237
1.1732724
1.1734969
1.1735934
1.1735888
1.1737583
1.1736753
1.1734979
1.1733614
1.1734021
1.1734665
1.1733763
1.1734033
1.1734754
1.1732607
1.1732046
1.1730113
1.1730784
1.173158
1.1731624
1.1733467
1.1733878
1.1730888
1.1729784
1.1732192
1.1728023
1.1730954
1.1728982
1.1727629
1.1725852
1.1728598
1.1730487
1.1732504
1.1731706
1.1732628
1.173073
1.1729643
1.1728669
1.1731012
1.1731941
1.1733361
1.1732832
1.1735037
1.1733911
1.1732181
1.1730263
1.1731229
1.172877
1.1729672
1.1727495
1.1728718
1.1732244
1.1731823
1.1730334
1.1730656
1.1734177
1.1733964
1.1737325
1.1736185
1.173737
1.1736685
1.1736437
1.1735171
1.1735361
1.1734728
1.173636
1.1736435
1.1736251
1.1736126
1.1734514
1.1734419
1.1734623
1.1733414
1.1733226
1.1734206
1.1733998
1.1735125
1.1735421
1.1734241
1.1734484
1.1732874
1.1733529
1.1733358
1.1732714
1.1732768
1.1733371
1.1733638
1.1735466
1.1734541
1.1733099
1.1732617
1.1734715
1.1733934
1.1732145
1.1731699
1.1732234
1.1732158
1.1734519
1.1734777
1.1733763
1.1733508
1.1731599
1.173176
1.1732326
1.1730564
1.1731301
1.1732252
1.173206
1.1731124
1.172901
1.1730132
1.1730305
1.1729169
1.1728131
1.1727955
1.1730373
1.1729587
1.172978
1.1727134
1.1727728
1.1726968
1.1729746
1.1731795
1.1734226
1.173537
1.1735289
1.1734706
1.1736776
1.1733378
1.1733066
1.1733318
1.1732524
1.1732198
1.1734798
1.1733549
1.173146
1.1731268
1.173371
1.1734965
1.1734856
1.1734666
1.173685
1.1733287
1.1732839
1.1732915
1.1732042
1.1731945
1.1734774
1.1733492
1.1731171
1.1728896
1.1729027
1.1729279
1.1730396
1.1730835
1.1731658
1.1731317
1.1733734
1.1729743
1.1729144
1.1729553
1.1728173
1.1727618
1.1726378
1.172601
1.1727341
1.1730207
1.1731128
1.1731032
1.1733638
1.1729658
1.1728773
1.1728884
1.1726212
1.1726548
1.1727086
1.1727829
1.1730992
1.1725986
1.1728393
1.1726242
1.1725075
1.172279
1.1726313
1.1724753
1.1726026
1.1727374
1.1728861
1.172636
1.1728188
1.172586
1.1728439
1.1729445
1.1732368
1.1730169
1.1728143
1.172918
1.1731288
1.1730009
1.1727191
1.1725833
1.1723199
1.1722386
1.1725201
1.1728102
1.172936
1.1732226
1.17319
1.1728996
1.1727405
1.1729484
1.1729693
1.1727596
1.1725167
1.1724953
1.1727771
1.1729002
1.1727474
1.1727776
1.1729811
1.1731366
1.1732858
1.1732135
1.1732533
1.1731758
1.1731264
1.1729282
1.173033
1.1730908
1.1731811
1.1730404
1.1732488
1.1730108
1.1728905
1.1728036
1.1728905
1.1731807
1.1732438
1.1730096
1.1728499
1.173026
1.1729692
1.1727683
1.1725391
1.1726433
1.1728914
1.1726519
1.1728612
1.1726988
1.1729221
1.1728441
1.1728143
1.1728339
1.1726773
1.1726585
1.1723541
1.1725528
1.1725726
1.172374
1.1724491
1.1722685
1.1724368
1.1721102
1.1723066
1.1725378
1.1727668
1.1726793
1.1731098
1.1728439
1.1725041
1.172216
1.1724379
1.1727378
1.1723039
1.1723551
1.1728561
1.1723234
1.1721671
1.1726395
1.1719674
1.1717691
1.1719822
1.1716707
1.1719336
1.1722271
1.1720299
1.1723608
1.1721147
1.1717132
1.1713846
1.1718689
1.1716316
1.1720979
1.1719921
1.1723946
1.1725314
1.1725092
1.1723683
1.1726947
1.1727298
1.1729794
1.1730545
1.1731121
1.1730455
1.1728206
1.1729081
1.1729974
1.1727917
1.1726976
1.1724068
1.1725951
1.172312
1.1725453
1.1724997
1.1722177
1.1722752
1.1724087
1.1721327
1.1724457
1.1722143
1.17253
1.172354
1.1726646
1.1725541
1.1728272
1.1724151
1.1725379
1.1721734
1.1720184
1.17221
1.1721508
1.1721775
1.1717414
1.1720144
1.1722792
1.1722546
1.1719863
1.1715468
1.171897
1.1719251
1.1715829
1.1712143
1.1711563
1.1716998
1.171421
1.1719597
1.1717588
1.1722315
1.1726057
1.172899
1.1731161
1.1733765
1.1734033
1.1733386
1.1733119
1.1730813
1.1730987
1.1731337
1.172921
1.1728719
1.1728488
1.1725417
1.1725666
1.1726293
1.1722696
1.1723658
1.1725484
1.172474
1.1722836
1.1718302
1.1719437
1.1721624
1.1724069
1.1726599
1.1731269
1.173053
1.1725154
1.1723336
1.1720607
1.1720077
1.172435
1.1722274
1.1722032
1.1725852
1.172719
1.173008
1.173013
1.1731975
1.1734761
1.1735185
1.1736436
1.1737607
1.173832
1.173868
1.1738481
1.1738265
1.1738213
1.1738938
1.1738215
1.1738266
1.1737996
1.1737137
1.1737501
1.1736422
1.1735961
1.173662
1.1737052
1.1737647
1.1737191
1.1737537
1.1738339
1.1738482
1.1737534
1.1737505
1.1736417
1.173471
1.1732559
1.1734444
1.1735866
1.1734555
1.1733638
1.1730867
1.1732679
1.1735942
1.1736626
1.1737052
1.1738271
1.1738263
1.1737993
1.1738199
1.173695
1.1735828
1.1734541
1.1733833
1.1731114
1.1732648
1.1734658
1.1732381
1.1734349
1.1736411
1.1735633
1.173629
1.1737418
1.1738198
1.1737869
1.1736965
1.1736778
1.1734261
1.1729735
1.1726418
1.1726177
1.1730121
1.1734748
1.1736981
1.1737121
1.1738442
1.1737983
1.1738184
1.1738668
1.1737505
1.1738074
1.1738353
1.1738142
1.1737179
1.1737404
1.1736371
1.1736247
1.1736426
1.1736683
1.1736558
1.1736587
1.173731
1.1737782
1.1738497
1.173718
1.1736872
1.1736792
1.1737765
1.1737877
1.1737573
1.1737255
1.1736129
1.1736256
1.1736479
1.1736394
1.1736711
1.1737376
1.1737146
1.1736031
1.1736195
1.1735392
1.1734785
1.1734539
1.1734452
1.1734698
1.173514
1.1736511
1.1736413
1.1736679
1.173729
1.1736445
1.1735765
1.1736186
1.1737254
1.1736987
1.1736998
1.1735634
1.1735728
1.1735228
1.1733859
1.1734134
1.1733443
1.1733597
1.1733312
1.1733318
1.1733527
1.1733251
1.1733053
1.173049
1.1730586
1.1730773
1.1730674
1.1728295
1.172843
1.172816
1.172802
1.1724729
1.1724907
1.1725238
1.1725076
1.1720807
1.172109
1.1721789
1.1721359
1.1716333
1.171689
1.1718129
1.1711985
1.1714778
1.1708528
1.1710601
1.1713833
1.1718976
1.1717307
1.1720316
1.1726911
1.1725625
1.1719302
1.1714365
1.1715839
1.1720657
1.1718258
1.1719127
1.1713671
1.1718737
1.1722909
1.1722715
1.1726069
1.1730432
1.1725214
1.1725593
1.1718443
1.1713242
1.1718644
1.1719582
1.1720172
1.1719104
1.1721635
1.1720579
1.1724308
1.1724023
1.1728073
1.1727399
1.173109
1.1730953
1.1728935
1.1730833
1.1732331
1.1733847
1.1734891
1.173562
1.173448
1.1736981
1.1735499
1.1734385
1.173371
1.173437
1.1733348
1.1732544
1.1730639
1.1731508
1.1730385
1.1732412
1.1733106
1.1734701
1.1735709
1.1733457
1.1731549
1.1731504
1.173068
1.1732516
1.1733947
1.173585
1.1737611
1.1734636
1.1733679
1.1736737
1.1734888
1.1733516
1.17327
1.1733263
1.1735905
1.1735515
1.173452
1.1733126
1.1731579
1.1729507
1.1728494
1.1730855
1.1732588
1.1734888
1.1735652
1.1735266
1.173661
1.1736324
1.1737117
1.1737114
1.173757
1.173827
1.1738968
1.1739157
1.1739156
1.1739024
1.173916
1.1738881
1.173882
1.1738667
1.1738431
1.1737963
1.1738156
1.1737089
1.1736389
1.1736191
1.173714
1.1737367
1.1738372
1.1736654
1.1736318
1.1736532
1.1737264
1.1738163
1.173866
1.1737478
1.1738078
1.1736518
1.1737151
1.1738509
1.1737749
1.1736817
1.1736725
1.1736376
1.1736128
1.1735965
1.1735051
1.1735054
1.1734313
1.1734565
1.1736268
1.1736286
1.1734382
1.1734871
1.1734058
1.1733825
1.1734076
1.1734374
1.1732736
1.173254
1.1732559
1.1732854
1.1733463
1.1735361
1.1734324
1.1734519
1.17323
1.1731968
1.173194
1.1734384
1.1734696
1.1732152
1.1731535
1.1733605
1.1733747
1.173496
1.1735326
1.1735228
1.1737366
1.1733909
1.1733206
1.1732927
1.1734592
1.1736773
1.1733266
1.1733652
1.1734147
1.1733965
1.1734737
1.1731773
1.1730197
1.1729975
1.1731924
1.1731075
1.173183
1.1729542
1.1728588
1.1727489
1.1730054
1.1732002
1.1731588
1.17341
1.1733337
1.1734705
1.1732009
1.1732374
1.1730662
1.1731519
1.1729385
1.1730555
1.1729541
1.172893
1.1731141
1.1730172
1.1728973
1.1729506
1.1726692
1.1727963
1.1727337
1.1726008
1.1725591
1.1728685
1.1730977
1.1731203
1.173066
1.1731075
1.1733912
1.173356
1.1733263
1.1731319
1.1731359
1.173297
1.1733606
1.1731741
1.1729961
1.1730744
1.1731469
1.1732335
1.1730688
1.1730149
1.1729984
1.1731924
1.1732146
1.1730189
1.1728998
1.1731143
1.1730925
1.1728796
1.1729018
1.1731023
1.1730238
1.1730124
1.1730367
1.1727909
1.172768
1.1726577
1.1729263
1.1729517
1.1726834
1.172365
1.1725106
1.1726605
1.1728228
1.1728771
1.172998
1.1727614
1.1726285
1.1724373
1.1727245
1.1728496
1.1729704
1.1727558
1.1727944
1.1728369
1.1724987
1.1726759
1.1724359
1.1722122
1.1722985
1.1723529
1.1728541
1.1728349
1.1726141
1.172861
1.1727684
1.1724928
1.1725821
1.1726275
1.1721552
1.1723158
1.1719762
1.1717586
1.1719506
1.1720529
1.1726862
1.1726479
1.1723886
1.172691
1.1726315
1.1723075
1.1724867
1.1725426
1.1719071
1.1720167
1.1715686
1.1714096
1.1717862
1.1718726
1.172574
1.1725271
1.1722576
1.1725935
1.172863
1.1730929
1.1732757
1.1734762
1.1737059
1.1733356
1.1733162
1.1736865
1.1734535
1.1732663
1.1731703
1.173183
1.1734896
1.1733525
1.1733243
1.1734669
1.173466
1.1734529
1.1736858
1.1735407
1.1737149
1.1736936
1.1733994
1.1733582
1.1733844
1.17356
1.1737382
1.1734492
1.1735611
1.173511
1.1734606
1.1729649
1.1727672
1.1731268
1.1731631
1.172835
1.1730782
1.1729802
1.1734808
1.1734094
1.1737069
1.1737182
1.1737714
1.173638
1.1735883
1.1734279
1.1735003
1.1735556
1.1736378
1.1735362
1.1733021
1.1731012
1.1729258
1.1732243
1.1733368
1.1732054
1.173215
1.1730844
1.1731192
1.1730362
1.1730494
1.1730274
1.1730288
1.1729425
1.1729715
1.1733695
1.1733558
1.1730808
1.1728493
1.1726818
1.1727018
1.1729956
1.1729793
1.1728503
1.1730839
1.1730251
1.1730403
1.1733352
1.1733185
1.1732796
1.173041
1.1730833
1.1730866
1.1733194
1.1733795
1.1731268
1.1730858
1.1733159
1.1732444
1.1730434
1.1728117
1.1728737
1.1729393
1.1726835
1.1727923
1.1728637
1.1729651
1.172757
1.172899
1.1728258
1.1727999
1.1725407
1.1725631
1.1723592
1.1723357
1.1726378
1.1726707
1.1723821
1.1725794
1.172678
1.1724964
1.1721808
1.1724269
1.1722991
1.1722462
1.1722726
1.1723559
1.1725341
1.1722252
1.1720273
1.1717084
1.172107
1.1723004
1.172576
1.1724252
1.1727372
1.1725857
1.1722537
1.1720749
1.1724523
1.1726134
1.1722607
1.1718854
1.172103
1.1718603
1.1713794
1.1716659
1.1719297
1.1715655
1.1719349
1.172171
1.1718902
1.1715363
1.1718899
1.1723972
1.1728811
1.1734448
1.1733158
1.1730644
1.1726066
1.1721536
1.1726037
1.1730604
1.1723496
1.1724316
1.1732442
1.1724967
1.1724033
1.1730667
1.1720381
1.1717946
1.1719245
1.1714235
1.1718782
1.1724721
1.1732461
1.1730159
1.1724166
1.1720191
1.1730642
1.1723961
1.1717646
1.1711486
1.1720043
1.1727004
1.1720207
1.1711941
1.1715089
1.1717772
1.171833
1.1720196
1.1720445
1.1730816
1.17299
1.1735183
1.1734092
1.1737159
1.1735465
1.1735647
1.1737377
1.1734552
1.1733921
1.1733687
1.173145
1.1731744
1.1735617
1.1730897
1.1728507
1.1727977
1.1725676
1.1725249
1.1730444
1.1729656
1.1733632
1.173328
1.1736825
1.1734655
1.1734894
1.1737027
1.1733485
1.1732953
1.173286
1.1731068
1.1731185
1.1733772
1.1729955
1.1728964
1.1728837
1.172728
1.1725981
1.1728968
1.1731214
1.1733483
1.1733779
1.1735001
1.1732103
1.1731351
1.1731596
1.1733603
1.1734813
1.1734724
1.1736738
1.1737313
1.173534
1.1733393
1.173313
1.1733394
1.1734015
1.1734198
1.1733727
1.1731411
1.1731769
1.172971
1.1729287
1.1729787
1.1730752
1.1730427
1.1734046
1.1733803
1.173672
1.1735932
1.1737085
1.1737221
1.1737719
1.1736429
1.1735084
1.1734357
1.1734181
1.1735616
1.1736431
1.1734887
1.173548
1.1730003
1.1729443
1.1732363
1.1733493
1.1731215
1.1733181
1.1732559
1.1735744
1.1735309
1.173739
1.1737021
1.1738109
1.1738162
1.1738835
1.17386
1.1737926
1.1737732
1.1738262
1.1738327
1.1738371
1.1738544
1.1738586
1.1738963
1.173846
1.1737506
1.1738664
1.1737764
1.1738259
1.173766
1.1737111
1.1737085
1.1737601
1.1738454
1.1737697
1.1737335
1.1736759
1.1735724
1.1735875
1.1736898
1.1737595
1.173822
1.1738103
1.1737599
1.1736608
1.1737674
1.1735683
1.1734542
1.1732898
1.1734543
1.1735732
1.1735306
1.1736916
1.173588
1.1737338
1.1738469
1.1737393
1.1736764
1.1735728
1.1735007
1.1735854
1.1737196
1.1737266
1.1738385
1.1737042
1.173766
1.1737252
1.1737878
1.1737502
1.1738189
1.173698
1.1736457
1.1736592
1.1736222
1.1737048
1.1737076
1.1737681
1.1737295
1.1737635
1.1736249
1.1736373
1.1736138
1.1735032
1.1735248
1.1734149
1.1734355
1.1733371
1.1733562
1.1732879
1.1732978
1.1732691
1.1732686
1.1732879
1.173278
1.1733601
1.1734096
1.1731764
1.173127
1.173093
1.1731465
1.173127
1.1733683
1.1733544
1.1731216
1.1730613
1.1730697
1.1728345
1.1728705
1.1729202
1.1729937
1.1729493
1.1726834
1.172743
1.172641
1.1725764
1.1725153
1.1726346
1.1729194
1.1729139
1.1728217
1.1725008
1.1726414
1.1722081
1.172192
1.1723114
1.172414
1.1722738
1.1721718
1.1716789
1.171807
1.1719882
1.1718536
1.171653
1.1714401
1.1720379
1.1720418
1.1720025
1.1714279
1.1714888
1.1715877
1.1717509
1.1717176
1.1719783
1.1724134
1.1724291
1.1726178
1.1726318
1.1730631
1.1725626
1.1723056
1.1722899
1.1720051
1.1717572
1.1722257
1.1722539
1.1726197
1.1729151
1.1730292
1.1727469
1.1727838
1.1730537
1.1732293
1.1732639
1.1735415
1.1734325
1.1731954
1.1729975
1.1729482
1.1726691
1.1727303
1.1728414
1.1730997
1.1731409
1.1732958
1.1735073
1.1735018
1.1735934
1.1737556
1.1734713
1.1734106
1.1733698
1.1732168
1.173273
1.1734771
1.173192
1.1730959
1.173029
1.1729036
1.1728094
1.1730515
1.1732355
1.1734003
1.1735067
1.1735974
1.1733488
1.1732898
1.1733404
1.1734733
1.1735613
1.1735606
1.1736971
1.1737954
1.1736666
1.1735007
1.1734527
1.1734579
1.173566
1.1735718
1.1734766
1.1733296
1.1734
1.1732537
1.1731749
1.173173
1.1733543
1.1733912
1.1732259
1.1732294
1.1731045
1.1731318
1.1730538
1.172675
1.1727296
1.1724357
1.1723626
1.1725252
1.1726752
1.1727
1.1725691
1.1725935
1.1718926
1.1718767
1.1713745
1.1718814
1.1719249
1.1713891
1.1708687
1.1715363
1.1720324
1.1724523
1.172505
1.1723285
1.1724114
1.1725806
1.1722071
1.1721062
1.171897
1.1717902
1.1711527
1.1710968
1.1710229
1.1710957
1.1712274
1.1714024
1.1707327
1.1711454
1.1709357
1.1715833
1.1715021
1.1714512
1.1707455
1.1708264
1.1702832
1.1704781
1.1701437
1.1709949
1.170873
1.1710895
1.1702733
1.1707745
1.1708493
1.1714847
1.1717721
1.1720535
1.1716276
1.1719673
1.1715626
1.1719613
1.1718928
1.1719217
1.1715771
1.1720042
1.1719738
1.1715409
1.1716166
1.1720336
1.1717461
1.1721766
1.1725188
1.172483
1.1721281
1.1721585
1.1719623
1.1719251
1.1723331
1.1723682
1.1724708
1.1726152
1.1723024
1.1720972
1.1719708
1.1714492
1.171401
1.1716873
1.1717309
1.1712084
1.1711534
1.1707622
1.1708346
1.1714584
1.1716166
1.1710474
1.1713724
1.1711352
1.1717197
1.1721419
1.1725288
1.1723409
1.1719198
1.1717889
1.1722481
1.1724462
1.1720285
1.1715605
1.1712023
1.1713941
1.1707277
1.1704447
1.1709082
1.1707851
1.1714743
1.1719692
1.1724037
1.1721903
1.1717069
1.171662
1.1721602
1.172536
1.172443
1.1724707
1.1725188
1.1725946
1.1728912
1.172862
1.1725641
1.1724837
1.1728017
1.1728334
1.1728006
1.1727657
1.1730133
1.1732961
1.1732672
1.1733081
1.1733068
1.1734306
1.1735986
1.1735991
1.1736041
1.1734119
1.173257
1.1733255
1.1730561
1.1730137
1.1729965
1.1732287
1.1733001
1.1730392
1.172806
1.1728308
1.1728723
1.172933
1.172666
1.172761
1.1728959
1.1729805
1.1730636
1.1731461
1.1732273
1.1732304
1.1734202
1.173681
1.173734
1.1738098
1.1738432
1.1738748
1.1738923
1.1739074
1.1738926
1.1738728
1.1738839
1.1738593
1.1738082
1.1738503
1.1738071
1.1737327
1.1737262
1.173764
1.1738162
1.1737565
1.1737753
1.1736964
1.1736177
1.1736101
1.1736796
1.1737341
1.1736559
1.1737102
1.1737141
1.1737978
1.1738156
1.1738027
1.1737371
1.1737293
1.173807
1.1738395
1.1738793
1.1738299
1.1738356
1.1738493
1.1738795
1.1738792
1.1738396
1.1738065
1.1738476
1.1738641
1.1738155
1.1738145
1.1738109
1.1738537
1.1738524
1.1738771
1.1738774
1.1738514
1.1738739
1.1738729
1.1738953
1.1738838
1.1738634
1.173864
1.1738725
1.1738829
1.1738878
1.1738621
1.1738528
1.1738092
1.1737995
1.1737652
1.1737693
1.1737115
1.1737852
1.1737714
1.1738083
1.1738514
1.1738206
1.1737693
1.1737287
1.1737779
1.1737423
1.1736878
1.1736193
1.1736222
1.1737009
1.1736656
1.1737195
1.1737457
1.17376
1.1738179
1.1738091
1.1737772
1.1738014
1.1737191
1.1737002
1.1736777
1.173598
1.173589
1.1736622
1.1735799
1.1734961
1.1734385
1.1734371
1.1735234
1.1734908
1.173542
1.1735597
1.1736113
1.1737014
1.1736612
1.1736071
1.1736266
1.1735208
1.1735229
1.1735888
1.1734212
1.1734357
1.1735156
1.1734245
1.1733558
1.1732431
1.1732372
1.1733941
1.1733365
1.1734305
1.1734932
1.1735764
1.1736172
1.1735695
1.1733924
1.1734001
1.1735106
1.1735875
1.1736749
1.1735954
1.1735856
1.1736583
1.173515
1.1734295
1.1734247
1.1734826
1.1735657
1.1734758
1.1735265
1.1735117
1.1736062
1.1736967
1.173618
1.1735916
1.1736471
1.1735446
1.1735479
1.1736228
1.1737269
1.1737442
1.1736677
1.1735629
1.1735166
1.1736179
1.1737008
1.1735901
1.173677
1.1736927
1.1736239
1.1736265
1.1736441
1.1736966
1.1736362
1.1737924
1.173731
1.1737262
1.1737179
1.1737366
1.173728
1.1737079
1.1736429
1.173616
1.173614
1.1736108
1.173516
1.1735097
1.1734307
1.1733405
1.1734077
1.173319
1.1733863
1.173384
1.1735617
1.1735211
1.1735593
1.1734761
1.1734126
1.1733535
1.1733934
1.1733825
1.173364
1.173245
1.1733882
1.1732483
1.1731293
1.1729745
1.1730061
1.173244
1.1731352
1.1732881
1.1733717
1.1735059
1.1735391
1.1736294
1.1736436
1.1736578
1.1736413
1.1736507
1.1737413
1.1737403
1.1737214
1.1737252
1.1736256
1.1736219
1.173638
1.1737938
1.1737874
1.1737179
1.17379
1.1738115
1.1737351
1.1737706
1.1737345
1.1738111
1.1738206
1.1738428
1.1738074
1.1737384
1.1737145
1.1737224
1.1737284
1.1737278
1.1735675
1.1735822
1.1736373
1.1737799
1.173756
1.1737386
1.1738532
1.1738765
1.1738042
1.173783
1.1738026
1.1737827
1.1737311
1.1737777
1.1738076
1.1738134
1.1738445
1.1738814
1.1738848
1.1738507
1.1738392
1.1738097
1.1738407
1.1738494
1.1738575
1.1738169
1.1738207
1.1738191
1.173866
1.1738567
1.1738403
1.1738131
1.1738621
1.1738265
1.1738246
1.1737729
1.1738079
1.173859
1.1738867
1.1738681
1.1738188
1.1738529
1.1738818
1.1738237
1.1738348
1.1739053
1.1738894
1.1738803
1.1739042
1.1738551
1.1738908
1.1738644
1.1739086
1.1739263
1.1739624
1.1739106
1.1739694
1.1739419
1.1739293
1.1738688
1.1739202
1.173967
1.1739237
1.173862
1.1738839
1.1738626
1.1738333
1.1738104
1.1738609
1.1739046
1.1738854
1.1738762
1.1738224
1.1738212
1.1737672
1.1737858
1.1738055
1.1738102
1.1738021
1.1737227
1.1737582
1.1737697
1.1737077
1.173709
1.1737214
1.1735584
1.1736122
1.1736271
1.173621
1.1736354
1.1735741
1.1736481
1.1736221
1.1734842
1.1735113
1.1735766
1.1734961
1.1733787
1.1734396
1.1733984
1.1733282
1.1733974
1.173409
1.1735188
1.1733601
1.1732812
1.1732329
1.1733192
1.1734628
1.1733223
1.173417
1.1734435
1.1734699
1.1734981
1.1734418
1.1733647
1.1732812
1.1732114
1.1733087
1.1731923
1.1732578
1.1733697
1.1734991
1.1735425
1.1735211
1.1735561
1.1735394
1.1736196
1.1734859
1.1734294
1.173601
1.1735245
1.1734874
1.1735037
1.1733741
1.1734058
1.1733306
1.1734769
1.1734561
1.1732903
1.1731276
1.1732609
1.1731503
1.1730849
1.1732106
1.1730633
1.1732522
1.1733417
1.1733144
1.1733947
1.1734298
1.1735623
1.1736948
1.1737147
1.1737954
1.1737023
1.1737089
1.1737997
1.1737621
1.1737625
1.1737965
1.1737998
1.1736948
1.173684
1.1735859
1.1736088
1.1734755
1.1734521
1.173547
1.1736597
1.1736658
1.1735662
1.1735723
1.1735937
1.1735984
1.1737297
1.1737237
1.1737098
1.1737134
1.1736304
1.1736186
1.173725
1.1737159
1.1737261
1.1737129
1.1737905
1.1737308
1.1738485
1.173803
1.1738318
1.1738652
1.1739065
1.1738604
1.1737493
1.1737268
1.1735747
1.1735596
1.1735117
1.1732491
1.1732423
1.173005
1.1732402
1.1731131
1.1732301
1.1731205
1.1729618
1.1728037
1.1729796
1.1731598
1.1730137
1.1728135
1.172619
1.172867
1.1730014
1.1732071
1.1732787
1.1732514
1.173514
1.1735654
1.1734635
1.1734296
1.1734786
1.1734177
1.173448
1.1734873
1.1736057
1.1737261
1.1737432
1.1737477
1.1735198
1.173591
1.1736031
1.1735863
1.1735232
1.17375
1.1737313
1.1737414
1.1736232
1.1736055
1.1737563
1.1738657
1.1738342
1.1739174
1.1738636
1.1739218
1.1737672
1.1738446
1.1737638
1.1739198
1.173958
1.1738544
1.1738207
1.1738555
1.1738148
1.1737833
1.1737656
1.1737173
1.1737954
1.1738234
1.1738407
1.1738201
1.1737214
1.1737777
1.1738049
1.1738819
1.1738542
1.1738984
1.173936
1.1738461
1.1737415
1.1736109
1.1736089
1.1736049
1.1734638
1.1733016
1.173153
1.1730076
1.172828
1.1730178
1.1729083
1.173066
1.1728957
1.1726861
1.1724448
1.1726343
1.1728796
1.1727137
1.172402
1.1721235
1.1718022
1.1714226
1.1719047
1.1715936
1.1709897
1.1708263
1.1712268
1.1705573
1.1711058
1.1710208
1.1714821
1.1715248
1.1716647
1.1712552
1.1715652
1.1711009
1.1707386
1.1712565
1.1708193
1.1712223
1.1715902
1.1724322
1.1718454
1.1717745
1.1718438
1.1711622
1.1715924
1.1713113
1.170789
1.1712377
1.171283
1.171878
1.1706997
1.1711578
1.1707815
1.1713068
1.1720494
1.1712251
1.1712785
1.1702394
1.1696653
1.170237
1.1694811
1.1701584
1.1708369
1.171221
1.170816
1.1703704
1.1695938
1.1701738
1.1706571
1.1701017
1.1706531
1.1701681
1.1695762
1.1703706
1.1708364
1.1701483
1.1694851
1.1687285
1.1694572
1.168727
1.1678491
1.168741
1.1680657
1.1689162
1.1697111
1.1705033
1.1710651
1.1708653
1.1701915
1.170465
1.1713937
1.1709755
1.1712159
1.170166
1.1707978
1.1707543
1.1702135
1.1712016
1.1713961
1.1713343
1.1709905
1.1714466
1.1698331
1.1694891
1.1687198
1.1691757
1.1705996
1.1704133
1.1705859
1.1714466
1.1713806
1.1721643
1.171055
1.1704426
1.1701525
1.1708426
1.1718882
1.1709245
1.170962
1.1694663
1.1698184
1.1691448
1.1686881
1.1698293
1.1702071
1.1712819
1.171136
1.171998
1.1707366
1.1713207
1.1718405
1.1718124
1.1722357
1.172577
1.1723782
1.1719348
1.1714247
1.1710096
1.1710778
1.1702585
1.1701478
1.1707137
1.1712806
1.1718101
1.1725401
1.1724867
1.172486
1.1722341
1.1725759
1.1728483
1.1730801
1.1732659
1.1733156
1.1733359
1.1737057
1.1734758
1.1732748
1.173182
1.1731694
1.1730828
1.1733235
1.173351
1.173489
1.1734684
1.1735251
1.1736594
1.1736321
1.1737346
1.1737246
1.1737839
1.1737484
1.1737157
1.1736034
1.1734108
1.1734347
1.1736255
1.1736249
1.1734542
1.1734996
1.1736255
1.173655
1.1735626
1.1736056
1.1737159
1.1737736
1.1737613
1.1737875
1.1738565
1.1737643
1.1736923
1.1736867
1.1736823
1.173628
1.1734815
1.1735351
1.1735521
1.1736044
1.1736472
1.1737148
1.1737813
1.1737422
1.1738169
1.1738228
1.1737613
1.1738127
1.1738438
1.1737467
1.1738095
1.1736976
1.1737053
1.1737009
1.1737708
1.1738663
1.1737568
1.1738437
1.1737355
1.1737542
1.1735223
1.1735636
1.1736701
1.1737262
1.1737636
1.1736843
1.1735755
1.173554
1.1734406
1.1735638
1.1736482
1.1732357
1.1732684
1.1734354
1.1735589
1.1737601
1.173682
1.1737512
1.1738171
1.1738067
1.173856
1.1738953
1.1738514
1.1738333
1.1738281
1.17382
1.1737169
1.1737565
1.1737579
1.1736906
1.1735905
1.1736146
1.1736074
1.1736306
1.17369
1.1736972
1.1737223
1.1737979
1.1736958
1.1737587
1.1736722
1.1737352
1.1736762
1.1734578
1.1732909
1.1733259
1.1733899
1.173318
1.1735208
1.1735302
1.173406
1.1733311
1.173116
1.1730959
1.1728669
1.1728484
1.1729781
1.1726802
1.1725336
1.1725576
1.1727013
1.1729944
1.1730923
1.1733694
1.1733548
1.1729417
1.1729728
1.1728628
1.1728903
1.1731119
1.1733635
1.1729542
1.1730548
1.1734127
1.173149
1.1729352
1.172791
1.1727293
1.1730135
1.1731981
1.1732338
1.1731535
1.1729437
1.1728918
1.1725941
1.1726609
1.1725828
1.1725084
1.1724685
1.1724393
1.1727775
1.17278
1.172743
1.1729972
1.1729949
1.1732661
1.1732933
1.1733338
1.1730379
1.1730235
1.1730097
1.1730087
1.1729935
1.1732272
1.1732985
1.1730352
1.1730498
1.1733207
1.1732541
1.1732393
1.1732749
1.1733151
1.1730602
1.173033
1.1730735
1.1733494