/*--------------------------------*- C++ -*----------------------------------*\
  =========                 |
  \\      /  F ield         | OpenFOAM: The Open Source CFD Toolbox
   \\    /   O peration     | Website:  https://openfoam.org
    \\  /    A nd           | Version:  7
     \\/     M anipulation  |
\*---------------------------------------------------------------------------*/
FoamFile
{
    version     2.0;
    format      ascii;
    class       volScalarField;
    location    "70";
    object      T;
}
// * * * * * * * * * * * * * * * * * * * * * * * * * * * * * * * * * * * * * //

dimensions      [0 0 0 1 0 0 0];

internalField   nonuniform List<scalar> 
25278
(
299.99637
299.99963
299.99822
299.99822
300.00948
299.99973
299.99585
299.99634
299.99592
299.9946
299.99586
299.99674
299.99786
300.00188
300.1032
299.99824
299.99961
300.08528
300.12139
300.07202
300.02471
300.01639
300.00801
299.99899
300.00435
299.99905
300.00812
300.02526
300.04282
300.03141
300.04701
300.06099
300.10951
300.07713
300.06182
300.0762
300.06599
300.07884
300.09019
300.12225
300.10323
300.09085
300.10723
300.09105
300.06491
300.02826
300.00092
300.00238
300.03529
300.05743
300.0648
300.0805
300.15065
300.13438
300.09947
300.08808
300.09715
300.10941
300.15107
300.13696
300.1223
300.13468
300.14296
300.10247
300.11514
300.11909
300.10578
300.14709
300.16459
300.15965
300.20833
300.19688
300.17726
300.15651
300.129
300.09946
300.06224
300.03185
300.01678
300.03119
300.04449
300.10371
300.086
300.12357
300.04443
300.05936
300.14058
300.23042
300.19755
300.15286
300.15151
300.20097
300.1974
300.25675
300.26414
300.20132
300.19219
300.1403
300.13403
300.18914
300.19146
300.26429
300.26452
300.1902
300.2364
300.23277
300.23846
300.32623
300.30871
300.33853
300.2533
300.2667
300.36657
300.38622
300.33695
300.34723
300.40321
300.26868
300.26224
300.26244
300.12383
300.04452
300.00953
300.20004
300.25912
300.31005
300.33819
300.25355
300.14098
300.05949
300.04487
300.03153
300.08692
300.10471
300.19933
300.23167
300.23979
300.26703
300.3664
300.32804
300.33871
300.38595
300.40238
300.26868
300.23714
300.23393
300.19403
300.20327
300.267
300.20413
300.10525
300.15482
300.15362
300.14238
300.0875
300.13618
300.19192
300.26759
300.34831
300.48411
300.58001
300.58651
300.48159
300.34379
300.23345
300.23101
300.25922
300.26331
300.39453
300.38277
300.33527
300.4484
300.51467
300.57643
300.52107
300.36497
300.51408
300.5089
300.3287
300.47995
300.58057
300.51203
300.45037
300.34012
300.26744
300.19473
300.19267
300.2387
300.34984
300.40394
300.38803
300.26403
300.1251
300.23552
300.26988
300.25902
300.4209
300.63742
300.77315
300.80974
300.62458
300.40847
300.25181
300.22266
300.17271
300.11607
300.07752
300.04323
300.06197
300.04799
300.07711
300.11077
300.10416
300.09179
300.06691
300.08021
300.09158
300.12381
300.10873
300.09244
300.07652
300.03809
300.01781
300.00118
300.00242
300.01089
300.02443
300.00782
300.02915
300.05456
300.03827
300.05597
300.07014
300.04808
300.0662
300.07475
300.03674
300.00306
300.02567
300.07357
300.05902
300.10128
300.13678
300.13917
300.1245
300.08993
300.09958
300.11179
300.15413
300.13768
300.14658
300.10535
300.06703
300.08271
300.1543
300.11787
300.16324
300.16859
300.12218
300.10904
300.15119
300.13052
300.1267
300.11901
300.10731
300.08173
300.05457
300.06043
300.08305
300.08787
300.04204
300.0115
300.01029
300.0353
300.03121
300.01315
300.00911
300.01558
300.03667
300.04588
300.02215
300.02529
300.01477
300.0153
300.03868
300.05769
300.05323
300.08053
300.07495
300.06657
300.04928
300.02156
300.01058
300.00213
300.01743
300.03771
300.05374
300.03743
300.04683
300.06883
300.05513
300.07567
300.10033
300.06526
300.07431
300.09426
300.1066
300.11735
300.14447
300.11726
300.15675
300.16983
300.20671
300.19169
300.24504
300.19563
300.15736
300.11811
300.12985
300.17385
300.17041
300.20837
300.15816
300.14606
300.19328
300.24625
300.25675
300.2071
300.26174
300.25545
300.31873
300.30512
300.26247
300.23589
300.2071
300.18416
300.15884
300.1386
300.12652
300.14047
300.11901
300.13029
300.1541
300.17729
300.16305
300.14563
300.13684
300.10244
300.1286
300.112
300.09426
300.07882
300.08898
300.10561
300.12417
300.10551
300.12158
300.108
300.12376
300.14881
300.16856
300.18728
300.20538
300.23191
300.21263
300.19004
300.17467
300.13738
300.1011
300.07504
300.10293
300.12964
300.11311
300.09543
300.10783
300.1186
300.13986
300.12774
300.14209
300.12061
300.13195
300.15583
300.17903
300.16006
300.14678
300.1696
300.18527
300.20708
300.18885
300.16467
300.14533
300.12569
300.10711
300.09044
300.07997
300.09536
300.10695
300.12295
300.10899
300.12463
300.14972
300.16596
300.1391
300.11027
300.10082
300.066
300.02587
300.02102
300.03627
300.04972
300.05891
300.07864
300.08711
300.06642
300.0566
300.0413
300.02433
300.02083
300.02409
300.04209
300.04657
300.02773
300.02785
300.02475
300.04568
300.06589
300.08902
300.099
300.07419
300.08044
300.07259
300.04877
300.02339
300.02523
300.05184
300.05025
300.0525
300.04938
300.04392
300.06059
300.0713
300.09411
300.11611
300.09755
300.11559
300.13016
300.14189
300.17037
300.17983
300.22612
300.23904
300.22838
300.25661
300.19003
300.20074
300.26886
300.33727
300.29744
300.35887
300.37297
300.36598
300.29345
300.33233
300.41882
300.4304
300.46009
300.36031
300.2862
300.21303
300.25795
300.22003
300.20926
300.20291
300.2749
300.28302
300.29511
300.37089
300.42137
300.46818
300.44867
300.44878
300.35591
300.36457
300.32522
300.3222
300.31521
300.30571
300.29114
300.27496
300.25418
300.23353
300.20801
300.19089
300.21621
300.23642
300.26484
300.24032
300.21404
300.18691
300.16764
300.13094
300.16694
300.13788
300.15373
300.13785
300.16456
300.14385
300.15641
300.1348
300.1137
300.07977
300.05286
300.073
300.08071
300.05812
300.08751
300.11615
300.10523
300.13983
300.16778
300.1862
300.2515
300.2253
300.236
300.26357
300.27924
300.26778
300.19809
300.20379
300.2147
300.28731
300.27475
300.35067
300.34499
300.32557
300.29015
300.29422
300.35416
300.33053
300.422
300.37036
300.36312
300.41023
300.43057
300.4437
300.34999
300.35797
300.44221
300.42137
300.37759
300.34999
300.31338
300.28032
300.24266
300.21062
300.17627
300.12642
300.08771
300.03988
300.00951
300.00905
300.00707
300.02366
300.00843
300.01207
300.03003
300.04465
300.03591
300.01487
300.021
300.02356
300.01328
300.03371
300.0365
300.01325
300.02344
300.05512
300.05138
300.07882
300.07357
300.06549
300.04862
300.02041
300.03529
300.04868
300.05526
300.06513
300.05793
300.07763
300.08575
300.09774
300.08812
300.06558
300.02548
300.04487
300.04119
300.02317
300.01985
300.02305
300.04001
300.04533
300.02651
300.02673
300.02394
300.02273
300.04814
300.07187
300.06504
300.07299
300.07939
300.10913
300.10007
300.10961
300.08099
300.02913
300.04918
300.07702
300.08386
300.11931
300.12824
300.12022
300.15418
300.18856
300.21571
300.23915
300.26354
300.29299
300.26637
300.24028
300.2671
300.29385
300.32654
300.29327
300.24884
300.22865
300.20736
300.18572
300.20121
300.17867
300.20393
300.17754
300.1525
300.12818
300.13741
300.15009
300.17857
300.16639
300.19195
300.20637
300.18993
300.16307
300.14384
300.12187
300.10215
300.09574
300.11425
300.12136
300.12676
300.10647
300.12756
300.14423
300.15755
300.16495
300.1506
300.17911
300.17192
300.18809
300.19688
300.2276
300.21754
300.20035
300.20853
300.23896
300.22995
300.21818
300.23986
300.2227
300.25172
300.23166
300.24761
300.27125
300.30911
300.28624
300.26015
300.27788
300.23676
300.21369
300.19018
300.16681
300.13952
300.13166
300.14872
300.15697
300.16279
300.14537
300.17509
300.15114
300.15689
300.13293
300.11021
300.13075
300.14936
300.1814
300.20569
300.19922
300.22306
300.26073
300.286
300.25292
300.26469
300.27212
300.23446
300.20293
300.16975
300.12309
300.08505
300.06081
300.06236
300.09392
300.09201
300.05656
300.03751
300.0126
300.0119
300.03794
300.05675
300.02062
300.02198
300.04231
300.04333
300.04383
300.04377
300.04232
300.05893
300.06179
300.08371
300.09733
300.09236
300.06963
300.07246
300.04856
300.04777
300.02706
300.02389
300.02351
300.026
300.02372
300.02229
300.02025
300.02072
300.04655
300.048
300.0738
300.06321
300.08661
300.08906
300.06388
300.07408
300.10285
300.10073
300.11329
300.11009
300.10499
300.0775
300.07986
300.08437
300.08315
300.11634
300.121
300.12345
300.0835
300.08046
300.07972
300.11491
300.12397
300.16636
300.16786
300.15171
300.13332
300.11244
300.13628
300.15486
300.15836
300.17402
300.20791
300.18836
300.18452
300.161
300.16377
300.13907
300.11408
300.13485
300.13553
300.11482
300.14047
300.16028
300.16127
300.17756
300.21206
300.19168
300.19064
300.16532
300.16595
300.14121
300.11512
300.13571
300.15279
300.15297
300.15277
300.18831
300.18568
300.21459
300.21858
300.23977
300.27773
300.24902
300.24525
300.2097
300.2117
300.16795
300.16714
300.2122
300.1896
300.22089
300.22183
300.2441
300.2815
300.25139
300.25081
300.27965
300.27911
300.27628
300.27022
300.29875
300.33997
300.32557
300.292
300.30182
300.25178
300.22935
300.18112
300.17858
300.17326
300.16508
300.18028
300.16922
300.18355
300.16912
300.15457
300.13854
300.15482
300.17002
300.20834
300.18898
300.20855
300.22927
300.18403
300.19577
300.13863
300.13493
300.1288
300.12053
300.11017
300.07753
300.08198
300.08664
300.08467
300.12024
300.1289
300.13529
300.08581
300.0851
300.08169
300.0861
300.04637
300.05005
300.05086
300.04911
300.05097
300.0262
300.02364
300.05071
300.04913
300.05125
300.02174
300.02428
300.01877
300.02011
300.01469
300.04876
300.0462
300.04896
300.04962
300.02057
300.01494
300.01021
300.0195
300.05078
300.04682
300.03918
299.99704
300.00826
299.99686
300.00978
299.99981
300.01316
300.04798
300.08611
300.12597
300.1296
300.08534
300.08197
300.08575
300.13339
300.1351
300.18786
300.19202
300.24622
300.26801
300.25886
300.24557
300.22379
300.2893
300.31808
300.34318
300.30848
300.33897
300.31783
300.35458
300.38391
300.40497
300.36184
300.32383
300.33359
300.37693
300.42263
300.36572
300.35556
300.28817
300.2793
300.26595
300.20427
300.19366
300.19993
300.20879
300.20915
300.20243
300.20129
300.19305
300.13011
300.12937
300.13057
300.08219
300.07731
300.0811
300.04008
300.04597
300.04886
300.01966
300.01483
300.00277
300.01023
300.01682
300.00478
300.0431
300.03172
300.04066
300.02831
300.039
300.08553
300.0811
300.02709
299.97902
299.95581
299.98102
299.96159
299.98671
299.9715
299.99458
300.03613
300.04518
300.02797
299.98351
299.95547
300.00814
300.02056
300.07552
300.13389
300.13231
300.13667
300.13768
300.08136
300.07334
300.05831
300.07187
300.13809
300.13332
300.12501
300.04155
300.06245
300.04973
300.06729
300.05845
300.0716
300.07775
300.07809
300.07352
300.06386
300.09021
300.09097
300.06341
300.07257
300.10414
300.10387
300.1152
300.11471
300.07611
300.07424
300.12116
300.12296
300.12634
300.18119
300.23244
300.23309
300.17961
300.18688
300.19088
300.25335
300.30689
300.34718
300.30646
300.31149
300.35077
300.30765
300.25155
300.24741
300.23204
300.17705
300.17528
300.16638
300.21214
300.19002
300.18978
300.16576
300.14106
300.09365
300.06219
300.0397
300.0023
300.02458
300.08472
300.12114
300.19098
300.1396
300.19098
300.23087
300.25947
300.26335
300.23294
300.343
300.395
300.38387
300.33512
300.26334
300.26259
300.18802
300.13277
300.08499
300.18819
300.23315
300.34323
300.4786
300.57824
300.51673
300.44699
300.50863
300.36597
300.51275
300.57614
300.39542
300.38089
300.33453
300.23065
300.1217
300.25853
300.23239
300.33463
300.44209
300.50138
300.3313
300.48239
300.56837
300.47345
300.57414
300.50692
300.38506
300.40039
300.34334
300.23526
300.1243
300.26264
300.26828
300.25756
300.41747
300.63106
300.77464
300.78987
300.62618
300.40798
300.25136
300.15036
300.08035
300.06464
300.05696
300.07161
300.13372
300.1089
300.11482
300.11897
300.10563
300.10205
300.14241
300.1469
300.16445
300.15923
300.15043
300.13385
300.09651
300.08724
300.09877
300.13604
300.12121
300.104
300.07212
300.03479
300.00863
300.00935
300.03777
300.01174
300.01208
300.03694
300.06025
300.08459
300.08756
300.1262
300.12253
300.09123
300.05563
300.05641
300.02028
300.0211
300.02222
300.01254
300.03568
300.05731
300.08
300.11519
300.08633
300.07838
300.05188
300.03277
300.01247
300.02227
300.04994
300.05381
300.08734
300.08875
300.08988
300.09042
300.09087
300.09109
300.09111
300.06291
300.06243
300.07081
300.07155
300.10396
300.10365
300.11308
300.11382
300.07427
300.07305
300.06946
300.07122
300.11909
300.11771
300.11642
300.1187
300.12264
300.06598
300.05048
300.11833
300.12443
300.11627
300.12538
300.11426
300.20567
300.29161
300.27259
300.27171
300.33709
300.38338
300.38358
300.33378
300.35618
300.36647
300.42699
300.4205
300.40105
300.33314
300.32498
300.30523
300.30279
300.27933
300.31389
300.3484
300.37161
300.3175
300.31141
300.38013
300.34376
300.40102
300.44835
300.46614
300.46379
300.44426
300.41927
300.38667
300.35585
300.32011
300.28856
300.26226
300.23388
300.2062
300.17975
300.15463
300.16859
300.18144
300.15269
300.13992
300.16578
300.14637
300.13678
300.15845
300.13354
300.15054
300.18068
300.19304
300.16953
300.19287
300.20952
300.1943
300.22512
300.24332
300.22135
300.2342
300.20414
300.1753
300.14725
300.16065
300.1916
300.2011
300.16861
300.1542
300.18318
300.16073
300.15432
300.13043
300.12425
300.10444
300.12374
300.14201
300.15952
300.16618
300.14855
300.12974
300.10923
300.09025
300.0955
300.06365
300.06572
300.09095
300.091
300.04218
300.00317
299.99976
299.99823
299.99632
299.99584
300.00196
300.00834
300.01703
300.02576
300.08276
300.06712
300.12219
300.15431
300.16854
300.15113
300.10909
300.10547
300.11795
300.16317
300.14655
300.13779
300.09987
300.05939
300.07388
300.13711
300.11198
300.15419
300.13963
300.10174
300.0905
300.12503
300.10807
300.11933
300.12674
300.13053
300.09818
300.09807
300.0609
300.05992
300.04021
300.01517
300.02522
300.02587
300.0462
300.04576
300.06388
300.08585
300.09955
300.07455
300.05056
300.02794
300.02863
300.02547
300.02546
300.02463
300.02609
300.05044
300.07636
300.06568
300.0892
300.10346
300.1062
300.09218
300.11354
300.13637
300.14021
300.15895
300.17383
300.20778
300.18927
300.19366
300.16291
300.17852
300.21329
300.24638
300.24022
300.23254
300.22153
300.25747
300.27055
300.24446
300.21323
300.18577
300.17861
300.20304
300.21066
300.17074
300.15337
300.13436
300.13762
300.11629
300.11845
300.1435
300.16892
300.16555
300.19098
300.22022
300.25203
300.27923
300.28617
300.25704
300.22503
300.19446
300.15849
300.15659
300.17344
300.21592
300.21913
300.1747
300.17494
300.15942
300.14104
300.13982
300.10879
300.10787
300.09381
300.06732
300.06688
300.07718
300.04951
300.04617
300.02305
300.02358
300.01765
300.02196
300.02553
300.02769
300.02306
300.05261
300.08463
300.07911
300.10671
300.11799
300.12325
300.11233
300.08193
300.08632
300.05092
300.05267
300.05128
300.08305
300.11615
300.12637
300.08598
300.08422
300.0829
300.11849
300.12772
300.13324
300.13349
300.13171
300.12744
300.16678
300.20317
300.22555
300.18179
300.19026
300.17579
300.21661
300.25098
300.28132
300.31298
300.34711
300.31194
300.29108
300.31902
300.34204
300.38743
300.41144
300.36816
300.3313
300.29728
300.26547
300.27666
300.30936
300.34829
300.38669
300.34242
300.32955
300.36145
300.37552
300.43376
300.44395
300.39711
300.35819
300.31724
300.28465
300.28932
300.32088
300.36492
300.40224
300.35125
300.34987
300.38199
300.37898
300.44595
300.43428
300.40009
300.36632
300.32087
300.29128
300.25969
300.22792
300.1964
300.16517
300.18105
300.21638
300.21798
300.18249
300.16637
300.19765
300.17187
300.17097
300.14525
300.11966
300.12031
300.14626
300.14623
300.16633
300.18238
300.209
300.21983
300.2576
300.29454
300.28225
300.27318
300.20235
300.2126
300.28485
300.35739
300.36961
300.41922
300.46475
300.44411
300.36273
300.352
300.44007
300.45331
300.42517
300.33482
300.26767
300.20045
300.22624
300.18018
300.1707
300.18968
300.25519
300.22816
300.23902
300.29688
300.3583
300.37167
300.36332
300.41188
300.32892
300.29223
300.27363
300.28878
300.30252
300.31176
300.31898
300.32294
300.32527
300.32612
300.29098
300.28951
300.24975
300.25138
300.22912
300.26062
300.22099
300.22061
300.19637
300.19717
300.15977
300.14164
300.10947
300.10927
300.09574
300.09513
300.06746
300.07692
300.07723
300.04812
300.04562
300.02155
300.0209
300.01851
300.01995
300.045
300.04674
300.04365
300.04621
300.04895
300.04291
300.04745
300.0123
300.01851
300.00612
300.01418
300.04909
300.08734
300.08668
300.13454
300.13699
300.08332
300.08702
300.04459
300.03279
300.0414
300.0005
299.98757
299.96197
299.98133
300.02871
300.08188
300.13853
300.19482
300.24707
300.2669
300.205
300.21062
300.20216
300.2617
300.23971
300.25071
300.22726
300.18213
300.1957
300.19827
300.18597
300.23502
300.25827
300.27996
300.27281
300.20613
300.21258
300.29284
300.28178
300.29925
300.28412
300.34566
300.36891
300.39756
300.37096
300.42171
300.43935
300.4397
300.5199
300.51096
300.5084
300.63459
300.51662
300.51912
300.65038
300.72091
300.52972
300.5283
300.43953
300.48996
300.6102
300.49023
300.7137
301.09184
300.7454
300.5566
300.55256
300.65356
300.74591
300.71208
300.54079
300.50251
300.61333
301.31854
301.08947
300.9303
300.95021
301.13637
301.47052
301.05063
301.02684
300.99098
300.6323
300.49521
300.44356
300.35792
300.28711
300.21456
300.20356
300.1975
300.20791
300.27869
300.26703
300.27441
300.35047
300.34421
300.34938
300.44329
300.42912
300.42076
300.37212
300.34856
300.31387
300.28143
300.24398
300.21194
300.17746
300.16115
300.15986
300.17595
300.21026
300.19019
300.19151
300.22166
300.22034
300.24225
300.27983
300.25017
300.2512
300.21187
300.16598
300.15246
300.13544
300.11494
300.11422
300.14001
300.16472
300.13478
300.1336
300.11311
300.13831
300.15771
300.17352
300.16903
300.15392
300.18343
300.18759
300.20734
300.20209
300.23344
300.23916
300.21766
300.21321
300.24348
300.24785
300.27692
300.27079
300.26295
300.22626
300.19577
300.16404
300.18513
300.19616
300.22181
300.17619
300.16627
300.22317
300.24996
300.26244
300.23435
300.29205
300.32906
300.35267
300.41849
300.40596
300.32321
300.28695
300.35794
300.36646
300.31433
300.25266
300.20462
300.15509
300.12113
300.08935
300.04639
300.01615
300.0008
300.02767
300.00663
300.00184
300.00412
300.01694
300.03082
300.02476
300.04228
300.06044
300.10855
300.0753
300.06071
300.06499
300.07789
300.10596
300.08951
300.10203
300.12749
300.09768
300.11547
300.14273
300.1892
300.15423
300.16771
300.1712
300.1146
300.07617
300.1714
300.25899
300.20433
300.19223
300.24141
300.2998
300.24151
300.25279
300.20481
300.16778
300.15432
300.1157
300.12766
300.15535
300.14303
300.18936
300.18121
300.1342
300.06346
300.09846
300.11572
300.0897
300.06394
300.0458
300.03645
300.03669
300.05276
300.07429
300.05372
300.06737
300.04323
300.02908
300.01128
300.00774
300.00986
300.02278
300.0346
300.01382
300.01978
300.03819
300.04043
300.0418
300.0419
300.04149
300.04069
300.03984
300.03924
300.03905
300.03932
300.04007
300.0411
300.01605
300.01826
300.01747
300.04458
300.04252
300.0144
300.01197
300.01453
300.01339
300.0104
300.03962
300.04079
300.03657
300.03922
300.04256
300.00984
300.00525
299.98865
299.99534
300.03462
300.02949
300.02572
299.98362
300.00169
299.99933
300.03481
300.02331
299.98008
299.95111
299.95651
299.96326
299.97282
300.01974
300.01224
299.98586
299.99639
299.94026
299.92631
299.91734
299.98066
300.00731
300.06134
300.05915
300.04265
300.04408
300.11168
300.18144
300.17806
300.24435
300.23091
300.23063
300.27918
300.27895
300.31294
300.34957
300.30453
300.30274
300.24411
300.17756
300.17479
300.17542
300.16585
300.15194
300.18884
300.21125
300.21006
300.18704
300.16279
300.15962
300.13522
300.11111
300.13164
300.14945
300.15112
300.16577
300.16488
300.20733
300.18388
300.17915
300.15517
300.13161
300.14943
300.14282
300.1564
300.18668
300.17025
300.1777
300.20675
300.19822
300.21583
300.25068
300.22719
300.23664
300.20276
300.16279
300.14666
300.12869
300.10863
300.10466
300.12602
300.14917
300.1245
300.11896
300.10025
300.12016
300.13585
300.14875
300.13834
300.12646
300.15048
300.16117
300.17694
300.16454
300.18975
300.20439
300.18755
300.175
300.20071
300.21509
300.23732
300.21987
300.24827
300.26803
300.28319
300.29652
300.30492
300.31075
300.27771
300.27404
300.30394
300.30588
300.3497
300.34497
300.38066
300.38252
300.37748
300.3244
300.31766
300.31202
300.38187
300.40143
300.33247
300.25078
300.25423
300.24616
300.23089
300.23104
300.17678
300.17727
300.2294
300.24934
300.24898
300.18323
300.17952
300.17611
300.17137
300.17208
300.17851
300.18907
300.1964
300.19756
300.2878
300.27605
300.266
300.2557
300.24806
300.23393
300.25319
300.16767
300.18697
300.0934
300.10784
300.02665
300.03709
300.00731
300.02349
299.93932
299.97934
299.99724
300.01405
299.98875
300.01016
299.98575
300.01031
300.07212
300.13856
300.13451
300.13821
300.07422
300.05877
299.98901
300.01462
299.99802
300.02193
300.03802
300.0844
300.07731
300.13656
300.13401
300.06969
300.08021
300.03038
299.98544
299.9962
299.97251
299.95655
300.00994
299.98046
300.05158
300.06366
300.13477
300.12698
300.04203
300.02409
300.11753
300.12914
300.20698
300.21136
300.29956
300.30051
300.28267
300.26234
300.23996
300.18766
300.19837
300.19681
300.18778
300.2424
300.26328
300.28121
300.20158
300.20508
300.20717
300.20127
300.29496
300.27994
300.27533
300.26163
300.24287
300.18689
300.19394
300.19147
300.18594
300.17483
300.12557
300.12612
300.12705
300.12774
300.11958
300.082
300.08168
300.07912
300.08078
300.11991
300.11984
300.07973
300.07658
300.0675
300.06759
300.0962
300.09629
300.0612
300.04143
300.04124
300.0151
300.02473
300.04453
300.01901
300.01686
300.04571
300.04537
300.04444
300.0186
300.01621
300.00572
300.00682
300.00948
300.01328
299.99846
300.00533
299.97382
299.98258
299.99083
299.99774
300.00258
300.00525
299.99747
299.99028
299.99328
299.99484
299.99341
299.99586
299.99706
299.99693
299.99709
299.99549
299.9964
299.99465
299.99503
299.99089
299.98562
299.9935
299.9999
299.99525
299.98866
299.98692
299.99039
299.98842
300.0013
300.00279
300.00099
299.98993
299.98852
299.98072
299.98281
299.98011
299.98452
299.98252
299.98512
299.98292
299.98611
299.99254
299.99523
299.9879
299.99001
299.99249
299.99547
299.99212
299.98735
299.98566
299.98738
299.9835
299.98104
299.9785
299.98344
299.98548
299.98116
299.98474
299.98654
299.98977
299.99368
299.99243
299.99008
299.99121
299.98816
299.98686
299.99245
299.99028
299.98272
299.97851
299.98383
299.98137
299.98025
299.97401
299.97771
299.97443
299.9743
299.9781
299.98554
299.99086
299.98845
299.99471
299.9993
299.98993
299.98917
300.00004
300.00174
300.00066
299.98791
299.98764
299.98004
299.98454
299.98658
299.98435
299.98218
299.97727
299.97988
299.9824
299.97702
299.98412
300.00071
300.00972
299.99735
299.99755
300.01095
300.01039
300.01015
299.99606
299.99597
299.98491
299.98918
299.99007
299.98199
299.98063
299.97614
299.97805
299.98683
299.98171
299.97491
299.99709
300.00847
299.99244
299.99078
300.0075
300.00162
300.00461
299.98561
299.98234
299.968
299.97802
299.96837
299.97206
299.96291
299.97373
299.96451
299.96387
299.97522
299.98458
300.00129
300.01065
299.99824
299.99693
300.01104
300.01159
300.01217
299.99873
299.99713
299.98602
299.98765
299.9909
299.98275
299.97881
299.9772
299.98166
299.99031
299.9886
299.98592
299.98835
299.99421
300.00069
300.0023
299.99984
299.99939
299.98571
299.98183
299.97248
299.97705
299.97507
299.97754
299.97952
299.9774
299.9662
299.96368
299.96303
299.96913
299.97038
299.97534
299.97327
299.9678
299.97169
299.9745
299.96807
299.97275
299.98245
299.99321
300.00925
300.0086
299.99188
299.9833
299.98627
299.97433
299.96348
299.95849
299.96938
299.97908
299.96894
299.95551
299.96498
299.97821
299.99051
299.9988
299.97774
299.9705
299.99235
299.97938
299.98972
299.96588
299.95481
299.93786
299.95474
299.94385
299.95759
299.95164
299.96252
299.97072
299.97656
299.97881
299.97477
299.97248
299.96698
299.96981
299.97379
299.96741
299.96594
299.96352
299.97408
299.97394
299.97302
299.97073
299.97141
299.96561
299.96863
299.96826
299.96547
299.95849
299.96255
299.96256
299.96342
299.95892
299.9485
299.95428
299.95814
299.94827
299.95323
299.95223
299.94541
299.95397
299.95485
299.94989
299.94833
299.95796
299.95281
299.96182
299.96883
299.97332
299.97979
299.98576
299.99233
299.99542
299.9965
299.9925
299.98998
299.98554
299.98734
299.98738
299.98545
299.98323
299.97825
299.98089
299.98348
299.98108
299.98073
299.97562
299.97919
299.97696
299.97521
299.97414
299.97177
299.9731
299.96864
299.97109
299.9694
299.96678
299.96052
299.96426
299.96656
299.97227
299.96923
299.97317
299.97575
299.97902
299.97729
299.97498
299.97109
299.97377
299.96972
299.97233
299.96806
299.964
299.96056
299.96649
299.96315
299.95669
299.95297
299.95728
299.95064
299.95748
299.96666
299.97578
299.97921
299.97229
299.96936
299.97331
299.97709
299.9754
299.97444
299.97337
299.96862
299.966
299.97123
299.97209
299.96628
299.95863
299.95972
299.96394
299.95473
299.95868
299.9525
299.96346
299.95796
299.96791
299.97376
299.97943
299.97604
299.98572
299.99533
299.99766
300.01209
300.01073
299.99507
299.99168
300.00846
300.01096
300.00913
299.99269
299.98746
300.00522
300.00152
300.00674
299.98936
299.98291
299.96917
299.97414
299.97893
299.98308
299.97427
299.98807
300.00623
300.00214
299.98268
299.96857
299.9769
299.96146
299.95076
299.96414
299.95771
299.96928
299.96428
299.97269
299.98262
299.979
299.96879
299.95924
299.94375
299.95071
299.96111
299.96808
299.95235
299.94167
299.93197
299.94239
299.95909
299.97628
299.99683
299.99108
299.96958
299.94934
299.93235
299.95403
299.94753
299.96463
299.97604
299.978
299.98371
299.99277
299.98369
299.97771
299.9799
299.97736
299.96983
299.9663
299.97534
299.97397
299.97626
299.9824
299.99728
299.99809
299.99707
299.9955
299.97591
299.96635
299.96851
299.96138
299.96434
299.96818
299.97151
299.96716
299.97064
299.96405
299.95964
299.96329
299.9516
299.94854
299.95447
299.94206
299.94925
299.94896
299.95436
299.95513
299.96288
299.95899
299.95037
299.9404
299.94747
299.94572
299.94533
299.94869
299.95362
299.93974
299.95158
299.96615
299.98995
299.99926
299.99311
299.9713
299.95536
299.97989
299.9623
299.97887
299.95341
299.93516
299.96208
299.93978
299.9108
299.93544
299.91751
299.93716
299.95134
299.9395
299.95321
299.92687
299.90679
299.92569
299.90712
299.92743
299.94463
299.93893
299.93659
299.92165
299.9327
299.93512
299.92258
299.90358
299.92127
299.93489
299.93251
299.94501
299.93595
299.9382
299.92201
299.92117
299.92399
299.93704
299.94
299.94727
299.93748
299.93415
299.92328
299.93433
299.93759
299.92913
299.9244
299.93757
299.92896
299.94245
299.95372
299.96271
299.96967
299.96885
299.96272
299.95905
299.96582
299.96625
299.95861
299.94836
299.94995
299.95464
299.94471
299.93878
299.93547
299.93415
299.93602
299.94475
299.92815
299.93345
299.94429
299.9611
299.98469
299.96655
299.94028
299.92258
299.94875
299.97385
299.95038
299.9196
299.94264
299.91394
299.88167
299.91234
299.95591
299.92822
299.89729
299.94012
299.9172
299.86479
299.93958
299.96471
299.92069
299.95529
300.03624
300.05687
300.134
300.21158
300.21385
300.29758
300.31328
300.2148
300.21495
300.21459
300.31058
300.39314
300.45021
300.49545
300.46139
300.49164
300.42017
300.38781
300.39895
300.43551
300.51982
300.575
300.53537
300.45324
300.42362
300.44469
300.40917
300.47553
300.53077
300.58275
300.48437
300.52993
300.47819
300.3477
300.3273
300.30932
300.30637
300.21174
300.20592
300.20299
300.21022
300.32288
300.33797
300.32556
300.21188
300.20726
300.21142
300.31732
300.33415
300.35236
300.20103
300.20538
300.19804
300.19661
300.37475
300.4015
300.3484
300.32003
300.30247
300.39707
300.37519
300.39878
300.43367
300.5231
300.49286
300.39171
300.28603
300.32097
300.25662
300.10442
300.2271
300.08213
300.39973
300.55728
300.58897
300.48737
300.45467
300.59115
300.57239
300.70361
300.65442
300.71609
300.60894
300.54444
300.48602
300.41514
300.45263
300.4343
300.40482
300.48121
300.53409
300.60266
300.49208
300.50452
300.58288
300.61992
300.77636
300.69046
300.48821
300.46227
300.44922
300.36754
300.36442
300.34691
300.34103
300.31919
300.2914
300.24238
300.25932
300.26911
300.19024
300.19559
300.18926
300.17566
300.26264
300.34679
300.41856
300.39575
300.36552
300.36422
300.318
300.29062
300.2601
300.22881
300.19747
300.21778
300.21582
300.18076
300.16498
300.19599
300.17073
300.17181
300.14162
300.12042
300.11983
300.14522
300.14347
300.09592
300.06409
300.06587
300.08809
300.08344
300.03722
300.01089
300.01171
300.01536
300.0252
300.02656
300.01601
300.04086
300.0608
300.0591
300.03963
300.06114
300.09102
300.08299
300.05558
300.07546
300.06715
300.02983
300.00135
300.00852
300.03257
300.03654
300.01618
300.0165
300.02783
300.02758
300.05505
300.04797
300.07181
300.04931
300.03961
300.03956
300.05572
300.068
300.08107
300.04862
300.06253
300.11171
300.09229
300.12469
300.10973
300.09318
300.06361
300.0781
300.10541
300.1314
300.15915
300.17534
300.20942
300.19449
300.14723
300.11988
300.10183
300.17239
300.15961
300.19856
300.2475
300.25794
300.26444
300.32025
300.30644
300.24882
300.2591
300.20972
300.17308
300.17632
300.11819
300.07879
300.02604
300.04393
300.03259
300.01848
300.00484
300.00298
300.01237
300.02584
300.01049
300.01462
300.02451
300.01782
300.03878
300.05788
300.07807
300.0937
300.13302
300.14263
300.15301
300.16066
300.16834
300.17347
300.17814
300.16274
300.19311
300.21255
300.20699
300.18876
300.1588
300.14033
300.11686
300.11882
300.14
300.14114
300.15935
300.15975
300.19697
300.22066
300.17466
300.17462
300.21973
300.19591
300.22716
300.24883
300.25102
300.29042
300.28801
300.25846
300.2553
300.22401
300.24511
300.28408
300.27698
300.23887
300.21918
300.25028
300.21494
300.21804
300.19386
300.1687
300.16541
300.13808
300.15689
300.15856
300.17446
300.17356
300.12926
300.12794
300.12649
300.12568
300.11991
300.11981
300.07935
300.07652
300.07676
300.06784
300.06821
300.09615
300.10964
300.10963
300.07741
300.04694
300.04579
300.0447
300.01898
300.01672
300.01846
300.02023
300.04548
300.04651
300.06863
300.09577
300.10955
300.07828
300.07914
300.06894