/*--------------------------------*- C++ -*----------------------------------*\
  =========                 |
  \\      /  F ield         | OpenFOAM: The Open Source CFD Toolbox
   \\    /   O peration     | Website:  https://openfoam.org
    \\  /    A nd           | Version:  7
     \\/     M anipulation  |
\*---------------------------------------------------------------------------*/
FoamFile
{
    version     2.0;
    format      ascii;
    class       volVectorField;
    location    "70";
    object      U;
}
// * * * * * * * * * * * * * * * * * * * * * * * * * * * * * * * * * * * * * //

dimensions      [0 1 -1 0 0 0 0];

internalField   nonuniform List<vector> 
25278
(
(120.03909 -0.0027984682 -0.0083405863)
(120.03241 -0.0076436196 -0.040774054)
(120.02878 -0.018328125 -0.028155521)
(120.02911 -0.02808355 -0.019888659)
(119.99599 -0.052196898 -0.014276814)
(120.03325 -0.04284963 -0.0098081533)
(120.04639 -0.0091740531 0.00051017047)
(120.03947 -0.0082334427 -0.0036236925)
(120.04481 0.0013326775 -0.0081609106)
(120.05979 -0.0085691591 -0.02964905)
(120.0519 -0.016149663 -0.025829642)
(120.04307 -0.015154413 -0.016206737)
(120.03603 -0.030062007 -0.031497951)
(120.01934 -0.040730594 -0.042217606)
(119.81467 -0.09836265 -0.1428073)
(120.02845 0.018141622 -0.027638865)
(120.0322 0.0085093513 -0.040102581)
(119.8487 -0.1104582 -0.16438089)
(119.77091 -0.046401807 -0.21924514)
(119.8811 -0.057066364 -0.20658026)
(119.98621 -0.016051638 -0.11726868)
(119.99801 -0.045021554 -0.094545887)
(120.01337 -0.049592915 -0.070810292)
(120.04344 -0.036740795 -0.054383344)
(120.05349 -0.069001024 -0.071797373)
(120.04387 -0.053763381 -0.039582748)
(120.01338 -0.070299693 -0.052285582)
(119.98614 -0.097216008 -0.099431882)
(119.94043 -0.093139876 -0.14273354)
(119.9785 -0.095012976 -0.1438772)
(119.9535 -0.088668036 -0.17688714)
(119.90513 -0.084684779 -0.18497988)
(119.83105 -0.14730121 -0.25373463)
(119.88166 -0.15213614 -0.1850137)
(119.93883 -0.14660872 -0.19581912)
(119.90643 -0.13172355 -0.22700539)
(119.93406 -0.13335008 -0.23280342)
(119.91486 -0.12316429 -0.26710305)
(119.88085 -0.12051011 -0.26350627)
(119.82805 -0.16285379 -0.30846862)
(119.85771 -0.17610834 -0.25957542)
(119.89622 -0.17518033 -0.27088069)
(119.8724 -0.16303879 -0.31375497)
(119.91853 -0.16284671 -0.30620035)
(119.95483 -0.11779665 -0.2575239)
(120.01424 -0.077565065 -0.15377304)
(120.04675 -0.030350471 -0.072878529)
(120.05159 -0.0098086693 -0.090384146)
(120.00717 -0.053865245 -0.17885977)
(119.93368 -0.06148276 -0.20576888)
(119.92438 -0.020533654 -0.22307844)
(119.86525 -0.018264589 -0.22498655)
(119.7497 -0.034239867 -0.34193254)
(119.77779 -0.10606037 -0.31067522)
(119.86114 -0.10386843 -0.28681338)
(119.89842 -0.10651087 -0.29568161)
(119.88685 -0.081275673 -0.3249083)
(119.84353 -0.07786545 -0.31522388)
(119.77227 -0.10872447 -0.3844143)
(119.79734 -0.14228946 -0.34519399)
(119.84442 -0.14468132 -0.35994659)
(119.82756 -0.11277513 -0.39953709)
(119.8116 -0.071494793 -0.4299042)
(119.87874 -0.052004121 -0.34258154)
(119.8345 -0.049817229 -0.32843594)
(119.82864 -0.013429262 -0.33913278)
(119.87517 -0.014629389 -0.35370941)
(119.8062 -0.021206386 -0.44390377)
(119.74773 -0.019389098 -0.4176696)
(119.7555 -0.067927821 -0.40535349)
(119.63541 -0.088189829 -0.49085513)
(119.66343 -0.14419768 -0.46434072)
(119.7031 -0.18678346 -0.40916094)
(119.75089 -0.21490198 -0.35999505)
(119.80131 -0.21966684 -0.29184694)
(119.87325 -0.22901365 -0.23095315)
(119.93786 -0.19561266 -0.15034969)
(119.97756 -0.14451819 -0.099565316)
(119.99739 -0.096628685 -0.049150204)
(119.95358 -0.10361824 -0.053404738)
(119.9258 -0.10026485 -0.048663369)
(119.81276 -0.14430129 -0.10117665)
(119.84689 -0.16604074 -0.11390483)
(119.76391 -0.22770737 -0.050203849)
(119.93002 -0.12715251 -0.020329498)
(119.89778 -0.11864859 -0.01830955)
(119.72875 -0.18949642 -0.04366322)
(119.48782 -0.24423188 -0.11120105)
(119.59653 -0.19733441 -0.14493123)
(119.71702 -0.15093704 -0.15119191)
(119.72294 -0.1683486 -0.16860735)
(119.5962 -0.16087076 -0.21752753)
(119.59874 -0.14280445 -0.19583959)
(119.40412 -0.20708 -0.20960621)
(119.39691 -0.22839665 -0.23160806)
(119.59359 -0.21934084 -0.16353731)
(119.60596 -0.24162591 -0.17759204)
(119.73591 -0.17654357 -0.17691925)
(119.75086 -0.20310564 -0.20381716)
(119.61856 -0.20869862 -0.28014938)
(119.60896 -0.17459373 -0.23963836)
(119.39367 -0.26955527 -0.27317862)
(119.40217 -0.32125026 -0.32498161)
(119.61536 -0.28203907 -0.21235201)
(119.48687 -0.36972104 -0.16779546)
(119.48847 -0.30791085 -0.13802588)
(119.48216 -0.27354606 -0.12673375)
(119.13844 -0.33336037 -0.20786173)
(119.158 -0.29460056 -0.18402415)
(118.94716 -0.35827337 -0.085802703)
(119.40192 -0.27397252 -0.041338871)
(119.39295 -0.30310459 -0.045481232)
(118.91505 -0.40248746 -0.097688873)
(118.88782 -0.48086969 -0.1137559)
(119.12449 -0.40234991 -0.24240201)
(119.12487 -0.49052497 -0.30002035)
(118.88171 -0.58413236 -0.14259546)
(119.39775 -0.40495639 -0.057657082)
(119.40175 -0.33557426 -0.047207959)
(119.40175 -0.33656825 0.044932444)
(119.76394 -0.22782182 0.048986159)
(119.9299 -0.12733651 0.019219886)
(119.996 -0.052464602 0.013847662)
(119.59378 -0.14585944 0.19757349)
(119.3979 -0.21162824 0.20864764)
(119.15297 -0.29631155 0.18294995)
(118.94271 -0.36203113 0.081114394)
(119.40095 -0.27531543 0.038740849)
(119.72868 -0.18990721 0.042377478)
(119.89774 -0.11885325 0.017331994)
(119.9255 -0.10111933 0.047886803)
(119.95338 -0.10463561 0.052532369)
(119.84601 -0.16789946 0.11287956)
(119.81179 -0.14587686 0.10026592)
(119.59398 -0.19977131 0.14373084)
(119.4862 -0.24488743 0.10968509)
(119.481 -0.2735715 0.12495891)
(119.39239 -0.30444311 0.042860649)
(118.91089 -0.40677776 0.092656327)
(119.13391 -0.33466108 0.2064794)
(119.12086 -0.40268644 0.24019385)
(118.88468 -0.48483729 0.10893866)
(118.88106 -0.58656491 0.13753138)
(119.3986 -0.40542049 0.055705446)
(119.48666 -0.36809988 0.1650823)
(119.48782 -0.30715771 0.13597286)
(119.60406 -0.2442182 0.17562698)
(119.59129 -0.22193126 0.16195383)
(119.39092 -0.23382313 0.22997511)
(119.59118 -0.16456616 0.21962401)
(119.8117 -0.10108273 0.14392402)
(119.71451 -0.15306432 0.15139369)
(119.72048 -0.17070529 0.16891258)
(119.7334 -0.17902965 0.17717677)
(119.84606 -0.11374638 0.1658943)
(119.74811 -0.20600667 0.20410474)
(119.61371 -0.28468419 0.20985532)
(119.39801 -0.32760975 0.32121378)
(119.12246 -0.48950912 0.29607435)
(118.47899 -0.59188616 0.59447461)
(117.38582 -0.84106545 0.477236)
(117.41954 -0.82862273 -0.50611397)
(118.49991 -0.59824156 -0.59511963)
(119.13768 -0.29362525 -0.48738521)
(119.49719 -0.16290928 -0.36056894)
(119.49776 -0.13412799 -0.29981039)
(119.42191 -0.040933556 -0.32421418)
(119.42157 -0.04975264 -0.3914805)
(118.93115 -0.12326269 -0.58036023)
(118.92916 -0.098661578 -0.48085765)
(119.13694 -0.23648165 -0.40039738)
(118.51766 -0.46562939 -0.4641979)
(117.63042 -0.3357052 -0.636319)
(117.52487 -0.46483861 -0.82091256)
(111.9413 -1.4540652 -1.5785577)
(113.75158 -0.94722396 -1.0574619)
(117.5591 -0.63491528 -0.36938345)
(117.52602 -0.64536416 0.34358599)
(113.5569 -0.98017779 0.95792927)
(111.64094 -1.4872704 1.4402023)
(117.41041 -0.50325662 0.86232791)
(117.54459 -0.35990873 0.65891283)
(118.49414 -0.46345273 0.46541043)
(119.12047 -0.24677492 0.40079309)
(119.38846 -0.27573756 0.27059781)
(119.60395 -0.17865681 0.24169597)
(119.61348 -0.21339109 0.28192456)
(119.48664 -0.16945412 0.3674164)
(119.12412 -0.30545282 0.48654247)
(118.8895 -0.1502909 0.58276361)
(118.88893 -0.11703138 0.48379076)
(119.40298 -0.047693361 0.33657212)
(119.76403 -0.050099695 0.22490103)
(119.48757 -0.13936016 0.30620126)
(119.39999 -0.059665998 0.40583261)
(119.47848 -0.070671764 0.48546268)
(118.97354 -0.19653531 0.75549298)
(117.38797 -0.70231731 1.2503536)
(109.10262 -2.1375342 2.057535)
(109.55118 -2.1333348 -2.2418846)
(117.526 -0.64436816 -1.2006028)
(119.01086 -0.16135583 -0.74874697)
(119.50048 -0.059119263 -0.4709528)
(119.56318 -0.18483532 -0.42318683)
(119.68337 -0.23538192 -0.31531814)
(119.80219 -0.21149228 -0.21263873)
(119.88081 -0.18502021 -0.15509944)
(119.93945 -0.14347949 -0.09685471)
(119.90252 -0.18873169 -0.088928207)
(119.95098 -0.18071165 -0.094119452)
(119.90427 -0.22920121 -0.13628972)
(119.82821 -0.25670347 -0.15174583)
(119.85543 -0.26123873 -0.18047035)
(119.89389 -0.27263099 -0.18028685)
(119.93187 -0.23524174 -0.13867944)
(119.91129 -0.27189899 -0.12894117)
(119.87728 -0.26800872 -0.1252871)
(119.82421 -0.31236971 -0.16787887)
(119.86865 -0.31770928 -0.16895835)
(119.91464 -0.31040593 -0.17010868)
(119.94109 -0.2643303 -0.17583014)
(120.01251 -0.1712388 -0.13340784)
(120.0252 -0.12255437 -0.085596221)
(120.04744 -0.074797424 -0.035056976)
(120.06286 -0.087419857 -0.063934436)
(120.08066 -0.12180546 -0.097365811)
(120.04846 -0.17996721 -0.10862672)
(120.06947 -0.11498107 -0.065474614)
(120.0125 -0.15786481 -0.084264485)
(119.96847 -0.22417372 -0.13236234)
(120.01069 -0.20833071 -0.1236924)
(119.99801 -0.24953684 -0.16628218)
(119.97728 -0.2955156 -0.16339787)
(119.99895 -0.2480981 -0.11825241)
(119.95137 -0.26273527 -0.1246367)
(119.93914 -0.29490815 -0.11097397)
(120.00383 -0.18883111 -0.061003229)
(120.05228 -0.098203212 -0.014434369)
(119.98418 -0.12421006 -0.019707567)
(119.877 -0.2138705 -0.06117951)
(119.92933 -0.21429054 -0.066955107)
(119.8563 -0.29379185 -0.1088272)
(119.77154 -0.3189045 -0.1109397)
(119.79155 -0.35190288 -0.14785562)
(119.83846 -0.36745488 -0.15130565)
(119.89338 -0.30347577 -0.11260032)
(119.87976 -0.3364261 -0.087285213)
(119.83655 -0.3255233 -0.08253821)
(119.76367 -0.39470391 -0.11431385)
(119.81918 -0.41082925 -0.11964386)
(119.80005 -0.44557656 -0.077920207)
(119.86976 -0.35742749 -0.057278395)
(119.91764 -0.23664913 -0.024502021)
(119.85881 -0.23611009 -0.02128056)
(119.73854 -0.35452001 -0.038515149)
(119.82578 -0.34106632 -0.053933878)
(119.74386 -0.41851142 -0.073108933)
(119.73344 -0.4339388 -0.0237374)
(119.81806 -0.3544542 -0.016576224)
(119.86433 -0.37174708 -0.018623874)
(119.79223 -0.463093 -0.026363957)
(119.86256 -0.47062732 -0.028349757)
(119.86824 -0.45012535 -0.082736771)
(119.87931 -0.41141796 -0.1241575)
(119.89363 -0.36477465 -0.15467152)
(119.96653 -0.34881308 -0.15055385)
(119.99307 -0.27908628 -0.10564644)
(119.99224 -0.3110682 -0.082750822)
(119.93071 -0.32809314 -0.086061179)
(119.92501 -0.34999845 -0.057945599)
(120.00197 -0.208552 -0.023025737)
(120.08449 -0.14189408 -0.018284673)
(120.07466 -0.13288065 -0.044727378)
(120.044 -0.24258268 -0.093104711)
(120.0444 -0.21642569 -0.10388324)
(120.08459 -0.17177589 -0.083429689)
(120.08114 -0.13992668 -0.086227591)
(120.09749 -0.16843131 -0.11695144)
(120.0521 -0.21624491 -0.14659385)
(120.04147 -0.26117395 -0.14593598)
(120.09746 -0.2091891 -0.11861139)
(120.10871 -0.24307619 -0.10853377)
(120.09007 -0.19046041 -0.073343013)
(120.10248 -0.20748392 -0.057689754)
(120.0501 -0.2687374 -0.073313052)
(120.05064 -0.34575551 -0.11173158)
(120.04234 -0.30760716 -0.13562841)
(120.00631 -0.38617988 -0.19158359)
(120.00777 -0.35391842 -0.19688602)
(120.01318 -0.31861294 -0.20076784)
(120.0523 -0.25375287 -0.18589666)
(120.09751 -0.14404005 -0.1486805)
(120.08088 -0.091272762 -0.12299822)
(120.0626 -0.058178602 -0.087290428)
(120.02568 -0.080392468 -0.12219932)
(120.0133 -0.12843278 -0.17189986)
(119.97054 -0.12623103 -0.22170379)
(120.01238 -0.11637766 -0.20562062)
(120.00198 -0.10992127 -0.24220118)
(119.98092 -0.15437497 -0.2907799)
(120.00008 -0.15877571 -0.24780323)
(119.94333 -0.16976228 -0.26270387)
(119.91101 -0.22322734 -0.30846858)
(119.98589 -0.21268552 -0.21588394)
(119.98442 -0.20768655 -0.29169259)
(119.94113 -0.21065424 -0.34376845)
(119.90667 -0.2161682 -0.35093991)
(119.87501 -0.21492851 -0.34975451)
(119.80647 -0.22893334 -0.37974454)
(119.84954 -0.22879504 -0.30878765)
(119.79138 -0.30880213 -0.3669497)
(119.72205 -0.29912733 -0.34048526)
(119.65537 -0.2972651 -0.43141714)
(119.73547 -0.31410224 -0.45701849)
(119.62047 -0.44533214 -0.54173265)
(119.71525 -0.40143275 -0.40417871)
(119.78992 -0.36630603 -0.31286145)
(119.84752 -0.30951882 -0.23331452)
(119.79912 -0.29277925 -0.22348423)
(119.68029 -0.31705256 -0.23939039)
(119.72044 -0.34034335 -0.30239581)
(119.65133 -0.43355104 -0.30253668)
(119.74683 -0.3632829 -0.21983578)
(119.80279 -0.38281842 -0.23479274)
(119.73196 -0.45865046 -0.32025159)
(119.61793 -0.54097508 -0.45100546)
(119.52803 -0.49464287 -0.39729899)
(119.63889 -0.36944714 -0.37139162)
(119.45436 -0.40021117 -0.40324805)
(119.531 -0.39270208 -0.49459242)
(119.37543 -0.55244116 -0.55588814)
(119.49969 -0.61727004 -0.62146548)
(119.6621 -0.57784714 -0.58209281)
(119.70507 -0.50221225 -0.55173837)
(119.75253 -0.41656585 -0.49754045)
(119.78799 -0.35470827 -0.46005487)
(119.82379 -0.29215599 -0.41945422)
(119.8483 -0.25318218 -0.38680995)
(119.88849 -0.25044841 -0.38883602)
(119.87501 -0.24226981 -0.42652201)
(119.89206 -0.20666619 -0.38322352)
(119.85365 -0.2055241 -0.3842959)
(119.82976 -0.24451295 -0.42782898)
(119.79954 -0.29215712 -0.46959048)
(119.8512 -0.29620977 -0.47389804)
(119.86982 -0.29356838 -0.42307256)
(119.87162 -0.3073329 -0.37079229)
(119.97611 -0.28860952 -0.35706671)
(119.919 -0.28834528 -0.41987806)
(119.92884 -0.2454182 -0.38242858)
(119.97472 -0.23648409 -0.3729439)
(119.98014 -0.20369851 -0.33415589)
(119.97155 -0.19716664 -0.36764678)
(119.9288 -0.20263012 -0.37774142)
(119.91647 -0.23983147 -0.42340405)
(119.96601 -0.23255136 -0.4134325)
(119.96527 -0.28613557 -0.46594151)
(119.97409 -0.27795986 -0.41051328)
(119.9759 -0.33622644 -0.45569873)
(119.90775 -0.34807205 -0.46377341)
(119.84842 -0.35260807 -0.46719505)
(119.83166 -0.35336481 -0.52802904)
(119.76446 -0.35349128 -0.52318331)
(119.71821 -0.42667709 -0.57464515)
(119.79831 -0.4378269 -0.58789619)
(119.82239 -0.4228548 -0.50828852)
(119.82104 -0.41800696 -0.42158467)
(119.8702 -0.36965078 -0.31230906)
(119.90902 -0.30893956 -0.22857684)
(119.98252 -0.29196107 -0.21465461)
(119.97471 -0.35503718 -0.29555952)
(119.91592 -0.4208036 -0.29682087)
(119.92562 -0.38443696 -0.25357815)
(119.93791 -0.34660189 -0.21857739)
(119.90338 -0.3536714 -0.22323163)
(119.87175 -0.35229726 -0.22119481)
(119.84502 -0.38873537 -0.25946566)
(119.88519 -0.39083913 -0.25757386)
(119.87048 -0.43007397 -0.25015854)
(119.88757 -0.38764366 -0.21428454)
(119.84914 -0.38851325 -0.21218203)
(119.82521 -0.43130012 -0.2514296)
(119.79495 -0.47226405 -0.2993768)
(119.82067 -0.42062051 -0.29849951)
(119.86671 -0.42412711 -0.30086377)
(119.8455 -0.46699251 -0.35998835)
(119.78509 -0.46011872 -0.361053)
(119.75993 -0.52466931 -0.36097719)
(119.82717 -0.5293009 -0.36206327)
(119.84664 -0.47650124 -0.30458415)
(119.90127 -0.47728334 -0.30424311)
(119.91193 -0.42729208 -0.24907114)
(119.92433 -0.3825396 -0.21133547)
(119.96732 -0.37295859 -0.20716302)
(119.97713 -0.33732211 -0.21280807)
(119.97163 -0.37516793 -0.24593327)
(119.96163 -0.41768783 -0.24316756)
(119.96077 -0.46899366 -0.29769787)
(119.97112 -0.41149131 -0.28788555)
(119.9731 -0.45493321 -0.34654966)
(119.90489 -0.46324229 -0.35676054)
(119.89024 -0.53213378 -0.36385896)
(119.96471 -0.52519639 -0.35643495)
(120.03939 -0.50324437 -0.33962992)
(120.03726 -0.43183892 -0.3264284)
(120.07448 -0.30692961 -0.25169429)
(120.15913 -0.22973367 -0.18827599)
(120.11225 -0.19276126 -0.14481976)
(120.08335 -0.26260403 -0.16741741)
(120.05207 -0.29284758 -0.18505119)
(120.06141 -0.32707429 -0.21329812)
(120.01585 -0.3548415 -0.23195449)
(120.01096 -0.39767673 -0.23164832)
(120.06052 -0.36908216 -0.21513505)
(120.05066 -0.32734142 -0.18308505)
(120.0859 -0.2938624 -0.16484467)
(120.11784 -0.25176953 -0.14147914)
(120.11142 -0.2240855 -0.1422991)
(120.13204 -0.24897557 -0.16125679)
(120.09933 -0.29118718 -0.1909791)
(120.10318 -0.32857306 -0.19142718)
(120.13966 -0.28308737 -0.16421685)
(120.17449 -0.3160771 -0.19562368)
(120.15866 -0.27040279 -0.18322859)
(120.12075 -0.31989768 -0.2199693)
(120.07695 -0.358892 -0.24798499)
(120.02263 -0.39082014 -0.27096486)
(120.02184 -0.44864151 -0.28314267)
(120.08067 -0.41586667 -0.26213725)
(120.11153 -0.46625318 -0.31375045)
(120.10331 -0.396621 -0.29793784)
(120.1571 -0.35234196 -0.26257963)
(120.20203 -0.29376444 -0.21589952)
(120.22379 -0.34954031 -0.23050305)
(120.17399 -0.41395564 -0.27496901)
(120.13249 -0.37083648 -0.23122234)
(120.15038 -0.41844955 -0.23428766)
(120.114 -0.3665629 -0.19293725)
(120.09117 -0.31973105 -0.16133133)
(120.05323 -0.35703918 -0.17836526)
(120.06644 -0.41233274 -0.21509327)
(120.01207 -0.44395978 -0.23076912)
(119.95704 -0.46522427 -0.24004821)
(119.96282 -0.40663617 -0.19988219)
(119.9155 -0.41664275 -0.20295598)
(119.87481 -0.42123624 -0.20359747)
(119.83348 -0.41892199 -0.20096485)
(119.75348 -0.45191435 -0.20841142)
(119.69635 -0.41548715 -0.19271364)
(119.55309 -0.43228654 -0.1907283)
(119.57691 -0.5066243 -0.27759733)
(119.6569 -0.56145861 -0.30122933)
(119.60815 -0.66149422 -0.24864488)
(119.72028 -0.51855116 -0.16794862)
(119.6526 -0.47497013 -0.15047476)
(119.50978 -0.59560997 -0.22244245)
(119.30964 -0.7333687 -0.31583832)
(119.41272 -0.59950461 -0.38133017)
(119.17594 -0.6267423 -0.38500134)
(119.20436 -0.6983439 -0.57338941)
(119.33196 -0.83944686 -0.66702753)
(119.49982 -0.69441924 -0.44551059)
(119.42086 -0.85410266 -0.38893082)
(119.21251 -1.0939309 -0.63326234)
(119.03656 -0.91543742 -0.51925336)
(118.8896 -1.0056235 -0.39521144)
(119.23161 -0.79108671 -0.21374456)
(119.4615 -0.63492722 -0.14169025)
(119.61932 -0.50483638 -0.094571073)
(119.47668 -0.48582259 -0.067465563)
(119.60392 -0.52494653 -0.032105374)
(119.67673 -0.59473912 -0.038069881)
(119.68929 -0.56830188 -0.10702442)
(119.56336 -0.73444353 -0.1625105)
(119.54862 -0.77118347 -0.057753389)
(119.44099 -0.66233327 -0.048892349)
(119.19918 -0.83660527 -0.076169812)
(118.95762 -0.7609021 -0.18454258)
(118.80039 -1.1082011 -0.1687)
(118.99303 -1.4235774 -0.21992219)
(119.06868 -1.3024678 -0.49972367)
(119.34725 -0.97189567 -0.26868837)
(119.32491 -1.0329196 -0.10250249)
(119.54652 -1.0481611 -0.14133947)
(119.55555 -1.0158065 -0.22234717)
(119.56822 -0.95631494 -0.29180504)
(119.59247 -0.89404251 -0.34803548)
(119.61575 -0.80933378 -0.38944103)
(119.64469 -0.73280476 -0.41696718)
(119.67499 -0.64599231 -0.4271065)
(119.7141 -0.57481255 -0.43402118)
(119.75013 -0.49641484 -0.42253012)
(119.82006 -0.50664169 -0.42987273)
(119.79239 -0.56370808 -0.5127171)
(119.70364 -0.54913241 -0.50749293)
(119.66802 -0.64130988 -0.52399098)
(119.76993 -0.65483741 -0.53375176)
(119.79428 -0.5875856 -0.44644976)
(119.87807 -0.59548915 -0.4512204)
(119.89306 -0.50624871 -0.42804831)
(119.96122 -0.39988962 -0.40531995)
(119.89542 -0.41968661 -0.50843283)
(119.97712 -0.40779719 -0.50084598)
(119.9739 -0.43226961 -0.59088009)
(119.9692 -0.34414582 -0.52393143)
(119.89482 -0.35341506 -0.53090182)
(119.90591 -0.29428941 -0.47450533)
(119.89728 -0.28624898 -0.52865325)
(119.90843 -0.23329575 -0.46804816)
(119.9212 -0.19357261 -0.40940534)
(119.9724 -0.14013948 -0.33869036)
(119.9974 -0.09657473 -0.26907424)
(119.94402 -0.10367515 -0.28617352)
(119.93766 -0.078778321 -0.31502416)
(119.99858 -0.073455117 -0.29557771)
(119.97193 -0.11150147 -0.37781789)
(119.88816 -0.11555174 -0.39821276)
(119.89972 -0.14653157 -0.35625838)
(119.83921 -0.19383372 -0.41288585)
(119.76031 -0.20131451 -0.44522805)
(119.73074 -0.16003657 -0.50730617)
(119.62119 -0.23829646 -0.65110292)
(119.66469 -0.29294889 -0.55610989)
(119.58475 -0.27041157 -0.50129731)
(119.52399 -0.2135981 -0.5852305)
(119.48443 -0.13154453 -0.62014956)
(119.58438 -0.15031779 -0.71719509)
(119.70488 -0.098959256 -0.55181257)
(119.69648 -0.030699303 -0.57340049)
(119.6244 -0.02585756 -0.50676063)
(119.47229 -0.03706514 -0.64125738)
(119.57734 -0.044399585 -0.74717948)
(119.36582 -0.07620868 -1.0048426)
(119.37409 -0.25068105 -0.95436609)
(119.43566 -0.37627913 -0.84598096)
(119.50754 -0.43672351 -0.69164055)
(119.4203 -0.37406724 -0.59594428)
(119.188 -0.37747439 -0.62239969)
(119.32624 -0.30595789 -0.72435192)
(119.05479 -0.50631621 -0.91114221)
(119.20968 -0.5661126 -0.69861882)
(119.33718 -0.6590838 -0.84041721)
(119.22592 -0.61915073 -1.0900904)
(119.09566 -0.47535862 -1.2852482)
(118.93134 -0.37456088 -0.99206986)
(119.26288 -0.19994041 -0.77599767)
(119.24584 -0.055319231 -0.81206547)
(118.87336 -0.12440332 -1.0779714)
(119.04281 -0.16676769 -1.3892618)
(119.34218 -0.24976457 -1.4741029)
(119.48957 -0.17089146 -1.2411663)
(119.57526 -0.11861415 -1.0234145)
(119.6561 -0.089809958 -0.8777413)
(119.70449 -0.068866796 -0.74458431)
(119.75299 -0.056713376 -0.65329271)
(119.7871 -0.047003617 -0.56173457)
(119.87719 -0.021868036 -0.44714767)
(119.93257 -0.013577202 -0.34415409)
(120.00741 -0.017718672 -0.19182434)
(120.08556 -0.011710744 -0.12277195)
(120.07517 -0.036121523 -0.12203601)
(120.0695 -0.057609247 -0.11075491)
(120.04957 -0.10058898 -0.17734993)
(120.08138 -0.077597935 -0.13734242)
(120.08526 -0.073210837 -0.16533475)
(120.04646 -0.094492848 -0.2101718)
(120.04429 -0.1351081 -0.25584219)
(120.05361 -0.13797519 -0.21463398)
(120.09817 -0.10740216 -0.16687978)
(120.0988 -0.10659615 -0.20364486)
(120.111 -0.094241279 -0.23040523)
(120.09117 -0.061995488 -0.17910056)
(120.04706 -0.082764316 -0.23168263)
(120.05455 -0.062693722 -0.25168393)
(120.10413 -0.045868292 -0.18930436)
(120.13042 -0.074050923 -0.2476173)
(120.05742 -0.097877107 -0.32655768)
(120.04694 -0.12296108 -0.29583359)
(120.01129 -0.17939693 -0.37734334)
(120.01164 -0.18570909 -0.34818408)
(120.01593 -0.19072319 -0.31536728)
(120.05387 -0.17747545 -0.25376236)
(120.11303 -0.13517373 -0.19304095)
(120.08509 -0.15566119 -0.25913003)
(120.05435 -0.1739374 -0.28935457)
(120.05392 -0.17070312 -0.32115601)
(120.06403 -0.20163915 -0.36403133)
(120.06384 -0.20146704 -0.32463615)
(120.01867 -0.22136058 -0.35257942)
(120.01503 -0.21949106 -0.39296505)
(120.02609 -0.26973229 -0.44527807)
(120.0254 -0.25973115 -0.38992786)
(120.07569 -0.24292089 -0.30971255)
(120.15979 -0.17772391 -0.23333994)
(120.12263 -0.20617236 -0.31909785)
(120.1012 -0.17826335 -0.28878852)
(120.13321 -0.14778004 -0.24650018)
(120.11242 -0.12991343 -0.22050699)
(120.11931 -0.12750834 -0.24515156)
(120.08839 -0.15157369 -0.28742314)
(120.10592 -0.17666181 -0.3231946)
(120.14136 -0.14862574 -0.27755354)
(120.17639 -0.17775406 -0.31198499)
(120.15986 -0.16845548 -0.26958623)
(120.20321 -0.19966716 -0.29553133)
(120.15897 -0.24759421 -0.3538972)
(120.10562 -0.28436192 -0.39790693)
(120.07934 -0.23529234 -0.35794608)
(120.08441 -0.24704643 -0.412188)
(120.11538 -0.2972317 -0.46479131)
(120.0437 -0.32516626 -0.50187988)
(120.03991 -0.31458424 -0.43288408)
(120.0526 -0.38331687 -0.4771831)
(120.09432 -0.34549987 -0.3528371)
(120.20827 -0.25270162 -0.26195276)
(120.19206 -0.30009386 -0.38840782)
(120.13029 -0.34710067 -0.43848277)
(120.15361 -0.3750514 -0.52549692)
(120.06627 -0.41014745 -0.56781941)
(120.0956 -0.50239967 -0.64082904)
(120.0742 -0.46919782 -0.536788)
(119.98043 -0.49680596 -0.56288122)
(119.87998 -0.50666146 -0.56883582)
(119.79392 -0.50628758 -0.56706797)
(119.77317 -0.52551736 -0.65698849)
(119.67132 -0.51709295 -0.64278163)
(119.61739 -0.61608012 -0.69427211)
(119.73431 -0.64426628 -0.72035182)
(119.76283 -0.59547093 -0.6007408)
(119.73253 -0.716358 -0.65140991)
(119.61551 -0.69120191 -0.62207849)
(119.56309 -0.75009453 -0.75489944)
(119.70717 -0.78091704 -0.78678255)
(119.84787 -0.80849512 -0.81605129)
(119.8573 -0.6608431 -0.74097087)
(119.86896 -0.53362003 -0.66872614)
(119.88229 -0.44071728 -0.59611923)
(119.87382 -0.4438713 -0.68477564)
(119.88646 -0.35354681 -0.60071086)
(119.81057 -0.34953893 -0.5935965)
(119.83328 -0.28478295 -0.5253886)
(119.86002 -0.23354338 -0.47002875)
(119.88064 -0.19540861 -0.41468936)
(119.8719 -0.18017554 -0.44846367)
(119.82453 -0.17809295 -0.44834548)
(119.79675 -0.21740768 -0.50725605)
(119.81138 -0.23322561 -0.46639707)
(119.77574 -0.27906068 -0.51468132)
(119.7574 -0.26268117 -0.56653671)
(119.82282 -0.27016121 -0.57707249)
(119.85197 -0.21833212 -0.50853537)
(119.90342 -0.21857474 -0.50781802)
(119.91636 -0.17824848 -0.44325911)
(119.96848 -0.174912 -0.4315326)
(119.96825 -0.18898912 -0.39856712)
(119.963 -0.22818438 -0.45793749)
(119.96433 -0.21500481 -0.49714018)
(119.96664 -0.19741303 -0.54135258)
(119.96963 -0.15973366 -0.46109491)
(119.91312 -0.16223183 -0.47372395)
(119.86498 -0.16241454 -0.47904823)
(119.81527 -0.16025467 -0.47587797)
(119.80386 -0.13509249 -0.50778196)
(119.85891 -0.13793176 -0.51053258)
(119.83666 -0.16946659 -0.58874271)
(119.8422 -0.19747829 -0.55218094)
(119.78396 -0.19565035 -0.54564453)
(119.77265 -0.16663945 -0.58315999)
(119.72743 -0.20378027 -0.66027497)
(119.74104 -0.2373345 -0.61230768)
(119.81138 -0.24514139 -0.63015335)
(119.80432 -0.21365894 -0.67974033)
(119.77991 -0.27510553 -0.79493417)
(119.78635 -0.31121577 -0.72964948)
(119.8 -0.33706053 -0.66084252)
(119.71512 -0.33060937 -0.64762533)
(119.73651 -0.34467582 -0.5794741)
(119.68134 -0.41844783 -0.64428159)
(119.77248 -0.43502256 -0.6700106)
(119.75808 -0.42725831 -0.75715183)
(119.65376 -0.40681864 -0.72899827)
(119.59489 -0.52049543 -0.83957155)
(119.62822 -0.52099995 -0.7290896)
(119.74268 -0.53994768 -0.75996455)
(119.72813 -0.54300098 -0.87208899)
(119.85897 -0.56383179 -0.90156689)
(119.86988 -0.43907427 -0.77822114)
(119.88198 -0.34307308 -0.6721556)
(119.89245 -0.27256972 -0.58278127)
(119.96725 -0.26942611 -0.57538008)
(119.96394 -0.28099815 -0.52090277)
(119.97045 -0.34838092 -0.59558997)
(119.97702 -0.34096508 -0.66851884)
(119.98494 -0.32165881 -0.74375272)
(119.97184 -0.24924226 -0.63163023)
(119.8894 -0.25014984 -0.63840162)
(119.9001 -0.19949235 -0.55232082)
(119.89771 -0.17152678 -0.59036672)
(119.91072 -0.13735743 -0.50539373)
(119.9722 -0.13584702 -0.49205955)
(119.9703 -0.1705987 -0.57907771)
(119.97757 -0.21955689 -0.68485135)
(119.8877 -0.21885978 -0.69090098)
(119.87901 -0.28565241 -0.81582523)
(119.87977 -0.32055412 -0.74542084)
(119.86829 -0.41890759 -0.87497608)
(119.74131 -0.40148723 -0.84665607)
(119.62783 -0.37759418 -0.80316987)
(119.69566 -0.30206668 -0.70584456)
(119.68024 -0.26357022 -0.7694157)
(119.66538 -0.21340758 -0.81491374)
(119.71453 -0.16386737 -0.69590256)
(119.76232 -0.13399873 -0.6133709)
(119.79622 -0.10948885 -0.52937342)
(119.88008 -0.074565687 -0.43137497)
(119.93376 -0.051432647 -0.33278811)
(119.99987 -0.047886082 -0.31143043)
(120.00227 -0.011942313 -0.3215797)
(119.9757 -0.020444069 -0.42343218)
(119.97339 -0.072326993 -0.40890649)
(120.06827 -0.063494417 -0.35013104)
(120.0598 -0.040839027 -0.26260194)
(120.11295 -0.0292975 -0.19321613)
(120.12027 -0.0058858754 -0.19571894)
(120.065 -0.0095810829 -0.26969314)
(120.07538 -0.016924305 -0.3607648)
(120.15924 -0.011538344 -0.26389556)
(120.14852 -0.046949912 -0.25938975)
(120.14503 -0.087886637 -0.3862066)
(120.13454 -0.10665465 -0.37096539)
(120.11913 -0.12516115 -0.35084334)
(120.10787 -0.13649445 -0.33199691)
(120.09441 -0.14671117 -0.30963795)
(120.05746 -0.16475457 -0.34744968)
(120.06704 -0.15317596 -0.37460904)
(120.01632 -0.16652015 -0.40810783)
(120.02432 -0.205527 -0.47327775)
(120.01759 -0.21717178 -0.43578381)
(120.07128 -0.19981206 -0.40339935)
(120.08368 -0.18973762 -0.43723207)
(120.13464 -0.16717715 -0.38501762)
(120.11775 -0.17617593 -0.35690369)
(120.15652 -0.14715517 -0.30426484)
(120.12828 -0.12267571 -0.26220426)
(120.14471 -0.11346636 -0.27815389)
(120.17697 -0.13934998 -0.32548397)
(120.19879 -0.12825505 -0.34756063)
(120.1586 -0.1037776 -0.29105337)
(120.17684 -0.087570549 -0.30447)
(120.22106 -0.11076558 -0.36629268)
(120.17199 -0.13428146 -0.44137197)
(120.1531 -0.15482058 -0.41526285)
(120.09747 -0.175486 -0.4745078)
(120.07568 -0.14064729 -0.39828834)
(120.02081 -0.15272014 -0.43531271)
(120.02796 -0.13006007 -0.4640015)
(120.08748 -0.11983769 -0.42328739)
(120.11202 -0.15256629 -0.50661288)
(120.04152 -0.16449995 -0.55076041)
(120.03259 -0.18977688 -0.51486622)
(120.05606 -0.24038374 -0.60586313)
(120.04344 -0.25822918 -0.55169778)
(120.03245 -0.26759134 -0.49899359)
(120.09743 -0.24565829 -0.46219372)
(120.11579 -0.23794983 -0.51038755)
(120.16297 -0.30182653 -0.59661932)
(120.13621 -0.30480661 -0.53089978)
(120.05567 -0.33248064 -0.57276517)
(120.07254 -0.32781325 -0.64407452)
(120.09123 -0.31147652 -0.71744766)
(120.19163 -0.28804743 -0.66388178)
(120.13591 -0.22225743 -0.55952196)
(120.15588 -0.19765684 -0.60623468)
(120.06906 -0.21297063 -0.65725307)
(120.1095 -0.28229419 -0.78845648)
(119.99398 -0.28925985 -0.8162247)
(120.00098 -0.241467 -0.88267333)
(119.98239 -0.18005253 -0.73328048)
(119.9733 -0.13956906 -0.61642473)
(119.97413 -0.11186071 -0.51657962)
(119.90896 -0.11287385 -0.53050696)
(119.85379 -0.11201986 -0.53552926)
(119.85062 -0.079540158 -0.557273)
(119.78976 -0.077577107 -0.55094357)
(119.75635 -0.095787792 -0.63823261)
(119.82695 -0.098242527 -0.6496138)
(119.82946 -0.13675148 -0.62461136)
(119.89606 -0.13970604 -0.6275486)
(119.89559 -0.099796329 -0.65382374)
(119.90825 -0.079122926 -0.55245113)
(119.97673 -0.078327809 -0.53813277)
(119.97673 -0.099707983 -0.64266566)
(119.97919 -0.058656719 -0.66133293)
(119.97852 -0.047639433 -0.55028544)
(119.9082 -0.048349868 -0.56496368)
(119.84911 -0.047847946 -0.56976537)
(119.849 -0.011008596 -0.57513091)
(119.78592 -0.01115513 -0.56712101)
(119.75253 -0.013572394 -0.65942281)
(119.82538 -0.013592948 -0.67359361)
(119.82491 -0.057598431 -0.66749056)
(119.89593 -0.058898308 -0.67238291)
(119.89712 -0.012613948 -0.67848432)
(119.90893 -0.0098524751 -0.57012155)
(119.98025 -0.0089386586 -0.55500269)
(119.9815 -0.011620597 -0.66701022)
(119.99384 -0.015087312 -0.80248504)
(119.99054 -0.075574072 -0.79463573)
(119.98726 -0.13131684 -0.77030869)
(119.88695 -0.1297125 -0.77420737)
(119.88655 -0.17821693 -0.73806265)
(119.79611 -0.17187532 -0.72365963)
(119.79322 -0.12559863 -0.75729288)
(119.70786 -0.11796674 -0.72726218)
(119.6589 -0.15504845 -0.85621444)
(119.76858 -0.16539425 -0.89706715)
(119.77038 -0.22466777 -0.85260223)
(119.87865 -0.23624573 -0.87914745)