/*--------------------------------*- C++ -*----------------------------------*\
  =========                 |
  \\      /  F ield         | OpenFOAM: The Open Source CFD Toolbox
   \\    /   O peration     | Website:  https://openfoam.org
    \\  /    A nd           | Version:  7
     \\/     M anipulation  |
\*---------------------------------------------------------------------------*/
FoamFile
{
    version     2.0;
    format      ascii;
    class       volScalarField;
    location    "20";
    object      omega;
}
// * * * * * * * * * * * * * * * * * * * * * * * * * * * * * * * * * * * * * //

dimensions      [0 0 -1 0 0 0 0];

internalField   nonuniform List<scalar> 
25278
(
166.85031
184.50347
164.05348
163.97357
183.94694
184.47588
184.1188
166.8977
184.05819
227.76022
198.52432
175.7668
176.80541
175.0179
317.47434
163.88074
184.54876
326.60759
372.60961
335.3591
254.31021
232.86102
201.32208
202.68261
263.90123
202.44554
201.23533
266.33087
286.29063
289.92703
325.54132
316.33151
394.73077
345.50009
356.97201
373.9477
377.86923
400.57316
394.61724
444.08019
415.09507
421.57946
450.32828
455.09415
397.7849
319.92058
234.38955
257.04902
340.91706
346.2953
356.47723
345.06357
440.16956
425.49743
408.44709
414.91203
424.75739
417.88783
474.35327
462.12475
470.00302
481.76098
488.64662
430.2445
423.80606
427.02206
433.24417
492.00394
485.29787
481.58177
530.2966
519.84511
504.6016
483.16171
450.21693
419.98468
356.97768
289.75904
232.37853
233.72523
226.78329
317.01118
326.25565
372.13133
255.8129
245.43596
358.47219
420.55944
389.99868
352.18672
367.48181
411.01822
390.54846
450.56226
470.51642
410.55532
420.26208
373.52809
395.38927
448.90658
420.60545
489.96381
511.75356
448.69455
489.24618
456.91458
443.91352
530.41896
504.44534
548.64663
440.23382
467.69449
584.06606
620.94777
556.37795
582.78832
660.72432
518.34904
481.68718
482.18271
372.25894
255.8279
183.98509
391.72675
453.01683
507.53718
550.27291
440.6749
358.64791
245.46231
226.7786
233.75508
326.35372
317.18754
390.84001
421.55084
445.01149
468.21397
586.06325
533.94131
560.24226
623.30682
663.64339
519.04852
490.44386
457.98606
421.09493
411.47678
473.22507
412.42346
317.73776
352.62005
367.91607
373.8809
326.8119
395.6939
449.52813
514.77382
587.14903
747.12634
974.51642
966.50017
735.86901
584.35732
489.92611
457.67747
482.56805
519.50656
666.02602
624.29163
557.48189
690.82097
869.45372
980.91094
1386.0275
1164.2595
861.91423
867.68964
1168.3675
1389.6531
997.18785
884.75964
700.53406
564.56715
492.8364
421.91571
450.29238
493.36585
592.42003
680.77486
636.83472
487.71162
373.89843
460.74442
525.66367
543.20765
725.4596
1135.1711
1671.8577
1671.4293
1118.2294
707.65444
536.95395
507.54245
462.93713
403.14546
345.38082
286.03614
316.09009
325.30498
373.8447
394.63169
414.97029
421.47952
377.7704
400.55438
394.71754
443.97805
450.23978
455.03645
419.514
352.21062
284.44325
233.94121
285.46551
354.44542
373.9464
321.78114
319.65267
374.37271
376.53182
422.31044
456.62662
400.99163
397.72861
412.58782
340.86998
257.25351
254.20714
335.2736
346.33436
408.47103
425.37655
462.00742
469.89035
414.96065
424.84737
418.0172
474.22774
481.69559
488.55521
430.3851
356.58603
345.03929
440.05294
423.82728
481.38893
485.29573
427.15481
433.46676
492.06941
497.67264
494.43758
487.91011
476.24688
478.06304
415.96401
425.84822
422.2809
427.69654
350.64251
352.73381
342.85315
412.36271
397.34121
398.66709
374.47112
420.28674
419.2126
455.65691
454.983
476.51828
413.57378
423.23377
421.86554
488.9592
477.45852
518.13148
506.45337
488.50153
462.65654
421.73238
354.2891
285.51005
284.5586
352.12851
374.44641
376.54374
401.05205
456.62328
422.21819
419.54142
461.70149
421.2775
464.77996
488.52875
488.61699
484.4881
494.5817
459.33923
495.02154
483.86211
518.14788
529.30643
558.49044
525.7007
494.92448
459.17068
450.12175
462.72641
483.72477
517.84247
482.9702
494.40804
529.03314
558.18832
548.27876
515.01985
530.22567
548.59669
582.90647
589.43874
579.47539
565.51011
551.9434
537.8563
522.86623
505.97387
510.81115
529.04326
506.22713
501.43811
525.1454
541.93906
546.382
527.66202
498.54244
503.51858
528.61951
511.10475
512.80947
490.08529
507.93484
506.21211
530.51398
531.46916
549.08738
530.09889
545.081
543.37523
542.54071
560.209
556.4009
569.0761
572.76149
556.11993
532.34544
498.45716
461.66938
464.82568
503.45965
528.4319
510.98352
488.49879
488.54926
484.39937
505.83723
510.69225
528.85817
506.09253
501.25246
524.9567
541.66137
522.71716
527.47564
542.31457
537.70106
556.03828
559.82069
546.0963
547.88994
530.33972
506.09168
507.86619
490.10393
512.7397
531.31146
548.78954
529.9128
544.84048
543.11694
561.61593
562.59136
562.69938
543.65049
500.81733
502.72072
463.41201
488.05974
489.43504
512.41992
511.31503
531.1089
531.33078
507.60106
505.96237
506.76469
488.69241
511.81348
511.12898
530.80912
530.70054
548.39041
529.26285
528.90734
529.67134
528.8521
548.85801
548.9886
562.8357
544.71177
543.71363
544.26939
562.1557
562.47804
548.69674
561.82636
543.70605
517.66932
519.15059
544.12934
544.0216
543.97625
519.34466
517.64816
517.3951
512.36777
517.77307
504.27155
506.88053
542.27864
555.18796
575.14953
531.9951
519.37448
563.89547
611.83163
577.97198
605.29381
623.68411
629.80671
588.18295
621.76456
692.0044
686.33078
768.673
650.01643
582.37659
529.64477
535.71232
535.6879
547.20442
541.57949
593.72162
607.63546
596.44234
683.08782
699.95381
862.23411
906.10456
791.25141
664.69357
704.02861
675.88702
659.44994
640.52556
623.30574
607.71681
594.50833
581.68922
568.6486
551.762
555.92023
569.2938
565.37152
581.5467
584.47565
572.27959
574.0249
556.92004
536.37245
557.15978
558.63743
575.52381
563.03941
562.06857
548.20712
561.36919
543.32537
517.73185
478.01996
415.92322
412.63012
422.1077
425.76899
489.72099
487.95845
476.32759
512.56585
518.09338
532.44229
576.57158
555.86715
542.96962
565.29917
584.51882
595.9882
542.19445
547.66975
536.22226
598.55344
609.90028
712.05998
671.22528
625.1397
589.45711
579.15467
607.37751
614.83906
691.67273
625.06573
631.40748
698.07001
806.56768
780.94794
655.44111
689.49332
881.64204
931.49877
869.16517
759.22599
682.69039
635.40296
599.40055
571.21628
540.885
497.59913
430.39382
350.49067
352.53272
342.92399
322.0597
373.93609
374.46081
398.66054
397.38495
455.60146
419.02
420.12621
454.8418
476.30243
413.45028
412.27267
421.73855
423.10725
487.79514
488.88652
477.27426
518.18925
506.52466
488.48552
462.58272
463.29309
487.96958
489.38517
507.60061
531.40116
512.45507
511.3598
531.22248
549.12686
529.02284
500.866
502.76585
529.02091
511.13544
511.75459
488.54932
506.63491
505.92365
530.83603
530.66581
548.50213
529.34104
544.42156
543.95173
544.93419
529.85286
549.21112
563.20708
563.11684
543.91442
557.99918
535.64961
536.04332
557.8493
558.67258
575.71447
575.72897
587.97911
571.38358
572.01885
570.39377
569.45999
584.96409
582.00741
595.7334
598.49864
582.79406
598.11189
595.3579
612.37222
614.3138
616.28392
600.28503
586.73453
574.57965
588.45747
575.57749
573.47496
559.35798
541.61039
517.5918
526.10112
521.13484
546.38378
537.18405
554.42608
564.47436
569.02916
550.49302
552.23857
526.26176
528.09191
519.46159
544.23362
553.21069
559.9993
533.98764
532.18766
532.00492
527.23278
532.07032
536.73404
562.78291
557.24748
553.17002
558.98404
580.27199
572.61555
577.19564
584.73067
606.20309
595.04042
584.47342
580.72731
569.26466
582.51838
586.44837
599.53053
595.96906
613.72407
596.66142
599.87065
616.36038
618.82759
601.81126
586.70448
571.1659
572.13532
562.30399
576.56046
587.81981
598.74877
580.46013
579.36601
559.04742
564.59812
536.84851
538.7261
565.65436
588.28257
587.09702
609.0106
597.48336
616.73994
614.08274
610.04815
591.1217
602.59512
614.00272
587.50616
563.86159
535.84394
494.47853
427.52436
430.98813
433.86437
499.19473
496.13887
495.21973
427.04679
428.18119
430.90257
429.79642
498.19762
496.71398
493.86898
539.9147
536.52798
531.98505
526.09239
517.58894
519.16057
527.81344
526.76305
553.20285
544.23492
544.26714
553.2304
552.67787
543.78553
543.43038
518.17754
526.76544
552.27515
558.7468
532.50694
536.95542
563.93802
564.75412
559.37523
560.00794
533.70537
532.72186
537.38679
538.404
565.60226
565.69094
560.06605
580.72806
572.41522
562.52554
562.47956
572.28668
587.92357
576.74953
576.84842
588.14808
599.11737
598.72393
580.52264
588.22654
588.59496
611.01956
610.60141
623.66969
596.0972
570.63118
542.2352
540.37225
540.27629
543.23609
538.87155
568.17737
571.78979
567.65293
569.52748
573.72015
543.30428
545.23912
574.93356
578.19248
547.17486
545.2296
545.17055
546.19471
541.9358
572.85487
576.47526
574.88897
576.92657
578.54089
546.27705
548.26712
579.89426
612.66237
609.47865
603.49942
601.85696
594.69874
592.14404
598.9942
594.21398
626.09154
630.39778
618.28912
621.66947
634.51528
637.11436
648.62551
645.44298
607.61252
604.48219
607.36525
602.18286
640.92516
646.21285
640.59418
692.55824
673.19098
651.52386
631.26272
626.87232
659.89053
633.26301
636.94983
663.60967
668.28949
634.73009
636.88951
618.33187
603.06421
589.52697
603.08174
587.79746
601.3743
585.35632
571.82723
558.39031
574.99871
587.22346
586.20095
570.22558
584.09199
599.86496
600.92681
617.49342
617.82078
601.6591
585.28216
571.1876
557.77533
558.41734
571.89282
587.34808
575.24467
575.20963
587.42773
601.19585
600.94169
585.45003
572.07824
587.91241
587.25001
575.2559
562.81079
548.89206
562.10581
561.63007
571.09806
571.81192
587.24892
576.31767
575.62166
562.43428
574.66775
557.99101
571.13753
571.04854
584.63997
570.86001
557.64197
557.80101
571.00103
586.00071
574.31424
574.82107
586.7545
600.08502
598.89752
584.12502
599.26418
586.45863
600.71155
588.03336
588.98873
589.6476
589.83261
603.43007
603.05436
620.09965
603.08567
603.43538
620.72186
620.30826
642.23151
640.17861
670.32831
639.84929
617.72861
601.95032
615.64421
612.64968
634.31576
637.11675
663.58367
635.19635
632.81092
661.87082
699.55616
661.78679
666.3988
706.78528
700.52553
757.41855
763.06783
704.1841
709.15525
666.80719
637.54393
639.06755
619.03813
641.62325
668.94613
712.57548
673.01259
717.74758
671.39483
672.3627
637.50866
618.77696
618.13504
636.54323
610.41586
608.85713
587.2534
579.80261
578.81834
585.82886
606.58384
596.11645
586.23373
600.48171
602.04613
618.57536
602.1482
617.45881
600.53389
601.39131
617.31373
616.04422
614.19149
633.74503
615.44412
635.74285
616.3126
635.81174
614.10694
616.51732
597.69472
634.13641
630.52665
661.96808
667.409
639.41572
641.81352
642.79161
673.7326
642.07949
619.39331
618.85096
641.15681
668.08063
638.58044
639.43875
669.44078
713.4783
711.62219
672.3448
717.60656
670.99167
709.87899
659.04588
623.413
595.92988
570.47165
541.88786
540.95402
543.8754
544.7894
574.72205
574.99136
570.7105
596.44355
603.92816
603.30646
636.97144
637.9598
624.26624
660.28848
659.28372
656.19055
679.5999
684.04214
755.13758
709.43891
704.39838
697.26889
690.10978
645.46529
665.7141
727.32709
736.12357
746.99672
788.78055
700.77185
706.76158
720.2073
655.05041
651.49967
610.66745
610.17893
578.29762
546.1748
499.08782
433.87086
350.41596
257.06487
254.44524
326.97159
372.57598
420.94041
374.26388
420.8603
457.32848
482.30259
519.07909
489.44227
583.3968
664.63504
623.44879
556.89491
490.14106
511.75482
448.88743
395.66795
327.03789
449.01777
489.85433
583.69089
735.55141
978.2298
868.75115
690.99658
864.0795
1164.1341
1386.1095
969.43017
663.25062
622.79094
557.08985
457.71638
373.03643
482.8234
460.75195
564.88609
701.86034
870.27447
1171.1846
1393.5519
977.54429
748.44929
998.68612
885.77248
636.93435
681.03285
592.58276
493.34945
373.90192
487.74784
525.62298
543.15824
725.79617
1137.5001
1677.5761
1670.4603
1113.1824
705.42167
536.41294
440.06735
345.05842
356.45014
346.33666
335.38274
425.32464
417.77984
423.68608
426.95508
433.17777
430.16288
488.3938
491.92785
485.27299
481.28058
474.06422
481.44142
424.62071
414.86703
408.39263
461.9326
469.81624
476.12812
412.55171
340.93835
342.92992
352.50613
429.79143
430.87731
428.1045
426.98215
430.9567
427.45665
430.36894
497.50296
494.24105
495.91849
495.03703
498.10788
496.6115
493.74543
487.66486
423.03815
421.62663
425.65331
421.95878
487.65762
489.49395
477.98383
415.88113
412.29001
413.42494
476.32773
477.27181
488.71752
536.93257
540.47913
543.45354
545.4983
546.7767
546.89111
545.80462
546.66084
547.72006
579.6216
577.95835
578.29776
579.9949
613.25553
610.01518
609.32821
612.55867
655.44867
648.79685
649.78346
656.41414
723.69676
709.53509
685.79196
684.54124
758.55827
759.21922
711.3878
784.63059
719.31161
780.4822
778.04287
771.81507
713.23068
772.41501
761.37599
748.52152
810.04908
829.71297
964.23436
847.72939
831.09503
938.61108
1050.2103
1104.7296
902.30886
773.37936
796.69844
703.81343
692.83308
780.71246
910.95953
952.72686
1219.7471
1145.4853
1483.7942
1291.657
1093.8234
930.20126
823.88167
746.01101
695.54253
658.13384
631.98421
611.56638
595.6454
598.76296
585.54086
572.81927
558.90734
541.36133
536.90453
546.02109
520.91262
525.92777
550.14101
551.8764
543.09159
560.94125
561.86899
575.84266
574.88309
585.57502
570.49732
568.39544
563.86546
554.00921
568.65069
579.73748
583.43233
593.40182
576.25442
556.77841
531.81181
527.03446
552.69463
558.38033
531.84844
536.50502
562.16901
563.9018
558.53818
531.99221
526.10482
527.93702
552.8466
571.45265
586.64106
596.8478
579.37207
559.4726
533.77102
489.82263
496.11147
431.18769
434.09845
430.69229
430.68858
350.557
257.17152
184.51036
163.99726
166.92785
184.15275
174.8347
201.12745
232.40459
254.18912
345.02759
356.57277
427.2245
440.24258
485.41764
492.16342
433.64461
430.46629
423.97234
481.64922
488.78846
481.70375
424.8029
346.21713
335.23827
425.43339
417.90052
474.32361
462.06615
408.40615
414.85499
469.91522
476.12318
487.9041
494.59759
497.81274
499.32762
499.29124
498.25594
495.25067
427.20162
428.35993
494.01208
487.96582
531.84222
526.11618
527.76018
526.64252
552.86672
552.947
552.46268
552.11916
543.44587
518.32597
526.84232
532.42275
558.4093
558.91858
559.49634
533.53024
532.54881
559.51451
564.90013
537.10611
538.4405
536.61003
540.05443
539.97532
535.52718
563.1119
566.86426
570.90835
542.90479
538.52983
567.34961
592.46863
585.9797
579.08686
571.76526
589.61342
600.38407
603.82541
583.43682
585.65978
578.36701
595.68701
606.38687
607.76235
586.77537
564.91865
569.66772
541.8899
544.84254
542.98316
572.75775
568.67828
592.82636
590.46436
615.08175
611.09893
622.58971
626.51744
597.04772
599.68525
601.11626
594.09547
619.77643
618.07608
630.12438
632.29352
643.47611
607.08777
577.19833
573.90381
573.86113
569.69188
540.55914
541.45845
538.10796
564.82491
564.05027
536.2703
536.76781
563.36644
584.6147
578.04183
570.7025
561.44441
575.17193
575.76038
576.13009
562.16277
562.11366
576.17011
586.9651
571.72473
571.67355
586.82165
586.23942
571.29406
578.88558
579.49726
579.65302
597.19036
596.86178
607.55058
586.70407
587.05129
608.11334
632.54079
615.65985
601.608
588.83865
588.53094
587.50343
600.72207
601.81715
617.81757
601.26845
600.12224
597.97126
614.23578
611.73138
631.89715
634.51188
614.45486
634.26504
660.85502
659.31194
694.27215
657.31825
629.88081
633.22483
611.52299
627.3149
657.51696
654.342
692.73787
698.07447
661.43352
698.26426
751.88023
747.27368
813.88874
736.33802
681.97485
688.00082
645.8991
665.98471
723.35939
716.19319
792.00621
808.39196
747.22931
827.88945
931.40126
910.10668
1009.8778
846.226
746.1201
758.08689
684.57548
636.55507
602.56032
574.10559
544.92375
540.64735
570.48531
572.37987
541.84861
546.14862
575.98529
577.94833
576.04516
544.95335
546.85745
548.12349
546.2229
546.31165
546.27723
541.92748
547.4906
535.95438
536.43999
597.17977
608.45855
595.49211
542.14324
530.26007
584.09829
653.98883
684.88814
703.6655
866.77571
911.887
706.26017
669.32771
801.76907
777.69312
694.99641
615.93611
565.66862
519.91828
507.9656
504.69557
518.05391
532.49042
576.89228
556.42676
543.66382
581.20131
610.24153
630.5869
636.8999
701.44049
626.2071
591.44246
597.21358
611.01711
627.18102
644.64035
663.31395
678.74692
687.87961
686.8486
637.96418
631.79542
597.70763
600.90008
605.91035
642.83835
647.5725
640.81442
605.44106
608.99321
610.7802
579.22692
579.2201
577.24995
545.45981
543.47091
544.37269
573.62158
569.5043
568.56286
539.63011
539.96904
567.62385
571.32225
542.62593
542.38345
572.52136
599.39874
592.74003
585.86123
606.2326
595.98632
594.64951
585.38358
599.05557
587.29614
588.14116
588.71012
601.82973
602.1312
618.15824
617.58421
601.28645
600.41597
616.22451
600.97197
599.71542
614.24277
633.10479
614.28063
616.15585
617.43966
617.96612
617.6478
616.43456
636.52738
637.9819
665.74378
638.55629
636.99626
616.51217
636.05207
613.92774
615.31222
637.77207
663.93508
632.14109
630.34496
661.4708
703.45206
664.82027
667.03154
705.54806
702.69601
663.82445
699.9161
663.71305
661.00606
698.30476
745.04689
696.28602
693.59131
695.99577
689.07864
777.47098
799.8773
813.20791
994.53924
806.2915
793.78288
975.97699
1260.8782
975.19831
1036.4078
1388.5567
1220.6838
1709.5786
1981.6753
1349.6799
1794.2246
1321.8389
1009.6064
954.35054
1093.5348
1239.6483
1641.9959
1173.3811
1319.7309
1882.0654
2380.3471
2054.5715
1621.4095
2106.5804
2454.6135
2814.637
2418.6116
2422.1059
2104.3226
1701.6
1213.7992
878.33981
688.04081
597.94956
535.98483
547.42027
541.56186
529.74413
583.11729
594.32611
609.1106
709.90862
667.21067
652.48092
775.10533
798.35318
926.35176
907.87627
778.81871
691.73814
640.28345
601.81611
572.65497
541.82648
546.12754
544.83375
540.58274
570.65207
574.28603
576.247
606.94227
603.33705
598.41017
633.55946
638.51033
645.43561
650.59613
654.04953
612.15194
579.63577
548.20512
546.88548
544.94337
576.25957
577.51933
573.99744
544.83239
542.86061
542.79556
538.39803
535.34529
539.76611
566.7475
570.95324
567.38972
563.0077
586.04084
592.84743
597.44759
590.51101
615.50522
627.6576
623.66852
611.49175
600.36457
578.9584
558.20054
531.60667
531.87032
519.27131
506.96542
504.22696
517.68933
555.11926
575.16785
564.01953
542.25165
577.95075
612.45993
605.87965
687.85474
693.121
622.14908
588.03333
629.58996
623.62649
582.68372
548.20799
517.89381
483.08817
444.10436
394.74815
325.67302
232.75841
234.09579
320.07978
322.12059
286.10066
264.38842
285.18117
290.42287
267.00204
286.69501
316.46476
394.89818
374.22102
357.51319
378.21028
400.71034
450.37751
421.90623
415.34887
450.35659
420.31502
459.47701
494.56373
529.14374
495.10996
483.85398
462.86427
403.29743
345.95963
462.95787
530.15856
515.07306
525.79814
558.13724
589.20117
558.42622
548.49975
518.11472
483.87658
495.12448
459.42794
450.35955
483.23164
494.66963
529.29822
537.92506
498.71079
421.73932
462.00841
484.62138
455.23174
397.9068
401.18045
376.92446
352.86322
374.89142
419.96552
422.71056
456.80377
455.81168
397.51213
398.81905
374.82482
355.07342
374.31613
419.53159
420.61217
455.03444
506.08931
517.65426
525.94093
531.69164
536.10215
539.4922
542.30566
544.22223
545.424
545.5425
544.54249
542.72759
542.87643
540.19404
568.38424
569.47046
573.51791
572.21047
575.0935
544.61938
545.53383
576.59526
578.23805
576.6486
607.45182
601.67289
594.60927
592.70928
599.29049
630.27707
618.1596
621.30976
634.32903
645.77609
641.03309
604.71137
607.61088
610.57978
652.2699
647.18198
710.41362
696.47843
673.77161
650.62599
655.72698
680.40807
752.99732
705.03785
697.26318
742.88429
795.2819
806.09278
704.22251
708.69211
723.20952
845.04753
810.51108
808.65488
801.11423
830.85351
815.41477
713.2386
711.56381
702.40883
688.91148
679.65696
753.88804
766.99786
794.25577
812.39191
827.20526
718.32242
701.87677
646.01538
608.11195
606.34768
643.08977
631.42862
600.15621
572.84822
568.55874
539.89169
541.77441
569.65226
594.24231
601.69508
633.77141
620.40504
618.59965
592.94338
585.54057
563.75379
536.41259
536.30295
531.62437
526.86769
552.55472
556.64891
561.98374
583.29834
576.10269
571.59654
589.41775
593.23104
603.81022
606.41571
607.87385
586.70867
564.79496
538.30947
533.62198
531.87108
558.4128
559.38567
552.82865
527.89156
526.00932
525.85938
520.80171
512.36088
517.39002
541.42698
550.09031
545.96751
536.93234
554.02054
563.77095
568.337
558.9966
572.80021
583.26073
579.54347
568.58492
581.53045
594.26454
607.55433
623.50764
641.50973
661.75042
668.50672
646.96347
690.14619
728.42522
720.85592
683.97873
739.80823
800.23417
860.77015
891.6012
948.65634
1213.8609
1140.6892
1036.9942
1087.9709
1143.6178
919.34456
781.12529
696.52383
674.23486
678.0831
653.75301
651.10231
696.30958
737.91478
744.75077
791.94181
942.89574
1024.6444
1031.2582
960.09717
864.29228
780.65955
877.18745
864.23489
996.51584
848.79687
932.819
993.3551
1312.3879
1165.5242
1226.6649
1025.0831
1047.9776
874.25808
877.63169
783.65408
886.02691
778.67848
772.75302
712.73373
668.97652
638.98931
665.07271
636.61844
661.78948
635.57599
637.47659
638.31932
666.09176
638.89961
638.00233
664.76579
661.92245
636.00891
662.98122
635.06363
613.66533
615.08035
637.20932
638.16634
664.49864
663.07535
631.63159
629.51895
626.44932
611.62694
631.98445
655.22788
659.87695
701.364
705.92319
666.08082
667.49112
706.10007
704.15181
763.37956
765.76015
707.89449
707.00971
764.31076
759.29632
841.65027
756.17138
693.87631
649.8434
652.31327
697.7259
738.36911
674.85899
671.36024
732.2013
823.71381
835.30234
762.42519
851.68942
979.62631
957.82297
1105.498
898.88001
770.73645
691.49294
696.27498
780.25499
810.29026
710.58777
650.6423
651.67147
644.31941
632.87878
620.20125
594.36214
593.92174
619.42872
631.93659
600.89843
601.46345
607.49148
606.81307
576.90463
546.3209
547.50588
546.74708
546.79059
498.31912
430.0338
430.06889
431.13202
496.82778
544.20605
544.32221
574.23097
575.63697
577.46588
545.33935
545.35504
575.94425
605.91607
602.64062
597.33268
591.09525
614.88362
604.31102
601.90555
593.0155
584.27902
574.41739
561.4219
542.31414
498.34821
415.60846
346.05892
279.32378
259.40296
198.77731
200.49535
177.73839
200.05686
254.93314
227.60553
227.92604
279.32897
279.66525
346.01837
346.35382
369.2335
313.38246
313.79595
366.02075
369.72599
416.05846
415.21772
452.65126
393.05269
394.16181
451.16851
447.81454
411.29138
410.19037
364.9986
388.27789
389.07109
403.26921
333.11016
248.22647
247.53561
322.94701
304.8352
273.84712
273.69378
334.07253
336.20449
358.73167
357.41626
400.81184
403.10888
438.87754
381.11168
379.51334
433.25112
424.90501
393.61482
352.88905
303.26056
351.65854
389.37668
369.90575
372.63245
384.50275
319.73087
381.24208
442.53781
452.34158
392.51496
394.64533
402.16026
465.12016
444.50519
479.87485
453.49725
412.00811
345.87855
279.66324
313.59094
313.74408
369.24605
369.71327
394.02686
393.00936
452.41514
415.02604
415.94852
450.86052
447.45951
388.84695
366.0512
364.83952
387.99015
444.03572
410.09303
411.19819
455.19378
459.49401
459.46737
486.25963
486.66833
505.20563
504.54919
529.718
509.55244
510.22651
529.47146
528.50877
503.1484
484.94292
485.17112
503.51343
527.98117
508.88402
508.55014
526.65689
499.51168
498.37023
527.50163
527.8299
547.33207
547.79795
561.59694
542.44533
542.97079
561.1178
560.31045
546.6452
545.95489
526.68242
541.82385
541.67474
555.36033
533.13619
499.53486
459.58258
459.62597
486.43527
486.9045
510.3675
509.66281
529.83037
504.73226
505.49373
529.64781
528.7475
508.73128
485.24258
485.49965
509.11704
528.26184
503.90133
503.51384
515.13274
472.52459
408.7401
333.63579
407.91278
474.49651
485.56421
417.1053
417.99093
483.43405
479.67954
469.17583
512.85156
501.34996
482.84568
455.30919
494.59323
494.29348
522.48491
504.00724
506.50631
482.57655
501.23815
525.96597
526.91196
506.54344
524.5956
526.80532
526.73773
527.83787
527.4986
547.74149
547.37855
560.97388
542.88836
541.52546
541.75622
559.55165
546.112
546.75009
560.22143
571.84272
555.24743
556.44048
533.69953
556.513
556.60713
573.00721
573.77002
585.21133
569.47658
569.3821
584.11619
582.79582
572.09224
571.17788
559.6658
558.52589
544.87526
526.63623
500.90982
482.50276
482.23994
500.91154
525.81625
506.38229
506.32697
524.51202
494.59451
494.28102
453.4335
479.6624
478.93289
497.35838
497.99537
524.12596
503.92081
503.39422
522.71898
541.31273
521.72058
522.50803
524.31609
544.00206
557.7277
539.65777
539.57393
553.46607
530.09965
528.51872
551.60463
537.80694
537.35333
555.31544
556.54217
542.71248
555.25632
536.78766
509.4225
464.61561
401.61986
332.72931
247.86892
246.80785
227.55376
273.65828
304.33182
358.40316
335.87638
357.20618
378.7854
380.67724
438.31422
402.99503
400.77826
432.25306
402.33057
446.90701
442.73372
469.70986
473.78717
475.27031
493.67269
492.22138
518.02478
498.62267
499.85694
520.26321
539.29348
518.67576
487.32891
484.90576
514.1182
494.73764
492.11651
467.31724
484.80363
487.74769
514.60102
510.7328
530.73126
511.41922
528.35701
530.4611
533.478
517.41551
537.2595
551.74482
553.53527
534.34442
548.67646
524.16712
487.35042
447.10085
443.37144
485.01642
514.44879
495.12464
470.31376
473.96374
475.38923
479.11995
503.4205
522.75115
497.56192
498.26622
524.19984
542.67684
544.0569
524.36766
539.55654
539.50531
558.49369
545.04671
557.66608
539.6387
540.88216
515.37097
523.53692
523.36629
525.45347
517.11844
516.49653
542.76314
542.3938
550.84684
551.35098
524.82194
530.40127
530.8069
556.74652
557.46284
562.14556
534.56234
534.86705
561.17312
559.72027
555.56452
549.88731
541.63489
559.5378
560.30743
560.84234
569.93006
569.12054
583.08873
573.64821
572.73655
571.78594
558.78264
567.08824
549.09376
554.57564
528.71955
528.66945
532.50716
532.4661
558.50429
577.78981
573.0839
574.45414
568.17925
581.78829
580.45948
587.36254
589.31431
591.21448
575.80786
576.94664
583.1054
581.45428
599.29388
596.51944
579.68364
584.36284
563.07864
535.29637
488.89704
422.86339
342.72399
342.20908
416.95263
412.10845
410.8699
475.45718
480.42321
415.4616
417.83862
419.41191
425.37637
424.80829
422.18339
491.40536
493.93857
491.26365
487.09019
485.0098
532.14461
529.71309
526.12506
520.91599
520.67944
512.61955
538.54089
546.54763
547.71503
565.90477
564.63044
556.58625
569.59697
557.68136
556.41973
537.67677
537.25532
521.69259
541.27619
555.22805
566.76125
550.90669
551.47968
553.0754
553.33918
555.07213
567.54414
567.79672
569.30084
569.34713
556.39334
573.47446
572.81394
583.83012
584.89601
597.335
582.77596
581.95684
595.95206
597.65862
611.88947
609.37833
595.71818
593.93663
580.56191
567.90032
567.64644
555.27964
581.65051
592.40339
579.66385
592.26415
581.43772
571.03093
569.92449
569.00291
579.06111
565.46628
565.72162
580.14514
590.60051
578.17397
565.82677
565.54977
553.2803
569.15803
570.0954
580.26758
579.20518
577.95928
568.05851
566.87181
551.02658
563.42516
563.91332
575.9804
563.78608
563.37733
576.77228
577.86032
567.89648
578.74744
568.39037
555.22065
536.84753
509.74471
508.81756
535.23926
543.10111
516.78185
517.66373
544.80184
563.16382
561.54109
553.70684
566.9929
574.66547
576.22149
577.66559
579.04265
570.74525
581.27598
582.6038
583.83451
585.06248
586.22607
598.1374
596.43117
609.10499
595.62989
597.43704
611.81496
629.57734
611.98127
609.44105
625.748
629.47111
632.83367
657.83948
693.85343
658.55328
694.70798
748.66099
757.50691
699.94337
748.19514
696.70111
700.69804
664.59101
665.89522
665.55914
704.68003
702.15297
749.88734
752.98166
702.33669
755.87893
752.30878
746.87748
740.72368
804.86524
743.42748
808.51906
814.99373
752.72077
833.62968
919.47448
911.67175
1013.1061
887.43804
898.92317
810.92536
907.97299
821.17097
812.43638
900.76802
1005.527
1018.8429
1170.4321
1026.4942
1039.6978
931.75536
844.49825
758.67232
762.67106
852.17807
939.79639
826.57056
822.1959
907.68539
817.78799
821.96922
927.00657
837.38484
830.83736
919.56345
1031.8714
1039.4438
912.68717
1047.3977
1195.7542
1186.8254
1424.1511
1248.8445
1106.9522
978.319
956.36492
1140.8605
1342.1577
1081.9167
1053.6746
1291.6724
1609.1937
1754.4823
1399.522
1661.6634
2269.4958
1989.2759
2421.3805
1911.0417
1485.3313
1188.9413
1223.9007
1545.6503
1762.4663
1397.5595
1363.877
1158.0809
1349.9518
1167.9492
1030.7453
908.89552
932.16347
1056.6676
1290.5692
1096.3895
1054.9314
1244.19
1435.4336
1493.6806
1201.8337
1382.9253
1716.3981
1662.3667
2088.0156
1805.5113
1520.1691
1228.4476
1322.6201
1055.8068
874.18621
923.13683
781.98612
696.65258
704.78973
797.79971
957.09269
987.60646
919.55495
1152.4894
1322.2326
1239.8328
1161.5725
1098.2899
887.38884
768.31094
770.02259
783.97799
697.82865
643.52133
606.28415
576.17589
572.57158
570.98598
540.89602
545.20519
574.65101
576.58033
578.19666
579.41241
548.30713
547.17194
545.32487
543.32279
496.24293
431.22435
434.2123
427.87682
422.138
340.81209
342.7002
352.63867
431.11008
496.81583
493.95916
428.33645
427.26964
495.34105
488.87672
421.7081
425.79215
489.69701
477.92046
415.77205
412.52466
397.65728
319.66409
233.99839
321.78965
397.17608
412.17714
413.33839
423.11839
487.81702
476.28809
477.24437
455.46893
456.49117
400.93261
376.38681
352.16769
374.37783
377.7542
400.63752
325.2877
316.09822
394.70313
394.62556
444.03285
450.23402
421.47618
356.91196
373.84972
415.01751
450.22702
483.24529
463.35951
518.79807
529.78854
494.58384
459.22524
420.04617
484.25799
495.33701
526.83385
560.28422
550.55925
533.22754
587.93915
594.15713
561.25765
551.6837
516.38995
484.59705
464.04207
403.29769
345.44855
266.34079
286.09166
289.82312
284.53925
264.17598
285.62331
354.35638
373.7729
374.32285
398.58429
454.72705
420.02985
418.84644
422.09817
419.41616
455.02779
501.22124
512.4084
521.02567
527.22115
532.09981
535.90897
538.89888
543.3139
571.6286
568.07288
563.85364
567.59669
540.30108
540.40018
542.20896
545.25514
574.6005
577.8101
608.14316
611.1966
609.37982
648.27286
651.345
645.39895
642.693
606.51876
603.57006
598.63945
601.24698
638.58927
633.5172
638.34904
628.96603
598.4136
593.76211
624.93845
613.6166
587.35802
591.88491
617.67739
620.73335
632.66577
601.0917
573.5168
569.3641
570.41961
595.54288
602.55949
634.85478
622.46356
622.79271
635.38932
646.21913
652.39219
611.63138
611.2734
610.52045
578.88359
579.01168
547.6209
546.56092
545.78908
577.75712
579.47251
577.40425
576.05942
577.65085
545.38914
545.41979
576.0671
574.60281
544.49841
544.44998
542.65281
544.7462
543.812
574.59067
574.27715
570.16975
541.77722