/*--------------------------------*- C++ -*----------------------------------*\
  =========                 |
  \\      /  F ield         | OpenFOAM: The Open Source CFD Toolbox
   \\    /   O peration     | Website:  https://openfoam.org
    \\  /    A nd           | Version:  7
     \\/     M anipulation  |
\*---------------------------------------------------------------------------*/
FoamFile
{
    version     2.0;
    format      ascii;
    class       volScalarField;
    location    "20";
    object      p;
}
// * * * * * * * * * * * * * * * * * * * * * * * * * * * * * * * * * * * * * //

dimensions      [1 -1 -2 0 0 0 0];

internalField   nonuniform List<scalar> 
25278
(
101312.51
101312.21
101314.33
101314.3
101318.88
101312.1
101310.2
101312.49
101310.32
101305.74
101307.59
101310.83
101313.31
101316.8
101321.4
101314.36
101312.24
101317.6
101317.75
101322.42
101316.07
101316.08
101314.65
101309.72
101305.82
101309.64
101314.61
101314.12
101321.62
101315.74
101312.06
101317.22
101312.67
101314.8
101310.44
101325.81
101320.45
101315.16
101321.03
101312.66
101315.58
101307.96
101314.74
101315.3
101315.11
101306.42
101308.97
101306.54
101308.49
101314.8
101312.51
101319.8
101312
101316.53
101328.99
101319.51
101313.53
101323.6
101310.82
101318.13
101315.26
101314.78
101313.98
101317.02
101329.9
101326.67
101313.72
101313.37
101311.17
101314.76
101340.85
101332.62
101338.12
101326.88
101335.9
101318.44
101310.47
101315.74
101316.07
101319.39
101323.2
101321.38
101317.58
101317.72
101318.26
101322.29
101322.5
101328.87
101324.05
101332.52
101325.57
101315.99
101324.11
101323.41
101321.63
101315.92
101321.3
101329.42
101323.89
101318.45
101321.33
101321.23
101323.89
101318.38
101325.56
101327.89
101321.84
101321.75
101323.59
101322.71
101325.91
101316.78
101320.73
101320.72
101321.78
101326.19
101326.39
101322.11
101324.93
101324.86
101317.68
101318.24
101318.87
101324.05
101323.34
101323.54
101322.59
101325.85
101322.48
101322.28
101323.17
101319.35
101317.53
101321.35
101324.01
101328.82
101321.8
101316.72
101320.54
101321.68
101321.65
101320.53
101326.2
101322.04
101325.45
101327.79
101321.23
101315.89
101321.53
101315.94
101321.34
101332.44
101325.51
101329.32
101317.51
101323.78
101318.28
101323.7
101325.98
101332.29
101331.59
101332.11
101332.56
101326.48
101325.67
101327.94
101325.13
101322.48
101326.99
101321.15
101322.01
101325.34
101323.78
101332.25
101328.94
101319.56
101323.62
101323.26
101319.02
101328.18
101331.77
101323.55
101325.25
101321.92
101321.11
101321.24
101318.32
101325.54
101326.25
101326.5
101320.97
101324.99
101317.67
101327.83
101322.25
101325.96
101320.16
101327.03
101330.68
101331.35
101328.03
101320.86
101326.34
101326.27
101323.22
101323.26
101314.86
101321.69
101317.15
101311.93
101326.02
101312.63
101315.73
101307.94
101320.54
101315.03
101321.01
101312.58
101314.67
101315.24
101306.4
101304.83
101311.49
101308.83
101305.93
101296.34
101307.47
101297.86
101306.22
101319.33
101311.94
101295.2
101307.41
101306.49
101315.01
101319.65
101308.41
101306.17
101316.06
101322.51
101314.81
101329.26
101316.51
101318.18
101315.16
101319.53
101313.27
101323.67
101310.59
101314.58
101313.68
101316.91
101312.45
101319.77
101311.82
101330.24
101314.63
101310.87
101326.89
101313.42
101312.98
101311.67
101312.64
101313.88
101315.42
101305.96
101310.05
101302.12
101313.82
101317.81
101304.56
101291.48
101297.4
101304.38
101301.6
101297.88
101304.2
101286.75
101289.98
101298.29
101292.23
101288.9
101300.58
101293.75
101296.66
101292.13
101295.42
101315.73
101303.9
101319.18
101298.8
101296.11
101296.38
101306.03
101311.49
101304.8
101319.12
101311.93
101306.88
101307.63
101295.33
101306.34
101319.07
101311.44
101306.33
101331.48
101329.16
101344.99
101320.96
101319.36
101304.91
101318.39
101301.46
101315.92
101313.45
101314.74
101304.95
101319.37
101336.05
101323.2
101318.56
101301.31
101326.82
101320.95
101315.9
101313.39
101322.09
101343.28
101321.36
101322.31
101282.59
101306.91
101337.05
101313.19
101343.93
101310.81
101338.65
101317.55
101302.59
101309.91
101316.31
101334.72
101309.41
101321.29
101307.4
101312.3
101307.62
101284.74
101314.02
101303.4
101290
101320.22
101305.15
101318.58
101305.95
101301.07
101298.92
101302.06
101274.01
101295.66
101287.9
101299.71
101289.22
101311.21
101297.22
101300.32
101314.54
101307.75
101319.22
101306.34
101284.84
101314.42
101303.54
101331.93
101329.37
101345.47
101317.88
101302.54
101309.77
101316.07
101334.71
101309.25
101321.17
101339.1
101312.38
101287.84
101311.19
101288.94
101299.58
101307.2
101304.87
101305.75
101318.38
101304.58
101320.35
101289.76
101300.71
101298.52
101302.08
101273.85
101295.9
101296.78
101292.26
101291.61
101276.62
101276.74
101273.4
101293.33
101305.84
101311.97
101281.11
101288.47
101297.14
101294.46
101296.63
101293.12
101294.45
101307.06
101280.77
101278.38
101293.06
101293.84
101296.07
101293.91
101292.5
101295.04
101300.51
101296.19
101293.92
101291.03
101268.65
101268.55
101274.98
101297.46
101293.49
101294.25
101300.81
101296.31
101304.53
101309.01
101297.02
101299.17
101302.05
101316.22
101329.9
101326.03
101350.7
101323.04
101338.26
101326.15
101314.87
101317.25
101315.3
101320.86
101332.5
101296.16
101331.34
101348.09
101321.44
101311.84
101302.89
101313.49
101309.91
101297.52
101275.86
101301.89
101351.24
101307.09
101340.93
101326.05
101338.47
101319.42
101320.47
101314.79
101314.01
101300.12
101345.59
101320.19
101291.62
101295.1
101296.68
101308.95
101308.03
101327.3
101318.49
101330.85
101311.84
101330.32
101311.56
101335.08
101310.88
101344.27
101300.28
101279.34
101313.66
101268.15
101288.66
101297
101295.78
101310.24
101295.7
101309.93
101290.26
101290.39
101292.59
101296.98
101305.11
101309.6
101307.98
101329.69
101306.28
101310.28
101319.56
101313.98
101302.87
101304.7
101314.07
101315.5
101350.13
101323.07
101321.01
101315.58
101317.37
101314.89
101296.76
101307.58
101315.29
101320.74
101319.8
101338.56
101301.02
101314.69
101308.89
101309.66
101310.28
101313.68
101348.09
101321.81
101331.89
101276.73
101311.71
101303.03
101297.82
101297.3
101302.71
101351.46
101346.3
101293.39
101295.58
101306.46
101255.17
101327.77
101278.03
101334.21
101302.72
101351.95
101312.04
101314.67
101304.75
101292.32
101297.9
101298.31
101307.4
101304.31
101298.6
101302.06
101298.75
101290.12
101287.09
101292.93
101290.02
101301.27
101304.71
101297.55
101295.2
101286.86
101293.13
101296.1
101315.8
101304.44
101318.86
101298.75
101293.46
101305.71
101311.89
101297.54
101295.12
101281.54
101288.55
101297.61
101296.72
101300.26
101276.62
101273.37
101292.44
101278.73
101281.41
101307.14
101295.7
101294.08
101293.9
101294.89
101297.27
101294.18
101275.49
101268.69
101268.98
101295.14
101294.66
101291.62
101292.02
101276.56
101295.11
101282.47
101275.72
101290.14
101289.15
101292.01
101290.99
101286.58
101276.73
101266.34
101295.97
101279.23
101288.71
101268.4
101293.9
101283.01
101288.8
101282.9
101293.41
101236.83
101274.17
101272.83
101284.13
101287.28
101296.06
101299.61
101299.43
101299.94
101309.54
101310.95
101325.94
101310.92
101335.98
101304.04
101319.34
101334.97
101323.44
101306.81
101309.33
101306.08
101316.35
101298.96
101316.34
101302.51
101302.25
101303.25
101311.15
101328.3
101321.13
101351.32
101338.74
101307.23
101307.5
101309.64
101312.51
101299.01
101324.63
101333.76
101307.6
101305.16
101296.01
101298.15
101298.17
101279.08
101306.02
101334.91
101297.48
101294.26
101312.09
101252.64
101296.15
101287.02
101282.26
101281.37
101295.39
101296.9
101306.48
101301.29
101302.39
101294.67
101295.7
101297.76
101303.66
101309.3
101307.31
101304.93
101315.78
101294.8
101301.93
101302.27
101306.62
101296.32
101298.99
101297.18
101293.29
101330.21
101293.84
101270.74
101285.42
101335.22
101307.66
101353.35
101312.9
101317.76
101306.06
101302.31
101301.1
101302.05
101289.11
101299.97
101297.53
101294.62
101296.38
101287.59
101280.81
101282.4
101297.44
101287.09
101301.83
101289.99
101305.03
101309.41
101293.04
101300.36
101300.38
101299.77
101297.88
101299.64
101300.16
101297.39
101299.24
101306.56
101294.07
101303.05
101306.42
101305.57
101293.41
101308.66
101303.89
101302.79
101301.61
101305.78
101312.69
101297.9
101290.06
101301.92
101301.14
101301.74
101304.83
101301.69
101301.55
101300.47
101302.17
101301.96
101296.96
101295.87
101298.63
101301.77
101306.49
101306.19
101307.13
101304.53
101303.03
101297.41
101299.12
101304.51
101303.05
101305.83
101326.59
101316.79
101307.94
101345.11
101298.62
101307.25
101308.4
101306.44
101305.28
101318.84
101295.54
101302.71
101303.66
101301.56
101324.64
101312.89
101310.1
101349.66
101300.26
101307.69
101307.81
101306.29
101306.17
101322.1
101298.21
101303.91
101306.5
101306.06
101304.29
101308.32
101309.54
101306.6
101305.43
101329.41
101270.51
101296.07
101296.85
101298.56
101297.58
101299.92
101301.75
101299.52
101310.31
101306.4
101306.34
101332.78
101273.78
101297.25
101297.04
101290.38
101289.65
101290.76
101290.57
101312.56
101240.61
101277.34
101279.69
101275.26
101274.77
101293.56
101291.96
101293.18
101292.19
101292.73
101283.99
101283.58
101279.77
101282.12
101266.51
101290.15
101290.03
101283.44
101287.16
101296.3
101298.14
101283.99
101279.63
101273.27
101280.51
101284.44
101289.38
101277.08
101295.32
101288.98
101268
101289.29
101291.38
101290.5
101286.4
101284.26
101289.53
101287.55
101267.76
101289.51
101296.37
101296.76
101294.25
101295.17
101302
101305.6
101310.43
101305.29
101308.37
101301.29
101307.54
101298.49
101303.16
101295.84
101281.83
101270.09
101295.59
101270.47
101290.17
101295.57
101282.06
101305.37
101302.04
101295.94
101295.97
101300.03
101312.71
101304.48
101313.34
101305.98
101316.73
101314.02
101304.96
101298.01
101295.25
101296.58
101302.05
101297.69
101294.14
101288.9
101289.12
101282.05
101280.83
101281.17
101271.22
101274.07
101284.42
101288.02
101280
101327.72
101289.86
101272.44
101255.48
101267.27
101276.34
101212.77
101249.07
101318.06
101266.96
101259.73
101286.46
101193.36
101234.42
101246.05
101243.69
101252
101268.23
101265.71
101278.07
101271.48
101252.87
101240.03
101265.52
101257.08
101277.48
101287.88
101299.14
101298.49
101305.52
101308.64
101309.67
101319.3
101312.54
101310.33
101316.65
101320.4
101331.33
101324.15
101316.55
101323.32
101311.55
101311.02
101304.19
101305.71
101300.43
101289.78
101289.44
101303.73
101320.69
101324.18
101322.36
101329.02
101326.9
101333.24
101330.82
101316.78
101314.31
101322.34
101339.47
101343.38
101320.56
101314.52
101299.22
101288.83
101273.47
101279.49
101284.14
101291.86
101290.56
101277.56
101285.1
101273.83
101262.87
101249.04
101264.5
101285.68
101282.98
101301.93
101298.66
101309.23
101312.65
101310.29
101303.55
101301.4
101308.96
101299.84
101291.65
101304.66
101302.74
101302.45
101307.22
101308
101312.2
101317.26
101307.78
101305.33
101299.5
101292.23
101295.4
101293.72
101292.56
101274.24
101275.02
101274.51
101274.05
101265.18
101330.78
101319.32
101241.92
101271.9
101271.02
101272.13
101295.55
101293.47
101294.27
101302.9
101299.83
101310.28
101311.08
101306.67
101322.05
101301.28
101302.32
101304.75
101306.6
101316.06
101317.57
101317.74
101321.39
101329.44
101321.37
101327.99
101325.1
101322.41
101325.71
101326.51
101326.9
101321.13
101322.11
101321.36
101323.98
101318.49
101323.98
101317.63
101318.51
101325.8
101326.41
101332.71
101332.23
101323.75
101325.58
101324.03
101319.66
101328.86
101332.37
101326.64
101321
101322.03
101328.08
101317.86
101325.17
101327.92
101322.08
101325.55
101323.77
101319.01
101328.03
101331.98
101332.48
101331.77
101323.64
101320.97
101326.47
101326.36
101325.59
101317.69
101325
101322.26
101325.95
101320.14
101327.08
101330.67
101331.5
101327.98
101320.76
101326.28
101311.94
101319.74
101312.47
101314.79
101322.4
101316.5
101323.42
101329.86
101326.56
101313.67
101317.12
101314.09
101313.42
101311.11
101314.83
101310.81
101314.94
101313.56
101319.58
101328.84
101318.18
101315.45
101315.76
101319.61
101308.53
101298.14
101292.39
101296.43
101294.7
101298.11
101300.41
101306.42
101317.86
101314.62
101312.11
101313.1
101302.49
101289.86
101287.92
101281.25
101283.43
101288.12
101295.8
101297.98
101303.17
101314.01
101314.3
101305.26
101306.86
101310.65
101305.19
101301.96
101291.29
101297.07
101294.08
101299.46
101310.47
101300.83
101306.96
101303.04
101303.01
101305.97
101297.97
101294.88
101306.92
101305.95
101303.83
101304.39
101311
101310.01
101314.28
101315.8
101322.42
101319.33
101309.96
101312.1
101304.47
101302.44
101301.86
101314.74
101307.89
101287.69
101284.9
101253.95
101266.93
101235.74
101224.61
101226.29
101260.4
101256.13
101255.59
101314.19
101293.29
101250.87
101217.69
101226.4
101229.68
101195.44
101216.19
101215.11
101249.77
101272.36
101272.16
101290.53
101324.85
101248.97
101299.91
101247.65
101210.02
101206.76
101264.09
101280.12
101259.73
101297.79
101256.22
101308.14
101266.63
101323.77
101276.93
101327.89
101296.49
101286.87
101297.18
101299.69
101309.29
101310.77
101319.48
101303.64
101336.06
101310.43
101308.97
101305.58
101307.74
101309.33
101301.87
101294.23
101299.16
101296.38
101305.89
101306.32
101323.19
101335.21
101306.16
101278.42
101297.74
101297.55
101306.99
101309.18
101321
101351.99
101312.44
101298.3
101338.93
101306.46
101306.83
101304.08
101306.72
101328.44
101316.05
101297.97
101301.5
101300.42
101294.99
101296.9
101302.61
101302.37
101310.64
101304.22
101301.39
101305.47
101301.34
101314.52
101314.47
101304.53
101306.13
101312.07
101314.26
101312.5
101310.21
101316.72
101314.53
101316
101316.03
101319.73
101312.41
101326.81
101311.78
101310.81
101312.95
101313.37
101316.86
101330.17
101314.6
101313.6
101314.43
101313.16
101314.73
101322.43
101316.4
101323.52
101310.47
101317.99
101329.08
101319.38
101314.96
101315.2
101313.7
101312.54
101311.63
101300.24
101300.26
101285.91
101287.75
101299.25
101296.12
101280.14
101285.22
101300.8
101288.42
101291.49
101299.5
101299.46
101298.4
101298.64
101301.1
101297.81
101305.76
101291.94
101303.92
101303.87
101300.86
101300.07
101304.8
101312.37
101300.61
101299.65
101296.69
101293.3
101315.36
101326.65
101316.39
101354.18
101307.31
101307.61
101306.21
101306.98
101345.5
101297.71
101328.99
101335.3
101324.25
101333.91
101293.64
101269.57
101295.18
101304.26
101305.59
101308.61
101298.36
101295.35
101296.19
101300.8
101300.73
101301.65
101304.89
101293.64
101318.37
101303.97
101305.46
101308.37
101305.55
101295.76
101284.78
101268.89
101294.62
101304.04
101306.69
101302.03
101302.86
101297.8
101297.5
101295.88
101297.75
101299.25
101303.47
101301.47
101300.87
101300.45
101300.72
101308.35
101299.77
101287.75
101299.96
101301.47
101284.82
101290.22
101305.43
101316.51
101313.62
101308.15
101303.98
101306.01
101300.24
101296.15
101299.52
101300.9
101295.32
101297.8
101300.64
101300.76
101300.87
101306.97
101303.58
101308.17
101304.47
101303.55
101300.76
101305.16
101307.88
101304.88
101302.79
101301.6
101297.87
101297.64
101295.81
101294.71
101292.26
101299.36
101287.97
101283.87
101281.83
101291.56
101294.87
101293.78
101282.04
101252
101289.29
101272.32
101279.92
101267.29
101255.61
101212.48
101249.67
101318.47
101277.47
101279.32
101292.64
101289.66
101274.75
101239.39
101285.95
101259.66
101266.89
101246.26
101234.77
101192.45
101229.93
101314.93
101264.79
101273.39
101289.65
101288.08
101270.72
101240
101293.04
101250.8
101255.7
101226.93
101218.06
101193.64
101214.57
101306.84
101253.51
101270.46
101288.27
101295.1
101304.69
101306.54
101312.09
101352.73
101301.96
101299.2
101350.18
101308.96
101306.26
101304.34
101304.71
101324.42
101299.91
101296
101321.53
101321.3
101308.77
101349.94
101319.36
101338.32
101325.97
101300.04
101313.94
101314.6
101320.36
101340.8
101307.12
101351
101345.36
101319.96
101291.62
101294.73
101307.89
101308.67
101296.06
101301.8
101275.79
101330.9
101296.07
101332.24
101325.95
101337.93
101322.75
101320.63
101314.97
101316.84
101314.61
101347.47
101321.11
101311.24
101301.89
101296.63
101309.39
101312.87
101310.87
101329.49
101311.08
101330.36
101317.71
101327.36
101323.32
101323.94
101271.9
101276.62
101333.98
101332.28
101304.41
101295.1
101297.31
101297.42
101308.35
101308.04
101303.52
101301.37
101301.28
101301.18
101304.84
101298.36
101288.65
101301.8
101301.32
101303.05
101295.85
101300.9
101307.38
101309
101292.11
101285.54
101303.94
101314.84
101313.22
101309.7
101316.9
101312.5
101321.33
101314.47
101321.12
101312.34
101303.87
101297.21
101293.82
101288.71
101288.97
101297.55
101301.08
101310.21
101310.54
101303.63
101315.61
101325.59
101327.88
101321.18
101305.18
101291.7
101284.05
101278
101284.41
101268.38
101265.82
101253.37
101271.68
101274.16
101281.19
101281.06
101296.62
101292.37
101280.73
101277.12
101290.87
101292.69
101274.44
101260.94
101271.58
101266.12
101240.99
101244.43
101252.39
101238.42
101260.76
101257.41
101240.92
101219.05
101241.25
101266.15
101295.59
101357.62
101326.46
101323.15
101287.25
101278.11
101287.21
101322.58
101270.88
101314.35
101362.53
101289.54
101287.35
101348.08
101298.57
101293.48
101288.55
101320.13
101287.94
101289.11
101362.37
101327.8
101313.87
101297.48
101347.61
101287.83
101294.15
101346.85
101351.16
101373.49
101350.84
101346.33
101399.97
101334.22
101334.72
101352.28
101299.41
101348.6
101293.53
101346.22
101300.96
101338.45
101319.87
101320.88
101340.85
101307.76
101315.53
101314.86
101309.29
101310.02
101351.64
101302.98
101297.73
101296.44
101301.14
101249.6
101325.07
101273.86
101332.75
101300.22
101349.4
101310.04
101313.44
101352.13
101303.26
101308.45
101308.02
101306.89
101307.33
101334.71
101279
101298.38
101298.22
101301.23
101304.92
101307.67
101304.59
101298.22
101302.52
101325.19
101307.24
101304.93
101304.85
101296.49
101319.29
101308.4
101344.88
101353.39
101317.62
101309.66
101308.34
101299.07
101308.51
101335.94
101329.77
101307.05
101308.46
101299.48
101298.48
101271.48
101287.02
101272.33
101325.29
101299.78
101338.58
101321.2
101332.5
101326.23
101338.04
101323.3
101317.8
101315.95
101296.86
101315.14
101348.21
101331.88
101321.72
101276.94
101298.59
101310.87
101314.39
101304.05
101312.29
101283.3
101322.52
101301.72
101326.81
101312.69
101320.85
101312.05
101316.08
101309.09
101306.48
101298.56
101306.32
101306.06
101311.6
101315.8
101314.17
101321.57
101317.16
101312.66
101325.66
101310.65
101320.49
101315.22
101314.91
101308.3
101315.62
101335.74
101318.54
101319.65
101321.16
101316.32
101305.57
101318.48
101323.22
101323.33
101314.87
101323.3
101321.41
101343.28
101315.46
101314.14
101307.91
101314.23
101322.47
101301.8
101318.7
101305.65
101319.74
101335.97
101326.94
101321.32
101316.48
101312.09
101308.54
101311.88
101319.39
101344.65
101315.52
101315.14
101307.19
101312.18
101305.18
101319.12
101306.74
101296.2
101308.13
101299.57
101302.49
101299.22
101304.79
101297.15
101307.72
101291.19
101288.43
101294.03
101295.9
101306.86
101292.27
101304.02
101289.31
101299.56
101289.86
101295.54
101291.5
101291.33
101294.19
101288.36
101296.32
101303.49
101311.23
101305.89
101307.62
101313.96
101315.7
101301.9
101299.86
101317.86
101310.29
101308.89
101320.69
101319.07
101316.09
101324.91
101329.35
101345.02
101336.18
101322.74
101329.1
101329.69
101346.9
101331.68
101335.57
101322.84
101334.11
101356.13
101362.54
101346.77
101353.31
101341.72
101322.52
101330.45
101331.58
101315.87
101342.07
101366.37
101351.41
101313.78
101323.3
101313.74
101316.08
101308.6
101304.7
101286.89
101273.91
101274.55
101271.39
101295.47
101297.94
101292.1
101292.19
101328.72
101256.55
101274.82
101274.84
101275.62
101280.9
101297.92
101297.53
101304.62
101307.89
101311.63
101301.58
101301.12
101310.62
101306.85
101308.26
101327.39
101307.32
101305.49
101308
101307.43
101304.79
101304.37
101302.44
101312.12
101309.6
101307.01
101316.53
101307.97
101321.93
101351.19
101313.38
101311.1
101308.97
101307.28
101309.72
101334.45
101295.57
101301.14
101299.08
101300.72
101303.28
101306.28
101304.7
101296.28
101312.66
101329.06
101309.36
101305.96
101304.91
101300.5
101317.14
101311.72
101335.86
101349.89
101326.56
101312.28
101310.78
101304.92
101320.03
101335.5
101324.19
101308.91
101311.41
101302.61
101301.12
101280.89
101307.48
101336.1
101313.71
101331.69
101314
101332.27
101320.26
101293.03
101294.31
101278.79
101276.63
101243.59
101267.66
101316.69
101295.37
101308.01
101252.76
101252.29
101217.18
101209.06
101217.56
101218.16
101201.9
101251.22
101276
101298.31
101298.72
101299.45
101299.35
101300.6
101281.76
101278.19
101284.48
101279.91
101243.38
101242.02
101229.6
101234.99
101241.24
101247.56
101206.1
101215.6
101201.92
101248.12
101246.18
101241.77
101187.01
101196.75
101180.41
101193.41
101202
101250.21
101269.27
101265.61
101222.28
101256.61
101286.37
101305.66
101304.77
101307.91
101299.77
101302.89
101295.02
101302.79
101285.14
101273.87
101263.62
101279.78
101291.15
101278.9
101300.75
101308.03
101306.04
101314.16
101315.16
101304.49
101299.48
101288.79
101287.32
101301.74
101307.32
101320.04
101335.17
101327.79
101331.33
101339.41
101319.03
101306.84
101285.7
101287.76
101274.53
101250.43
101267.54
101258.9
101236.06
101267.98
101257.88
101225.52
101227.16
101217.65
101257.72
101274.46
101294.57
101291.43
101275.34
101272.62
101290.7
101292.21
101269.95
101249.2
101242.77
101250.6
101209.24
101192.26
101202.7
101196.87
101247.68
101270.66
101293.71
101291.94
101272.69
101271.82
101292.37
101299.76
101308.21
101307.23
101305.11
101303.93
101305.34
101307.98
101311.35
101314.3
101308.96
101305.32
101307.1
101311.3
101302.71
101295.44
101291.56
101301.29
101300.98
101285.92
101295.17
101295.23
101292.61
101277.96
101291.79
101298.08
101310.07
101304.82
101305.35
101288.13
101295.01
101311.08
101327.61
101325.51
101323.22
101320.49
101332.05
101327.46
101340.18
101331.96
101323.36
101312.35
101301.96
101268.86
101267.85
101292.09
101292.29
101300.65
101302.76
101307.5
101309.13
101311.43
101309.18
101305.62
101307.69
101305.53
101300.49
101304.48
101299.09
101292.18
101295.71
101292.8
101297.37
101293.65
101299.89
101289.58
101281.67
101288.21
101292.04
101296.17
101289.43
101292.46
101288.34
101298.84
101300.81
101300.09
101292.99
101294.36
101296.55
101303.35
101307.06
101297.84
101298.57
101302.23
101306.97
101306.86
101301.29
101296.98
101302.9
101305.77
101298.95
101301.02
101298.92
101304.24
101304.8
101307.32
101306.52
101302.2
101304.83
101305.68
101309.17
101307.36
101304.56
101305.26
101304.7
101307.47
101309.56
101307.29
101304.94
101300.09
101301.5
101298.83
101297.28
101293.46
101301.18
101297.93
101299.23
101304.62
101297.9
101293.39
101295.92
101300.14
101297.07
101292.92
101289.14
101282.11
101290.06
101290.46
101293.51
101294
101294.05
101301.1
101300.86
101298.21
101299.26
101288.9
101291.72
101293.85
101287.06
101295.42
101302.17
101296.56
101288.54
101295.15
101276.47
101285.43
101298.72
101301.49
101290.04
101291.37
101301.69
101301.06
101306.27
101293.89
101281.49
101293.04
101286.63
101267.89
101288.4
101296.03
101304.47
101299.48
101303.17
101269.34
101287.79
101310.6
101316.91
101308.77
101314.63
101302.36
101303.16
101281.75
101302.39
101287.65
101286.55
101293.62
101286.85
101295.24
101301.94
101284.63
101275.78
101293.93
101287.15
101295.1
101297.3
101299.96
101280.56
101290.92
101301.31
101292.99
101304.65
101299.56
101288.41
101295.71
101288.25
101298.3
101290.92
101293.89
101285.63
101282.36
101287.55
101295.46
101286.17
101292.34
101292.73
101297.39
101292.37
101289.55
101291.37
101285.96
101305.44
101306.43
101298.56
101300.62
101300.62
101304.03
101311.38
101306.84
101288.79
101297.47
101301.78
101292.38
101295.61
101288.08
101298.11
101302.84
101309.07
101287.11
101280.98
101302.39
101322.86
101312.79
101307.04
101315.25
101327.49
101301.71
101306.93
101276.09
101292.32
101307.33
101320.62
101311.06
101316.08
101276.47
101303.75
101329.53
101339.62
101329.31
101338.42
101324.69
101329.37
101317.94
101308.47
101294.02
101290.21
101301.08
101305.4
101312.91
101301.4
101289.85
101298.33
101286.12
101305.56
101301.41
101294.16
101303.65
101310.01
101301.01
101315.77
101299.5
101308.86
101319.15
101329.8
101314.09
101307.29
101307.67
101323.23
101335.81
101315.73
101295.87
101313.99
101297.01
101310.29
101325.67
101311.1
101325.09
101343.04
101339.27
101326.3
101337.27
101323.32
101304.36
101300.31
101302.49
101297.32
101303.93
101307.35
101307.8
101302.4
101299
101297.38
101301.43
101303.13
101304.73
101299.67
101301.81
101299.4
101306.03
101305.36
101303.87
101301.63
101307.68
101302.98
101304.87
101297.87
101306.21
101312.36
101322.14
101313.14
101307.25
101320.2
101330.7
101313.08
101306.4
101315.57
101318.16
101313.03
101315.65
101307.16
101313.97
101310.87
101322.74
101323.14
101332.1
101319.48
101330.13
101327.42
101329.32
101317.33
101332.35
101344.96
101343.72
101321.14
101333.17
101316.64
101306.23
101301.32
101307.53
101315.51
101317.64
101312.5
101302.45
101304.42
101297.2
101303.18
101308.2
101317.87
101308.89
101299.57
101314.31
101324.68
101321.49
101307.11
101315.07
101294.9
101327.53
101316.08
101326.64
101313.76
101311.15
101306.06
101303.7
101287.57
101296.33
101304.3
101296.9
101298.82
101303.04
101308.29
101303.34
101283.91
101294.04
101305.54
101312.42
101306.96
101309.4
101280.63
101297.25
101315.72
101321.14
101317.06
101312.15
101305.91
101316.84
101312.96
101306.79
101313.03
101320.18
101332.89
101320.94
101327.83
101336.37
101323.65
101333.06
101317.77
101322.98
101309.7
101294.85
101286.07
101306.93
101327.7
101348.84
101341.46
101333.73
101325.72
101341.75
101350.42
101361.64
101352.61
101342.37
101327.43
101319.56
101323.93
101332.9
101351.73
101363.48
101340.36
101346.09
101324.62
101291.85
101283.1
101296.58
101284.87
101293.34
101292.1
101291.73
101302.03
101299.65
101299.97
101302.43
101303.03
101291.01
101295.28
101285.26
101288.48
101277.85
101275.87
101282
101291.17
101291.28
101298.51
101295.37
101299.13
101294.58
101310.36
101308.08
101318.75
101326.36
101321.2
101337.3
101343.38
101332.65
101348.28
101334.05
101337.64
101310.2
101324.53
101313.57
101328.41
101341.62
101357.54
101335.93
101324.85
101329.14
101313.12
101319.06
101325.27
101294.82
101303.86
101276.71
101292.01
101309.77
101318.93
101328.38
101315.37
101328.34
101312.38
101328.02
101345.36
101329.11
101341.58
101361.35
101344.17
101358.66
101334.15
101294.85
101325.36
101319.58
101351.96
101373.38
101350.08
101372.11
101350.44
101336.42
101342.85
101349.93
101366.49
101341.4
101314.71
101357.35
101381.74
101352.65
101315
101341.59
101329.61
101351.77
101344.86
101358.84
101367.93
101371.52
101355.55
101358.97
101336.32
101350.92
101333.47
101365.78
101333.1
101350.68
101374.51
101370.23
101353.86
101370.69
101351.37
101334.88
101321.29
101302.73
101311.25
101324.83
101332.34
101315.92
101304.05
101329.06
101346
101349.3
101338.67
101355.01
101369.28
101366.7
101363.25
101356.82
101341.44
101359.81
101353.2
101342.94
101333.42
101322.15
101329.75
101344.53
101360.87
101347.22
101334.46
101344.25
101354.49
101341.54
101360.69
101376.22
101351.78
101323.8
101326.31
101318.27
101328.17
101332.33
101317.43
101285.97
101290.31
101259.36
101284.54
101258.78
101273.66
101260.51
101252.59
101231.41
101237.8
101206.85
101201.82
101232.52
101210.63
101224.54
101226.81
101308.84
101230.05
101178.58
101229.45
101199.22
101226.31
101209.45
101176.82
101151.26
101213.67
101286.41
101174.18
101199.03
101177.23
101210.6
101256.36
101150.61
101214.04
101150.3
101124.12
101148.71
101115.23
101150.23
101197.24
101223.22
101208.72
101182.49
101133.73
101169.13
101184.54
101155.69
101184.33
101168.46
101132.5
101185.54
101199.61
101150.6
101117.85
101084.57
101125.46
101082.15
101038.67
101076.7
101053.33
101086.06
101123.91
101178.11
101196.4
101182.86
101141.63
101159.51
101203.72
101154.1
101186.79
101140.05
101179.23
101168.74
101126.55
101169.96
101230.9
101256.54
101219.77
101273.42
101130.87
101113.8
101100.19
101111.72
101195.79
101122.95
101193.97
101274.68
101203.84
101299.68
101197.94
101159.12
101142.21
101184.97
101261.06
101152.83
101222.33
101117.56
101131.36
101107.65
101100.5
101139.93
101188.06
101256.58
101183.85
101281.74
101178.22
101213.92
101248.91
101247.58
101270.14
101288.21
101293.4
101269.54
101244.69
101235.93
101239.38
101181.74
101169.05
101189.41
101210.3
101204.69
101299.89
101246.66
101246.13
101269.68
101287.89
101294.87
101304.24
101306.15
101299
101302.11
101352.68
101312.2
101306.6
101304.82
101304.18
101301.2
101295.7
101300.13
101324.46
101318.06
101301.3
101305.41
101301.28
101317.72
101313.66
101308.32
101297.36
101291.46
101292.53
101277.97
101280.07
101296
101299.17
101287.69
101291.98
101296.49
101301.97
101304.04
101305.72
101309.85
101319.45
101314.78
101306.08
101308.74
101297.75
101301.36
101304.16
101300.33
101293.53
101285.04
101288.63
101295.19
101297.99
101307.13
101306.27
101311.69
101304.56
101319.07
101320.33
101314.86
101311.83
101317.05
101312.51
101320.83
101312.39
101314.44
101307.71
101310.26
101325.8
101315.48
101335.68
101326.53
101323
101301.08
101315.46
101320.63
101319.03
101318.16
101318.17
101304.54
101314.15
101312.75
101321.63
101321.05
101282.28
101305.92
101312.62
101321.67
101342.69
101318.06
101323
101323.08
101314.71
101314.01
101321.57
101315.61
101311.3
101305.61
101305.74
101296.04
101307.19
101303.92
101297.61
101291.9
101286.36
101289.63
101294.89
101306.1
101314.96
101334.28
101350.16
101335.64
101351.52
101338.5
101353.87
101345.11
101306.81
101306.06
101297.56
101307.3
101307.54
101316.37
101326.48
101304.88
101293.43
101300.6
101301.59
101303.75
101303.23
101307.81
101297
101299.41
101299.77
101297.82
101308.55
101304.82
101333.99
101331.92
101271.53
101277.05
101295.35
101294.38
101303.85
101328.5
101268.78
101284.96
101334.97
101305.52
101295.82
101297.59
101295.63
101306.41
101303.77
101305.4
101301.59
101302.83
101301.69
101297.44
101297.93
101303.99
101304.59
101307.88
101307.8
101307.15
101307.52
101312.16
101303.16
101302.89
101291.18
101295.67
101304.99
101301.31
101301.04
101302.82
101304.8
101305.01
101287.75
101294.61
101310.71
101310.01
101298.15
101291.95
101285.09
101288.29
101298
101300.11
101301.28
101301.04
101299.66
101308.23
101300.58
101305.2
101304.8
101307.38