/*--------------------------------*- C++ -*----------------------------------*\
  =========                 |
  \\      /  F ield         | OpenFOAM: The Open Source CFD Toolbox
   \\    /   O peration     | Website:  https://openfoam.org
    \\  /    A nd           | Version:  7
     \\/     M anipulation  |
\*---------------------------------------------------------------------------*/
FoamFile
{
    version     2.0;
    format      ascii;
    class       volScalarField;
    location    "70";
    object      alphat;
}
// * * * * * * * * * * * * * * * * * * * * * * * * * * * * * * * * * * * * * //

dimensions      [1 -1 -1 0 0 0 0];

internalField   nonuniform List<scalar> 
24866
(
9.3765276
9.3845402
9.3808107
9.6004482
9.7936378
9.7910812
9.7863137
9.7913188
9.7904608
9.7847514
9.7850571
9.7851001
9.7847789
9.7905004
9.791416
9.786296
9.7908757
9.7923948
9.7913832
9.7860698
9.7742754
9.7911944
9.8269714
9.8121696
9.7819675
9.7773307
9.786545
9.8147377
9.8091661
9.7780304
9.7888057
9.792407
9.7924082
9.7888155
9.7780862
9.8092218
9.8148639
9.7866533
9.7772039
9.7817639
9.8120908
9.8269184
9.7911831
9.7742784
9.786099
9.791442
9.7924183
9.790964
9.786307
9.7913261
9.7905981
9.7848922
9.785054
9.7850712
9.7848489
9.7904589
9.7911793
9.7861772
9.7910389
9.7936935
9.7982248
9.7944297
9.7982148
9.7943596
9.7870481
9.7902661
9.7971111
9.7931406
9.7842331
9.7842191
9.7842477
9.7842375
9.7932011
9.7971686
9.7902747
9.7868945
9.7937626
9.7969978
9.7928705
9.794193
9.7880366
9.7790226
9.777086
9.7897084
9.7940334
9.8002097
9.7821324
9.7775128
9.7865609
9.8007645
9.7939383
9.7884278
9.7872389
9.7881744
9.786243
9.7831616
9.7861403
9.7849146
9.7891309
9.7862911
9.7837157
9.7833255
9.7833825
9.7841273
9.7849634
9.784966
9.7847543
9.7881087
9.7870144
9.7866595
9.7826892
9.790947
9.7956398
9.7930406
9.7882124
9.7854741
9.7844719
9.7838808
9.7842941
9.7846668
9.7845847
9.7839772
9.7844444
9.7835505
9.7829974
9.7837395
9.7860877
9.7832078
9.7823806
9.7826555
9.7837075
9.7847352
9.7853468
9.7850482
9.7851523
9.7847888
9.7842982
9.7847601
9.7844746
9.7870189
9.7882159
9.7826986
9.7909508
9.795642
9.6719611
9.6680569
9.5853984
9.5916397
9.5995667
9.599563
9.59163
9.5889023
9.5520889
9.6985453
9.7017024
9.5596115
9.5888119
9.5910738
9.5841444
9.5536382
9.505082
9.5229057
9.5767548
9.5898334
9.5982204
9.5977178
9.5967461
9.5943801
9.59338
9.5902347
9.5877663
9.5784643
9.5784179
9.5877521
9.590123
9.5930703
9.5948538
9.5964273
9.5883547
9.5973325
9.6738971
9.6718772
9.588554
9.5128936
9.5986773
9.6006614
9.5911177
9.7897369
9.7858366
9.7897451
9.7863483
9.7836752
9.7860338
9.7831809
9.7823466
9.7826069
9.7836327
9.7846295
9.7852217
9.7853524
9.7854733
9.7851578
9.7846761
9.7849765
9.7872481
9.7881146
9.793951
9.7866718
9.5914575
9.6027075
9.6287593
9.6986126
9.5520346
9.5888787
9.392631
9.3782978
9.3803053
9.3803009
9.3782885
9.392642
9.3523403
9.3515486
9.3741955
9.3988579
9.3734003
9.3465258
9.3303817
9.3497535
9.3798362
9.3777137
9.379143
9.3777742
9.3848135
9.3982386
9.3781648
9.3752178
9.392744
9.3823568
9.3824259
9.3928519
9.3751897
9.3778689
9.3987717
9.2054569
9.1939817
9.186702
9.1869768
9.1936717
9.3841981
9.5961281
9.5949841
9.5928772
9.5902182
9.5877443
9.5784377
9.5784423
9.5879068
9.5899527
9.593541
9.5943961
9.5970053
9.5976425
9.5983911
9.5898058
9.5768016
9.5229618
9.662008
9.7157329
9.7007405
9.5537538
9.5843026
9.5911907
9.5886528
9.559357
9.7017412
9.6365617
9.5596919
9.5561263
9.511076
9.5890415
9.5838933
9.6213981
9.6669102
9.8008183
9.7866017
9.7774887
9.788434
9.7940213
9.7881849
9.7849789
9.7845997
9.7850594
9.7844603
9.7847452
9.7846339
9.7841199
9.7833574
9.7828984
9.7837872
9.7831598
9.7833606
9.7836406
9.7837204
9.7835695
9.7833502
9.7839976
9.7841489
9.7862602
9.7897029
9.7770974
9.783191
9.7834111
9.7849482
9.7837443
9.7830178
9.7826706
9.7826183
9.7829042
9.7837869
9.7863416
9.7836845
9.7823613
9.7823985
9.7837596
9.786324
9.7891756
9.7929032
9.7861773
9.7790607
9.7880859
9.7942377
9.6701566
9.5940173
9.5819414
9.6656235
9.5841947
9.5948077
9.5083624
9.3742415
9.3776717
9.3798914
9.3498023
9.3304163
9.5052586
9.5358807
9.547801
9.6073931
9.6168882
9.6288983
9.586841
9.5085059
9.5512579
9.3547903
9.3465564
9.3734194
9.3988824
9.3741758
9.3515444
9.3523619
9.1713436
9.1994001
9.1874809
9.18636
9.1863563
9.1874751
9.1994125
9.171331
9.1654471
9.181942
9.208421
9.1814168
9.1588705
9.1565405
9.1786688
9.1905385
9.1865873
9.1849416
9.1840178
9.1941655
9.2049485
9.1880643
9.1848573
9.2040853
9.1978154
9.1977759
9.2041075
9.1848928
9.1878565
9.0165345
9.0293323
9.0220276
9.0146768
9.014887
9.021771
9.029466
9.2056155
9.3989231
9.3776906
9.3753621
9.392639
9.3823682
9.3824942
9.3929329
9.3750942
9.3784033
9.3981434
9.3851111
9.377682
9.3793388
9.1851021
9.1865379
9.1905874
9.1787212
9.1565628
9.1589007
9.1814562
9.2084597
9.1819013
9.1654175
8.9991534
9.0058191
9.023866
9.0159073
9.0142395
9.014236
9.0159032
9.0238764
9.0058088
8.9991789
9.0104939
9.0342197
9.0093955
8.991129
8.9949977
9.0155589
9.0178609
9.014836
9.0126795
9.0122661
9.0219918
9.0288302
9.0166508
9.0139387
9.030024
9.0261451
9.0261707
9.0301359
9.0140188
8.8586398
8.86052
8.8690457
8.8651357
8.8587451
8.8588968
8.8649341
8.8691458
8.8603868
8.8586529
9.0140883
9.1850145
9.2039543
9.1978392
9.197854
9.2041282
9.1848041
9.1883349
9.2048346
9.1944316
9.1839325
9.0121971
9.0127979
9.0147865
9.0178975
9.0156066
8.9950076
8.9911518
9.0094358
9.0342596
9.0104561
8.8551437
8.8474635
8.8536903
8.8644779
8.8597107
8.8581572
8.8581533
8.8597075
8.8644854
8.8536827
8.8474858
8.8551769
8.874869
8.8532762
8.8386772
8.8452911
8.8632095
8.8607129
8.8585517
8.8565751
8.8565165
8.8648621
8.8685381
8.8605432
8.8585124
8.8707876
8.8685025
8.86856
8.8709509
8.7261874
8.7172054
8.7184793
8.7237685
8.7221613
8.7170594
8.7171644
8.7220062
8.7238358
8.7183562
8.7171649
8.7258938
8.8706739
9.0299013
9.0261747
9.0262448
9.0301146
9.0139391
9.01692
9.0287274
9.0222069
8.8650282
8.8564638
8.8566562
8.8585053
8.8607373
8.8632495
8.8452944
8.8386944
8.8533156
8.8749079
8.7297876
8.7141639
8.7089671
8.7142761
8.720141
8.7175492
8.7163544
8.7163502
8.7175461
8.7201457
8.714271
8.7089867
8.7141922
8.7297512
8.7115452
8.7000804
8.7075565
8.7226442
8.7180552
8.7164133
8.7148073
8.7149585
8.7216783
8.7232442
8.718416
8.7170404
8.7259922
8.7247475
8.7248251
8.5939194
8.594668
8.5882841
8.5890514
8.5920709
8.5918923
8.5880689
8.5881394
8.591773
8.5921097
8.5889341
8.5881995
8.5943721
8.5938403
8.7247645
8.8685285
8.8686205
8.87091
8.858561
8.8607987
8.8684649
8.7232029
8.7218047
8.7149194
8.7148592
8.716371
8.7180693
8.7226757
8.7075561
8.7000938
8.7115825
8.5827319
8.5978165
8.5858918
8.5823956
8.5866496
8.589304
8.5880803
8.5872973
8.5872933
8.588077
8.5893061
8.5866465
8.5824128
8.5859152
8.5977833
8.5826973
8.5738278
8.5812255
8.5936664
8.5884068
8.587036
8.5858076
8.586064
8.5912379
8.5915212
8.5889094
8.5880888
8.5944536
8.59383
8.4741584
8.4742534
8.4746706
8.4702105
8.4705784
8.4720797
8.4727274
8.4700232
8.4700692
8.4726343
8.4720951
8.4704636
8.4700921
8.4743801
8.4741638
8.4742755
8.5939509
8.7248692
8.7261358
8.7171288
8.7186551
8.5891328
8.5915089
8.5913349
8.5860357
8.5858383
8.5869977
8.5884125
8.5936898
8.5812232
8.5738383
8.4582046
8.4649962
8.4773859
8.4685369
8.4662071
8.4694395
8.470059
8.469643
8.4692318
8.469228
8.4696395
8.470059
8.4694378
8.4662221
8.4685559
8.4773558
8.4649645
8.4581961
8.4650923
8.4752098
8.4699713
8.4687255
8.4678088
8.4680985
8.4719385
8.4714997
8.4703658
8.4699894
8.4744451
8.3641963
8.3640723
8.3641708
8.3644302
8.361351
8.3614142
8.3619369
8.3630159
8.3612256
8.3612546
8.3629414
8.3619335
8.3612994
8.3612075
8.3641481
8.3640742
8.3641834
8.3643646
8.4746087
8.5946099
8.5882088
8.4701326
8.4705758
8.4715115
8.4720151
8.4680783
8.4678246
8.4686908
8.4699706
8.475226
8.4650888
8.3577606
8.351541
8.3566534
8.3667879
8.3603942
8.3588622
8.361182
8.3605494
8.3605702
8.3604543
8.3604506
8.3605663
8.3605478
8.3611811
8.3588752
8.3604094
8.3667608
8.3566245
8.351534
8.3577648
8.3659083
8.361
8.3597956
8.3591037
8.3593774
8.3621269
8.3613255
8.3611392
8.3611062
8.2600511
8.2621884
8.262128
8.2622283
8.2624286
8.2603178
8.2601556
8.2600742
8.2613305
8.2602518
8.2602689
8.2612688
8.2600556
8.2600392
8.2601564
8.2621561
8.2621274
8.2622321
8.2623591
8.2602222
8.361266
8.3613381
8.3613568
8.3621898
8.3593634
8.3591094
8.3597638
8.3609943
8.3659183
8.264483
8.2579755
8.2524598
8.256244
8.2645208
8.2600352
8.2590432
8.2605871
8.2592177
8.259435
8.2595313
8.2595279
8.2594308
8.259215
8.2605867
8.2590543
8.2600472
8.2644966
8.2562179
8.2524539
8.2579802
8.2644781
8.2600175
8.2588065
8.2582574
8.2584833
8.2603712
8.2594331
8.2598265
8.1653201
8.1657314
8.1672199
8.1671724
8.1672735
8.1674646
8.1660182
8.1656955
8.1652642
8.1665385
8.1659924
8.1660012
8.1664853
8.1652335
8.1655767
8.1658445
8.1672026
8.1671704
8.1672692
8.167391
8.1659095
8.1655026
8.2600164
8.2594796
8.2604252
8.2584738
8.2582562
8.258777
8.260008
8.1658544
8.1698555
8.1647059
8.1598741
8.1626173
8.1693759
8.1663433
8.1657095
8.1666177
8.1648487
8.1651111
8.1653444
8.1653412
8.1651067
8.1648451
8.1666176
8.165719
8.1663526
8.1693542
8.1625937
8.1598692
8.1647112
8.1698549
8.1658669
8.1646227
8.1641494
8.164309
8.1655336
8.1645969
8.0758775
8.0767643
8.0773049
8.0783636
8.0783077
8.0784087
8.0786117
8.0776102
8.0771791
8.0765669
8.0777631
8.0776007
8.0776038
8.0777155
8.0765263
8.0770576
8.0774285
8.0783603
8.0783051
8.0783972
8.0785335
8.0774869
8.0769407
8.0759446
8.1646551
8.165582
8.1643029
8.1641436
8.1645948
8.0763431
8.0776448
8.0811909
8.0771475
8.0729519
8.0748864
8.0804093
8.0784634
8.0780601
8.0784639
8.0765138
8.0767302
8.0770388
8.0770357
8.0767257
8.0765096
8.0784639
8.0780681
8.0784704
8.0803899
8.0748654
8.0729479
8.0771533
8.0811941
8.0776598
8.0763699
8.0759227
8.0760073
8.0767325
7.9932779
7.9925475
7.9934903
7.994115
7.9948991
7.9948307
7.9949312
7.9951498
7.9944369
7.9939379
7.9932547
7.9943187
7.9944214
7.9944204
7.9942746
7.9932062
7.9938139
7.9942506
7.9949089
7.9948282
7.9949134
7.9950666
7.9942984
7.9936613
7.9926213
7.9933211
8.0767776
8.0760037
8.0759138
7.9929021
7.9933424
7.9946908
7.9978195
7.9946699
7.9910524
7.9923656
7.9968842
7.9957357
7.995473
7.9954881
7.9934963
7.9936158
7.9939523
7.9939494
7.9936112
7.9934918
7.9954881
7.9954798
7.9957411
7.996867
7.9923469
7.9910493
7.9946765
7.9978258
7.9947079
7.9933684
7.9929131
7.9929209
7.9145193
7.9146101
7.9140241
7.9149549
7.9156293
7.9162477
7.9161721
7.9162719
7.9165004
7.915966
7.9154298
7.9147448
7.9156492
7.9159255
7.9159217
7.915607
7.9146898
7.9153035
7.9157777
7.9162698
7.9161704
7.9162485
7.9164119
7.9158122
7.9151211
7.9141027
7.9146523
7.914519
7.9929192
7.9970711
8.000727
7.9971732
7.9981604
8.0001891
7.9989463
7.999589
8.0001365
8.000974
8.0010399
7.9994305
7.9207442
7.9174461
7.9171705
7.9152236
7.9152208
7.9155514
7.9155487
7.9152163
7.9152192
7.9171709
7.9174523
7.9176361
7.9181933
7.9144897
7.9136618
7.9167706
7.9192039
7.9164589
7.9150701
7.9145857
7.8404897
7.8403544
7.8402569
7.8398208
7.8406988
7.8413974
7.8419256
7.8418523
7.841951
7.8421794
7.8417466
7.8411956
7.8405506
7.8412845
7.8416663
7.8416606
7.8412435
7.8404905
7.8410677
7.8415584
7.841959
7.8418516
7.8419227
7.8420856
7.8415784
7.8408605
7.8399029
7.8402985
7.8403551
7.8404759
7.9145732
7.9150444
7.9164398
7.9191945
7.9167628
7.9136633
7.9145055
7.918208
7.9176315
7.8437077
7.843555
7.8430689
7.8412186
7.8410838
7.8413864
7.8413842
7.8410802
7.8412154
7.8430709
7.8435624
7.8437136
7.8438749
7.8408357
7.8403577
7.8430055
7.844866
7.8424505
7.8410148
7.7708049
7.7702343
7.7700368
7.769809
7.769521
7.7703233
7.7710283
7.7715193
7.7714598
7.7715573
7.7717735
7.7713877
7.7708372
7.7702559
7.7708174
7.7712552
7.771248
7.7707772
7.7701918
7.7707085
7.7712013
7.771563
7.7714603
7.7715246
7.7716744
7.7712059
7.7704804
7.7696051
7.7698499
7.7700376
7.7702185
7.7707766
7.8409887
7.8424288
7.8448529
7.8429949
7.8403561
7.8408471
7.8438854
7.7734943
7.7735828
7.7734304
7.7727975
7.7710726
7.7708051
7.7710665
7.7710652
7.7708039
7.7710732
7.7728045
7.7734435
7.7735952
7.7734931
7.7709958
7.7707718
7.7730095
7.7744124
7.7722856
7.7056147
7.7040872
7.7034703
7.7032173
7.7029016
7.7027587
7.7034734
7.7041728
7.7046663
7.7046337
7.7047297
7.7049202
7.7045401
7.7039997
7.7034942
7.7038844
7.7043431
7.7043348
7.7038447
7.7034272
7.7038709
7.7043568
7.7047193
7.7046356
7.7046932
7.7048158
7.7043459
7.7036254
7.7028431
7.7029408
7.7032163
7.7034501
7.7040527
7.7055784
7.7722593
7.7743926
7.7729921
7.7707624
7.7709979
7.7046135
7.7066665
7.7069189
7.7067405
7.7060103
7.704426
7.7040277
7.7042418
7.7042425
7.7040326
7.7044364
7.7060312
7.7067707
7.7069503
7.7066872
7.7046332
7.704585
7.7064538
7.7074899
7.6437757
7.642118
7.6405347
7.6398719
7.639569
7.6391956
7.639197
7.6398185
7.6405049
7.6410343
7.6410435
7.6411378
7.641287
7.6408778
7.6403527
7.6399286
7.6401464
7.6406016
7.6405927
7.6401071
7.6398597
7.6402248
7.6406988
7.6410957
7.6410468
7.6410982
7.6411777
7.6406725
7.6399649
7.6392799
7.639231
7.6395624
7.6398418
7.640485
7.6420588
7.6437093
7.7074557
7.7064193
7.7045564
7.6414342
7.6413767
7.6430648
7.6434015
7.6431725
7.6423831
7.6409465
7.6404182
7.6405847
7.6405902
7.6404377
7.6409808
7.6424378
7.6432452
7.64348
7.6431366
7.6414464
7.6415085
7.6430372
7.5824742
7.5829635
7.5814899
7.57983
7.5791195
7.5787697
7.5783585
7.5785098
7.579035
7.5797045
7.5803016
7.5803689
7.5804614
7.5805526
7.5800808
7.579573
7.5792328
7.5792705
7.5797059
7.5796967
7.5792318
7.5791629
7.5794468
7.5799068
7.5803705
7.5803742
7.5804193
7.5804386
7.5798658
7.5791751
7.5785891
7.5783868
7.5787509
7.5790683
7.5797469
7.5813814
7.5828272
7.5823098
7.6429622
7.646241
7.6475409
7.6484622
7.6490591
7.6482717
7.645976
7.5855441
7.5824151
7.5815956
7.5803112
7.5796489
7.5797729
7.5797889
7.579701
7.5803987
7.5817263
7.582584
7.5829057
7.5825481
7.5811572
7.5812717
7.5236283
7.5245001
7.5247657
7.5234383
7.521663
7.5208962
7.5204973
7.5200604
7.5203757
7.5208021
7.5214539
7.5221538
7.5222985
7.5223892
7.5224032
7.5218325
7.5213406
7.5210853
7.5209257
7.5213293
7.5213198
7.5208875
7.5210151
7.5212166
7.5216641
7.5222302
7.5223062
7.5223451
7.5222849
7.521609
7.5209358
7.520449
7.5200763
7.5204549
7.5208034
7.5215125
7.5232304
7.5244882
7.524153
7.5232464
7.5810961
7.5809775
7.5823637
7.5827209
7.5245714
7.5241572
7.5233289
7.522201
7.5213933
7.5214843
7.5215217
7.521512
7.5223974
7.5236155
7.5245239
7.5249739
7.5246596
7.5235156
7.468324
7.4683792
7.4688931
7.4689332
7.4677027
7.4657481
7.4649033
7.4644459
7.4639883
7.4644929
7.4648173
7.4654549
7.4663
7.4665431
7.466632
7.4665469
7.4658349
7.4653543
7.4651849
7.4647975
7.4651591
7.4651494
7.4647597
7.4651146
7.4652327
7.4656725
7.466384
7.4665546
7.4665874
7.4664251
7.4656042
7.4649448
7.4645582
7.4639838
7.4643614
7.4647351
7.4654723
7.4673097
7.4683904
7.4682013
7.4676084
7.4675016
7.5231128
7.5242473
7.4684235
7.4686674
7.468105
7.4672819
7.4663164
7.4653414
7.4654129
7.4654905
7.4655848
7.4667165
7.4678618
7.4688447
7.4694803
7.4692645
7.4162545
7.4154824
7.4154223
7.4155283
7.4153078
7.4141035
7.4118755
7.4109124
7.4103765
7.4098987
7.410628
7.4108478
7.4114795
7.4125184
7.412885
7.4129729
7.4127648
7.4118626
7.411384
7.4113011
7.4106441
7.4109528
7.410943
7.4106062
7.4112304
7.411265
7.4117065
7.4126111
7.4129007
7.4129275
7.412639
7.4116245
7.4109702
7.4106834
7.409865
7.4102265
7.4106209
7.4113884
7.4133932
7.4143072
7.4142396
7.4139782
7.4139367
7.4146765
7.4147976
7.4140388
7.413226
7.4124274
7.411254
7.4113211
7.4114667
7.4117087
7.4131753
7.4143105
7.4154215
7.4163166
7.3655694
7.3657151
7.3650817
7.3648485
7.3644828
7.3639279
7.3626391
7.3600204
7.3588789
7.3582336
7.3577353
7.3587258
7.3588456
7.3594895
7.3607694
7.361283
7.3613722
7.3610195
7.3598809
7.3593874
7.3593867
7.3584175
7.3586611
7.3586507
7.3583788
7.3593145
7.3592692
7.3597291
7.3608732
7.3613033
7.3613234
7.3608875
7.3596323
7.3589659
7.3587729
7.3576671
7.3579956
7.3584082
7.3592147
7.3614383
7.3622061
7.362249
7.3623392
7.3623914
7.362973
7.3629358
7.3619349
7.361124
7.3604872
7.3590815
7.3591554
7.359406
7.3598564
7.361771
7.3630014
7.3643301
7.3160004
7.3176605
7.3180465
7.3175276
7.3170862
7.3161905
7.3151702
7.3136174
7.3104837
7.3090902
7.3083049
7.3077912
7.3090584
7.3091117
7.3098017
7.3113489
7.3120227
7.3121152
7.3116092
7.3102113
7.3096736
7.3097267
7.308434
7.3086025
7.3085915
7.3083933
7.3096517
7.3095545
7.3100621
7.3114692
7.3120494
7.3120619
7.3114671
7.3099475
7.3092378
7.3091079
7.3076981
7.3079779
7.3084067
7.3092665
7.3117408
7.312413
7.3125867
7.3130225
7.3131691
7.3136071
7.3133931
7.31213
7.3112924
7.3107801
7.3091241
7.3092039
7.309592
7.310322
7.3128045
7.3143072
7.2690112
7.2713398
7.2734694
7.2740777
7.2736496
7.2730152
7.2715657
7.2698258
7.2676787
7.2639188
7.2622079
7.2612791
7.260759
7.2622538
7.2623546
7.2631514
7.2649351
7.2657747
7.2658739
7.2652164
7.263595
7.2629606
7.2629653
7.261415
7.2615177
7.2615053
7.2613704
7.2628844
7.2628371
7.2634422
7.2650758
7.2658084
7.2658144
7.265058
7.2633096
7.2625008
7.2623278
7.2606773
7.2609105
7.2613524
7.2622715
7.2649725
7.2657182
7.2660905
7.2667804
7.2669459
7.2672485
7.2668727
7.2653926
7.2644633
7.2639434
7.2620752
7.2621503
7.2626763
7.2637473
7.2669097
7.2247174
7.2281829
7.2316223
7.2341859
7.2349095
7.2345548
7.2338352
7.231883
7.2289678
7.2254707
7.2209859
7.2189578
7.2179242
7.2173857
7.2188499
7.2193965
7.2203718
7.2222022
7.2233342
7.2234596
7.2225308
7.2208618
7.220065
7.2196453
7.2181249
7.2182225
7.2182085
7.2180754
7.219558
7.2199375
7.2207024
7.2223702
7.2233774
7.2233983
7.2223577
7.2205526
7.219579
7.2189884
7.2173819
7.217629
7.218085
7.2190332
7.2217674
7.2231464
7.2238112
7.2244588
7.2244201
7.2246955
7.2241284
7.2226321
7.2214815
7.2205142
7.2186801
7.2187561
7.219374
7.2207776
7.18164
7.186227
7.1930273
7.1986504
7.2010945
7.2016416
7.2013626
7.2008598
7.1989624
7.1937931
7.1869888
7.1818792
7.1798267
7.1787749
7.1781227
7.1788635
7.1809457
7.182144
7.1835348
7.1853835
7.1854882
7.1838711
7.1826786
7.1816731
7.179762
7.1789563
7.1792249
7.17921
7.1789026
7.1796682
7.1815444
7.1825147
7.183733
7.1854355
7.1854261
7.1836789
7.1823535
7.181174
7.1791019
7.1782562
7.1786943
7.1791925
7.1799918
7.1823475
7.1860063
7.1867593
7.1864351
7.1860067
7.1867558
7.1855265
7.1843694
7.1829427
7.1805262
7.1793943
7.1795704
7.1801809
7.1504553
7.1508171
7.1546017
7.1649439
7.1742123
7.1754609
7.1759669
7.1757125
7.1753378
7.1745978
7.1657087
7.1554306
7.1511321
7.1502489
7.1491253
7.1478576
7.1487395
7.1499723
7.1512228
7.1523568
7.1528072
7.1529332
7.1527351
7.151793
7.1507397
7.1497164
7.148785
7.1496961
7.1496796
7.1487182
7.1496025
7.1505961
7.1516474
7.1525671
7.1528719
7.1528773
7.1525276
7.1514811
7.1502501
7.1490373
7.1481336
7.1492244
7.1499873
7.1501443
7.153289
7.1597008
7.1616617
7.1576482
7.1556372
7.1547253
7.1544631
7.1534532
7.151933
7.1504168
7.1490436
7.1498869
7.1259728
7.1263705
7.1273384
7.1305782
7.1315711
7.1348947
7.1379308
7.1376552
7.1352276
7.1320972
7.1314845
7.1277269
7.1262646
7.1252435
7.1246601
7.1271011
7.1262115
7.1273448
7.1301713
7.13055
7.1306845
7.1305564
7.1279086
7.1270135
7.1281174
7.1257214
7.1259391
7.125924
7.1256509
7.1280193
7.1268586
7.1277506
7.1303893
7.1306181
7.1306331
7.1303467
7.1275806
7.126553
7.1274585
7.1250867
7.125601
7.1264776
7.1275676
7.1313683
7.1301603
7.1300302
7.1338642
7.134321
7.1329444
7.1324195
7.1296729
7.1281507
7.1287837
7.1258194
7.1285511
7.1277247
7.1450098
7.1795739
7.2330379
7.2964692
7.3356053
7.3304866
7.2875074
7.2286113
7.1794507
7.144894
7.1274861
7.1282674
7.1422733
7.1799149
7.254442
7.3663171
7.479066
7.5277235
7.5309838
7.4857726
7.3698011
7.2536885
7.178712
7.1437004
7.1304405
7.1279941
7.1401947
7.1414544
7.1526588
7.1554472
7.1676456
7.1545446
7.1512841
7.1683988
7.1541981
7.1666232
7.1535494
7.1395613
7.1399095
7.1508734
7.1506509
7.1648245
7.1425979
7.16033
7.1882102
7.2067182
7.201588
7.1797385
7.1569031
7.1439618
7.1299193
7.1282846
7.1402333
7.140413
7.1515021
7.1666991
7.1511926
7.154296
7.1541211
7.1655408
7.1809725
7.1647812
7.1760826
7.1650004
7.1654412
7.164226
7.1561267
7.1461698
7.145453
7.1563969
7.1667549
7.1703271
7.182145
7.1661776
7.1670919
7.1556983
7.1407591
7.1509527
7.1517606
7.1459435
7.1333816
7.1349416
7.1456918
7.1561887
7.1610647
7.1735355
7.1591575
7.1449172
7.1559883
7.16905
7.2004862
7.1948047
7.2148049
7.1951755
7.1874545
7.1999695
7.1887309
7.2276942
7.2707924
7.2839533
7.2698924
7.2265068
7.2408851
7.2769546
7.2357597
7.2788584
7.295956
7.2745363
7.2321367
7.2394067
7.2815268
7.2858233
7.2441383
7.2063306
7.1743666
7.2317919
7.2100819
7.1830558
7.2607152
7.2002619
7.2341333
7.2971327
7.3724869
7.2436257
7.2657982
7.4227784
7.3753643
7.3306872
7.5534412
7.4203507
7.284017
7.2003949
7.1670236
7.1990235
7.2350335
7.2965648
7.2203533
7.2033988
7.1747057
7.15283
7.1547788
7.1568534
7.1565917
7.1548983
7.1533621
7.1752082
7.180466
7.1839828
7.1841326
7.1804194
7.2112593
7.2155938
7.2660214
7.2489732
7.2032661
7.1759512
7.2780136
7.4673818
7.5794513
7.549039
7.5517288
7.5515545
7.5484979
7.5777546
7.5539898
7.5015971
7.473901
7.4749504
7.5037776
7.5614724
7.5866468
7.5600604
7.5638692
7.5643092
7.5609172
7.5884002
7.5637996
7.5079071
7.4795585
7.4797383
7.3695085
7.2341561
7.1611932
7.1341927
7.132587
7.1456374
7.1521537
7.1521264
7.1455286
7.132408
7.1339892
7.1608888
7.2340632
7.3702592
7.4815625
7.4819118
7.510314
7.5641435
7.5889847
7.5595039
7.563123
7.5632035
7.5600925
7.591485
7.5664155
7.5107071
7.4810894
7.4788593
7.5061204
7.556554
7.6351788
7.6969517
7.7208935
7.6251086
7.487995
7.4211368
7.4224719
7.4916523
7.6297025
7.7246434
7.7018349
7.6413472
7.566398
7.4864589
7.2992087
7.1901403
7.2112916
7.341989
7.5344036
7.5644605
7.5909391
7.666776
7.7162684
7.6321939
7.5282051
7.477179
7.3622613
7.3213775
7.2645875
7.2520312
7.2510174
7.2622613
7.3189127
7.3576365
7.4719668
7.523148
7.6252636
7.4719046
7.4156413
7.3172719
7.2870847
7.237321
7.2273642
7.2282134
7.2395906
7.2903397
7.321812
7.4215134
7.4776202
7.3647122
7.4974902
7.6082481
7.5826641
7.5830419
7.5683507
7.5685127
7.5343047
7.341921
7.2112842
7.1902617
7.2992519
7.4856392
7.5900492
7.564367
7.5830178
7.5830614
7.6014711
7.6013066
7.4324466
7.2700777
7.3249282
7.2937653
7.3237257
7.2960903
7.2763594
7.2481339
7.2368264
7.2360152
7.2452351
7.2721595
7.2915944
7.3176304
7.3585935
7.4898386
7.3189068
7.2876881
7.2724121
7.2538225
7.2360576
7.2284091
7.2304614
7.2396873
7.2584148
7.2776667
7.2510931
7.2441495
7.2339906
7.2577978
7.2580579
7.4326256
7.2698022
7.2440766
7.2339631
7.2402022
7.2408845
7.2316361
7.2402616
7.2295646
7.2226528
7.2208143
7.2263624
7.2355087
7.2454989
7.2377558
7.2631907
7.4232804
7.2508967
7.2267896
7.2348813
7.2258624
7.2194525
7.2160187
7.217403
7.2236791
7.2225183
7.2314607
7.2394465
7.2491413
7.2769068
7.2934799
7.32551
7.4985742
7.6088419
7.7157993
7.6660864
7.6401417
7.5648766
7.5080662
7.604315
7.6741179
7.7006503
7.7240657
7.6337472
7.4797394
7.3652977
7.3242843
7.2951011
7.2753042
7.2560464
7.2379737
7.2268392
7.2212907
7.2164318
7.2147539
7.2183244
7.22716
7.234367
7.227096
7.2507913
7.4235625
7.2625243
7.2373453
7.2450359
7.2355636
7.223946
7.2189966
7.2281595
7.2283716
7.2356042
7.2461616
7.2397183
7.2905654
7.3225577
7.4231448
7.4784717
7.5289121
7.6318531
7.4940395
7.3622966
7.3216324
7.2646304
7.2516797
7.2278061
7.2272641
7.2339009
7.2447733
7.2355883
7.2542226
7.272111
7.287491
7.3190909
7.4905561
7.3593271
7.3185895
7.2916291
7.272453
7.2886047
7.2374186
7.2629452
7.25066
7.4253289
7.4259328
7.5953058
7.6036703
7.7135668
7.6993681
7.6387207
7.6042144
7.555527
7.5855028
7.6230989
7.6662898
7.6886594
7.5812792
7.582183
7.5820317
7.5809649
7.6890196
7.6668747
7.6241753
7.510338
7.6067244
7.5580509
7.6068103
7.6401076
7.6654093
7.5778287
7.577402
7.5762628
7.5765617
7.6653003
7.6398515
7.6050743
7.5560867
7.6036908
7.6731946
7.6989055
7.7115916
7.5997796
7.5910445
7.5928816
7.6019899
7.7134646
7.7004787
7.6761103
7.6719148
7.6241941
7.6651914
7.6871008
7.5755851
7.5761571
7.5746881
7.5740251
7.686394
7.6644269
7.6218157
7.5843554
7.630641
7.6211175
7.6687239
7.706804
7.7258856
7.7194155
7.6003993
7.6125847
7.5960627
7.4278217
7.4955483
7.6357323
7.7348117
7.7043829
7.6607764
7.7219074
7.6818997
7.6593888
7.7091912
7.6015674
7.5744519
7.5739005
7.5933494
7.5939806
7.5740304
7.5744089
7.6018907
7.7089326
7.6267874
7.5240623
7.4736425
7.3590313
7.3199935
7.4914914
7.6277137
7.7198874
7.6949708
7.6331468
7.658202
7.6812471
7.5744907
7.5750964
7.5748644
7.5743975
7.6139578
7.6020464
7.7166878
7.6363154
7.5049439
7.4164456
7.3907974
7.3949037
7.4612327
7.3980523
7.461391
7.3944964
7.3778124
7.2236053
7.2168683
7.3203443
7.2929666
7.1979835
7.1679404
7.2118154
7.2541105
7.277639
7.2576621
7.2786043
7.3218946
7.4982475
7.2171545
7.1686947
7.223547
7.2127109
7.1971671
7.2930621
7.2552758
7.1938319
7.2246231
7.4309663
7.5980926
7.5987597
7.6140001
7.6022553
7.7163416
7.7211095
7.6592726
7.7028014
7.7339077
7.6371982
7.4983004
7.4311655
7.2158886
7.2158467
7.1038611
7.1095443
7.0580109
7.1322222
7.1275171
7.1845801
7.1944306
7.2064761
7.2378211
7.1936856
7.2148956
7.1932833
7.2367626
7.2128198
7.1595885
7.1308552
7.1544825
7.1313903
7.1095826
7.2228059
7.2156908
7.1040687
7.0577886
7.1260663
7.1844418
7.1922267
7.2053827
7.1952428
7.1414224
7.1178008
7.1796393
7.1898243
7.1753934
7.190392
7.1307107
7.1549761
7.1409714
7.1163436
7.1772085
7.1666951
7.0955832
7.1073854
7.0971768
7.166701
7.1607099
7.0861918
7.0092937
7.0241931
7.0535304
7.0946568
7.1098496
7.1570031
7.1834149
7.1499433
7.1146162
7.0575189
7.1152811
7.1571492
7.1055344
7.0695392
7.0124894
7.0637718
7.0443955
6.9924154
6.9346509
7.009774
7.0057981
7.4596968
7.538403
7.6855561
7.7911662
7.7582946
7.6680181
7.5285569
7.4619877
7.4637031
7.6142219
7.5976243
7.6021695
7.7211758
7.7267692
7.7081197
7.7385895
7.6399861
7.498984
7.4289729
7.2162278
7.104587
7.0587658
7.109914
7.2247789
7.1949539
7.1856025
7.1270923
7.1324477
7.2153506
7.200451
7.2951418
7.3246811
7.2200288
7.1710714
7.2262185
7.2818352
7.2575087
7.2411794
7.2089762
7.1959152
7.1420106
7.1570695
7.1340411
7.1188791
7.1823798
7.1937621
7.2175327
7.1642086
7.1959539
7.2189756
7.2619584
7.2429487
7.1984832
7.1599607
7.1350199
7.1119667
7.0984436
7.1691702
7.1781475
7.1711087
7.162162
7.0876165
7.1002207
7.1213183
7.1830307
7.1939022
7.2115836
7.2000131
7.1461392
7.1337679
7.138629
7.2188026
7.2301146
7.3834758
7.4003204
7.4662892
7.5101743
7.6415631
7.4214487
7.3961391
7.3998874
7.4672119
7.4035398
7.2841299
7.3281137
7.5036844
7.2229618
7.1748375
7.2030617
7.2996844
7.2607744
7.199436
7.2317289
7.4369763
7.1160094
7.0648746
7.1091588
7.2228342
7.191088
7.191649
7.1993144
7.1838197
7.1702112
7.1619921
7.1599854
7.165903
7.1792826
7.1939359
7.1850442
7.1273667
7.1032928
7.0578903
7.1080935
7.2235831
7.1929461
7.1309552
7.212448
7.197182
7.2929951
7.2546506
7.2788952
7.3220626
7.2163183
7.1676968
7.2230127
7.2143575
7.1929133
7.1539824
7.1402788
7.1158236
7.1297251
7.189625
7.2057119
7.237021
7.212818
7.1590203
7.1925999
7.2373019
7.2576484
7.2796486
7.3192867
7.4176424
7.4737209
7.463269
7.3962443
7.3919321
7.3793844
7.3999966
7.4633734
7.636846
7.5061048
7.4166681
7.3958549
7.2168405
7.2242661
7.1683043
7.212462
7.2556559
7.2940132
7.4972205
7.3220817
7.1969966
7.108888
7.1314927
7.1537642
7.129154
7.1074059
7.0950994
7.0856782
7.0963761
7.1656065
7.1727648
7.1888764
7.1800243
7.1161398
7.1400999
7.1931192
7.2043102
7.1923253
7.1850667
7.126629
7.0577054
7.1015733
7.4295091
7.2237579
7.2156297
7.2166077
7.1859324
7.1950763
7.1811332
7.1683672
7.0977208
7.0876871
7.0992849
7.1102264
7.177027
7.1942615
7.1341011
7.119729
7.1452993
7.1588947
7.2097561
7.2419504
7.2154443
7.1926384
7.1326665
7.1176258
7.1410785
7.1560676
7.2068245
7.2404504
7.1959158
7.1617293
7.1971262
7.2181163
7.2611882
7.2846138
7.2611425
7.1996514
7.1378537
7.1333209
7.0641017
7.1091688
7.4370896
7.222838
7.2310853
7.1149541
7.203288
7.2180803
7.1735337
7.22869
7.2218261
7.5040901
7.2999507
7.3281938
7.4693323
7.4055747
7.2827198
7.258149
7.1950454
7.1330512
7.127386
7.0586064
7.1027902
7.4302737
7.2257693
7.1094708
7.1997928
7.2150847
7.1707872
7.2266952
7.2190921
7.4994594
7.2961453
7.32526
7.4682084
7.6404822
7.4008358
7.3849087
7.3967394
7.4015647
7.6424726
7.5112455
7.4219792
7.7378967
7.7616641
7.6741429
7.536664
7.4709784
7.4709288
7.5367691
7.6738474
7.7621684
7.6719839
7.5320161
7.54124
7.4611296
7.0069228
7.1401747
7.1228422
7.5715774
7.6838618
7.6814743
7.418666
7.2599312
7.2048909
7.1736111
7.2245131
7.2015754
7.2383524
7.2022115
7.1958654
7.2130824
7.1954601
7.2337
7.294392
7.3665887
7.3222257
7.370184
7.6014001
7.6042005
7.683132
7.6217267
7.4721374
7.323918
7.4692051
7.4147951
7.3624547
7.226711
7.1586811
7.1844794
7.2566179
7.3170109
7.3674366
7.4135828
7.3546051
7.3092983
7.508639
7.5078917
7.3087956
7.1872889
7.1874333
7.2156251
7.215478
7.2659014
7.2154437
7.2112378
7.2489605
7.2033157
7.1760272
7.2774782
7.4658055
7.3601791
7.2262076
7.1589609
7.144167
7.1786779
7.2524887
7.3670313
7.4831948
7.5314257
7.5317915
7.4845976
7.3691789
7.2554704
7.1804708
7.1428077
7.1289202
7.1278623
7.145197
7.1804354
7.2340469
7.2986717
7.3408414
7.3407212
7.2981125
7.2330303
7.1791804
7.1445897
7.1280511
7.1307107
7.1414692
7.1401954
7.1512715
7.1545153
7.1554224
7.1675716
7.1527024
7.1886568
7.1993977
7.2206985
7.2038706
7.2389824
7.2465144
7.2510804
7.2512484
7.2465808
7.2385253
7.2788018
7.322996
7.3703986
7.3864278
7.3728011
7.3654994
7.316835
7.3290224
7.3162051
7.3650935
7.3763449
7.4051044
7.3720144
7.324243
7.3395987
7.320257
7.3687037
7.3740545
7.3264862
7.3302455
7.3772009
7.4262327
7.4098466
7.3854347
7.4552669
7.4167603
7.3613958
7.3191686
7.3784545
7.3379914
7.2542358
7.2851315
7.3258972
7.3451973
7.305063
7.4717766
7.4167586
7.4577868
7.5159043
7.5530147
7.3851551
7.3671026
7.4937434
7.5275993
7.5862457
7.9505198
7.8289709
7.6317014
7.4817214
7.4054002
7.3618832
7.3254988
7.2807562
7.2385658
7.2780113
7.3199199
7.3796836
7.2985179
7.2581371
7.3392777