/*--------------------------------*- C++ -*----------------------------------*\
  =========                 |
  \\      /  F ield         | OpenFOAM: The Open Source CFD Toolbox
   \\    /   O peration     | Website:  https://openfoam.org
    \\  /    A nd           | Version:  7
     \\/     M anipulation  |
\*---------------------------------------------------------------------------*/
FoamFile
{
    version     2.0;
    format      ascii;
    class       volScalarField;
    location    "70";
    object      omega;
}
// * * * * * * * * * * * * * * * * * * * * * * * * * * * * * * * * * * * * * //

dimensions      [0 0 -1 0 0 0 0];

internalField   nonuniform List<scalar> 
24866
(
434.20721
442.1744
443.51243
505.56773
565.84454
564.66483
560.06415
566.03452
566.72818
559.48513
562.5996
562.63781
559.5849
566.79205
565.96694
560.29262
564.13954
566.09636
564.31666
562.74009
555.39846
567.91585
581.73026
575.30955
561.7323
551.89268
563.17229
576.25424
575.04447
557.21448
565.05177
564.6097
564.6088
565.05189
557.23629
575.0518
576.31317
563.23002
551.8327
561.66321
575.29212
581.7315
567.92267
555.39972
562.80243
564.27881
566.18356
564.06176
560.34663
565.82942
566.89905
559.54704
562.60065
562.63097
559.62711
566.67695
566.10136
559.95555
564.8156
565.71433
569.42398
566.27559
569.48326
569.94376
561.6087
565.43059
572.32047
571.15239
561.83264
562.14222
562.16779
561.87949
571.1723
572.323
565.45647
561.51732
569.49895
569.26299
565.25685
567.58816
567.18248
555.71151
557.48595
563.75534
565.82119
573.04392
565.90129
558.90124
567.05243
574.02081
565.85375
559.24788
564.18106
564.59329
563.87379
562.01271
560.41777
562.89273
562.02095
563.3417
563.04233
563.45541
562.95418
563.67616
564.13957
564.1462
563.89683
564.299
563.60858
562.73161
557.07877
568.82918
568.16971
565.10466
561.22211
563.13203
563.39947
563.73324
564.15977
564.40814
564.35683
563.99567
564.35466
563.789
563.14696
562.74531
560.97007
561.89413
562.28838
563.12589
563.93707
564.52582
564.84599
564.68593
564.74779
564.54369
564.16196
563.9001
563.40093
563.61162
561.22544
557.08313
568.82814
568.16791
550.7938
551.16059
510.68087
503.39791
504.39012
504.39033
503.39757
496.19252
499.75579
555.68979
555.36828
501.56541
502.18449
491.07701
500.06223
499.26484
487.55282
483.1172
493.51226
501.39164
504.11798
505.58838
502.86303
498.15937
503.98403
504.41255
495.64833
496.10194
496.0485
495.52152
504.319
504.00667
498.02865
503.25208
511.76483
512.62924
552.0191
552.37717
510.0765
495.50653
510.97813
504.26464
498.68557
562.24366
563.28355
562.24458
563.3411
562.69047
560.91054
561.87374
562.26374
563.09448
563.89343
564.46726
564.77702
564.8491
564.91789
564.75068
564.41296
564.15187
564.18633
564.30241
565.85873
562.73362
501.6824
504.26842
542.84348
555.7023
499.73172
496.19623
439.7372
441.98278
442.57119
442.57101
441.98113
439.73175
438.55189
439.85768
439.8405
435.85595
439.07137
438.71025
433.93819
430.94182
437.82422
440.91837
442.58522
443.42011
441.95835
441.45292
442.21844
442.70419
439.62926
439.6093
439.59516
439.54412
442.59921
442.17579
441.34443
392.59124
392.8129
393.31505
393.29378
392.85636
442.23649
503.353
497.99559
504.07361
504.27831
495.68418
496.09227
496.05313
495.59526
504.41173
503.87811
498.22409
502.81129
505.65737
504.10323
501.44212
493.52534
483.13114
539.47566
560.30054
552.86153
499.29722
500.09293
491.09049
502.16396
501.52053
555.41513
544.09756
511.05706
506.22949
492.75987
508.86637
513.24668
512.41196
555.92958
574.04007
567.06413
558.89895
559.2514
565.8192
564.6004
564.14798
564.3646
564.6917
564.36269
564.53105
564.46955
564.18174
563.67629
563.07766
563.03359
563.33085
563.67827
563.89789
563.9438
563.79837
563.46729
564.00586
563.68708
563.88389
563.75791
557.49733
562.02773
562.96789
562.90915
563.05546
563.15667
563.13325
563.10149
563.08171
563.03471
563.34192
562.69754
562.27412
562.29628
562.75404
563.35564
562.03998
565.2743
560.43769
555.7304
567.22184
567.58239
550.16315
511.07321
509.15276
549.69524
506.84735
508.9171
493.12147
432.49853
440.95768
437.84046
430.95253
433.95701
487.60551
487.14664
503.39255
503.71943
544.01711
541.10882
504.89415
490.62349
508.61085
429.59184
438.721
439.069
435.85
439.85381
439.86811
438.552
389.88398
391.19133
392.46033
392.60329
392.60319
392.4591
391.18793
389.88446
390.39586
390.48683
388.40937
390.18178
389.83718
387.28178
385.68436
390.06304
391.8443
392.71156
393.2427
392.71948
392.69072
392.91776
393.27321
391.79748
391.9153
391.87188
391.69735
393.17834
392.85723
352.33616
352.2992
352.28422
352.50974
352.49995
352.31607
352.31378
392.59826
441.3339
442.23461
442.62574
439.64642
439.60663
439.60773
439.60994
442.68279
442.14222
441.47887
441.9309
443.46434
442.5875
392.71743
391.87255
390.07818
385.69507
387.29803
389.84762
390.18348
388.40723
390.49333
390.39902
350.27905
350.00299
351.11499
351.88034
351.95205
351.95213
351.87943
351.11265
350.0028
350.27646
350.37484
349.19425
350.30432
350.02748
348.41649
347.4499
350.35872
351.53825
352.10632
352.4641
352.25668
352.38943
352.40203
352.64574
351.88414
351.98781
351.95589
351.80506
352.56208
318.97394
318.82912
318.89072
318.76299
318.86069
318.857
318.78714
318.90786
318.86819
319.01334
352.60408
393.21654
391.80336
391.91514
391.88587
391.74989
393.24284
392.85838
392.6964
392.70042
393.26795
352.47754
352.1118
351.55809
350.37132
347.45934
348.42924
350.03595
350.30628
349.19342
350.37961
317.25118
317.13602
317.00111
317.9047
318.35887
318.40985
318.40989
318.35817
317.90299
317.00059
317.13388
317.24756
316.57059
317.28684
317.03975
315.93999
315.34945
317.35395
318.16128
318.57424
318.83001
318.7669
318.97064
318.89296
319.04544
318.6624
318.74484
318.71943
318.59857
290.90348
291.06903
290.98544
291.08781
290.91339
290.94529
290.94463
290.93215
291.10494
291.01858
291.10438
290.95305
318.66128
351.88528
351.9897
351.96936
351.8464
352.61237
352.35249
352.38396
352.24123
318.75373
318.83652
318.57846
318.17523
317.36411
315.35749
315.95003
317.04667
317.28884
316.57049
289.30259
289.69114
289.57295
289.53198
290.26298
290.52937
290.56975
290.56974
290.52879
290.26169
289.53131
289.57113
289.68836
289.30229
289.76653
289.53958
288.75544
288.40518
289.83576
290.40461
290.72322
290.91869
290.9291
291.15678
291.04414
291.1299
290.95558
291.02698
291.00644
267.72631
267.63667
267.69138
267.64872
267.76156
267.58087
267.57857
267.57936
267.59572
267.77754
267.6767
267.72239
267.67638
267.74449
291.02864
318.74707
318.73121
318.63131
319.01432
318.85197
318.96002
291.14448
290.91786
290.92141
290.72636
290.41465
289.84397
288.41198
288.76345
289.54526
289.76846
266.64153
266.33974
266.56056
266.45308
266.47152
267.06402
267.2237
267.25759
267.25755
267.22321
267.06301
266.4708
266.45153
266.55833
266.33922
266.63971
266.43337
265.85922
265.66228
266.71555
267.13384
267.3914
267.54982
267.59825
267.81974
267.70109
267.74322
267.67974
267.74315
247.95413
247.94
247.86236
247.86266
247.84505
247.95264
247.78729
247.76796
247.76939
247.79928
247.96706
247.86872
247.88962
247.89473
247.9553
247.9478
267.73489
291.01632
290.92996
291.1022
291.01051
267.67354
267.80753
267.58876
267.55059
267.39378
267.1413
266.72229
265.66808
265.86573
266.4381
246.8002
246.98211
246.78753
246.91248
246.82314
246.87582
247.35681
247.45893
247.48846
247.4884
247.45853
247.35599
246.8751
246.82179
246.91066
246.78687
246.98042
246.79621
246.36868
246.26764
247.06284
247.38566
247.60112
247.7349
247.80191
248.00095
247.89093
247.90695
247.89857
230.86758
230.91554
230.90362
230.83695
230.81317
230.80958
230.90483
230.7633
230.73634
230.738
230.77314
230.91767
230.82971
230.83651
230.86362
230.91656
230.91064
230.85288
247.88097
267.65861
267.71914
247.88622
247.86827
247.9896
247.79393
247.73473
247.60301
247.39141
247.06846
246.27263
246.37406
229.57419
229.89506
230.05514
229.93097
230.00104
229.93132
230.00115
230.39203
230.46382
230.49006
230.49
230.46347
230.39135
230.00045
229.93015
229.99952
229.93024
230.05356
229.89165
229.56966
229.52721
230.13934
230.39921
230.58345
230.69923
230.77378
230.94465
230.84938
230.85109
216.00016
216.02603
216.06695
216.05683
215.99994
215.96753
215.97099
216.0518
215.93498
215.90558
215.90727
215.94319
216.06315
215.98824
215.98775
216.02215
216.06784
216.06315
216.01369
215.98495
230.83334
230.83064
230.93442
230.76707
230.69862
230.58502
230.4038
230.14413
229.53156
214.91392
214.92152
215.1653
215.30461
215.22693
215.26553
215.2136
215.28973
215.60786
215.66332
215.6869
215.68684
215.66302
215.6073
215.28908
215.21257
215.26424
215.22618
215.30314
215.16235
214.91765
214.91009
215.3886
215.60432
215.76399
215.8656
215.94136
216.08453
216.00543
202.93891
202.93088
202.95867
202.99336
202.98469
202.93627
202.90266
202.90912
202.9759
202.88128
202.85228
202.8539
202.88822
202.98594
202.92401
202.92022
202.95497
202.99414
202.9904
202.94825
202.91783
202.92573
215.98978
216.07544
215.93568
215.86482
215.76533
215.60808
215.39272
202.40197
202.02281
202.01021
202.19694
202.31736
202.27052
202.29114
202.25392
202.32999
202.58959
202.6356
202.65696
202.65691
202.63534
202.58911
202.3294
202.25302
202.29003
202.26977
202.316
202.19436
202.00686
202.01942
202.39838
202.58111
202.72074
202.81069
202.8841
203.00284
191.3883
191.33755
191.32902
191.35536
191.38468
191.37721
191.33599
191.30446
191.31172
191.36608
191.29004
191.26295
191.26446
191.29599
191.37498
191.32468
191.31978
191.35188
191.38537
191.38237
191.34651
191.31777
191.32635
191.3812
202.99481
202.87924
202.80986
202.72189
202.58425
191.02037
190.86404
190.56024
190.53651
190.68069
190.78441
190.75807
190.7686
190.74295
190.81553
191.02822
191.0681
191.08761
191.08755
191.06787
191.02781
190.81499
190.74216
190.76763
190.75733
190.78315
190.67841
190.53358
190.55722
190.8609
191.01771
191.14066
191.22078
191.28995
180.92172
181.00347
180.96369
180.95574
180.97932
181.00407
180.99759
180.96246
180.93425
180.94122
180.98511
180.92413
180.89965
180.90104
180.92929
180.99302
180.95259
180.94768
180.97609
181.00469
181.00226
180.97176
180.946
180.95408
180.99719
180.91804
191.28575
191.21995
191.14166
180.78681
180.67933
180.54406
180.29791
180.26856
180.38074
180.46993
180.45722
180.4623
180.44551
180.51298
180.68815
180.72357
180.74152
180.74147
180.72337
180.6878
180.51251
180.44482
180.46147
180.45653
180.46879
180.37874
180.266
180.29523
180.5413
180.67707
180.78596
180.85767
171.53536
171.594
171.66238
171.63148
171.62454
171.64501
171.6659
171.66024
171.63025
171.60563
171.61187
171.64717
171.59823
171.57663
171.57787
171.60273
171.65424
171.62192
171.61747
171.64203
171.66646
171.66448
171.63851
171.61606
171.62317
171.65679
171.59075
171.53455
180.85686
180.91712
180.98974
180.79243
180.83963
180.94045
180.44666
180.54828
180.69123
180.75106
180.67639
180.60216
171.32536
171.17796
171.23976
171.38491
171.41678
171.43342
171.43336
171.41662
171.38464
171.23939
171.17742
171.18744
171.18513
171.18842
171.11102
171.02261
171.05416
171.25565
171.37397
171.47092
163.04672
163.10481
163.15815
163.21578
163.19197
163.18611
163.20358
163.22116
163.21616
163.1905
163.16932
163.17471
163.20309
163.16372
163.14495
163.14613
163.16773
163.20947
163.18367
163.17982
163.20078
163.22165
163.22004
163.19794
163.17868
163.18469
163.21078
163.15524
163.10402
163.04727
171.47161
171.3759
171.25806
171.0565
171.02482
171.11274
171.1894
171.18571
171.18809
162.79841
162.79325
162.84938
162.97046
162.99934
163.01483
163.01484
162.99929
162.97037
162.84925
162.79301
162.7981
162.79686
162.79429
162.7277
162.65788
162.68978
162.85641
162.96006
155.31386
155.39158
155.44407
155.49237
155.54135
155.5231
155.51824
155.53299
155.54779
155.54333
155.5213
155.50317
155.50777
155.53067
155.49886
155.48278
155.48387
155.50249
155.53648
155.51585
155.51257
155.53036
155.54821
155.5469
155.52806
155.51165
155.51664
155.5368
155.48968
155.44322
155.39188
155.31501
162.96167
162.85842
162.69171
162.65963
162.72899
162.79493
162.79713
155.17133
155.17239
155.17088
155.22168
155.32344
155.34971
155.36423
155.36432
155.34991
155.32376
155.22215
155.17139
155.17291
155.17189
155.16555
155.10813
155.05257
155.08367
155.22271
148.25372
148.33391
148.40375
148.45122
148.49479
148.53687
148.52288
148.5188
148.53129
148.54378
148.53975
148.52068
148.50511
148.50909
148.52772
148.50179
148.48817
148.48919
148.50511
148.53307
148.51646
148.51361
148.52876
148.54412
148.54305
148.52689
148.51287
148.51704
148.53263
148.49216
148.45013
148.40355
148.33426
148.25406
155.22415
155.0849
155.0535
155.10855
155.16534
148.19939
148.20773
148.20898
148.21006
148.25609
148.34235
148.36624
148.38001
148.3803
148.36706
148.34368
148.25801
148.2124
148.21152
148.21036
148.20167
148.15193
148.10723
148.1368
141.76474
141.86354
141.93359
141.99626
142.03908
142.07817
142.11494
142.10407
142.10046
142.11129
142.12198
142.11827
142.10152
142.08781
142.09143
142.10685
142.08521
142.07383
142.07479
142.08832
142.11187
142.09827
142.09562
142.10882
142.12223
142.12136
142.10731
142.09504
142.09868
142.11083
142.07539
142.03743
141.99503
141.93231
141.86159
141.76137
148.13658
148.10637
148.15038
141.768
141.81049
141.82017
141.82169
141.82437
141.86636
141.94033
141.96188
141.97522
141.97598
141.96414
141.94403
141.87167
141.831
141.82893
141.82767
141.81756
141.77403
141.73726
135.8696
135.8942
135.9775
136.03719
136.09293
136.13118
136.16589
136.199
136.19021
136.18671
136.19677
136.20625
136.2028
136.18763
136.17482
136.1784
136.19152
136.17242
136.16305
136.16398
136.1754
136.19631
136.18484
136.18209
136.19431
136.20642
136.20572
136.19311
136.18166
136.18513
136.19486
136.16263
136.12839
136.08966
136.03263
135.97082
135.88421
135.8563
141.73243
141.83877
141.89417
141.95988
141.98374
141.95895
141.92794
136.0367
135.93792
135.97673
136.0412
136.06013
136.0736
136.07537
136.06555
136.05001
135.98936
135.95382
135.95213
135.95123
135.9403
135.90136
130.47115
130.441
130.46119
130.53011
130.57771
130.62601
130.65932
130.68946
130.72089
130.71321
130.70942
130.72007
130.72915
130.7259
130.71142
130.6981
130.70195
130.71358
130.69482
130.68723
130.68815
130.69772
130.71822
130.70809
130.70495
130.7176
130.72925
130.72869
130.71669
130.7047
130.70834
130.71651
130.68527
130.65439
130.61886
130.56677
130.51416
130.43811
130.41083
130.43638
135.88572
135.92285
135.93315
135.93471
130.4807
130.48301
130.51959
130.57704
130.59263
130.60712
130.61087
130.60437
130.59605
130.54676
130.5174
130.51839
130.51884
130.50746
125.46751
125.43135
125.3985
125.41136
125.46509
125.49692
125.53611
125.56352
125.58856
125.62071
125.61328
125.60893
125.6221
125.63176
125.62863
125.61381
125.59809
125.60243
125.61321
125.59198
125.5859
125.58679
125.59482
125.61772
125.60831
125.6046
125.61961
125.63183
125.63141
125.61897
125.60453
125.6086
125.61589
125.5828
125.5549
125.52217
125.47449
125.43228
125.36439
125.33734
125.36148
125.39145
130.46932
130.47967
125.40137
125.40096
125.40046
125.43565
125.48825
125.49921
125.51596
125.52324
125.52247
125.52584
125.48932
125.46867
125.4757
125.47914
120.79455
120.78276
120.74383
120.70304
120.70349
120.73875
120.74894
120.77582
120.7957
120.81483
120.85039
120.84268
120.83785
120.85584
120.86725
120.86425
120.84796
120.82761
120.83235
120.84263
120.81575
120.81076
120.81163
120.81852
120.84697
120.83793
120.83375
120.8534
120.86733
120.86704
120.853
120.83386
120.83827
120.84505
120.80687
120.78146
120.75121
120.70768
120.67784
120.61647
120.5896
120.61496
120.6432
120.65228
120.64932
120.64373
120.67794
120.72731
120.73184
120.75231
120.76525
120.77401
120.79555
120.77554
120.76834
120.78591
116.43119
116.44736
116.43549
116.39093
116.33677
116.31695
116.32701
116.30815
116.31796
116.32831
116.34087
116.38214
116.37446
116.37002
116.39478
116.40902
116.40623
116.38757
116.36082
116.3652
116.37472
116.33973
116.33524
116.33605
116.34232
116.37876
116.37031
116.36645
116.39254
116.40904
116.40886
116.39234
116.36664
116.37056
116.37651
116.33059
116.30693
116.27889
116.23964
116.22401
116.16891
116.14298
116.17164
116.19901
116.2069
116.20056
116.18805
116.22074
116.26729
116.26375
116.28891
116.30984
116.33329
116.38086
116.38442
116.39824
112.37232
112.42407
112.4487
112.4369
112.3855
112.3142
112.26216
112.23456
112.17935
112.16675
112.16624
112.17278
112.21979
112.21478
112.21318
112.24452
112.26155
112.25913
112.23843
112.20578
112.20776
112.21453
112.17208
112.16747
112.16819
112.17436
112.21805
112.21215
112.21063
112.24272
112.26149
112.26138
112.24262
112.2107
112.21193
112.21484
112.16146
112.13848
112.11238
112.07793
112.07621
112.03013
112.008
112.03927
112.06465
112.07077
112.06153
112.0427
112.07165
112.11306
112.10165
112.13088
112.16118
112.20481
112.28597
112.32572
108.64535
108.74578
108.81577
108.84458
108.83272
108.7787
108.69138
108.58588
108.49535
108.39695
108.35914
108.34922
108.35162
108.40017
108.40565
108.41202
108.44543
108.46336
108.46138
108.44098
108.40749
108.4026
108.40009
108.3565
108.35261
108.35319
108.35829
108.40285
108.40596
108.4111
108.44435
108.46331
108.46312
108.44423
108.41099
108.40481
108.39784
108.34286
108.32066
108.29613
108.26595
108.27417
108.24807
108.23702
108.26258
108.279
108.2818
108.27322
108.25388
108.27393
108.30204
108.28661
108.31761
108.35552
108.42228
108.54425
105.18736
105.40907
105.60013
105.68147
105.70104
105.68894
105.64586
105.54953
105.3545
105.14217
104.98535
104.92965
104.91767
104.91492
104.95232
104.98909
105.00918
105.03406
105.06021
105.06094
105.03364
105.00803
104.99129
104.96048
104.93142
104.93608
104.93642
104.93253
104.96223
104.99354
105.01023
105.03384
105.06021
105.06211
105.03577
105.00987
104.99116
104.9552
104.91412
104.9002
104.87685
104.84413
104.85217
104.88057
104.89507
104.88983
104.88015
104.88319
104.87923
104.87174
104.87182
104.86251
104.85559
104.88858
104.92636
105.00922
101.87466
102.1325
102.69804
103.07443
103.09613
103.07469
103.06412
103.06406
103.02776
102.64857
102.09155
101.85332
101.75127
101.74897
101.8095
101.73205
101.94307
101.94885
101.94557
102.08429
102.08337
101.94572
101.95131
101.95069
101.74974
101.84084
101.7957
101.79581
101.84122
101.75061
101.95162
101.95106
101.94581
102.08417
102.08392
101.94671
101.95135
101.94861
101.74249
101.82271
101.7592
101.73666
101.75658
101.68971
101.96536
101.88832
101.81538
101.80161
101.92437
101.81611
101.82728
101.8339
101.65144
101.75559
101.72169
101.74825
99.356892
99.395343
99.662952
100.62974
101.38452
101.20234
101.14063
101.12898
101.17289
101.34326
100.58519
99.6281
99.372924
99.365175
99.359688
99.394672
99.375714
99.467509
99.483108
99.491722
99.497699
99.498415
99.495245
99.488592
99.478126
99.399873
99.434301
99.431591
99.432233
99.433263
99.398456
99.477273
99.488473
99.491177
99.497553
99.498982
99.494969
99.489917
99.476728
99.389492
99.420104
99.391761
99.390794
99.351122
99.403332
99.917937
99.877462
99.488516
99.394559
99.385968
99.385391
99.381177
99.366078
99.305094
99.33776
99.337112
97.094654
97.080503
97.159242
97.429073
97.352803
97.215368
97.216267
97.180236
97.207811
97.301165
97.423251
97.116978
97.119702
97.090829
97.207126
97.28599
97.189853
97.168715
97.387468
97.280316
97.282387
97.393904
97.174132
97.203528
97.32009
97.246272
97.201651
97.206366
97.239348
97.321604
97.198517
97.17348
97.384863
97.279322
97.283254
97.392385
97.170343
97.210129
97.297882
97.262477
97.134894
97.234068
97.141321
97.393613
97.00895
96.931876
97.313558
97.356073
97.201364
97.304878
97.099949
97.08126
97.24478
97.113365
97.064626
97.105579
97.234319
97.166698
97.232141
97.511541
97.828135
97.754089
97.422929
97.224797
97.217101
97.28398
97.153619
97.153904
97.321448
97.207302
97.162632
97.499166
98.663006
99.997097
100.0786
98.762721
97.532763
97.156854
97.210865
97.36052
97.098054
97.114457
99.375528
99.324788
99.763895
99.841302
101.26284
99.955513
99.866048
99.501327
99.885425
101.19256
99.820917
99.303248
99.331263
99.803503
99.762845
99.374575
97.263005
97.188866
97.286446
97.328864
97.315786
97.179827
97.276309
97.387903
97.122963
97.192677
99.363113
99.326766
99.768832
101.20074
99.834949
99.919327
99.845144
99.421008
99.508138
100.2439
101.395
100.10967
100.10063
100.24745
99.888691
99.241295
99.253555
99.861095
100.14409
100.10348
101.36265
99.827253
99.911873
99.450398
97.255894
97.331658
97.242039
97.308085
97.06866
96.993007
99.381418
99.880855
99.967607
101.35914
99.904665
99.380754
99.846457
99.483895
101.9153
102.11809
101.9283
101.69957
101.93277
101.80946
102.01737
105.05388
108.53128
108.60199
108.45922
104.96218
105.05786
105.11349
104.99167
108.52602
108.62097
108.44077
104.99688
105.03907
108.5031
108.53637
105.05992
102.00669
99.433096
99.513106
99.369892
99.466054
99.39785
99.222356
101.78537
102.0667
102.3993
101.94906
102.14644
102.78478
100.04929
99.689361
101.08191
99.634074
99.231125
99.302297
99.564601
102.04573
101.89169
102.22523
102.4038
102.76602
100.71176
99.739395
99.39542
99.333648
99.314115
99.370823
99.697318
100.67113
100.61181
100.60013
100.61182
100.64148
102.84334
102.85239
102.58747
102.52589
99.719772
97.298855
97.448696
98.608221
101.258
103.67785
104.0291
103.99974
103.62422
101.1887
100.5803
98.276822
98.028652
98.028514
98.275339
100.61085
101.20522
103.6897
104.04773
104.04673
103.69051
101.22312
100.62896
98.302444
98.057271
98.05832
97.521247
97.260587
97.24947
97.077926
97.137596
97.375199
97.300356
97.302312
97.379172
97.137515
97.082536
97.248607
97.260268
97.527622
98.094212
98.103969
98.35813
100.73357
101.36717
103.95317
104.34554
104.40105
104.023
101.4464
100.81001
98.39097
98.125195
98.113144
98.370195
100.66091
103.44802
104.9583
108.06136
113.35442
119.21102
122.2277
122.17796
119.11309
113.2313
107.99577
104.96848
103.45898
100.66906
98.725362
97.521835
97.330313
97.371068
97.847873
100.03082
103.71988
101.25418
104.40623
106.63638
113.12856
117.84638
121.2671
125.86425
128.60153
131.11413
132.07951
132.09889
131.15625
128.69496
125.97597
121.41812
117.97428
113.26308
121.37942
125.34795
130.35226
133.33919
136.1919
137.27405
137.26047
136.15381
133.26333
130.23709
125.19069
121.24382
125.76929
118.86553
111.3481
108.41384
108.97264
104.06703
104.05723
100.02363
97.845849
97.36995
97.328155
97.519047
98.71181
101.22265
103.69287
108.37913
108.96353
112.27651
112.29011
121.79728
130.89427
128.43929
133.1178
130.15718
134.47403
138.07281
140.968
142.37743
142.38798
141.0002
138.14133
134.58376
130.31906
125.9053
119.00856
128.59331
133.29667
138.12254
142.4685
145.67427
147.30165
147.30606
145.65008
142.39836
138.0047
140.8557
135.95236
137.03083
131.82161
131.82041
121.78027
130.8758
135.94157
137.03365
142.23333
142.23808
147.22171
145.59443
149.10612
150.91469
150.91369
149.13433
145.66643
140.97615
136.14037
131.05416
121.97719
131.98094
137.21522
142.35813
147.28628
150.91477
152.78048
152.77723
150.89403
150.88943
147.2277
145.58984
140.83377
137.96551
133.08104
128.3997
118.79805
111.30305
106.57728
104.36885
103.40519
100.62788
98.301456
99.601262
100.72914
104.89787
107.89681
113.00373
121.11766
125.68662
130.07563
134.38346
137.98299
142.35642
145.61011
149.09633
150.90824
152.77606
152.77969
150.91226
147.29502
142.34594
137.19698
131.96002
121.93462
131.00106
136.09139
140.95184
145.65616
149.11546
150.90559
147.26672
147.26157
142.27484
140.8691
135.97976
133.10288
130.08534
125.04301
121.11623
117.72077
113.00876
118.81273
125.69513
128.42007
130.91042
131.85435
137.07241
137.07403
142.27004
140.88573
145.62917
142.42111
138.06194
133.21581
128.51447
118.89871
125.78426
130.19796
134.47392
138.03572
133.14634
135.98658
130.92155
131.85548
121.81142
121.79728
112.2717
111.3054
106.58291
104.90413
103.41141
99.60412
99.008031
100.31841
100.65885
105.49852
106.23065
111.24051
111.67648
111.68088
111.26052
106.25333
105.5213
100.72815
98.348772
99.679312
99.065131
99.677193
103.52284
104.52111
108.64215
109.25547
109.31565
108.72949
104.6006
103.61022
99.714282
99.09455
99.711483
100.8785
105.11957
106.86285
111.69704
112.69054
112.61999
111.59054
106.77285
105.01807
100.83071
101.36768
100.71787
105.57914
106.32898
111.42793
111.87766
111.94255
111.51203
106.40453
105.65585
100.75672
100.39438
101.40204
100.75555
101.41249
106.14971
107.47147
107.47583
112.78201
113.71562
113.5006
122.99854
120.03387
114.21874
108.88279
105.97513
105.47788
107.27022
106.20888
104.40408
106.65064
111.29345
108.34811
108.9088
112.24815
112.21252
108.87338
108.2816
111.21012
106.54558
113.08564
117.78003
121.20295
125.76351
128.46513
118.8508
113.0486
107.88982
104.83975
103.35319
104.32118
106.13926
111.05919
111.49563
111.53262
111.11444
113.27939
112.36675
107.26695
114.11961
119.2214
122.79664
125.55189
124.88185
122.17839
126.17974
122.14088
124.87031
127.02702
133.59401
131.64662
127.54459
129.77764
133.45837
135.37751
135.58239
134.38696
131.72684
135.77127
131.69576
127.46799
119.81812
131.59257
135.31383
133.54832
135.54261
133.39563
129.67166
134.34857
137.49449
132.54106
122.72837
113.05453
113.01993
113.23573
112.29889
107.17849
107.20751
105.4093
105.89518
108.76007
113.98397
119.73232
122.69197
133.27824
133.30194
137.63154
137.00886
140.49929
139.26087
139.99327
138.45317
143.61525
142.22786
139.30044
140.7659
137.21454
140.78341
139.31546
143.8333
145.57859
149.01598
143.79522
139.31
137.08116
132.64942
133.42907
137.70727
140.5834
140.0321
138.50712
137.53906
142.2483
143.64357
145.2022
150.72122
148.79203
147.13198
150.69549
147.12933
149.01186
143.77267
145.17803
150.71555
148.77905
152.52434
154.60989
152.72559
154.6089
152.51663
154.43929
156.58426
159.00377
156.96414
152.91058
146.82651
145.39745
142.28363
138.55926
140.60952
144.54617
149.77705
144.52608
142.26109
147.57682
151.15194
153.45276
147.64545
149.19669
155.27153
157.60859
150.66267
144.50935
126.63429
123.45103
117.54105
112.00842
109.9794
115.06586
120.81658
123.67178
123.6215
113.63873
113.42097
112.68248
107.39512
107.39329
106.06782
108.84814
114.11716
119.9489
122.94826
133.40098
137.68676
140.55996
137.0404
132.60912
137.50932
138.49585
140.02096
139.2754
135.53265
133.39539
129.68609
127.45233
131.57579
135.31739
133.51498
131.63271
134.32025
139.25609
142.22373
143.63371
145.19214
143.77051
148.99937
150.7218
148.80311
147.11505
143.77338
145.53098
140.72829
137.14219
135.68438
139.20049
140.68708
143.6925
148.96223
152.71072
154.60765
152.52281
150.67001
152.5082
154.43805
156.58622
154.60341
150.67277
148.72482
147.061
142.13043
143.51383
145.09838
139.84458
139.11455
135.41369
133.43317
126.91241
124.77294
122.04301
119.10363
114.07469
122.69346
125.44848
124.76606
122.01215
126.04009
131.54939
127.34059
119.79925
131.48655
135.20697
133.27471
129.52954
134.18774
137.32346
132.39344
122.70182
136.88603
140.3762
137.50028
133.15187
138.28649
138.29484
143.51393
148.73566
152.50646
154.44158
154.44375
152.52608
148.79081
143.60303
138.4324
139.96538
137.61332
140.48004
136.97245
132.49275
137.44554
139.21444
135.48639
133.341
129.59579
134.27492
131.5989
127.37038
131.52949
135.25935
133.48719
137.14623
140.72876
143.74921
145.16504
150.71491
149.00498
147.12283
142.20978
139.2497
143.79577
145.55605
140.72523
139.23785
135.68954
131.56916
130.16722
125.14928
121.1935
121.97087
124.72802
125.40409
126.87947
126.00813
121.97358
114.00978
119.039
122.65417
124.74469
131.50966
133.45392
135.23336
135.43668
134.22077
129.54778
119.79674
127.33922
133.30552
136.93718
139.16108
143.73557
148.99813
152.73435
154.61642
156.59433
154.62246
152.5187
150.68289
147.09738
148.77483
150.71418
145.14631
143.55185
142.15528
137.36045
138.3399
139.89557
140.4337
137.54661
122.72437
132.41782
133.18497
133.18528
138.34035
143.55883
148.77511
152.52525
154.62451
156.59307
154.60134
152.72091
150.67662
147.06862
148.97231
150.67251
145.10403
143.69126
142.11174
139.17485
143.7487
147.09028
148.99702
150.71874
145.15164
143.73532
142.15061
139.19494
140.70136
145.52553
140.67676
137.10245
135.62078
131.49892
134.17096
137.3221
139.11165
139.84811
140.37884
137.50929
122.69354
133.14984
132.37914
136.8823
133.26994
135.39954
135.19187
133.40193
131.459
119.75636
129.49529
127.28344
121.90944
125.9234
131.50954
134.19313
137.36301
139.15773
139.89495
140.43234
137.55114
122.71551
132.41349
136.92258
133.29521
135.42246
135.2157
133.41482
131.47358
119.77497
129.51519
127.29345
121.90519
113.9959
124.67713
126.8068
125.34757
124.68879
113.98844
118.99191
122.62044
108.79451
109.91268
114.88159
120.59776
123.40945
123.41074
120.61913
114.94351
109.95295
114.97933
120.74582
123.37484
126.5953
144.4865
138.73333
142.22218
125.19831
118.7708
105.99407
102.71403
101.95304
101.89793
99.475333
99.371655
99.40224
101.82981
102.07837
102.09434
101.80557
101.68701
101.75857
102.00374
102.3081
99.601738
99.962819
102.64404
102.72139
106.0512
104.15963
102.60009
102.0484
102.62578
99.640256
97.510764
97.28123
97.397297
99.785882
99.509781
99.744543
102.55196
102.89308
100.01172
97.652514
99.760895
99.739872
97.640392
97.279948
97.294767
99.728653
99.717864
102.57703
102.84096
102.81144
102.49803
99.693604
97.278262
97.426636
98.573492
97.481223
97.258589
97.366351
97.34616
97.203022
97.151234
97.508428
98.705079
100.02223
100.02292
98.711661
97.521031
97.172822
97.214041
97.330822
97.154457
97.191598
97.294329
97.214195
97.260727
97.518222
97.84421
97.843556
97.512879
97.244858
97.18513
97.248295
97.130621
97.078326
99.314294
99.37071
99.859482
99.949178
99.83252
101.2523
99.751705
102.00729
102.01688
102.36688
102.72163
105.47696
105.59329
105.65585
105.66806
105.62779
105.52535
108.79495
112.47222
116.50601
116.64139
116.54477
116.44425
112.33128
112.4289
112.27831
116.40852
116.54145
116.65347
116.4759
112.35265
112.44461
112.23845
116.35721
116.41252
112.30223
112.33691
116.44298
116.74198
116.66667
116.55518
116.75735
112.68228
112.55059
108.70867
108.85896
105.28107
105.09369
105.21255
108.75045
108.84057
105.29615
106.01889
105.6205
109.1723
109.56868
113.32287
112.657
112.57105
112.95598
116.98095
117.30138
120.63989
118.51431
117.14033
116.7855
116.67807
112.5894
112.45822
108.67957
105.21237
105.20295
108.76817
108.95331
108.83206
105.41419
105.42281
105.77738
105.57232
108.98112