/*--------------------------------*- C++ -*----------------------------------*\
  =========                 |
  \\      /  F ield         | OpenFOAM: The Open Source CFD Toolbox
   \\    /   O peration     | Website:  https://openfoam.org
    \\  /    A nd           | Version:  7
     \\/     M anipulation  |
\*---------------------------------------------------------------------------*/
FoamFile
{
    version     2.0;
    format      ascii;
    class       volScalarField;
    location    "40";
    object      k;
}
// * * * * * * * * * * * * * * * * * * * * * * * * * * * * * * * * * * * * * //

dimensions      [0 2 -2 0 0 0 0];

internalField   nonuniform List<scalar> 
24789
(
278.12209
655.42145
948.29837
1201.9791
2589.2276
2585.1345
1199.9161
946.64724
654.28458
277.7362
277.70059
654.11865
946.33516
1199.4162
2583.3938
2582.5687
1198.6868
945.70257
653.65751
277.5353
277.59656
653.7834
945.83296
1198.7698
2582.0738
2581.8365
1198.3647
945.43851
653.47485
277.48077
277.5567
653.63874
945.62172
1198.5136
2581.7518
2581.9049
1198.2664
945.34677
653.4108
277.4693
277.57933
653.67413
945.68183
1198.6191
2582.3479
2583.1069
1198.5421
945.53976
653.53876
277.52603
277.6906
653.95935
946.1109
1199.2076
2584.1277
2585.7137
1199.4426
946.21948
654.00038
277.70109
277.96129
654.69899
947.20345
1200.6469
2587.8113
2590.67
1201.4541
947.757
655.04354
278.0774
278.46006
656.09412
949.25588
1203.3189
2594.2444
2598.8934
1204.9667
950.46792
656.88914
278.73293
279.30105
658.47246
952.74412
1207.8219
2604.6274
2611.8037
1210.6892
954.91557
659.92598
279.80262
280.62421
662.24067
958.25285
1214.888
2620.4251
2630.8362
1219.3625
961.6862
664.55836
281.42316
282.5583
667.78096
966.34146
1225.2284
2643.1095
2657.5941
1231.6537
971.32413
671.17
283.72754
285.28262
675.61572
977.75612
1239.7669
2674.3895
2693.9419
1248.6887
984.73377
680.39086
286.92967
289.03257
686.4427
993.47464
1259.6993
2716.4365
2742.3249
1271.8806
1003.0821
693.07801
291.30476
294.09408
701.25421
1014.7846
1286.5283
2771.8014
2805.3168
1302.8356
1027.7283
710.274
297.07813
300.36343
720.47353
1042.4534
1321.4156
2843.201
2886.1739
1340.3465
1057.0599
730.20051
303.42272
306.95528
740.57997
1073.2767
1361.8445
2934.8927
2990.8534
1388.8668
1094.0198
754.41622
312.46786
322.98329
774.66329
1125.4778
1428.4166
3052.5055
3122.4785
1483.8664
1173.0449
810.64979
337.90463
345.51034
830.80837
1197.6432
1509.7481
3193.1315
3266.1464
1586.415
1271.3102
890.34321
370.10834
396.41168
977.27201
1393.6991
1730.8671
3314.1935
3309.3305
1501.8393
1206.4997
847.25769
355.10951
335.40916
794.05149
1141.3234
1438.3053
3237.6331
3164.0396
1351.9337
1063.9141
732.8398
311.74314
297.09639
700.00765
1019.2779
1300.793
3094.0459
3032.8124
1267.0928
992.96575
683.13863
288.55677
284.1192
671.73077
975.38297
1243.6379
2977.3137
2928.3643
1225.3054
961.67152
663.00515
281.2198
278.37504
653.89465
947.981
1207.4941
2885.0665
2846.98
1190.3412
934.40075
644.46315
275.32137
272.53395
636.02842
922.23346
1174.9503
2813.0934
2783.343
1161.7166
911.68526
628.64466
270.01775
267.92118
622.48321
902.69721
1150.2574
2757.0745
2734.454
1140.4628
894.93902
617.09404
266.04851
264.52083
612.62958
888.35133
1131.9868
2714.5789
2697.5324
1124.7207
882.6084
608.64334
263.12664
262.03397
605.44954
877.86237
1118.5739
2682.7427
2670.1173
1113.2704
873.67217
602.53367
261.00781
260.26117
600.34981
870.39907
1108.9983
2659.5432
2650.6433
1105.3561
867.51401
598.32737
259.54138
259.05826
596.90482
865.34455
1102.4809
2643.3181
2637.7271
1100.2704
863.56993
595.63368
258.59381
258.31745
594.80363
862.25557
1098.4741
2633.0044
2629.5335
1097.118
861.15001
593.99042
258.01236
257.86902
593.54252
860.3951
1096.0407
2626.4451
2624.3041
1095.216
859.70282
593.01148
257.66265
257.6116
592.83159
859.34546
1094.6576
2622.5209
2621.5526
1094.3524
859.04897
592.56531
257.49531
257.51437
592.58441
858.97961
1094.1602
2620.8294
2620.2235
1094.059
858.83977
592.42597
257.43729
257.49158
592.54537
858.9194
1094.062
2620.2171
2620.1322
1094.0161
858.8264
592.42186
257.42864
257.50219
592.59875
858.99791
1094.1515
2620.1726
2620.482
1094.2415
859.00731
592.5431
257.46248
257.57134
592.82572
859.33937
1094.5909
2621.0918
2622.8298
1095.2428
859.76991
593.04416
257.62136
257.89074
593.81658
860.83442
1096.545
2625.888
2629.7224
1097.7404
861.64157
594.29706
258.03037
257.77437
593.4541
860.30115
1095.8776
2624.4543
2622.1424
1094.6873
859.32094
592.76888
257.537
257.54746
592.7474
859.23317
1094.4849
2621.0856
2620.6023
1093.9675
858.75662
592.39091
257.41775
257.47958
592.52503
858.90675
1094.0813
2620.4259
2620.4837
1093.7176
858.5547
592.25639
257.3818
257.49168
592.53057
858.91427
1094.1079
2620.8496
2621.5759
1094.029
858.78328
592.41181
257.44601
257.61373
592.85188
859.38541
1094.7327
2622.775
2624.515
1095.0921
859.58454
592.95157
257.64189
257.87516
593.57939
860.46443
1096.1595
2626.8566
2629.9255
1096.9527
861.01158
593.92418
257.99108
258.35416
594.9333
862.45807
1098.7566
2633.7473
2638.5521
1100.309
863.59332
595.67722
258.60776
259.12607
597.13278
865.69198
1102.9468
2644.4928
2651.7528
1105.5385
867.64791
598.44201
259.57616
260.32679
600.57396
870.73372
1109.4353
2660.5458
2671.0672
1113.5252
873.85733
602.67732
261.04771
262.07752
605.61926
878.12052
1118.9163
2683.5508
2698.2014
1124.8184
882.6708
608.7028
263.1349
264.54094
612.74516
888.53665
1132.2433
2715.2586
2735.0287
1140.425
894.90075
617.08529
266.02987
267.93509
622.59605
902.88472
1150.5215
2757.8226
2783.9755
1161.7078
911.6672
628.64429
269.9979
272.55074
636.14897
922.43032
1175.2201
2813.8199
2847.7104
1190.4513
934.49107
644.54766
275.33549
278.46214
654.22099
948.44521
1208.0753
2886.0195
2929.322
1225.778
962.05729
663.30628
281.29722
284.26407
672.1115
975.93195
1244.3017
2978.255
3033.8487
1268.1143
993.8595
683.80093
288.90046
298.33059
703.48481
1022.2269
1303.5832
3095.3463
3164.1241
1358.2499
1069.5427
736.86349
314.5708
336.14486
798.22357
1148.1557
1449.4886
3235.6106
3303.9407
1442.634
1156.2112
810.66187
339.35519
393.05813
969.54055
1382.7495
1716.0957
3308.2068
3242.4315
1564.5334
1240.8819
861.32362
354.58151
363.86353
874.24804
1251.759
1569.0804
3172.2448
3100.1733
1470.5416
1166.9287
809.02272
340.19806
320.28851
765.888
1108.6766
1405.365
3029.3495
2966.9444
1363.1374
1073.9371
741.11673
308.61076
302.92362
726.86693
1052.5861
1335.4645
2910.8163
2861.717
1314.2484
1036.4478
716.41338
299.3427
296.10597
706.19212
1021.231
1294.6327
2818.5386
2780.386
1275.9321
1006.3569
695.82055
292.72493
289.67594
686.67193
993.21603
1259.4006
2746.761
2717.2039
1245.0532
981.74127
678.62241
286.91598
284.62972
671.93886
972.02607
1232.7301
2691.1621
2668.8487
1222.1549
963.62127
666.08681
282.58956
280.93523
661.26545
956.52931
1213.0732
2649.1812
2632.3372
1205.2197
950.30415
656.9362
279.41869
278.24642
653.51905
945.24483
1198.7009
2617.8944
2605.6227
1193.0492
940.76701
650.39556
277.1447
276.34388
648.05555
937.26807
1188.5009
2595.2228
2586.6134
1184.6199
934.18472
645.88837
275.57059
275.05635
644.37663
931.88513
1181.5871
2579.4966
2573.6137
1178.9896
929.81116
642.90209
274.52242
274.21945
641.99908
928.39761
1177.0839
2568.9655
2565.1752
1175.4249
927.05849
641.02686
273.85965
273.7095
640.56443
926.28902
1174.3439
2562.3268
2560.1757
1173.3963
925.50401
639.96954
273.4801
273.43402
639.8033
925.16436
1172.8635
2558.5063
2557.3515
1172.3577
924.72075
639.44034
273.28545
273.30214
639.452
924.64014
1172.1574
2556.4735
2556.4384
1172.1396
924.56481
639.33218
273.23503
273.30432
639.48914
924.6903
1172.1972
2556.2125
2556.3795
1172.2202
924.64997
639.39724
273.25012
273.36043
639.68021
924.97375
1172.5509
2556.7731
2557.7744
1172.9636
925.23022
639.78537
273.37165
273.60859
640.45152
926.13345
1174.055
2560.1012
2565.5989
1176.4818
927.91476
641.56024
273.94671
278.25568
655.81235
948.87038
1202.6992
2590.6014
2586.1019
1200.4315
947.04105
654.54557
277.8232
277.73843
654.22715
946.49884
1199.632
2583.9351
2582.8935
1198.7964
945.78068
653.70796
277.5546
277.61107
653.81864
945.89125
1198.8583
2582.4297
2582.3317
1198.4161
945.47892
653.50667
277.49756
277.61414
653.7935
945.84962
1198.8125
2582.5432
2582.9811
1198.726
945.69684
653.64722
277.55487
277.69503
653.99486
946.15317
1199.2322
2583.8724
2585.1367
1199.4001
946.20748
653.99609
277.68962
277.91582
654.59459
947.03617
1200.3907
2586.816
2589.1262
1201.0962
947.49402
654.86299
278.00132
278.31018
655.69336
948.65641
1202.5075
2592.0028
2595.7242
1203.8722
949.62872
656.31372
278.51859
278.97548
657.56939
951.4132
1206.0787
2600.3797
2606.1678
1208.3953
953.14024
658.71148
279.36691
280.04538
660.60922
955.86522
1211.8061
2613.373
2622.0478
1215.4333
958.63433
662.47307
280.68794
281.66264
665.23357
962.62018
1220.4508
2632.4646
2644.7596
1225.8521
966.78785
668.05822
282.63631
283.97052
671.86124
972.28581
1232.7811
2659.2185
2676.0568
1240.3891
978.21342
675.90595
285.36582
287.18437
681.12011
985.75493
1249.8943
2695.5976
2718.126
1260.451
994.02814
686.79265
289.13613
291.56334
693.80836
1004.1129
1273.1027
2744.0021
2773.4877
1287.3797
1015.4168
701.65386
294.22271
297.37082
711.05271
1028.8251
1304.1352
2807.0839
2845.0235
1322.4452
1043.2508
721.00094
300.5578
303.75105
731.07807
1058.3234
1341.8725
2887.9815
2936.6828
1362.783
1073.9046
740.87115
307.08442
312.84807
755.12783
1095.2425
1390.4806
2992.6435
3054.5698
1431.8116
1128.6671
777.48663
324.0166
341.44411
817.96611
1181.9246
1492.8108
3124.0333
3191.7314
1534.0398
1219.5606
848.99043
352.5866
370.05302
891.14029
1271.3575
1585.5146
3260.7725
3309.1365
1732.9597
1395.9678
978.97409
397.25469
3224.5077
1935.0942
1567.8443
1106.3161
450.58535
399.54838
984.2181
1410.9929
1766.0829
3362.3517
3417.2813
1544.9729
1236.3249
866.37266
362.4961
354.29999
859.73295
1241.1262
1567.5144
3313.8637
3248.8692
1593.8783
1265.7622
879.38369
361.58713
357.36833
860.09952
1235.4516
1550.9573
3175.8276
3100.1177
1461.9068
1157.8713
801.3255
336.01765
318.77403
762.88261
1105.3415
1402.1823
3028.9179
2966.6066
1362.5005
1073.3662
740.72114
308.31367
302.98139
727.0439
1052.7106
1335.5163
2910.6482
2861.5895
1314.3405
1036.5542
716.51689
299.41865
296.10138
706.12405
1021.1287
1294.4953
2818.3273
2780.3001
1275.8053
1006.2455
695.73749
292.69876
289.65698
686.61142
993.1296
1259.2967
2746.5748
2716.9704
1244.882
981.60578
678.53302
286.89065
284.61193
671.8724
971.93005
1232.6142
2690.9636
2668.4487
1221.8745
963.40146
665.94052
282.54651
280.89406
661.13329
956.34082
1212.8434
2648.7525
2631.9706
1204.9555
950.09034
656.78862
279.37225
278.20428
653.38788
945.05806
1198.4728
2617.4694
2605.2273
1192.8344
940.58857
650.27037
277.1042
276.31507
647.96754
937.14518
1188.3547
2594.9845
2586.4162
1184.4722
934.06121
645.8019
275.54264
275.03487
644.31041
931.79159
1181.4743
2579.3031
2573.4849
1178.9417
929.76273
642.86459
274.50983
274.21132
641.97327
928.36193
1177.0424
2568.9103
2565.2225
1175.4196
927.04617
641.01539
273.85589
273.70762
640.55684
926.27871
1174.3323
2562.3178
2560.3269
1173.466
925.54894
639.99586
273.48849
273.44744
639.84229
925.22287
1172.9399
2558.6955
2557.6768
1172.4554
924.79215
639.48724
273.30135
273.32653
639.52508
924.75084
1172.3035
2556.8407
2556.414
1172.023
924.47939
639.28031
273.22036
273.29059
639.44964
924.63696
1172.1366
2556.1369
2556.2683
1172.0954
924.5491
639.32843
273.22716
273.34014
639.62197
924.89182
1172.4521
2556.6087
2557.6411
1172.7516
925.06435
639.67437
273.33488
273.57146
640.34306
925.97824
1173.8639
2559.7472
2565.559
1176.2697
927.7416
641.43984
273.90553
257.93266
593.94535
861.04277
1096.8486
2626.7685
2623.0737
1095.0606
859.60761
592.95769
257.59734
257.56694
592.81689
859.34238
1094.6321
2621.4351
2620.6132
1093.9225
858.73346
592.37908
257.41238
257.47519
592.519
858.89521
1094.0579
2620.2141
2620.1171
1093.6597
858.51919
592.23397
257.37113
257.46446
592.4608
858.80885
1093.9611
2620.2866
2620.7389
1093.7642
858.58913
592.28214
257.39781
257.53612
592.6377
859.06781
1094.3105
2621.4901
2622.6086
1094.4725
859.10721
592.6246
257.52425
257.69794
593.07353
859.71526
1095.1771
2624.1471
2626.2462
1095.7399
860.06534
593.27284
257.76057
258.02857
593.99674
861.08293
1096.9809
2629.213
2632.9277
1098.0766
861.86556
594.50195
258.20056
258.62851
595.69465
863.57829
1100.221
2637.6654
2643.5422
1102.2633
865.10001
596.70367
258.97457
259.59736
598.45866
867.63147
1105.4495
2650.7821
2659.4912
1108.832
870.18678
600.16493
260.1807
261.03729
602.59253
873.69043
1113.2446
2669.9514
2682.3213
1118.2354
877.51603
605.17354
261.92236
263.12365
608.60676
882.485
1124.5104
2696.9707
2714.0347
1131.5999
887.97177
612.3327
264.40187
266.04059
617.04439
894.79398
1140.2178
2733.8541
2756.7022
1149.994
902.41455
622.25122
267.82245
270.01294
628.61635
911.5865
1161.545
2782.9608
2812.817
1174.6358
921.90442
635.7559
272.41929
275.29021
644.35121
934.20386
1190.0675
2846.6635
2884.9793
1207.1955
947.66144
653.62629
278.27703
281.29507
663.12136
961.76751
1225.3708
2928.3819
2977.3862
1243.5954
975.33992
671.70202
284.12276
288.47741
682.86853
992.65343
1266.7822
3032.9736
3094.3758
1298.5605
1017.0709
698.93774
296.54832
309.51561
726.19658
1056.0734
1344.4498
3164.3153
3237.6604
1414.3151
1120.4619
778.105
329.035
353.265
843.76549
1201.7532
1495.5487
3309.6709
3314.7937
1751.0256
1410.5629
990.852
402.11761
375.63891
902.23821
1286.8513
1603.4355
3267.112
3192.5592
1488.6107
1179.8067
817.35677
340.57475
339.32975
813.67523
1177.3012
1489.6036
3121.5662
3051.984
1430.1688
1127.0664
775.88378
323.67618
312.81792
755.12343
1094.7989
1389.5782
2990.4192
2934.316
1361.6619
1073.0818
740.38612
306.92759
303.32893
729.85982
1056.6569
1339.908
2885.6278
2842.7265
1320.8848
1041.9206
719.9932
300.16429
297.07465
710.27679
1027.7301
1302.8001
2804.8473
2771.3094
1286.3403
1014.5956
701.07429
294.01129
291.35741
693.20925
1003.2263
1271.9776
2741.8033
2715.9245
1259.5321
993.30781
686.28144
288.96051
286.98541
680.52439
984.8802
1248.7853
2693.3819
2673.7741
1239.55
977.54808
675.42322
285.19997
283.77499
671.27474
971.42395
1231.683
2656.964
2642.5693
1225.0924
966.18687
667.61753
282.48365
281.48573
664.70353
961.84017
1219.453
2630.4101
2620.0709
1214.8154
958.14747
662.10939
280.56044
279.88767
660.13566
955.16304
1210.8969
2611.4286
2604.1215
1207.6726
952.58766
658.31127
279.2293
278.8083
657.06668
950.66756
1205.1122
2598.3008
2593.5423
1203.0798
949.02754
655.88208
278.37112
278.14345
655.19334
947.91761
1201.5515
2589.9449
2587.1305
1200.4093
946.97299
654.48276
277.87015
277.77609
654.17625
946.41803
1199.5874
2585.0799
2583.5184
1199.0087
945.9115
653.76444
277.60684
277.59815
653.70125
945.71205
1198.6437
2582.5048
2581.7211
1198.4956
945.53378
653.50944
277.50468
277.53981
653.5647
945.50068
1198.337
2581.3948
2581.2501
1198.4848
945.54011
653.51446
277.49429
277.56432
653.66676
945.64686
1198.5036
2581.4667
2581.7036
1198.7417
945.75721
653.66609
277.53743
277.64381
653.92781
946.03216
1198.9883
2582.3445
2583.3134
1199.4724
946.33452
654.0573
277.66194
277.91772
654.77835
947.30977
1200.6468
2585.9978
2590.3857
1202.6831
948.77427
655.69392
278.1962
277.89558
654.7017
947.19684
1200.5173
2585.7256
2583.5389
1199.5241
946.34684
654.08068
277.67229
277.64155
653.91337
946.01757
1198.9969
2582.4678
2581.9495
1198.6632
945.67476
653.63036
277.53102
277.57128
653.67544
945.66514
1198.556
2581.7236
2581.9059
1198.5143
945.55058
653.54737
277.51429
277.60812
653.74792
945.77102
1198.7076
2582.3289
2583.2067
1199.0223
945.91998
653.79273
277.60962
277.75244
654.13117
946.341
1199.4701
2584.4387
2586.1387
1200.1326
946.76398
654.36429
277.82013
278.04377
654.93715
947.5353
1201.0438
2588.4343
2591.2841
1202.1899
948.34195
655.43671
278.2061
278.5573
656.37905
949.65764
1203.8043
2595.0492
2599.7539
1205.7501
951.09488
657.31321
278.87184
279.41069
658.79674
953.20241
1208.3762
2605.5617
2612.7917
1211.4971
955.56637
660.36957
279.94764
280.7428
662.59822
958.76228
1215.5088
2621.5186
2631.9624
1220.1496
962.32772
664.99853
281.56557
282.6798
668.15468
966.87507
1225.8786
2644.2479
2658.6615
1232.4642
971.98095
671.6181
283.86949
285.39835
675.97986
978.27399
1240.392
2675.4292
2694.9958
1249.5488
985.42343
680.85577
287.0731
289.14086
686.79314
993.98143
1260.3176
2717.5016
2743.3828
1272.7137
1003.7466
693.52028
291.44133
294.20671
701.59994
1015.2902
1287.1456
2772.8709
2806.3795
1303.6905
1028.4196
710.74347
297.23881
300.51032
720.91088
1043.073
1322.1661
2844.2627
2887.1051
1341.113
1057.6418
730.56932
303.5027
306.85163
740.44813
1073.263
1361.9886
2935.6979
2991.669
1389.3691
1094.2643
754.45717
312.45111
324.05593
778.82463
1128.6986
1431.3873
3054.0292
3124.2329
1494.499
1183.7984
819.39055
342.12888
354.74697
855.96211
1230.08
1547.6094
3193.3538
3262.1069
1560.4085
1248.0696
872.43917
360.92375
3729.6268
4011.9792
3855.7634
3307.351
1499.7796
1204.9922
846.06728
355.07181
367.54637
891.48403
1282.2511
1612.2636
3245.2933
440.87729
1087.2371
1544.384
1910.0152
3220.6351
3106.3647
1870.7056
1503.6508
1050.5598
420.98754
421.59938
1051.3497
1506.1597
1873.9674
3105.8385
3270.1596
1802.3888
1440.989
1004.4357
403.56796
3594.4733
3716.7816
4032.8178
3935.3724
1348.8795
1387.3285
1517.8775
1348.8833
1711.3956
1674.2392
1546.962
1558.1105
273.99789
641.65652
927.9623
1176.4795
2565.871
2560.8033
1173.9261
925.9392
640.27704
273.53215
273.46965
640.03431
925.52225
1173.3023
2558.6387
2557.6989
1172.4059
924.76544
639.49687
273.28148
273.35332
639.66138
924.96488
1172.5897
2557.2284
2557.1314
1172.0996
924.51701
639.32751
273.23231
273.33855
639.59295
924.87031
1172.4922
2557.3543
2557.8137
1172.1632
924.55243
639.35205
273.25201
273.41947
639.79613
925.17201
1172.9028
2558.6323
2559.8704
1172.9187
925.11867
639.73408
273.39476
273.63019
640.37279
926.02233
1174.0225
2561.5695
2563.8521
1174.5242
926.34685
640.56816
273.69501
274.03497
641.50589
927.68619
1176.1843
2566.8507
2570.6605
1177.428
928.58373
642.08863
274.23317
274.71228
643.42327
930.49828
1179.8173
2575.414
2581.3131
1182.0501
932.16761
644.53326
275.09311
275.77488
646.45317
934.93448
1185.5231
2588.5228
2597.1985
1189.0147
937.60643
648.25777
276.39689
277.36267
651.00687
941.58654
1194.0379
2607.584
2619.7963
1199.2553
945.61513
653.74078
278.30419
279.61623
657.49024
951.04243
1206.1041
2634.1054
2650.8495
1213.5213
956.82709
661.44336
280.97967
282.77983
666.61417
964.30958
1222.9579
2670.3223
2692.828
1233.3378
972.44527
672.19775
284.69987
287.09712
679.13758
982.41874
1245.8512
2718.627
2748.0757
1259.8028
993.48545
686.83491
289.70722
292.82562
696.16644
1006.8312
1276.519
2781.5394
2819.398
1294.439
1020.9494
705.89975
295.96097
299.28455
716.1435
1036.1774
1313.9788
2862.3343
2911.0672
1335.7022
1052.7516
726.94157
303.05299
309.43025
742.91546
1075.8963
1365.0213
2967.0007
3028.6025
1407.5714
1110.5602
766.07209
320.85485
337.32281
807.01291
1164.0624
1468.9871
3098.3204
3170.7548
1511.5186
1202.0936
835.46749
347.24814
368.40624
892.13736
1282.5058
1612.3321
3243.6205
1543.7014
1235.6525
866.56235
362.81102
349.30315
834.2195
1194.2197
1497.5228
3413.4882
3350.62
1693.5804
1343.7073
929.28252
377.75751
405.62393
1006.7685
1444.0618
1807.2202
3267.7082
3315.1434
1582.8955
1253.5057
868.9357
356.56504
368.66946
892.83007
1283.6051
1613.8427
3248.9461
3175.1097
1511.0422
1201.4558
834.84698
346.98148
337.02944
806.38207
1163.4277
1468.5385
3101.3252
3030.547
1407.8364
1110.556
765.88484
320.74492
309.37593
742.85405
1075.9487
1365.2152
2968.2995
2911.9919
1336.2489
1053.1488
727.17462
303.10424
299.36364
716.37222
1036.4504
1314.2828
2862.8353
2819.5415
1294.969
1021.3912
706.21261
296.08602
292.88841
696.2533
1006.9086
1276.5743
2781.4593
2747.6837
1259.9731
993.61978
686.91542
289.76062
287.09185
679.03981
982.25436
1245.6274
2718.1917
2692.1425
1233.2767
972.39596
672.14441
284.70119
282.74162
666.43862
964.04318
1222.6158
2669.6951
2649.9713
1213.4277
956.7432
661.3579
280.96347
279.55004
657.24295
950.66778
1205.6153
2633.0702
2618.3838
1198.8357
945.28901
653.49534
278.23198
277.24659
650.62504
941.02034
1193.3097
2606.0601
2595.6439
1188.6782
937.33295
648.03636
276.32554
275.67444
646.127
934.44695
1184.8852
2587.1213
2579.963
1181.7866
931.96433
644.364
275.03803
274.63404
643.16701
930.11048
1179.299
2574.2351
2569.5567
1177.4123
928.5717
642.04607
274.21821
273.99468
641.36381
927.46057
1175.8604
2566.0029
2562.9305
1174.5456
926.37922
640.56286
273.69361
273.59
640.23113
925.79272
1173.685
2560.6279
2559.0468
1173.0394
925.22724
639.77751
273.40744
273.40284
639.72961
925.0538
1172.7068
2557.985
2557.3545
1172.4951
924.82564
639.50611
273.30045
273.34804
639.60226
924.85851
1172.4244
2556.9295
2556.5281
1172.2364
924.6514
639.39715
273.25563
273.32702
639.56546
924.8008
1172.3323
2556.432
2556.5101
1172.3214
924.72716
639.44872
273.26463
273.36799
639.70989
925.01554
1172.601
2556.8499
2557.6291
1172.9518
925.21468
639.77262
273.36485
273.53345
640.22311
925.78052
1173.5842
2558.9334
2561.8498
1174.9547
926.75585
640.79998
273.6981
2587.509
1200.8745
947.35787
654.74555
277.88241
277.71704
654.18487
946.45778
1199.6122
2584.058
2582.4842
1198.5012
945.5397
653.53935
277.49207
277.54031
653.62961
945.62338
1198.5326
2581.7709
2581.5363
1198.0112
945.15145
653.27779
277.41257
277.51266
653.52083
945.46325
1198.3397
2581.5834
2581.9195
1198.0576
945.17426
653.29249
277.42784
277.57242
653.66411
945.67646
1198.6328
2582.5357
2583.4532
1198.6101
945.58617
653.56829
277.53316
277.71887
654.05514
946.25758
1199.409
2584.6814
2586.3155
1199.7238
946.43128
654.1405
277.74362
278.01409
654.86836
947.45322
1200.9703
2588.5528
2591.6603
1201.9271
948.12251
655.29043
278.15552
278.55767
656.40109
949.70991
1203.9021
2595.5458
2600.3724
1205.6013
950.97158
657.23512
278.84441
279.43625
658.89584
953.36618
1208.611
2606.3182
2613.5397
1211.482
955.54505
660.35723
279.93952
280.76839
662.7041
958.93765
1215.7578
2622.2949
2632.6385
1220.1317
962.30304
664.98189
281.55359
282.69832
668.24455
967.02541
1226.0913
2644.908
2659.2681
1232.4447
971.95799
671.60285
283.85595
285.4139
676.0664
978.41898
1240.5962
2676.0503
2695.5123
1249.505
985.38533
680.83208
287.05507
289.14802
686.85986
994.0883
1260.4634
2717.9161
2743.7042
1272.6301
1003.6765
693.47618
291.40987
294.16497
701.56778
1015.2717
1287.1559
2773.0982
2806.4733
1303.2333
1028.0062
710.41965
297.09056
300.32595
720.4408
1042.5193
1321.5895
2844.2169
2886.9263
1340.439
1057.0538
730.11672
303.41652
307.14313
740.91926
1073.7464
1362.3904
2935.3786
2990.9776
1389.8903
1095.068
755.34212
312.89751
323.76136
776.12496
1127.2944
1430.3266
3051.9158
3120.5201
1489.076
1176.7888
813.25147
339.13515
340.30718
816.6053
1178.7309
1487.2852
3190.3358
3263.5426
1602.5287
1286.0579
901.5735
375.35466
401.75441
989.83876
1409.4116
1749.5333
3310.8384
3306.8131
1495.9499
1202.096
843.97571
353.33999
361.5388
879.20282
1265.3618
1593.1849
3245.5396
3238.331
1562.0555
1238.7037
859.64642
353.85035
339.12268
810.13462
1155.5378
1441.8372
3304.7381
3265.0869
1563.0333
1250.1871
873.91569
361.44163
370.66669
892.66898
1273.5745
1588.2684
3265.7358
3312.0561
1500.1508
1205.0922
846.00065
355.07236
367.27813
890.78221
1281.7464
1612.26
3251.9198
3177.1854
1497.8987
1189.1762
824.85669
342.88846
335.73899
804.088
1161.438
1467.4843
3103.555
3032.5603
1408.9695
1111.3495
766.37266
320.75148
309.5663
743.59691
1076.9997
1366.4899
2970.0087
2913.359
1337.1278
1053.8953
727.7263
303.26625
299.47948
716.7457
1036.9818
1314.939
2863.9763
2820.4288
1295.4104
1021.7478
706.46266
296.1663
292.96428
696.47768
1007.238
1276.9915
2782.2378
2748.3321
1260.2499
993.84973
687.07865
289.81973
287.14307
679.18272
982.46197
1245.8873
2718.6655
2692.5056
1233.382
972.49011
672.21519
284.72871
282.76314
666.4986
964.13258
1222.7305
2669.921
2650.1461
1213.4803
956.78862
661.39141
280.97624
279.56314
657.28057
950.7247
1205.6897
2633.2312
2618.6554
1198.9853
945.40297
653.57147
278.25724
277.27722
650.71598
941.15484
1193.4824
2606.4394
2596.066
1188.8085
937.43799
648.11067
276.35131
275.70415
646.21584
934.57963
1185.0578
2587.5152
2580.2195
1181.7091
931.91866
644.34293
275.03387
274.62872
643.15188
930.09268
1179.2838
2574.2395
2569.481
1177.0625
928.3168
641.88465
274.16751
273.9476
641.22767
927.26969
1175.6316
2565.5921
2562.6397
1174.2655
926.16156
640.41619
273.64422
273.55611
640.13622
925.66283
1173.534
2560.3855
2558.692
1172.8927
925.10873
639.69608
273.37934
273.38398
639.67713
924.98257
1172.6258
2557.8646
2557.0456
1172.1837
924.59087
639.35381
273.25127
273.30144
639.46711
924.66676
1172.1914
2556.4801
2556.2921
1172.0072
924.47128
639.27483
273.21379
273.29345
639.4697
924.66586
1172.1699
2556.1244
2556.5527
1172.2397
924.65986
639.40142
273.24738
273.35822
639.68374
924.98121
1172.5646
2556.8065
2557.4919
1172.6905
925.02074
639.64881
273.3253
273.50111
640.13093
925.65352
1173.4367
2558.6978
2561.6224
1174.6298
926.50735
640.63491
273.64468
2566.202
1176.5993
927.98987
641.63629
273.97577
273.67183
640.64204
926.41774
1174.4392
2560.9832
2558.7423
1173.299
925.45644
639.954
273.4286
273.41728
639.85216
925.23275
1172.907
2557.6519
2557.1792
1172.5005
924.83733
639.54101
273.29958
273.36093
639.65931
924.94838
1172.5554
2557.129
2557.3225
1172.3997
924.7466
639.47853
273.28803
273.3918
639.71778
925.03504
1172.6848
2557.7246
2558.6404
1172.8372
925.07069
639.69858
273.37533
273.54676
640.13367
925.64816
1173.4948
2559.9071
2561.6571
1174.0763
926.00834
640.3306
273.60411
273.84428
640.95966
926.86649
1175.0913
2563.9532
2566.9055
1176.2067
927.64128
641.43921
274.00016
274.35665
642.40178
928.98764
1177.8473
2570.62
2575.2846
1179.7497
930.37632
643.30143
274.65903
275.18767
644.76129
932.45254
1182.3258
2581.1326
2588.199
1185.24
934.65526
646.23133
275.69124
276.48166
648.45744
937.85708
1189.2605
2596.8609
2607.1941
1193.6708
941.24867
650.74874
277.26952
278.38817
653.92791
945.83844
1199.4557
2619.4279
2633.844
1205.8992
950.83465
657.32238
279.55598
281.08731
661.69593
957.14925
1213.8518
2650.6657
2670.2366
1222.9026
964.20995
666.5148
282.74451
284.80557
672.43018
972.73009
1233.6095
2692.7787
2718.6374
1245.8487
982.37529
679.08591
287.08371
289.84
687.14997
993.9016
1260.259
2748.2186
2781.8083
1276.6297
1006.869
696.16124
292.82304
296.0762
706.19598
1021.3665
1294.9282
2819.8607
2863.0741
1314.1704
1036.2838
716.18149
299.2982
303.32118
727.66398
1053.7379
1336.8484
2912.0176
2968.3081
1366.2481
1076.9306
743.67954
309.68503
321.27164
767.39453
1112.2663
1409.5338
3030.1076
3099.9996
1469.7661
1163.8695
806.22683
336.68979
343.94632
827.71304
1192.46
1500.8926
3172.754
3236.4689
1390.7644
1100.607
763.45969
323.15456
308.30651
725.04184
1053.4124
1341.0406
3165.7465
3096.5912
1301.4169
1019.1952
699.40275
297.07946
289.30599
684.86138
995.28841
1269.7957
3035.3891
2979.5947
1245.857
977.21175
672.9825
284.64112
281.53045
663.76327
962.71643
1226.5139
2930.4116
2886.9551
1208.4684
948.69934
654.31796
278.50886
275.51923
645.00089
935.13304
1191.1986
2848.5221
2814.5433
1175.8385
922.89331
636.42549
272.65758
270.21389
629.16778
912.37623
1162.502
2784.6968
2758.4919
1151.0412
903.27799
622.83039
268.02669
266.22304
617.55723
895.53233
1141.1172
2735.6311
2715.8803
1132.6574
888.84054
612.91328
264.60213
263.29725
609.09958
883.1909
1125.3656
2698.677
2683.9978
1119.1873
878.30442
605.70049
262.10321
261.18845
603.02281
874.3056
1113.9882
2671.4456
2660.875
1109.6836
870.89209
600.63274
260.34046
259.73002
598.83665
868.17347
1106.1068
2652.1526
2644.9461
1103.2672
865.90558
597.22765
259.14956
258.77064
596.10216
864.16144
1100.9273
2639.1175
2634.5503
1099.1671
862.73714
595.06905
258.38846
258.17601
594.42104
861.6878
1097.7128
2630.7373
2627.8942
1096.6957
860.84087
593.78048
257.92983
257.82697
593.44533
860.2468
1095.8228
2625.5472
2623.7767
1095.1943
859.70424
593.0143
257.65516
257.61974
592.87391
859.40069
1094.7048
2622.3251
2621.385
1094.5113
859.18396
592.65781
257.5204
257.54337
592.6833
859.12003
1094.3244
2621.0149
2620.5752
1094.1858
858.95478
592.50905
257.46216
257.52477
592.65589
859.08284
1094.2674
2620.5976
2620.9618
1094.4341
859.15141
592.6378
257.49606
257.63472
593.01336
859.6241
1094.9689
2622.1514
2624.5639
1095.9807
860.33373
593.41774
257.74553
258.1437
594.58004
861.98777
1098.0573
2629.7283
2628.8055
1097.4635
861.42683
594.15263
257.98204
257.73681
593.33989
860.12772
1095.654
2623.8753
2621.7307
1094.674
859.29713
592.74497
257.52632
257.52259
592.67295
859.12321
1094.3503
2620.818
2620.4363
1093.9681
858.75726
592.39021
257.41724
257.48887
592.54684
858.92993
1094.1039
2620.4211
2620.6936
1094.0388
858.79101
592.40706
257.42955
257.51648
592.6009
859.01235
1094.2304
2621.1102
2621.9514
1094.3938
859.04571
592.57727
257.49776
257.63459
592.91664
859.4857
1094.8736
2623.2178
2624.9353
1095.2846
859.72839
593.04623
257.67276
257.91236
593.68824
860.62017
1096.3567
2627.3084
2630.4059
1097.3556
861.31663
594.12484
258.05625
258.41065
595.09764
862.6929
1099.0489
2634.3844
2639.275
1100.828
863.99443
595.94397
258.69547
259.19928
597.34632
865.99816
1103.3268
2645.3169
2652.6907
1106.1113
868.09696
598.74461
259.67654
260.4173
600.84107
871.1192
1109.914
2661.575
2672.1346
1114.1587
874.34948
603.00598
261.15547
262.16319
605.87427
878.49028
1119.3744
2684.5149
2699.0399
1125.4043
883.12754
609.00621
263.23376
264.61541
612.96591
888.85561
1132.6327
2716.0044
2735.6932
1140.9665
895.32197
617.36318
266.1202
267.99446
622.77194
903.13919
1150.8299
2758.3537
2784.3067
1162.0861
911.96632
628.84278
270.06198
272.57956
636.24266
922.56924
1175.3859
2814.0078
2847.6499
1190.5762
934.56752
644.57239
275.33742
278.39769
653.99623
948.16699
1207.7474
2885.6399
2928.547
1225.4033
961.7211
663.02339
281.22953
284.10346
671.66229
975.31384
1243.5646
2977.0673
3032.0562
1266.6522
992.57365
682.85371
288.45444
296.83874
699.34664
1018.4464
1299.873
3092.7094
3161.9014
1350.5008
1062.5969
731.81545
311.34151
334.83648
792.52066
1139.2191
1435.7921
3234.3732
3305.122
1500.3083
1205.2412
846.3113
354.74068
395.70822
975.50939
1391.7522
1728.7799
3311.0719