/*--------------------------------*- C++ -*----------------------------------*\
  =========                 |
  \\      /  F ield         | OpenFOAM: The Open Source CFD Toolbox
   \\    /   O peration     | Website:  https://openfoam.org
    \\  /    A nd           | Version:  7
     \\/     M anipulation  |
\*---------------------------------------------------------------------------*/
FoamFile
{
    version     2.0;
    format      ascii;
    class       volScalarField;
    location    "40";
    object      T;
}
// * * * * * * * * * * * * * * * * * * * * * * * * * * * * * * * * * * * * * //

dimensions      [0 0 0 1 0 0 0];

internalField   nonuniform List<scalar> 
24789
(
300.02358
300.02257
300.02198
300.02165
300.02005
300.02532
300.02682
300.02714
300.02776
300.02885
300.03556
300.03415
300.03339
300.03303
300.03142
300.03863
300.04037
300.04076
300.04166
300.04335
300.05251
300.05047
300.04941
300.04898
300.04717
300.0573
300.05926
300.05974
300.06099
300.06345
300.07634
300.07337
300.07188
300.07136
300.06922
300.08322
300.08574
300.08636
300.08813
300.0917
300.10973
300.10545
300.10332
300.10257
300.09947
300.11817
300.1223
300.12325
300.12581
300.13092
300.15547
300.14942
300.14632
300.14507
300.13938
300.16303
300.17125
300.17296
300.17673
300.18389
300.21607
300.20771
300.20311
300.20074
300.18885
300.21629
300.23366
300.23699
300.24263
300.25237
300.29215
300.28098
300.27408
300.26945
300.24455
300.27246
300.30752
300.31391
300.3223
300.33495
300.37916
300.36521
300.35514
300.34654
300.29857
300.32069
300.38432
300.39559
300.40746
300.42236
300.46229
300.44672
300.43292
300.41843
300.33584
300.3435
300.44651
300.46445
300.48015
300.4958
300.52067
300.50534
300.48794
300.46648
300.34303
300.33402
300.47654
300.50118
300.5198
300.53362
300.53115
300.52003
300.50105
300.47365
300.3148
300.2842
300.45364
300.48254
300.50021
300.50531
300.44897
300.45292
300.43908
300.41069
300.2422
300.1898
300.34105
300.36572
300.37286
300.3562
300.23991
300.26623
300.26668
300.24837
300.13185
300.07877
300.15326
300.16414
300.15935
300.13308
300.08833
300.09888
300.09978
300.0903
300.03494
300.00036
300.08503
300.1005
300.11229
300.12791
300.21354
300.18257
300.15556
300.12629
299.96369
299.92931
300.14846
300.1908
300.23438
300.28746
300.37378
300.31938
300.27333
300.2249
299.97034
299.81125
300.12589
300.18115
300.23171
300.28482
300.26693
300.23103
300.19103
300.14374
299.85018
299.84169
300.00959
300.03558
300.05891
300.08544
299.98165
299.94377
299.91077
299.8775
299.7084
299.85718
300.19956
300.24522
300.28926
300.35296
300.19925
300.16902
300.13502
300.09721
299.83087
299.83549
300.30406
300.37632
300.44452
300.52117
300.33799
300.28281
300.24051
300.19781
299.95217
299.93156
300.15607
300.19225
300.22758
300.26538
300.17082
300.1465
300.12647
300.10446
299.963
300.00032
300.06495
300.07476
300.07868
300.08044
300.07397
300.08583
300.0885
300.08153
300.03639
300.08225
300.1583
300.16762
300.15888
300.12568
300.25267
300.28453
300.28714
300.26892
300.13618
300.19488
300.37434
300.39948
300.40503
300.38404
300.48816
300.49339
300.47906
300.44934
300.24724
300.28859
300.49047
300.52017
300.53857
300.54484
300.56378
300.55264
300.53321
300.50526
300.31796
300.33608
300.5032
300.52804
300.5469
300.56101
300.54401
300.52769
300.50973
300.48811
300.34437
300.34416
300.46339
300.48125
300.49721
300.51363
300.4759
300.45959
300.44547
300.43105
300.33571
300.31937
300.39357
300.40482
300.41694
300.43244
300.38678
300.37229
300.36197
300.35333
300.29701
300.271
300.31262
300.31907
300.3277
300.34081
300.29676
300.28514
300.27801
300.27327
300.24309
300.21489
300.23645
300.23992
300.2458
300.25595
300.21885
300.21013
300.20532
300.20282
300.18753
300.16187
300.17278
300.17463
300.1786
300.18605
300.15723
300.15094
300.14768
300.14631
300.13838
300.11732
300.12326
300.12433
300.12704
300.13234
300.11096
300.10652
300.10427
300.10343
300.09875
300.08264
300.08645
300.08717
300.08904
300.09274
300.07731
300.07422
300.07265
300.07204
300.06874
300.05692
300.05986
300.06039
300.06171
300.06424
300.05332
300.05119
300.05006
300.04958
300.04689
300.03842
300.04088
300.04132
300.04225
300.04398
300.03625
300.03477
300.03396
300.03356
300.03127
300.02522
300.02722
300.02756
300.02819
300.02928
300.02443
300.02337
300.02273
300.02234
300.02012
300.02442
300.0266
300.02696
300.02762
300.02877
300.0352
300.03385
300.0331
300.03274
300.03065
300.03778
300.04012
300.04054
300.04144
300.04311
300.05212
300.0501
300.04904
300.04859
300.04611
300.05601
300.05876
300.05927
300.06053
300.06297
300.07567
300.07273
300.07123
300.07066
300.06762
300.08127
300.08484
300.0855
300.08729
300.09082
300.10849
300.10426
300.10213
300.10134
300.09708
300.11528
300.12078
300.12177
300.12434
300.12939
300.15354
300.14753
300.14443
300.14315
300.13585
300.15885
300.16906
300.1708
300.17457
300.18168
300.21355
300.20523
300.20064
300.19827
300.18391
300.21066
300.23108
300.23436
300.23996
300.24965
300.28918
300.27809
300.27127
300.26677
300.23814
300.26542
300.30508
300.31123
300.31947
300.33201
300.37623
300.36244
300.35262
300.3444
300.29077
300.31254
300.38318
300.3939
300.40545
300.42023
300.46151
300.44607
300.43273
300.41905
300.32835
300.33652
300.44983
300.46682
300.482
300.49762
300.52591
300.5104
300.49351
300.47305
300.33648
300.32829
300.48717
300.51081
300.52882
300.54226
300.54398
300.53356
300.51524
300.48874
300.31039
300.28165
300.47453
300.50301
300.52089
300.52772
300.47244
300.47703
300.46347
300.43512
300.24116
300.18996
300.36388
300.3884
300.39439
300.37522
300.24853
300.27858
300.2809
300.26308
300.13246
300.07977
300.15857
300.16841
300.16127
300.13128
300.08508
300.09497
300.0958
300.08733
300.03444
299.99982
300.07657
300.08873
300.09606
300.10534
300.2005
300.17239
300.14932
300.12412
299.96324
299.92147
300.15761
300.19521
300.22737
300.24867
300.2453
300.1936
300.15907
300.12553
299.91919
299.88169
300.39105
300.46717
300.53356
300.601
299.72392
299.72272
299.71867
299.71217
299.67343
299.88895
300.31578
300.37414
300.42965
300.49776
299.7861
299.78043
299.76758
299.7528
299.68933
299.83625
300.12821
300.17826
300.22904
300.29546
299.74691
299.75508
299.75276
299.74554
299.69848
299.90287
300.30596
300.37249
300.42911
300.47774
300.30116
300.2314
300.18629
300.14387
299.93864
299.93464
300.15851
300.19815
300.23438
300.26679
300.20726
300.17553
300.14998
300.1229
299.97266
300.00431
300.08
300.0937
300.10302
300.11538
300.0889
300.09963
300.1003
300.09091
300.03668
300.08271
300.15909
300.16992
300.16404
300.13567
300.24701
300.27419
300.27467
300.2561
300.13678
300.19567
300.34854
300.37284
300.37941
300.36209
300.45291
300.45706
300.44345
300.41567
300.24823
300.28961
300.45519
300.48272
300.49933
300.50374
300.52603
300.51562
300.49754
300.47154
300.31812
300.33553
300.472
300.495
300.51227
300.52496
300.51075
300.49649
300.48023
300.46027
300.34317
300.34257
300.43937
300.45582
300.47026
300.48475
300.45111
300.43651
300.4237
300.41046
300.33348
300.31668
300.37622
300.3865
300.39749
300.4115
300.36905
300.3559
300.34654
300.33872
300.29409
300.26813
300.30063
300.30641
300.31422
300.32619
300.28448
300.27385
300.26743
300.26326
300.24029
300.21237
300.22827
300.23125
300.23654
300.24585
300.21046
300.20244
300.19814
300.19604
300.18523
300.15989
300.16721
300.16871
300.17226
300.17913
300.15139
300.14558
300.14269
300.14163
300.13666
300.11593
300.11943
300.12024
300.12264
300.12753
300.10693
300.10283
300.10085
300.10023
300.0976
300.08167
300.08379
300.08431
300.08597
300.08937
300.07448
300.07163
300.07024
300.0698
300.06796
300.0563
300.05796
300.05836
300.05952
300.06186
300.05127
300.04931
300.04832
300.04795
300.04636
300.03799
300.03952
300.03986
300.04069
300.04228
300.0346
300.03329
300.03259
300.03228
300.03083
300.02457
300.02612
300.02643
300.02703
300.02813
300.02853
300.02732
300.02666
300.02631
300.02464
300.03087
300.03248
300.03283
300.03356
300.03489
300.04266
300.041
300.04012
300.03973
300.03802
300.04642
300.04825
300.04867
300.04971
300.05171
300.06241
300.06
300.05877
300.05831
300.05637
300.06808
300.07025
300.07078
300.07223
300.07514
300.09009
300.0866
300.08486
300.08426
300.08179
300.09773
300.10078
300.10152
300.1036
300.10777
300.12845
300.12347
300.12097
300.12005
300.11602
300.13676
300.14237
300.1436
300.14663
300.15255
300.18024
300.17327
300.16959
300.16792
300.15991
300.18513
300.19684
300.19918
300.20369
300.21188
300.24725
300.23776
300.23225
300.22898
300.21194
300.23949
300.26397
300.26853
300.27527
300.28617
300.32777
300.31549
300.30731
300.30105
300.26673
300.29215
300.33895
300.34734
300.35713
300.37065
300.41276
300.39828
300.38674
300.37574
300.31361
300.32829
300.40882
300.42293
300.43635
300.45138
300.484
300.46876
300.45351
300.43602
300.33571
300.33524
300.4554
300.47622
300.4931
300.50779
300.52076
300.50717
300.48907
300.46504
300.32636
300.30755
300.46237
300.48899
300.50747
300.51806
300.49429
300.48877
300.47142
300.4431
300.27761
300.23662
300.40212
300.42985
300.4435
300.43956
300.35114
300.3665
300.35914
300.33463
300.18537
300.12864
300.24517
300.2633
300.26307
300.23715
300.13429
300.15917
300.16345
300.15216
300.07632
300.03312
300.09063
300.10056
300.10046
300.09076
300.13046
300.11362
300.10123
300.08524
299.99894
299.96274
300.12585
300.15519
300.1821
300.21265
300.26322
300.22247
300.18394
300.1432
299.92339
299.94677
300.16177
300.20513
300.24832
300.30596
300.31464
300.27425
300.22626
300.16921
299.82621
299.75754
299.91726
299.94537
299.97003
299.99396
300.28144
300.23048
300.19265
300.15539
299.89358
299.69818
299.81619
299.84364
299.8716
299.90506
299.67745
299.69199
299.70222
299.71594
299.71955
299.83135
299.79718
299.76783
299.74323
299.64558
299.73937
300.04655
300.09237
300.14021
300.19625
300.31096
300.23515
300.17481
300.11812
299.79792
299.82316
300.09439
300.14273
300.19457
300.26703
299.99763
299.97882
299.95711
299.93121
299.77454
299.88192
300.26758
300.33339
300.39305
300.45691
300.30341
300.24389
300.20049
300.15786
299.9484
299.93978
300.14328
300.1795
300.21354
300.24637
300.17605
300.15001
300.12866
300.10527
299.97399
300.00553
300.07301
300.08485
300.09113
300.09668
300.08638
300.09757
300.09889
300.09011
300.03798
300.08399
300.16149
300.17261
300.16639
300.13694
300.25075
300.27788
300.27814
300.25926
300.13829
300.19726
300.35165
300.37626
300.38308
300.36599
300.45699
300.46101
300.44718
300.41909
300.24997
300.29117
300.45845
300.48631
300.50319
300.5078
300.5302
300.51955
300.5012
300.47489
300.31978
300.33715
300.47503
300.49831
300.51583
300.52878
300.51425
300.49977
300.4833
300.46313
300.34482
300.34415
300.44188
300.45851
300.47313
300.48783
300.45385
300.43908
300.42612
300.41274
300.33504
300.31807
300.37817
300.38857
300.39969
300.41386
300.37108
300.3578
300.34835
300.34044
300.29536
300.26922
300.30207
300.30792
300.3158
300.32788
300.28597
300.27524
300.26874
300.26452
300.24126
300.21317
300.2293
300.23233
300.23767
300.24707
300.21147
300.20338
300.19903
300.1969
300.18591
300.16044
300.1679
300.16943
300.17302
300.17994
300.1521
300.14624
300.14332
300.14222
300.13713
300.11629
300.1199
300.12073
300.12315
300.12808
300.10738
300.10325
300.10125
300.10061
300.09789
300.08194
300.08414
300.08467
300.08634
300.08978
300.07482
300.07195
300.07055
300.07009
300.06819
300.05648
300.05822
300.05863
300.0598
300.06217
300.05152
300.04955
300.04854
300.04816
300.04652
300.03812
300.03971
300.04005
300.0409
300.04251
300.03482
300.03348
300.03277
300.03244
300.03094
300.02468
300.02632
300.02664
300.02726
300.02839
300.02929
300.02808
300.0274
300.02703
300.02483
300.03097
300.03315
300.03353
300.0343
300.03566
300.04358
300.04187
300.04094
300.04051
300.03811
300.04655
300.04918
300.04965
300.05074
300.0528
300.06366
300.06117
300.05987
300.05935
300.05652
300.06827
300.07149
300.07208
300.07362
300.07662
300.09186
300.08825
300.08642
300.08573
300.08203
300.09802
300.10256
300.1034
300.10559
300.10992
300.13096
300.1258
300.12316
300.12212
300.11639
300.13724
300.14492
300.14628
300.14947
300.15561
300.18397
300.17673
300.17286
300.17107
300.16049
300.18592
300.20078
300.20324
300.20795
300.21646
300.2529
300.24303
300.23729
300.23393
300.21298
300.24091
300.27028
300.27492
300.2819
300.29326
300.33661
300.3238
300.31537
300.30908
300.26853
300.29436
300.34922
300.35764
300.36772
300.38188
300.42683
300.41161
300.39975
300.38875
300.31642
300.33268
300.42563
300.43966
300.45341
300.46932
300.50676
300.49041
300.47471
300.4572
300.34087
300.34108
300.48165
300.50268
300.5202
300.53632
300.5542
300.53974
300.52095
300.49643
300.33266
300.31493
300.49918
300.52648
300.54554
300.55616
300.54101
300.53292
300.51424
300.48467
300.28568
300.24536
300.4457
300.47478
300.48891
300.48419
300.38638
300.40471
300.39809
300.37256
300.19365
300.13617
300.27126
300.28948
300.28733
300.25668
300.13579
300.16659
300.1739
300.16351
300.08258
300.03844
300.08896
300.09666
300.09489
300.0841
300.09474
300.08989
300.08443
300.07354
300.0036
299.96876
300.11764
300.14104
300.16361
300.19392
300.29171
300.25116
300.21211
300.17319
299.93328
299.94608
300.19889
300.2417
300.28101
300.32464
300.50848
300.44044
300.37836
300.30955
299.84788
299.79213
299.99035
300.02071
300.0486
300.08111
300.40372
300.34007
300.29
300.23822
299.85405
299.69122
299.70682
299.71142
299.72427
299.76557
300.02538
300.02888
300.01659
299.9955
299.83823
299.84749
300.18817
300.24588
300.30161
300.37152
300.22438
300.17868
300.13301
300.08274
299.79466
299.96996
300.235
300.28424
300.32963
300.37976
300.27963
300.22674
300.18334
300.14167
299.92805
299.96488
300.12561
300.15433
300.18029
300.20877
300.13279
300.11784
300.10591
300.08987
300.00203
300.03607
300.09578
300.10596
300.10574
300.09558
300.14082
300.16544
300.16921
300.15734
300.07902
300.13165
300.25015
300.26856
300.26817
300.24175
300.35727
300.37326
300.36564
300.34058
300.1889
300.24096
300.40944
300.43752
300.45089
300.44585
300.50339
300.49835
300.48063
300.45163
300.28269
300.31329
300.47169
300.49877
300.51729
300.52743
300.53119
300.51754
300.49898
300.47434
300.33246
300.34156
300.46452
300.48571
300.50276
300.51743
300.49349
300.47803
300.46242
300.44454
300.34209
300.33458
300.41676
300.43108
300.44466
300.45985
300.42059
300.40583
300.39404
300.38284
300.31956
300.29761
300.34518
300.35368
300.36364
300.37744
300.33353
300.32097
300.31266
300.30635
300.27161
300.24381
300.26848
300.27308
300.27993
300.29108
300.25139
300.24168
300.2361
300.23283
300.21568
300.18834
300.20006
300.2024
300.20699
300.21538
300.1832
300.17605
300.17231
300.17065
300.16262
300.13904
300.14459
300.14582
300.14891
300.15499
300.13046
300.12534
300.12281
300.12189
300.1179
300.09926
300.10224
300.10298
300.10509
300.10937
300.09144
300.08785
300.08608
300.08548
300.08304
300.06908
300.07115
300.07167
300.07315
300.07612
300.06329
300.0608
300.05955
300.05909
300.05717
300.04707
300.04884
300.04926
300.05031
300.05235
300.04327
300.04154
300.04063
300.04024
300.03854
300.03133
300.03288
300.03323
300.03396
300.03531
300.02916
300.02791
300.02722
300.02687
300.0252
300.02465
300.02627
300.02661
300.02725
300.02841
300.03481
300.03348
300.03275
300.03241
300.03088
300.03805
300.03971
300.04009
300.04096
300.0426
300.0516
300.04961
300.04858
300.04818
300.04647
300.05644
300.05829
300.05874
300.05996
300.06236
300.07502
300.07213
300.07069
300.07019
300.06818
300.08192
300.08425
300.08485
300.08656
300.09003
300.10764
300.10349
300.10144
300.10074
300.09787
300.11621
300.11999
300.1209
300.12337
300.12832
300.15234
300.14646
300.14347
300.1423
300.13697
300.16015
300.1679
300.16954
300.1732
300.18016
300.21165
300.20353
300.19907
300.1968
300.1854
300.21226
300.22897
300.23218
300.23765
300.2471
300.28586
300.27504
300.26837
300.26389
300.23982
300.26706
300.30101
300.30718
300.31529
300.32749
300.37027
300.35683
300.34712
300.33881
300.29245
300.31393
300.37561
300.3865
300.39794
300.41226
300.45068
300.43575
300.42246
300.40846
300.32856
300.33593
300.43563
300.45293
300.46801
300.48294
300.50666
300.49201
300.47529
300.45459
300.33532
300.32637
300.46433
300.48809
300.50595
300.5191
300.5166
300.50592
300.48761
300.46111
300.3073
300.27731
300.44221
300.47021
300.48729
300.49219
300.43782
300.44151
300.42798
300.40031
300.23601
300.18467
300.33332
300.35744
300.36437
300.34796
300.23292
300.25952
300.26022
300.2423
300.12771
300.07547
300.14894
300.15944
300.15407
300.12693
300.0852
300.09476
300.09486
300.08539
300.03189
299.99792
300.07761
300.09207
300.10218
300.11624
300.20144
300.17258
300.14747
300.11934
299.96166
299.91838
300.13109
300.16999
300.2052
300.23656
300.25016
300.19337
300.15415
300.11495
299.92719
299.85673
300.20502
300.2622
300.30815
300.34193
299.78616
299.77653
299.76645
299.75484
299.68196
299.90861
300.263
300.31593
300.3655
300.41938
299.77252
299.74476
299.74435
299.86388
300.14448
300.18138
300.21584
300.25163
300.05351
300.00782
299.97706
299.94853
299.78557
299.85685
299.85568
299.84398
299.82954
299.74454
299.85177
299.99415
300.0376
300.08297
300.14136
300.56311
300.45672
300.37189
300.28711
299.95972
299.80068
300.08043
300.14177
300.20575
300.28439
299.75106
299.65556
299.6584
299.67029
299.99452
299.99581
299.98862
299.99453
300.00283
299.9966
299.99331
299.99959
300.02806
300.02692
300.02631
300.02599
300.02439
300.03066
300.03221
300.03253
300.03323
300.0345
300.04215
300.04057
300.03973
300.03938
300.03774
300.04604
300.04779
300.04817
300.04916
300.05108
300.06164
300.05931
300.05814
300.05772
300.05587
300.06743
300.06948
300.06996
300.07134
300.07415
300.08891
300.08555
300.08389
300.08333
300.08099
300.09674
300.09964
300.1003
300.10227
300.1063
300.12662
300.12183
300.11944
300.11861
300.11486
300.1354
300.14064
300.14175
300.14463
300.15033
300.17755
300.17082
300.16731
300.1658
300.15831
300.18338
300.19442
300.19656
300.20084
300.20874
300.24354
300.23441
300.22917
300.22618
300.21012
300.23773
300.26079
300.26498
300.27136
300.28184
300.32281
300.31104
300.30332
300.29756
300.26515
300.29088
300.33515
300.34291
300.35215
300.36511
300.40704
300.39313
300.38223
300.37203
300.31314
300.33002
300.40603
300.4191
300.43175
300.44618
300.47979
300.46521
300.45085
300.43454
300.33897
300.33988
300.45531
300.47492
300.49091
300.50499
300.51981
300.50676
300.48954
300.46674
300.33219
300.31538
300.46615
300.49158
300.50927
300.5195
300.49895
300.49372
300.47706
300.44981
300.28712
300.247
300.41139
300.4384
300.45158
300.44746
300.36145
300.37688
300.36974
300.34547
300.19476
300.13726
300.25576
300.27405
300.27386
300.24801
300.14254
300.16791
300.17254
300.16096
300.08301
300.03817
300.09346
300.10272
300.1015
300.08931
300.10948
300.10097
300.0926
300.07905
300.00272
299.96533
300.09727
300.12046
300.13988
300.15695
300.20383
300.16886
300.13897
300.10701
299.93129
299.98221
300.18862
300.22782
300.26447
300.30456
300.18356
300.13919
300.09936
300.05626
299.80126
299.9113
300.22628
300.27643
300.32337
300.38198
300.01852
299.99418
299.97129
299.94612
299.80094
300.22036
300.28116
300.33652
300.39505
300.57978
300.469
300.38819
300.31027
299.79776
299.79381
300.18835
300.26764
300.34558
300.44773
299.87189
299.80037
299.76022
299.73331
299.6178
299.64327
299.91653
299.96639
300.02518
300.11712
300.01876
299.99527
299.97211
299.9461
299.79712
299.90868
300.22977
300.28057
300.32715
300.38222
300.19665
300.14876
300.10717
300.06241
299.8
299.98242
300.19637
300.2368
300.27453
300.31603
300.2161
300.17984
300.14829
300.115
299.93258
299.96668
300.10131
300.12485
300.14461
300.16302
300.10968
300.10092
300.09252
300.07899
300.00323
300.0393
300.09412
300.10309
300.10105
300.08749
300.14494
300.17194
300.17682
300.16488
300.08508
300.14101
300.26447
300.28329
300.2826
300.25484
300.37506
300.39141
300.38368
300.35812
300.20048
300.25452
300.42722
300.45542
300.46891
300.46404
300.51936
300.514
300.49625
300.46742
300.29619
300.32557
300.48486
300.51157
300.52998
300.5404
300.54133
300.52759
300.50923
300.48503
300.34283
300.35075
300.47301
300.49371
300.51053
300.52527
300.49904
300.48355
300.46822
300.4509
300.34972
300.34048
300.42103
300.43482
300.44814
300.46337
300.42238
300.40762
300.39605
300.38524
300.32299
300.29991
300.34662
300.35479
300.36455
300.37825
300.33387
300.32142
300.31328
300.30722
300.27317
300.24476
300.26894
300.27334
300.28007
300.29114
300.25114
300.24151
300.23602
300.23289
300.21609
300.18844
300.19995
300.2022
300.20671
300.21503
300.18275
300.17566
300.17199
300.1704
300.16254
300.1389
300.14434
300.14552
300.14855
300.15456
300.13004
300.12498
300.12249
300.12163
300.11772
300.09907
300.10202
300.10272
300.10479
300.10901
300.09109
300.08755
300.08583
300.08526
300.08287
300.06898
300.07103
300.07152
300.07296
300.07588
300.0631
300.06066
300.05944
300.059
300.05712
300.04707
300.04884
300.04923
300.05026
300.05225
300.04317
300.04149
300.04062
300.04025
300.03856
300.03141
300.033
300.03334
300.03407
300.03542
300.0288
300.0277
300.02709
300.02679
300.02534
300.02028
300.02194
300.02227
300.02285
300.02382
300.02475
300.02635
300.02669
300.02733
300.02849
300.0347
300.03338
300.03267
300.03234
300.03084
300.03797
300.03961
300.03998
300.04085
300.04248
300.05149
300.0495
300.04848
300.04807
300.04635
300.05629
300.05818
300.05863
300.05984
300.06224
300.07485
300.07197
300.07053
300.07002
300.06797
300.08166
300.08405
300.08464
300.08634
300.08979
300.1073
300.10318
300.10114
300.10044
300.09753
300.11579
300.11963
300.12052
300.12298
300.1279
300.15179
300.14596
300.14298
300.1418
300.13645
300.15953
300.1673
300.16893
300.17255
300.17945
300.21074
300.20268
300.19826
300.19599
300.18464
300.21131
300.22785
300.23102
300.23642
300.24576
300.28404
300.2734
300.26682
300.2624
300.23864
300.26568
300.29895
300.30501
300.31297
300.32494
300.36705
300.3539
300.34439
300.33624
300.2908
300.31222
300.37242
300.38309
300.39429
300.40831
300.44625
300.43167
300.41868
300.40496
300.32673
300.33411
300.43151
300.44849
300.46327
300.47788
300.50142
300.48713
300.47076
300.45045
300.33349
300.32484
300.45983
300.48316
300.5007
300.51356
300.51142
300.50106
300.48312
300.45709
300.30609
300.27669
300.43816
300.46568
300.48246
300.4872
300.43474
300.43836
300.42502
300.39776
300.2361
300.18611
300.33248
300.35639
300.36358
300.34818
300.24013
300.26422
300.26386
300.24557
300.13012
300.07935
300.15648
300.16804
300.16451
300.14054
300.09796
300.10693
300.10675
300.0964
300.03645
300.00373
300.09065
300.10646
300.11823
300.13299
300.20713
300.17887
300.15313
300.12466
299.96588
299.93008
300.13959
300.18038
300.22297
300.27523
300.37793
300.32715
300.28169
300.23266
299.97012
299.79651
300.08456
300.13458
300.18003
300.22538
300.37184
300.3026
300.24751
300.19044
299.85308
299.84312
299.99376
300.0131
300.02383
300.0188
299.75807
299.7156
299.70294
299.69907
299.69496
299.85907
300.23849
300.28898
300.33795
300.40037
300.27366
300.20123
300.14933
300.1011
299.83022
299.84219
300.14055
300.19171
300.24414
300.31333
300.50282
300.43342
300.37746
300.31922
299.89187
299.91058
300.26537
300.31805
300.36794
300.4236
300.27622
300.22788
300.1906
300.15335
299.89267
299.86392
300.14354
300.18004
300.21338
300.24504
300.04946
300.00917
299.97957
299.9506
299.78544
299.9015
300.24212
300.29981
300.35531
300.42468
300.23169
300.18074
300.13531
300.08632
299.80126
299.98309
300.20002
300.24117
300.28046
300.32498
300.21086
300.17404
300.14264
300.10985
299.93049
299.96553
300.09563
300.11835
300.1372
300.15426
300.0994
300.09405
300.08708
300.07447
300.003
300.03927
300.09119
300.09981
300.09821
300.08726
300.13867
300.16762
300.17358
300.16223
300.0849
300.14076
300.26236
300.28084
300.27957
300.25056
300.37291
300.38971
300.38225
300.35687
300.20005
300.25407
300.42623
300.45439
300.46783
300.46285
300.51849
300.51318
300.49547
300.46668
300.29563
300.32501
300.48419
300.5109
300.52932
300.53972
300.54082
300.5271
300.50874
300.48454
300.34229
300.35034
300.47269
300.4934
300.51021
300.52493
300.49888
300.48341
300.46808
300.45073
300.34939
300.34025
300.42094
300.43477
300.44812
300.46335
300.42239
300.40763
300.39604
300.3852
300.32277
300.29971
300.34662
300.35484
300.36463
300.37838
300.33393
300.32146
300.3133
300.30721
300.27299
300.24463
300.26901
300.27344
300.28019
300.29127
300.25129
300.24164
300.23613
300.23297
300.21602
300.18841
300.20007
300.20233
300.20685
300.21519
300.18285
300.17575
300.17207
300.17047
300.16251
300.13892
300.14441
300.1456
300.14864
300.15466
300.13011
300.12505
300.12255
300.12167
300.11771
300.0991
300.10212
300.10282
300.1049
300.10914
300.0912
300.08766
300.08593
300.08536
300.08291
300.06901
300.07113
300.07163
300.07308
300.076
300.06321
300.06076
300.05953
300.05909
300.05715
300.04709
300.04891
300.04931
300.05034
300.05235
300.04325
300.04157
300.04068
300.04031
300.03858
300.03144
300.03308
300.03343
300.03417
300.03554
300.02894
300.02781
300.02718
300.02687
300.02536
300.02027
300.02187
300.02218
300.02273
300.0237
300.02443
300.02611
300.02645
300.02708
300.02823
300.03459
300.03329
300.03258
300.03225
300.03069
300.03779
300.03948
300.03985
300.0407
300.0423
300.05117
300.04923
300.04823
300.04784
300.04611
300.05595
300.05784
300.05828
300.05947
300.0618
300.07427
300.07145
300.07004
300.06956
300.06751
300.0811
300.08351
300.08408
300.08576
300.08915
300.10656
300.10249
300.10048
300.0998
300.09688
300.11504
300.11891
300.11979
300.12221
300.12706
300.15073
300.14498
300.14206
300.14093
300.1356
300.15859
300.1663
300.16788
300.17144
300.17825
300.20941
300.20144
300.19709
300.19492
300.18369
300.21053
300.22694
300.23002
300.23534
300.24461
300.28302
300.27243
300.26596
300.26168
300.23819
300.26573
300.29877
300.30466
300.31251
300.32445
300.36702
300.35387
300.34448
300.33657
300.29148
300.31385
300.37385
300.38424
300.39533
300.40946
300.44898
300.43421
300.42135
300.40804
300.33066
300.3397
300.437
300.45359
300.46826
300.48309
300.50877
300.49422
300.47792
300.45794
300.34051
300.33293
300.46979
300.49292
300.51046
300.52365
300.52375
300.513
300.495
300.46911
300.31595
300.28774
300.45292
300.48042
300.49729
300.50232
300.45043
300.45407
300.44065
300.41321
300.24712
300.19486
300.34722
300.37152
300.37859
300.36241
300.24786
300.27398
300.27428
300.2558
300.13671
300.0827
300.16078
300.17211
300.16678
300.13973
300.09021
300.10047
300.10125
300.09199
300.03726
300.00218
300.07561
300.08849
300.09573
300.1014
300.14475
300.13036
300.11241
300.09024
299.96286
299.92856
300.09558
300.12587
300.15409
300.18702
300.29647
300.25515
300.21856
300.18014
299.97866
299.80071
300.06653
300.1116
300.15334
300.20047
300.3996
300.33259
300.27969
300.2253
299.90477
299.82051
300.13618
300.18028
300.21883
300.26058
300.41085
300.34319
300.28479
300.22203
299.81689
299.95104
300.20937
300.25395
300.29839
300.35396
300.25775
300.21919
300.1844
300.14834
299.92576
299.9614
300.11277
300.1362
300.15702
300.17994
300.10011
300.09445
300.08795
300.07605
299.99969
300.03582
300.08818
300.0963
300.09499
300.08504
300.13228
300.16183
300.16873
300.15858
300.07985
300.13299
300.26413
300.28165
300.27869
300.24723
300.37753
300.39668
300.39033
300.36519
300.18979
300.24104
300.43764
300.46606
300.47928
300.47328
300.53242
300.52489
300.50636
300.47707
300.2809
300.30973
300.49176
300.51866
300.53712
300.54686
300.54632
300.53264
300.51404
300.48966
300.32713
300.33543
300.47529
300.49619
300.51343
300.52916
300.50069
300.48455
300.46885
300.45132
300.33517
300.32714
300.42012
300.43413
300.44776
300.46345
300.42176
300.40665
300.39479
300.38376
300.31131
300.2897
300.34476
300.3532
300.36324
300.37726
300.33288
300.32013
300.3117
300.30535
300.2644
300.23731
300.26705
300.27174
300.27874
300.29007
300.25031
300.24042
300.23467
300.23126
300.20991
300.1833
300.19843
300.20094
300.20568
300.21421
300.18213
300.17487
300.17099
300.16916
300.15829
300.13541
300.14329
300.14467
300.14788
300.15403
300.12976
300.12458
300.12193
300.12087
300.1149
300.0968
300.10145
300.10231
300.10452
300.10885
300.09109
300.08745
300.08561
300.08489
300.08101
300.06747
300.07078
300.0714
300.07294
300.07594
300.06324
300.06072
300.05941
300.05887
300.05589
300.04606
300.04875
300.04923
300.05032
300.05236
300.04337
300.04164
300.0407
300.04025
300.03773
300.03064
300.03292
300.03331
300.03407
300.03542
300.02907
300.02781
300.02711
300.02672
300.0244
300.02434
300.02656
300.02694
300.0276
300.02878
300.03514
300.03379
300.03304
300.03267
300.03053
300.03761
300.04
300.04043
300.04134
300.04299
300.05202
300.04999
300.04892
300.04846
300.04589
300.05573
300.05857
300.0591
300.06037
300.0628
300.07541
300.07248
300.07097
300.07039
300.06725
300.08078
300.08445
300.08514
300.08693
300.09045
300.10803
300.10382
300.10168
300.10087
300.09647
300.11453
300.12013
300.12115
300.12372
300.12875
300.15276
300.1468
300.1437
300.1424
300.13494
300.15774
300.16803
300.16978
300.17354
300.1806
300.21218
300.20393
300.19936
300.19699
300.18256
300.20901
300.22939
300.23267
300.23824
300.24783
300.28689
300.27593
300.26918
300.26469
300.23616
300.2631
300.30244
300.30854
300.31668
300.32903
300.37261
300.35901
300.34931
300.34119
300.28813
300.30966
300.37954
300.39014
300.40154
300.41613
300.45706
300.44179
300.4286
300.41506
300.32537
300.33349
300.44566
300.46245
300.47747
300.49294
300.52135
300.50589
300.48911
300.46883
300.33354
300.32553
300.48333
300.50677
300.52469
300.53822
300.54031
300.5299
300.51162
300.48526
300.30802
300.27984
300.47184
300.50012
300.5179
300.52485
300.47043
300.47483
300.46125
300.43304
300.24019
300.18986
300.36285
300.38718
300.39313
300.37415
300.24787
300.27778
300.28015
300.26251
300.13334
300.08125
300.15769
300.16717
300.15938
300.12821
300.0772
300.08833
300.09066
300.08348
300.0365
300.0012
300.0672
300.07721
300.08141
300.08324
300.16725
300.14394
300.12454
300.10296
299.96371
299.93241
300.15224
300.18767
300.22226
300.25919
300.32985
300.27545
300.2342
300.19258
299.95347
299.83707
300.30092
300.37235
300.43978
300.51563
300.19149
300.16212
300.12916
300.0925
299.83348
299.86112
300.19768
300.24233
300.28539
300.34748
299.9685
299.93037