/*--------------------------------*- C++ -*----------------------------------*\
  =========                 |
  \\      /  F ield         | OpenFOAM: The Open Source CFD Toolbox
   \\    /   O peration     | Website:  https://openfoam.org
    \\  /    A nd           | Version:  7
     \\/     M anipulation  |
\*---------------------------------------------------------------------------*/
FoamFile
{
    version     2.0;
    format      ascii;
    class       volScalarField;
    location    "260";
    object      alphat;
}
// * * * * * * * * * * * * * * * * * * * * * * * * * * * * * * * * * * * * * //

dimensions      [1 -1 -1 0 0 0 0];

internalField   nonuniform List<scalar> 
24789
(
0.0014376467
0.0074900614
0.018216547
0.031274988
0.40915717
0.4105555
0.031401684
0.018292764
0.0075204616
0.0014396638
0.0014418588
0.0075537693
0.018375838
0.031538399
0.41206727
0.41369083
0.031682373
0.018462341
0.0075882477
0.0014441374
0.0014465869
0.0076253182
0.018554712
0.031834595
0.41540788
0.41723563
0.031994327
0.018650804
0.007663711
0.0014491313
0.0014518522
0.0077046997
0.018752722
0.032162282
0.41916282
0.42120733
0.032338563
0.01885893
0.0077472571
0.0014546865
0.0014577076
0.0077924836
0.018971173
0.032523597
0.42336245
0.42564349
0.032717235
0.01908801
0.0078394502
0.0014608592
0.0014642079
0.0078891652
0.019211145
0.032920275
0.42804076
0.43057245
0.033132221
0.019339152
0.0079407547
0.0014677064
0.0014714202
0.0079951224
0.019473639
0.033354153
0.43323259
0.43603724
0.033585315
0.019613208
0.0080514502
0.0014753103
0.0014794429
0.0081105274
0.019759282
0.033826748
0.43898542
0.44209627
0.034078172
0.019910837
0.0081716902
0.0014837944
0.0014884329
0.0082356184
0.020069141
0.034340641
0.44537474
0.44884434
0.034614183
0.020233449
0.0083017824
0.0014933512
0.0014986224
0.0083708226
0.020404956
0.034899862
0.45251726
0.45642226
0.035198292
0.020583299
0.0084423547
0.0015042528
0.001510314
0.0085168465
0.020769379
0.035510305
0.46057932
0.46502502
0.035836708
0.020962964
0.0085939614
0.0015168298
0.0015238826
0.0086740264
0.021164824
0.036178425
0.46979164
0.47493373
0.03653607
0.02137456
0.0087565964
0.0015315192
0.0015398511
0.0088417153
0.021592617
0.036910577
0.48051174
0.48661755
0.037301987
0.021818092
0.0089286496
0.0015489749
0.0015590634
0.0090169962
0.022050409
0.037709968
0.49337001
0.50094339
0.038132452
0.02228731
0.009105497
0.0015703371
0.001583153
0.0091928792
0.022526693
0.038565882
0.50956785
0.5196231
0.039008849
0.022767963
0.0092783507
0.0015980809
0.0016172139
0.0093711369
0.023021786
0.039486371
0.53185418
0.54741103
0.040125127
0.02335497
0.0094940925
0.0016442852
0.0016768277
0.0096300635
0.023909344
0.041180323
0.56804418
0.60417752
0.043731612
0.025507155
0.010309988
0.00173221
0.0017652187
0.010650046
0.02615003
0.044493241
0.62966254
0.65017974
0.047456828
0.027846445
0.011305853
0.0018007953
0.0017930901
0.011873216
0.029612209
0.050900729
0.65083745
0.69319752
0.043615708
0.026145485
0.010766037
0.0017568792
0.0017185974
0.010282124
0.025082375
0.042376045
0.68361031
0.65760276
0.038596654
0.022780049
0.0092871902
0.0016525467
0.0016042796
0.0088798456
0.0216799
0.036837527
0.63069235
0.6126079
0.036062321
0.021223186
0.0087309253
0.0015705368
0.0015452172
0.0086180968
0.020950755
0.035583462
0.59735222
0.58450375
0.035204222
0.020741504
0.0085354907
0.0015272319
0.0015130853
0.0084616487
0.020542077
0.034840642
0.57354896
0.5639199
0.034472116
0.020337877
0.0083864112
0.0015011036
0.0014905823
0.0083080346
0.020128803
0.034101116
0.55531852
0.54756144
0.033735271
0.019918944
0.0082279727
0.0014811433
0.0014725694
0.008147941
0.019711894
0.033378903
0.54049639
0.53401998
0.033036004
0.019510325
0.0080690369
0.0014647235
0.0014575245
0.0079921268
0.019315337
0.032706664
0.52804097
0.52250154
0.032392294
0.019127771
0.0079175629
0.0014508889
0.0014447716
0.0078456887
0.018947563
0.032091343
0.51734362
0.51252923
0.031804387
0.018774739
0.0077763903
0.0014391066
0.0014338632
0.0077098284
0.018608909
0.031529523
0.50801978
0.5037868
0.031267257
0.018449869
0.0076457059
0.0014289804
0.0014244376
0.0075841517
0.018297087
0.031015317
0.49979867
0.49604627
0.030775206
0.018150732
0.007524922
0.0014201791
0.0014161935
0.0074681461
0.018010066
0.030544008
0.49249368
0.48913916
0.030323781
0.017875393
0.0074135391
0.0014124295
0.001408886
0.0073613146
0.017746011
0.030111418
0.48595126
0.48293721
0.029909442
0.0176223
0.0073111485
0.0014055184
0.0014023372
0.0072633404
0.017503691
0.029714784
0.48007081
0.47736516
0.029530456
0.017390683
0.007217559
0.0013993049
0.0013964419
0.0071740933
0.017282545
0.029352804
0.4747984
0.47236869
0.029184966
0.017179637
0.0071324911
0.0013937071
0.0013911312
0.0070931414
0.017081388
0.029023287
0.47007765
0.46791249
0.028870961
0.016987984
0.0070554575
0.0013886662
0.0013863502
0.0070199494
0.016898992
0.028724237
0.46586104
0.46393225
0.028586561
0.016814549
0.0069859379
0.0013841324
0.0013820563
0.0069540172
0.016734244
0.028453856
0.4621052
0.46041762
0.028330975
0.016658687
0.0069235742
0.0013800737
0.0013782286
0.0068954102
0.016587669
0.028213507
0.45884583
0.46064489
0.028339315
0.01666311
0.0069252591
0.0013801481
0.0013821191
0.0069553515
0.016737824
0.028460561
0.46227525
0.46407386
0.028591062
0.016817027
0.0069869861
0.0013841833
0.0013864078
0.0070211361
0.016902053
0.028729807
0.46599912
0.46805256
0.028875525
0.016990542
0.007056546
0.0013887199
0.0013911945
0.0070944197
0.017084655
0.029029156
0.47022708
0.47253052
0.029189964
0.017182523
0.0071337214
0.0013937724
0.0013965229
0.0071756121
0.017286366
0.029359489
0.47496525
0.47754509
0.029536715
0.017394368
0.0072191112
0.0013993916
0.001402443
0.00726523
0.017508432
0.029722953
0.48027193
0.48315738
0.029917654
0.017627141
0.0073131433
0.0014056333
0.001409022
0.0073636355
0.017751838
0.030121372
0.48620149
0.48942009
0.030334059
0.017881524
0.0074160566
0.0014125815
0.0014163738
0.0074711241
0.018017541
0.030556653
0.49281399
0.49640588
0.030788699
0.018158805
0.0075282029
0.001420382
0.001424672
0.007587959
0.018306604
0.0310313
0.5002071
0.50424148
0.031284373
0.018460165
0.0076498898
0.0014292399
0.0014341537
0.0077145903
0.018620684
0.031549109
0.5085274
0.51309599
0.031825758
0.018787663
0.0077816849
0.0014394225
0.0014451145
0.0078516862
0.018962147
0.032115349
0.51797471
0.52320205
0.03241854
0.019143839
0.0079242548
0.0014512491
0.0014578995
0.0079996774
0.019333409
0.032736053
0.52881677
0.53487081
0.033068025
0.019530175
0.0080774091
0.001465102
0.0014729454
0.0081572441
0.019733917
0.033414287
0.54142359
0.54855595
0.033772938
0.019942541
0.0082380189
0.0014814997
0.0014909056
0.0083186806
0.020153617
0.034140538
0.55636811
0.56499805
0.034510337
0.020362241
0.0083971985
0.001501366
0.0015132713
0.0084718997
0.020563411
0.03487331
0.57461421
0.58547669
0.035222733
0.020754867
0.00854379
0.0015273495
0.0015453038
0.008622717
0.020948945
0.035576419
0.59811389
0.61312763
0.0360273
0.021199131
0.0087290767
0.0015708471
0.0016072153
0.0089103227
0.021694665
0.036878566
0.63149239
0.65810745
0.038750397
0.022832408
0.0092817719
0.0016529689
0.0017218317
0.010375029
0.025352553
0.043182672
0.68751701
0.69466985
0.040877099
0.024710514
0.010245768
0.0017155615
0.0017737985
0.011732174
0.0292851
0.050208956
0.65141296
0.65835774
0.046859154
0.027176751
0.010987896
0.0017583579
0.0017912813
0.011350224
0.028276381
0.048966717
0.63343912
0.6008713
0.043596627
0.025519748
0.010283991
0.0017292074
0.001679327
0.0097377891
0.023920155
0.040931937
0.57041195
0.55017687
0.039637657
0.023176685
0.0094753072
0.0016386313
0.0016086189
0.0093073702
0.022769669
0.038920539
0.53445525
0.52181242
0.038397421
0.022471936
0.0091895294
0.0015878527
0.0015719493
0.0090910051
0.022212193
0.037935959
0.51135092
0.50236076
0.037493636
0.02196326
0.0089971422
0.0015587708
0.0015474052
0.0089042326
0.021719073
0.037063738
0.49447009
0.48744261
0.036649072
0.0214806
0.0088123736
0.0015373158
0.0015282097
0.0087224437
0.021249546
0.036251133
0.48109717
0.47531676
0.03587195
0.021027235
0.0086349414
0.0015199003
0.0015122778
0.0085503886
0.020813828
0.035510121
0.47000029
0.465087
0.035166213
0.020609622
0.0084689062
0.0015052426
0.0014987408
0.0083907243
0.020414223
0.034838129
0.46051945
0.45626088
0.03452603
0.020227375
0.0083155995
0.0014926995
0.0014870889
0.0082436558
0.020048487
0.034227582
0.45227108
0.44852846
0.03394325
0.019877274
0.0081745217
0.0014818467
0.001476953
0.0081083039
0.019713074
0.033670509
0.44500159
0.44167526
0.033410297
0.019555728
0.00804461
0.0014723491
0.0014680279
0.007983633
0.019404683
0.033160112
0.43852725
0.43554778
0.0329214
0.019259919
0.0079249704
0.0014639366
0.0014600797
0.007868909
0.019120994
0.03269162
0.4327189
0.43003956
0.03247275
0.01898803
0.0078150369
0.0014564094
0.0014529429
0.0077637134
0.018860599
0.03226198
0.42749083
0.42507871
0.032061845
0.018738925
0.0077144809
0.0014496347
0.0014465108
0.0076677359
0.01862251
0.031869081
0.4227832
0.42062926
0.03168746
0.018511978
0.007623063
0.0014435317
0.001440725
0.0075807606
0.018406246
0.031512096
0.41857754
0.41664675
0.031346941
0.018305763
0.0075402411
0.0014380413
0.0014355226
0.0075020824
0.018210079
0.031188029
0.41481627
0.41310225
0.031039193
0.018119455
0.0074655775
0.0014331145
0.0014308709
0.0074314812
0.01803375
0.030896743
0.41149836
0.41004747
0.030767839
0.017954738
0.0073995019
0.0014287515
0.0014398217
0.0075229884
0.018299203
0.031412301
0.41069837
0.41216781
0.031544904
0.018379076
0.0075548937
0.0014419308
0.0014442327
0.007589831
0.018466088
0.031688027
0.41377139
0.41549753
0.031839467
0.018557189
0.0076262077
0.0014466376
0.0014492243
0.007665301
0.018654518
0.031999882
0.41732352
0.41926523
0.03216798
0.018755786
0.0077058455
0.0014519177
0.0014547973
0.0077491247
0.018863333
0.032345284
0.42131483
0.42348605
0.032530903
0.018975247
0.0077940404
0.0014577982
0.0014609921
0.0078416696
0.019093316
0.032725556
0.42577805
0.42820192
0.032929275
0.019216286
0.0078911686
0.0014643279
0.0014678692
0.0079434324
0.019345644
0.03314266
0.43075079
0.43344193
0.033365474
0.019480162
0.00799768
0.0014715756
0.0014755096
0.0080546772
0.019621069
0.033598116
0.43627283
0.43926093
0.03384102
0.019767577
0.0081138014
0.0014796458
0.0014840463
0.0081756978
0.019920666
0.034094389
0.44241134
0.44574236
0.034358752
0.020079749
0.0082398392
0.0014887003
0.0014936774
0.0083068912
0.020245966
0.034634915
0.44926756
0.45301115
0.034923427
0.020418883
0.0083764241
0.0014989783
0.0015046767
0.0084490384
0.020599629
0.035225367
0.45699351
0.4612465
0.035541286
0.020787847
0.0085243594
0.0015107862
0.0015173869
0.0086028766
0.020984586
0.035872412
0.46580062
0.47070131
0.036219584
0.021189643
0.008684257
0.0015245143
0.0015322674
0.0087688055
0.02140386
0.036584046
0.47599946
0.4817692
0.036966664
0.021626933
0.0088560817
0.0015407229
0.0015500275
0.0089460871
0.02185919
0.037368223
0.48810332
0.49513425
0.037788887
0.022099836
0.0090382078
0.0015603395
0.0015719464
0.0091321202
0.022348163
0.038227762
0.50304136
0.51206949
0.038683636
0.022603334
0.0092271097
0.0015852498
0.0016009648
0.009324781
0.022869602
0.039160835
0.52260622
0.5353972
0.039694201
0.023165565
0.0094382948
0.0016212602
0.0016499768
0.0095973305
0.023569086
0.040423299
0.55150031
0.57230935
0.041628132
0.024231353
0.0097861825
0.0016855478
0.0017397873
0.010454425
0.025904079
0.044401078
0.60660662
0.63343831
0.046425414
0.027137804
0.01101133
0.0017862688
0.0018003718
0.011370946
0.027984388
0.047686726
0.6535891
0.65639798
0.051455428
0.029916722
0.011974577
0.0017991328
0.50828141
0.063108302
0.035491124
0.013920457
0.0020005598
0.0018789541
0.012320239
0.030583142
0.053105524
0.64368531
0.73450733
0.044063105
0.026414963
0.010931466
0.0017839939
0.0017576969
0.010876298
0.026639106
0.04555861
0.67619544
0.66304994
0.048059832
0.027756616
0.01118811
0.0017722595
0.0017689365
0.011031884
0.027416369
0.047170627
0.63519251
0.59941586
0.042933416
0.025104756
0.010138772
0.0017171812
0.0016694067
0.0096130214
0.023626456
0.040506755
0.56754281
0.54748672
0.039387928
0.023004373
0.0094016554
0.0016322893
0.0016045635
0.0092607172
0.022656729
0.038754299
0.53213898
0.51989683
0.038278942
0.022393331
0.0091575736
0.0015851447
0.0015700677
0.0090682251
0.022155742
0.037848919
0.50980295
0.50112332
0.037428376
0.021921665
0.0089805092
0.0015574314
0.0015464305
0.0088918257
0.021687858
0.037014083
0.49348298
0.4866555
0.036610901
0.021456878
0.0088029765
0.001536592
0.0015276596
0.0087151561
0.021231189
0.036221387
0.48046768
0.47480816
0.035848193
0.021012665
0.0086291484
0.0015194706
0.001511938
0.0085457746
0.020802246
0.035491144
0.46958808
0.46475223
0.03515083
0.020600283
0.0084651806
0.0015049704
0.0014985224
0.0083877129
0.020406679
0.034825656
0.46024593
0.45603723
0.034515857
0.020221256
0.0083131625
0.0014925244
0.0014869485
0.0082416838
0.020043546
0.034219347
0.45208934
0.44837989
0.033936478
0.019873225
0.0081729045
0.0014817327
0.00147686
0.008106968
0.019709734
0.033664903
0.44487934
0.44157353
0.033405643
0.019552949
0.0080434944
0.0014722736
0.0014679667
0.0079827004
0.019402363
0.033156226
0.4384441
0.43547944
0.032918139
0.019257954
0.007924174
0.0014638858
0.0014600373
0.0078682228
0.019119302
0.032688789
0.43266026
0.42999305
0.032470484
0.018986648
0.0078144677
0.0014563746
0.0014529143
0.0077632445
0.018859457
0.032260086
0.42745266
0.4250506
0.032060336
0.01873799
0.0077140891
0.0014496113
0.0014464938
0.0076674422
0.018621836
0.031868029
0.42276476
0.42060755
0.031685833
0.018511032
0.0076226964
0.0014435124
0.0014407065
0.0075804285
0.018405434
0.031510779
0.41855822
0.41663046
0.031345573
0.01830493
0.0075399073
0.001438022
0.0014355038
0.0075017869
0.018209363
0.03118688
0.41480222
0.41309361
0.031037908
0.01811867
0.0074652651
0.0014330936
0.0014308487
0.007431197
0.018033053
0.03089562
0.41148888
0.41004934
0.030766675
0.017954001
0.0073991991
0.0014287251
0.0013801517
0.0069248873
0.016661727
0.028335869
0.46056208
0.46222046
0.028457595
0.016735654
0.0069544265
0.001382079
0.0013841711
0.0069866645
0.016816003
0.028588675
0.46401664
0.46594104
0.028726353
0.01689959
0.0070200758
0.0013863495
0.001388692
0.0070560192
0.016989037
0.028872409
0.46798073
0.47014896
0.02902519
0.017081936
0.0070932608
0.0013911281
0.0013937319
0.0071330276
0.01718065
0.029186353
0.47244019
0.47486844
0.029354888
0.017283287
0.0071742991
0.0013964443
0.0013993316
0.007218133
0.017391816
0.029532056
0.47743055
0.48014211
0.029717341
0.017504742
0.0072636568
0.0014023452
0.0014055449
0.0073117168
0.017623475
0.029911163
0.48300012
0.48601809
0.030113914
0.017747098
0.0073616503
0.0014088969
0.0014124584
0.0074141229
0.017876653
0.030325686
0.48920216
0.49256055
0.030546541
0.018011258
0.0074685336
0.001416208
0.0014202086
0.0075255295
0.018152118
0.030777344
0.49610399
0.4998531
0.031017891
0.018298326
0.0075845428
0.0014244503
0.0014289987
0.0076461545
0.018450973
0.031269033
0.50382136
0.50803387
0.031531012
0.018609472
0.0077099231
0.0014338561
0.0014390888
0.007776334
0.018774709
0.031804452
0.51251326
0.51729124
0.032090382
0.018946561
0.007845109
0.0014447156
0.001450805
0.0079165822
0.019125659
0.032389224
0.5224007
0.52788346
0.032701668
0.019311656
0.0079903508
0.0014573853
0.0014645339
0.0080664213
0.01950463
0.033027685
0.53378773
0.54017771
0.033366916
0.019703417
0.0081439802
0.0014723003
0.0014807851
0.0082222437
0.019906456
0.033717263
0.54713241
0.55476289
0.034075253
0.020110516
0.0082995965
0.0014900992
0.0015004794
0.0083744384
0.020311619
0.034434932
0.56322057
0.57271203
0.034788619
0.020504818
0.008444776
0.0015122833
0.0015262293
0.0085122453
0.02068954
0.03513212
0.58355966
0.59640763
0.035484857
0.020878413
0.0085859459
0.0015439227
0.0015689153
0.0086880474
0.021123931
0.035932716
0.61198372
0.63109841
0.036680359
0.021554291
0.0088351794
0.0016025005
0.0016499083
0.0092085265
0.02256469
0.038261313
0.65895438
0.68641246
0.041327119
0.024598944
0.010132644
0.0017142544
0.0017596938
0.010824387
0.026250226
0.043688551
0.69665306
0.65349299
0.053037245
0.030659991
0.012302303
0.0018302619
0.001820711
0.011539413
0.028476238
0.048592615
0.65204932
0.62965116
0.043672896
0.025769187
0.010519803
0.0017632643
0.0017421106
0.010447341
0.025879079
0.044535224
0.60456465
0.56853013
0.041418423
0.024054501
0.0096820256
0.0016819437
0.0016478404
0.0095306909
0.023432504
0.040229335
0.54783722
0.53193607
0.03951373
0.023045106
0.0093833978
0.0016191189
0.0015989819
0.0092805141
0.022770968
0.039009172
0.5195246
0.50939958
0.038558668
0.022523135
0.0091916576
0.0015835419
0.0015704726
0.009103237
0.022282145
0.038123715
0.5007562
0.49319091
0.037701888
0.022045182
0.0090145079
0.001559067
0.0015489282
0.0089264876
0.021813513
0.037294788
0.48645563
0.48037461
0.036904785
0.021588741
0.0088398282
0.0015397758
0.0015314485
0.0087551874
0.021371525
0.036531237
0.47481924
0.46970188
0.036174922
0.021162446
0.0086728611
0.0015238097
0.0015167778
0.0085932265
0.020961296
0.035833869
0.46495405
0.46052861
0.035508747
0.02076825
0.0085162541
0.0015102651
0.0015042271
0.0084421042
0.020582661
0.035196963
0.45638518
0.45249432
0.034899619
0.020404663
0.0083705953
0.001498597
0.0014933473
0.0083018371
0.020233486
0.034613834
0.44882701
0.44536512
0.034340926
0.020069201
0.0082355429
0.001488419
0.0014838
0.008171875
0.019911137
0.034078131
0.44208643
0.43897965
0.033827219
0.01975947
0.0081105058
0.0014794345
0.0014753214
0.0080516795
0.019613574
0.033585266
0.43602771
0.43322633
0.03335463
0.019473812
0.0079950804
0.0014714122
0.0014677189
0.0079410037
0.019339543
0.033132109
0.43056079
0.42803171
0.032920701
0.019211268
0.0078890892
0.0014641977
0.001460871
0.0078396843
0.019088315
0.032716838
0.42562655
0.4233473
0.032524139
0.018971307
0.0077923865
0.0014576963
0.0014547006
0.0077474962
0.018859195
0.032337948
0.42118766
0.41914594
0.032163035
0.018752916
0.0077045979
0.0014518407
0.0014491489
0.0076639998
0.01865116
0.031993728
0.41721292
0.41538866
0.031835402
0.018554917
0.0076252067
0.001446577
0.0014441661
0.007588663
0.018462991
0.03168215
0.41366556
0.41204793
0.031539484
0.018376208
0.0075537219
0.001441862
0.0014397188
0.0075211788
0.018294232
0.031402788
0.41053942
0.41066708
0.03140979
0.018297269
0.0075220769
0.0014397302
0.0014419065
0.0075547732
0.018378339
0.031542541
0.41213213
0.41374589
0.031687237
0.018465233
0.0075893728
0.001444193
0.0014466432
0.0076263601
0.018557223
0.031838644
0.41547182
0.41730645
0.031999435
0.01865392
0.0076649656
0.0014491997
0.0014519273
0.0077060083
0.01875588
0.032167379
0.41924471
0.42130133
0.03234493
0.018862816
0.0077488286
0.0014547771
0.0014578071
0.0077941619
0.01897522
0.032530147
0.42347006
0.42576672
0.032725456
0.019092972
0.0078414459
0.0014609758
0.0014643351
0.0078912809
0.019216302
0.032928739
0.42818743
0.43074163
0.033142502
0.019345304
0.0079432272
0.0014678538
0.0014715807
0.0079977565
0.019480079
0.033364839
0.43343049
0.43626512
0.033597892
0.019620723
0.0080544907
0.001475494
0.0014796457
0.0081138584
0.019767418
0.033840319
0.43925126
0.4424043
0.034093983
0.019920274
0.00817554
0.0014840256
0.0014886901
0.0082399351
0.020079583
0.034358036
0.4457313
0.44925502
0.034634192
0.020245486
0.0083067852
0.0014936415
0.0014989401
0.0083765216
0.02041848
0.034922219
0.4529896
0.45696182
0.035223678
0.020598732
0.0084489349
0.0015045985
0.0015106805
0.0085243618
0.020786698
0.035538561
0.46119386
0.46572114
0.035868467
0.020982598
0.0086026141
0.0015172133
0.0015242721
0.0086839371
0.021186844
0.036213633
0.47057962
0.47582259
0.036575475
0.021399498
0.008768033
0.0015319076
0.001540224
0.0088548432
0.021620512
0.036953938
0.48151178
0.48773772
0.037349653
0.021849372
0.0089438158
0.001549324
0.0015593838
0.0090344787
0.022084983
0.037761145
0.49461972
0.50233442
0.038187078
0.022325748
0.0091260287
0.0015706679
0.0015836384
0.0092181871
0.022570777
0.038625166
0.51112267
0.52138073
0.039081063
0.022824728
0.0093135324
0.0015990761
0.0016190363
0.0094249935
0.023108993
0.039592107
0.5338706
0.54971305
0.040295109
0.023496785
0.0095822081
0.0016476934
0.0016852605
0.0098026425
0.02416778
0.041511686
0.57059261
0.60453698
0.044197194
0.025798105
0.010409672
0.0017351761
0.0017878322
0.011092741
0.02734598
0.046999339
0.63391111
0.65188391
0.046058204
0.027122606
0.011071756
0.0017721505
1.5354882
2.670433
1.9430626
0.69862635
0.043773283
0.026247912
0.010798175
0.001761631
0.0017900657
0.011368872
0.028288401
0.049090691
0.66064377
0.0019620669
0.01348419
0.034251834
0.060689304
0.50476495
0.4373595
0.057224039
0.032292229
0.012719724
0.0018845393
0.0018895472
0.012661038
0.032225169
0.057189431
0.43503438
0.58011062
0.054849676
0.031225309
0.012453565
0.0018596149
1.0521772
1.2627983
2.4566933
1.957446
8.1709859
8.2625085
8.2335895
8.1709418
8.1254329
8.1802906
8.1861125
8.1351987
0.0014287514
0.007399611
0.017954575
0.0307672
0.41003563
0.41149232
0.030896764
0.018032941
0.0074309994
0.0014308297
0.0014331031
0.0074655887
0.018119099
0.031038292
0.41308988
0.41480982
0.031187264
0.018208926
0.0075014883
0.0014354722
0.0014380206
0.0075401166
0.018305092
0.031345508
0.41662651
0.41855658
0.031510826
0.018404888
0.0075800993
0.0014406697
0.0014435012
0.0076227713
0.018510893
0.031685293
0.42059505
0.42275472
0.031867402
0.018620993
0.0076670217
0.0014464518
0.0014495958
0.0077140796
0.018737637
0.032059402
0.42502956
0.42743423
0.032259406
0.018858674
0.0077628626
0.0014528748
0.0014563586
0.0078144494
0.018986274
0.032469493
0.42996421
0.43263225
0.032688096
0.019118598
0.0078678912
0.0014599996
0.0014638666
0.0079241266
0.019257514
0.032917015
0.43543985
0.43840091
0.033155248
0.019401581
0.0079823596
0.0014679278
0.0014722503
0.0080433682
0.019552294
0.033404156
0.44152224
0.44482366
0.033663523
0.019708758
0.0081065723
0.00147682
0.0014817077
0.0081726813
0.019872319
0.03393459
0.44831844
0.45202907
0.034217584
0.020042414
0.0082412625
0.0014869131
0.0014925094
0.0083129686
0.020220378
0.03451401
0.45597742
0.46019473
0.034824166
0.020405777
0.0083874402
0.001498508
0.0015049848
0.0084652107
0.020599792
0.035149536
0.46471194
0.46957343
0.03549076
0.020802154
0.0085459519
0.0015119698
0.0015195486
0.0086299108
0.021013574
0.035848939
0.47482688
0.48054207
0.036224135
0.02123328
0.0087164803
0.0015277796
0.0015367884
0.0088054038
0.021460968
0.036616216
0.48680639
0.49374928
0.037023919
0.021694946
0.0088957332
0.0015467212
0.0015578816
0.0089870138
0.021934086
0.037445772
0.50155314
0.51047105
0.037880467
0.022177485
0.0090787716
0.001570736
0.001586156
0.0091754787
0.02243267
0.038337952
0.52091064
0.5336832
0.038870035
0.022729654
0.0092910382
0.0016061447
0.0016344607
0.0094533099
0.023151911
0.039626332
0.54982931
0.57086792
0.040911054
0.023862665
0.0096620281
0.001669202
0.0017230731
0.010392846
0.025643026
0.043882493
0.6052612
0.63104895
0.044908618
0.026332038
0.010676545
0.0017427193
0.001784184
0.011319161
0.028191856
0.048931861
0.6563952
0.044552342
0.026669974
0.011064621
0.0017912324
0.0017577564
0.010479924
0.025100243
0.041704383
0.71767657
0.62141552
0.047588118
0.027553622
0.011153013
0.0018148933
0.0018590973
0.012357296
0.031031224
0.054882092
0.57452688
0.67008683
0.046461665
0.027019296
0.011037638
0.0017655248
0.0017841019
0.01131857
0.028190394
0.04892942
0.65652032
0.63111921
0.044907354
0.026330934
0.010676097
0.001742685
0.0017230346
0.010392229
0.025641413
0.043880065
0.60529698
0.57088644
0.040907814
0.023860784
0.0096613509
0.0016691579
0.001634411
0.0094526449
0.023150064
0.039623106
0.54983809
0.53368747
0.038867201
0.022727992
0.0092904227
0.0016061016
0.0015861153
0.0091748032
0.02243093
0.038335031
0.52091424
0.5104758
0.037878084
0.022176031
0.0090781744
0.0015707053
0.0015578598
0.0089864641
0.021932731
0.037443521
0.50156061
0.49375803
0.037022217
0.021693884
0.00889527
0.0015467116
0.0015367859
0.0088049438
0.021459879
0.036614422
0.4868164
0.48055166
0.036222728
0.021232383
0.008716066
0.0015277847
0.0015195567
0.0086294513
0.02101252
0.035847241
0.47483586
0.46957876
0.035489378
0.020801229
0.008545505
0.0015119821
0.0015049951
0.0084646723
0.020598556
0.035147558
0.46471296
0.46018922
0.034822228
0.02040452
0.0083868588
0.0014985163
0.0014925111
0.0083122685
0.020218724
0.034511323
0.4559647
0.45200959
0.034215331
0.020040954
0.0082405902
0.0014869141
0.0014817018
0.008171911
0.019870485
0.03393158
0.44829404
0.44479501
0.033661052
0.019707185
0.0081058542
0.0014768142
0.001472238
0.0080425727
0.019550381
0.033400965
0.44149004
0.43836468
0.033153054
0.01940018
0.0079817099
0.0014679196
0.0014638557
0.0079234316
0.019255806
0.032914069
0.43540275
0.4325925
0.03268612
0.019117412
0.007867345
0.0014599943
0.0014563492
0.007813809
0.018984624
0.032466475
0.42992065
0.4273905
0.032257703
0.018857686
0.007762391
0.0014528721
0.0014495896
0.0077135156
0.018736156
0.032056587
0.42498359
0.42271177
0.031866376
0.018620411
0.0076666957
0.0014464564
0.0014435032
0.0076223443
0.018509751
0.03168298
0.42055357
0.4185138
0.031509632
0.018404297
0.0075797882
0.001440677
0.0014380204
0.0075396588
0.018303837
0.031342894
0.41657953
0.41475957
0.031186001
0.018208343
0.0075011808
0.0014354775
0.0014330963
0.0074650488
0.018117578
0.031035086
0.41303532
0.41142248
0.030894194
0.018031717
0.0074304703
0.0014308186
0.0014286956
0.0073981125
0.017950126
0.030758214
0.40989625
0.40850554
0.030634388
0.017874389
0.0073675542
0.0014266714
0.41061474
0.031405843
0.018295004
0.0075212771
0.0014396962
0.0014418662
0.0075541187
0.018376811
0.031540275
0.41209417
0.41370646
0.031683166
0.018462787
0.0075884307
0.0014441312
0.001446578
0.007625506
0.018555207
0.031835494
0.41542104
0.41724887
0.03199494
0.018651201
0.0076638857
0.0014491216
0.0014518467
0.00770497
0.018753424
0.032163481
0.41917805
0.42122329
0.032339615
0.018859604
0.0077475371
0.0014546828
0.0014577081
0.0077928606
0.018972126
0.032525152
0.42337781
0.42565542
0.032718806
0.019089008
0.0078398519
0.0014608602
0.0014642104
0.0078895894
0.019212206
0.032921932
0.42805127
0.43058015
0.033134003
0.019340297
0.0079412183
0.0014677096
0.0014714211
0.007995592
0.019474768
0.033355857
0.43323835
0.43604165
0.033587085
0.019614382
0.008051937
0.0014753091
0.0014794362
0.0081110059
0.019760434
0.033828472
0.43898441
0.44208539
0.034079566
0.019911806
0.0081721
0.0014837784
0.0014884065
0.0082359475
0.0200699
0.034341672
0.44535154
0.44880387
0.034614495
0.020233809
0.0083019627
0.0014933099
0.0014985633
0.008370815
0.020404886
0.0348995
0.45245642
0.45633587
0.035196823
0.020582564
0.0084420775
0.0015041723
0.0015102122
0.0085162691
0.020767965
0.035507773
0.46046458
0.46487727
0.035832732
0.020960665
0.0085930013
0.0015167066
0.0015237398
0.0086726483
0.021161611
0.036173033
0.46960915
0.47471412
0.036529108
0.021370324
0.008754734
0.0015313627
0.0015396939
0.008839362
0.02158733
0.036901967
0.48025481
0.4863258
0.037291829
0.021811828
0.008925837
0.0015488377
0.0015589843
0.00901386
0.022043379
0.037698458
0.4930487
0.50060509
0.038120309
0.022280215
0.0091024686
0.0015703891
0.0015834741
0.0091909937
0.02252134
0.038555234
0.50923781
0.51935367
0.039006094
0.022769331
0.0092798773
0.0015989199
0.0016190714
0.0093829378
0.023043757
0.039510844
0.53174964
0.54762858
0.040226633
0.023431223
0.0095302555
0.0016477927
0.0016819063
0.0096816331
0.024053347
0.041415853
0.56828373
0.60426817
0.044534456
0.025879017
0.01044742
0.0017420702
0.0017632074
0.010519659
0.025768147
0.043669963
0.62928958
0.65161169
0.048585944
0.028473187
0.011537906
0.0018207376
0.0018305472
0.012295706
0.030663344
0.053050962
0.65299958
0.69610982
0.04369643
0.026254394
0.010825598
0.0017598097
0.0017721281
0.011192373
0.027764921
0.048074576
0.66246153
0.65783427
0.04683011
0.027160924
0.010982464
0.0017577601
0.0017154696
0.010241281
0.024703632
0.040866985
0.694034
0.65136384
0.046045857
0.027116151
0.011067463
0.0017721075
0.0018002066
0.011362694
0.027971585
0.047665534
0.65317834
0.69821395
0.043756175
0.026237304
0.010791417
0.0017615238
0.0017897866
0.011361114
0.028274787
0.049069955
0.66044111
0.6335755
0.044161098
0.025936077
0.010523748
0.0017379227
0.0017185035
0.010319362
0.025479737
0.043651912
0.60752684
0.57289774
0.040915996
0.023849094
0.0096497866
0.0016675077
0.0016336122
0.0094445153
0.023143833
0.039634346
0.55107609
0.5345147
0.038873681
0.022724261
0.0092859679
0.0016056852
0.0015859219
0.009173212
0.022430557
0.038341446
0.52152382
0.51095855
0.037885401
0.022178021
0.0090783282
0.0015706391
0.0015578712
0.0089876728
0.021936416
0.037452006
0.50196515
0.49410902
0.037031498
0.021698608
0.0088970558
0.0015467729
0.0015368794
0.0088070309
0.021465165
0.036624107
0.48712591
0.480826
0.036232269
0.021237789
0.0087182408
0.0015278964
0.0015196756
0.0086315861
0.021017811
0.035856409
0.47507857
0.4697924
0.035497869
0.020806196
0.0085475157
0.0015121006
0.0015051083
0.0084665116
0.020603118
0.035155319
0.46490026
0.46035279
0.034829281
0.020408681
0.0083885322
0.001498622
0.0014926077
0.0083137642
0.020222459
0.034517647
0.45610815
0.45213441
0.034220873
0.020044238
0.008241908
0.0014870006
0.0014817783
0.0081730666
0.019873382
0.033936485
0.44840148
0.44488671
0.033665033
0.019709574
0.0081068253
0.001476879
0.0014722932
0.0080433926
0.019552424
0.033404419
0.44156556
0.43842871
0.033155507
0.019401671
0.0079823216
0.0014679628
0.0014638904
0.0079239394
0.019257072
0.032916221
0.43545254
0.43263508
0.032687811
0.019118424
0.0078677555
0.0014600223
0.0014563727
0.007814171
0.018985551
0.032468096
0.42995695
0.42741697
0.032259117
0.018858519
0.0077627242
0.0014528937
0.0014496092
0.0077138309
0.018736973
0.03205802
0.4250126
0.42273331
0.031867075
0.018620873
0.0076669023
0.00144647
0.0014435122
0.0076224966
0.018510134
0.031683643
0.42056909
0.41852986
0.031510154
0.018404617
0.0075799207
0.0014406835
0.001438025
0.0075397665
0.018304104
0.031343356
0.41658958
0.41477768
0.031186811
0.018208795
0.0075013486
0.0014354839
0.0014331034
0.0074652316
0.018118063
0.031035939
0.41305277
0.41143954
0.030894374
0.018031883