/*--------------------------------*- C++ -*----------------------------------*\
  =========                 |
  \\      /  F ield         | OpenFOAM: The Open Source CFD Toolbox
   \\    /   O peration     | Website:  https://openfoam.org
    \\  /    A nd           | Version:  7
     \\/     M anipulation  |
\*---------------------------------------------------------------------------*/
FoamFile
{
    version     2.0;
    format      ascii;
    class       volScalarField;
    location    "260";
    object      omega;
}
// * * * * * * * * * * * * * * * * * * * * * * * * * * * * * * * * * * * * * //

dimensions      [0 0 -1 0 0 0 0];

internalField   nonuniform List<scalar> 
24789
(
97954.267
30417.346
17157.79
12580.908
2072.0728
2077.973
12608.047
17190.341
30460.855
98088.092
98234.768
30507.68
17225.64
12637.881
2084.2711
2090.7963
12668.586
17262.561
30557.328
98387.362
98552.238
30610.236
17302.138
12701.826
2097.6073
2104.6394
12736.114
17343.498
30666.164
98723.841
98908.063
30725.627
17387.66
12772.984
2111.9712
2119.5423
12811.156
17433.879
30788.507
99100.302
99305.693
30855.264
17483.089
12852.002
2127.4204
2135.5548
12894.412
17534.644
30925.826
99520.292
99749.119
31000.726
17589.449
12939.648
2144.0085
2152.7454
12986.725
17646.922
31079.919
99988.605
100243.5
31164.012
17707.952
13036.814
2161.8212
2171.2065
13089.086
17772.067
31253.043
100511.04
100796.05
31347.756
17840.151
13144.624
2180.9458
2191.0112
13202.75
17911.848
31448.346
101096.91
101418.59
31555.691
17988.008
13264.436
2201.4351
2212.1819
13329.169
18068.418
31670.15
101760.59
102128.15
31792.661
18153.887
13397.826
2223.2664
2234.6498
13470.061
18244.369
31923.825
102521.96
102947.45
32064.842
18340.752
13546.737
2246.3375
2258.2834
13627.746
18443.239
32216.587
103406.38
103904.8
32380.528
18552.83
13713.996
2270.4708
2282.8178
13805.656
18670.066
32558.022
104446.29
105038.91
32751.22
18796.292
13903.841
2295.2358
2307.5351
14009.251
18932.708
32962.383
105689.46
106409.68
33195.284
19081.839
14123.895
2319.4619
2330.5655
14250.314
19247.244
33455.627
107214.68
108132.12
33750.41
19434.773
14393.301
2340.1081
2347.1151
14561.979
19656.804
34088.135
109192.08
110501.05
34554.211
19947.036
14771.326
2349.7817
2339.9061
14994.262
20294.043
35244.664
112405.92
115175.3
35763.467
20526.052
15116.103
2303.6548
2233.959
15061.778
20482.189
35730.787
117836
119819.69
36572.166
20975.558
15410.575
2204.9377
2194.9862
15566.49
21456.518
37810.838
125522.3
131429.72
39236.827
22035.63
15790.063
2247.2533
2074.6026
15973.79
21644.256
37772.789
124301.91
121233.74
36658.584
21061.636
15567.865
2052.1243
2072.1042
15666.671
21022.615
36430.159
117599.1
114050.56
35669.407
20710.739
15502.877
2101.2366
2118.4047
15263.499
20347.682
35005.027
111258.49
109412.91
34345.675
19972.608
14998.786
2121.1746
2116.9572
14773.066
19672.438
33877.384
108134.31
107094.47
33523.336
19441.314
14594.184
2110.3421
2102.1086
14445.736
19250.752
33228.884
106205.09
105426.89
32974.431
19085.929
14316.933
2092.8066
2082.9275
14201.627
18939.192
32749.46
104728.63
104094.86
32546.408
18805.734
14096.305
2072.7618
2062.4699
13998.477
18682.549
32361.055
103516.12
102986.43
32190.976
18568.198
13907.216
2052.1794
2041.9516
13821.345
18461.362
32034.231
102499.63
102052.21
31889.441
18361.475
13740.689
2031.8481
2021.8928
13664.349
18267.626
31755.336
101639.09
101257.99
31630.991
18179.601
13592.471
2012.1291
2002.5663
13524.206
18096.622
31515.396
100904.17
100575.92
31407.749
18018.626
13459.883
1993.2435
1984.1511
13398.621
17944.88
31307.243
100269.26
99983.033
31213.162
17875.442
13340.885
1975.3237
1966.7419
13285.734
17809.591
31124.928
99713.488
99460.448
31041.937
17747.519
13233.805
1958.4355
1950.3736
13184.048
17688.505
30963.798
99220.425
98994.46
30890.125
17632.878
13137.273
1942.5856
1935.0307
13092.34
17579.915
30820.645
98779.457
98577.077
30755.135
17530.067
13050.226
1927.7295
1920.654
13009.672
17482.559
30693.331
98384.115
98202.805
30635.073
17437.924
12971.803
1913.8269
1907.2083
12935.209
17395.342
30580.153
98029.722
97867.694
30528.396
17355.434
12901.223
1900.8397
1894.6768
12868.265
17317.333
30479.664
97712.921
97568.621
30433.775
17281.737
12837.855
1888.7746
1883.0702
12808.343
17247.863
30390.867
97431.164
97303.944
30350.491
17216.397
12781.392
1877.6463
1882.983
12809.195
17249.057
30392.467
97437.645
97573.411
30435.079
17282.673
12838.455
1888.5835
1894.4902
12868.825
17318.156
30480.667
97716.236
97871.283
30529.452
17356.265
12901.765
1900.6482
1907.0101
12935.82
17396.217
30581.186
98032.969
98206.743
30636.281
17438.885
12972.455
1913.6129
1920.4373
13010.435
17483.632
30694.641
98388.003
98582.049
30756.699
17531.304
13051.11
1927.5075
1934.7953
13093.371
17581.316
30822.396
98784.785
99001.062
30892.186
17634.467
13138.431
1942.3254
1950.0797
13185.347
17690.254
30966.054
99227.653
99469.011
31044.515
17749.453
13235.219
1958.0892
1966.3312
13287.282
17811.689
31127.716
99723.084
99994.589
31216.316
17877.728
13342.547
1974.8361
1983.5731
13400.374
17947.297
31310.609
100282.23
100591.09
31411.471
18021.211
13461.726
1992.5545
2001.7521
13526.129
18099.341
31519.388
100920.91
101276.85
31635.383
18182.502
13594.47
2011.1682
2020.7657
13666.418
18270.679
31760.038
101659.5
102074.19
31894.414
18364.658
13742.791
2030.533
2040.4303
13823.458
18464.629
32039.346
102522.58
103010.11
32196.047
18571.45
13909.254
2050.4327
2060.4882
14000.341
18685.62
32365.736
103539.56
104117.55
32550.34
18808.441
14097.869
2070.5383
2080.4742
14202.795
18941.353
32752.232
104749.24
105444.34
32975.741
19087.507
14317.739
2090.1528
2099.3291
14446.662
19252.19
33228.766
106216.77
107098.17
33524.045
19444.532
14596.776
2107.5706
2114.3332
14780.249
19681.363
33884.446
108132.88
109409.97
34374.982
19996.367
15016.256
2119.0048
2117.6946
15301.028
20408.548
35104.922
111240.15
114150.9
35938.439
20793.418
15535.261
2099.2901
2065.3612
15598.134
20956.683
36373.601
117747.47
120687.15
36625.364
21006.045
15452.483
2045.6286
2062.7998
16376.519
21997.61
38137.927
122452.95
131871.09
39456.786
22134.355
15883.28
2237.1389
2159.5753
15331.099
21078.882
36909.648
121359.06
122434.12
36417.959
20496.816
14758.058
2192.8137
2231.3639
15114.069
20618.25
36236.69
119568.85
115897.58
36101.886
20665.042
15217.781
2287.8162
2320.4649
15074.465
20372.816
35333.968
112726.36
110628.49
34583.996
19988.217
14827.378
2329.069
2327.6035
14607.324
19684.194
34096.851
109191.67
108055.05
33727.206
19447.987
14429.395
2321.8312
2313.2655
14280.218
19252.207
33420.408
107108.08
106292.42
33156.48
19082.893
14150.399
2303.0037
2291.8092
14033.891
18931.907
32922.874
105568.02
104915.16
32711.525
18794.319
13927.245
2280.1433
2268.2643
13828.075
18667.184
32518.272
104321.08
103777.77
32340.568
18549.104
13735.528
2256.3709
2244.5565
13648.433
18438.719
32176.382
103277.84
102817.44
32024.324
18335.475
13566.635
2232.9112
2221.4613
13489.23
18238.445
31883.134
102391.1
101996.41
31751.804
18147.391
13416.357
2210.266
2199.3248
13347.154
18061.511
31629.366
101628.61
101286.29
31515.05
17980.765
13281.953
2188.6862
2178.3346
13219.853
17904.374
31408.033
100965.19
100664.7
31307.73
17832.465
13161.359
2168.3129
2158.5905
13105.494
17764.262
31213.48
100380.76
100113.83
31124.859
17700.029
13052.931
2149.2096
2140.1217
13002.592
17638.975
31041.355
99860.31
99621.434
30962.649
17581.471
12955.305
2131.3663
2122.8842
12909.872
17526.698
30888.36
99393.915
99179.734
30818.275
17475.143
12867.296
2114.7226
2106.8032
12826.294
17426.015
30752.18
98975.813
98784.213
30689.833
17379.858
12788.016
2099.1843
2091.7983
12751.001
17335.781
30630.991
98601.26
98430.077
30575.518
17294.476
12716.624
2084.71
2077.842
12683.272
17255.006
30523.231
98266.637
98114.881
30474.123
17218.217
12652.551
2071.2776
2065.056
12622.872
17183.305
30428.284
97971.796
98093.756
30461.615
17191.18
12608.933
2077.9861
2084.2192
12637.953
17226.012
30508.327
98236.3
98391.974
30558.286
17263.515
12669.545
2090.7775
2097.5545
12702.125
17302.76
30611.215
98554.363
98729.357
30667.558
17344.744
12737.278
2104.6288
2111.9339
12773.592
17388.639
30727.091
98911.675
99107.157
30790.394
17435.46
12812.56
2119.5322
2127.3741
12852.938
17484.456
30857.26
99311.137
99528.736
30928.238
17536.569
12896.05
2135.51
2143.9028
12940.88
17591.208
31003.283
99756.414
99998.953
31082.978
17649.255
12988.627
2152.6164
2161.6139
13038.396
17710.184
31167.268
100253.21
100523.79
31256.829
17774.857
13091.277
2170.9416
2180.5723
13146.568
17842.909
31351.841
100808.86
101113.02
31453.036
17915.163
13205.247
2190.535
2200.8043
13266.779
17991.394
31560.819
101435.48
101781.31
31675.978
18072.378
13332.035
2211.3911
2222.2548
13400.604
18158.008
31799.07
102150.73
102549.12
31931.132
18249.124
13473.346
2233.3946
2244.763
13550.036
18345.81
32072.921
102977.64
103442.16
32225.744
18448.991
13631.542
2256.3416
2268.0584
13717.873
18559.02
32390.702
103945.43
104494.64
32569.569
18677.045
13810.017
2279.8463
2291.5585
13908.345
18803.88
32764.166
105095.25
105757.61
32977.202
18941.269
14014.26
2303.0046
2313.8753
14129.247
19091.426
33212.369
106492.09
107318.1
33476.176
19258.565
14256.529
2323.715
2331.7429
14400.521
19448.516
33776.552
108266
109377.76
34122.614
19673.325
14570.156
2336.9428
2337.5468
14778.647
19963.888
34593.621
110766.01
112767.02
35282.141
20310.483
15000.331
2326.1823
2289.6852
15117.952
20546.581
35834.831
115702.07
118958.39
35915.813
20506.069
15027.862
2224.4286
2197.1535
15203.918
20863.918
36602.988
120869.22
125434.12
37815.212
21434.606
15527.879
2180.1166
2228.0893
15698.891
21950.416
39187.314
131673.48
2870.3301
14684.901
21408.003
39341.495
135122.98
130077.98
39722.508
22343.22
15890.438
2330.449
2056.9522
16922.606
23006.931
40080.978
129212.5
124143.66
38210.617
21966.118
16062.092
2163.5162
2152.9267
15264.764
21083.329
37024.387
122335.08
121333.88
36391.547
20655.268
15003.489
2187.2716
2239.0974
15213.973
20705.6
36224.274
118520.92
115215.57
36079.103
20702.2
15260.798
2299.3808
2331.0967
15091.385
20383.016
35306.068
112286.18
110341.63
34574.128
19994.902
14837.1
2338.2248
2335.0697
14613.701
19688.72
34091.195
108999.31
107921.55
33721.891
19450.382
14433.431
2327.7576
2317.9147
14282.606
19253.133
33415.654
107012.92
106223.14
33151.985
19082.763
14151.59
2306.6234
2294.6117
14034.215
18931.024
32918.522
105516.78
104876.43
32707.538
18793.059
13927.04
2282.3119
2269.9465
13827.559
18665.757
32514.649
104290.97
103754.13
32337.258
18547.603
13734.824
2257.6757
2245.5663
13647.629
18437.229
32173.417
103259.14
102802.52
32021.683
18334.04
13565.79
2233.6902
2222.0593
13488.371
18237.071
31880.753
102379.12
101986.86
31749.698
18146.107
13415.514
2210.72
2199.667
13346.343
18060.321
31627.508
101621.05
101280.33
31513.432
17979.687
13281.198
2188.9413
2178.5275
13219.171
17903.416
31406.635
100960.34
100660.73
31306.514
17831.614
13160.738
2168.4567
2158.6975
13104.939
17763.513
31212.435
100377.5
100111.12
31123.962
17699.373
13052.439
2149.29
2140.1814
13002.166
17638.409
31040.59
99858.083
99619.703
30962.005
17580.988
12954.939
2131.4117
2122.9172
12909.566
17526.303
30887.851
99392.579
99178.811
30817.907
17474.838
12867.052
2114.7362
2106.8032
12826.054
17425.724
30751.822
98974.752
98783.241
30689.5
17379.587
12787.793
2099.175
2091.782
12750.78
17335.515
30630.66
98600.28
98429.201
30575.209
17294.228
12716.419
2084.6874
2077.8109
12683.066
17254.761
30522.916
98265.715
98114.058
30473.815
17217.986
12652.363
2071.2377
2065.0008
12622.689
17183.091
30428.015
97971.115
97433.747
30390.874
17248.15
12808.726
1882.8875
1888.5495
12837.37
17281.592
30433.782
97568.138
97714.579
30479.718
17317.595
12868.586
1894.4952
1900.6431
12900.795
17355.324
30528.451
97866.987
98031.257
30580.321
17395.655
12935.543
1907.0385
1913.6407
12971.467
17437.884
30635.198
98202.302
98385.639
30693.557
17482.897
13010.006
1920.4926
1927.56
13049.973
17530.072
30755.293
98576.946
98781.222
30820.883
17580.253
13092.667
1934.8804
1942.4214
13137.064
17632.891
30890.288
98994.828
99222.271
30963.982
17688.775
13184.311
1950.2232
1958.2739
13233.585
17747.483
31042.046
99461.06
99715.458
31125.016
17809.764
13285.908
1966.5954
1975.1774
13340.611
17875.3
31213.122
99983.978
100271.38
31307.147
17944.882
13398.663
1984.0371
1993.1489
13459.501
18018.296
31407.449
100576.85
100905.39
31514.963
18096.347
13524.045
2002.5256
2012.1392
13591.916
18178.986
31630.265
101257.31
101637.78
31754.403
18267.006
13663.945
2021.9887
2032.0461
13739.93
18360.514
31888.122
102048.17
102493.67
32032.553
18460.326
13820.684
2042.2973
2052.7057
13906.241
18566.8
32188.748
102976.56
103502.53
32358.25
18680.996
13997.564
2063.2366
2073.8185
14095.178
18803.842
32542.862
104075.42
104702.56
32745.435
18937.356
14200.772
2084.3532
2094.6679
14316.478
19084.482
32970.438
105390.99
106157.15
33225.859
19250.634
14446.559
2104.4738
2113.2233
14597.222
19443.98
33523.352
107030.15
108051.9
33883.217
19680
14779.9
2120.2271
2124.4793
15011.226
19988.26
34361.713
109305.78
111107.81
35049.674
20378.536
15284.314
2121.1703
2101.0869
15522.691
20746.216
35775.252
113881.76
117094.48
36336.185
21015.34
15685.918
2067.6726
2045.5324
15744.747
21186.664
36702.408
120394.38
124672.12
37952.78
21740.567
16040.563
2065.8547
2240.8833
15626.978
22029.855
39487.461
132629.78
126825.2
37994.538
21462.943
15494.561
2190.7124
2203.9497
15594.287
21177.253
36878.217
119859.07
118454.28
35809.788
20481.984
14996.068
2233.823
2302.142
15108.698
20533.605
35832.831
115551.86
112620.91
35286.027
20308.464
15000.391
2338.5035
2349.6421
14780.791
19962.278
34584.517
110614.88
109243.76
34102.295
19665.888
14568.678
2347.6359
2340.8506
14396.82
19439.057
33756.669
108153.12
107221.67
33457.313
19248.717
14251.87
2331.3371
2320.1729
14124.254
19081.85
33194.889
106409.28
105686.17
32961.229
18932.241
14009.258
2308.1646
2295.7586
13903.51
18795.554
32749.793
105033.75
104441.51
32556.727
18669.454
13805.447
2283.2493
2270.8016
13713.609
18552.16
32379.334
103899.83
103402.78
32215.637
18442.793
13627.592
2258.5428
2246.5204
13546.401
18340.247
32064.028
102944.03
102520.15
31923.242
18244.114
13470.013
2234.7904
2223.3555
13397.554
18153.527
31792.162
102126.18
101760.21
31669.877
18068.345
13329.249
2212.2544
2201.4701
13264.23
17987.775
31555.462
101417.71
101097.5
31448.26
17911.893
13202.927
2191.0458
2180.9527
13144.426
17839.951
31347.608
100795.57
100511.91
31253.006
17772.163
13089.322
2171.2272
2161.8214
13036.602
17707.751
31163.891
100242.99
99989.594
31079.89
17647.044
12987.012
2152.7701
2144.0155
12939.421
17589.241
31000.606
99748.458
99521.233
30925.791
17534.791
12894.75
2135.5954
2127.4458
12851.773
17482.885
30855.157
99304.79
99101.076
30788.465
17434.048
12811.545
2119.6045
2112.0134
12772.736
17387.447
30725.525
98906.991
98724.783
30666.138
17343.697
12736.564
2104.7203
2097.6599
12701.536
17301.89
30610.102
98550.949
98388.313
30557.218
17262.737
12669.064
2090.8871
2084.3247
12637.478
17225.275
30507.377
98232.917
98088.805
30460.471
17190.38
12608.467
2078.0928
2078.069
12609.008
17191.473
30462.384
98094.114
98238.501
30508.833
17226.541
12638.627
2084.3185
2090.8314
12669.358
17263.466
30558.455
98391.062
98555.664
30611.369
17303.062
12702.583
2097.6138
2104.6457
12736.998
17344.572
30667.507
98728.021
98912.605
30727.163
17388.869
12773.958
2111.9649
2119.5344
12812.296
17435.29
30790.327
99105.785
99311.767
30857.329
17484.676
12853.262
2127.3962
2135.5134
12895.859
17536.465
30928.247
99527.567
99756.974
31003.414
17591.447
12941.198
2143.9256
2152.6206
12988.463
17649.168
31082.972
99997.646
100253.23
31167.383
17710.414
13038.682
2161.6335
2170.9453
13091.168
17774.824
31256.863
100522.26
100808.39
31351.99
17843.167
13146.853
2180.5898
2190.5411
13205.2
17915.197
31453.109
101111.03
101434.16
31560.955
17991.677
13267.076
2200.8273
2211.4151
13332.064
18072.483
31676.035
101778.04
102147.18
31799.195
18158.369
13400.964
2222.3128
2233.4849
13473.519
18249.368
31931.098
102542.49
102968.79
32072.854
18346.32
13550.549
2244.9287
2256.6002
13631.986
18449.466
32225.391
103428.13
103926.12
32390.066
18559.769
13718.699
2268.4705
2280.4601
13810.923
18677.833
32568.334
104466.55
105056.9
32762.317
18805.045
13909.799
2292.4725
2304.3241
14016.256
18942.864
32974.569
105704.55
106421.56
33209.492
19094.279
14132.623
2315.7592
2326.3282
14262.112
19263.838
33474.417
107225.71
108151.61
33779.922
19458.839
14410.215
2335.2668
2341.4652
14585.746
19692.145
34141.463
109246.73
110615.51
34623.332
19992.195
14801.577
2343.1555
2333.3008
15036.383
20360.253
35342.255
112597.33
115608.05
36050.956
20623.516
15160.556
2296.1522
2228.1303
15038.003
20508.647
35920.13
118752.25
120657.79
36604.424
20818.293
15121.059
2197.4193
2180.2898
15736.741
21598.141
37876.133
124046.79
1018.943
608.45782
821.22708
2059.3813
15961.062
21634.428
37792.79
124574.38
123445.73
37125.084
21059.729
15184.364
2164.9232
133033.59
39240.843
21538.534
14895.603
2879.765
3196.569
15209.512
21838.686
39459.283
131694.21
132487.06
40012.248
22048.515
15294.815
3207.4991
2504.7864
15358.421
21771.149
38922.696
128650.63
1472.9476
1268.5173
678.0244
841.34456
180.65833
191.01718
189.48712
180.65802
179.72886
184.55986
184.60909
179.36348
97971.719
30427.923
17183.266
12622.967
2065.1347
2071.3196
12651.805
17217.693
30473.635
98111.907
98265.975
30522.733
17254.883
12683.322
2077.9046
2084.7265
12715.838
17293.833
30574.819
98426.608
98599.918
30630.295
17335.516
12750.938
2091.85
2099.2169
12787.199
17379.104
30688.921
98780.343
98973.792
30751.278
17425.593
12826.103
2106.8755
2114.7854
12866.444
17474.29
30817.206
99175.646
99391.393
30887.252
17526.121
12909.568
2123.0056
2131.4976
12954.393
17580.459
30961.294
99616.721
99856.831
31039.975
17638.218
13002.163
2140.3144
2149.4322
13051.984
17698.893
31123.269
100108.35
100376.14
31211.85
17763.355
13104.976
2158.8915
2168.6709
13160.417
17831.23
31305.873
100657.82
100958.5
31406.166
17903.383
13219.318
2178.796
2189.2378
13281.124
17979.56
31513.044
101277.19
101618.99
31627.398
18060.58
13346.736
2200.007
2211.0762
13415.771
18146.366
31749.772
101984.06
102377.69
31881.238
18237.767
13489.101
2222.4419
2234.0634
13566.508
18334.875
32022.512
102800.87
103259.31
32174.898
18438.62
13648.87
2245.9241
2257.9662
13736.222
18549.365
32339.428
103755.18
104294.88
32517.859
18668.3
13829.6
2270.1404
2282.327
13929.506
18796.362
32712.02
104882.74
105527.85
32924.885
18935.589
14037.586
2294.3621
2305.9563
14155.744
19088.749
33160.88
106239.95
107039.83
33427.995
19260.898
14287.736
2316.6269
2325.5327
14438.517
19459.185
33737.656
107962.86
109059.97
34110.096
19696.746
14616.594
2331.5659
2332.8518
14830.125
19994.795
34596.079
110432.2
112448.9
35273.602
20334.743
15047.14
2321.5286
2285.4372
15148.436
20548.345
35805.84
115373.92
118321.13
35870.143
20510.601
15053.282
2225.4828
2194.5102
15280.7
20849.471
36492.399
120091.97
123126.96
36998.249
20996.869
15152.471
2178.069
16935.915
23127.439
40525.98
130522.91
127751.11
40796.473
23491.93
17352.37
2098.0407
2391.7619
16618.669
23033.585
40415.402
126990.28
127715.32
38639.35
21685.47
15286.372
2538.3668
2194.4943
15966.788
21928.919
38162.721
123487.16
123125.02
36996.757
20995.301
15150.943
2177.0813
2193.7234
15279.144
20848.131
36491.356
120090.1
118318.69
35869.125
20509.424
15051.974
2224.822
2284.8428
15147.321
20547.275
35804.768
115371.11
112445.69
35272.123
20333.56
15046.044
2320.9964
2332.3628
14829.065
19993.646
34594.737
110429.42
109057.54
34108.788
19695.632
14615.573
2331.1044
2325.0908
14437.523
19458.105
33736.466
107961.29
107039.03
33426.915
19259.856
14286.773
2316.2001
2305.5464
14154.835
19087.784
33159.983
106240.01
105528.45
32924.12
18934.7
14036.743
2293.9745
2281.9623
13928.736
18795.572
32711.431
104883.93
104296.26
32517.413
18667.618
13828.927
2269.8069
2257.6662
13735.647
18548.812
32339.181
103756.8
103260.72
32174.753
18438.173
13648.396
2245.6612
2233.8352
13566.113
18334.529
32022.503
102802.19
102378.49
31881.245
18237.487
13488.789
2222.2546
2210.9278
13415.53
18146.166
31749.876
101984.78
101619.25
31627.498
18060.428
13346.558
2199.9002
2189.163
13281.004
17979.479
31513.237
101277.39
100958.27
31406.351
17903.34
13219.259
2178.7568
2168.6599
13160.398
17831.241
31306.126
100657.86
100375.9
31212.076
17763.378
13104.998
2158.908
2149.46
13052.017
17698.935
31123.535
100108.54
99856.778
31040.178
17638.246
13002.217
2140.3577
2131.5462
12954.448
17580.506
30961.579
99617.243
99391.599
30887.444
17526.147
12909.638
2123.0736
2114.8631
12866.537
17474.362
30817.521
99176.601
98974.471
30751.54
17425.67
12826.23
2106.9584
2099.2945
12787.299
17379.179
30689.243
98781.382
98600.453
30630.491
17335.56
12751.06
2091.9364
2084.8063
12715.931
17293.87
30575.047
98427.485
98266.064
30522.817
17254.876
12683.425
2077.9796
2071.3701
12651.82
17217.597
30473.617
98111.782
97968.411
30427.431
17182.921
12622.825
2065.0796
2059.0137
12594.56
17149.769
30383.952
97831.986
2077.9777
12607.903
17190.151
30460.412
98087.895
98233.487
30507.316
17225.48
12637.754
2084.2488
2090.7746
12668.455
17262.386
30556.912
98385.803
98550.869
30609.89
17302.011
12701.745
2097.5921
2104.6358
12736.043
17343.384
30665.827
98722.529
98907.092
30725.35
17387.583
12772.956
2111.9738
2119.556
12811.119
17433.791
30788.208
99099.371
99305.103
30854.967
17483.006
12851.981
2127.4416
2135.5874
12894.364
17534.519
30925.468
99519.836
99748.717
31000.333
17589.281
12939.572
2144.0475
2152.7857
12986.611
17646.7
31079.443
99988.261
100243.1
31163.451
17707.674
13036.661
2161.8704
2171.2691
13088.904
17771.741
31252.409
100510.47
100795.11
31346.991
17839.752
13144.399
2181.0371
2191.1422
13202.48
17911.371
31447.435
101095.36
101416.2
31554.598
17987.456
13264.137
2201.6163
2212.4283
13328.834
18067.777
31668.841
101757.08
102123.41
31791.169
18153.175
13397.469
2223.5951
2235.0769
13469.681
18243.576
31922.096
102515.75
102939.76
32062.906
18339.902
13546.365
2246.8786
2258.9565
13627.383
18442.319
32214.407
103397.09
103894.22
32378.133
18551.856
13713.657
2271.2897
2283.7941
13805.367
18669.066
32555.483
104434.8
105027.23
32748.62
18795.325
13903.658
2296.375
2308.8355
14009.32
18931.965
32960.041
105679
106402.69
33193.822
19081.718
14124.513
2320.9103
2332.1264
14252.059
19248.545
33456.295
107215.07
108147.52
33755.711
19438.958
14397.137
2341.7007
2348.5413
14568.921
19665.7
34101.206
109238.58
110610.79
34583.488
19962.17
14781.168
2350.6256
2339.5868
15000.842
20308.485
35285.325
112617.08
115548.24
35832.64
20533.973
15109.436
2303.3713
2235.1902
14996.656
20482.138
35809.165
118451.75
119851.91
36877.521
21177.869
15595.487
2205.5284
2192.5516
15497.175
21465.562
37997.929
126805.3
132610
39513.868
22033.739
15627.348
2243.0374
2067.7308
16041.285
21742.172
37956.521
124661.91
122326.14
37027.475
21084.122
15264.007
2154.9134
2161.1568
15332.739
21078.275
36902.91
121314.73
122429.78
38137.53
21995.008
16374.741
2064.3981
2181.6159
15734.576
21594.106
37873.304
124024.49
125418.72
37808.793
21427.897
15524.067
2180.9099
2059.9937
15956.664
21627.528
37786.082
124569.79
123430.97
37117.314
21055.001
15181.713
2164.9199
2186.1269
15404.786
20966.402
36624.478
119766.3
118038.62
35844.322
20522.152
15072.887
2217.3682
2277.4743
15130.548
20519.575
35750.81
115275.88
112394.32
35267.102
20328.399
15040.122
2316.6114
2329.485
14828.529
19995.327
34599.39
110405.97
109048.28
34113.938
19698.788
14616.891
2329.0577
2323.5521
14439.36
19461.406
33741.275
107958.72
107040.7
33430.93
19262.744
14288.521
2314.9651
2304.5087
14156.337
19090.209
33163.415
106244.65
105535.05
32927.137
18936.746
14038.015
2293.082
2281.1893
13929.827
18797.331
32714.131
104891.6
104304.41
32519.866
18669.158
13829.882
2269.1372
2257.0917
13736.502
18550.18
32341.399
103764.93
103268.47
32176.772
18439.402
13649.173
2245.1724
2233.427
13566.837
18335.648
32024.332
102809.44
102385.11
31882.912
18238.513
13489.463
2221.9159
2210.6508
13416.161
18147.106
31751.375
101990.71
101624.45
31628.867
18061.299
13347.154
2199.6763
2188.9817
13281.539
17980.253
31514.412
101281.81
100962.02
31407.4
17904.038
13219.751
2178.6112
2168.541
13160.819
17831.845
31307.033
100660.77
100378.24
31212.813
17763.883
13105.358
2158.8113
2149.3838
13052.318
17699.357
31124.145
100110.42
99858.337
31040.699
17638.607
13002.475
2140.2974
2131.5073
12954.682
17580.818
30962.007
99618.517
99392.753
30887.839
17526.427
12909.843
2123.0388
2114.8309
12866.691
17474.575
30817.8
99177.405
98975.097
30751.777
17425.84
12826.352
2106.9288
2099.269
12787.398
17379.315
30689.426
98781.909
98600.846
30630.632
17335.669
12751.14
2091.9218
2084.7977
12716.028
17293.991
30575.207
98428.048
98266.74
30523.002
17255.01
12683.531
2077.9668
2071.3468
12651.896
17217.697
30473.744
98112.275
97969.12
30427.476
17182.964
12622.86
2065.0274
2058.9473
12594.548
17149.78
30384.026
97832.715
2065.1484
12622.823
17183.313
30428.179
97971.646
98114.821
30474.089
17218.236
12652.49
2071.3683
2077.9311
12683.248
17254.996
30523.089
98266.039
98429.552
30575.366
17294.415
12716.523
2084.7816
2091.882
12750.937
17335.704
30630.754
98600.358
98783.462
30689.616
17379.754
12787.897
2099.2672
2106.8956
12826.215
17425.908
30751.908
98974.817
99179.16
30818.043
17475.031
12867.187
2114.8239
2123.0077
12909.786
17526.563
30888.054
99393.053
99620.762
30962.351
17581.312
12955.181
2131.502
2140.2802
13002.487
17638.786
31040.972
99859.369
100112.82
31124.463
17699.812
13052.783
2149.3837
2158.7972
13105.382
17764.041
31213.035
100379.31
100663.01
31307.302
17832.255
13161.243
2168.5476
2178.6145
13219.811
17904.205
31407.6
100963.02
101283.64
31514.701
17980.679
13281.974
2189.0113
2199.7145
13347.322
18061.564
31629.113
101625.1
101992.18
31751.777
18147.649
13416.69
2210.7238
2222.0028
13489.806
18238.966
31883.347
102385.66
102810.73
32024.936
18336.362
13567.507
2233.5433
2245.2975
13649.711
18440.067
32177.43
103269.09
103766.28
32342.265
18551.091
13737.328
2257.2378
2269.2855
13830.619
18670.059
32520.83
104305.39
104893.28
32715.32
18798.459
13930.812
2281.3467
2293.2344
14038.956
18937.912
32928.482
105536.47
106246.71
33165.007
19091.601
14157.51
2304.6619
2315.1063
14289.701
19264.221
33432.703
107042.53
107961.06
33743.311
19463.14
14440.779
2323.6831
2329.1672
14618.404
19700.719
34116.304
109050.5
110408.96
34602.332
19997.621
14830.337
2329.5784
2316.6895
15042.149
20331.025
35270.25
112397.43
115280.71
35754.917
20522.859
15132.903
2277.5192
2217.4505
15075.345
20525.923
35850.173
118043.44
119771.63
36631.895
20970.952
15407.63
2186.1793
2037.622
15851.699
21224.419
36662.436
119636.15
116782.17
35895.907
20800.612
15567.573
2042.0166
2080.8264
15422.437
20607.77
35532.662
113872.39
111242.51
34980.387
20308.253
15223.335
2104.2267
2110.4208
14978.626
19954.331
34334.058
109478.31
108237.47
33882.151
19666.841
14764.389
2108.4798
2103.6059
14591.971
19442.725
33535.434
107199.68
106300.19
33242.609
19255.219
14446.826
2096.7229
2088.4777
14319.292
19091.276
32987.451
105508.4
104797.69
32761.045
18944.625
14204.593
2079.4436
2069.9423
14099.205
18810.76
32556.47
104152.48
103564.74
32369.842
18687.272
14001.465
2060.1951
2050.3322
13909.89
18572.415
32198.599
103026.87
102534.08
32040.918
18465.324
13824.066
2040.4624
2030.6385
13743.028
18364.964
31895.281
102080.79
101663.86
31760.516
18270.955
13666.778
2020.9241
2011.3421
13594.478
18182.484
31635.528
101278.46
100922.24
31519.389
18099.409
13526.356
2001.9412
1992.7308
13461.574
18020.997
31411.291
100590.78
100282.63
31310.393
17947.239
13400.521
1983.7534
1974.9981
13342.294
17877.406
31215.997
99993.729
99723.463
31127.449
17811.614
13287.437
1966.5009
1958.2377
13234.957
17749.136
31044.218
99468.241
99228.241
30965.821
17690.232
13185.567
1950.2408
1942.4727
13138.19
17634.195
30891.952
99000.257
98785.552
30822.273
17581.395
13093.701
1934.9607
1927.67
13050.919
17531.102
30756.565
98581.141
98388.868
30694.594
17483.795
13010.875
1920.6242
1913.7855
12972.234
17438.671
30636.139
98205.434
98033.377
30581.003
17396.309
12936.236
1907.1957
1900.8102
12901.39
17355.877
30529.06
97869.141
97715.878
30480.118
17318.038
12869.122
1894.6768
1888.7507
12837.832
17281.974
30434.172
97570.113
97436.057
30391.102
17248.489
12809.209
1883.1877
1883.1424
12808.545
17248.17
30391.085
97433.244
97568.882
30433.819
17281.858
12837.852
1888.7401
1894.6411
12868.241
17317.349
30479.435
97711.899
97866.595
30528.14
17355.387
12901.115
1900.7913
1907.1609
12935.139
17395.289
30579.797
98028.182
98201.585
30634.744
17437.852
12971.695
1913.7811
1920.6139
13009.598
17482.478
30692.933
98382.64
98575.904
30754.739
17529.958
13050.113
1927.6958
1935.0042
13092.264
17579.809
30820.215
98778.224
98993.635
30889.723
17632.76
13137.165
1942.5633
1950.3679
13183.975
17688.39
30963.361
99219.513
99459.981
31041.569
17747.429
13233.741
1958.4444
1966.7746
13285.719
17809.513
31124.517
99712.956
99982.791
31212.831
17875.39
13340.883
1975.381
1984.2409
13398.656
17944.834
31306.838
100268.66
100575.22
31407.34
18018.589
13459.928
1993.3648
2002.7239
13524.284
18096.578
31514.893
100902.81
101256.3
31630.47
18179.568
13592.56
2012.3258
2022.1311
13664.488
18267.612
31754.768
101636.74
102049.41
31888.864
18361.486
13740.857
2032.1276
2042.2766
13821.59
18461.435
32033.679
102496.42
102983.07
32190.511
18568.34
13907.519
2052.5484
2062.8863
13998.866
18682.774
32360.684
103512.54
104091.43
32546.144
18806.038
14096.76
2073.2208
2083.4314
14202.162
18939.574
32749.312
104725.31
105424
32974.419
19086.39
14317.535
2093.3536
2102.7025
14446.42
19251.297
33229.031
106202.69
107092.92
33523.727
19441.971
14594.953
2110.9838
2117.6529
14773.934
19673.225
33878.093
108133.83
109413.87
34346.436
19973.414
14999.675
2121.9232
2119.2081
15264.327
20348.407
35005.898
111261.12
114053.03
35669.221
20711.084
15503.567
2102.123
2073.1173
15667.769
21023.443
36430.544
117599.26
121231.94
36659.238
21062.862
15569.493
2053.2556
2075.9203
15975.811
21646.431
37776.446
124295.07
131414.3
39261.641
22039.284