/*--------------------------------*- C++ -*----------------------------------*\
  =========                 |
  \\      /  F ield         | OpenFOAM: The Open Source CFD Toolbox
   \\    /   O peration     | Website:  https://openfoam.org
    \\  /    A nd           | Version:  7
     \\/     M anipulation  |
\*---------------------------------------------------------------------------*/
FoamFile
{
    version     2.0;
    format      ascii;
    class       volScalarField;
    location    "260";
    object      p;
}
// * * * * * * * * * * * * * * * * * * * * * * * * * * * * * * * * * * * * * //

dimensions      [1 -1 -2 0 0 0 0];

internalField   nonuniform List<scalar> 
24789
(
101300.06
101300.06
101300.06
101300.05
101299.83
101298.62
101298.85
101298.86
101298.87
101298.86
101297.61
101297.62
101297.61
101297.6
101297.36
101296.03
101296.28
101296.29
101296.3
101296.29
101294.89
101294.89
101294.88
101294.87
101294.62
101293.11
101293.36
101293.37
101293.38
101293.38
101291.75
101291.75
101291.75
101291.73
101291.49
101289.73
101289.96
101289.98
101289.98
101289.98
101288.05
101288.06
101288.05
101288.03
101287.81
101285.71
101285.91
101285.92
101285.93
101285.92
101283.57
101283.58
101283.57
101283.56
101283.39
101280.82
101280.94
101280.95
101280.96
101280.95
101278.02
101278.03
101278.02
101278.01
101277.95
101274.73
101274.72
101274.73
101274.73
101274.72
101271
101271.01
101271.01
101271.01
101271.1
101266.99
101266.81
101266.81
101266.8
101266.79
101262
101262.02
101262.03
101262.05
101262.33
101257
101256.61
101256.58
101256.56
101256.53
101250.29
101250.33
101250.36
101250.4
101250.91
101243.92
101243.29
101243.22
101243.17
101243.12
101234.83
101234.9
101234.97
101235.06
101235.84
101226.43
101225.49
101225.36
101225.27
101225.18
101213.87
101213.97
101214.1
101214.27
101215.41
101202.4
101201.01
101200.79
101200.62
101200.49
101184.44
101184.62
101184.84
101185.11
101186.81
101167.93
101165.86
101165.51
101165.21
101164.99
101141.88
101142.16
101142.54
101142.99
101145.47
101117.55
101114.95
101114.36
101113.86
101113.49
101074.24
101074.72
101075.37
101076.09
101078.36
101036.72
101033.36
101032.32
101031.4
101030.83
101013.26
101013.87
101015.44
101017.42
101025.36
100920.96
100914.69
100912.87
100912.1
100910.98
100315.22
100338.42
100354.47
100373.47
100548.11
100866.73
100814.74
100804.65
100795.09
100781.41
100960.42
100974.62
100980.6
100988.18
101017.89
101179.42
101138.02
101128.22
101117.93
101100.95
101467.21
101494.23
101516.12
101534.83
101542.96
101118.46
100927.11
100906.22
100889.86
100862.83
101008.64
101013.96
101014.37
101014.59
101026.65
100786.12
100562.59
100535.26
100509.14
100475.08
100490.12
100498.52
100502.44
100510.34
100611.88
100927.22
100919.91
100918.71
100918.07
100917.59
101011.74
101012.47
101013.83
101015.49
101023.21
101036.51
101034.32
101033.44
101032.67
101032.14
101075.4
101075.81
101076.37
101077
101078.82
101118.43
101115.95
101115.44
101115.01
101114.7
101142.94
101143.17
101143.49
101143.88
101146.39
101168.69
101166.5
101166.19
101165.96
101165.78
101185.01
101185.15
101185.33
101185.57
101187.4
101202.85
101201.33
101201.14
101201
101200.89
101214.16
101214.25
101214.36
101214.5
101215.75
101226.7
101225.67
101225.56
101225.49
101225.41
101235.02
101235.08
101235.13
101235.22
101236.06
101244.1
101243.42
101243.36
101243.32
101243.28
101250.43
101250.46
101250.49
101250.53
101251.07
101257.12
101256.71
101256.68
101256.67
101256.64
101262.07
101262.09
101262.1
101262.12
101262.41
101267.05
101266.87
101266.86
101266.86
101266.84
101271.04
101271.05
101271.05
101271.05
101271.14
101274.76
101274.76
101274.76
101274.77
101274.75
101278.05
101278.06
101278.05
101278.04
101277.97
101280.83
101280.97
101280.98
101280.98
101280.98
101283.6
101283.6
101283.6
101283.58
101283.39
101285.71
101285.93
101285.95
101285.95
101285.95
101288.07
101288.08
101288.07
101288.06
101287.81
101289.72
101289.99
101290
101290.01
101290
101291.77
101291.78
101291.77
101291.76
101291.48
101293.1
101293.39
101293.4
101293.41
101293.4
101294.91
101294.92
101294.91
101294.9
101294.61
101296.03
101296.31
101296.32
101296.32
101296.32
101297.64
101297.64
101297.64
101297.63
101297.35
101298.62
101298.88
101298.9
101298.9
101298.9
101300.13
101300.13
101300.12
101300.11
101299.83
101298.67
101298.92
101298.93
101298.93
101298.93
101297.69
101297.69
101297.68
101297.67
101297.39
101296.06
101296.35
101296.36
101296.36
101296.36
101294.96
101294.96
101294.95
101294.94
101294.65
101293.14
101293.43
101293.44
101293.45
101293.45
101291.82
101291.82
101291.82
101291.8
101291.51
101289.75
101290.04
101290.05
101290.06
101290.05
101288.12
101288.12
101288.12
101288.1
101287.84
101285.74
101285.98
101285.99
101286
101285.99
101283.64
101283.65
101283.64
101283.63
101283.43
101280.86
101281.02
101281.03
101281.03
101281.02
101278.1
101278.11
101278.1
101278.09
101278
101274.79
101274.81
101274.81
101274.82
101274.81
101271.1
101271.11
101271.11
101271.11
101271.17
101267.08
101266.92
101266.92
101266.92
101266.9
101262.13
101262.15
101262.16
101262.17
101262.44
101257.14
101256.76
101256.74
101256.73
101256.7
101250.48
101250.51
101250.53
101250.57
101251.08
101244.11
101243.45
101243.4
101243.36
101243.32
101235.05
101235.11
101235.16
101235.24
101236.05
101226.68
101225.68
101225.57
101225.5
101225.43
101214.17
101214.25
101214.35
101214.48
101215.72
101202.8
101201.29
101201.12
101200.99
101200.89
101185.03
101185.16
101185.33
101185.56
101187.38
101168.67
101166.5
101166.21
101165.99
101165.82
101142.91
101143.13
101143.43
101143.8
101146.28
101118.62
101116.1
101115.61
101115.21
101114.92
101076.36
101076.74
101077.27
101077.87
101079.69
101033.95
101032.51
101031.73
101031.01
101030.55
101005.76
101006.38
101007.66
101009.23
101016.68
100950.56
100944.16
100942.61
100941.66
100940.99
100561.88
100568.47
100569.73
100574.34
100631.77
100599.36
100194.58
100151.03
100111.56
100061.44
101660.26
101642.8
101627.01
101606.65
101381.8
101071.18
100928.83
100910.93
100898.38
100873.46
101419.15
101451.26
101474.27
101494.59
101491.7
101206.09
101254.3
101258.8
101262.69
101259.93
101536.32
101524.32
101511.77
101494.92
101345.83
100586.76
100253.73
100209.85
100167.66
100116.81
100497.72
100507.63
100510.69
100517.34
100592.92
100932.94
100926.1
100924.48
100923.8
100922.79
101000.26
101000.83
101002.06
101003.61
101009.96
101030.54
101028.6
101027.78
101027.01
101026.5
101073.89
101074.33
101074.92
101075.56
101077.51
101116.78
101114.49
101113.97
101113.53
101113.19
101141.63
101141.89
101142.22
101142.63
101144.78
101167.56
101165.74
101165.42
101165.17
101164.96
101184.42
101184.58
101184.77
101185.02
101186.54
101202.17
101200.92
101200.72
101200.57
101200.44
101213.84
101213.94
101214.05
101214.21
101215.25
101226.33
101225.48
101225.36
101225.27
101225.19
101234.87
101234.93
101235
101235.09
101235.79
101243.91
101243.33
101243.27
101243.22
101243.17
101250.36
101250.4
101250.43
101250.47
101250.93
101257.03
101256.68
101256.65
101256.63
101256.6
101262.06
101262.08
101262.09
101262.11
101262.36
101267.03
101266.87
101266.86
101266.86
101266.84
101271.04
101271.06
101271.05
101271.06
101271.14
101274.77
101274.77
101274.77
101274.77
101274.76
101278.06
101278.07
101278.06
101278.05
101277.99
101280.86
101280.98
101280.99
101281
101280.99
101283.6
101283.61
101283.61
101283.59
101283.44
101285.76
101285.95
101285.96
101285.97
101285.96
101288.09
101288.09
101288.09
101288.07
101287.86
101289.77
101290
101290.02
101290.02
101290.02
101291.79
101291.79
101291.79
101291.77
101291.53
101293.16
101293.4
101293.41
101293.42
101293.41
101294.92
101294.93
101294.92
101294.91
101294.67
101296.07
101296.31
101296.32
101296.33
101296.32
101297.65
101297.65
101297.65
101297.64
101297.41
101298.68
101298.88
101298.89
101298.9
101298.9
101298.89
101298.89
101298.89
101298.87
101298.65
101297.39
101297.63
101297.64
101297.65
101297.65
101296.32
101296.33
101296.32
101296.31
101296.06
101294.65
101294.91
101294.92
101294.93
101294.92
101293.42
101293.42
101293.41
101293.4
101293.14
101291.52
101291.78
101291.79
101291.8
101291.79
101290.03
101290.03
101290.03
101290.01
101289.77
101287.85
101288.08
101288.09
101288.1
101288.09
101285.98
101285.98
101285.97
101285.96
101285.75
101283.44
101283.61
101283.62
101283.63
101283.63
101281
101281.01
101281
101280.99
101280.86
101278
101278.07
101278.08
101278.09
101278.08
101274.79
101274.8
101274.79
101274.78
101274.78
101271.15
101271.07
101271.08
101271.08
101271.07
101266.86
101266.88
101266.88
101266.89
101267.04
101262.37
101262.11
101262.1
101262.09
101262.07
101256.61
101256.64
101256.66
101256.69
101257.05
101250.97
101250.49
101250.44
101250.42
101250.38
101243.21
101243.26
101243.3
101243.37
101243.97
101235.89
101235.13
101235.04
101234.98
101234.91
101225.25
101225.33
101225.42
101225.54
101226.47
101215.43
101214.29
101214.13
101214.01
101213.91
101200.5
101200.63
101200.79
101200.99
101202.41
101186.81
101185.04
101184.78
101184.58
101184.42
101164.91
101165.11
101165.38
101165.71
101167.9
101145.34
101142.69
101142.26
101141.92
101141.67
101113.27
101113.6
101114.05
101114.58
101117.41
101078.35
101075.83
101075.17
101074.59
101074.15
101029.1
101029.57
101030.39
101031.32
101035.14
101020.68
101011.34
101009.61
101008.31
101007.94
100924.61
100924.77
100924.18
100924.5
100923.98
100557.73
100412.5
100396.96
100385.29
100367.08
100521.41
100550.27
100571.53
100594.66
100775.88
101214.29
101317.45
101322.55
101325.41
101323.74
100958.56
100977.63
100986.63
100997.08
101084.69
101569.19
101556.56
101536.56
101513.29
101483.81
101843.22
101990.31
102010.65
102025.04
102028.96
102119.75
102112.89
102105.44
102086.17
101792.78
101627.45
101658.64
101651.02
101642.32
101620.23
101509.13
101517.3
101520.71
101521.55
101461.34
101289.52
101370.72
101379.03
101384.4
101389.68
101168.11
101178.71
101187.74
101192.9
101194.86
100639.4
100424.72
100396.51
100371.48
100333.47
100499.24
100508.88
100513.39
100521.91
100605.91
100932.61
100927.98
100926.37
100925.26
100924.08
101004.49
101005.29
101006.64
101008.29
101013.02
101032.24
101031.04
101030.13
101029.27
101028.7
101074.77
101075.24
101075.88
101076.56
101078.04
101117.11
101115.09
101114.54
101114.05
101113.68
101141.92
101142.2
101142.56
101142.99
101145.01
101167.65
101165.88
101165.55
101165.27
101165.06
101184.42
101184.59
101184.8
101185.07
101186.57
101202.19
101200.93
101200.73
101200.57
101200.43
101213.83
101213.94
101214.06
101214.22
101215.26
101226.33
101225.46
101225.34
101225.24
101225.16
101234.83
101234.89
101234.96
101235.06
101235.78
101243.9
101243.31
101243.24
101243.19
101243.14
101250.33
101250.37
101250.4
101250.45
101250.92
101257.02
101256.66
101256.63
101256.61
101256.58
101262.03
101262.05
101262.06
101262.08
101262.35
101267.02
101266.85
101266.84
101266.83
101266.81
101271.03
101271.05
101271.04
101271.05
101271.13
101274.76
101274.75
101274.76
101274.76
101274.75
101278.05
101278.06
101278.05
101278.04
101277.99
101280.86
101280.97
101280.98
101280.99
101280.98
101283.61
101283.61
101283.61
101283.59
101283.43
101285.75
101285.94
101285.95
101285.96
101285.95
101288.08
101288.09
101288.08
101288.07
101287.85
101289.77
101290
101290.01
101290.02
101290.01
101291.78
101291.79
101291.78
101291.77
101291.53
101293.15
101293.4
101293.41
101293.42
101293.41
101294.92
101294.93
101294.92
101294.91
101294.67
101296.08
101296.32
101296.33
101296.34
101296.33
101297.66
101297.67
101297.66
101297.65
101297.41
101298.69
101298.9
101298.91
101298.92
101298.92
101298.9
101298.91
101298.9
101298.89
101298.64
101297.37
101297.65
101297.66
101297.67
101297.66
101296.34
101296.34
101296.34
101296.33
101296.04
101294.63
101294.92
101294.93
101294.94
101294.93
101293.42
101293.43
101293.42
101293.41
101293.12
101291.5
101291.78
101291.8
101291.8
101291.8
101290.03
101290.03
101290.03
101290.01
101289.74
101287.82
101288.08
101288.09
101288.1
101288.1
101285.97
101285.98
101285.97
101285.96
101285.72
101283.41
101283.61
101283.62
101283.63
101283.62
101281
101281.01
101281
101280.99
101280.84
101277.98
101278.06
101278.07
101278.08
101278.07
101274.78
101274.79
101274.78
101274.78
101274.77
101271.16
101271.07
101271.07
101271.08
101271.06
101266.86
101266.88
101266.88
101266.89
101267.07
101262.43
101262.14
101262.12
101262.12
101262.1
101256.66
101256.69
101256.7
101256.73
101257.14
101251.08
101250.54
101250.5
101250.48
101250.44
101243.29
101243.34
101243.38
101243.44
101244.12
101236.07
101235.23
101235.15
101235.09
101235.03
101225.43
101225.5
101225.58
101225.69
101226.72
101215.78
101214.53
101214.38
101214.28
101214.19
101200.93
101201.05
101201.19
101201.38
101202.89
101187.47
101185.65
101185.4
101185.21
101185.07
101165.88
101166.07
101166.31
101166.63
101168.78
101146.51
101144.1
101143.68
101143.35
101143.1
101115.08
101115.41
101115.87
101116.41
101118.68
101079.41
101078.13
101077.46
101076.85
101076.42
101032.21
101032.74
101033.6
101034.52
101035.48
101019.75
101013.68
101011.87
101010.41
101009.66
100932.03
100932.54
100932.88
100934.45
100936.8
100627.96
100531.51
100523.45
100518.06
100508.3
100411.93
100444.2
100467.54
100494.47
100735.75
101085.87
101107.99
101106.58
101105.29
101096.16
100841.86
100872.79
100900.88
100928.28
101151.81
101594.7
101950.67
101991.57
102027.02
102062.06
101054.47
101077.25
101094.74
101109.58
101193.89
100957.36
100882.97
100870.36
100860.95
100837.65
100901.94
100905.01
100905.65
100906.29
100900.68
100552.03
100341.24
100316.12
100294.39
100266.53
100916.16
100916.76
100916.52
100917.2
100917.65
101022.65
101014.98
101013.06
101011.55
101010.97
101029.65
101030.22
101031.16
101032.22
101035.79
101078.26
101075.98
101075.26
101074.6
101074.11
101113.29
101113.67
101114.18
101114.77
101117.43
101145.37
101142.84
101142.38
101142
101141.71
101164.91
101165.14
101165.43
101165.79
101167.9
101186.8
101185.09
101184.81
101184.58
101184.41
101200.48
101200.62
101200.79
101201.01
101202.4
101215.42
101214.28
101214.11
101213.98
101213.87
101225.2
101225.28
101225.38
101225.51
101226.44
101235.85
101235.08
101234.99
101234.92
101234.85
101243.14
101243.19
101243.24
101243.31
101243.94
101250.93
101250.42
101250.38
101250.35
101250.31
101256.55
101256.58
101256.59
101256.62
101257.01
101262.33
101262.05
101262.04
101262.03
101262
101266.8
101266.81
101266.81
101266.82
101267
101271.11
101271.02
101271.02
101271.02
101271.01
101274.73
101274.74
101274.74
101274.73
101274.74
101277.96
101278.02
101278.03
101278.04
101278.03
101280.96
101280.97
101280.96
101280.95
101280.83
101283.4
101283.57
101283.58
101283.59
101283.58
101285.93
101285.94
101285.93
101285.92
101285.72
101287.82
101288.04
101288.05
101288.06
101288.05
101289.99
101290
101289.99
101289.97
101289.74
101291.5
101291.74
101291.76
101291.76
101291.76
101293.39
101293.39
101293.39
101293.37
101293.12
101294.63
101294.88
101294.9
101294.9
101294.9
101296.31
101296.31
101296.3
101296.29
101296.05
101297.38
101297.62
101297.63
101297.64
101297.63
101298.86
101298.87
101298.86
101298.85
101298.63
101298.65
101298.87
101298.88
101298.89
101298.88
101297.65
101297.65
101297.65
101297.63
101297.39
101296.06
101296.31
101296.32
101296.33
101296.33
101294.92
101294.93
101294.92
101294.91
101294.65
101293.14
101293.4
101293.41
101293.42
101293.41
101291.79
101291.79
101291.79
101291.77
101291.52
101289.76
101290
101290.02
101290.02
101290.02
101288.09
101288.1
101288.09
101288.08
101287.84
101285.74
101285.95
101285.96
101285.97
101285.96
101283.61
101283.62
101283.61
101283.6
101283.42
101280.86
101280.99
101281
101281.01
101281
101278.07
101278.08
101278.07
101278.06
101277.98
101274.77
101274.78
101274.78
101274.79
101274.78
101271.06
101271.08
101271.07
101271.07
101271.14
101267.03
101266.88
101266.87
101266.87
101266.85
101262.08
101262.1
101262.11
101262.12
101262.37
101257.04
101256.69
101256.66
101256.64
101256.61
101250.38
101250.42
101250.45
101250.5
101250.97
101243.97
101243.38
101243.31
101243.27
101243.22
101234.93
101234.99
101235.06
101235.15
101235.89
101226.47
101225.57
101225.45
101225.36
101225.28
101213.95
101214.05
101214.17
101214.33
101215.44
101202.42
101201.05
101200.85
101200.69
101200.56
101184.51
101184.67
101184.88
101185.15
101186.83
101167.94
101165.86
101165.52
101165.24
101165.04
101141.76
101142.03
101142.39
101142.83
101145.4
101117.57
101114.7
101114.14
101113.67
101113.31
101074.24
101074.69
101075.31
101076
101078.7
101034.06
101030.47
101029.51
101028.66
101028.14
101004.99
101005.49
101006.88
101008.73
101018.12
100934.86
100936.04
100935.74
100936.42
100936.39
100428.3
100442.52
100450.3
100461.31
100572.01
100660.65
100394.36
100359.92
100329.91
100290.06
101585.27
101573.37
101560.77
101543.84
101362.64
101006.74
100885.6
100872.12
100863.62
100843.58
101222.32
101138.36
101208.04
101125.08
100947.11
100925.65
100906.1
100878.4
101381.14
101377.87
101374.33
101368.49
101313.41
101716.73
101726.36
101731.3
101729.22
101708.76
101457.54
101525.27
101521.89
101515.83
101493.89
101073.75
101107.61
101123.8
101142.29
101233.35
101459.6
101502.73
101505.96
101505.19
101502.74
101485.32
101771.34
101442.02
101518.4
101310.27
101312.53
101305.82
101310.25
101307.22
101305.44
101306.71
101307.16
101298.82
101298.83
101298.82
101298.81
101298.61
101297.36
101297.59
101297.6
101297.6
101297.6
101296.29
101296.29
101296.29
101296.28
101296.04
101294.65
101294.89
101294.9
101294.91
101294.9
101293.4
101293.41
101293.4
101293.39
101293.15
101291.53
101291.77
101291.79
101291.79
101291.79
101290.03
101290.03
101290.03
101290.01
101289.78
101287.87
101288.08
101288.1
101288.1
101288.1
101285.98
101285.99
101285.98
101285.97
101285.77
101283.46
101283.63
101283.64
101283.65
101283.64
101281.02
101281.03
101281.02
101281.01
101280.89
101278.02
101278.09
101278.09
101278.1
101278.09
101274.8
101274.81
101274.8
101274.8
101274.81
101271.18
101271.1
101271.1
101271.1
101271.09
101266.87
101266.89
101266.89
101266.9
101267.07
101262.4
101262.13
101262.12
101262.11
101262.08
101256.62
101256.65
101256.67
101256.71
101257.07
101250.96
101250.49
101250.44
101250.41
101250.37
101243.18
101243.24
101243.28
101243.35
101243.94
101235.81
101235.1
101235.01
101234.94
101234.87
101225.18
101225.27
101225.37
101225.49
101226.35
101215.27
101214.23
101214.07
101213.95
101213.84
101200.43
101200.57
101200.73
101200.94
101202.19
101186.54
101185.03
101184.77
101184.56
101184.39
101164.95
101165.17
101165.45
101165.78
101167.59
101144.96
101142.86
101142.42
101142.06
101141.78
101113.29
101113.66
101114.14
101114.69
101116.82
101076.9
101075.29
101074.62
101074
101073.54
101030.3
101030.84
101031.7
101032.64
101034.42
101021.41
101017.37
101015.65
101014.21
101013.51
100898.99
100900.16
100901.19
100902.75
100904.85
100558.62
100383.41
100364.71
100349.77
100329.32
100888.94
100897.19
100898.17
100900.51
100904.69
100876.63
100723.33
100703.31
100686.15
100653.81
101262.25
101269.2
101280.43
101287.33
101320.32
101554.49
101557.28
101562.08
101550.35
101380.98
101403.31
101402.49
101407.83
101358.06
101374.77
101420.68
101409.22
101401.44
101374.77
102344.62
102302.29
102265.87
102219.32
101858.96
101769.21
102017.11
102038.39
102053.94
102069.99
101261.8
101268.78
101280.03
101286.96
101320.17
100876.56
100723.18
100703.16
100686.01
100653.67
100888.99
100897.23
100898.2
100900.54
100904.73
100558.67
100383.42
100364.72
100349.79
100329.34
100899.14
100900.31
100901.35
100902.91
100905.03
101021.56
101017.54
101015.82
101014.39
101013.68
101030.44
101030.98
101031.83
101032.77
101034.54
101076.99
101075.39
101074.73
101074.11
101073.64
101113.38
101113.75
101114.23
101114.78
101116.89
101145.02
101142.93
101142.5
101142.14
101141.86
101165.01
101165.23
101165.51
101165.84
101167.63
101186.56
101185.07
101184.81
101184.6
101184.43
101200.45
101200.59
101200.75
101200.96
101202.19
101215.25
101214.23
101214.07
101213.94
101213.84
101225.17
101225.25
101225.35
101225.47
101226.32
101235.77
101235.06
101234.97
101234.9
101234.83
101243.13
101243.19
101243.24
101243.31
101243.88
101250.9
101250.44
101250.38
101250.35
101250.31
101256.55
101256.58
101256.61
101256.64
101257
101262.32
101262.05
101262.03
101262.02
101261.99
101266.79
101266.81
101266.81
101266.82
101266.99
101271.1
101271.01
101271.01
101271.01
101271
101274.72
101274.73
101274.72
101274.72
101274.74
101277.96
101278.01
101278.02
101278.02
101278.01
101280.95
101280.96
101280.95
101280.94
101280.83
101283.4
101283.56
101283.57
101283.57
101283.56
101285.92
101285.92
101285.92
101285.91
101285.72
101287.82
101288.03
101288.04
101288.05
101288.04
101289.98
101289.98
101289.98
101289.96
101289.74
101291.5
101291.73
101291.74
101291.75
101291.74
101293.37
101293.37
101293.37
101293.36
101293.12
101294.63
101294.86
101294.88
101294.88
101294.87
101296.28
101296.29
101296.28
101296.27
101296.04
101297.36
101297.59
101297.6
101297.6
101297.6
101298.86
101298.86
101298.86
101298.85
101298.62
101299.83
101300.06
101300.08
101300.08
101300.08
101298.57
101298.79
101298.8
101298.81
101298.8
101297.58
101297.59
101297.58
101297.57
101297.33
101296.01
101296.26
101296.27
101296.28
101296.27
101294.88
101294.89
101294.88
101294.87
101294.61
101293.11
101293.37
101293.38
101293.39
101293.38
101291.77
101291.77
101291.76
101291.75
101291.49
101289.74
101289.99
101290
101290.01
101290.01
101288.08
101288.09
101288.08
101288.07
101287.83
101285.74
101285.95
101285.97
101285.97
101285.97
101283.62
101283.63
101283.62
101283.6
101283.43
101280.86
101281
101281.01
101281.02
101281.01
101278.09
101278.09
101278.08
101278.07
101278
101274.78
101274.79
101274.8
101274.8
101274.8
101271.08
101271.09
101271.08
101271.08
101271.16
101267.06
101266.89
101266.88
101266.88
101266.86
101262.08
101262.1
101262.1
101262.12
101262.39
101257.07
101256.68
101256.65
101256.64
101256.61
101250.35
101250.39
101250.42
101250.46
101250.97
101243.98
101243.34
101243.27
101243.23
101243.18
101234.86
101234.93
101235
101235.09
101235.88
101226.45
101225.5
101225.38
101225.28
101225.19
101213.84
101213.95
101214.08
101214.25
101215.41
101202.37
101200.95
101200.73
101200.56
101200.42
101184.32
101184.5
101184.73
101185.01
101186.75
101167.82
101165.68
101165.32
101165.02
101164.79
101141.55
101141.84
101142.23
101142.7
101145.26
101117.28
101114.58
101113.99
101113.48
101113.1
101073.9
101074.39
101075.05
101075.77
101078.08
101035.58
101032
101030.93
101029.98
101029.42
101010.75
101011.33
101012.84
101014.76
101022.43
100917.44
100917.03
100916.35
100916.59
100916
100266.4
100294.25
100316
100341.12
100551.86
100900.54
100906.12
100905.47
100904.83
100901.75
100837.55
100860.85
100870.25
100882.85
100957.13
101193.61
101109.83
101095.07
101077.65
101054.97
102060.93
102026
101990.62
101949.71
101593.76
101151.29
100928.16
100900.84
100872.82
100841.99
101384.54
101379.55
101374.46
101366.44
101287.92
101206.02
101252.78
101257.06
101260.67
101257.82
100874.07
100899.01
100911.6
100929.54
101072.19
101006.42
100884.79
100871.29
100862.78
100842.66
100959.16
100978.25
100987.25
100997.71
101085.35
101125.44
100947.01
100925.5
100905.91
100878.18
101381.59
101378.32
101374.78
101368.94
101313.65
100898.63
100755.33
100733
100710.85
100678.07
100874.37
100881.97
100884.28
100887.98
100906.73
100548.18
100369.89
100351.17
100336.46
100314.51
100902.81
100904.1
100905.36
100906.77
100906.01
101021.95
101018.12
101016.32
101014.8
101014.15
101030.19
101030.74
101031.65
101032.61
101034.13
101077.06
101075.73
101075.05
101074.42
101073.94
101113.77
101114.14
101114.62
101115.17
101117.07
101145.12
101143.2
101142.77
101142.41
101142.13
101165.2
101165.41
101165.69
101166.02
101167.68
101186.59
101185.19
101184.93
101184.72
101184.55
101200.54
101200.67
101200.83
101201.03
101202.21
101215.26
101214.28
101214.12
101214
101213.89
101225.21
101225.29
101225.39
101225.51
101226.33
101235.77
101235.09
101235
101234.93
101234.86
101243.15
101243.21
101243.26
101243.33
101243.89
101250.9
101250.45
101250.4
101250.37
101250.33
101256.56
101256.59
101256.62
101256.65
101257
101262.33
101262.08
101262.06
101262.05
101262.02
101266.79
101266.81
101266.82
101266.83
101266.99
101271.1
101271.02
101271.01
101271.01
101271
101274.72
101274.73
101274.73
101274.72
101274.74
101277.96
101278.01
101278.02
101278.02
101278.01
101280.94
101280.95
101280.94
101280.94
101280.83
101283.4
101283.56
101283.57
101283.57
101283.57
101285.92
101285.92
101285.92
101285.91
101285.72
101287.82
101288.03
101288.05
101288.05
101288.05
101289.97
101289.98
101289.97
101289.96
101289.73
101291.49
101291.73
101291.74
101291.75
101291.74
101293.36
101293.37
101293.36
101293.35
101293.11
101294.62
101294.86
101294.87
101294.88
101294.87
101296.28
101296.29
101296.28
101296.27
101296.03
101297.36
101297.59
101297.6
101297.61
101297.6
101298.85
101298.85
101298.85
101298.84
101298.61
101299.79
101299.99
101300
101300
101300
101298.65
101298.86
101298.87
101298.87
101298.87
101297.63
101297.64
101297.63
101297.62
101297.39
101296.06
101296.3
101296.31
101296.32
101296.31
101294.92
101294.92
101294.92
101294.9
101294.66
101293.15
101293.4
101293.41
101293.42
101293.41
101291.79
101291.8
101291.79
101291.78
101291.54
101289.78
101290.01
101290.03
101290.03
101290.03
101288.11
101288.11
101288.1
101288.09
101287.87
101285.77
101285.97
101285.98
101285.99
101285.98
101283.63
101283.64
101283.63
101283.62
101283.46
101280.89
101281.01
101281.02
101281.02
101281.02
101278.09
101278.1
101278.1
101278.09
101278.03
101274.8
101274.8
101274.81
101274.81
101274.8
101271.07
101271.09
101271.09
101271.09
101271.17
101267.06
101266.9
101266.89
101266.89
101266.87
101262.08
101262.1
101262.11
101262.13
101262.39
101257.06
101256.71
101256.67
101256.65
101256.62
101250.38
101250.42
101250.46
101250.5
101250.96
101243.94
101243.37
101243.3
101243.25
101243.2
101234.89
101234.96
101235.03
101235.12
101235.81
101226.36
101225.53
101225.41
101225.31
101225.23
101213.89
101214
101214.12
101214.28
101215.28
101202.21
101201.02
101200.82
101200.66
101200.53
101184.53
101184.7
101184.91
101185.17
101186.58
101167.66
101165.98
101165.65
101165.38
101165.16
101142.1
101142.37
101142.74
101143.17
101145.09
101117.03
101115.13
101114.58
101114.09
101113.72
101073.89
101074.36
101075
101075.68
101077.01
101034.03
101032.52
101031.55
101030.64
101030.09
101014.04
101014.68
101016.2
101018.01
101021.82
100905.77
100906.59
100905.19
100903.94
100902.66
100314.28
100336.23
100350.95
100369.66
100547.93
100906.61
100887.88
100884.18
100881.88
100874.3
100678.15
100710.9
100733.01
100755.32
100898.55
101021.01
100944.53
100934.97
100925.47
100908.82
100667.06
100687.04
100699.12
100713.69
100830.62
100603.82
100460.05
100446.9
100437.42
100422.75
100917.27
100917.86
100918.72
100920.24
100926.98
101023.38
101017.53
101015.92
101014.59
101014.05
101031.94
101032.39
101033.17
101034.01
101035.46
101078.48
101076.99
101076.38
101075.82
101075.43
101114.79
101115.09
101115.51
101116.01
101118.36
101146.33
101143.89
101143.51
101143.2
101142.98
101165.84
101166.01
101166.24
101166.53
101168.67
101187.4
101185.61
101185.38
101185.21
101185.07
101200.95
101201.05
101201.19
101201.36
101202.84
101215.76
101214.55
101214.41
101214.31
101214.22
101225.48
101225.55
101225.63
101225.73
101226.72
101236.09
101235.28
101235.2
101235.15
101235.1
101243.36
101243.4
101243.44
101243.5
101244.14
101251.11
101250.6
101250.56
101250.54
101250.51
101256.72
101256.75
101256.76
101256.79
101257.17
101262.46
101262.2
101262.18
101262.18
101262.16
101266.93
101266.94
101266.94
101266.95
101267.11
101271.2
101271.13
101271.13
101271.14
101271.12
101274.83
101274.84
101274.84
101274.83
101274.81
101278.02
101278.11
101278.12
101278.13
101278.12
101281.04
101281.05
101281.04
101281.03
101280.88
101283.44
101283.65
101283.66
101283.67
101283.66
101286.01
101286.01
101286
101285.99
101285.75
101287.85
101288.11
101288.12
101288.13
101288.13
101290.05
101290.06
101290.05
101290.04
101289.76
101291.51
101291.8
101291.82
101291.82
101291.82
101293.44
101293.44
101293.44
101293.42
101293.13
101294.64
101294.93
101294.94
101294.95
101294.94
101296.34
101296.34
101296.33
101296.32
101296.04
101297.37
101297.64
101297.65
101297.66
101297.65
101298.88
101298.89
101298.88
101298.87
101298.63
101298.59
101298.84
101298.85
101298.85
101298.85
101297.63
101297.63
101297.63
101297.62
101297.34
101296.02
101296.3
101296.31
101296.32
101296.31
101294.92
101294.93
101294.92
101294.91
101294.62
101293.12
101293.41
101293.42
101293.43
101293.43
101291.81
101291.81
101291.81
101291.79
101291.5
101289.75
101290.03
101290.05
101290.05
101290.05
101288.12
101288.13
101288.12
101288.11
101287.84
101285.75
101285.99
101286
101286.01
101286
101283.66
101283.67
101283.66
101283.65
101283.44
101280.88
101281.04
101281.05
101281.06
101281.05
101278.12
101278.13
101278.13
101278.12
101278.02
101274.82
101274.83
101274.84
101274.84
101274.83
101271.12
101271.14
101271.13
101271.13
101271.21
101267.12
101266.94
101266.94
101266.94
101266.92
101262.15
101262.17
101262.18
101262.19
101262.48
101257.18
101256.78
101256.75
101256.74
101256.71
101250.49
101250.52
101250.55
101250.59
101251.13
101244.15
101243.47
101243.41
101243.37
101243.33
101235.05
101235.11
101235.16
101235.25
101236.1
101226.73
101225.69
101225.57
101225.5
101225.43
101214.16
101214.25
101214.35
101214.49
101215.76
101202.83
101201.3
101201.11
101200.97
101200.86
101184.95
101185.09
101185.27
101185.52
101187.37
101168.63
101166.42
101166.12
101165.88
101165.7
101142.83
101143.07
101143.39
101143.79
101146.31
101118.33
101115.83
101115.32
101114.89
101114.57
101075.26
101075.68
101076.24
101076.87
101078.7
101036.38
101034.19
101033.32
101032.54
101032.01
101011.57
101012.3
101013.66
101015.32
101023.03
100926.97
100919.65
100918.45
100917.8
100917.33
100490.06
100498.47
100502.39
100510.3
100611.88
100786.02
100562.6
100535.28
100509.16
100475.1
101008.51
101013.83
101014.25
101014.48
101026.52
101118.4
100927.09
100906.2
100889.83
100862.8
101467.89
101494.83
101516.64
101535.29
101542.99
101179.38
101138.06
101128.26
101117.97
101100.98
100960.27