/*--------------------------------*- C++ -*----------------------------------*\
  =========                 |
  \\      /  F ield         | OpenFOAM: The Open Source CFD Toolbox
   \\    /   O peration     | Website:  https://openfoam.org
    \\  /    A nd           | Version:  7
     \\/     M anipulation  |
\*---------------------------------------------------------------------------*/
FoamFile
{
    version     2.0;
    format      ascii;
    class       surfaceScalarField;
    location    "260";
    object      phi;
}
// * * * * * * * * * * * * * * * * * * * * * * * * * * * * * * * * * * * * * //

dimensions      [1 0 -1 0 0 0 0];

internalField   nonuniform List<scalar> 
74673
(
6.2846852e-07
-0.0022340779
-1.7212305e-07
8.8995942e-07
-0.002693183
-1.992824e-07
9.9011127e-07
-0.0030697285
-2.1886462e-07
1.0162958e-06
-0.0034522452
-2.3891286e-07
-0.056435271
-4.0103932e-06
-4.8445883e-07
-1.0888959e-06
-0.056432327
-3.5537769e-06
2.1024569e-06
-4.0294829e-07
-1.0510725e-06
-0.0034522971
-2.0638117e-07
2.2066392e-07
-9.3371292e-07
-0.0030698575
-1.8913221e-07
2.0101081e-07
-6.4874836e-07
-0.0026934749
-1.721114e-07
1.7944792e-07
-0.0022347291
-1.4745828e-07
1.4990169e-07
6.7278208e-07
-0.0022354111
-9.9817098e-08
1.0916141e-07
9.5712339e-07
-0.0026937751
-1.1619422e-07
1.3207824e-07
1.0677146e-06
-0.0030699895
-1.2728038e-07
1.4863594e-07
1.0939083e-06
-0.0034523475
-1.3931536e-07
1.6345498e-07
-0.056429536
-2.5567779e-06
1.5728149e-06
-7.1419328e-07
-1.1338426e-06
-0.056426809
-1.5026418e-06
9.5144865e-07
-1.0419265e-06
-1.1056064e-06
-0.0034523983
-7.3707562e-08
9.619815e-08
-9.9485443e-07
-0.0030701199
-6.7532781e-08
8.7085815e-08
-7.0041768e-07
-0.0026940838
-6.262005e-08
7.6709739e-08
-0.0022361193
-5.4463953e-08
6.2201479e-08
7.2761306e-07
-0.0022368546
-1.6539318e-08
2.38752e-08
1.0300959e-06
-0.0026944003
-1.7814328e-08
3.1552343e-08
1.1427291e-06
-0.0030702522
-1.7553149e-08
3.705835e-08
1.168505e-06
-0.0034524468
-1.9156744e-08
4.1771033e-08
-0.056424159
-6.4085017e-07
4.5267722e-07
-1.2935354e-06
-1.2077104e-06
-0.05642161
-6.9122069e-08
1.2653381e-07
-1.398892e-06
-1.183991e-06
-0.0034524937
1.6357752e-08
6.7052674e-09
-1.0687951e-06
-0.0030703874
1.4896221e-08
4.9599383e-09
-7.5552724e-07
-0.0026947282
1.1488364e-08
2.7438558e-09
-0.0022376179
8.5049994e-09
-6.9877862e-10
7.820381e-07
-0.0022384087
2.2858644e-08
-1.4581215e-08
1.1063442e-06
-0.0026950673
2.8087414e-08
-1.3537292e-08
1.2237331e-06
-0.0030705252
3.3197012e-08
-1.2999388e-08
1.2522643e-06
-0.0034525454
3.6128815e-08
-1.3005118e-08
-0.056419192
2.50516e-07
-5.953485e-08
-1.356497e-06
-1.3030634e-06
-0.056417011
4.2717579e-07
-1.4008444e-07
-1.1661859e-06
-1.2689434e-06
-0.0034526041
4.6965626e-08
-2.263518e-08
-1.1468482e-06
-0.0030706689
4.3332001e-08
-2.2071956e-08
-8.1381095e-07
-0.0026954165
3.7477976e-08
-2.1921116e-08
-0.0022392317
3.1052399e-08
-2.1906332e-08
8.4389264e-07
-0.0022401008
3.8678182e-08
-1.4209329e-08
1.1877474e-06
-0.002695793
4.581611e-08
-1.3549123e-08
1.3202161e-06
-0.0030708404
5.2178327e-08
-1.3411772e-08
1.3598877e-06
-0.0034526863
5.6138339e-08
-1.3765232e-08
-0.056415344
5.7043739e-07
-1.0224339e-07
-7.7511461e-07
-1.4382999e-06
-0.056414189
7.2338978e-07
-2.1318195e-07
-2.2728321e-07
-1.3814512e-06
-0.0034527736
6.4707079e-08
-3.4491377e-08
-1.2403026e-06
-0.0030710085
6.026322e-08
-3.3523268e-08
-8.7875635e-07
-0.0026961758
5.3509651e-08
-3.2923152e-08
-0.0022409933
4.566112e-08
-3.1848484e-08
9.1810313e-07
-0.0022419294
5.2063652e-08
-3.489083e-08
1.30457e-06
-0.0026965873
6.0959572e-08
-3.6269065e-08
1.4659004e-06
-0.0030712015
6.8301812e-08
-3.6964118e-08
1.5440387e-06
-0.0034528869
7.3040583e-08
-3.7948463e-08
-0.0564138
8.8143054e-07
-2.2741095e-07
5.0036696e-07
-1.700333e-06
-0.056414374
1.056455e-06
-2.2925262e-07
1.4471277e-06
-1.582152e-06
-0.003453045
8.0536656e-08
-4.0924012e-08
-1.3893432e-06
-0.0030714298
7.5373348e-08
-4.0153848e-08
-9.7133155e-07
-0.0026970343
6.7675779e-08
-3.9348246e-08
-0.0022429208
5.7736849e-08
-3.7657181e-08
1.0426519e-06
-0.0022439859
6.2162645e-08
-4.033425e-08
1.5150278e-06
-0.0026975381
7.3465764e-08
-4.2377833e-08
1.7618765e-06
-0.003071716
8.2161023e-08
-4.3108417e-08
1.935411e-06
-0.003453263
8.7955651e-08
-4.3556611e-08
-0.056416207
1.2571671e-06
-2.2315271e-07
2.7345103e-06
-2.2992217e-06
-0.05641972
1.5154793e-06
-2.1129765e-07
4.507263e-06
-2.0307522e-06
-0.00345358
9.4216965e-08
-4.5898274e-08
-1.7027101e-06
-0.003072086
8.7469577e-08
-4.5707559e-08
-1.1441028e-06
-0.0026981292
7.7237511e-08
-4.5250871e-08
-0.0022451497
6.3267757e-08
-4.3640002e-08
1.2873165e-06
-0.0022464505
6.1522195e-08
-4.85323e-08
1.97582e-06
-0.0026988472
7.8576548e-08
-4.9372266e-08
2.4345179e-06
-0.003072587
9.1344335e-08
-4.9257076e-08
2.8394294e-06
-0.003454036
9.9918066e-08
-4.886029e-08
-0.05642532
1.8432762e-06
-1.9098976e-07
6.7871605e-06
-3.6084895e-06
-0.056433367
2.2388077e-06
-1.6331478e-07
9.5796863e-06
-3.0037839e-06
-0.0034546912
1.0303244e-07
-5.2714685e-08
-2.3593273e-06
-0.0030732695
9.1653502e-08
-5.3766889e-08
-1.4816658e-06
-0.0026997466
7.5940651e-08
-5.4598329e-08
-0.0022479327
5.4753102e-08
-5.4229891e-08
1.7453995e-06
-0.0022496593
4.0380284e-08
-5.9361297e-08
2.8811288e-06
-0.0027008897
6.819019e-08
-6.0837894e-08
3.7913601e-06
-0.0030742087
8.899427e-08
-6.0137492e-08
4.6648656e-06
-0.0034556108
1.0416438e-07
-5.8150792e-08
-0.056444367
2.7584848e-06
-1.388636e-07
1.3044966e-05
-6.0651231e-06
-0.056458915
3.4492354e-06
-1.9543513e-07
1.7358791e-05
-4.8298593e-06
-0.0034568701
1.0161134e-07
-7.7813888e-08
-3.5717829e-06
-0.0030754679
8.0636616e-08
-7.9818852e-08
-2.0876374e-06
-0.002702348
5.2593166e-08
-7.9133816e-08
-0.0022516887
1.5907869e-08
-7.4143511e-08
2.5119677e-06
-0.0022541298
-1.6686927e-08
-5.5104918e-08
4.4377278e-06
-0.0027042405
2.761684e-08
-6.1280039e-08
6.1481993e-06
-0.0030771798
6.3327169e-08
-6.2143135e-08
7.845058e-06
-0.0034585994
9.1874632e-08
-5.9550756e-08
-0.056477832
4.238605e-06
-7.1882517e-08
2.2594864e-05
-1.0025618e-05
-0.056501672
5.094127e-06
1.7349209e-08
2.8754526e-05
-7.7663162e-06
-0.0034608853
7.677319e-08
-5.0516408e-08
-5.4937143e-06
-0.0030794384
3.9346993e-08
-5.3709307e-08
-3.0234709e-06
-0.0027066552
-4.0648298e-09
-5.2236999e-08
-0.002257055
-5.374765e-08
-4.454092e-08
3.6497957e-06
-0.0022605764
-1.003312e-07
-2.881654e-08
6.785909e-06
-0.0027097111
-4.2781751e-08
-3.776366e-08
9.7411595e-06
-0.0030823645
1.0034996e-08
-3.954653e-08
1.2694396e-05
-0.0034638608
5.774335e-08
-3.5479393e-08
-0.056531312
6.1025924e-06
1.3238379e-07
3.6099198e-05
-1.59491e-05
-0.056567881
7.3361314e-06
2.6743872e-07
4.4914418e-05
-1.2154275e-05
-0.0034676755
3.3277189e-08
-1.367965e-08
-8.3662174e-06
-0.0030861071
-2.7325407e-08
-1.8393656e-08
-4.4146325e-06
-0.0027135549
-9.1880324e-08
-1.6726466e-08
-0.0022648243
-1.5931709e-07
-7.4578882e-09
5.3609795e-06
-0.0022699742
-2.2909065e-07
1.7124878e-08
1.0313062e-05
-0.0027183662
-1.5082688e-07
9.5945225e-09
1.5127688e-05
-0.0030908588
-7.1870661e-08
8.6558539e-09
1.9954082e-05
-0.0034725211
4.6006192e-09
1.4513847e-08
-0.056612841
8.9051759e-06
4.2167023e-07
5.5587105e-05
-2.4942134e-05
-0.056668116
1.1007517e-05
5.5183798e-07
6.8657519e-05
-1.8837219e-05
-0.0034786487
-2.1574891e-08
4.3988631e-08
-1.2748554e-05
-0.003096867
-1.1815101e-07
3.7304244e-08
-6.5404251e-06
-0.0027243973
-2.1416712e-07
3.6419186e-08
-0.0022762503
-3.0355906e-07
3.9302796e-08
8.043959e-06
-0.0022839772
-3.6651538e-07
4.8699414e-08
1.5829601e-05
-0.0027319699
-2.65256e-07
5.1911287e-08
2.3526886e-05
-0.0031044706
-1.4866556e-07
5.4793337e-08
3.1249361e-05
-0.0034864062
-2.6680775e-08
6.1684707e-08
-0.056736385
1.3950468e-05
5.7557478e-07
8.4991745e-05
-3.9261295e-05
-0.056821616
1.8111545e-05
3.1841193e-07
0.00010606214
-2.9495942e-05
-0.0034962376
2.5831414e-08
3.9909751e-08
-1.9757973e-05
-0.0031141169
-1.2737107e-07
3.5470366e-08
-9.9641794e-06
-0.0027415282
-2.6896354e-07
3.2941747e-08
-0.0022935823
-3.8903647e-07
2.9988078e-08
1.2429967e-05
-0.0023056448
-3.1947572e-07
-4.8777012e-08
2.4829029e-05
-0.0027536993
-1.7257561e-07
-5.5737768e-08
3.7210209e-05
-0.0031264389
-5.7054078e-10
-5.8912016e-08
4.9630959e-05
-0.0035087866
1.8948001e-07
-6.1244601e-08
-0.056929303
2.3771862e-05
-5.0367443e-07
0.00013405011
-6.3327495e-05
-0.057067303
3.1812739e-05
-2.2331476e-06
0.0001717471
-4.739533e-05
-0.0035249769
5.35756e-07
-2.7774737e-07
-3.1516025e-05
-0.0031423537
2.9658204e-07
-2.612346e-07
-1.5663866e-05
-0.0027693929
8.5300209e-08
-2.4432439e-07
-0.0023210043
-8.6006407e-08
-2.1831007e-07
1.9955339e-05
-0.00234076
2.4939663e-07
-4.4975741e-07
4.0043765e-05
-0.0027894069
4.2528285e-07
-5.0010891e-07
6.023225e-05
-0.0031626743
6.6704199e-07
-5.3518948e-07
8.0513688e-05
-0.0035456448
9.5614115e-07
-5.6972927e-07
-0.05724776
4.1331898e-05
-4.6755226e-06
0.00022431455
-0.00010352196
-0.057494585
5.138899e-05
-7.5822334e-06
0.00030653984
-7.7140599e-05
-0.0035725167
1.3219471e-06
-8.3198656e-07
-5.1112368e-05
-0.0031889152
9.9399057e-07
-7.8203899e-07
-2.5428694e-05
-0.0028151057
7.5989422e-07
-7.4632663e-07
-0.0023660973
6.4368149e-07
-7.3512008e-07
3.4097882e-05
-0.0023998462
1.167949e-06
-1.5184873e-06
7.2726021e-05
-0.0028536683
1.1207873e-06
-1.1871369e-06
0.00011240502
-0.0032287487
1.2909208e-06
-1.1368804e-06
0.00015265164
-0.0036133258
1.7866569e-06
-1.2241283e-06
-0.057831408
7.4116325e-05
-1.3280815e-05
0.00042863938
-0.00023277764
-0.058150283
9.7791264e-05
-1.5681422e-05
0.0004695429
-0.00017107069
-0.0036745931
1.1389387e-06
-1.5795489e-06
-0.00010822138
-0.0032903603
2.4284099e-07
-1.4816991e-06
-4.8602924e-05
-0.0029113705
-1.0643767e-07
-1.8122583e-06
-0.0024448679
-8.3358598e-07
-2.7476292e-06
9.7559384e-05
-0.0025286932
-1.3618672e-05
-1.1529932e-07
0.00018019523
-0.0029843264
-7.8613804e-06
-1.8183511e-06
0.0002567898
-0.0033609755
-4.1372378e-06
-1.8419495e-06
0.00033517703
-0.0037482172
-3.7007201e-06
-1.062389e-06
-0.058272121
6.4485204e-05
1.1162428e-05
0.00038136772
0.00010111106
-0.05966503
3.8292184e-05
-3.0244235e-05
0.0012837507
7.067362e-05
-0.0037218653
1.1528768e-05
-7.4415099e-06
4.5678721e-05
-0.0033391408
1.0467617e-05
-7.3054551e-06
2.3009032e-05
-0.0029663563
1.2598846e-05
-7.894934e-06
-0.0025171753
2.230109e-05
-1.0809919e-05
-2.516186e-05
-0.0024004617
-0.00010056402
9.0171377e-06
-5.3878577e-05
-0.0028277365
-0.00011308894
3.1879337e-06
-8.9273896e-05
-0.0031844397
-0.00012099665
1.6924969e-06
-0.00013154403
-0.0035518141
-0.00012970965
1.9287532e-06
-0.059729939
-0.0018873055
3.0450393e-05
0.0017902205
0.0005631554
-0.056473518
-0.0031100657
6.7968421e-05
-0.00077747811
0.00039130109
-0.0031925001
-0.00019991696
1.245746e-05
0.00024165287
-0.0028596009
-0.00018689029
1.169991e-05
0.00011058545
-0.0025380118
-0.00017099802
1.2341228e-05
-0.0021605996
-0.00014435123
1.5074597e-05
-2.0578386e-05
0.0020313248
-0.0021304953
-0.0020408506
-4.9740376e-05
0.0024136619
-0.0025169729
-0.0024055388
-8.0695449e-05
0.00275502
-0.0028546414
-0.0027290244
-0.00011196125
0.0031203268
-0.0032089658
-0.0030725952
0.071664403
-0.027755443
-0.034777217
-0.065717222
0.00028724963
0.087091987
-0.014455944
-0.0043689549
0.00018884628
0.0038338832
-0.00081506979
9.9475218e-05
0.0033804988
-0.00072299784
2.8641808e-05
0.0029539503
-0.0006404526
0.0024691436
-0.00055352826
-9.7933077e-05
0.0024734958
-6.9788436e-06
-0.00019591373
0.0029629058
-2.4062106e-05
-0.00029652935
0.0033958474
-3.5728216e-05
-0.00040665704
0.0038601215
-4.5820079e-05
0.085449115
-0.0015996424
0.00094855211
-0.00025327283
0.085033455
-0.0005540641
0.00126129
-0.00020270214
0.0038646832
-4.3603335e-05
-0.00015404899
0.0033976656
-4.0003326e-05
-9.4587047e-05
0.0029576033
-4.1559794e-05
0.0024512388
-5.0028937e-05
6.1301169e-05
0.0023820657
-5.7465079e-06
0.00013353913
0.002888367
-1.0862974e-05
0.00021317831
0.0033266055
-1.271615e-05
0.00029722269
0.0037897027
-1.2764557e-05
0.084805317
-0.00012909512
0.00071894097
-0.00022148019
0.084352129
-3.0478927e-05
0.00080293841
-0.00015763642
0.0037278648
-8.6685494e-07
-9.6950231e-05
0.00326674
-5.7770267e-07
-4.1873555e-05
0.002833262
-7.7877325e-08
0.0023381935
1.1651229e-06
3.2024042e-05
0.0023068794
4.5782053e-07
6.8911292e-05
0.002797104
3.9159298e-07
0.00010835225
0.0032283129
2.7706185e-07
0.00015040534
0.0036874265
1.7198093e-07
0.083909679
-1.8332321e-06
0.00066880548
-0.00010475052
0.083583513
1.0300578e-05
0.00047200486
-7.6420586e-05
0.0036596182
8.0027467e-07
-4.966329e-05
0.0032017768
7.72819e-07
-2.426622e-05
0.0027716812
7.8550979e-07
0.0022824643
7.9255461e-07
1.8705682e-05
0.0022631642
8.4383689e-07
3.8451731e-05
0.0027515159
8.4466826e-07
5.9260282e-05
0.0031807804
8.5485607e-07
8.1198399e-05
0.0036377476
8.8863627e-07
0.08334084
9.76507e-06
0.0003554375
-6.3059522e-05
0.083151987
5.8633307e-06
0.00027786182
-4.5900664e-05
0.0036204181
7.0639545e-07
-2.9685436e-05
0.0031641633
6.9843936e-07
-1.4342542e-05
0.0027355592
6.9902155e-07
0.0022480262
7.0938561e-07
1.1171782e-05
0.0022359772
5.5765622e-07
2.2992348e-05
0.0027230321
5.3402041e-07
3.5486944e-05
0.0031511521
5.1603219e-07
4.8751914e-05
0.0036068389
5.0366295e-07
0.083002681
2.8903873e-06
0.00021893946
-3.8305068e-05
0.082883212
1.3671183e-06
0.00017451867
-2.7916653e-05
0.0035960918
3.8451374e-07
-1.8154696e-05
0.0031408579
4.0483554e-07
-8.8900291e-06
0.002713072
4.2637145e-07
0.0022262494
4.4873917e-07
7.1821371e-06
0.0022183127
3.8794277e-07
1.453515e-05
0.0027050831
3.7055185e-07
2.2245644e-05
0.003132648
3.506671e-07
3.0458752e-05
0.0035875227
3.2924366e-07
0.082786719
7.3708598e-07
0.0001401653
-2.4407058e-05
0.082708154
5.7844198e-07
0.000113401
-1.7888847e-05
0.0035806809
3.0201977e-07
-1.1767175e-05
0.0031260864
3.2173116e-07
-5.8782349e-06
0.002698641
3.3891542e-07
0.0022117796
3.5132392e-07
4.8729978e-06
0.0022063568
3.2051274e-07
9.6109698e-06
0.0026934416
3.1057417e-07
1.4484624e-05
0.0031208453
2.9554299e-07
1.9667948e-05
0.0035752232
2.78876e-07
0.082643972
5.9624785e-07
9.2158128e-05
-1.5868514e-05
0.082591596
6.5857443e-07
7.492244e-05
-1.175846e-05
0.0035708935
2.528266e-07
-7.8870106e-06
0.00311668
2.66383e-07
-4.0665916e-06
0.0026892495
2.7961495e-07
0.0022018424
2.8850583e-07
3.4115008e-06
0.0021980755
2.5496372e-07
6.4790989e-06
0.0026858925
2.4653887e-07
9.5316389e-06
0.0031134024
2.3506714e-07
1.2762199e-05
0.0035674961
2.2459811e-07
0.082549025
7.2522024e-07
6.0710018e-05
-1.0199483e-05
0.082514702
7.7441039e-07
4.8842314e-05
-7.6940932e-06
0.0035648718
1.9556552e-07
-5.3173063e-06
0.0031108616
2.0321962e-07
-2.8663165e-06
0.0026832244
2.1284626e-07
0.0021949349
2.2053887e-07
2.4210965e-06
0.0021923097
1.8724512e-07
4.3629405e-06
0.0026811295
1.8060623e-07
6.1881603e-06
0.0031089267
1.7291363e-07
8.0953004e-06
0.0035628886
1.6790903e-07
0.082487394
7.9763135e-07
3.8844433e-05
-6.4001732e-06
0.082466166
7.4500723e-07
3.0332209e-05
-4.9735804e-06
0.0035614245
1.3894922e-07
-3.5955818e-06
0.0031074869
1.4233222e-07
-2.0555373e-06
0.0026794934
1.4840523e-07
0.0021901159
1.5409193e-07
1.7661298e-06
0.0021882657
1.2353733e-07
2.9800134e-06
0.0026782305
1.1682073e-07
4.0127373e-06
0.0031064314
1.1139191e-07
5.0587976e-06
0.0035603728
1.0981598e-07
0.082450116
6.5885693e-07
2.320798e-05
-4.0199055e-06
0.082438359
6.3619379e-07
1.7378868e-05
-3.2674996e-06
0.0035596346
8.8685162e-08
-2.5033666e-06
0.0031056704
8.8416823e-08
-1.5362518e-06
0.0026772474
9.1674487e-08
0.0021866866
9.7697059e-08
1.354155e-06
0.0021853158
7.799771e-08
2.1383175e-06
0.0026764669
7.4871125e-08
2.7038088e-06
0.0031051223
7.3900427e-08
3.2376484e-06
0.003559125
7.5672363e-08
0.082430169
6.6316663e-07
1.260822e-05
-2.6769042e-06
0.082424997
6.5676082e-07
8.7066051e-06
-2.2979802e-06
0.0035587747
6.5449366e-08
-1.8706708e-06
0.0031047194
6.2875485e-08
-1.2223252e-06
0.0026758331
6.2432435e-08
0.0021840933
6.3382169e-08
1.1178085e-06
0.0021829841
5.3449986e-08
1.6801862e-06
0.00267529
5.4101849e-08
2.0183946e-06
0.0031044078
5.5506301e-08
2.2911659e-06
0.0035585313
5.8504714e-08
0.082422269
6.3956346e-07
5.6370409e-06
-2.0311572e-06
0.082421395
6.1259866e-07
3.3483921e-06
-1.8236578e-06
0.0035583495
5.4745694e-08
-1.5466849e-06
0.0031041544
5.1630443e-08
-1.0457972e-06
0.0026748074
4.9201921e-08
0.0021819494
4.6593825e-08
9.886033e-07
0.0021809699
4.2746277e-08
1.4516512e-06
0.0026743596
4.5625813e-08
1.6925881e-06
0.0031039337
4.8028742e-08
1.8541232e-06
0.0035582102
5.0789915e-08
0.082421943
5.5579145e-07
1.6320647e-06
-1.7265628e-06
0.082423626
4.6814621e-07
2.9856654e-07
-1.5922822e-06
0.0035580943
4.6221593e-08
-1.3749783e-06
0.0031037323
4.4179133e-08
-9.4014447e-07
0.0026739361
4.2020156e-08
0.0021800365
3.8934279e-08
9.0298426e-07
0.0021791351
3.6919764e-08
1.3160024e-06
0.0026735297
3.909054e-08
1.5189433e-06
0.003103541
4.0412576e-08
1.6328533e-06
0.0035579946
4.1881003e-08
0.082426192
3.8377144e-07
-7.4681033e-07
-1.5599618e-06
0.082429354
3.0536021e-07
-1.4801734e-06
-1.4533998e-06
0.0035578972
3.7652463e-08
-1.2628665e-06
0.0031033568
3.6890276e-08
-8.63477e-07
0.0026731314
3.6139427e-08
0.0021782681
3.4513153e-08
8.3211364e-07
0.0021774275
3.115982e-08
1.2158927e-06
0.0026727439
3.1661431e-08
1.3994679e-06
0.0031031748
3.1620277e-08
1.4988485e-06
0.0035578023
3.1591305e-08
0.082432868
1.9815806e-07
-1.9631042e-06
-1.4424184e-06
0.082436599
-4.2627312e-08
-2.3156157e-06
-1.350846e-06
0.0035577117
1.5321009e-08
-1.1712532e-06
0.0031029931
1.6866109e-08
-7.9997783e-07
0.0026723653
1.8674062e-08
0.0021766155
2.0591435e-08
7.6989298e-07
0.0021758311
-2.2479049e-09
1.128056e-06
0.0026719978
-8.5772947e-09
1.3030876e-06
0.0031028141
-1.3734796e-08
1.3928586e-06
0.0035576211
-1.8391213e-08
0.082440449
-5.2114966e-07
-2.576869e-06
-1.3515575e-06
0.08244435
-1.2552234e-06
-2.7966821e-06
-1.259491e-06
0.0035575266
-7.1409579e-08
-1.0880051e-06
0.0031026371
-6.2091411e-08
-7.3967526e-07
0.0026716385
-5.1836886e-08
0.0021750755
-3.855515e-08
7.0933823e-07
0.0021743501
-8.3809245e-08
1.0494584e-06
0.0026712877
-1.0545208e-07
1.2166921e-06
0.0031024644
-1.2186037e-07
1.3074799e-06
0.0035574336
-1.3708611e-07
0.082448244
-2.1545379e-06
-2.9896896e-06
-1.3297828e-06
0.082452126
-2.9281666e-06
-3.1771688e-06
-1.2192877e-06
0.0035573128
-1.9607907e-07
-1.0336309e-06
0.0031022658
-1.7613518e-07
-6.9088645e-07
0.0026709271
-1.5433755e-07
0.0021736367
-1.2494383e-07
6.447208e-07
-1.3361432e-07
9.4201411e-07
-1.6381251e-07
1.0840363e-06
-1.8694438e-07
1.1593697e-06
-2.0834299e-07
-3.0886133e-06
-3.5841901e-06
-1.1958744e-06
-0.082446346
-7.2742801e-06
9.9711852e-06
-1.1219502e-06
-0.0035572886
-5.1738185e-07
5.9544893e-07
-9.7919143e-07
-0.003102334
-4.7087835e-07
5.4449482e-07
-6.7093092e-07
-0.0026711803
-4.1995577e-07
4.9171483e-07
-0.0021742755
-3.5058353e-07
4.1923455e-07
7.018189e-07
-0.0021750319
-2.3120071e-07
2.8553984e-07
1.0334808e-06
-0.0026715667
-2.79804e-07
3.3441101e-07
1.1994361e-06
-0.0031025538
-3.1558347e-07
3.6932167e-07
1.2855461e-06
-0.0035574303
-3.4770394e-07
4.0327266e-07
-0.082442817
-4.9770082e-06
6.8417363e-06
-4.108126e-06
-1.3028097e-06
-0.082439067
-2.9232207e-06
4.0891566e-06
-3.6133266e-06
-1.223924e-06
-0.0035575456
-1.981067e-07
2.3431097e-07
-1.0643774e-06
-0.0031027498
-1.7892601e-07
2.1510977e-07
-7.2878471e-07
-0.0026719414
-1.5710684e-07
1.957804e-07
-0.0021758011
-1.2741973e-07
1.6780463e-07
7.5854718e-07
-0.0021765905
-5.1348791e-08
8.172738e-08
1.1081386e-06
-0.0026723185
-6.7392413e-08
9.455251e-08
1.2699995e-06
-0.0031029353
-7.9112355e-08
1.0249122e-07
1.3485073e-06
-0.0035576463
-8.8822597e-08
1.1091491e-07
-0.082435208
-1.408837e-06
2.0712327e-06
-3.1738698e-06
-1.3939009e-06
-0.082431392
-4.5292507e-07
7.9866938e-07
-2.7677247e-06
-1.3157338e-06
-0.003557738
-2.0527432e-08
3.3833329e-08
-1.1501862e-06
-0.0031031163
-1.6749879e-08
3.1906256e-08
-7.8976467e-07
-0.0026726991
-1.1478745e-08
3.0936834e-08
-0.0021774037
-4.0633293e-09
2.7434992e-08
8.2262416e-07
-0.0021782449
2.2324368e-08
-4.5406686e-09
1.1952372e-06
-0.0026730859
1.9696583e-08
-5.9384568e-09
1.3660824e-06
-0.0031032967
1.7875567e-08
-8.7976277e-09
1.4505618e-06
-0.0035578295
1.7427693e-08
-1.0545802e-08
-0.082427748
8.6176056e-08
7.1959101e-08
-2.3515949e-06
-1.5175049e-06
-0.082424452
3.7296901e-07
-3.3158542e-07
-1.8207982e-06
-1.4252268e-06
-0.0035579242
3.7822298e-08
-3.5738985e-08
-1.2454046e-06
-0.0031034811
3.6447874e-08
-3.2167288e-08
-8.5903404e-07
-0.0026734819
3.6248915e-08
-2.7404147e-08
-0.0021791171
3.6368796e-08
-2.3206627e-08
8.9369857e-07
-0.0021800196
4.3309322e-08
-3.5364845e-08
1.2973199e-06
-0.0026738898
4.4633766e-08
-4.0810514e-08
1.4863425e-06
-0.00310367
4.5867745e-08
-4.6392719e-08
1.5880495e-06
-0.0035580234
4.8142093e-08
-5.0744693e-08
-0.082421731
5.1711152e-07
-5.6474174e-07
-1.0859181e-06
-1.6900645e-06
-0.082419804
5.6931995e-07
-7.1826213e-07
-8.7752055e-08
-1.568255e-06
-0.0035581366
5.127445e-08
-6.0279004e-08
-1.3615322e-06
-0.0031038701
4.86231e-08
-5.5686769e-08
-9.3560549e-07
-0.0026743139
4.6857177e-08
-4.9461052e-08
-0.0021809575
4.5119182e-08
-4.2804586e-08
9.828616e-07
-0.0021819387
4.8204697e-08
-5.0696249e-08
1.4380707e-06
-0.0026747607
4.9878935e-08
-5.8737503e-08
1.6673598e-06
-0.0031040859
5.1690136e-08
-6.5577479e-08
1.8180772e-06
-0.0035582717
5.4678598e-08
-7.0333509e-08
-0.082418933
6.2225857e-07
-8.7919423e-07
1.2029696e-06
-1.9903254e-06
-0.082419522
7.1363024e-07
-1.0970659e-06
2.9622495e-06
-1.7990054e-06
-0.0035584442
6.2896398e-08
-8.2102364e-08
-1.5315182e-06
-0.0031043367
5.963159e-08
-7.6663637e-08
-1.0395726e-06
-0.0026752425
5.7960119e-08
-6.8963413e-08
-0.0021829759
5.6984337e-08
-5.9348832e-08
1.1119064e-06
-0.0021840942
6.9590708e-08
-6.397725e-08
1.6629919e-06
-0.0026757864
6.8582501e-08
-7.6079463e-08
1.9890531e-06
-0.0031046474
6.9510558e-08
-8.5182489e-08
2.2498377e-06
-0.0035586865
7.2999396e-08
-9.14999e-08
-0.08242202
7.9589875e-07
-1.3365414e-06
5.2889981e-06
-2.6142107e-06
-0.082426849
8.434254e-07
-1.6099437e-06
8.2087902e-06
-2.2549961e-06
-0.0035590326
8.4417618e-08
-9.7842798e-08
-1.8433121e-06
-0.0031050507
8.1544962e-08
-9.0194592e-08
-1.2067688e-06
-0.0026764269
8.229714e-08
-7.9005659e-08
-0.0021853231
8.62912e-08
-6.4153726e-08
1.3310114e-06
-0.0021867077
1.1404855e-07
-6.094817e-08
2.0898918e-06
-0.0026772125
1.0611086e-07
-7.9606072e-08
2.6310734e-06
-0.0031056016
1.0299207e-07
-9.3559891e-08
3.1385255e-06
-0.0035595418
1.0505678e-07
-1.0335303e-07
-0.082434543
9.154009e-07
-1.9666731e-06
1.1883551e-05
-3.8494959e-06
-0.082445816
1.0202633e-06
-2.4073194e-06
1.6509287e-05
-3.1394684e-06
-0.0035602835
1.3672183e-07
-1.0523201e-07
-2.416761e-06
-0.0031063684
1.3634604e-07
-9.235483e-08
-1.4915925e-06
-0.0026782054
1.4181423e-07
-7.4430838e-08
-0.0021883006
1.5176182e-07
-5.0393645e-08
1.6987881e-06
-0.0021901624
1.9275441e-07
-2.971048e-08
2.8482732e-06
-0.0026794779
1.8197717e-07
-5.8956667e-08
3.8163532e-06
-0.0031074291
1.7447372e-07
-8.1922802e-08
4.796963e-06
-0.0035613376
1.7279042e-07
-9.9341447e-08
-0.08246133
1.0839108e-06
-2.9301006e-06
2.2157402e-05
-6.0188742e-06
-0.082481795
1.0793096e-06
-3.5244226e-06
2.8927655e-05
-4.6900933e-06
-0.003562791
2.0912986e-07
-8.4643305e-08
-3.4030834e-06
-0.0031088682
2.1376545e-07
-6.1763855e-08
-1.9610214e-06
-0.0026811103
2.2374035e-07
-3.3521776e-08
-0.0021923602
2.3593568e-07
8.4571527e-10
2.2973461e-06
-0.0021949748
2.8720466e-07
2.9877753e-08
4.1128473e-06
-0.0026831946
2.7403337e-07
-5.3698998e-09
5.8066276e-06
-0.0031107854
2.6152766e-07
-3.8200961e-08
7.5845603e-06
-0.0035647545
2.536327e-07
-6.8075086e-08
-0.082508094
1.0895799e-06
-4.2274741e-06
3.7021322e-05
-9.5310153e-06
-0.082541329
1.1612202e-06
-5.0984348e-06
4.6703018e-05
-7.1994973e-06
-0.0035673397
3.089731e-07
-5.5416571e-08
-4.9961513e-06
-0.0031132918
3.2022199e-07
-1.7338791e-08
-2.712459e-06
-0.0026858347
3.3522301e-07
2.0937699e-08
-0.0021980946
3.4917702e-07
5.819776e-08
3.2119884e-06
-0.0022018159
4.1739714e-07
9.1277254e-08
6.0642348e-06
-0.0026891387
4.0272794e-07
4.8824793e-08
8.8969382e-06
-0.0031165127
3.8524084e-07
2.7606167e-09
1.1906115e-05
-0.0035706739
3.7052574e-07
-4.5624566e-08
-0.082582701
1.2580491e-06
-6.1964001e-06
5.8216244e-05
-1.4802916e-05
-0.08263364
1.3196429e-06
-7.5512489e-06
7.1973046e-05
-1.0968299e-05
-0.0035749051
4.3259077e-07
-3.6302858e-08
-7.3723866e-06
-0.003120585
4.5147182e-07
2.4647741e-08
-3.8216777e-06
-0.0026932438
4.7253799e-07
8.119199e-08
-0.0022062588
4.895753e-07
1.3163233e-07
4.5695965e-06
-0.0022115802
5.6921838e-07
1.8177314e-07
8.9788147e-06
-0.0026983216
5.4770145e-07
1.2051812e-07
1.3512635e-05
-0.0031256917
5.2225088e-07
5.0353481e-08
1.8356641e-05
-0.0035802219
4.9901613e-07
-2.6287793e-08
-0.082696106
1.4038629e-06
-9.243719e-06
8.8662457e-05
-2.2812636e-05
-0.082772677
1.5905159e-06
-1.1452277e-05
0.00010924517
-1.670751e-05
-0.0035868825
5.7514566e-07
-1.9931877e-08
-1.099664e-05
-0.0031320821
6.0286724e-07
7.6280645e-08
-5.5102266e-06
-0.0027046062
6.3345155e-07
1.6415454e-07
-0.0022179902
6.6028805e-07
2.3952584e-07
6.7268527e-06
-0.0022257816
7.6860853e-07
2.9528681e-07
1.3599638e-05
-0.0027124142
7.3395421e-07
2.0092602e-07
2.0823986e-05
-0.0031400948
6.9728701e-07
9.0861903e-08
2.8543953e-05
-0.0035952378
6.6548791e-07
-3.0140062e-08
-0.082866857
1.9109895e-06
-1.4399306e-05
0.00013521183
-3.6050304e-05
-0.082983637
2.3970381e-06
-1.828143e-05
0.00016871463
-2.6228851e-05
-0.0036057632
7.8402288e-07
-8.0334181e-08
-1.7037967e-05
-0.0031501747
8.1912924e-07
6.9728369e-08
-8.3395608e-06
-0.0027221816
8.6186428e-07
2.066989e-07
-0.0022353529
9.0292551e-07
3.2886694e-07
1.050512e-05
-0.0022472422
1.0701463e-06
3.1318519e-07
2.1654881e-05
-0.0027345171
1.0276545e-06
1.5776047e-07
3.3478482e-05
-0.0031629708
9.8060792e-07
-8.4259705e-09
4.6078128e-05
-0.0036191189
9.4497872e-07
-1.8893679e-07
-0.083129994
3.3459076e-06
-2.3015405e-05
0.00021210414
-5.9911619e-05
-0.083315719
4.9347554e-06
-2.8604385e-05
0.00026930565
-4.3508605e-05
-0.0036362756
1.1076085e-06
-3.541744e-07
-2.8060651e-05
-0.0031794172
1.1413856e-06
-1.4318095e-07
-1.3510452e-05
-0.0027503059
1.1856782e-06
5.2334076e-08
-0.0022622126
1.2308224e-06
2.2906324e-07
1.7708251e-05
-0.0022813514
1.3636254e-06
6.660844e-08
3.6638467e-05
-0.0027704332
1.2717188e-06
-7.4848942e-08
5.6703797e-05
-0.0032004231
1.2175165e-06
-2.7714713e-07
7.7917777e-05
-0.0036581695
1.1975851e-06
-5.1765766e-07
-0.083554415
6.9580098e-06
-3.4684063e-05
0.00034434005
-0.00010068407
-0.083875493
7.5802845e-06
-3.9132343e-05
0.00045331417
-7.3253605e-05
-0.0036861244
1.0228682e-06
-4.990868e-07
-4.7396252e-05
-0.003227063
1.0447877e-06
-2.6310325e-07
-2.305907e-05
-0.002795816
1.1651977e-06
-1.212016e-07
-0.0023056843
1.4249504e-06
-1.5117346e-07
3.0291665e-05
-0.0023366915
1.1356838e-06
-4.2244471e-07
6.5107908e-05
-0.0028311938
4.4522673e-07
1.1527948e-07
0.00010284422
-0.0032650691
1.4366395e-07
1.2546937e-07
0.0001431972
-0.003726395
5.0005583e-08
-1.3245278e-07
-0.08432804
-6.8415967e-07
-4.4499932e-05
0.00064092797
-0.00023308634
-0.084811519
-2.3876134e-05
-5.7856648e-05
0.00079829789
-0.00016647342
-0.0037908292
-2.2515422e-06
7.3124023e-08
-0.0001030026
-0.0033269571
-2.0998109e-06
5.1720762e-07
-4.4956578e-05
-0.0028883894
-1.4753393e-06
6.2539613e-07
-0.0023813971
3.1070285e-07
-5.6166633e-07
6.5545957e-05
-0.0024460258
-2.3864672e-06
1.472271e-06
0.00014451915
-0.0029611338
-6.9496625e-06
7.2239062e-07
0.00023037579
-0.0034035337
-8.0848676e-06
-1.1940539e-06
0.00031853043
-0.0038692834
-8.44985e-06
-1.2504875e-06
-0.085000637
-7.1496063e-05
-7.3743908e-05
0.00065288954
-0.00023681164
-0.085489292
-0.00035572373
0.00012525597
0.00095593503
-0.00019045712
-0.0038891248
-6.1117887e-06
-2.0398464e-05
-0.00014846725
-0.0034204189
-2.9663673e-06
-2.2135197e-05
-9.5532411e-05
-0.0029888858
-8.7415643e-07
-2.4301887e-05
-0.0025087539
-2.8592046e-06
-2.9945118e-05
-0.00016546122
-0.0024069053
-4.2003691e-05
0.00010562179
-0.00032323615
-0.0028938884
-5.3425896e-05
0.0001162059
-0.00048701458
-0.003319401
-6.3089079e-05
0.00012585149
-0.0006706063
-0.003767499
-7.3254545e-05
0.00013522067
-0.088116413
-0.0017359578
0.0020341645
0.0016583087
-1.3516228e-05
-0.071805645
-0.014732436
0.0029241367
-0.0044889517
-3.4284972e-05
-0.0031135717
-0.00080474953
0.00017159112
-4.8645876e-05
-0.0027488927
-0.00071360053
0.00015745338
-4.4483676e-05
-0.0024084453
-0.00063111823
0.00014151336
-0.0020248664
-0.00054132472
0.00011480219
1.5761966e-05
0.0021204079
2.9156269e-05
0.0024993371
4.3251805e-05
0.0028216855
5.5020505e-05
0.0031571364
0.056224721
0.00059823406
0.070426034
-0.00013846103
-0.0084511315
0.00042210488
0.0037759915
-2.1099111e-05
0.00026328129
0.0033470537
-2.0971504e-05
0.00012166605
0.0029388345
-2.2224622e-05
0.0024688747
-2.6488385e-05
-0.00021822806
0.0025695962
7.5503241e-05
-0.00043431543
0.0030337926
6.7703722e-05
-0.00065580192
0.0034408496
6.4601886e-05
-0.00089226892
0.0038753145
6.3889546e-05
0.067634714
0.00034188304
-0.00017878964
-4.659016e-05
0.066866502
8.6376628e-05
0.00037270291
-4.7285486e-05
0.0038498617
2.0036496e-05
-4.8597133e-05
0.0034180992
2.1095928e-05
-3.94872e-05
0.0030030804
2.0728522e-05
0.0025095691
1.7680768e-05
5.8731529e-05
0.002437009
1.1442147e-05
0.0001182041
0.0029246018
1.2056508e-05
0.00017970902
0.0033369326
1.1577057e-05
0.00024344164
0.0037668272
1.0852073e-05
0.06671747
1.1519668e-05
0.00030945773
-0.0001943359
0.066326012
1.5473811e-05
0.00054644427
-0.00014017059
0.0037022287
8.1816385e-06
-8.7664325e-05
0.0032737043
8.6221536e-06
-3.8686117e-05
0.0028651657
8.9825652e-06
0.002389617
9.0165975e-06
2.7872496e-05
0.0023567184
6.1616618e-06
5.8699569e-05
0.0028287334
6.0503721e-06
9.1284048e-05
0.003235482
5.7814663e-06
0.00012555359
0.0036625468
5.4624445e-06
0.065963593
9.2759404e-06
0.00047801199
-9.1808439e-05
0.065713168
5.2627027e-06
0.00034455093
-6.7837696e-05
0.0036360464
3.5524227e-06
-4.4795285e-05
0.0032097095
3.7747607e-06
-2.2431317e-05
0.0028035503
3.9841898e-06
0.0023316041
4.1079859e-06
1.7819285e-05
0.0023123834
2.7650847e-06
3.5862323e-05