/*--------------------------------*- C++ -*----------------------------------*\
  =========                 |
  \\      /  F ield         | OpenFOAM: The Open Source CFD Toolbox
   \\    /   O peration     | Website:  https://openfoam.org
    \\  /    A nd           | Version:  7
     \\/     M anipulation  |
\*---------------------------------------------------------------------------*/
FoamFile
{
    version     2.0;
    format      ascii;
    class       volScalarField;
    location    "420";
    object      nut;
}
// * * * * * * * * * * * * * * * * * * * * * * * * * * * * * * * * * * * * * //

dimensions      [0 2 -1 0 0 0 0];

internalField   nonuniform List<scalar> 
24866
(
7.9871354
7.993963
7.9907857
8.1778771
8.34244
8.3402624
8.336201
8.3404646
8.3397338
8.3348703
8.3351306
8.3351673
8.3348938
8.3397677
8.3405475
8.3361861
8.3400876
8.3413815
8.3405199
8.335994
8.3259471
8.340359
8.3708344
8.3582262
8.3324997
8.3285498
8.3363989
8.3604137
8.3556675
8.3291457
8.3383246
8.3413921
8.3413931
8.3383329
8.3291933
8.355715
8.3605212
8.3364912
8.3284418
8.3323263
8.358159
8.3707893
8.3403493
8.3259496
8.3360188
8.3405698
8.3414015
8.3401627
8.3361954
8.3404709
8.3398509
8.3349902
8.335128
8.3351426
8.3349533
8.3397322
8.3403457
8.3360847
8.3402264
8.3424874
8.3463461
8.3431123
8.3463375
8.3430537
8.3368247
8.339565
8.3453971
8.3420151
8.334427
8.3344147
8.3344391
8.3344307
8.3420667
8.3454462
8.3395725
8.3366941
8.3425454
8.3453011
8.3417844
8.342912
8.3376679
8.3299889
8.3283386
8.33909
8.3427738
8.3480367
8.3326385
8.328703
8.3364108
8.3485094
8.3426931
8.3379986
8.3369822
8.3377791
8.3361347
8.3335112
8.3360501
8.3350034
8.3385973
8.3361764
8.3339798
8.3336445
8.3336961
8.3343288
8.3350399
8.3350421
8.3348628
8.3377238
8.336793
8.3364936
8.3331122
8.3401472
8.3441446
8.3419295
8.3378152
8.3354802
8.3346241
8.3341175
8.3344671
8.3347831
8.3347132
8.3341972
8.3345921
8.3338336
8.3333659
8.3340015
8.3360048
8.3335509
8.332843
8.3330735
8.3339658
8.3348381
8.3353571
8.3351047
8.3351934
8.3348855
8.3344705
8.3348677
8.3346264
8.3367968
8.3378182
8.3331203
8.3401505
8.3441465
8.2387928
8.2354673
8.1650566
8.1703746
8.1771267
8.1771236
8.1703663
8.1680425
8.1366846
8.2614392
8.2641287
8.1430927
8.1679657
8.1698922
8.1639898
8.1380044
8.0966436
8.1118257
8.157695
8.1688359
8.1759798
8.1755516
8.1747241
8.172708
8.1718563
8.1691773
8.1670743
8.1591506
8.159111
8.1670622
8.169082
8.1715923
8.1731114
8.1744522
8.1675744
8.1752216
8.2404414
8.238721
8.1677431
8.103295
8.1763665
8.1780563
8.1699248
8.3391132
8.3357885
8.3391203
8.336225
8.3339466
8.3359588
8.3335279
8.3328141
8.3330321
8.333902
8.334748
8.3352506
8.3353618
8.3354649
8.3351981
8.334791
8.335051
8.33699
8.3377288
8.3427039
8.336504
8.1702162
8.1797998
8.2019914
8.2614965
8.1366383
8.1680223
8.0008545
7.988646
7.9903556
7.9903519
7.9886381
8.000864
7.9665347
7.9658603
7.9851511
8.0061589
7.9844736
7.9615815
7.9478301
7.9643313
7.9899558
7.9881484
7.9893654
7.9881994
7.994196
8.005631
7.9885321
7.9860219
8.0009507
7.9921027
7.9921616
8.0010426
7.9859978
7.9882799
8.0060849
7.8414165
7.8316426
7.8254412
7.8256753
7.8313786
7.9936715
8.1741974
8.1732223
8.1714279
8.1691631
8.1670555
8.1591278
8.1591318
8.1671939
8.168937
8.1719934
8.1727216
8.1749448
8.1754873
8.1761251
8.1688123
8.1577347
8.1118734
8.2303159
8.2760796
8.2633094
8.1381029
8.1641246
8.1699918
8.1678302
8.1428758
8.2641617
8.2086385
8.1431593
8.1401221
8.1017471
8.1681591
8.1637738
8.19572
8.2344889
8.3485552
8.3364455
8.3286825
8.3380038
8.3427634
8.337788
8.3350531
8.3347259
8.3351142
8.3346056
8.3348465
8.3347517
8.3343156
8.333669
8.3332815
8.3340404
8.333503
8.3336716
8.3339088
8.3339768
8.3338497
8.3336654
8.3342145
8.3343471
8.3361493
8.3390853
8.3283483
8.3335361
8.3337204
8.335032
8.3340041
8.3333832
8.3330863
8.3330418
8.3332864
8.3340402
8.3362193
8.3339545
8.3328266
8.3328582
8.3340185
8.3362044
8.3386353
8.3418123
8.3360815
8.3300213
8.3377099
8.3429501
8.2372554
8.1723979
8.1621116
8.2333943
8.16403
8.1730706
8.0994355
7.9851883
7.9881125
7.9900028
7.9643728
7.9478595
8.0967939
8.1228754
8.1330299
8.1837903
8.1918783
8.2021103
8.1662844
8.0995572
8.1359747
7.9686187
7.9616075
7.9844898
8.0061797
7.9851342
7.9658567
7.966553
7.812359
7.8362576
7.8261056
7.8251503
7.8251471
7.8261007
7.8362682
7.8123482
7.8073365
7.8213867
7.843942
7.8209393
7.801734
7.7997497
7.8185986
7.8287091
7.8253443
7.823942
7.823155
7.8317994
7.8409836
7.8266017
7.8238702
7.8402485
7.8349075
7.8348738
7.8402673
7.8239004
7.8264246
7.6804906
7.6913914
7.6851705
7.6789083
7.6790874
7.6849519
7.6915052
7.8415516
8.0062138
7.988128
7.9861447
8.0008612
7.9921124
7.9922197
8.0011116
7.9859165
7.9887352
8.0055498
7.9944494
7.9881208
7.9895321
7.8240786
7.8253022
7.8287507
7.8186433
7.7997687
7.8017597
7.8209728
7.843975
7.821352
7.8073113
7.6656858
7.6713633
7.6867355
7.6799575
7.6785362
7.6785332
7.679954
7.6867443
7.6713546
7.6657076
7.6753451
7.6955551
7.6744094
7.6588498
7.6621459
7.6796598
7.6816201
7.6790449
7.6772072
7.6768551
7.6851402
7.6909638
7.6805897
7.67828
7.691981
7.6886767
7.6886984
7.6920762
7.6783481
7.5459956
7.5475965
7.5548581
7.5515294
7.5460849
7.5462141
7.5513576
7.5549433
7.547483
7.5460067
7.6784073
7.8240039
7.8401368
7.8349277
7.8349403
7.840285
7.8238248
7.8268321
7.8408865
7.8320261
7.8230822
7.6767962
7.677308
7.6790027
7.6816512
7.6797004
7.6621543
7.6588691
7.6744437
7.6955891
7.6753129
7.5430168
7.5364757
7.5417792
7.5509675
7.5469086
7.5455845
7.5455811
7.5469059
7.5509739
7.5417728
7.5364947
7.5430451
7.559819
7.5414259
7.5289903
7.5346252
7.5498877
7.5477603
7.5459213
7.5442367
7.5441867
7.5512965
7.5544258
7.5476164
7.5458871
7.5563423
7.5543956
7.5544445
7.5564813
7.4331721
7.4255224
7.4266067
7.4311111
7.4297446
7.4253976
7.425487
7.4296124
7.4311684
7.4265018
7.4254879
7.432922
7.5562453
7.6918764
7.6887018
7.6887615
7.6920581
7.6782803
7.680819
7.6908762
7.6853234
7.5514379
7.5441418
7.5443058
7.5458817
7.5477811
7.5499218
7.5346279
7.529005
7.5414594
7.5598521
7.4362387
7.4229306
7.4185052
7.4230267
7.4280215
7.4258162
7.4247974
7.4247939
7.4258136
7.4280255
7.4230224
7.4185219
7.4229547
7.4362078
7.4206997
7.410934
7.4173035
7.4301547
7.4262447
7.4248486
7.4234795
7.4236082
7.4293334
7.4306647
7.4265529
7.425382
7.4330059
7.4319452
7.4320113
7.3205075
7.3211457
7.3157097
7.3163621
7.3189328
7.3187839
7.3155257
7.3155858
7.3186823
7.3189659
7.3162622
7.3156375
7.3208935
7.3204401
7.4319596
7.5544177
7.554496
7.5564465
7.5459285
7.547834
7.5543634
7.4306294
7.4294409
7.4235749
7.4235236
7.4248125
7.4262566
7.4301814
7.4173031
7.4109453
7.4207313
7.3109781
7.3238274
7.3136703
7.3106939
7.3143165
7.3165762
7.3155371
7.3148687
7.3148653
7.3155343
7.316578
7.3143139
7.3107086
7.3136903
7.3237992
7.3109488
7.303394
7.3096972
7.3202935
7.3158119
7.3146475
7.3135997
7.3138181
7.3182267
7.3184647
7.3162413
7.3155434
7.3209631
7.3204315
7.2184985
7.2185795
7.2189355
7.2151387
7.2154507
7.2167277
7.2172835
7.2149783
7.2150175
7.2172042
7.2167408
7.2153529
7.2150378
7.218688
7.2185031
7.2185982
7.3205344
7.4320489
7.4331281
7.4254572
7.4267566
7.3164315
7.3184541
7.3183092
7.3137939
7.3136258
7.3146148
7.3158167
7.3203133
7.3096951
7.3034028
7.2049098
7.2106944
7.221248
7.213711
7.2117288
7.2144808
7.2150067
7.2146565
7.2143045
7.2143012
7.2146535
7.2150067
7.2144793
7.2117416
7.2137272
7.2212225
7.2106675
7.2049026
7.2107791
7.2193959
7.214932
7.2138749
7.2130923
7.213339
7.2166117
7.2162338
7.2152697
7.2149504
7.2187434
7.1248388
7.1247324
7.1248163
7.1250381
7.122418
7.1224702
7.1229133
7.1238372
7.1223102
7.1223348
7.1237737
7.1229104
7.1223724
7.1222958
7.1247977
7.1247339
7.124827
7.1249822
7.2188827
7.3210962
7.3156455
7.2150723
7.2154485
7.2162438
7.2166768
7.2133217
7.2131057
7.2138453
7.2149313
7.2194096
7.210776
7.1193597
7.1140592
7.1184132
7.1270458
7.1216004
7.1202982
7.1222726
7.1217316
7.1217542
7.1216533
7.1216502
7.1217509
7.1217303
7.1222719
7.1203093
7.1216134
7.1270228
7.1183887
7.1140533
7.1193634
7.1262984
7.1221154
7.1210943
7.1205029
7.120736
7.1230801
7.1223926
7.1222361
7.1222095
7.036138
7.0379555
7.0379031
7.0379886
7.03816
7.0363652
7.0362251
7.0361534
7.0372287
7.0363076
7.0363221
7.0371761
7.0361376
7.036126
7.0362277
7.037928
7.0379026
7.0379917
7.0381009
7.0362837
7.1223456
7.1224054
7.1224192
7.1231335
7.1207239
7.1205076
7.1210671
7.1221105
7.1263068
7.0399111
7.0343699
7.0296688
7.0328914
7.0399415
7.0361216
7.0352796
7.0365928
7.035424
7.0356143
7.035694
7.0356911
7.0356107
7.0354217
7.0365925
7.0352892
7.0361319
7.0399209
7.0328693
7.0296639
7.0343741
7.0399071
7.0361053
7.0350789
7.0346089
7.0348013
7.0364116
7.0356074
7.0359449
6.9554515
6.9558037
6.9570687
6.9570272
6.9571133
6.9572771
6.956048
6.9557713
6.9554014
6.9564917
6.9560243
6.9560318
6.9564464
6.9553753
6.9556701
6.9559
6.9570539
6.9570255
6.9571096
6.9572144
6.9559554
6.9556068
7.0361065
7.0356469
7.0364576
7.0347931
7.0346078
7.0350536
7.0360971
6.9559041
6.9593145
6.9549301
6.9508116
6.9531473
6.9589042
6.956322
6.9557851
6.9565568
6.9550476
6.9552759
6.9554725
6.9554697
6.9552722
6.9550446
6.9565568
6.9557933
6.9563301
6.9588858
6.9531275
6.9508076
6.9549347
6.9593142
6.9559149
6.9548599
6.9544546
6.9545905
6.9556358
6.9548331
6.8792677
6.880025
6.8804871
6.8813865
6.881338
6.881424
6.8815978
6.8807471
6.8803783
6.8798548
6.8808774
6.8807373
6.8807399
6.8808368
6.8798203
6.8802748
6.8805923
6.8813836
6.8813357
6.8814142
6.8815312
6.880642
6.8801751
6.8793247
6.9548826
6.9556769
6.9545852
6.9544495
6.954836
6.8796677
6.8807727
6.8837952
6.8803527
6.8767768
6.8784238
6.883128
6.8814714
6.8811302
6.8814725
6.8798095
6.8799975
6.8802586
6.880256
6.8799937
6.879806
6.8814726
6.8811372
6.8814776
6.8831117
6.8784061
6.8767736
6.8803579
6.8837981
6.8807858
6.8796908
6.8793081
6.8793801
6.8799996
6.8089115
6.8082874
6.8090915
6.8096244
6.8102901
6.8102305
6.8103161
6.8105037
6.8098986
6.8094728
6.8088897
6.8097981
6.8098845
6.8098838
6.8097604
6.8088483
6.8093671
6.8097398
6.8102984
6.8102283
6.8103008
6.8104327
6.8097804
6.8092369
6.80835
6.8089481
6.8800378
6.8793768
6.8793003
6.8085903
6.8089661
6.8101125
6.8127785
6.8100965
6.8070134
6.8081306
6.8119794
6.8110025
6.8107808
6.8107929
6.8090951
6.8091991
6.8094848
6.8094824
6.8091953
6.8090914
6.810793
6.8107867
6.8110073
6.8119649
6.808115
6.8070111
6.8101025
6.8127842
6.8101274
6.8089886
6.8086
6.8086065
6.7418148
6.741892
6.7413913
6.7421841
6.7427579
6.743281
6.7432131
6.7432981
6.7434963
6.7430447
6.7425888
6.7420052
6.7427769
6.7430125
6.7430092
6.742741
6.7419582
6.7424811
6.7428842
6.7432997
6.7432115
6.7432779
6.7434207
6.7429135
6.7423255
6.741458
6.7419275
6.7418141
6.8086048
6.8121361
6.8152412
6.812223
6.813057
6.8147598
6.8137284
6.8142656
6.8147159
6.8154293
6.8155015
6.8141411
6.7470972
6.7443048
6.7440708
6.7424123
6.7424116
6.7426935
6.7426912
6.7424079
6.7424088
6.7440713
6.7443103
6.7444634
6.7449344
6.74178
6.7410783
6.7437297
6.7458031
6.7434649
6.7422837
6.7418714
6.6787373
6.678622
6.6785376
6.6781629
6.6789101
6.6795023
6.6799439
6.6798733
6.6799573
6.6801601
6.6797997
6.6793333
6.6787846
6.6794128
6.6797393
6.6797345
6.6793778
6.6787333
6.6792243
6.6796392
6.6799721
6.6798723
6.6799329
6.6800799
6.679656
6.6790474
6.6782324
6.6785725
6.6786221
6.678725
6.7418603
6.7422614
6.7434481
6.7457946
6.7437226
6.7410792
6.7417931
6.7449466
6.7444592
6.6814609
6.681339
6.680928
6.6793526
6.6792411
6.6795003
6.6794985
6.6792382
6.6793501
6.6809299
6.6813456
6.6814663
6.6815955
6.6790071
6.6786082
6.6808714
6.6824591
6.6804024
6.679183
6.6193466
6.6188635
6.6186952
6.6184985
6.6182449
6.6189271
6.6195214
6.6199219
6.6198546
6.6199375
6.6201384
6.6198276
6.6193649
6.6188708
6.6193574
6.6197329
6.6197268
6.6193231
6.618816
6.6192551
6.6196685
6.6199587
6.6198546
6.6199092
6.6200535
6.6196721
6.6190603
6.6183158
6.6185326
6.6186952
6.6188494
6.6193217
6.6791602
6.6803833
6.6824473
6.6808618
6.6786062
6.6790163
6.681604
6.6215862
6.6216781
6.621566
6.6210332
6.6195652
6.6193459
6.6195713
6.6195702
6.619345
6.6195659
6.6210395
6.6215776
6.6216892
6.6215857
6.619459
6.6192848
6.6212081
6.6224093
6.6205989
6.5637509
6.56247
6.561949
6.5617334
6.5614605
6.5613192
6.5619271
6.5625117
6.5628972
6.562839
6.5629207
6.5631134
6.5628245
6.5623755
6.5619456
6.5622975
6.5626922
6.5626852
6.5622636
6.5618883
6.5622656
6.562668
6.5629418
6.5628401
6.5628891
6.5630238
6.5626582
6.5620559
6.5613902
6.561493
6.5617316
6.5619309
6.5624398
6.5637191
6.6205758
6.6223917
6.6211925
6.6192761
6.61946
6.5628205
6.564569
6.5648142
6.5646969
6.5640864
6.5627377
6.5624183
6.5626049
6.5626055
6.5624227
6.562747
6.5641045
6.5647232
6.5648417
6.5645875
6.5628383
6.5628276
6.5644536
6.5653473
6.5109897
6.5095774
6.5082688
6.5077103
6.5074522
6.5071285
6.5070903
6.5076201
6.5081861
6.5085743
6.5085309
6.5086111
6.5087895
6.5085036
6.5080753
6.5077135
6.5079382
6.5083317
6.5083241
6.5079046
6.5076544
6.5079659
6.5083506
6.508626
6.508533
6.5085765
6.5086955
6.5083277
6.5077438
6.5071599
6.5071576
6.5074456
6.5076836
6.5082254
6.509526
6.510932
6.5653173
6.5644232
6.5628021
6.5089134
6.5088135
6.5102514
6.510589
6.5104562
6.5098027
6.5085788
6.5081683
6.5083161
6.5083208
6.5081852
6.5086085
6.5098499
6.510519
6.5106569
6.5103137
6.5088743
6.5089781
6.510342
6.4586195
6.4590658
6.4578077
6.4564649
6.455868
6.4555699
6.4552119
6.4552702
6.4557203
6.4562609
6.4566656
6.4566425
6.4567212
6.4568792
6.4565813
6.4561786
6.4558859
6.4559885
6.4563672
6.4563592
6.4559553
6.4558259
6.4560706
6.4564326
6.4567235
6.4566457
6.456684
6.4567812
6.456397
6.4558386
6.4553365
6.4552348
6.4555528
6.4558231
6.456393
6.4577142
6.4589484
6.4584778
6.5102769
6.5127431
6.5133869
6.5137165
6.5142254
6.5140106
6.5125182
6.460684
6.4585679
6.4578996
6.456803
6.4563095
6.4564233
6.456437
6.4563543
6.4568783
6.4580118
6.458713
6.4588841
6.4584997
6.4573151
6.4574926
6.4081442
6.4090455
6.4093167
6.4081791
6.4067831
6.406141
6.4058012
6.4054181
6.4055709
6.4059406
6.4064503
6.4068857
6.4068895
6.4069666
6.4070973
6.4067722
6.406399
6.4061748
6.4061546
6.4065093
6.4065011
6.4061218
6.4061145
6.4062929
6.4066283
6.4069494
6.4068942
6.4069275
6.4069958
6.406581
6.4060531
6.4056321
6.4054302
6.4057636
6.4060605
6.4066533
6.4080003
6.409078
6.4087469
6.4078151
6.4573413
6.45716
6.458341
6.4587252
6.4089441
6.4087512
6.4080913
6.4071243
6.4065522
6.406641
6.406673
6.406654
6.407293
6.4083372
6.4090662
6.4092905
6.4089047
6.4079303
6.3605288
6.3607414
6.3614114
6.3615112
6.3604504
6.3589629
6.3582586
6.3578687
6.3574635
6.3577155
6.3580034
6.3584789
6.3589626
6.3590018
6.3590771
6.3591718
6.3588014
6.3584598
6.3583038
6.3581516
6.3584749
6.3584666
6.3581191
6.3582433
6.3583559
6.3586626
6.3590318
6.3590085
6.3590372
6.3590675
6.3586043
6.3581101
6.3577691
6.3574578
6.3577949
6.3581132
6.3587254
6.3601119
6.3610442
6.3608155
6.3600763
6.3598187
6.4075828
6.4085494
6.3606045
6.3609793
6.3607349
6.3601013
6.3592675
6.3586152
6.358692
6.3587585
6.3588241
6.3596115
6.3605997
6.3613712
6.3616797
6.3613298
6.3156608
6.3150027
6.3151739
6.3155879
6.3154924
6.3144452
6.3128049
6.3120053
6.3115481
6.3111192
6.3114813
6.3116866
6.3121276
6.3126817
6.3127674
6.3128415
6.3128899
6.3124517
6.3121413
6.3120522
6.3117516
6.3120363
6.3120278
6.3117191
6.3119912
6.3120391
6.3123176
6.312757
6.3127766
6.3128008
6.3127825
6.3122487
6.3117882
6.3115257
6.311088
6.3114174
6.3117533
6.3123848
6.3138325
6.3146298
6.3144748
6.3139248
6.3136647
6.3142961
6.3146244
6.314307
6.3137115
6.3130133
6.3122734
6.312353
6.3124782
6.3126641
6.3136573
6.3146452
6.3154989
6.315937
6.272115
6.2719498
6.2714096
6.271499
6.2716181
6.2712692
6.2701388
6.2682634
6.267319
6.2667684
6.2663132
6.2667957
6.2669241
6.2673372
6.2679834
6.2681272
6.2682013
6.2681938
6.2676672
6.267382
6.2673539
6.2668902
6.2671277
6.2671189
6.2668568
6.2672915
6.2672805
6.2675365
6.2680661
6.2681382
6.268158
6.2680813
6.2674562
6.2670234
6.2668322
6.2662518
6.2665613
6.2669127
6.2675681
6.2691003
6.2697799
6.269682
6.2693195
6.2690734
6.2695708
6.2698315
6.2694208
6.2688647
6.2682963
6.2674607
6.2675549
6.2677697
6.2681264
6.2694038
6.2704836
6.2714913
6.2297001
6.2305626
6.2305325
6.2300891
6.23007
6.2298572
6.2291454
6.2277745
6.2255735
6.2244231
6.2237539
6.2232747
6.2238706
6.2239518
6.2243581
6.225101
6.2253063
6.2253826
6.2253194
6.2247022
6.2244253
6.2244326
6.2238152
6.2239991
6.2239896
6.2237798
6.2243669
6.2243223
6.2245723
6.2251941
6.2253194
6.2253347
6.2251983
6.224479
6.2240553
6.2239074
6.2231907
6.2234687
6.2238327
6.2245215
6.2261464
6.2267548
6.2267217
6.2265247
6.2262862
6.2266625
6.2268484
6.2263435
6.2258107
6.2253386
6.224412
6.2245225
6.2248531
6.2254398
6.2270892
6.2284156
6.1891118
6.1909007
6.1920364
6.1921241
6.1917572
6.1916456
6.1910866
6.1897983
6.1878944
6.1852783
6.1838728
6.1830807
6.1825834
6.1832346
6.1833674
6.1838122
6.1846115
6.1848761
6.1849585
6.1848473
6.1841835
6.1838757
6.1838301
6.1831331
6.1832731
6.1832624
6.1830941
6.1837592
6.1837685
6.1840498
6.1847192
6.1848934
6.1849055
6.1847138
6.1839427
6.1834867
6.1832911
6.1825078
6.1827583
6.1831329
6.1838564
6.185537
6.1862216
6.1863057
6.1861826
6.1858795
6.1861414
6.1862714
6.1857258
6.1851665
6.1846769
6.1837084
6.1838276
6.1842754
6.1851369
6.1872476
6.1504274
6.1534935
6.156205
6.1575816
6.1576906
6.1573859
6.157279
6.1564187
6.1541526
6.1510598
6.147935
6.1462845
6.1454062
6.1448772
6.1453575
6.1458793
6.1464204
6.1471122
6.1475387
6.1476439
6.1473883
6.1468298
6.1464386
6.1460196
6.1454961
6.1456488
6.1456363
6.1454524
6.1459418
6.146326
6.1466881
6.1472381
6.1475618
6.1475854
6.1472402
6.146569
6.146028
6.1454637
6.1448673
6.1451464
6.1455309
6.1462591
6.1478227
6.1490623
6.1493441
6.1490342
6.1484687
6.1487066
6.1487668
6.1483538
6.1476617
6.1467818
6.1459859
6.1461217
6.1466443
6.1477636
6.1135031
6.1166055
6.1226151
6.127208
6.1283302
6.1281944
6.1279555
6.128127
6.1274659
6.1232575
6.1172426
6.1137006
6.1120329
6.1111506
6.1105042
6.1102088
6.1120626
6.1127197
6.1129233
6.1139102
6.1139983
6.1132043
6.1131673
6.1126711
6.1109527
6.1112103
6.1115231
6.1115097
6.1111622
6.1108669
6.1125508
6.1130178
6.1130685
6.1139381
6.1139356
6.1130389
6.1128889
6.1122493
6.1103947
6.1106166
6.1110764
6.1114952
6.1120983
6.113165
6.1164046
6.116646
6.1153526
6.1143853
6.1150868
6.1146351
6.1146172
6.1137753
6.1116368
6.1115885
6.1118363
6.1123391
6.0860537
6.0862601
6.0886205
6.0976619
6.1054923
6.1053724
6.1050315
6.1048135
6.1052624
6.105813
6.0983037
6.0893133
6.0865195
6.0858768
6.0849642
6.0838194
6.0835596
6.0845329
6.0852164
6.0851173
6.0847832
6.0848932
6.0854344
6.085696
6.0851743
6.0843648
6.0845917
6.0854304
6.0854175
6.0845328
6.0842601
6.0850351
6.0855534
6.085267
6.0848184
6.0848331
6.0852562
6.0854285
6.0847615
6.0837928
6.0840509
6.0850436
6.08569
6.0857418
6.0874394
6.0929892
6.0942069
6.0896161
6.0871902
6.0864368
6.0869296
6.0871354
6.0862255
6.0850031
6.0848303
6.0856223
6.064301
6.0645673
6.0652338
6.0670014
6.0653929
6.0656105
6.0659461
6.065746
6.0658649
6.0658529
6.0677606
6.0655427
6.064484
6.063661
6.0630699
6.064094
6.0630902
6.0636425
6.0650216
6.0645365
6.0646557
6.0653482
6.0641204
6.0637629
6.0649275
6.063931
6.0642539
6.0642367
6.0638643
6.0648302
6.0636152
6.0639589
6.0651779
6.0645697
6.0645921
6.0651635
6.0638367
6.0633663
6.0643809
6.0634291
6.0639746
6.064718
6.065506
6.0675914
6.0639727
6.0636121
6.0678992
6.0677421
6.0666002
6.0669751
6.0656495
6.0647828
6.0655367
6.0640459
6.0615431
6.0607287
6.0675208
6.0750832
6.0797627
6.0818378
6.0786357
6.0787014
6.0811784
6.0797967
6.0757636
6.0676656
6.06061
6.0613989
6.0675644
6.0754831
6.0829755
6.0860287
6.0749664
6.0504754
6.0497789
6.0746103
6.0858779
6.0824391
6.075281
6.0691251
6.0631471
6.0610062
6.0727647
6.0740141
6.0850071
6.085551
6.0975172
6.0844793
6.0836592
6.0893784
6.0841473
6.0966555
6.0839326
6.0723859
6.072487
6.0833227
6.0832552
6.088054
6.0678005
6.0701379
6.0745945
6.0745127
6.0747537
6.0724739
6.0708001
6.0693431
6.0629543
6.0614307
6.0728319
6.0732087
6.0840377
6.0967229
6.0836073
6.0842776
6.0845047
6.0891828
6.092281
6.0904748
6.1020114
6.0935278
6.0939054
6.0902283
6.0850284
6.0795676
6.0790244
6.0850551
6.090407
6.0886718
6.1023941
6.0910195
6.0882994
6.0797162
6.0654775
6.0693472
6.069295
6.0683607
6.0624956
6.0621791
6.0736223
6.0847762
6.0858805
6.0995404
6.0855659
6.0739206
6.0851825
6.0894166
6.1180295
6.1181158
6.1210476
6.115621
6.1147232
6.1178052
6.1157917
6.1504016
6.1884321
6.1934285
6.1876622
6.1493848
6.1544003
6.1631961
6.1521141
6.1909265
6.1960563
6.1894834
6.1516793
6.1532546
6.1914327
6.1920494
6.1538227
6.1191754
6.0898531
6.0960787
6.0949409
6.0917806
6.1020827
6.0947233
6.1248899
6.1346445
6.1391296
6.1250262
6.1271726
6.1370555
6.1024733
6.1051672
6.0952349
6.1088516
6.104338
6.0954154
6.0903828
6.119116
6.1259439
6.1360026
6.1261535
6.1260479
6.1005418
6.0850154
6.0839614
6.0838673
6.0836574
6.0840521
6.0854645
6.1009652
6.1013363
6.1011683
6.1012886
6.1012979
6.1281187
6.128491
6.1315695
6.1305998
6.0966794
6.0728903
6.0802942
6.0747711
6.0167399
5.9562337
5.9461453
5.9464886
5.9569073
6.017537
6.0322679
6.0706921
6.0771778
6.077798
6.0716584
6.0342093
6.0199923
5.9588226
5.9488949
5.9489378
5.9588798
6.0200851
6.0344642
6.0722501
6.0785523
6.0785589
6.0873627
6.081179
6.0707875
6.0615952
6.061741
6.0679453
6.069127
6.0691312
6.0678938
6.0616091
6.0614257
6.0705702
6.0809673
6.0870931
6.0776817
6.0771964
6.0705342
6.0312661
6.0158271
5.9520166
5.9410385
5.9400928
5.9508308
6.0149598
6.0304359
6.0698623
6.0764955
6.0761847
6.0695547
6.0314691
5.9931269
5.9609293
5.8749832
5.7087312
5.5154462
5.3953891
5.3967441
5.51881
5.7126443
5.8775282
5.9624905
5.9948974
6.0344771
6.0774577
6.0844793
6.0761204
6.077017
6.0825395
6.0542785
5.9604191
6.0204128
5.9705511
5.9124387
5.7164043
5.5632278
5.4418356
5.2781655
5.1678043
5.0568781
5.0126099
5.0119217
5.0551858
5.1650398
5.2739664
5.4368069
5.5588012
5.7110343
5.437901
5.2967867
5.1099142
4.9844598
4.8518105
4.7996945
4.8003783
4.8536645
4.9875651
5.1143493
5.3025048
5.4429808
5.2822925
5.5280205
5.7842782
5.8672849
5.850926
5.9508323
5.9510223
6.0543578
6.0825528
6.077025
6.0761878
6.0845419
6.0775758
6.0208355
5.9608387
5.8678983
5.8510382
5.750448
5.7501984
5.4114458
5.0662664
5.1745543
4.9937674
5.1177269
4.9431423
4.7781513
4.6337534
4.5590932
4.5585329
4.6316081
4.7744841
4.9384237
5.1112543
5.276436
5.521093
5.1679728
4.9863624
4.7755115
4.5594669
4.3839084
4.288556
4.2890957
4.3859725
4.5634859
4.7812086
4.6390597
4.8623547
4.810381
5.0227788
5.0224136
5.4115689
5.0654085
4.8616126
4.8098997
4.5651791
4.5658442
4.2927844
4.3884072
4.18263
4.0679443
4.0673481
4.1805948
4.3843839
4.6330635
4.8542866
5.0588596
5.4025472
5.0154174
4.8019305
4.5594431
4.2883354
4.0668543
3.9433142
3.943911
4.0691019
4.0682625
4.2921123
4.3867761
4.6376001
4.7796884
4.9928661
5.1739174
5.5288884
5.7850894
5.9134055
5.9710586
5.9956035
6.0349588
6.0723394
6.0616379
6.0413919
5.9634798
5.8794344
5.7186277
5.4449122
5.2823323
5.1177209
4.9424532
4.7771787
4.5612919
4.383739
4.180268
4.0655799
3.9429044
3.9422155
4.0658978
4.287796
4.558964
4.8019202
5.0154372
5.4032325
5.0588222
4.8540396
4.6318904
4.3826053
4.1782613
4.0648467
4.2863471
4.2867665
4.5580302
4.6323062
4.8549649
4.9889122
5.1155734
5.3045027
5.4439384
5.5647231
5.7173262
5.5250011
5.2793957
5.169402
5.0585812
5.0146195
4.8019384
4.8017055
4.5574751
4.6311314
4.3818937
4.5581322
4.7746398
4.9863746
5.168355
5.5228047
5.2778395
5.1123642
4.9385581
4.7744083
4.9868099
4.8537789
5.0577995
5.0142423
5.4049703
5.4053248
5.7461842
5.7813513
5.9120966
5.96272
5.9947633
6.0615121
6.0718385
6.0768452
6.0691387
5.9867709
5.9678387
5.8396361
5.827039
5.8270059
5.8393436
5.9676651
5.9866424
6.0677188
6.0714139
6.0601641
6.0705744
6.0598936
5.9923926
5.9665904
5.8594168
5.8413423
5.8399048
5.8573743
5.965077
5.9907912
6.0586673
6.0693906
6.0586936
6.0377521
5.9582389
5.9053946
5.7724432
5.7360197
5.7376793
5.774942
5.9076948
5.9602564
6.0393979
6.0521127
6.0676841
5.9843923
5.9647791
5.8331007
5.8198673
5.8181992
5.8310176
5.9632878
5.9829373
6.0663729
6.0745737
6.0902462
6.0664946
6.050604
5.9663937
5.9863672
5.9245711
5.7819292
5.8219761
5.7543404
5.4201879
5.5366218
5.7238404
5.8897541
5.969206
5.9857204
5.989437
5.9665297
5.9682226
5.9095871
5.7818825
5.8655292
5.8487373
5.7467451
5.7475387
5.8492014
5.8664621
5.7832006
5.9114342
5.7145205
5.5618045
5.4403576
5.2767978
5.1678692
5.5234583
5.7151871
5.8781691
5.9625593
5.9942096
5.9693144
5.9673244
5.8405811
5.8279132
5.8274674
5.8398978
5.8316692
5.7913387
5.928481
5.7264871
5.5496419
5.4747247
5.42541
5.3973209
5.4434585
5.3013487
5.4445394
5.3976863
5.3154123
5.0788235
5.1572605
5.2535778
5.1637568
5.0837045
5.0745273
4.9929031
4.9847065
5.0966274
4.9319024
5.0980802
5.2563615
5.5428054
5.1589728
5.076542
5.0799846
4.9946928
5.0853494
5.1666976
4.9866051
4.8416381
5.0396516
5.42803
5.7647189
5.7654738
5.8321018
5.7922393
5.9297733
5.9898682
5.9862363
5.9699763
5.8915548
5.7285965
5.5435811
5.4284835
5.0038684
5.0038395
4.8935114
4.9225242
4.8422729
4.8253337
4.7898891
4.7950281
4.5515185
4.6250627
4.7698027
4.7670183
4.9294809
4.7661987
4.7686708
4.5461517
4.5321805
4.3475187
4.6190045
4.8232379
4.9200448
5.0355998
5.0001002
4.8910615
4.8394413
4.7875865
4.7927026
4.839056
4.6235042
4.5505808
4.545359
4.2485998
4.2695988
4.3665907
4.1583795
4.367132
4.3477178
4.6202619
4.5462006
4.2482002
4.2693257
4.0421364
4.0125737
4.131792
4.013402
4.0425933
3.9156779
3.8826605
3.8468239
3.9815173
4.225005
4.5426532
4.6169868
4.7669687
4.9334512
4.9229901
4.7476385
4.4991621
4.7489408
4.7678118
4.5165058
4.3263031
4.3038893
4.5993419
4.5195097
4.199621
4.1778536
4.5299537
4.8225692
5.4803087
5.5973526
5.7710958
5.9273082
5.9117289
5.7622686
5.5881124
5.48015
5.4817252
5.8239557
5.7560831
5.7841243
5.9265429
5.9877733
5.9678671
5.8913685
5.7270238
5.5395868
5.4214354
5.0008658
4.8916909
4.8402885
4.9208568
5.0371247
4.8407328
4.7933975
4.7882398
4.8241696
4.9955677
5.0859444
5.1662413
5.2571702
5.1598853
5.0769121
5.0811686
5.1002604
4.9874137
4.77202
4.6255598
4.5510494
4.5457659
4.62058
4.349009
4.2488331
4.270054
4.3684383
4.5497407
4.5352927
4.7687217
4.9326687
4.9356778
4.7746678
4.7709849
4.6243594
4.3508389
4.1335867
4.0137645
4.0431463
4.1601553
4.0441773
3.9161906
3.8830353
4.0142262
4.2513703
4.2731789
4.370591
4.6299107
4.5568491
4.5504468
4.7966933
4.8320165
5.0006156
5.0854246
5.3200204
5.4016385
5.4479141
5.5537411
5.7290336
5.4783457
5.4291219
5.401512
5.4492731
5.306279
5.1037702
5.2619077
5.5454474
5.1637004
5.0814632
5.0903479
5.1728636
4.9930169
4.848658
5.0466199
5.4312623
4.928363
4.8482387
4.8988987
5.0106764
4.8023037
4.8018062
4.5559438
4.2725445
4.0432086
3.9151332
3.9144516
4.041068
4.2687943
4.5509263
4.7950354
4.7898207
4.8931229
4.8417371
4.9217132
5.0393467
4.8412066
4.8246969
4.9938404
5.0846615
5.1667336
4.9860712
5.0981762
5.2568301
5.1579646
5.0751089
5.0787654
4.9276171
4.7651076
4.6187043
4.5454863
4.2471974
4.3453212
4.3649874
4.6235638
4.7683139
4.54419
4.5293863
4.7635949
4.7674864
4.9309126
5.098154
5.1121991
5.2999782
5.4410824
5.4471584
5.3993566
5.4264144
5.3167635
5.3035263
5.4466357
5.7272338
5.5521001
5.4754882
5.3983033
5.1569668
5.078823
5.0740869
4.9928831
4.9858678
5.1661642
5.5403774
5.2559066
5.0828526
4.9187217
4.8225136
4.6158693
4.3436767
4.1289267
4.0113241
3.8812226
4.0099467
4.03974
4.1556559
4.3638395
4.2665932
4.2441263
4.5415463
4.5480831
4.621756
4.8397059
4.793415
4.7870027
4.8379589
4.8891317
5.424444
5.0377143
5.0019175
5.0022625
4.7936284
4.5485967
4.2669874
4.0404145
4.010243
3.8818094
4.0131778
4.1302681
4.1574292
4.3686843
4.3481607
4.2502465
4.5493104
4.6222931
4.6282349
4.7724355
4.5467925
4.3654913
4.3447837
4.2444178
4.5416631
4.6164794
4.6227271
4.7698302
4.7651905
4.5313136
4.7679104
4.929737
4.9339143
5.1026378
4.9915736
4.8476581
4.8304509
4.7955304
4.84666
4.8978687
5.4311318
5.0101391
5.0454478
4.9265486
5.0884761
4.9982085
5.0786434
5.0825678
5.1610363
5.5453991
5.1717303
5.2608751
5.4504369
5.3073153
5.1002893
4.9876274
4.8406769
4.8229645
4.7871556
4.8381436
4.8893045
5.4246658
5.0383406
4.9187236
5.0841971
4.9943022
5.0750371
5.0799134
5.1578186
5.5413797
5.1673473
5.257801
5.4496183
5.7285546
5.4011522
5.3199533
5.4285877
5.4015813
5.7299426
5.5546865
5.4777169
5.8919499
5.9133869
5.7670104
5.5951651
5.4894739
5.4897388
5.5957819
5.7669214
5.9130838
5.764892
5.590723
5.599554
5.4814514
4.8234275
5.074914
5.0796216
5.6323421
5.8484891
6.1033987
6.1365728
6.1254826
6.1182393
6.0898715
6.095139
6.0934033
6.1234736
6.1198515
6.1192291
6.120522
6.1160813
6.1248108
6.1340914
6.1382007
6.1043169
6.1021575
6.0656469
6.0649956
6.1029199
6.1345558
6.147058
6.1388389
6.1472157
6.1086663
6.0853643
6.0793488
6.071756
6.0951756
6.1025304
6.1049034
6.1403316
6.1383157
6.1023453
6.0774357
6.0525509
6.0526563
6.0774316
6.0726956
6.0727721
6.0968181
6.0967528
6.1314964
6.1283671
6.1280978
6.1306166
6.0967528
6.0730551
6.0803431
6.07492
6.0855506
6.0795432
6.0721186
6.0695537
6.075481
6.0826487
6.0868008
6.0770568
6.0534333
6.0535056
6.0773055
6.0873282
6.0834807
6.0758384
6.0679825
6.0618446
6.0608936
6.0677769
6.0758625
6.0812063
6.0845092
6.0823534
6.0822701
6.0842379
6.0807084
6.0751509
6.0673568
6.0610957
6.0633796
6.0740382
6.072776
6.0836499
6.0844632
6.085541
6.0974571
6.085054
6.1157314
6.1194407
6.1264578
6.1264454
6.1577187
6.159674
6.1602856
6.1604313
6.1597377
6.1573403
6.1932323
6.2324428
6.2741999
6.2802037
6.2748738
6.271355
6.2288708
6.2342447
6.2283299
6.2710049
6.2767335
6.2876679
6.2741893
6.2316614
6.2368717
6.2300415
6.2727193
6.2746242
6.2320313
6.2326435
6.27517
6.2880314
6.2857019
6.2793246
6.3003911
6.2570372
6.2450155
6.2035634
6.2146421
6.1732373
6.1571413
6.1623368
6.2019482
6.2038885
6.1639857
6.1778993
6.179124
6.2219261
6.2218572
6.2669556
6.2453094
6.2431249
6.2657388
6.3103924
6.3128729
6.3107378
6.3306709
6.3282107
6.3082919
6.2879243
6.2454354
6.2327537
6.1925813
6.1545744
6.1641599
6.2042202
6.2157043
6.1983514
6.1606676
6.1747313