/*--------------------------------*- C++ -*----------------------------------*\
  =========                 |
  \\      /  F ield         | OpenFOAM: The Open Source CFD Toolbox
   \\    /   O peration     | Website:  https://openfoam.org
    \\  /    A nd           | Version:  7
     \\/     M anipulation  |
\*---------------------------------------------------------------------------*/
FoamFile
{
    version     2.0;
    format      ascii;
    class       volScalarField;
    location    "420";
    object      T;
}
// * * * * * * * * * * * * * * * * * * * * * * * * * * * * * * * * * * * * * //

dimensions      [0 0 0 1 0 0 0];

internalField   nonuniform List<scalar> 
24866
(
299.99997
299.99996
299.99996
299.99998
300
300
300
300
300
300
300
300
300
300
300
300
300
300
300
300
300
300
300
300
300
300
300
300
300
300
300
300
300
300
300
300
300
300
300
300
300
300
300
300
300
300
300
300
300
300
300
300
300
300
300
300
300
300
300
300
300
300
300
300
300
300
300
300
300
300
300
300
300
300
300
300
300
300
300
300
300
300
300
300
300
300
300
300
300
300
300
300
300
300
300
300
300
300
300
300
300
300
300
300
300
300
300
300
300
300
300
300
300
300
300
300
300
300
300
300
300
300
300
300
300
300
300
300
300
300
300
300.00001
300.00001
300.00001
300.00001
300
300
300
300
300
300
300
300
300
299.99999
300
299.99999
299.99998
299.99998
299.99998
299.99998
299.99999
299.99998
299.99999
299.99999
299.99998
299.99998
299.99999
299.99998
299.99999
299.99998
299.99998
299.99998
299.99998
299.99998
299.99998
299.99998
299.99998
299.99998
299.99998
299.99998
299.99998
299.99998
299.99998
299.99998
299.99998
299.99998
299.99998
299.99999
299.99999
299.99999
299.99999
299.99999
299.99998
299.99999
299.99999
300
300
300
300
300
300
300
300
300
300
300
300.00001
300.00001
300.00001
300.00001
300.00001
300
300
300
300
300
300
299.99999
299.99999
299.99999
299.99999
299.99998
299.99999
299.99996
299.99996
299.99996
299.99996
299.99996
299.99996
299.99996
299.99996
299.99996
299.99996
299.99997
299.99997
299.99996
299.99996
299.99996
299.99996
299.99996
299.99996
299.99996
299.99996
299.99996
299.99996
299.99996
299.99996
299.99996
299.99996
299.99996
299.99996
299.99996
299.99993
299.99992
299.99992
299.99992
299.99992
299.99996
299.99998
299.99998
299.99998
299.99998
299.99998
299.99998
299.99998
299.99998
299.99998
299.99998
299.99998
299.99998
299.99998
299.99998
299.99998
299.99998
299.99998
299.99999
300
300
299.99999
299.99998
299.99999
299.99998
299.99998
299.99999
299.99999
299.99999
299.99999
299.99998
299.99999
299.99999
299.99999
299.99999
300
300
300
300
300
300
300
300
300.00001
300
300.00001
300.00001
300
300
300
300
300
300
300
300
300
300
300
300
300
300
300
300
300
300
300
300
300
300
300
300
300
300
300
300
300
300
300
300
300
300
300
300
299.99999
299.99999
299.99999
300
299.99999
299.99999
299.99998
299.99997
299.99996
299.99996
299.99996
299.99996
299.99998
299.99999
299.99999
299.99999
299.99999
299.99999
299.99999
299.99998
299.99999
299.99998
299.99997
299.99997
299.99996
299.99996
299.99996
299.99996
299.99993
299.99993
299.99993
299.99993
299.99993
299.99993
299.99993
299.99993
299.99993
299.99993
299.99993
299.99993
299.99993
299.99993
299.99993
299.99993
299.99993
299.99993
299.99992
299.99992
299.99993
299.99993
299.99992
299.99993
299.99993
299.99993
299.99993
299.99992
299.99992
299.99988
299.99988
299.99988
299.99988
299.99988
299.99988
299.99988
299.99993
299.99996
299.99996
299.99996
299.99996
299.99996
299.99996
299.99996
299.99996
299.99996
299.99996
299.99996
299.99996
299.99996
299.99993
299.99993
299.99993
299.99993
299.99993
299.99993
299.99993
299.99993
299.99993
299.99993
299.99989
299.99989
299.99989
299.99989
299.99989
299.99989
299.99988
299.99989
299.99989
299.99989
299.99989
299.9999
299.9999
299.99989
299.99989
299.99989
299.99989
299.99988
299.99988
299.99988
299.99988
299.99989
299.99988
299.99988
299.99989
299.99989
299.99989
299.99989
299.99988
299.99982
299.99982
299.99983
299.99982
299.99982
299.99982
299.99982
299.99983
299.99982
299.99983
299.99988
299.99992
299.99993
299.99993
299.99993
299.99993
299.99993
299.99993
299.99993
299.99992
299.99993
299.99988
299.99988
299.99988
299.99989
299.99989
299.99989
299.9999
299.9999
299.9999
299.9999
299.99984
299.99984
299.99984
299.99984
299.99983
299.99983
299.99983
299.99983
299.99984
299.99984
299.99984
299.99984
299.99985
299.99985
299.99984
299.99984
299.99983
299.99984
299.99982
299.99982
299.99982
299.99982
299.99983
299.99983
299.99983
299.99983
299.99984
299.99984
299.99983
299.99976
299.99975
299.99974
299.99975
299.99973
299.99973
299.99973
299.99973
299.99975
299.99974
299.99975
299.99976
299.99983
299.99989
299.99989
299.99989
299.99989
299.99988
299.99988
299.99989
299.99988
299.99982
299.99982
299.99983
299.99983
299.99984
299.99984
299.99984
299.99984
299.99985
299.99985
299.99978
299.99977
299.99976
299.99976
299.99976
299.99975
299.99975
299.99975
299.99975
299.99976
299.99976
299.99976
299.99977
299.99977
299.99977
299.99977
299.99976
299.99976
299.99976
299.99974
299.99974
299.99974
299.99974
299.99975
299.99975
299.99975
299.99976
299.99976
299.99976
299.99966
299.99965
299.99964
299.99963
299.99964
299.99962
299.99962
299.99962
299.99962
299.99964
299.99963
299.99964
299.99965
299.99966
299.99976
299.99984
299.99984
299.99983
299.99983
299.99983
299.99983
299.99975
299.99974
299.99974
299.99974
299.99975
299.99976
299.99976
299.99976
299.99977
299.99978
299.99968
299.99968
299.99967
299.99966
299.99965
299.99966
299.99964
299.99964
299.99964
299.99964
299.99966
299.99965
299.99965
299.99967
299.99968
299.99967
299.99967
299.99965
299.99965
299.99965
299.99963
299.99963
299.99963
299.99963
299.99964
299.99964
299.99964
299.99965
299.99966
299.99952
299.99952
299.99951
299.99949
299.99949
299.99949
299.99947
299.99947
299.99947
299.99947
299.99949
299.99949
299.9995
299.99951
299.99952
299.99953
299.99966
299.99976
299.99976
299.99975
299.99975
299.99964
299.99965
299.99963
299.99963
299.99963
299.99963
299.99965
299.99965
299.99966
299.99967
299.99953
299.99955
299.99955
299.99954
299.99952
299.99951
299.99952
299.9995
299.9995
299.9995
299.9995
299.99952
299.99951
299.99952
299.99953
299.99954
299.99954
299.99953
299.99951
299.99951
299.99951
299.99949
299.99948
299.99948
299.99948
299.9995
299.99949
299.9995
299.99951
299.99934
299.99935
299.99935
299.99934
299.99932
299.99931
299.99931
299.9993
299.99929
299.99929
299.9993
299.99932
299.99931
299.99932
299.99934
299.99935
299.99935
299.99934
299.99952
299.99966
299.99964
299.9995
299.9995
299.9995
299.99949
299.99949
299.99949
299.99949
299.99951
299.99951
299.99952
299.99934
299.99936
299.99938
299.99938
299.99937
299.99935
299.99934
299.99934
299.99932
299.99932
299.99932
299.99932
299.99934
299.99934
299.99934
299.99936
299.99937
299.99937
299.99936
299.99934
299.99933
299.99933
299.99931
299.99931
299.99931
299.9993
299.99932
299.99932
299.99932
299.99913
299.99914
299.99915
299.99914
299.99913
299.99912
299.99911
299.99911
299.9991
299.9991
299.9991
299.9991
299.99911
299.99911
299.99912
299.99914
299.99915
299.99915
299.99914
299.99913
299.99933
299.99932
299.99933
299.99931
299.99931
299.99931
299.99932
299.99934
299.99934
299.99914
299.99915
299.99917
299.99918
299.99918
299.99917
299.99915
299.99915
299.99915
299.99914
299.99913
299.99913
299.99913
299.99914
299.99914
299.99915
299.99916
299.99917
299.99917
299.99916
299.99914
299.99913
299.99913
299.99912
299.99911
299.99911
299.99911
299.99912
299.99912
299.99894
299.99894
299.99894
299.99894
299.99894
299.99894
299.99894
299.99893
299.99893
299.99893
299.99893
299.99893
299.99893
299.99893
299.99893
299.99894
299.99894
299.99894
299.99895
299.99895
299.99895
299.99895
299.99913
299.99913
299.99912
299.99912
299.99912
299.99913
299.99914
299.99896
299.99896
299.99897
299.99897
299.99898
299.99898
299.99898
299.99898
299.99897
299.99897
299.99897
299.99896
299.99896
299.99897
299.99896
299.99896
299.99897
299.99897
299.99897
299.99897
299.99896
299.99896
299.99895
299.99895
299.99895
299.99894
299.99894
299.99894
299.99894
299.99883
299.99884
299.99884
299.99882
299.99881
299.99881
299.99882
299.99884
299.99883
299.99882
299.99885
299.99884
299.99884
299.99885
299.99882
299.99883
299.99884
299.99882
299.99882
299.99882
299.99883
299.99885
299.99885
299.99885
299.99895
299.99896
299.99895
299.99896
299.99896
299.99888
299.99886
299.99887
299.99888
299.99886
299.99885
299.99885
299.99886
299.99888
299.99887
299.99887
299.99889
299.99888
299.99888
299.99889
299.99886
299.99886
299.99887
299.99885
299.99884
299.99884
299.99885
299.99886
299.99885
299.99884
299.99887
299.99886
299.99886
299.99886
299.99894
299.99889
299.9989
299.99891
299.99888
299.99886
299.99886
299.99887
299.9989
299.99889
299.99888
299.99892
299.99891
299.99891
299.99892
299.99888
299.9989
299.99891
299.99888
299.99886
299.99887
299.99889
299.99892
299.99891
299.99891
299.99895
299.99888
299.99887
299.99887
299.99895
299.99896
299.99892
299.99894
299.99895
299.99892
299.9989
299.9989
299.99892
299.99895
299.99894
299.99893
299.99897
299.99896
299.99896
299.99896
299.99892
299.99893
299.99894
299.99891
299.99889
299.99889
299.9989
299.99893
299.99892
299.99891
299.99894
299.99893
299.99893
299.99918
299.99919
299.99915
299.99915
299.99916
299.99913
299.99911
299.99911
299.99912
299.99915
299.99914
299.99913
299.99918
299.99917
299.99917
299.99918
299.99914
299.99915
299.99916
299.99913
299.99911
299.99912
299.99914
299.99917
299.99917
299.99916
299.99921
299.9992
299.99895
299.99881
299.99866
299.99881
299.99869
299.99855
299.99876
299.99867
299.9986
299.9986
299.99867
299.99877
299.99899
299.9992
299.99919
299.99918
299.99922
299.99921
299.99921
299.99922
299.99918
299.99919
299.99919
299.99916
299.99914
299.99914
299.99915
299.99918
299.99917
299.99916
299.99919
299.99919
299.99959
299.99958
299.99959
299.99955
299.99956
299.99956
299.99953
299.99951
299.99951
299.99952
299.99955
299.99955
299.99954
299.99957
299.99957
299.99957
299.99958
299.99954
299.99955
299.99955
299.99953
299.99951
299.99952
299.99954
299.99957
299.99957
299.99957
299.99961
299.9996
299.99961
299.99921
299.99922
299.99918
299.99919
299.9992
299.99917
299.99916
299.99916
299.99917
299.99957
299.9996
299.99959
299.99959
299.99962
299.99961
299.99961
299.99962
299.99958
299.99959
299.99959
299.99956
299.99954
299.99954
299.99955
299.99957
299.99957
299.99956
299.99959
300.00009
300.00008
300.00008
300.00008
300.00005
300.00006
300.00005
300.00002
300.00001
300.00001
300.00002
300.00005
300.00005
300.00004
300.00007
300.00007
300.00007
300.00007
300.00004
300.00005
300.00005
300.00003
300.00002
300.00002
300.00004
300.00007
300.00007
300.00007
300.0001
300.0001
300.0001
300.00011
299.99961
299.99958
299.99959
299.9996
299.99957
299.99956
299.99956
300.00005
300.00007
300.00009
300.00009
300.00008
300.00011
300.00011
300.00011
300.00011
300.00008
300.00008
300.00008
300.00005
300.00004
300.00003
300.00004
300.00007
300.00007
300.00006
300.00063
300.00065
300.00065
300.00065
300.00064
300.00062
300.00062
300.00062
300.0006
300.00058
300.00058
300.00059
300.00061
300.00062
300.00062
300.00064
300.00064
300.00064
300.00064
300.00062
300.00062
300.00062
300.0006
300.00059
300.0006
300.00061
300.00063
300.00064
300.00064
300.00066
300.00066
300.00066
300.00066
300.00064
300.00008
300.00009
300.00009
300.00006
300.00005
300.00062
300.00062
300.00062
300.00064
300.00065
300.00064
300.00066
300.00066
300.00066
300.00066
300.00064
300.00064
300.00063
300.00061
300.0006
300.0006
300.00061
300.00063
300.00063
300.00123
300.00123
300.00124
300.00124
300.00124
300.00124
300.00123
300.00123
300.00122
300.00121
300.00121
300.00121
300.00121
300.00122
300.00123
300.00123
300.00124
300.00124
300.00124
300.00124
300.00123
300.00123
300.00122
300.00121
300.00121
300.00121
300.00122
300.00123
300.00124
300.00123
300.00124
300.00125
300.00125
300.00124
300.00123
300.00124
300.00065
300.00064
300.00063
300.00122
300.00122
300.00122
300.00122
300.00123
300.00123
300.00123
300.00124
300.00124
300.00124
300.00124
300.00123
300.00123
300.00122
300.00121
300.00121
300.00121
300.00121
300.00122
300.0018
300.00181
300.00181
300.00181
300.00182
300.00182
300.00181
300.00181
300.00181
300.00181
300.0018
300.00181
300.00181
300.00181
300.00181
300.00182
300.00182
300.00182
300.00183
300.00183
300.00182
300.00182
300.00182
300.00181
300.00181
300.00181
300.0018
300.0018
300.0018
300.00181
300.00181
300.00181
300.00181
300.00181
300.0018
300.0018
300.0018
300.00179
300.00123
300.00114
300.00109
300.00106
300.00106
300.00109
300.00114
300.00175
300.00179
300.0018
300.00179
300.0018
300.0018
300.0018
300.0018
300.0018
300.0018
300.00179
300.00179
300.0018
300.0018
300.0018
300.00231
300.00231
300.00233
300.00233
300.00233
300.00233
300.00234
300.00233
300.00233
300.00234
300.00233
300.00233
300.00234
300.00234
300.00234
300.00233
300.00235
300.00234
300.00234
300.00235
300.00235
300.00234
300.00234
300.00234
300.00233
300.00233
300.00233
300.00233
300.00232
300.00232
300.00232
300.00232
300.00232
300.00232
300.00232
300.00231
300.00231
300.00231
300.0023
300.0023
300.00179
300.00179
300.00179
300.00179
300.00229
300.00229
300.0023
300.0023
300.0023
300.00231
300.00231
300.0023
300.00231
300.00231
300.0023
300.00231
300.00231
300.00232
300.00277
300.00277
300.00277
300.00278
300.00278
300.00278
300.00279
300.00279
300.00279
300.00279
300.0028
300.00279
300.00279
300.0028
300.0028
300.0028
300.0028
300.00281
300.00281
300.0028
300.00281
300.00281
300.0028
300.0028
300.0028
300.00279
300.00279
300.00279
300.00279
300.00278
300.00277
300.00278
300.00277
300.00277
300.00277
300.00276
300.00276
300.00276
300.00275
300.00275
300.00275
300.00275
300.0023
300.0023
300.00275
300.00274
300.00274
300.00275
300.00275
300.00275
300.00275
300.00275
300.00275
300.00276
300.00276
300.00275
300.00276
300.00277
300.00317
300.00318
300.00318
300.00318
300.00319
300.00319
300.00319
300.0032
300.0032
300.0032
300.0032
300.00321
300.0032
300.00321
300.00321
300.00321
300.00321
300.00321
300.00321
300.00321
300.00321
300.00321
300.00321
300.00321
300.00321
300.00321
300.0032
300.0032
300.0032
300.00319
300.00319
300.00318
300.00318
300.00317
300.00317
300.00317
300.00317
300.00316
300.00316
300.00316
300.00315
300.00315
300.00315
300.00315
300.00314
300.00314
300.00315
300.00315
300.00315
300.00315
300.00315
300.00315
300.00316
300.00316
300.00316
300.00316
300.00353
300.00353
300.00354
300.00354
300.00354
300.00355
300.00355
300.00356
300.00356
300.00356
300.00356
300.00357
300.00357
300.00357
300.00357
300.00358
300.00358
300.00358
300.00357
300.00358
300.00358
300.00358
300.00358
300.00358
300.00357
300.00357
300.00357
300.00356
300.00356
300.00356
300.00356
300.00355
300.00354
300.00354
300.00354
300.00353
300.00353
300.00353
300.00352
300.00352
300.00352
300.00351
300.00351
300.00351
300.00351
300.00351
300.00351
300.00351
300.00351
300.00351
300.00352
300.00352
300.00352
300.00352
300.00352
300.00352
300.00384
300.00385
300.00386
300.00386
300.00386
300.00386
300.00387
300.00388
300.00388
300.00389
300.00389
300.00389
300.00389
300.0039
300.00389
300.0039
300.0039
300.0039
300.0039
300.0039
300.0039
300.0039
300.0039
300.0039
300.0039
300.0039
300.0039
300.0039
300.00389
300.00389
300.00389
300.00388
300.00388
300.00387
300.00387
300.00386
300.00386
300.00386
300.00386
300.00385
300.00385
300.00385
300.00384
300.00384
300.00384
300.00384
300.00384
300.00384
300.00384
300.00384
300.00384
300.00385
300.00385
300.00385
300.00385
300.00385
300.00414
300.00413
300.00413
300.00414
300.00414
300.00415
300.00415
300.00416
300.00417
300.00418
300.00418
300.00419
300.00419
300.00419
300.00419
300.00419
300.00419
300.00419
300.00419
300.00419
300.00419
300.0042
300.00419
300.0042
300.0042
300.00419
300.00419
300.00419
300.00419
300.00418
300.00418
300.00418
300.00417
300.00417
300.00417
300.00417
300.00416
300.00416
300.00416
300.00416
300.00416
300.00415
300.00415
300.00415
300.00415
300.00415
300.00414
300.00414
300.00414
300.00414
300.00414
300.00415
300.00415
300.00415
300.00415
300.00414
300.0044
300.00439
300.00438
300.00438
300.00439
300.00439
300.00439
300.0044
300.00441
300.00442
300.00444
300.00444
300.00445
300.00445
300.00444
300.00445
300.00444
300.00444
300.00444
300.00444
300.00444
300.00444
300.00445
300.00445
300.00445
300.00445
300.00445
300.00445
300.00444
300.00444
300.00444
300.00443
300.00443
300.00443
300.00442
300.00442
300.00443
300.00442
300.00443
300.00443
300.00442
300.00442
300.00442
300.00442
300.00442
300.00442
300.00441
300.00441
300.00441
300.00441
300.00441
300.00441
300.00442
300.00442
300.00442
300.00441
300.00466
300.00464
300.0046
300.00458
300.00458
300.00459
300.00459
300.00459
300.00459
300.00461
300.00464
300.00467
300.00467
300.00468
300.00468
300.00467
300.00468
300.00467
300.00466
300.00465
300.00465
300.00466
300.00467
300.00467
300.00467
300.00467
300.00468
300.00468
300.00467
300.00467
300.00467
300.00466
300.00465
300.00464
300.00464
300.00465
300.00466
300.00467
300.00466
300.00467
300.00467
300.00467
300.00467
300.00466
300.00467
300.00467
300.00467
300.00465
300.00464
300.00465
300.00466
300.00466
300.00466
300.00467
300.00467
300.00466
300.00481
300.0048
300.00478
300.00478
300.00474
300.00474
300.00474
300.00474
300.00474
300.00474
300.00478
300.00478
300.0048
300.00481
300.00481
300.0048
300.0048
300.00481
300.0048
300.00479
300.00479
300.00479
300.00479
300.00479
300.0048
300.0048
300.00479
300.0048
300.0048
300.00479
300.00479
300.0048
300.00479
300.00479
300.00479
300.00479
300.00479
300.00479
300.0048
300.0048
300.0048
300.00481
300.00481
300.00481
300.0048
300.00482
300.00481
300.00481
300.0048
300.0048
300.0048
300.00481
300.00481
300.00481
300.00481
300.00481
300.00494
300.00493
300.00492
300.00493
300.00495
300.00497
300.00498
300.00497
300.00496
300.00494
300.00492
300.0049
300.00491
300.0049
300.00489
300.00491
300.00491
300.0049
300.00491
300.00492
300.00492
300.00491
300.00489
300.0049
300.0049
300.00487
300.00488
300.00488
300.00487
300.0049
300.0049
300.00489
300.00491
300.00492
300.00492
300.00492
300.00491
300.00492
300.00492
300.00491
300.00492
300.00492
300.00491
300.00494
300.00496
300.00496
300.00495
300.00495
300.00496
300.00495
300.00494
300.00495
300.00495
300.00493
300.00499
300.005
300.00509
300.0053
300.00568
300.00615
300.00652
300.00647
300.00606
300.00563
300.00528
300.00508
300.00498
300.00498
300.00505
300.00529
300.00582
300.00679
300.00814
300.00927
300.00934
300.00825
300.00684
300.00582
300.00528
300.00505
300.00498
300.00499
300.00491
300.0049
300.00484
300.00486
300.0048
300.00487
300.00485
300.00491
300.00488
300.00481
300.00487
300.00491
300.00491
300.00485
300.00485
300.00489
300.00507
300.00518
300.00535
300.00548
300.00543
300.00528
300.00515
300.00505
300.00498
300.00499
300.00491
300.0049
300.00485
300.00481
300.00485
300.00487
300.00487
300.00488
300.00497
300.0049
300.00482
300.00487
300.00487
300.00491
300.00493
300.00491
300.00491
300.00493
300.00491
300.00495
300.00484
300.00488
300.00492
300.00496
300.00506
300.00511
300.00513
300.00508
300.00502
300.00504
300.00494
300.00487
300.0049
300.00482
300.00489
300.00493
300.00486
300.00489
300.00472
300.00469
300.00478
300.00471
300.00469
300.00473
300.00468
300.00442
300.00415
300.00416
300.00415
300.00443
300.00446
300.00456
300.00444
300.00416
300.00419
300.00415
300.00443
300.00445
300.00417
300.00419
300.00447
300.00474
300.00492
300.00528
300.00514
300.00498
300.00546
300.00508
300.00487
300.00519
300.00574
300.00492
300.00506
300.00625
300.00651
300.00602
300.00896
300.00695
300.00563
300.00507
300.00486
300.00469
300.00486
300.00517
300.00475
300.00463
300.00482
300.00487
300.00489
300.00489
300.00489
300.00489
300.00487
300.00483
300.00484
300.00486
300.00486
300.00484
300.00466
300.00468
300.00502
300.00489
300.00507
300.00522
300.00597
300.00801
300.01251
300.01395
300.01469
300.01472
300.01401
300.0126
300.01106
300.00962
300.00839
300.0084
300.00968
300.0112
300.01282
300.01428
300.01501
300.015
300.01427
300.01283
300.01122
300.00971
300.00842
300.00842
300.00688
300.00567
300.00515
300.005
300.00498
300.00505
300.0051
300.0051
300.00506
300.00499
300.00501
300.00516
300.00566
300.00681
300.00831
300.00833
300.00956
300.01105
300.01267
300.01416
300.01494
300.01498
300.01424
300.01278
300.01114
300.00963
300.00835
300.00833
300.00954
300.01096
300.01418
300.01885
300.02341
300.02697
300.02794
300.02753
300.02757
300.02801
300.02699
300.02335
300.01878
300.01418
300.01101
300.0082
300.00613
300.00533
300.00548
300.00654
300.00931
300.01405
300.0126
300.01672
300.02225
300.02709
300.02835
300.02823
300.02723
300.02537
300.02385
300.02268
300.02264
300.02374
300.02522
300.02706
300.02807
300.02826
300.02706
300.02815
300.02672
300.02372
300.02022
300.01692
300.01504
300.0151
300.01708
300.02046
300.02399
300.02698
300.02834
300.02751
300.02836
300.02451
300.01873
300.01983
300.01481
300.01483
300.00935
300.00655
300.00548
300.00533
300.00616
300.00827
300.01272
300.01413
300.01885
300.01987
300.02587
300.0258
300.02821
300.02454
300.02587
300.02091
300.0242
300.01907
300.01311
300.00772
300.00449
300.00441
300.0075
300.01278
300.01867
300.02381
300.02722
300.02819
300.02546
300.02038
300.01283
300.00425
299.99664
299.99213
299.99223
299.99693
300.00469
300.01336
300.00819
300.01773
300.01592
300.02354
300.02358
300.02832
300.02469
300.01786
300.01595
300.00514
300.00512
299.99262
299.99716
299.98714
299.981
299.98087
299.98678
299.99662
300.00753
300.01707
300.02402
300.02792
300.02294
300.01518
300.00439
299.99202
299.98076
299.97387
299.97401
299.98117
299.98115
299.99262
299.99719
300.00827
300.01355
300.02113
300.02613
300.02866
300.02471
300.02253
300.01689
300.01438
300.01116
300.00968
300.01206
300.01534
300.01907
300.02375
300.0275
300.02882
300.02789
300.02457
300.01943
300.01345
300.00483
299.99703
299.98713
299.98095
299.97398
299.97383
299.98074
299.992
300.0044
300.0152
300.02298
300.028
300.02415
300.01717
300.00759
299.99662
299.98675
299.98082
299.99218
299.99229
300.00478
300.00803
300.01762
300.021
300.02452
300.02748
300.02881
300.02887
300.02753
300.02867
300.02786
300.02605
300.02455
300.0234
300.01563
300.01557
300.00469
300.00778
299.99671
300.00435
300.01297
300.02055
300.02567
300.02844
300.02755
300.02412
300.01898
300.01307
300.02073
300.01743
300.02442
300.02336
300.02827
300.02832
300.02602
300.02482
300.02261
300.0191
300.01444
300.01208
300.00997
300.00946
300.01175
300.01419
300.01688
300.01896
300.02004
300.01998
300.01883
300.01669
300.01395
300.01154
300.00956
300.01189
300.00984
300.01188
300.01421
300.01677
300.0188
300.0199
300.01992
300.01887
300.01688
300.01432
300.01196
300.00987
300.01191
300.01517
300.01889
300.02235
300.02447
300.02563
300.02563
300.02444
300.02227
300.01881
300.0151
300.01438
300.01151
300.01393
300.01664
300.01875
300.01989
300.01992
300.01882
300.01674
300.01402
300.01156
300.00928
300.01002
300.01152
300.0144
300.01846
300.01627
300.02184
300.02424
300.0207
300.02543
300.02852
300.02865
300.02743
300.02327
300.0184
300.01388
300.01616
300.01659
300.01671
300.02232
300.02454
300.01872
300.01981
300.0258
300.02586
300.01985
300.01882
300.02471
300.02254
300.02741
300.02872
300.0286
300.02764
300.02586
300.02856
300.02745
300.02372
300.01906
300.01432
300.01684
300.01674
300.0188
300.01987
300.01982
300.01868
300.02069
300.0243
300.02181
300.02751
300.02919
300.02991
300.02988
300.02951
300.02884
300.02734
300.02891
300.02958
300.02813
300.025
300.0287
300.02792
300.02615
300.02684
300.02693
300.02208
300.02094
300.02431
300.01943
300.02441
300.02806
300.02889
300.02884
300.02709
300.02511
300.02227
300.02708
300.0264
300.02112
300.0176
300.02502
300.02894
300.02559
300.02566
300.02082
300.02449
300.02208
300.01643
300.01407
300.01868
300.02366
300.02791
300.02918
300.02903
300.02403
300.02399
300.02465
300.02573
300.02293
300.01837
300.01674
300.01574
300.00482
300.00807
300.01343
300.01418
300.02043
300.01412
300.01337
300.00457
300.00503
299.99693
300.00887
300.0182
300.02541
300.02471
300.02365
300.02431
300.02264
300.01658
300.01559
300.01744
300.00803
300.00483
300.00551
299.99203
299.99202
299.99673
299.98642
299.99671
299.9969
300.00891
300.0055
299.99191
299.99191
299.98008
299.97949
299.98614
299.97961
299.98019
299.97286
299.97189
299.97109
299.97927
299.99232
300.00605
300.00948
300.01484
300.02109
300.02234
300.01589
300.00668
300.01595
300.01491
300.00578
299.99741
299.99797
300.01067
300.00701
299.99265
299.99305
300.00847
300.02519
300.03103
300.03046
300.02864
300.02354
300.02332
300.02776
300.0294
300.02953
300.02957
300.02066
300.02543
300.0242
300.02177
300.01619
300.01839
300.02325
300.02746
300.02871
300.02855
300.02369
300.02435
300.02274
300.02553
300.02483
300.01761
300.01566
300.01665
300.01837
300.0223
300.027
300.02631
300.02808
300.02888
300.02715
300.02525
300.02458
300.02117
300.0137
300.00826
300.00492
300.0056
300.0091
299.99724
299.99215
299.99213
299.99703
300.00501
300.00547
300.01444
300.0208
300.01981
300.01394
300.01468
300.00953
299.99746
299.98653
299.97975
299.98033
299.98679
299.9805
299.97301
299.97205
299.97993
299.99253
299.99251
299.99725
300.0087
300.00552
300.0062
300.01742
300.01897
300.02275
300.02547
300.02837
300.02967
300.02899
300.02929
300.02758
300.03003
300.03004
300.02978
300.02909
300.02759
300.02478
300.02832
300.02905
300.0291
300.02743
300.02745
300.02678
300.02162
300.01822
300.0255
300.02921
300.02618
300.02347
300.02517
300.02453
300.01645
300.01648
300.00554
299.99251
299.98048
299.97298
299.97282
299.98005
299.99189
300.00483
300.01576
300.01676
300.02469
300.02301
300.02586
300.02515
300.0177
300.01846
300.02243
300.02732
300.02663
300.02128
300.02471
300.02841
300.02921
300.02741
300.0254
300.02071
300.01431
300.00896
300.00552
299.99191
299.99691
299.9967
300.00812
300.01356
300.00466
300.00512
300.01437
300.01363
300.01971
300.02477
300.02419
300.02717
300.02857
300.02935
300.03005
300.0304
300.02859
300.02779
300.02938
300.02797
300.02969
300.03045
300.03007
300.02927
300.02545
300.02748
300.02255
300.02142
300.02679
300.02931
300.02848
300.02744
300.02606
300.01864
300.00908
299.99697
299.9861
299.97946
299.97185
299.97954
299.98013
299.98638
299.99678
299.99205
299.99205
300.00572
300.00506
300.00827
300.0179
300.01607
300.01702
300.02323
300.02498
300.02928
300.02538
300.02435
300.02439
300.01614
300.00516
299.99217
299.98027
299.97969
299.97201
299.97991
299.98651
299.98677
299.99728
299.99749
299.99254
300.00622
300.00961
300.00878
300.01411
300.00513
299.99711
299.99731
299.99217
300.00582
300.00935
300.00853
300.014
300.01474
300.0056
300.01485
300.02113
300.02015
300.02514
300.02183
300.01835
300.0191
300.01745
300.02357
300.02522
300.02931
300.02458
300.02565
300.02634
300.02775
300.02295
300.02781
300.02582
300.02954
300.02938
300.02706
300.02873
300.0296
300.0281
300.02509
300.02169
300.0181
300.01883
300.0171
300.02335
300.02503
300.02933
300.02551
300.0262
300.02765
300.02281
300.02774
300.02576
300.0295
300.02941
300.02697
300.02871
300.0296
300.02807
300.03029
300.02889
300.03063
300.0303
300.02804
300.02985
300.03063
300.02372
300.02382
300.0284
300.03016
300.03033
300.03023
300.02982
300.02791
300.02331
300.02778
300.02946
300.0305
300.03106
300.0253
300.02953
300.03192
300.03107
300.0216
300.0102
300.00623
300.00505
300.00474
300.00492
300.00525
300.00513
300.00492
300.00472
300.00469
300.00479
300.00472
300.00487
300.00519
300.00572
300.00597
300.00647
300.0106
300.01065
300.01023
300.00845
300.00651
300.00532
300.00648
300.00689
300.00676
300.0056
300.00513
300.00494
300.00541
300.00591
300.00569
300.00619
300.00634
300.00625
300.00897
300.00899
300.00626
300.00528
300.00528
300.00516
300.00517
300.00502
300.00469
300.00467
300.00491
300.00508
300.00522
300.00598
300.00806
300.00681
300.00561
300.00513
300.00504
300.00528
300.00584
300.00688
300.00831
300.00944
300.00945
300.00831
300.00689
300.00585
300.00529
300.00503
300.00495
300.00496
300.00506
300.00529
300.00568
300.00618
300.00659
300.00659
300.00618
300.00569
300.0053
300.00507
300.00498
300.00497
300.00489
300.0049
300.00485
300.00487
300.00486
300.00481
300.00484
300.0047
300.00471
300.00477
300.00464
300.00443
300.00445
300.00447
300.00447
300.00444
300.00441
300.00415
300.00385
300.00352
300.00352
300.00351
300.00351
300.00384
300.00384
300.00384
300.00351
300.0035
300.00351
300.0035
300.00384
300.00386
300.00384
300.00351
300.00352
300.00386
300.00387
300.00353
300.0036
300.00355
300.00351
300.00361
300.00403
300.00388
300.00424
300.00445
300.00484
300.0045
300.00462
300.00429
300.00438
300.00473
300.00583
300.00534
300.00488
300.00531
300.00474
300.004
300.00393
300.00437
300.00386
300.00417
300.00654
300.00531
300.00419
300.00365
300.00351
300.00388
300.00385
300.00416
300.00443
300.00456
300.00424
300.00445
300.00419
300.00449
300.00483
300.00534
300.00462
300.0043
300.00417
300.00419
300.00389
300.00387
300.00354
300.00355
300.00362
300.00356
300.00394
300.00387
300.00404
300.00361
300.00386
300.00438
300.00489
300.00534
300.00439
300.00474
300.00585
300.00972
300.00787
300.006
300.00495
300.00454
300.00542
300.006
300.00912
300.00995
300.01629
300.02163
300.03102
300.0285
300.02309
300.01628
300.00839
300.00879
300.01041
300.01016
300.02179
300.03133
300.0286
300.02874
300.02784
300.02967
300.03079
300.0295
300.03158
300.03287
300.03437
300.0296
300.02354
300.02974
300.03289
300.03448
300.03192
300.028
300.03225
300.03152
300.02999
300.03007
300.03162
300.02564
300.02554
300.01211
300.01751
300.02379
300.0293
300.0317
300.03422
300.03255
300.03357
300.03175
300.02761
300.03049
300.01743
300.02314
300.02945
300.02793
300.02641
300.02502
300.01849
300.01743
300.00763
300.00887
300.01857
300.01323
299.99947
299.99858
299.99795
300.01074
300.00954
299.99738
299.9922
300.00605
300.00703
299.99253
299.99294
300.00852
300.00934
299.99353
299.97794
299.98631
299.99947
300.01313
300.01202
299.9986
299.98613
299.98612
299.98614
299.97915
299.97872
299.97012