/*--------------------------------*- C++ -*----------------------------------*\
  =========                 |
  \\      /  F ield         | OpenFOAM: The Open Source CFD Toolbox
   \\    /   O peration     | Website:  https://openfoam.org
    \\  /    A nd           | Version:  7
     \\/     M anipulation  |
\*---------------------------------------------------------------------------*/
FoamFile
{
    version     2.0;
    format      ascii;
    class       volScalarField;
    location    "370";
    object      k;
}
// * * * * * * * * * * * * * * * * * * * * * * * * * * * * * * * * * * * * * //

dimensions      [0 2 -2 0 0 0 0];

internalField   nonuniform List<scalar> 
24789
(
116.1923
185.40288
253.32106
318.62988
687.48423
694.16174
321.72545
255.72967
186.98432
116.71453
117.25277
188.61398
258.20979
324.91216
701.03111
708.10053
328.19406
260.76495
190.29452
117.80849
118.38314
192.02904
263.39978
331.57727
715.38052
722.8826
335.06725
266.11885
193.82072
118.97793
119.59451
195.673
268.92722
338.67067
730.61938
738.60452
342.39422
271.83022
197.58952
120.23444
120.89965
199.5744
274.83374
346.24552
746.85317
755.38157
350.23215
277.94394
201.63195
121.59194
122.3135
203.76714
281.16817
354.36365
764.20772
773.35129
358.64956
284.514
205.98515
123.06659
123.85388
208.29176
287.98995
363.10101
782.83391
792.67944
367.72904
291.60469
210.69285
124.67807
125.54248
213.19517
295.36827
372.54661
802.91439
813.56837
377.568
299.2916
215.80591
126.45065
127.40682
218.53291
303.38681
382.80933
824.67453
836.27018
388.28726
307.66637
221.38417
128.41576
129.48332
224.36904
312.14493
394.02146
848.39766
861.10538
400.03407
316.83854
227.49733
130.61638
131.8234
230.78012
321.76549
406.35056
874.44903
888.493
412.99879
326.94524
234.22872
133.11446
134.50208
237.8556
332.40013
420.01137
903.31231
918.99512
427.42532
338.15459
241.6737
136.00182
137.63348
245.69674
344.23692
435.28477
935.64557
953.38777
443.64097
350.67832
249.9381
139.42185
141.39863
254.41488
357.51763
452.5576
972.37154
992.77416
462.12201
364.8094
259.1519
143.61238
146.13909
264.17571
372.6497
472.47655
1014.7921
1038.6721
483.91681
381.27544
269.52591
149.07089
152.71853
276.09866
391.43542
497.14076
1064.7174
1092.3345
513.31859
404.4231
285.61672
158.07709
165.98758
295.37838
420.73035
533.52574
1119.4798
1150.6229
561.78585
445.65659
314.33686
174.49744
180.51776
331.87686
467.23881
583.98105
1181.7303
1212.9195
628.23042
508.17939
363.67891
192.55766
200.02124
394.89572
552.95198
680.93229
1238.947
1222.9483
593.73262
482.37877
346.75558
186.49412
177.74081
321.04031
449.84788
561.7263
1193.9646
1162.6272
517.05901
409.64396
289.55969
166.67715
157.06286
271.34521
384.50989
488.96508
1133.0993
1106.6694
469.69129
368.53864
260.92944
149.48366
144.52557
252.45248
356.75571
454.98666
1079.5346
1053.8124
443.12535
347.68819
246.48868
141.12179
138.36859
241.59208
340.00447
432.87131
1030.0739
1008.0445
423.5618
333.02667
237.12825
136.02113
133.96957
232.91165
326.49845
414.91218
987.53434
968.39057
406.79504
320.32546
228.89237
132.13072
130.45879
225.05607
314.47271
399.14792
950.46139
933.61268
391.93081
308.92242
221.4001
128.92816
127.51958
217.92314
303.66016
385.11109
917.7295
902.71279
378.65706
298.66869
214.61932
126.2171
125.00729
211.4798
293.92974
372.53895
888.47713
874.9488
366.72877
289.42464
208.49426
123.87871
122.82175
205.65242
285.13603
361.20143
862.06401
849.76711
355.93399
281.04753
202.94434
121.8284
120.89182
200.36042
277.14393
350.90547
838.00937
826.7481
346.09762
273.41159
197.89186
120.00622
119.16681
195.53085
269.83835
341.49422
815.94545
805.56783
337.08031
266.41291
193.2698
118.3693
117.61017
191.10194
263.12464
332.8419
795.58496
785.97006
328.76729
259.96444
189.02092
116.88616
116.19455
187.02104
256.92375
324.84549
776.69887
767.74951
321.06672
253.99508
185.09719
115.53281
114.8986
183.2441
251.17074
317.42128
759.10183
750.73764
313.90117
248.4447
181.45773
114.28996
113.70502
179.73349
245.81044
310.49838
742.64062
734.79503
307.20625
243.26281
178.06768
113.14187
112.59878
176.45647
240.79623
304.01786
727.18691
719.80344
300.92805
238.40697
174.89735
112.07433
111.56731
173.38719
236.09024
297.93095
712.63292
705.66504
295.0218
233.84249
171.92353
111.07633
110.59964
170.50471
231.66109
292.19711
698.8913
705.84434
295.10444
233.90744
171.96602
111.08904
111.58078
173.43222
236.15901
298.01837
712.81829
719.99781
301.0209
238.48006
174.94527
112.08859
112.61401
176.50769
240.87431
304.11703
727.39187
735.01172
307.31211
243.34632
178.12262
113.15824
113.72266
179.79281
245.90035
310.61209
742.87024
750.98169
314.0233
248.54148
181.52177
114.30892
114.91903
183.31356
251.27541
317.55309
759.3615
768.02645
321.2091
254.10837
185.17255
115.55478
116.21824
187.10327
257.04707
325.00018
776.99483
786.28668
328.93528
260.09864
189.1106
116.91167
117.63768
191.19996
263.27097
333.0246
795.92398
805.93122
337.27955
266.57302
193.37743
118.39909
119.19917
195.64947
270.01451
341.71285
816.33543
827.16654
346.33762
273.60553
198.02284
120.04152
120.93043
200.50518
277.35759
351.16896
838.45805
850.24765
356.22365
281.28339
203.10478
121.87087
122.86869
205.83083
285.39711
361.52074
862.57781
875.49655
367.08035
289.71349
208.6927
123.93063
125.06471
211.70064
294.24901
372.92524
889.05851
903.32634
379.08019
299.02063
214.86449
126.28021
127.58823
218.19421
304.0463
385.5722
918.37203
934.2788
392.42933
309.34279
221.69745
129.00164
130.53568
225.37868
314.92517
399.68069
951.14295
969.07621
407.35501
320.80418
229.2363
132.20821
134.04282
233.26802
326.99159
415.48624
988.20852
1008.6876
424.13118
333.51668
237.48447
136.08224
138.40924
241.93794
340.47283
433.41626
1030.6623
1054.3045
443.63975
348.1314
246.82864
141.14769
144.54585
252.85467
357.2148
455.49865
1079.8794
1106.989
470.33687
369.19501
261.60918
149.46801
157.38828
274.1994
386.09935
490.26347
1133.2341
1161.6513
518.54924
410.70736
289.97165
167.5416
176.20772
321.79832
450.94709
565.08245
1192.8715
1219.4328
570.83733
463.66695
333.44617
179.52904
198.61066
392.53744
549.47506
675.87345
1235.1497
1208.4895
610.86682
487.15868
344.97287
181.75578
186.15004
350.38585
491.23083
612.55358
1178.567
1146.0435
564.95511
451.35687
319.87085
177.8482
167.04415
301.19235
423.32543
533.33342
1116.0735
1088.7168
509.92878
403.0309
285.89266
158.02533
152.15455
274.62138
388.15798
492.10959
1060.7599
1034.5555
478.00776
377.01984
267.15367
148.17904
145.05882
261.19539
367.85559
466.09665
1010.5285
988.34409
455.49502
359.744
255.91304
142.46449
140.23085
251.04228
352.30068
445.78995
967.78181
948.65359
436.78215
345.36174
246.47788
138.24933
136.4608
242.17151
338.84821
428.36239
930.78512
914.02776
420.45989
332.71392
238.09972
134.82986
133.33104
234.24713
326.92495
413.02068
898.25638
883.36521
405.99948
321.45196
230.59919
131.94507
130.65685
227.14152
316.26842
399.35702
869.2643
855.87698
393.05881
311.34989
223.85976
129.4539
128.32612
220.74084
306.67458
387.0744
843.13723
830.98807
381.37691
302.2225
217.77206
127.26495
126.26336
214.94222
297.97603
375.94261
819.37975
808.2686
370.75026
293.91896
212.24068
125.31537
124.41582
209.65806
290.03697
365.78109
797.61619
787.38838
361.01854
286.31729
207.1858
123.56033
122.74519
204.8162
282.74834
356.44764
777.55487
768.08833
352.0549
279.31965
202.54219
121.96711
121.22319
200.35719
276.02146
347.82788
758.96415
750.1603
343.75603
272.84552
198.25549
120.51079
119.82767
196.2316
269.78371
339.829
741.65667
733.43516
336.03793
266.82906
194.28069
119.17169
118.54081
192.39757
263.97405
332.37345
725.47833
717.77113
328.82859
261.21318
190.57821
117.93307
117.34683
188.81877
258.54058
325.39593
710.2995
703.05081
322.06972
255.95191
187.11622
116.78061
116.23311
185.46713
253.44201
318.84364
696.01387
689.18
315.71374
251.0079
183.86935
115.70297
116.7324
187.04387
255.81927
321.83827
694.36398
701.24268
325.02642
258.30055
188.6743
117.27073
117.82709
190.35708
260.85928
328.31303
708.32377
715.61651
331.70225
263.49902
192.09487
118.40259
118.99866
193.89076
266.2244
335.20022
723.13254
730.88459
338.81267
269.04014
195.74804
119.61666
120.25838
197.67038
271.95168
342.54682
738.88661
747.15375
346.40979
274.96483
199.66189
120.92561
121.62032
201.72716
278.08626
350.41018
755.70271
764.55152
354.55701
281.3231
203.87108
122.34451
123.10068
206.09888
284.68313
358.86031
773.72015
783.23046
363.33066
288.17478
208.41645
123.89137
124.71961
210.83039
291.80787
367.98072
793.10656
803.3753
372.8237
295.5926
213.34752
125.58864
126.50221
215.97546
299.54029
377.87424
814.06646
825.21352
383.14806
303.66295
218.72198
127.46455
128.48085
221.5966
307.97491
388.66401
836.8541
849.03078
394.44213
312.49095
224.60844
129.55676
130.69961
227.76847
317.22811
400.50531
861.79217
875.19412
406.87949
322.20524
231.08818
131.91794
133.22251
234.5811
327.44457
413.59542
889.30125
904.18873
420.68757
332.97025
238.26128
134.6263
136.14585
242.14484
338.81051
428.19659
919.94477
936.67353
436.1706
344.99773
246.2492
137.80212
139.62201
250.59444
351.5708
444.66798
954.49894
973.57038
453.76292
358.57939
255.20714
141.6404
143.91173
260.13028
366.09813
463.56108
994.06506
1016.1811
474.23894
374.26125
265.42832
146.5257
149.60218
271.21163
383.37487
486.15205
1040.1637
1066.2992
500.08404
394.28808
278.45642
153.47351
159.10947
289.0327
408.46388
517.33625
1093.9987
1120.9189
539.19102
426.65549
300.6394
167.50806
177.31684
321.09492
454.06786
570.22499
1151.2391
1182.3872
599.31073
480.76045
342.29531
183.61415
192.67126
366.40657
510.99786
630.7116
1212.2478
1238.5995
684.1566
556.28288
397.63745
200.99013
1232.5977
781.78764
640.80812
461.83739
228.1098
206.28937
412.70949
576.19453
711.63831
1268.0959
1279.2976
631.523
514.7814
371.21814
195.51529
185.34631
352.59044
496.3241
620.59556
1240.5895
1212.3431
622.95654
496.93825
351.81869
184.37242
182.78856
341.35924
481.38113
601.55114
1180.5789
1146.7315
559.16643
445.13362
314.65293
174.71595
165.06155
297.11667
418.84504
529.24543
1115.9652
1088.3692
507.23895
400.18912
283.40763
156.77307
151.34813
273.13148
386.31445
490.2761
1060.2873
1034.0449
476.70393
375.75635
266.16637
147.6419
144.68203
260.47777
366.93908
465.1276
1010.0282
987.87503
454.75065
359.05512
255.38215
142.19221
140.02951
250.63937
351.76922
445.20464
967.35067
948.26173
436.31435
344.94411
246.16611
138.09796
136.34485
241.92558
338.51434
427.98288
930.43106
913.70849
420.14736
332.44233
237.90193
134.73931
133.25943
234.08586
326.70117
412.76031
897.96873
883.10595
405.77992
321.26506
230.46579
131.88781
130.61048
227.02992
316.11072
399.17024
869.03052
855.66604
392.89872
311.21575
223.7656
129.41603
128.2949
220.6607
306.55965
386.93637
842.94679
830.81591
381.25714
302.12337
217.70335
127.23905
126.24166
214.88266
297.88962
375.83765
819.22371
808.12692
370.65771
293.84308
212.1886
125.29688
124.39996
209.61243
289.97027
365.69948
797.48744
787.27112
360.94617
286.25834
207.1456
123.54666
122.73334
204.78063
282.69596
356.38309
777.44781
767.99046
351.99703
279.27288
202.51057
121.95675
121.21415
200.32906
275.97967
347.77599
758.87459
750.07814
343.70925
272.80797
198.2303
120.50289
119.82068
196.20898
269.74987
339.78674
741.58103
733.36509
335.99935
266.79828
194.2602
119.16546
118.5352
192.37892
263.946
332.33827
725.41352
717.71111
328.79621
261.1874
190.56112
117.92794
117.34205
188.80299
258.51678
325.36603
710.24388
702.9994
322.04192
255.92978
187.10154
116.77607
116.22874
185.45338
253.42134
318.81771
695.96634
689.13654
315.68934
250.98838
183.85627
115.69869
111.08023
171.93694
233.86238
295.04647
705.71349
712.68055
297.95538
236.11001
173.40054
111.5712
112.07816
174.91044
238.4265
300.95251
719.85132
727.23547
304.04254
240.81595
176.46959
112.60252
113.14561
178.08078
243.28255
307.23121
734.84449
742.69103
310.52371
245.83056
179.74684
113.70866
114.29352
181.47112
248.46488
313.92669
750.7891
759.15397
317.44702
251.19114
183.25764
114.90196
115.53589
185.11055
254.0153
321.09242
767.80226
776.75207
324.87112
256.94387
187.03424
116.19723
116.88835
189.03359
259.98394
328.79233
786.02328
795.63799
332.86614
263.14337
191.11389
117.61172
118.37017
193.28082
266.43045
337.10327
805.62028
815.99692
341.51555
269.85434
195.54051
119.16681
120.00529
197.89969
273.42531
346.11651
826.79781
838.05644
350.92089
277.15441
200.36561
120.88972
121.82497
202.94606
281.05365
355.94466
849.81029
862.10181
361.20532
285.13593
205.6493
122.81665
123.87148
208.48449
289.416
366.72325
874.97942
888.49848
372.52052
293.90925
211.46081
124.99731
126.20349
214.5878
298.63211
378.62114
902.7225
917.72496
385.05097
303.60094
217.87378
127.50084
128.90226
221.32575
308.83184
391.83759
933.5913
950.42126
399.0093
314.33817
224.94615
130.42261
132.0797
228.7322
320.1302
406.59517
968.33113
987.45792
414.63057
326.2197
232.68076
133.89735
135.9195
236.80257
332.63787
423.1758
1007.959
1029.9956
432.35751
339.47581
241.14514
138.22728
140.93355
245.89036
346.98764
442.46123
1053.7643
1079.5413
454.13523
355.83384
251.65354
144.27269
149.11174
259.95534
367.33757
468.59201
1106.8617
1133.5757
487.39811
382.8557
270.71108
156.62146
165.77666
286.508
405.83989
513.46745
1163.0399
1194.2919
553.49671
443.36554
316.4515
175.91428
187.42392
350.40908
486.5625
597.28218
1223.5675
1239.9722
699.70959
570.05045
409.93449
204.9871
196.74403
373.04964
519.90008
640.37554
1213.9133
1181.8658
580.57917
465.3083
330.88791
180.57479
176.19396
318.87276
451.68846
569.08933
1150.8747
1119.6691
536.51797
423.59837
297.67547
167.10941
158.71821
287.05318
406.04975
514.85486
1092.532
1064.8436
497.82791
392.15387
276.72069
153.06352
149.23397
269.71876
381.52522
484.16913
1038.7298
1014.8005
472.53076
372.6984
264.21094
146.21348
143.64498
259.12224
364.77896
462.09483
992.75511
972.34175
452.50361
357.46288
254.36689
141.41164
139.42564
249.89064
350.62254
443.5843
953.35664
935.618
435.23484
344.18836
245.65601
137.63309
135.99977
241.64129
338.11577
427.38517
918.97338
903.29706
419.98064
332.37034
237.8307
134.49946
133.11183
234.21031
326.92342
412.97646
888.48398
874.44555
406.33501
321.74996
230.76672
131.82094
130.61423
227.48807
316.82816
400.02404
861.10661
848.40273
394.01572
312.13848
224.36289
129.48145
128.41425
221.38058
307.66311
388.28491
836.27837
824.68511
382.80937
303.38574
218.53103
127.40559
126.44975
215.80562
299.29246
377.57014
813.58077
802.92813
372.55034
295.37061
213.19606
125.54185
124.67779
210.69474
291.60824
367.73408
792.69414
782.84932
363.10713
287.99451
208.29444
123.85387
123.06691
205.98849
284.51933
358.65651
773.36719
764.22391
354.37123
281.17413
203.77099
122.31405
121.59274
201.63609
277.95022
350.2401
755.39787
746.86941
346.25389
274.84044
199.57884
120.90058
120.23551
197.5941
271.83707
342.4028
738.6207
730.63526
338.67956
268.93439
195.67779
119.59566
118.97922
193.8255
266.12593
335.076
722.89812
715.39539
331.5863
263.40719
192.03405
118.38451
117.81007
190.29977
260.77257
328.20332
708.11453
701.04365
324.92202
258.21812
188.6198
117.25453
116.71658
186.9906
255.73863
321.73609
694.17306
694.36244
321.82591
255.80844
187.03586
116.72931
117.26876
188.66904
258.29336
325.01817
701.23839
708.31772
328.30742
260.8546
190.35374
117.82572
118.40162
192.09258
263.49566
331.69817
715.60961
723.1254
335.19693
266.22187
193.88912
118.99777
119.6158
195.74669
269.03795
338.80983
730.87753
738.87982
342.54433
271.94989
197.66936
120.25737
120.92435
199.66112
274.9633
346.40764
747.14727
755.69643
350.40816
278.08491
201.72654
121.61861
122.34233
203.87061
281.32189
354.5551
764.54538
773.71406
358.85867
284.68228
206.09876
123.09771
123.88746
208.41659
288.17415
363.32918
783.2242
793.09995
367.97926
291.80743
210.83078
124.71447
125.58199
213.3483
295.59244
372.82228
803.36807
814.05812
377.8725
299.54021
215.97651
126.49362
127.45351
218.72352
303.66303
383.14595
825.20335
836.84103
388.66058
307.97436
221.59802
128.46646
129.53818
224.60965
312.48927
394.43649
849.01335
861.76831
400.49579
317.22394
227.76857
130.6753
131.88607
231.08617
322.19688
406.86383
875.16106
889.2552
413.56957
327.42856
234.57457
133.18026
134.56988
238.24691
332.94182
420.64587
904.12463
919.85607
428.13026
338.76177
242.1167
136.06981
137.6993
246.19906
344.91791
436.06776
936.55211
954.33523
444.51268
351.44488
250.51064
139.48305
141.45437
255.07603
358.38992
453.53664
973.35383
993.78533
463.24738
365.82983
259.94104
143.66783
146.21881
265.19281
373.91457
473.83402
1015.8295
1039.739
485.67746
382.98522
271.03052
149.24614
153.06046
278.30636
393.88814
499.57851
1065.8283
1093.6683
516.89957
408.18694
289.06059
158.64707
167.27447
302.85294
426.95926
538.9894
1120.5512
1150.4386
569.04943
453.15908
320.41506
176.92896
183.01947
344.06419
482.33319
602.15862
1181.7091
1210.2455
618.24223
499.78381
357.88506
187.85117
1329.2545
1381.7234
1355.8979
1223.4393
595.21762
483.89097
347.86707
187.32638
187.80359
358.28469
505.63407
632.66315
1214.1982
220.97027
447.55938
623.93649
764.58499
1229.7016
1185.6368
737.70143
597.78031
425.52207
210.64647
213.36454
431.24715
604.66052
744.20385
1185.9297
1232.1995
714.37738
576.53993
411.19048
203.17734
1313.6426
1354.2298
1412.7254
1395.6181
1257.3476
1344.4736
1328.9075
1257.339
1242.463
1285.3447
1286.9499
1242.1041
115.70511
183.87643
251.01944
315.72944
689.20982
696.03962
318.85358
253.44914
185.47141
116.23394
116.78048
187.1178
255.95497
322.07466
703.07175
710.31489
325.39623
258.54009
188.81797
117.34577
117.93115
190.5749
261.20896
328.8244
717.78036
725.48087
332.36454
263.96611
192.39172
118.53793
119.16779
194.27188
266.81683
336.02383
733.43039
741.64434
339.80942
269.767
196.21968
119.82267
120.50469
198.24008
272.82383
343.73047
750.13967
758.93471
347.7958
275.99441
200.33806
121.21577
121.95832
202.51888
279.28659
352.01568
768.04944
777.50597
356.40028
282.70849
204.78816
122.73485
123.54827
207.15266
286.27007
360.96236
787.32883
797.54525
365.71495
289.98141
209.61914
124.40161
125.2986
212.19531
293.85403
370.67304
808.18556
819.28379
375.85247
297.90017
214.88923
126.24336
127.2408
217.71047
302.13432
381.27228
830.87851
843.01347
386.95299
306.57185
220.66888
128.29659
129.41757
223.77584
311.2305
392.91831
855.73856
869.1111
399.19436
316.12935
227.04319
130.61174
131.88884
230.4841
321.29025
405.81154
883.19753
898.07526
412.80379
326.7367
234.11203
133.2605
134.74106
237.94087
332.49465
420.2098
913.835
930.58392
428.07416
338.5925
241.98435
136.34864
138.10699
246.25786
345.06436
436.45135
948.44899
967.58241
445.41367
351.95742
250.78564
140.04953
142.23388
255.6186
359.3539
455.07333
988.1619
1010.379
465.62529
367.41323
260.85673
144.76159
147.77438
266.77688
376.50334
477.46289
1034.4763
1060.8282
491.4043
387.46302
274.12625
151.56744
157.1937
284.69153
401.80686
508.83945
1088.7957
1116.169
531.20218
420.38316
296.71933
165.48035
174.11157
317.84939
448.33651
563.05007
1148.0368
1180.4511
585.92804
468.87183
332.86203
179.11628
186.87569
355.7719
502.73894
629.66032
1213.6191
639.90225
523.16113
380.39274
198.49993
191.08208
363.40215
501.02311
614.72372
1278.1843
1261.5294
671.21864
538.77275
382.7655
195.93683
200.09144
402.10498
566.75516
706.80473
1232.1339
1243.4968
626.40558
500.28173
355.7072
184.28718
186.87597
355.74265
502.68053
629.57052
1213.2788
1180.1386
585.8531
468.82281
332.83851
179.11974
174.11286
317.81897
448.28013
562.96758
1147.7482
1115.9023
531.11186
420.31895
296.68281
165.47884
157.18885
284.64857
401.73694
508.74545
1088.5433
1060.5901
491.31071
387.39203
274.08157
151.5614
147.76769
266.73235
376.43322
477.37103
1034.248
1010.1587
465.53434
367.34337
260.81184
144.75417
142.22562
255.57343
359.28421
454.98316
987.94853
967.3752
445.32485
351.88864
250.7409
140.04077
138.09791
246.21374
344.99667
436.36409
948.24762
930.38799
427.98891
338.52643
241.94134
136.33945
134.73202
237.89928
332.43049
420.12685
913.64428
897.88953
412.72346
326.67469
234.07199
133.25176
131.88047
230.44559
321.23026
405.73362
883.01662
868.93473
399.11854
316.07109
227.00591
130.60375
129.40996
223.73964
311.17366
392.84424
855.56647
842.84547
386.88084
306.51645
220.63361
128.28931
127.23383
217.67597
302.08009
381.20171
830.71431
819.12283
375.78287
297.84662
214.8551
126.23653
125.29178
212.16132
293.80084
370.60405
808.02749
797.3898
365.64695
289.92878
209.58539
124.39476
123.54127
207.1189
286.2176
360.89469
787.17565
777.3545
356.33268
282.656
204.75429
122.7277
121.95092
202.48455
279.23356
351.94754
767.8993
758.78574
347.72781
275.94128
200.30347
121.20806
120.49664
198.20527
272.77045
343.66227
749.99168
741.49711
339.74133
269.71357
196.18466
119.8143
119.15907
194.23654
266.76289
335.9551
733.28353
725.33422
332.29557
263.91193
192.35609
118.52883
117.92174
190.53901
261.15429
328.75474
717.63392
710.16861
325.32623
258.4851
188.78184
117.33605
116.77038
187.08107
255.89903
322.00338
702.92551
695.89299
318.78107
253.39226
185.43403
116.22338
115.69375
183.83734
250.95954
315.65287
689.06025
682.41962
312.6171
248.60005
182.29025
115.18007
694.2998
321.79779
255.78724
187.02292
116.72587
117.26286
188.64986
258.26398
324.98079
701.16783
708.23667
328.2607
260.81753
190.32929
117.81784
118.39176
192.06274
263.45097
331.64227
715.51588
723.01695
335.13077
266.16881
193.85355
118.98587
119.60171
195.70489
268.97591
338.73271
730.7525
738.7363
342.45473
271.87765
197.62051
120.24088
120.90524
199.6043
274.8797
346.30433
746.98336
755.51008
350.28898
277.98821
201.66055
121.59659
122.31713
203.79417
281.21046
354.41824
764.33445
773.47613
358.70182
284.55415
206.01051
123.06918
123.85533
208.31507
288.0275
363.15035
782.95691
792.80074
367.77537
291.63957
210.71402
124.67847
125.54192
213.21437
295.40077
372.59044
803.03409
813.68642
377.60896
299.32131
215.82275
126.44918
127.40455
218.54712
303.41322
382.84668
824.79079
836.38453
388.32105
307.68955
221.39582
128.41287
129.47998
224.37791
312.16484
394.0519
848.50991
861.21529
400.06064
316.85469
227.50313
130.61278
131.81966
230.78214
321.77693
406.37214
874.55617
888.59695
413.01438
326.95114
234.22636
133.11085
134.49889
237.84819
332.39975
420.02036
903.41269
919.09199
427.4268
338.14696
241.66025
135.99957
137.63328
245.6771
344.22196
435.27886
935.73979
953.48179
443.63081
350.65868
249.91407
139.42608
141.41224
254.39344
357.50235
452.5531
972.47033
992.88714
462.14744
364.82198
259.15215
143.64548
146.21365
264.24548
372.74599
472.5871
1014.936
1038.871
484.22982
381.57827
269.76002
149.23349
153.06156
276.76835
392.21321
497.89388
1064.9931
1092.6945
514.92732
406.11628
287.10623
158.71349
167.10027
297.73729
423.67071
536.59756
1119.8402
1151.0639
569.19468
451.77656
318.93996
176.18038
180.54128
330.92728
465.36065
580.64371
1182.0911
1214.1781
640.45952
519.96943
373.08706
196.69868
204.97215
410.04648
570.28517
699.98197
1240.2941
1223.7961
597.51048
486.75991
350.55107
187.40357
184.34239
352.10417
497.25299
623.27116
1212.4598
1208.4816
610.69093
486.98999
344.84634
181.62328
179.47863
333.35628
463.55251
570.70512
1219.306
1210.0632
618.08782
499.66108
357.79444
187.81984
192.65866
366.14696
510.68907
630.36774
1211.9601
1223.1035
594.91708
483.62808
347.65667
187.34035
187.78315
358.0074
505.32763
632.33688
1213.8198
1180.407
580.72859
464.33306
329.25434
178.13651
173.28245
315.43096
445.80018
560.89494
1148.096
1116.3254
530.70427
419.6091
295.9276
165.21026
157.04719
284.37366
401.53439
508.6946
1088.9277
1060.9302
491.39279
387.37798
274.00141
151.49879
147.74603
266.74075
376.50472
477.51341
1034.5678
1010.4635
465.70205
367.45487
260.86648
144.75268
142.23673
255.65163
359.41522
455.16116
988.23836
967.64974
445.50495
352.02817
250.83109
140.06045
138.12269
246.30844
345.13726
436.54035
948.50602
930.62939
428.15681
338.66251
242.0349
136.3664
134.75906
237.98812
332.55859
420.28356
913.86829
898.09621
412.86763
326.79304
234.15436
133.27765
131.90454
230.52066
321.33814
405.86483
883.20641
869.10841
399.23708
316.16855
227.07367
130.62571
129.42974
223.80034
311.26122
392.95084
855.725
842.98992
386.97635
306.5948
220.68782
128.30703
127.24956
217.72426
302.15011
381.28723
830.8458
819.24255
375.85961
297.90939
214.89833
126.25057
125.30435
212.1999
293.85699
370.67281
808.13643
797.48897
365.70845
289.97891
209.61972
124.40591
123.55118
207.14948
286.26236
360.94971
787.26585
777.43675
356.38197
282.69597
204.78149
122.73649
121.95867
202.50877
279.26931
351.99182
767.97434
758.85431
347.76779
275.97348
200.32522
121.21493
120.50272
198.22474
272.79942
343.69832
750.05452
741.55457
339.77368
269.73957
196.20214
119.81974
119.1639
194.25214
266.78626
335.98431
733.33624
725.3828
332.3219
263.93295
192.37011
118.53311
117.92549
190.55154
261.17317
328.77852
717.67877
710.21049
325.34777
258.50213
188.79307
117.33933
116.77324
187.0912
255.91446
322.02294
702.9646
695.92973
318.79878
253.40623
185.44321
116.22593
115.69632
183.84579
250.97257
315.66941
689.09501
682.45163
312.63074
248.61038
182.29658
115.18307
689.23398
315.74056
251.02804
183.88192
115.70636
116.2359
185.47815
253.45947
318.86686
696.06558
703.10023
322.0901
255.96725
187.12593
116.78305
117.34907
188.82758
258.55447
325.41434
710.34662
717.81607
328.84515
261.22566
190.58614
117.93507
118.54258
192.40469
263.98536
332.38853
725.52118
733.47578
336.05116
266.83893
194.28689
119.17316
119.82882
196.23694
269.79238
339.84082
741.69548
750.1971
343.76589
272.85253
198.25964
120.51157
121.22368
200.3603
276.02698
347.83601
758.9991
768.12147
352.06099
279.32347
202.54416
121.96729
122.74497
204.81702
282.75044
356.45174
777.58634
787.41831
361.02023
286.31734
207.18528
123.55958
124.4144
209.65613
290.0348
365.78016
797.64473
808.29611
370.74635
293.91423
212.23711
125.31295
126.25939
214.93655
297.96809
375.93499
819.40639
831.01429
381.36483
302.21059
217.76372
127.2586
128.31632
220.72897
306.65772
387.05697
843.16357
855.9041
393.03451
311.32652
223.84315
129.43926
130.63547
227.11852
316.23662
399.32399
869.29323
883.39726
405.95517
321.40909
230.56765
131.91439
133.28748
234.20385
326.86734
412.9618
898.29336
914.072
420.38191
332.63646
238.04029
134.76864
136.37541
242.09002
338.74432
428.25962
930.83988
948.72353
436.64758
345.22289
246.36639
138.13069
140.06705
250.89227
352.11809
445.61699
967.87472
988.4714
455.27825
359.50946
255.71594
142.24133
144.75484
260.93469
367.55449
465.82529
1010.7057
1034.8211
477.64573
376.61257
266.81558
147.7462
151.49889
274.09394
387.50168
491.54093
1061.1976
1089.2171
508.86539
401.6794
284.47859
157.04685
165.21574
296.07426
419.79675
530.90918
1116.6222
1148.411
561.12641
446.00512
315.59579
173.28536
178.14078
329.46461
464.58635
581.01083
1180.7481
1194.4624
542.21372
433.90768
309.52582
173.52443
164.76439
285.18601
403.69396
511.07143
1164.03
1134.3085
487.21205
382.18464
268.99092
156.57259
149.43598
260.46795
368.26594
469.79343
1107.9538
1080.8148
455.77648
357.28122
252.6755
144.70068
141.39611
247.00363
348.47394
444.11478
1055.0448
1031.2455
433.85069
340.80972
242.14864
138.64891
136.27536
237.64757
333.77077
424.46073
1009.1454
988.56191
415.71553
327.16245
233.37466
134.19078
132.32057
229.29987
320.91174
407.50698
969.34565
951.34657
399.77788
314.98927
225.41359
130.62121
129.06735
221.71455
309.37875
392.48949
934.43162
918.48644
385.60798
304.06453
218.20066
127.63936
126.32055
214.86514
299.02837
379.10051
903.41215
889.1234
372.93581
294.25051
211.69809
125.09684
123.95647
208.6889
289.71187
367.08525
875.54636
862.61697
361.52238
285.39394
205.82654
122.88949
121.88765
203.1007
281.27987
356.22376
850.27938
838.48477
351.16836
277.35416
200.50134
120.94382
120.05213
198.01963
273.60274
346.33718
827.19006
816.35704
341.71294
270.01255
195.6469
119.20745
118.4055
193.3756
266.57203
337.28043
805.95184
795.94431
333.0264
263.271
191.19889
117.64257
116.91542
189.1103
260.09959
328.93796
786.30718
777.01588
325.00392
257.04907
187.10375
116.22111
115.55704
185.17369
254.11117
321.21374
768.04815
759.38407
317.55878
251.27924
183.31549
114.92088
114.31058
181.52434
248.54612
314.02996
751.00535
742.89478
310.61998
245.90616
179.79622
113.72424
113.1599
178.12674
243.35301
307.32105
735.03702
727.41793
304.12753
240.88251
176.51294
112.61589
112.09087
174.95172
238.48985
301.03339
720.0249
712.84649
298.03427
236.17185
173.4409
111.58371
111.09322
171.97757
233.92447
295.12539
705.87378
705.81953
295.09316
233.89812
171.95962
111.0867
111.57679
173.42163
236.14316
297.99885
712.78449
719.95401
300.99418
238.45852
174.93087
112.08323
112.60726
176.4894
240.84697
304.08294
727.33694
734.94466
307.27041
243.31285
178.10019
113.14997
113.7127
179.7657
245.86003
310.56194
742.78987
750.88658
313.96372
248.49349
181.48937
114.29711
114.90523
183.27524
251.21887
317.48305
759.25021
767.89762
321.12758
254.04238
185.12765
115.53889
116.20012
187.05097
256.97045
324.90573
776.84697
786.11829
328.82666
260.01029
189.05011
116.8912
117.61475
191.13044
263.16967
332.90039
795.7336
805.71722
337.13797
266.45721
193.29772
118.37352
119.17075
195.55837
269.88242
341.55184
816.09614
826.90031
346.15506
273.4553
197.91903
120.00997
120.89545
200.3872
277.18723
350.96254
838.1633
849.92308
355.99098
281.09069
202.97096
121.83205
122.82557
205.67928
285.17966
361.25921
862.2225
875.11009
366.78717
289.46863
208.5213
123.88274
125.01163
211.50719
293.97417
372.59794
888.6414
902.88029
378.71674
298.71365
214.64712
126.22177
127.52458
217.95152
303.70584
385.17166
917.90046
933.78724
391.99238
308.96888
221.42908
128.93347
130.46438
225.08572
314.51986
399.21025
950.63969
968.57269
406.85792
320.37314
228.92247
132.13641
133.97527
232.94211
326.54649
414.97546
987.72057
1008.2355
423.62516
333.0749
237.15897
136.0267
138.37387
241.6227
340.05249
432.93444
1030.2707
1054.0164
443.18753
347.73517
246.5184
141.12636
144.52858
252.47901
356.79974
455.04646
1079.7487
1106.8969
469.74908
368.57932
260.95211
149.4845
157.06107
271.36413
384.54815
489.02285
1133.347
1162.9023
517.11909
409.68197
289.57753
166.673
177.73197
321.04808
449.87793
561.78032
1194.2687
1223.285
593.79774
482.41739
346.75559
186.47924
200.01497
394.9022
553.07427