/*--------------------------------*- C++ -*----------------------------------*\
  =========                 |
  \\      /  F ield         | OpenFOAM: The Open Source CFD Toolbox
   \\    /   O peration     | Website:  https://openfoam.org
    \\  /    A nd           | Version:  7
     \\/     M anipulation  |
\*---------------------------------------------------------------------------*/
FoamFile
{
    version     2.0;
    format      ascii;
    class       volScalarField;
    location    "160";
    object      omega;
}
// * * * * * * * * * * * * * * * * * * * * * * * * * * * * * * * * * * * * * //

dimensions      [0 0 -1 0 0 0 0];

internalField   nonuniform List<scalar> 
25278
(
155.53435
150.8228
148.83094
148.83046
145.62447
150.82382
156.79793
155.53484
156.79578
159.8807
156.39736
154.59139
151.66223
148.23609
176.95284
148.78995
150.81122
177.2182
198.94445
178.71283
160.6841
155.64522
150.97295
153.94858
162.47406
153.94645
150.97171
161.09607
164.64682
165.42199
173.25134
172.03343
195.0982
179.75627
181.64904
184.96217
184.90597
191.44147
191.16141
208.79485
198.31192
198.6152
208.39109
208.1575
190.18384
172.36353
158.17148
162.98409
178.45975
179.77373
184.23026
183.06335
220.54741
209.86676
196.79496
196.97281
202.29323
202.00076
226.72903
218.00555
217.92375
226.15904
232.52472
205.84748
205.80649
208.09813
208.08509
236.08797
237.03301
233.1957
266.82578
255.52514
241.98117
228.06706
213.03952
202.50696
181.64966
165.42189
155.6365
154.22738
151.43421
176.83966
177.14946
198.50186
160.21912
157.1516
199.69411
241.65683
216.09667
191.21053
194.87166
222.34826
216.46366
268.54277
272.73986
221.96796
221.70829
194.73045
199.8566
229.36267
222.02482
276.0101
279.76434
229.05158
260.12014
249.60925
249.12048
339.59594
332.34081
395.70399
263.65608
274.62676
414.02038
432.27323
345.92774
352.55367
452.37561
289.94428
275.07874
275.29753
198.55766
160.21951
145.61503
216.82949
269.19038
333.10748
396.29655
263.82162
199.76399
157.15376
151.42881
154.21951
177.18452
176.89446
216.33675
241.93742
249.44142
274.83229
414.82322
340.47913
346.95062
433.35192
453.79157
290.23361
260.48663
249.93797
221.94859
222.23356
273.42855
222.76816
177.06981
191.36421
195.02343
194.86495
177.30936
199.98288
229.30611
280.53863
353.76055
521.00991
812.62583
809.40579
519.08494
355.75221
261.47052
250.85365
277.67519
292.96333
464.81952
442.33176
348.75936
501.61118
741.32031
832.91299
1280.2676
1105.8061
723.65363
725.78581
1093.0211
1262.6863
826.33854
737.3574
503.01596
350.58552
276.74584
222.41744
229.77574
262.47637
357.80597
470.03521
446.42762
279.54172
199.37271
251.76074
295.24307
295.06433
493.26407
935.56721
1482.0448
1507.1782
946.13801
486.59438
292.71358
261.95524
228.76531
199.7694
179.73635
164.63579
172.00702
173.24279
184.93631
194.99501
198.24998
198.57497
184.89371
191.40937
191.11446
208.64461
208.28494
208.09166
197.19543
180.26607
165.08328
158.16753
166.17526
181.04957
183.63499
173.31502
172.36283
183.88309
184.21155
197.29842
207.42924
190.6133
190.16894
195.56262
178.4635
162.99918
160.67493
178.63869
179.75612
196.68944
209.53164
217.71473
217.69807
196.90755
202.17835
201.8405
226.24318
225.77918
231.99502
205.69594
184.19429
182.95578
219.96165
205.5778
232.53124
236.34255
207.86074
207.92692
235.52845
234.84797
231.49313
225.52173
217.62365
216.66751
195.86879
200.81443
200.48575
203.84475
182.4208
183.03108
179.15083
194.62702
189.52329
189.79232
183.80023
196.17448
196.10853
206.48334
205.77998
214.45147
194.7464
199.33847
199.20812
222.7354
215.47845
229.64722
223.92833
217.2803
210.84511
200.55176
181.03373
166.16814
165.079
180.25628
183.88388
184.20109
190.6086
207.45543
197.29347
197.21294
212.5877
201.19775
212.22729
218.49659
219.34607
219.51538
228.48936
213.51808
233.92781
232.52995
253.27596
252.97268
281.61586
254.42811
233.82033
213.43813
212.93685
228.49626
232.40227
252.79645
227.77409
228.25263
252.56179
281.13773
281.07099
253.45551
281.28396
281.60529
318.18774
316.26193
296.78547
281.80574
266.81983
254.13548
241.38267
230.28027
230.2826
238.64843
226.46199
226.5051
239.2983
251.96986
251.64686
241.25046
232.43782
232.57611
240.38493
229.26614
229.01719
218.3037
225.16416
225.35543
237.82396
237.11435
249.81689
239.81824
252.28378
252.76652
254.04651
265.54762
266.54019
281.25642
280.53695
266.53753
253.88306
232.35805
212.5374
212.20767
232.52628
240.22253
229.15274
218.43291
219.25906
219.39943
230.10862
230.1388
238.40377
226.3032
226.304
239.00708
251.56198
241.15277
241.05241
253.79578
253.85706
266.00278
265.06899
251.2897
250.46049
237.62112
225.23084
225.0745
218.26462
228.93417
236.959
249.5665
239.68511
252.10625
252.54636
264.03188
262.96548
261.72556
250.47241
230.00295
229.86409
210.43351
216.29884
217.11826
227.56231
227.7377
236.04665
235.38105
223.7827
222.70012
222.54486
216.12238
226.31333
226.54049
234.51756
233.86393
245.83686
236.57464
237.11185
237.99781
238.4778
248.54193
247.65699
260.66563
250.10406
248.80537
248.37615
258.49417
259.50556
246.70448
255.23115
241.6289
228.21451
229.33931
242.58768
243.44308
244.43566
230.82567
231.13895
232.26163
232.3526
242.35126
241.34938
260.64001
272.8216
273.53428
294.49075
255.06509
254.42001
294.91555
346.61175
310.62617
356.66226
360.94611
359.73799
311.60397
347.0119
420.0901
423.62885
514.51457
388.49605
315.2343
265.21623
289.74557
271.95079
272.28918
265.73973
315.01188
329.99633
330.83309
426.88895
471.22119
643.58114
665.69391
520.07624
390.94731
432.99341
391.18067
375.13043
356.74328
339.44838
322.82521
308.19761
293.7898
280.62037
266.52812
266.27701
281.35694
281.58141
297.7219
296.19804
279.94851
278.66117
264.91888
252.90694
265.14798
264.37068
277.78595
263.32124
264.45674
250.76221
260.22194
245.61043
231.32354
216.74691
195.87189
195.59697
200.5484
200.84423
224.42985
225.79888
217.77916
232.64812
242.89685
256.04911
296.82924
274.64736
274.01637
297.41253
319.26265
318.92097
267.19313
273.89445
273.72101
335.66782
334.69058
446.83924
400.74989
351.81841
313.45608
312.50505
360.26579
351.32453
431.18203
362.91714
361.81292
427.92571
541.65438
533.36791
397.60777
439.38761
679.36311
708.30514
598.93949
481.02223
401.51275
351.18442
312.68665
284.92434
260.71257
235.26109
206.00145
182.41738
183.00061
179.13393
173.30694
183.61691
183.78007
189.76396
189.50452
206.47854
196.08865
196.14886
205.75091
214.42792
194.71116
194.60683
199.20401
199.30967
221.43232
222.80998
215.49302
229.7451
223.98768
217.3027
210.8431
210.41738
216.28776
217.12263
223.81243
235.45333
227.59574
227.79564
236.15383
248.73693
238.58251
230.0307
229.87054
237.15811
226.55821
226.30791
216.0966
222.52415
222.70288
234.55447
233.87094
245.88624
236.59718
248.4232
248.88677
250.21003
238.07109
247.79564
260.883
262.00513
250.61599
262.73086
250.4866
249.2283
260.58294
261.98167
274.86263
276.24669
291.60048
276.73698
278.90279
279.61152
281.56943
296.79876
298.37561
315.94331
314.51035
296.05462
314.05099
315.43405
336.76443
334.13559
331.73226
312.48816
295.1266
279.19227
292.7158
275.80305
277.07954
261.27006
246.53389
232.50388
238.79329
238.96914
255.00507
247.05287
261.42712
271.20329
270.59272
254.03763
252.92062
237.35606
236.98502
230.9685
244.69931
251.83432
258.53853
241.95192
242.49883
244.05043
244.3927
249.8088
249.40286
267.90871
261.17232
262.10171
269.29355
289.89139
280.41224
279.81821
288.86439
313.13285
300.67947
288.6906
290.30675
277.92215
294.95782
294.35269
308.8076
310.19559
333.99157
314.69677
313.22815
331.27978
328.76699
306.77649
287.0895
269.31497
267.87359
259.03593
274.33799
285.28138
296.45125
276.49196
278.23111
259.84728
266.34839
247.57693
246.9706
264.81936
284.89824
286.99255
310.73308
298.6891
322.02901
324.60979
325.97999
302.2778
315.60872
328.32898
298.6358
275.45756
254.20671
231.8836
203.93593
204.07406
206.10427
233.32276
230.16305
228.21086
202.32406
202.27654
204.1133
204.19367
231.15028
229.25961
226.50964
246.23826
242.74227
238.318
233.71536
228.23423
229.39711
235.12668
235.49398
250.57467
243.6391
242.72349
249.47852
248.27452
241.70719
240.83811
227.90091
233.37722
247.25066
253.11104
237.81759
242.18328
258.43037
259.87644
254.33833
255.75125
239.82308
240.36205
245.10508
244.50388
261.5471
263.09158
257.0694
274.67
266.36959
257.7912
256.59372
264.89791
281.53921
271.32917
272.81092
283.39507
294.11448
291.76969
272.87587
280.53352
282.70852
305.13192
308.01384
319.8343
292.92537
270.48603
250.87143
251.64669
253.6072
257.47874
258.13524
281.06479
279.26357
274.04071
272.2525
277.26247
255.29483
254.45299
275.29326
278.81524
256.70569
257.65383
259.93267
261.33944
262.13807
287.04574
285.06919
283.0883
280.94176
282.84183
258.98435
258.01164
280.63998
308.55648
305.63479
300.09831
302.84099
295.36133
297.56875
305.30543
306.67748
341.30316
338.05092
325.87834
323.06208
334.90391
331.25146
340.70894
344.66278
308.6144
311.29328
314.42268
315.91971
356.96318
353.49303
348.0264
399.86336
381.74867
361.55252
342.11578
344.24
381.31781
354.74123
352.16447
377.19698
373.44737
339.03336
335.53372
319.19131
304.50687
290.91739
309.04058
293.46656
310.42578
292.79933
278.74252
264.17365
277.33994
292.97875
294.57649
279.42301
294.1355
312.06601
310.0453
329.18004
326.58275
308.24607
290.78104
276.60046
262.57133
261.85445
275.93364
289.60384
274.56847
275.87711
291.18503
307.91419
305.91711
289.43838
276.03753
289.94725
288.20169
273.42486
259.66777
246.79712
255.40036
254.27667
262.08027
263.44839
279.72273
269.8811
268.49807
258.59802
272.12817
259.85301
273.46764
274.1072
287.57477
274.02067
260.48742
259.78815
273.41155
286.48751
271.97562
273.19627
287.93065
303.91388
302.09493
286.35997
302.26363
286.68355
300.34387
283.77786
285.45465
287.23816
289.0541
302.16393
299.82925
320.18872
304.56186
306.79011
323.09208
325.98909
345.50006
349.02244
380.24637
353.43799
331.60394
311.24056
334.10568
335.44162
359.06069
356.5251
384.80843
357.24463
359.74779
389.07097
424.07752
386.41089
384.10551
419.7531
423.15271
475.63647
469.77856
420.35235
415.86729
381.09707
354.24254
351.0373
328.95764
350.06662
377.07834
410.87834
375.99551
410.22991
369.11938
364.31129
331.78133
316.20696
313.1856
327.85689
302.20197
299.2838
278.38075
271.10121
269.43209
276.32904
296.46847
287.27038
277.99084
295.35752
297.55104
317.33299
302.40064
320.90684
304.1488
306.19239
324.03798
321.56634
319.23613
338.22191
318.40723
336.02869
314.59039
330.19746
307.28087
310.1815
289.4686
323.89115
319.99033
348.4211
353.79663
334.00523
337.89278
341.76622
371.42688
346.55679
326.23338
323.55219
343.00135
368.57354
344.49051
347.77117
372.8615
405.45159
399.67516
366.62999
397.88681
359.16524
385.82359
344.22066
312.76825
287.75351
266.70524
248.11988
248.89043
252.24298
251.39417
271.05335
273.08056
268.51504
290.3424
297.16502
294.17597
322.98795
327.24283
316.37155
349.17815
353.79092
357.93787
377.89517
373.25404
433.77266
398.39089
403.45989
407.59351
410.95316
363.49101
383.96588
447.51232
442.9263
439.01606
475.55113
395.94427
391.07981
401.62605
345.91926
350.03103
311.65471
311.29912
282.66697
258.90998
233.26151
206.09235
182.40699
162.97853
160.67856
177.192
198.83486
221.73161
194.72982
221.8528
250.34081
277.20973
292.34087
260.84081
353.82284
461.76561
440.06593
347.15767
275.657
279.36683
229.13852
199.81982
177.16208
229.04705
260.27636
352.41771
515.64824
825.64189
736.16471
498.80787
719.57585
1094.1525
1264.6643
803.97132
452.67532
432.36478
345.70008
249.76268
198.58018
275.31565
252.02809
351.56234
503.90763
722.63128
1090.072
1258.0801
808.45287
522.11022
834.28938
742.73571
448.6541
473.01033
358.96769
262.82194
199.43496
279.90235
295.70565
295.53859
497.26936
947.22797
1474.9595
1485.099
935.78429
482.46636
292.02993
220.43068
183.04498
184.21371
179.75612
178.67917
209.70774
201.91783
205.73082
208.06504
208.05616
205.78453
232.32831
236.002
236.95621
232.9682
226.49709
225.95351
202.21601
196.91682
196.72244
217.83467
217.77742
217.65916
195.55402
178.44836
179.12881
182.99715
204.18751
204.10725
202.26245
202.29783
204.03732
203.8858
205.97941
235.18406
231.7174
230.03178
228.11609
231.10423
229.22741
226.45453
221.37814
199.2922
199.171
200.80024
200.48752
225.62676
224.30013
216.66863
195.84331
194.5921
194.70079
214.39799
215.44357
222.72053
244.85279
248.62126
251.99219
254.22602
255.56828
255.63364
254.40983
253.44893
254.63412
275.86083
274.22089
276.43839
278.16806
305.21064
302.42984
299.13463
301.75138
336.27214
331.53469
336.29332
341.2957
395.60029
385.26509
367.89495
361.90852
419.15006
427.1566
392.49114
451.05191
404.39157
452.50014
459.22836
464.97315
415.39072
463.51212
467.8623
469.27685
531.14269
531.40117
656.60697
543.48465
545.15287
656.47631
798.90616
820.35683
606.58507
478.46129
501.58452
410.41643
411.89379
504.1934
650.66167
664.35256
983.51225
944.62959
1427.183
1079.8477
803.11366
629.37483
530.99442
464.76769
421.13156
386.1326
358.76318
334.05826
313.33346
311.9268
293.25258
276.24934
260.68223
246.1497
246.60024
254.33199
238.54414
238.43835
253.46191
252.42963
245.28234
259.71789
258.62024
273.71104
275.06471
285.89366
268.5265
269.68664
270.19585
260.76766
277.0098
288.83538
287.35266
298.62582
278.4951
260.3614
243.57549
243.83158
261.17139
268.06032
249.08062
248.77268
266.8164
265.38797
259.14406
242.11056
237.06792
236.75703
251.42917
267.20504
284.2398
294.78697
275.4704
257.94599
241.63233
224.2665
229.91047
204.03202
206.06004
205.9103
205.91949
182.42098
162.9947
150.81203
148.78946
155.48928
156.78434
148.18169
150.9394
155.62433
160.67141
182.96571
184.19858
207.88119
220.02368
236.38223
235.56436
207.9519
205.73059
205.62325
232.6377
232.08425
225.85364
202.20331
179.75924
178.64735
209.60335
201.86592
226.33591
217.79884
196.71598
196.9266
217.76365
217.66637
225.58331
231.56522
234.88479
233.08474
233.05912
231.00735
228.07338
202.31879
202.30416
226.47708
221.42624
238.20221
233.65321
235.01739
235.32558
250.25772
249.24647
248.1186
247.16062
240.80508
227.91358
233.35913
237.76025
252.93948
254.07289
255.37914
239.64212
240.11683
256.58585
262.41377
244.75673
246.52861
247.05186
251.00823
252.84943
253.32663
273.92248
272.66891
277.66385
256.6024
257.13544
279.2778
303.65417
296.08698
287.90892
278.97292
300.06902
312.41565
310.1589
287.02709
285.33485
277.0601
296.81297
307.96729
305.51154
283.44674
263.99642
269.43145
250.33586
253.82437
254.55842
275.84154
271.04042
293.1798
295.17627
321.82264
324.074
335.98513
332.98088
302.43935
300.21017
297.71946
290.98146
316.33413
319.23627
330.07076
326.75678
335.60449
303.03952
277.50199
274.05964
272.03883
267.63128
248.45418
247.78135
244.24057
261.00627
259.47711
242.55468
242.07312
258.15592
275.75019
269.06705
261.88047
254.17413
268.29583
269.58006
270.93135
256.35052
257.45899
272.30281
282.52479
265.82029
264.47578
280.83203
279.17944
263.14335
270.58659
272.19352
273.81541
292.68446
290.59006
300.34845
279.5131
281.47461
302.93483
328.05565
313.93528
300.8438
288.33211
290.05974
291.73123
310.0311
307.97358
323.91459
302.97529
305.05737
306.93909
328.84554
331.40864
356.10444
353.69008
332.76264
356.25442
381.97629
386.16245
418.03232
380.99108
350.42207
347.95053
321.57354
337.45959
370.24582
374.19091
413.55714
410.09293
378.68678
414.21262
457.74021
463.76535
524.10138
453.63885
400.29764
396.80409
354.84115
372.83538
427.39005
432.23232
506.66691
505.06141
451.37622
520.90336
615.55703
618.94521
739.43111
565.16293
462.02136
458.69707
389.35211
342.33369
308.17865
281.40209
259.02655
259.67116
283.03887
285.24306
261.14833
260.48909
283.46642
281.42142
279.43782
256.89008
256.06301
257.41813
258.27733
258.30859
260.53206
261.18385
272.3983
272.05473
290.04895
331.1442
330.3406
315.69818
265.98134
265.46298
315.90693
390.11956
427.80847
473.05786
646.68374
669.76195
434.13285
392.82055
524.64229
518.31558
426.23936
347.93813
295.5381
254.6684
261.00519
241.55762
242.53244
255.29964
295.10658
273.97488
273.28767
311.54345
358.05702
362.625
361.45026
422.91642
348.43473
312.52611
309.02489
323.87127
340.75544
358.26117
376.68651
392.44185
402.10073
401.61997
351.19513
345.26282
309.40883
312.76021
311.44836
347.98284
344.78767
339.2114
305.73707
308.93309
306.11535
279.41887
277.14484
275.33635
253.89001
251.73408
250.99777
270.20436
265.99898
264.24769
246.00089
245.37202
262.70871
266.48582
248.31851
249.01295
268.22916
289.76873
284.06711
277.58815
297.79734
288.54629
286.5821
277.60444
294.7038
283.44929
285.00319
286.64995
303.7875
305.84756
321.25952
318.61546
298.72222
296.67152
316.04323
301.77487
299.88532
313.5938
334.689
317.84798
320.18501
322.66241
325.20863
327.80635
330.35186
353.29717
350.15721
374.46144
347.53067
350.7162
326.48949
344.99067
319.20252
316.61948
341.74695
362.62906
331.41531
334.59679
366.66018
405.6979
374.9719
370.95474
404.92394
409.75833
378.34261
410.45621
379.92167
383.64907
416.95874
454.80072
414.94299
419.03544
424.67103
425.91703
530.62444
530.74528
528.15841
665.95016
520.50737
523.28651
673.81833
958.36805
731.35407
756.95173
1279.4013
1126.1549
1543.8497
1756.4011
989.53742
1407.8589
968.14502
725.78927
704.05053
914.41325
940.00927
1473.4914
1063.9167
1199.0413
1665.6993
2221.8524
1939.766
1298.7136
1978.706
2270.9357
2479.1524
2145.5599
2137.681
1966.8197
1532.2867
1115.1385
672.39635
437.12583
334.89793
273.47099
273.63542
266.62908
266.26472
317.69874
317.2646
333.81917
443.90564
396.12398
393.75656
524.22074
530.20485
698.64103
645.31021
501.49296
410.57959
356.30044
315.57458
286.86676
262.05175
261.26408
259.68235
260.4503
284.42307
282.6105
284.8815
314.06644
310.34597
311.76757
349.37247
346.17048
352.76861
349.27593
345.15087
308.20146
280.47252
257.94657
256.50127
257.43437
280.47761
278.37756
274.70834
254.1696
254.98363
257.13734
257.7686
253.80095
253.2278
273.34322
278.60177
280.38362
274.72069
297.37262
305.46963
304.07379
296.30633
323.65531
335.72885
339.01275
326.11132
313.7265
288.76804
268.61728
249.41942
255.52867
254.98647
261.29468
241.61284
242.54812
273.90338
295.50724
296.1041
273.25778
311.16468
348.63694
357.97188
426.16501
422.3926
348.84456
312.06925
359.79792
360.97981
317.60035
281.06697
252.9084
227.86977
208.69126
191.12048
173.23892
155.62938
158.15167
172.35591
173.30076
166.17137
162.46183
165.08049
165.41984
161.0888
164.64005
172.01601
195.03023
184.94245
181.64848
184.89567
191.40882
208.31026
198.58582
198.26805
212.95998
202.49416
213.45556
228.32075
252.65582
233.81526
232.39206
228.55864
199.73048
179.74236
228.50406
280.91052
253.31999
254.3149
281.12278
315.76323
281.1209
281.01536
252.85778
232.38367
233.81466
213.45455
212.94715
227.84259
228.32008
252.63801
253.90819
232.3661
201.20512
212.54882
219.42931
208.10192
190.16057
190.59534
184.2016
180.26819
183.88314
197.1998
197.29302
207.42076
206.46118
189.49854
189.76401
183.7869
181.05075
183.62004
196.09485
196.15816
205.74133
222.67076
228.1783
233.61171
238.18056
242.56235
246.04754
249.11303
251.13033
252.32449
252.37483
251.27159
249.29968
248.49793
245.51632
263.09191
264.78355
268.88097
266.95626
269.74472
250.36547
251.42992
271.18785
273.39964
271.86392
295.78235
291.16465
285.16439
282.68997
288.25482
314.23171
305.57092
309.12886
318.59549
326.5353
321.4589
292.51346
294.76631
298.21732
330.94194
325.49513
371.5586
362.92928
348.70666
333.84127
339.05369
355.42458
409.76911
378.55022
370.92979
399.34378
432.88932
445.65057
371.00679
378.54013
388.49136
481.36328
456.24994
464.63267
471.01461
495.76553
499.63582
406.55311
404.9021
408.90856
396.11872
398.1423
474.16067
470.72859
498.34243
495.855
491.41485
399.83615
386.78149
338.75951
304.71653
307.67318
342.73597
332.54768
301.62777
276.63454
271.59378
251.30832
250.56504
269.88001
291.77395
298.92865
328.91691
317.69407
320.84423
294.13855
285.9464
265.7577
247.25732
249.04491
243.74573
244.06021
261.54048
260.65721
267.26685
287.76608
278.95582
279.51022
300.84232
299.30335
311.29761
308.95262
306.32959
283.93473
264.28297
246.68294
241.71373
242.2363
259.37588
258.11954
251.52819
236.80268
237.14178
238.54981
238.68966
232.44057
232.32246
246.26588
253.64353
254.56601
246.73941
260.96606
270.53066
269.97135
260.85131
276.45695
287.72496
289.27168
277.24185
294.03937
308.74022
323.86176
341.2956
359.80126
379.95722
377.38711
357.67006
400.96359
434.72751
439.99933
404.71908
459.60887
518.32325
585.93699
590.51956
657.39524
971.4896
935.68717
774.35912
788.94642
802.14434
589.90638
466.72857
391.88469
373.30714
368.53628
349.84269
353.97693
396.48065
430.06238
424.15781
461.07482
586.76744
668.18754
679.21697
610.72354
525.19559
457.99907
535.01474
540.08111
660.05825
529.2203
609.53209
672.72958
1033.4644
843.48768
868.31657
661.67813
661.12104
518.9361
510.00704
442.68996
519.22121
444.85294
436.32096
390.89649
361.68686
339.47233
364.26533
341.29579
364.09091
340.70605
343.7916
346.96031
370.44394
344.24989
340.97243
366.39108
362.38082
337.75868
358.0314
331.50615
308.60186
311.2418
334.90413
338.34622
358.28361
353.74448
324.62151
321.19699
317.87354
306.07348
328.22526
344.64998
349.13819
383.32846
389.39393
362.38714
366.72164
399.76898
394.40274
433.01169
440.24239
395.23851
400.71485
446.83834
452.6911
516.12561
446.53068
392.65111
351.43523
347.61741
387.803
417.71088
364.75551
369.10923
423.09289
501.06377
495.32957
440.68743
509.84684
610.77548
614.41438
762.90917
568.03575
454.9315
385.47797
380.83179
449.71255
474.03698
391.6017
341.05028
336.88553
331.64389
323.17002
313.24188
288.66469
286.36571
310.089
319.44342
292.43776
295.0837
300.15338
297.21155
273.32483
253.0481
254.27209
255.16541
255.18631
231.02701
204.20007
204.19515
204.14418
229.2176
250.97671
250.17489
269.24762
271.16566
272.78037
252.1162
251.27007
270.75687
293.72824
291.34771
287.20639
281.8723
303.86532
295.33996
293.01658
284.72953
276.1101
267.06072
257.39135
246.85927
227.37797
198.70006
179.72925
166.14405
164.00058
156.40047
159.85755
158.42857
159.85373
165.88838
162.82726
159.88811
166.15149
167.42135
180.60328
179.74755
182.93053
172.61679
173.74231
182.89356
183.30734
195.10429
194.85275
204.85921
188.61593
189.0361
204.24103
203.39837
194.09289
194.18814
183.14647
188.47057
188.15017
192.65491
178.86094
163.78378
166.33333
178.15173
173.42406
167.70815
169.06946
180.62499
179.62757
182.48854
183.01989
193.28197
193.0364
201.89916
187.54106
188.08436
201.28831
200.41785
192.42342
182.88113
174.64447
183.68704
192.60187
188.26237
187.51406
191.55401
179.13421
192.36182
207.32957
208.44844
192.22822
191.79538
192.84752
210.41917
202.75711
212.36807
207.10206
198.12669
180.58957
167.41369
173.71739
172.61123
182.91055
183.28675
188.99912
188.58354
204.81546
194.82414
195.07735
204.19055
203.34833
188.11119
182.87526
183.12303
188.4334
202.70684
194.16387
194.06744
207.4621
208.68038
208.98513
215.13721
214.99471
221.30273
221.42319
232.99574
225.1451
225.00203
232.38944
231.60372
220.29818
214.24293
214.10052
220.16931
231.00999
223.87486
224.0625
234.21593
227.35666
227.3697
235.43995
235.01086
244.11669
244.91827
257.44502
246.88838
246.60476
256.52051
255.52952
243.27801
242.50899
233.74652
245.11677
245.45758
256.62881
245.95343
227.36872
208.70489
209.01167
215.17124
215.03904
225.03437
225.16411
233.01542
221.45986
221.35635
232.42788
231.65632
224.10339
214.29406
214.15483
223.92512
231.07118
220.23637
220.36178
225.53309
212.39435
193.68287
177.98567
193.42168
213.32721
220.01233
197.68402
197.97677
218.85641
217.57638
211.34372
224.2357
219.21514
213.26947
207.48525
225.12443
225.07768
231.57046
221.78252
222.7067
213.1232
219.0868
229.70691
230.28183
222.85495
232.73248
233.78423
234.23803
235.02143
235.43607
244.90293
244.13274
256.497
246.59476
245.44787
245.12504
254.68642
242.55609
243.31406
255.52902
268.5403
256.6146
257.78742
246.98921
258.38877
257.81905
269.69341
270.80341
285.09976
271.56062
271.08825
283.80117
282.46836
268.56844
267.57195
254.67222
253.70456
241.66406
230.22031
219.14389
213.21555
213.07434
219.02731
229.65801
222.66975
222.80716
232.7009
225.11348
225.06362
207.07917
212.32714
212.16239
217.90511
218.04986
228.90501
221.74953
221.54994
228.32191
239.44399
231.08337
231.5445
232.3091
240.9496
252.9251
243.52184
243.74009
254.81386
243.97042
243.05969
253.29232
242.44377
242.13441
251.26641
252.04914
240.1691
247.65238
235.17006
222.91423
210.35239
192.79121
178.82262
163.76527
166.30919
162.82364
167.69594
173.39303
182.46035
179.60589
182.99662
188.03127
187.50195
201.84537
193.01454
193.2679
201.21512
196.48502
205.76955
205.41877
210.41159
211.14237
211.29063
216.90669
216.764
226.96327
220.3399
220.49977
227.5392
238.62352
230.06201
222.78883
222.7363
228.89967
219.43596
219.17535
210.24534
215.60649
215.80731
226.18796
225.52305
236.30739
228.38419
239.17313
239.53383
240.59268
229.67288
237.91682
249.60715
250.36219
240.80484
251.62887
241.17244
222.80475
205.79786
205.47377
222.75692
228.95869
219.48857
210.46825
211.17063
211.31923
212.19696
221.57759
228.36103
217.94804
218.1016
228.94266
240.20944
240.99187
232.33637
243.53209
243.74868
253.73479
241.71739
249.42907
236.74605
237.57683
225.2747
230.3335
230.56999
231.804
226.56826
226.81468
239.89763
239.14962
245.23783
246.10593
232.03787
236.37597
236.00165
250.71274
251.7284
256.75149
240.47406
240.08094
255.57505
254.32025
249.61114
244.26572
238.30991
251.2372
252.18536
253.13451
260.65847
259.52213
274.71899
265.92101
264.82315
263.78457
250.34009
257.37819
243.44382
248.67292
234.37323
234.71792
238.61017
238.25987
253.2634
269.45091
263.75672
264.95913
258.41967
273.40767
272.18306
279.94948
281.41834
283.00798
266.25774
267.60355
273.99879
272.38245
290.86954
288.89402
270.86207
276.03574
258.33293
241.63329
223.44552
200.7241
181.43588
182.27587
199.34522
196.65596
196.87268
216.46864
220.74
199.46389
201.05066
200.93508
202.41409
202.2437
200.53768
224.81544
227.37847
225.88064
224.31917
222.00034
239.70907
236.84153
233.11885
229.1102
228.88545
223.98269
236.03764
241.71783
242.50484
256.35976
255.38888
248.5704
261.81661
252.95798
252.07954
242.44987
242.15263
231.10678
239.47786
251.30018
263.89737
252.83411
253.29207
254.36212
254.80816
256.0743
269.07962
269.45533
271.07115
271.51828
258.34936
270.71276
269.64995
283.72708
284.98485
300.32267
284.64585
283.63397
298.83819
300.44173
317.05026
315.072
298.76787
297.27365
282.16069
269.47123
269.08892
256.08975
281.36636
295.99324
281.32187
295.97858
281.34676
267.57703
266.54357
265.66857
279.25906
267.20361
267.46571
280.19807
294.72503
279.97687
267.4735
267.20252
254.37416
265.65354
266.52936
280.18724
279.24714
278.21412
264.72116
263.86846
252.8255
265.53069
265.78487
278.07515
265.78052
265.53895
277.37201
278.23289
264.7363
274.94805
260.87564
247.7012
235.21955
222.9763
222.70155
234.51492
240.03518
227.45968
227.70083
240.80844
254.42273
253.48924
246.85772
259.95208
267.84371
268.86656
269.92264
271.01404
262.77462
277.01768
278.157
279.33626
280.61396
281.97301
298.10119
296.4726
309.18196
291.15873
292.86206
311.30017
331.81006
315.67059
313.66806
332.5036
335.01734
337.75846
358.51751
383.56999
353.79748
377.2553
417.44073
425.31618
388.95101
424.9114
390.73717
395.74784
368.04387
372.0437
376.03447
407.63662
412.43383
449.43423
443.65574
405.70706
444.28087
450.05837
455.45876
459.11335
509.66329
461.26783
513.29846
507.57925
461.22091
525.81607
585.79177
594.30676
663.20051
570.72255
565.47046
503.79402
575.3419
513.19268
518.56017
583.97124
656.8944
648.77886
750.36236
654.89162
646.73399
579.26916
520.34704
455.81943
449.97422
513.87618
571.55615
494.26729
501.2105
557.8404
497.43531
490.53037
560.9726
500.75572
507.39743
568.70943
640.66679
631.33624
549.54418
637.29338
730.64606
741.48394
913.73698
799.53527
713.90615
627.7041
630.57545
813.55546
965.04193
717.59481
718.45887
958.27049
1375.6221
1463.1201
1142.7049
1580.9409
2187.3852
1945.5433
2270.4645
1558.481
1085.8043
807.01616
805.74687
1092.0994
1239.9677
920.81279
926.29686
762.59066
916.70787
790.42313
696.51419
605.33205
604.85879
694.68717
916.90086
762.00662
755.91358
912.09317
1047.8367
1053.6717
788.98703
911.0941
1209.7421
1207.6195
1655.1914
1491.124
1290.5918
993.56536
1042.6145
751.66883
568.99363
622.83287
481.24127
400.00478
396.27171
478.4891
627.02143
628.72677
564.81646
771.44268
968.76771
933.01365
897.60419
870.04188
613.43407
484.51603
485.51192
482.40815
400.54738
348.23911
311.57834
283.53259
285.30833
283.24101
259.77938
259.13225
281.60106
279.62757
281.49941
279.47983
257.46569
256.1607
256.99984
254.68841
229.967
204.05258
206.07157
203.87943
200.49729
178.4634
179.14907
183.03001
204.14667
229.22695
226.49793
202.31412
202.33869
228.11615
222.7659
199.21371
200.82673
224.30443
216.69737
195.86919
195.57248
190.17821
172.36103
158.15386
173.31096
189.52016
194.62593
194.74303
199.34423
221.44293
214.45664
215.4936
206.49229
207.4466
190.61487
184.21019
180.27151
183.89135
184.90651
191.43435
173.24202
172.01135
195.047
191.13378
208.70844
208.33052
198.61023
181.65876
184.95441
198.29642
213.04073
227.92621
228.71325
253.13042
252.86364
228.38349
213.52518
202.59221
232.62814
234.02012
254.79859
281.7334
281.70617
282.05413
319.34911
317.36265
282.32853
282.38173
253.87124
232.81477
229.1301
199.86909
179.76387
161.08499
164.63463
165.41583
165.07498
162.46402
166.16769
181.05229
183.62967
183.79798
189.79333
205.78178
196.17714
196.10299
197.30442
197.21525
208.12586
226.39329
232.45978
238.67146
243.98106
249.24074
253.50186
257.28889
256.75364
277.93212
279.56797
274.23412
272.96264
253.00079
251.15056
250.4642
253.95578
274.29606
277.69461
303.40548
306.25883
309.06574
345.06932
341.33027
336.34358
339.94344
306.11974
308.54947
309.76705
312.88566
351.43061
345.95865
343.04848
333.89224
302.94247
304.14909
336.88223
324.99791
296.61409
295.69637
322.75364
320.15672
331.00126
300.69676
276.09886
271.30226
269.68403
291.45431
298.19931
327.67553
317.22491
314.09998
324.06836
332.37714
337.18299
303.22352
303.09362
299.98465
275.04742
275.09652
254.30283
253.12195
253.98339
275.49626
277.20976
273.47732
271.30086
272.83197
252.13242
251.28957
270.79413
269.3617
250.22684
251.04125
249.10019
251.10788
251.84672
272.2631