/*--------------------------------*- C++ -*----------------------------------*\
  =========                 |
  \\      /  F ield         | OpenFOAM: The Open Source CFD Toolbox
   \\    /   O peration     | Website:  https://openfoam.org
    \\  /    A nd           | Version:  7
     \\/     M anipulation  |
\*---------------------------------------------------------------------------*/
FoamFile
{
    version     2.0;
    format      ascii;
    class       volScalarField;
    location    "160";
    object      p;
}
// * * * * * * * * * * * * * * * * * * * * * * * * * * * * * * * * * * * * * //

dimensions      [1 -1 -2 0 0 0 0];

internalField   nonuniform List<scalar> 
25278
(
101315.57
101313.98
101315.67
101315.58
101318.76
101313.55
101314.49
101315.5
101314.82
101309.46
101311.41
101313.23
101314.13
101315.94
101323.24
101315.74
101314.1
101320.86
101324.58
101319.2
101313.85
101313.82
101314.1
101311.43
101306.39
101311.21
101313.91
101311.18
101319.11
101310.93
101307.42
101314.95
101307.44
101312.05
101304.5
101314.59
101309.11
101303.85
101308.62
101300.59
101303.67
101298.22
101301.01
101291.85
101299.37
101301.38
101309.37
101307.5
101300.61
101308.35
101308.28
101319.34
101313.65
101311.33
101314.09
101306.67
101305.13
101312.35
101303.49
101305.76
101301.13
101302.09
101303.79
101307.34
101316.45
101316.15
101307.27
101304.81
101308.91
101308.97
101327.23
101316.83
101317.44
101309.8
101317
101305.85
101304.39
101310.76
101313.5
101319
101323.2
101323.01
101320.61
101324.21
101319.13
101324.18
101325.39
101334.6
101331.14
101331.63
101325.72
101324.69
101331.42
101331.89
101333.28
101324.32
101331.79
101332.04
101323.61
101323.35
101332.16
101337.78
101335.95
101322.9
101327.34
101336.12
101327.47
101333.51
101331.73
101334.11
101336.9
101328.94
101340.28
101353.28
101339.43
101338.62
101358.32
101334.05
101342.14
101342.03
101324
101319.04
101318.69
101331.23
101331.77
101331.4
101333.85
101336.97
101325.26
101324.14
101323.17
101318.88
101320.46
101322.94
101331.24
101334.54
101326.99
101328.85
101339.87
101333.05
101338.92
101353.03
101357.92
101333.76
101327.02
101335.95
101331.79
101323.97
101333.06
101324.03
101322.97
101331.81
101325.52
101332.17
101320.47
101323.32
101322.45
101335.64
101338.31
101333.07
101345.94
101348.69
101333.61
101339.48
101327.92
101336.52
101342.69
101334.95
101357.72
101353.35
101340.22
101339.56
101344.21
101349.53
101403.96
101360.51
101343.57
101341.75
101360.61
101409.13
101349.95
101343.22
101338.15
101339.07
101337.65
101331.94
101322.72
101327.27
101338.04
101360.55
101354.25
101342.83
101324.42
101336.25
101335.04
101331.92
101350.7
101331.04
101411.7
101393.2
101328.72
101348.22
101331.21
101322.7
101320.66
101320.08
101312.03
101319.06
101314.29
101306.54
101314.48
101306.89
101303.5
101297.84
101308.99
101302.94
101307.68
101299.85
101300.43
101291.06
101291.7
101297.85
101305.62
101308.94
101305.2
101297.76
101295
101299.93
101300.41
101303.5
101301.99
101289.82
101286.75
101296.5
101298.43
101301.14
101299.82
101306.57
101313.26
101318.91
101307.69
101313.67
101310.66
101305.12
101300.38
101306.15
101303.73
101311.01
101302.09
101301.13
101302.41
101306.43
101307.09
101318.42
101312.1
101315.74
101307.66
101306.77
101314.73
101305.62
101303.22
101290.75
101290.57
101289.91
101290.49
101284.33
101297.79
101295.21
101298.73
101301.16
101298.37
101295.79
101297.79
101291.07
101291.04
101293.91
101297.92
101291.29
101285.63
101283.97
101284.7
101280.95
101292.81
101290.81
101288.25
101278.25
101280.69
101280.11
101275.28
101284.02
101284.26
101289.38
101297.96
101305.48
101305.85
101298.03
101303.61
101302.19
101297.55
101287.58
101290.34
101292.07
101296.91
101295.05
101291.4
101294.23
101302.1
101304.14
101299.43
101305.27
101296.03
101304.61
101298.68
101300.01
101301.24
101303.91
101296.02
101305.09
101316.83
101320.43
101304.82
101298.4
101309.18
101299
101299.8
101301.17
101314.79
101319.68
101327.29
101315.02
101299.41
101303.05
101288.8
101276.47
101297.39
101277.97
101296.83
101283.87
101283.44
101289.4
101288.89
101289.07
101282.63
101288.23
101287.66
101295.68
101285.36
101280.2
101289.95
101278.66
101279.01
101295.72
101284.12
101282.93
101282.31
101281.22
101279.46
101288.07
101272
101271.06
101278.05
101286.84
101278.18
101287.46
101284.52
101293.97
101290.51
101285.43
101296.87
101291.22
101280.23
101290.32
101278.65
101294.36
101302.14
101304.08
101283.82
101283.23
101289.07
101287.96
101287.92
101282.11
101287.8
101296.78
101295.79
101278.13
101278.13
101278.18
101286.9
101287.53
101281.83
101281.92
101281.99
101283.05
101295.75
101278.75
101280.82
101279.33
101288.21
101272.07
101271.32
101277.19
101275.4
101270.55
101263.58
101272.05
101280.43
101287.17
101278.46
101290.15
101278.03
101273.13
101277.2
101276.9
101280.97
101272.96
101282.33
101286.95
101280.69
101272.16
101275.91
101277.37
101273.77
101279.62
101275.06
101282.26
101279.99
101275.01
101274.02
101269.49
101271.29
101262.58
101275.35
101269.92
101268.05
101272.43
101269.86
101273.65
101274.41
101284.41
101275.25
101276.15
101280.15
101289.59
101289.63
101296.34
101298.91
101300.33
101316.6
101322.18
101310.78
101301.69
101304.34
101301.4
101315.6
101303.69
101329.19
101332.97
101328.65
101325.53
101305.49
101304.31
101307.61
101307.3
101299.35
101343.73
101361.91
101319
101325.72
101330.81
101325.97
101306.78
101304.95
101310.24
101313.73
101316.52
101359.82
101349.13
101321.42
101320.91
101320.81
101317.94
101322.9
101318.22
101307.87
101310.12
101295.6
101296.79
101291.41
101291.71
101287.41
101297.31
101294.13
101274.66
101276.71
101275.06
101283.96
101284.74
101276.87
101287.03
101278.6
101286.64
101284.28
101272.52
101275.32
101277.16
101282
101282.51
101282.57
101289.82
101285.29
101298.42
101301.63
101300.1
101296.79
101284.07
101291.13
101291.37
101299.35
101300.96
101302.22
101304.7
101302.05
101311.07
101304.37
101319.98
101311.02
101306.17
101308.28
101327.8
101318.47
101314.6
101322.03
101317.87
101307.36
101304.41
101333.9
101329.21
101329.73
101298.32
101325.79
101305.14
101305.96
101319.12
101344.36
101364.35
101361.15
101320.24
101316.72
101333.6
101294.82
101319.47
101293.68
101306.04
101293.09
101303.54
101292.59
101301.91
101299.83
101297.82
101298.96
101301.06
101295.24
101298.27
101295.21
101292.14
101284.98
101286.18
101292
101285.89
101282.51
101293.85
101291.79
101289.93
101292.88
101279.96
101279.83
101281.89
101280.3
101276.32
101283.88
101284.41
101287.49
101278.45
101290.2
101282.31
101277.5
101278.45
101273.23
101277.66
101275.23
101279.59
101272.01
101280.46
101274.78
101272.48
101281.41
101287.19
101284.03
101274.3
101276.67
101278.35
101274.56
101279.74
101275.66
101262.47
101271.35
101282.19
101274.36
101269.58
101270.54
101263.31
101273.78
101270.38
101270.47
101265.75
101276.9
101264.96
101267.04
101259.74
101252.71
101264.38
101263.66
101274.43
101283.68
101274.76
101283.76
101278.74
101284.55
101279.03
101284.09
101269.1
101279.95
101262.75
101268.01
101270.17
101276.66
101276.39
101277.29
101285.1
101287.28
101288.56
101296.57
101288.73
101291.34
101284.13
101288.63
101291.52
101290.98
101287.02
101289.73
101281.44
101282.06
101282.68
101289.75
101280.44
101279.53
101278.85
101287.75
101288.43
101295.59
101299.46
101294.44
101290.2
101290.63
101289.47
101289.3
101285.74
101294.07
101294.26
101287.04
101287.64
101288.31
101286.13
101287.34
101280.15
101286.46
101292.2
101282.66
101282.76
101291.37
101275.21
101286.71
101280.07
101282.35
101266.51
101273.79
101275.96
101280.71
101276.75
101278.58
101273.64
101272.28
101270.26
101275.56
101281.17
101281.96
101281.24
101283.03
101282.43
101278.18
101274.51
101280.37
101275.16
101276.08
101273.11
101281.27
101297.53
101287.92
101281.16
101291.87
101301.58
101291.89
101302.25
101292.07
101301.98
101297.54
101297.38
101283.66
101283.58
101278.48
101289.78
101291.77
101291.83
101289.54
101278.04
101277.5
101278.18
101267.87
101267.45
101271.11
101270.4
101274.85
101284.77
101280.09
101273.87
101275.25
101276.51
101275.8
101274.13
101272.78
101274.43
101276.06
101283.01
101281.73
101274.28
101271.88
101280.57
101279.41
101269.92
101268.73
101270.62
101272.27
101282.19
101277.67
101272.66
101278.4
101270.64
101272.82
101274.06
101270.01
101271.8
101273.91
101272.5
101269.81
101263.4
101266.63
101268.48
101266.29
101263.46
101259.39
101267.15
101264.63
101268.19
101261.17
101269.14
101267.11
101273.58
101277.8
101286.31
101288.09
101295.51
101293.03
101299.99
101289.82
101292.56
101291.25
101282.18
101282.29
101285.6
101283.51
101277.87
101277.83
101285.41
101288.15
101295.61
101295.17
101303.39
101293.1
101293.86
101293.3
101283.06
101283.36
101287.73
101284.85
101278.07
101273.58
101273.17
101273.64
101281.78
101281.47
101288.66
101289.93
101301.49
101287.05
101290.95
101288.45
101275.87
101276.35
101267.57
101266.37
101277.17
101282.65
101290.97
101291.73
101306.55
101293.12
101293.01
101291.76
101286.23
101285.19
101282.72
101282.49
101295.45
101273.12
101288.16
101278.95
101281.41
101262.5
101271.7
101260.96
101262.96
101266.7
101269.72
101262.72
101266.84
101261.48
101270.96
101264.74
101284.47
101272.79
101267.24
101270.48
101264.09
101276.27
101268.29
101261.83
101255.89
101246.44
101253.98
101262.34
101253.27
101274.28
101277.04
101262.17
101258.11
101265.08
101267.27
101260.1
101254.3
101250.52
101261.36
101261.71
101257.78
101255.46
101263.29
101268.38
101272.98
101270.32
101272.13
101269.58
101267.87
101261.63
101264.95
101267.07
101270.46
101265.31
101274.32
101267.04
101249.56
101255.61
101250.16
101266.14
101274.31
101267.49
101258.66
101264.91
101263.13
101255.54
101248.25
101251.27
101260.9
101251.43
101258.73
101252.32
101260.94
101258.59
101260.7
101263.76
101259.78
101255.47
101244.74
101251.51
101255.27
101250.29
101259.34
101253.86
101264.94
101258.49
101261.7
101266.64
101269.44
101275.62
101291.43
101287.84
101275.06
101273.88
101273.58
101285.02
101264.24
101282.87
101298.83
101270.93
101271.63
101290.02
101253.04
101267.39
101266.52
101246.5
101252.06
101259.19
101247.41
101255.87
101249.91
101239.32
101226.9
101241.2
101236.59
101251.09
101238.34
101251.24
101254.88
101249.05
101243.62
101255.93
101252.96
101261.95
101264.86
101266.41
101263.36
101253.9
101258.72
101263.28
101255.49
101253.41
101241.98
101249.27
101239.26
101248.21
101250.24
101241.12
101238.26
101241.44
101229.32
101242.93
101231.84
101244.41
101234.73
101248.92
101246.67
101257.25
101239.88
101241.45
101223.55
101222.87
101232.15
101235.41
101243.04
101227.46
101239.09
101247.27
101241.68
101231.45
101215.18
101228.89
101236.33
101225.19
101208.48
101194.61
101216.89
101206.2
101228.33
101212.02
101233.73
101250.76
101261.6
101268.85
101279.9
101275.56
101272.95
101277.65
101268.01
101271.33
101271.74
101266.27
101265.67
101260.18
101249.39
101257.4
101257.67
101244.4
101256.83
101271.95
101272.47
101257.23
101244.97
101244.03
101261.37
101280.01
101293.68
101311.19
101308.64
101280.07
101283.49
101261.52
101261.03
101272.99
101254.1
101255.04
101267.21
101277.95
101283.18
101283.85
101283.82
101287.34
101284.08
101297.34
101299.99
101307.65
101313.99
101321.08
101325.03
101331.47
101331.77
101332.78
101335.83
101343.95
101336.91
101327.4
101337.68
101362.16
101355.92
101338.68
101338.86
101337.18
101324.34
101323.67
101321.01
101322.95
101327.37
101340.77
101331.26
101356.14
101348.22
101337.61
101340.21
101364.99
101410.43
101343.39
101360.89
101354.95
101341.16
101335.73
101324.82
101341.3
101336.05
101337.86
101337.23
101338.01
101365.14
101413.55
101340.14
101333.03
101346.05
101342.1
101354.2
101359.69
101336.94
101327.11
101324.12
101342.72
101334.63
101330.5
101346.62
101324.79
101425.87
101411.54
101341.22
101354.65
101333.97
101314.71
101319.53
101308.4
101308.66
101319.41
101311.74
101312.32
101316.87
101316.13
101307.29
101307.77
101304.41
101305.37
101309.17
101309.72
101304.16
101302.94
101305.44
101307.15
101314.35
101306.68
101302.06
101292.47
101302.11
101301.11
101299.49
101297.99
101289.56
101291.88
101292.28
101290.34
101298
101302.37
101301.84
101292.91
101292.75
101284.45
101279.53
101278.52
101277.98
101279.25
101281.34
101293.41
101290.47
101297.19
101300.39
101292.07
101285.26
101286.6
101298.98
101292.51
101294.51
101283.96
101283.36
101281.21
101273.93
101276.79
101273.56
101275.34
101273.73
101273.93
101274.43
101278.26
101277.83
101266.64
101266.73
101270.72
101270.79
101264.28
101264.15
101257.3
101257.05
101243.79
101243.81
101254.47
101255
101237.09
101237
101243.86
101231.45
101212.57
101227.86
101226.92
101199.28
101220.18
101199.25
101220.44
101240.27
101254.72
101251.76
101269.58
101319.63
101307.64
101272.5
101263.97
101261.98
101287.09
101252.62
101283.72
101261.35
101272.46
101283.78
101285.51
101287.69
101319.27
101290.77
101326.65
101273.22
101258.98
101264.44
101327.05
101367.18
101301.73
101342.14
101285.76
101308.49
101288.03
101299.32
101284.72
101291.29
101286.83
101280.56
101283.03
101285.19
101287.17
101288.2
101288.3
101283.45
101289.86
101287.55
101289.31
101280.98
101282.31
101282.51
101278.61
101273.92
101277.53
101276.27
101280.61
101286.89
101290.3
101290.91
101286.49
101280.36
101287.6
101286.56
101287.04
101289.02
101295.22
101298.7
101288.8
101284.79
101292.5
101288.68
101290.13
101280.69
101281.63
101288.14
101280.91
101281.35
101279.09
101276.75
101272.71
101271.11
101275.89
101278.54
101287.48
101282.84
101282
101296.55
101295.52
101300.37
101300.64
101298.36
101306.34
101313.37
101315.36
101315.38
101314.39
101315.63
101313.58
101313.3
101313.2
101318.55
101307.12
101315.14
101311.79
101306.97
101302.94
101305.77
101306.03
101315.61
101306.89
101301.87
101300.48
101303.63
101307.49
101318.8
101310.1
101311.5
101301.67
101304.4
101313.86
101305.77
101299.6
101289.81
101289.43
101290.19
101290.63
101281.44
101281.71
101275.44
101276.43
101288.64
101290.06
101275.34
101277.86
101270.46
101268.66
101278.35
101272.62
101274.71
101273.38
101271.71
101272.82
101274.97
101282.24
101279.39
101279.35
101270.21
101269.47
101271.59
101281.64
101277.44
101273.65
101272.22
101271.15
101280.76
101281.6
101287.92
101295.16
101301.43
101291.27
101290.68
101291.82
101291.19
101297.67
101288.21
101299.77
101300.2
101293.07
101293.24
101288.13
101281.57
101288.91
101287.62
101280.48
101281.35
101276.76
101275.89
101270.09
101274.82
101277.7
101277.49
101286.13
101281.54
101283.99
101281.51
101281.79
101281.98
101288.76
101289.2
101292.35
101286.73
101291.61
101289.84
101281.97
101274.2
101274.45
101268.78
101277.11
101277.21
101268.7
101267.81
101274.03
101277.02
101277.17
101270.51
101271.34
101275.48
101279.32
101276.21
101269.76
101267.27
101265.23
101276.31
101267.86
101261.8
101265.12
101268.4
101271.29
101266.42
101264.69
101266.7
101272.3
101273.91
101268.73
101266.67
101271.74
101269.53
101263.56
101261.29
101267.18
101264.28
101267.19
101270.34
101264.33
101259.96
101256.67
101264.7
101268.54
101262.14
101254.24
101257.13
101260.93
101264.43
101270.36
101276.88
101270.12
101263.53
101260.68
101267.78
101274.65
101283.45
101283.31
101276.29
101288.96
101276.47
101276.3
101273.98
101275.15
101265.64
101283.72
101298.77
101288.95
101280.55
101282.43
101284.03
101283.55
101275.37
101292.31
101275.08
101273.43
101269.04
101271.09
101257.06
101289.93
101319.58
101295.51
101282.96
101284.86
101287.44
101286.63
101282.11
101309.68
101278.15
101274.57
101267.44
101270.49
101258.14
101287.52
101333.42
101296.88
101286.7
101288.36
101292.03
101290.68
101292.25
101295.03
101302.71
101292.01
101290.55
101300.95
101292.92
101292.61
101281.96
101282.2
101287.93
101284.96
101282.36
101285.94
101286.75
101293.58
101302.07
101306.28
101326.4
101329.59
101316.85
101312.61
101308.49
101304.03
101325.37
101316.82
101360.65
101360.53
101345.94
101320.87
101315.8
101320.43
101314.76
101315.62
101338.46
101295.98
101329.21
101302.27
101315.95
101321.86
101316.9
101299.47
101300.55
101302.83
101300.32
101309.37
101333.59
101328.59
101323.78
101303.05
101304.12
101305.3
101302.44
101289.57
101295.46
101294.23
101307.99
101307.25
101316.42
101318.1
101317.5
101291.21
101293.79
101304.36
101304.19
101291.18
101293.16
101278.29
101278.14
101283.04
101283.02
101273.87
101276.74
101269.26
101269.8
101274.24
101271.23
101275.06
101266.83
101268.1
101264.99
101267.07
101276.62
101265.18
101263.07
101273.54
101262.97
101263.21
101255.75
101258.13
101261.27
101252.69
101257
101257.64
101262.4
101255.07
101260.55
101258.67
101261.18
101252.23
101256.12
101251.73
101246.03
101256.45
101253.73
101242.53
101249.56
101252.22
101244.29
101232.16
101242.93
101239.77
101242.68
101248.38
101256.88
101267.45
101259.66
101247.99
101240.95
101251.95
101263.41
101267.67
101266.97
101274.61
101264.96
101256.32
101253.9
101263.49
101273.67
101265.04
101259.03
101261.63
101245.26
101230.58
101249.47
101253.53
101247.28
101254.98
101267.66
101265.25
101264.35
101266.38
101289.88
101309.32
101371.16
101311.92
101344.66
101306.6
101293.77
101307.89
101346.7
101262.58
101370.72
101456.72
101331.36
101330.95
101407.26
101268.51
101303.78
101316.2
101387.84
101322.09
101332.75
101451.36
101328.29
101365.71
101275.43
101411.79
101339.02
101307.85
101432.64
101488.31
101649.56
101467.54
101422.58
101448.52
101208.2
101227.82
101496.15
101285.41
101420.14
101327.29
101364.08
101319.83
101328.4
101309.3
101307.13
101327.82
101320.93
101312.27
101316.71
101326.75
101319.63
101364.59
101343.69
101320.52
101326.55
101330.02
101292.4
101320.1
101293.39
101306.73
101293.08
101302.79
101294.83
101296.51
101304.33
101294.23
101293.84
101294.44
101292.56
101291.81
101306.81
101295.5
101292.75
101294.39
101279.22
101268.88
101274.49
101278.68
101284.54
101286.39
101288.93
101283.8
101278.61
101279.33
101284.02
101285.78
101293.35
101299.62
101302.99
101296.61
101292.47
101293.7
101290.67
101293.68
101302.75
101301.84
101291.5
101290.36
101290.48
101293.03
101288.68
101294.55
101284.17
101295.26
101287.5
101294.73
101303.37
101317.04
101322.67
101317.89
101302.12
101303.49
101306.28
101305.8
101312.26
101334.28
101330.55
101328.09
101301.13
101308.9
101309.58
101306.2
101307.04
101326.28
101301.76
101316.67
101300.65
101310.76
101301.78
101309.13
101307.84
101314.02
101309.61
101301.96
101301.64
101305.85
101306.8
101306.26
101311.24
101311.58
101319.2
101315.28
101308.34
101314.76
101305.27
101309.43
101304.47
101302
101299.46
101304.68
101317.29
101306.54
101306.07
101300.7
101301.52
101297.63
101305.8
101321.47
101320.25
101312.53
101320.79
101328.45
101320.42
101305.17
101303.11
101305.11
101302.82
101315.62
101299.79
101306.26
101297.68
101305.88
101317.28
101309.81
101300.13
101301.18
101280.88
101287.34
101295.99
101297.79
101304.27
101293.03
101299.99
101298.23
101302.63
101298.9
101304
101293.39
101291.79
101288.9
101286.4
101292.95
101295.94
101298.8
101298.75
101295.86
101287.67
101293.26
101287.27
101276.15
101276.31
101272.27
101272.7
101269.07
101269.39
101266.68
101266.86
101265.6
101265.56
101265.85
101265.67
101277.4
101278.28
101267.63
101266.6
101265.35
101266.11
101264.76
101276.76
101276.79
101264.66
101263.85
101263.87
101253.15
101256.45
101258.49
101259.9
101257.27
101244.77
101248.59
101247.36
101244.93
101238.51
101240.57
101254.68
101254.82
101253.2
101239.88
101243.04
101218.77
101212.54
101225.06
101232.35
101229.31
101224.93
101205.78
101205.93
101210.11
101204.12
101186.52
101171.5
101207.09
101217.85
101215.81
101184.68
101187.41
101215.88
101238.98
101240.81
101261.72
101273.81
101276.08
101290.02
101287.77
101320.8
101297.64
101285.85
101289.38
101265.81
101245.99
101258
101256.52
101268.01
101274.25
101283.59
101278.54
101278.77
101283.31
101283.55
101283.67
101288.99
101287.55
101279.39
101275.59
101275.59
101270.56
101269.97
101278.35
101283.2
101282.34
101282.93
101283.85
101291.16
101296.62
101300.05
101291.17
101290.99
101292.09
101289.59
101289.02
101295.67
101290.58
101288.42
101290.62
101277.93
101272.27
101276.77
101280.01
101283.62
101288.93
101289.3
101283.7
101280.69
101281.4
101284.22
101283.3
101290.07
101292.21
101299.86
101297.45
101290.14
101291.27
101286.28
101290.35
101292.91
101292.56
101288.95
101289.14
101287.27
101289.5
101283.35
101288.74
101294.04
101293.75
101299.53
101297.62
101312.91
101309.5
101288.23
101285.6
101283.51
101287.57
101283.39
101297.39
101322.21
101310.37
101336.12
101275.75
101280.17
101270.08
101271.1
101287.66
101265.47
101228.4
101253.27
101264
101274.87
101275.75
101261.39
101260.57
101275.03
101265.82
101266.55
101251.38
101243.1
101218.98
101222.18
101211.88
101212.03
101224.24
101224.08
101200.46
101233.25
101229.48
101250.9
101248.67
101247.13
101215.83
101222.12
101176.18
101199.34
101167.52
101199.94
101177.18
101174.99
101130.14
101181.78
101170.08
101197.75
101212.77
101228.07
101209.87
101225.45
101208.52
101225.84
101229.55
101237
101227.08
101241.41
101233.78
101217.19
101211.03
101229.44
101215.82
101233.13
101247.57
101251.1
101237.96
101245.81
101241.42
101231.46
101246.74
101241.74
101241.73
101248.57
101234.34
101223.25
101224.1
101203.66
101213.75
101222.05
101232.4
101213.09
101199.53
101187.47
101203.86
101226.54
101241.78
101224.56
101244.4
101240.54
101258.88
101265.45
101275.09
101261.25
101249.23
101248.95
101261.6
101275.67
101265.35
101258.68
101234.17
101234.14
101210.04
101206.73
101237.29
101233.65
101258.91
101265.98
101277.08
101260.33
101245.31
101245.84
101261.18
101267.82
101255.76
101256.41
101258.56
101259.63
101267.32
101262.39
101252.52
101250.33
101260.75
101266.42
101265.51
101258.79
101265.45
101277.31
101274.66
101271.9
101272.71
101274.97
101287.64
101287.51
101289.12
101273.82
101264.58
101274.2
101260.8
101261.29
101260.33
101262.16
101271.91
101259.59
101250.29
101251.86
101255.08
101258.14
101246.68
101252.63
101255.29
101260.37
101264.9
101268.22
101271.37
101266.4
101276.95
101291.96
101298.14
101302.87
101308.32
101311.2
101313.72
101314.63
101313.83
101312.5
101312.79
101308.97
101302.43
101308.32
101306.62
101297.79
101291.34
101299.48
101307.07
101296.56
101298.73
101299.11
101288.73
101287.16
101289.74
101297.46
101292.65
101298.72
101299.6
101308.76
101304.09
101305.16
101296.98
101294.61
101305.48
101307
101312.45
101308.96
101309.87
101309.21
101312.8
101314.61
101310.6
101304.46
101309.11
101315.05
101310.55
101310.12
101306.61
101311.45
101314.16
101317.01
101317.05
101311.22
101314.11
101312.75
101317.68
101315.01
101313.63
101312.75
101313.89
101314.17
101318.17
101315.09
101310.07
101304.95
101303.13
101304.72
101305.07
101291.95
101303.87
101301.7
101306.92
101308.61
101308.05
101300.75
101291.93
101299.28
101298.94
101291.22
101288.61
101289.64
101299.95
101294.2
101300.27
101298.56
101297.39
101304.66
101306.41
101306.44
101309.46
101300.65
101295.06
101293.56
101284.2
101274.61
101287.38
101288.73
101275.44
101279.08
101275.13
101287.89
101283.46
101286.45
101282.44
101278.56
101290.31
101295.5
101291.75
101295.86
101283.38
101278.55
101293.92
101277.15
101272.37
101282.17
101280.21
101275.39
101272.25
101266.76
101284.95
101277.97
101282.52
101283.67
101289.7
101288.17
101295.95
101278.65
101272.66
101284.52
101293.69
101293.07
101283.66
101274.23
101286.93
101286.95
101274.35
101277.86
101273.67
101286.76
101282.07
101284.88
101282.24
101277.82
101289.64
101294.77
101290.07
101293.43
101280.35
101276.59
101290.11
101295.15
101296.8
101287.75
101283.88
101281.07
101285.7
101294.85
101287.79
101296.32
101297.34
101283.97
101288.76
101282.83
101294.23
101295.96
101309.56
101296.18
101301.92
101303.13
101294.52
101300.8
101299.2
101293.38
101291.44
101285.39
101287.61
101277.91
101281.83
101272.19
101274.32
101278.91
101276.85
101284.4
101277.89
101295.22
101288.15
101288.05
101282.17
101281.16
101278.63
101272.21
101278.16
101273.14
101264.86
101278.34
101274.19
101267.95
101262
101256.46
101279.48
101270.44
101277.33
101279.91
101287.89
101289.68
101294.92
101293.83
101295.12
101290.99
101283.98
101295.3
101302.69
101300.88
101304.15
101292.88
101286.47
101296.4
101309.87
101304.33
101293.2
101300.78
101309.18
101301.03
101304.58
101303.35
101311.11
101309.26
101309.87
101304.19
101297.41
101296.15
101300.3
101302.21
101306.72
101292.34
101284.95
101293.82
101305.65
101298.74
101306.11
101315.36
101313.05
101307.28
101304.64
101305.07
101304.72
101296.07
101306.71
101304.59
101306.84
101308.15
101313.03
101313.07
101309.6
101310.71
101305.3
101310.92
101309.57
101312.24
101307.87
101311.27
101311.42
101315.47
101314.99
101309.6
101307.68
101312.44
101308.35
101305.88
101301.09
101309.26
101314
101315.5
101316.13
101311.65
101312.13
101313.25
101306.63
101314.13
101319.01
101313.86
101317.83
101319.22
101309.91
101317.12
101315.64
101317.66
101319.52
101321.17
101315.39
101324.09
101323.71
101320.99
101310.74
101316.9
101320.57
101316.82
101316.86
101310.61
101313.22
101313.69
101306.93
101312.18
101318.82
101312.89
101316.86
101307.34
101305.16
101299.82
101299.98
101310.23
101307.81
101307.64
101299.02
101302.95
101303.04
101298.65
101295.54
101306.03
101291.22
101293.32
101292.11
101291
101292.27
101288.33
101288.63
101292.2
101276.5
101284.42
101283.85
101272.24
101275.58
101279.81
101278.05
101273.82
101269.26
101268.11
101281.52
101275.51
101271.27
101268.9
101264.87
101281.47
101273.4
101277.76
101279.5
101281.58
101282.77
101279.82
101276.7
101271.69
101269.52
101274.6
101270.65
101274.04
101278.89
101286.54
101286.5
101285.72
101287.41
101285.61
101287.44
101273.05
101272.44
101290.21
101284.33
101282.01
101283.71
101276.21
101278.7
101276.71
101284.63
101282.09
101273.54
101266.5
101271.57
101266.29
101263.01
101268.68
101261.87
101269.84
101273.94
101270.79
101275.39
101269.57
101285.92
101292.92
101295.08
101305.34
101292.53
101294.38
101304.52
101304.61
101304.88
101302.84
101303.64
101292.41
101292.71
101283.18
101284.23
101278.66
101276.94
101284.47
101294.92
101295.64
101280.2
101284.19
101282.15
101286.71
101300.87
101295.35
101298.45
101298.64
101292.13
101291.36
101299.02
101298.22
101300.73
101300.66
101305.79
101304.94
101314.79
101303.59
101308.47
101311.75
101313.62
101307.13
101297.77
101296.99
101284.13
101286.65
101294.72
101272.98
101279.81
101256.9
101264.87
101267.17
101273.14
101269.76
101261.58
101256.67
101259.96
101270.98
101266.61
101257.14
101248.95
101259.91
101265.91
101275.2
101274.08
101272.84
101294.64
101286.97
101287.48
101287.04
101286.42
101286.1
101286.33
101286.41
101292.96
101300.99
101303.81
101308.58
101291.54
101294.12
101296.02
101291.39
101291.75
101308.64
101297.28
101302.44
101294.46
101295.27
101304.98
101311.95
101308.51
101314.77
101307.39
101319.7
101309.67
101308.24
101309.26
101319.55
101318.14
101310.87
101307.14
101308.75
101306.56
101302.94
101302.63
101294.08
101302.42
101307.85
101308.94
101308.74
101298.74
101303.41
101304.56
101310.9
101308.93
101313.03
101314.75
101307.87
101300.9
101292.31
101292.7
101292.82
101285.19
101276.39
101270.12
101263.27
101256.71
101265.49
101259.25
101266.14
101258.96
101250.03
101241.96
101250.46
101261.55
101254.59
101240.72
101229.61
101214.06
101193.5
101218.32
101202.54
101169.61
101173.11
101190.57
101158.8
101188.23
101196.92
101213.32
101223.35
101236.89
101225.69
101245.78
101235.7
101213.56
101227.32
101213.19
101241.87
101260.17
101308.86
101286.88
101258.49
101288.23
101254.63
101257.57
101256.72
101254.14
101242.95
101284.6
101318.26
101247.86
101255.54
101256.47
101260.97
101290.32
101246.04
101289.44
101251.19
101256.75
101248.95
101213.15
101218.13
101230.76
101238.57
101208.9
101200.31
101184.97
101193.6
101227.06
101219.88
101227.81
101194.75
101184.88
101205.74
101235.92
101219.69
101215.31
101166.11
101172.37
101164.95
101160.79
101212.71
101211.47
101207.46
101206.97
101221.58
101251.1
101251.04
101245.1
101247.06
101303.48
101230.58
101298.03
101245.6
101249.94
101242.23
101236.6
101236.86
101308.11
101408.79
101288.06
101367.27
101247.65
101247.58
101272.6
101263.68
101334.48
101241.22
101328.21
101366.74
101302.8
101342.5
101257.12
101249.6
101249.78
101258.73
101307.95
101237.29
101298.89
101254.09
101249.43
101261.38
101274.75
101242.44
101354.36
101403.92
101296.49
101366.11
101254.94
101267.62
101278.12
101280.97
101289.09
101290.06
101277.85
101266.64
101259.53
101229.21
101227.77
101191.78
101191.43
101231.66
101269.06
101268.83
101327.52
101290.89
101291.5
101287.18
101288.79
101292.31
101290.66
101292.26
101291.1
101290.51
101302.22
101293.9
101291.47
101281.14
101281.67
101276.3
101283.15
101283.37
101287.11
101284.46
101281.36
101295.95
101295.7
101300.96
101298.86
101299.44
101296.98
101295.58
101289.14
101273.15
101273.71
101289.1
101287.96
101275.29
101276.63
101287.72
101294.84
101281.9
101283.15
101297.09
101301
101298.2
101299.89
101308.44
101298.93
101289.98
101290.16
101291.48
101289.83
101275.56
101278.33
101278.76
101281.96
101285.43
101295.7
101301.22
101296.59
101303.29
101308.62
101302.52
101306.28
101314.23
101306.19
101307.8
101299
101299.61
101296.54
101303.45
101314.68
101302.83
101317.31
101309.05
101320.01
101296.67
101298.54
101298.14
101304.21
101305.21
101304.1
101294.13
101302.51
101299.64
101314.12
101326.77
101296.73
101301.35
101299.75
101314.45
101320.34
101304.07
101320.26
101319.82
101311.42
101310.63
101319.06
101310.31
101304.95
101305.26
101304.11
101295.8
101294.07
101296.55
101292.41
101282.04
101288.26
101283.22
101287.62
101290.48
101290.25
101288.27
101299.81
101290.63
101299.39
101293.69
101301.49
101298.93
101291.15
101290.54
101287.55
101289.19
101289.07
101293.84
101287.23
101284.16
101281.2
101275.26
101275.79
101272.29
101273.26
101282.62
101277.52
101266.77
101265.4
101276.04
101281.61
101289.51
101303.52
101304.71
101291.9
101290.9
101290.42
101288.86
101287.96
101299.75
101284.94
101288.3
101299.21
101286.42
101285.99
101273.15
101274.04
101279.96
101280
101279.76
101275.01
101271.07
101271.54
101264.79
101264.08
101254.15
101253.98
101253.6
101254.52
101264.27
101265.02
101257.9
101264.68
101264.01
101275.45
101275.36
101272.92
101268.34
101268.71
101263.78
101259.39
101259.51
101262.88
101272.55
101258.62
101258.67
101272.02
101262.77
101262.25
101274.33
101271.18
101268.21
101264.13
101264.71
101276.76