/*--------------------------------*- C++ -*----------------------------------*\
  =========                 |
  \\      /  F ield         | OpenFOAM: The Open Source CFD Toolbox
   \\    /   O peration     | Website:  https://openfoam.org
    \\  /    A nd           | Version:  7
     \\/     M anipulation  |
\*---------------------------------------------------------------------------*/
FoamFile
{
    version     2.0;
    format      ascii;
    class       volScalarField;
    location    "220";
    object      alphat;
}
// * * * * * * * * * * * * * * * * * * * * * * * * * * * * * * * * * * * * * //

dimensions      [1 -1 -1 0 0 0 0];

internalField   nonuniform List<scalar> 
25201
(
8.0084975
8.0123778
8.0085185
8.0124171
7.9805599
8.0012844
7.9939478
8.031946
8.0392277
8.0266116
8.0391969
8.0012566
7.9918357
7.6144159
7.5037651
7.9381581
7.8785717
7.8222981
7.8017754
7.5998104
7.7455468
7.7401445
7.7999716
7.7053291
7.701234
7.5580036
7.6404265
7.8095109
7.7531706
7.5698282
7.6186248
7.6815718
7.3135435
7.3931021
7.4914307
7.5012304
7.6711103
7.6057532
7.4050484
7.3241449
7.5542095
7.5251594
7.5411844
7.270361
7.2820985
7.3164085
7.5345059
7.7948986
7.9592621
7.9918274
8.0327763
8.0058176
7.9205793
7.9719523
8.0110424
7.985481
7.9634284
7.9103046
7.9394486
7.7637568
7.7834654
7.862122
7.8889322
7.9348615
7.9617485
8.0334392
7.9966815
7.8530538
7.8074181
7.6389949
7.5897479
7.6387528
7.8462793
7.8830683
7.8346693
7.4643905
7.515623
7.5895642
7.6174343
7.6762002
7.7531498
7.8088526
7.7279622
7.7335344
7.6680757
7.7410495
7.6386792
7.6118381
7.5104822
7.5663612
7.4849378
7.4360388
7.4323879
7.4473576
7.4412808
7.5071782
7.511982
7.4473078
7.321011
7.4067747
7.4042518
7.3249334
7.3338186
7.4142882
7.4122976
7.3481065
7.1911215
7.289206
7.3418765
7.3398209
7.2810106
7.2824323
7.1779632
7.1724564
7.0020433
7.1306261
7.1298234
7.0090826
7.0185341
7.1846931
7.2893241
7.1438376
7.1453195
7.0278189
6.8397776
6.9955126
7.1044928
7.3430448
7.5682811
7.4076875
7.3269758
7.2851651
7.3182768
7.3563536
7.4389048
7.5262899
7.6399849
7.7294634
7.8626229
7.963805
7.985558
7.8889789
7.7639371
7.7839254
7.9109454
7.9396126
7.9720023
8.0110444
8.0327407
8.0334369
7.9617385
7.9347988
7.8075416
7.8530461
7.996684
7.9487292
8.0058193
7.9593322
7.8470632
7.8833199
7.5900679
7.6394138
7.741632
7.7546765
7.8101897
7.6778672
7.6191902
7.5903058
7.4722132
7.5447446
7.6686336
7.7340527
7.6137016
7.6883766
7.7383938
7.6414113
7.6133492
7.5959938
7.3804168
7.3984466
7.1895789
7.2577758
7.2898036
7.1891165
7.1763726
7.0653716
7.1629864
7.1631113
7.0422826
6.8550024
7.0137747
7.1372961
7.3809126
7.5969854
7.4371101
7.4868888
7.5131417
7.0212212
7.1461706
7.2918371
7.416908
7.4141927
7.3501315
7.4345145
7.4502088
7.3365238
7.1874524
7.1930014
7.2908314
7.146684
7.0295254
6.8410821
6.9964231
6.9910907
6.9773901
7.0909196
8.0123413
8.0083577
7.9527109
7.8096641
7.7531848
7.541206
7.3931868
7.6187103
7.5699154
7.5542445
7.5251553
7.2820533
7.2703244
7.3134378
7.3241332
7.4050889
7.6058011
7.6712224
7.6817528
7.4915065
7.5013203
7.6120239
7.7403985
7.8787647
0.0013862631
0.0072159967
0.017583449
0.030192745
0.39339843
0.4010219
0.031266042
0.018179291
0.007455363
0.0014252304
0.0014445107
0.0076572303
0.01868077
0.032100123
0.40966486
0.41487729
0.032396515
0.018866402
0.0077370815
0.0014538774
0.0014571202
0.0077666654
0.018931794
0.032486663
0.41819965
0.42036849
0.032508212
0.018953698
0.007778379
0.0014586586
0.0014598848
0.0077909983
0.018981995
0.032545976
0.42196583
0.42327204
0.032592547
0.019012423
0.0078038943
0.0014610209
0.0014622793
0.0078200518
0.019052888
0.032658268
0.42442611
0.42550615
0.032720676
0.019090166
0.0078349292
0.00146341
0.0014646345
0.0078517234
0.01913314
0.032792753
0.42653799
0.42754361
0.032854709
0.019169718
0.007866223
0.0014656911
0.0014668399
0.007882385
0.019211275
0.032924828
0.42852231
0.42947514
0.032982915
0.019245481
0.0078959399
0.0014678109
0.0014688804
0.0079111367
0.019284549
0.033048803
0.43039592
0.43129122
0.033102741
0.019316299
0.0079237348
0.0014697744
0.0014707733
0.0079380283
0.019353068
0.033164706
0.43215908
0.43300704
0.033215303
0.019382714
0.0079497516
0.001471598
0.0014725252
0.007963065
0.019417008
0.033273129
0.43382419
0.43461205
0.033320076
0.0194443
0.0079738024
0.0014732779
0.0014741297
0.0079859634
0.019475547
0.033372598
0.43536292
0.43607965
0.033414972
0.019500216
0.0079957069
0.0014748131
0.0014756031
0.0080070794
0.019529462
0.033464122
0.43677273
0.43743936
0.033503016
0.019552005
0.0080159796
0.0014762208
0.0014769526
0.0080266233
0.019579441
0.033549171
0.43807611
0.43868624
0.033585227
0.01960028
0.008034848
0.001477516
0.0014782046
0.008044935
0.019626314
0.033629049
0.43926426
0.43981233
0.033663803
0.019646283
0.0080527722
0.0014787403
0.0014794121
0.0080624789
0.019671223
0.033705481
0.44033346
0.44083241
0.033743003
0.019692549
0.0080706046
0.001479948
0.0014805278
0.0080792641
0.019714042
0.033778243
0.44130515
0.44170617
0.033812266
0.01973272
0.0080863456
0.0014809758
0.49559769
0.030522047
0.017977829
0.0074419041
0.001418435
0.0014180777
0.0074362551
0.017963168
0.030495788
0.49514912
0.49458252
0.030459778
0.017942008
0.0074278327
0.0014175455
0.0014170122
0.0074193539
0.017919818
0.030421987
0.49396968
0.49333659
0.030383086
0.017896484
0.0074101035
0.0014163751
0.0014158314
0.0074020712
0.017875565
0.030347416
0.49270077
0.49203825
0.030309071
0.017852562
0.0073928938
0.0014151924
0.0014146314
0.0073846941
0.017831281
0.030272913
0.49135088
0.49063294
0.030233413
0.0178076
0.0073752639
0.0014139643
0.0014133692
0.007366745
0.017785491
0.030195838
0.48989044
0.48910835
0.03015476
0.017760882
0.0073569433
0.0014126655
0.0014120182
0.0073476549
0.017736795
0.030113821
0.48828127
0.4874064
0.030068192
0.017709467
0.0073367998
0.0014112495
0.0014105323
0.0073264596
0.017682712
0.030022867
0.48649904
0.48554633
0.029973282
0.017652986
0.0073146546
0.0014096965
0.0014089104
0.0073033186
0.017623673
0.029923624
0.48456766
0.48359587
0.029873424
0.017593232
0.0072911031
0.0014080329
0.0014071948
0.0072790547
0.017562041
0.029820467
0.48257166
0.48150984
0.029764441
0.017528353
0.0072656563
0.0014062409
0.0014053193
0.0072524761
0.017494276
0.029706697
0.48039446
0.47924918
0.029645141
0.017457337
0.0072378323
0.0014042734
0.0014032645
0.0072237192
0.017421099
0.029584212
0.47808418
0.476885
0.029520528
0.017382669
0.0072084242
0.0014021429
0.0014010667
0.0071940356
0.017346103
0.029459921
0.47565025
0.47433758
0.029401785
0.017309845
0.0071792769
0.0013999082
0.0013988146
0.0071666727
0.017279434
0.029355213
0.47288227
0.47118286
0.029323992
0.017254937
0.0071552475
0.0013976593
0.0013961331
0.0071436504
0.017231862
0.029299111
0.46891888
0.46554442
0.029221356
0.017173554
0.0071162251
0.0013928709
0.0013844033
0.0070452126
0.017006715
0.028958575
0.46025022
0.45253391
0.028344022
0.016638385
0.0068931502
0.0013665444
0.0013400273
0.0066548233
0.016070541
0.027384151
0.44340389
0.41716686
0.024620186
0.014295171
0.0059144699
0.0012870199
0.0013383973
0.0066684545
0.016104534
0.02743225
0.44420947
0.45330635
0.028377382
0.016659989
0.0069020516
0.0013655802
0.0013840283
0.0070540258
0.017027914
0.028991571
0.46084644
0.46596785
0.029242543
0.017187271
0.0071221953
0.0013926168
0.0013959996
0.0071484906
0.017243612
0.029317738
0.4692624
0.47145852
0.02933449
0.017261766
0.0071583251
0.0013975436
0.0013987471
0.0071695198
0.01728666
0.029367121
0.4731264
0.47452463
0.02940795
0.0173135
0.0071808711
0.0013998221
0.0014009901
0.0071952887
0.017349523
0.029465916
0.47579516
0.47699368
0.02952112
0.01738286
0.0072086247
0.0014020372
0.0014031682
0.0072238643
0.0174218
0.029585862
0.47814897
0.47927911
0.029641526
0.017455009
0.0072370529
0.0014041478
0.0014052105
0.0072518304
0.017492882
0.029704753
0.48038594
0.48147242
0.029757673
0.017524387
0.007264339
0.0014061175
0.0014071128
0.0072784099
0.017560504
0.029818038
0.48253246
0.48356623
0.029867539
0.017589923
0.0072900883
0.0014079492
0.0014088773
0.0073033276
0.017623934
0.029924401
0.48457121
0.48554662
0.029970264
0.017651145
0.0073141306
0.0014096454
0.0014105097
0.0073265374
0.017683075
0.030023678
0.48649224
0.48740575
0.030066066
0.017708135
0.0073364689
0.0014112104
0.0014120059
0.0073479632
0.017737767
0.030115642
0.4882813
0.48911759
0.030154647
0.017760583
0.0073569568
0.0014126344
0.0014133541
0.0073672896
0.017787141
0.030198942
0.48991814
0.49067487
0.030233331
0.017807363
0.0073753216
0.0014139243
0.0014146126
0.0073852479
0.017832983
0.030276162
0.49140571
0.49211219
0.030309193
0.0178524
0.0073929644
0.0014151545
0.0014158206
0.0074026071
0.017877188
0.030350541
0.49279278
0.49345371
0.030383498
0.017896444
0.0074102325
0.0014163579
0.0014170359
0.007419902
0.017921144
0.030424364
0.49409717
0.49472651
0.03045994
0.01794242
0.0074284457
0.0014176098
0.001418298
0.0074390368
0.017968775
0.030502925
0.49531701
0.4958813
0.030542543
0.017991695
0.007447711
0.0014188469
0.0014192671
0.0074538605
0.018007387
0.030570079
0.49643712
0.0014702051
0.0079660594
0.019395681
0.033177665
0.44188715
0.44137498
0.03314255
0.019376536
0.007958821
0.0014697479
0.001469137
0.0079489787
0.019351016
0.03309853
0.4408232
0.44025978
0.033054611
0.019324765
0.007938466
0.0014684325
0.0014678115
0.0079291354
0.019300777
0.033013908
0.43970261
0.43913585
0.032971635
0.019275545
0.0079190635
0.0014670969
0.0014664883
0.0079103066
0.019252892
0.032932893
0.43856346
0.43796519
0.032891215
0.019228066
0.0079003903
0.0014657804
0.0014651621
0.0078914853
0.019204913
0.032851458
0.43734861
0.43673998
0.032811238
0.019180756
0.0078817679
0.0014644568
0.001463823
0.0078725566
0.01915665
0.032769588
0.43607804
0.43537888
0.032724
0.01912958
0.007861817
0.0014630649
0.0014623722
0.0078517161
0.019103317
0.032678954
0.43464955
0.4338762
0.032629024
0.019073695
0.0078399865
0.0014615471
0.0014607826
0.007828902
0.019044969
0.032579943
0.43308866
0.43227
0.032527014
0.019013456
0.0078163842
0.0014598942
0.0014590611
0.0078043839
0.018982405
0.03247401
0.43142622
0.4305462
0.032416698
0.018948318
0.0077908684
0.0014580993
0.0014571908
0.0077779162
0.018914903
0.03235982
0.42965224
0.42872136
0.03229867
0.018878522
0.0077634957
0.0014561558
0.0014551709
0.0077496553
0.018842875
0.032238083
0.42777939
0.42680264
0.032173456
0.018804411
0.0077344165
0.0014540606
0.0014529977
0.0077198443
0.018766957
0.032109967
0.42581959
0.42480353
0.03204409
0.01872754
0.0077041735
0.0014518179
0.0014506904
0.0076895164
0.018690148
0.03198146
0.42375474
0.42263281
0.031922608
0.018653671
0.0076746824
0.0014494781
0.0014483526
0.007662505
0.018624406
0.03187799
0.42137855
0.41988304
0.031852378
0.018602846
0.0076521441
0.0014471786
0.0014456099
0.0076419555
0.018583801
0.031835569
0.41784946
0.41472209
0.031754029
0.018522971
0.0076136869
0.0014419833
0.0014322198
0.007538916
0.018343995
0.031465484
0.40990158
0.40311296
0.030778631
0.017942767
0.0073776792
0.0014112943
0.001377662
0.0071507898
0.017376964
0.02977161
0.39566301
0.39470813
0.03024898
0.017640639
0.0072523817
0.0013817397
0.0014254202
0.007443944
0.018146198
0.031218703
0.40071859
0.40976525
0.032110786
0.018688006
0.007660313
0.0014443892
0.0014539917
0.007739364
0.018871439
0.032404029
0.41486016
0.41819558
0.032486392
0.01893186
0.0077669444
0.0014570277
0.0014586596
0.0077797129
0.018956994
0.032512915
0.42035423
0.42195166
0.032542022
0.018979608
0.0077902063
0.0014597485
0.0014610021
0.0078046204
0.01901431
0.032595024
0.42325316
0.42439738
0.032652598
0.019049509
0.0078188677
0.0014621421
0.0014633966
0.0078354883
0.019091743
0.032722715
0.4254697
0.42649375
0.032786369
0.019129205
0.0078502768
0.0014644932
0.0014656716
0.0078664826
0.019170606
0.0328557
0.42748534
0.42845356
0.032916752
0.019206348
0.0078805669
0.001466688
0.0014677886
0.0078960039
0.01924588
0.032983121
0.42940147
0.43031579
0.033039492
0.019278971
0.0079090944
0.0014687245
0.0014697587
0.0079237596
0.019316576
0.033102688
0.43120947
0.43207164
0.033155475
0.019347526
0.0079360002
0.0014706248
0.0014715923
0.007949826
0.019383016
0.033215117
0.43291877
0.43373552
0.033264874
0.019411959
0.0079612153
0.0014723896
0.0014732866
0.007974057
0.019444921
0.033320193
0.43453035
0.43529165
0.033365776
0.019471439
0.0079845044
0.001474016
0.0014748536
0.007996561
0.019502538
0.033418196
0.43602784
0.43672476
0.033460393
0.019526868
0.0080061055
0.0014755196
0.0014762948
0.0080171393
0.019555235
0.033508027
0.43738938
0.43801632
0.033546399
0.019577353
0.008025855
0.0014769122
0.0014776553
0.0080363316
0.019604236
0.033591478
0.43861931
0.43920334
0.033627477
0.01962516
0.0080446636
0.0014782504
0.0014789852
0.0080551828
0.019652216
0.03367295
0.4397827
0.44035298
0.033709222
0.019673212
0.0080634935
0.0014795627
0.0014802727
0.0080739564
0.019700107
0.033754265
0.44092112
0.44146376
0.033794133
0.019722778
0.0080826115
0.0014808274
0.001481425
0.008091673
0.019745428
0.033831561
0.44197737
0.44242252
0.033868233
0.019765631
0.0080993511
0.0014818984
0.0014701597
0.00796546
0.01939401
0.033174587
0.44185273
0.44139198
0.033142243
0.019376133
0.007958582
0.0014697108
0.0014691078
0.0079489225
0.019351064
0.03309889
0.44085599
0.44030289
0.033055319
0.019325026
0.0079384973
0.0014684099
0.0014677937
0.0079291917
0.01930103
0.03301444
0.43973288
0.43915946
0.032971103
0.019275216
0.0079189324
0.0014670748
0.001466469
0.0079101654
0.019252576
0.032932396
0.43857424
0.43797699
0.032890108
0.019227399
0.0079001339
0.0014657598
0.0014651526
0.0078913934
0.019204793
0.032851456
0.43736265
0.43672582
0.032808195
0.019179106
0.0078811989
0.0014644291
0.0014637966
0.0078720883
0.019155481
0.032767718
0.43605982
0.43536552
0.032721943
0.019128324
0.0078613255
0.0014630377
0.001462352
0.0078513931
0.01910258
0.032677873
0.43463794
0.43387826
0.032628642
0.019073316
0.0078397916
0.0014615339
0.0014607808
0.0078289155
0.019045148
0.032580468
0.43309843
0.43230099
0.032528768
0.019014263
0.0078166221
0.001459906
0.0014590874
0.007804831
0.018983709
0.032476458
0.43145953
0.43058831
0.032419508
0.018949793
0.0077913874
0.0014581331
0.0014572352
0.0077785942
0.018916744
0.032363114
0.42969479
0.42877925
0.032303278
0.018881015
0.0077643957
0.0014562142
0.0014552379
0.0077506306
0.01884543
0.032242479
0.42782973
0.42685214
0.032178436
0.018807191
0.0077354575
0.0014541336
0.0014530747
0.0077209024
0.018769686
0.032114591
0.42586811
0.42484145
0.032047889
0.018729767
0.0077050598
0.0014518891
0.0014507567
0.0076902973
0.018692079
0.031984622
0.42377958
0.42264597
0.031924568
0.018654887
0.0076752037
0.0014495309
0.0014484022
0.0076630542
0.018625776
0.0318803
0.42139816
0.41989781
0.031853482
0.018603544
0.0076524578
0.0014472126
0.0014456338
0.007642422
0.018584906
0.031837321
0.41787216
0.41476367
0.031755838
0.018524113
0.0076141493
0.0014419937
0.0014321246
0.007538571
0.018343354
0.031464293
0.40994055
0.40318814
0.030774968
0.017941155
0.0073770949
0.0014111677
0.0013767794
0.0071468697
0.017368941
0.029757333
0.39587659
0.44536286
0.027484876
0.016160907
0.0067010112
0.0013341027
0.0013656265
0.006897309
0.016642497
0.028349584
0.45306375
0.46094768
0.028998091
0.01703187
0.0070555372
0.0013840663
0.0013929637
0.0071251407
0.017194174
0.029253472
0.46606798
0.46933293
0.029320499
0.017244971
0.0071490807
0.0013961192
0.0013977276
0.0071601241
0.017266515
0.029342221
0.471503
0.47315498
0.02936722
0.017286425
0.0071694767
0.0013987958
0.0013999719
0.0071824384
0.017317565
0.029414333
0.47455862
0.47582869
0.029465788
0.017349452
0.0071954086
0.0014010391
0.0014022091
0.0072107779
0.017388454
0.02952999
0.47703842
0.47820976
0.029588284
0.017423094
0.0072244575
0.001403231
0.0014043217
0.0072394216
0.017461254
0.029651644
0.47935484
0.48046843
0.029707594
0.017494323
0.0072524508
0.0014052645
0.0014062774
0.0072666372
0.017530517
0.029767682
0.4815526
0.48260884
0.029820242
0.017561469
0.0072788114
0.001407143
0.0014080808
0.0072920725
0.017595307
0.029876383
0.48363763
0.48463561
0.029924894
0.017623834
0.0073032977
0.001408873
0.0014097422
0.0073156859
0.01765549
0.029977444
0.48559984
0.48653004
0.030021863
0.017681551
0.0073259386
0.0014104626
0.0014112678
0.0073374577
0.017711068
0.030071004
0.48743631
0.48829952
0.03011046
0.01773438
0.0073467073
0.0014119218
0.0014126799
0.0073576241
0.017762501
0.030157513
0.48913085
0.48992467
0.030193512
0.017783702
0.0073660477
0.0014132801
0.0014139981
0.007376245
0.017810057
0.030237696
0.49068853
0.49142391
0.030271615
0.017830022
0.0073841814
0.0014145718
0.001415269
0.0073941415
0.017855751
0.030314733
0.49213518
0.4928176
0.030347578
0.017875035
0.0074018124
0.0014158171
0.0014164918
0.0074114737
0.017899909
0.030389135
0.49347384
0.49409911
0.030422046
0.017919237
0.0074191086
0.0014170278
0.0014176837
0.0074290198
0.017944418
0.030463305
0.49469575
0.49523769
0.030499812
0.017965303
0.0074371051
0.0014181787
0.0014186734
0.0074441554
0.017982251
0.030526538
0.49573972
0.49620971
0.030559119
0.018000481
0.007451135
0.0014191363
0.44229556
0.033856727
0.019759237
0.0080969767
0.0014817541
0.0014812619
0.0080895044
0.019739972
0.033822503
0.44184339
0.4414068
0.033790082
0.019720448
0.0080815359
0.0014807123
0.0014801638
0.0080727961
0.019697333
0.033749628
0.44087638
0.44032091
0.033708869
0.019673075
0.0080631587
0.0014794922
0.0014788997
0.0080544747
0.01965017
0.033668919
0.43978957
0.43922136
0.033628229
0.019625899
0.0080447602
0.0014782032
0.0014775899
0.0080358532
0.019602551
0.033587712
0.43864645
0.43803427
0.033545998
0.019577637
0.0080258774
0.0014768732
0.0014762343
0.0080165802
0.019553323
0.033503964
0.43741668
0.43675863
0.033461277
0.019527738
0.0080063139
0.0014754979
0.0014748301
0.0079964793
0.019501995
0.033416766
0.43608609
0.43536291
0.033371018
0.019474575
0.0079854993
0.0014740517
0.0014733279
0.0079748271
0.019446671
0.033322841
0.43462421
0.43383161
0.033272365
0.019416525
0.0079628091
0.0014724791
0.001471677
0.007951061
0.019385901
0.033219651
0.43302126
0.4321635
0.033163727
0.019352583
0.0079378213
0.0014707415
0.0014698568
0.0079250453
0.019319486
0.0331071
0.43129633
0.43039096
0.033047412
0.0192839
0.0079108924
0.0014688468
0.0014678859
0.0078972033
0.019248545
0.032987079
0.42947747
0.42852347
0.032923621
0.019210731
0.0078821782
0.0014668018
0.0014657621
0.0078675924
0.019173098
0.032859488
0.42756098
0.42655695
0.032792525
0.019133168
0.0078517343
0.0014645979
0.0014634789
0.0078364788
0.019093941
0.032726016
0.42554115
0.42446879
0.032660729
0.019054384
0.0078205947
0.0014622555
0.0014611009
0.0078059795
0.019017506
0.032600032
0.42334462
0.42204524
0.032550384
0.018984798
0.0077921195
0.0014598713
0.0014587691
0.0077814758
0.018961154
0.032519473
0.42046374
0.4183072
0.032496409
0.018938069
0.0077692991
0.0014571612
0.0014540929
0.0077423589
0.018878624
0.032415496
0.4150058
0.40988238
0.032121545
0.018693573
0.0076621524
0.0014444089
0.001424876
0.0074506156
0.018161636
0.03124109
0.40091538
0.39454709
0.030248968
0.017641836
0.0072529467
0.0013810158
0.0013864478
0.0072316339
0.017617579
0.030242999
0.39393607
0.40135868
0.031281982
0.018190134
0.0074603429
0.0014248643
0.001444131
0.0076598665
0.018686063
0.032107156
0.40989906
0.41503598
0.032405258
0.01887207
0.0077394538
0.001453668
0.0014569779
0.0077684027
0.018935469
0.032491569
0.41831573
0.42044186
0.032515111
0.018958111
0.0077801547
0.0014585805
0.0014598039
0.0077918956
0.018983779
0.03254805
0.42202056
0.42330356
0.032595525
0.019014527
0.0078047736
0.0014609627
0.0014622113
0.007820325
0.019053175
0.032657915
0.42443893
0.42549325
0.032722246
0.019091274
0.0078353362
0.0014633537
0.0014645503
0.0078513167
0.01913175
0.032789677
0.4265108
0.42749009
0.032853848
0.019169341
0.00786603
0.0014656198
0.0014667454
0.0078814585
0.019208479
0.03291929
0.4284548
0.42939555
0.032980225
0.019244135
0.0078954245
0.0014677394
0.001468799
0.0079101868
0.019281668
0.033043054
0.43031584
0.43121055
0.033100543
0.01931523
0.0079233231
0.0014697214
0.0014707108
0.0079372289
0.019350572
0.033159627
0.43208332
0.43292962
0.0332139
0.019382081
0.0079495021
0.0014715613
0.001472474
0.0079623682
0.019414765
0.033268542
0.4337571
0.43455504
0.033318398
0.019443707
0.0079736562
0.0014732507
0.0014740975
0.007985752
0.01947458
0.033370163
0.43533032
0.43607325
0.033416499
0.019501214
0.0079960562
0.0014747948
0.0014755545
0.0080068948
0.019528767
0.033462545
0.43677886
0.43744628
0.033504026
0.019552591
0.0080161312
0.0014761785
0.0014768829
0.0080261873
0.01957813
0.033546651
0.43808624
0.43869321
0.033584747
0.019600121
0.0080347792
0.0014774644
0.0014781543
0.0080446229
0.019625113
0.033626434
0.43927766
0.43984277
0.033663765
0.019646751
0.0080531296
0.0014787371
0.001479453
0.0080632917
0.019672544
0.033706764
0.44040031
0.44095653
0.033747152
0.019695981
0.0080724615
0.0014800741
0.0014808197
0.0080835611
0.019723814
0.033792932
0.44150947
0.44202093
0.033840366
0.019750339
0.0080933665
0.0014814377
0.0014818883
0.0080999012
0.019766651
0.033868723
0.44247289
8.0865763
8.0915109
8.0865558
8.0914648
8.0721038
8.0751209
8.0681887
8.1089285
8.1151031
8.0751485
8.0703326
8.1128322
8.1150964
8.1132702
8.1007996
8.0784132
8.056972
8.0022545
8.0282941
7.9424166
8.051107
8.0270973
7.8989254
7.7507615
7.9850262
8.0535033
8.0996785
8.0459734
8.0792598
8.1029356
8.121818
8.0883883
8.0639252
7.9844087
8.0236685
7.9102881
8.0734354
8.0446428
8.0156414
7.9767498
8.0126078
7.8057865
7.7002402
7.6391055
7.9479277
7.9062085
7.8777098
7.9206844
7.6391103
7.6942956
7.5769687
7.5171751
7.4647401
7.5164509
7.795791
7.8350101
7.8350798
7.9594238
8.0123285
8.0083406
8.0013546
7.991977
0.39654574
0.029725889
0.017353218
0.0071409962
0.0013820698
0.0014126054
0.0073625951
0.017903659
0.030710152
0.4029783
0.40941349
0.031395939
0.018301884
0.0075219956
0.0014322622
0.0014419492
0.0076019164
0.01849402
0.03170722
0.41420335
0.41738573
0.03179562
0.018558684
0.0076317447
0.0014454191
0.0014470958
0.0076454409
0.018586259
0.03182584
0.41948865
0.42106878
0.031853198
0.018608677
0.0076561611
0.0014481859
0.0014494281
0.0076709609
0.018644453
0.031908004
0.42237407
0.42354365
0.031965318
0.018679667
0.0076852736
0.0014505496
0.0014517885
0.0077019885
0.018722148
0.032035724
0.42463533
0.42568264
0.032098214
0.018759222
0.0077167051
0.0014528693
0.0014540392
0.0077330637
0.018801212
0.032168868
0.42669679
0.42767563
0.032227749
0.018836071
0.0077469115
0.0014550369
0.0014561308
0.0077624448
0.018876041
0.032295186
0.4286338
0.42956608
0.032349923
0.018908439
0.007775339
0.0014570511
0.0014580774
0.0077900864
0.018946495
0.032414193
0.43046971
0.43134568
0.032465351
0.018976592
0.0078020179
0.0014589203
0.0014598649
0.0078155991
0.019011609
0.032524439
0.43219106
0.43300342
0.032570834
0.019038979
0.0078264994
0.0014606356
0.0014615206
0.0078393447
0.019072224
0.032627038
0.43379117
0.43454598
0.032670388
0.019097529
0.0078493499
0.0014622206
0.0014630295
0.0078610568
0.019127769
0.03272133
0.43526313
0.43595315
0.032761015
0.019150779
0.0078701399
0.0014636648
0.0014644146
0.0078809456
0.019178644
0.032807848
0.43660306
0.43722202
0.032843897
0.019199606
0.0078892781
0.0014650023
0.0014657235
0.007899655
0.019226342
0.03288884
0.4378233
0.4384028
0.03292274
0.019246247
0.0079076471
0.0014662912
0.0014670114
0.0079180736
0.019273109
0.032967898
0.43896896
0.43952568
0.033003196
0.019293674
0.0079262669
0.0014675832
0.0014683033
0.0079367411
0.019320358
0.033047441
0.44007641
0.44061992
0.03308743
0.019343472
0.0079457052
0.0014688947
0.0014695446
0.0079553965
0.019367848
0.033127811
0.44115732
0.44168055
0.03316806
0.019390073
0.0079637793
0.0014700626
0.0014693193
0.0079528319
0.019361525
0.03311874
0.44104446
0.4406324
0.033090133
0.019345229
0.007946318
0.0014688964
0.0014683222
0.0079372335
0.019321658
0.033049515
0.44013348
0.43959206
0.033007207
0.019296145
0.0079269454
0.0014676227
0.0014670284
0.0079182794
0.019273623
0.032968653
0.43906722
0.43851603
0.032929306
0.019249965
0.0079087667
0.0014663465
0.0014657635
0.0079003192
0.019227933
0.032891248
0.43797444
0.43737791
0.032850153
0.019203399
0.0078905371
0.0014650694
0.0014644641
0.0078817252
0.019180313
0.032810182
0.43675556
0.43610692
0.032768411
0.019155369
0.0078717854
0.0014637542
0.001463117
0.0078625215
0.019131037
0.032726157
0.43542237
0.43468435
0.032679482
0.019103222
0.0078514724
0.0014623432
0.0014616278
0.0078408966
0.019075721
0.032632239
0.4339217
0.43311589
0.032581147
0.0190452
0.0078287618
0.0014607789
0.001459989
0.0078172464
0.019015315
0.032529943
0.43229751
0.43143716
0.032476074
0.018982995
0.0078043473
0.0014590756
0.0014582185
0.0077919787
0.018950981
0.032421296
0.43058937
0.42966819
0.032361024
0.018915114
0.0077777847
0.0014572186
0.0014562711
0.0077641984
0.018880054
0.032301228
0.42872321
0.42774717
0.032236957
0.018841724
0.0077490042
0.00145519
0.0014541562
0.0077343488
0.018803973
0.032172727
0.42675428
0.42574472
0.032106604
0.018764274
0.0077185242
0.0014530054
0.0014518998
0.0077031961
0.018724872
0.032039813
0.42470095
0.42359454
0.031971415
0.018683509
0.0076866741
0.0014506688
0.0014495225
0.007671777
0.018646241
0.031910687
0.42242986
0.42111893
0.031859979
0.018612614
0.0076574973
0.0014483083
0.0014472056
0.0076462555
0.018588224
0.031829023
0.41954703
0.41742346
0.031803175
0.018562862
0.0076331007
0.001445586
0.0014421391
0.0076030272
0.018497627
0.031714566
0.4141998
0.40918667
0.031409867
0.018307009
0.0075226925
0.0014325956
0.0014128307
0.0073627273
0.017910688
0.030733422
0.40231922
0.39450242
0.029709597
0.017321518
0.0071232644
0.0013817212
0.0013339048
0.0066807376
0.016224198
0.027884142
0.37983475
0.39640967
0.031809575
0.018448597
0.0075119938
0.0014134068
0.0013856533
0.0072773091
0.017692237
0.030325598
0.39626113
0.40079259
0.031200324
0.018138825
0.007442591
0.0014267139
0.001444691
0.0076550208
0.018674129
0.032085472
0.40959713
0.41456965
0.032370708
0.018851256
0.0077314722
0.0014540095
0.0014571124
0.0077623674
0.018920734
0.032467905
0.41792386
0.42010473
0.032490907
0.018943217
0.0077742083
0.0014586052
0.0014597947
0.0077873265
0.018972835
0.03253088
0.42173593
0.4230579
0.032579109
0.019004097
0.0078004939
0.00146091
0.0014621441
0.0078166534
0.019044376
0.032644136
0.42421513
0.42528761
0.032708241
0.019082443
0.0078317628
0.0014632653
0.0014644676
0.0078483451
0.019124627
0.032778601
0.42632941
0.42734181
0.032841188
0.019161587
0.007862998
0.0014655243
0.0014666759
0.007879317
0.019203459
0.032911649
0.42832149
0.42927307
0.032970775
0.019238273
0.007893096
0.0014676539
0.0014687268
0.007908384
0.019277497
0.033036819
0.43020395
0.43111826
0.033091792
0.019309832
0.00792121
0.0014696318
0.0014706413
0.0079357422
0.019347266
0.033154952
0.43199874
0.43285063
0.033205565
0.019377016
0.0079475552
0.0014714711
0.0014724095
0.0079611602
0.019412117
0.033264854
0.4336796
0.43447932
0.03331148
0.01943944
0.0079719966
0.0014731648
0.0014740332
0.0079846773
0.019472297
0.033367126
0.43524941
0.43598097
0.033409812
0.019497151
0.0079944923
0.0014747136
0.0014755057
0.0080060041
0.019526937
0.033460229
0.43667973
0.43734248
0.033498619
0.019549289
0.008014867
0.0014761239
0.0014768716
0.0080256873
0.019577254
0.033545784
0.43797249
0.43858429
0.033582463
0.019598425
0.0080340516
0.0014774547
0.0014781677
0.0080443266
0.01962489
0.033627005
0.4391813
0.43975359
0.033661271
0.019644893
0.0080523194
0.0014787304
0.0014794486
0.0080626923
0.019671509
0.033705897
0.44030234
0.44083078
0.033742497
0.019692879
0.0080711683
0.001480032
0.0014807745
0.0080819967
0.019719852
0.033786111
0.44132841
0.44178032
0.033836851
0.019749041
0.0080931883
0.0014814366
0.0014818936
0.0081027851
0.019766462
0.03386071
0.44219176
0.0014692569
0.0079515382
0.019358362
0.033113434
0.44099641
0.44058866
0.033083819
0.019341199
0.007944655
0.0014688027
0.0014682095
0.0079355374
0.019317401
0.033042649
0.44009613
0.43957906
0.03300387
0.019294097
0.0079261673
0.0014675449
0.0014669977
0.0079182175
0.019273439
0.032968308
0.43908364
0.4385526
0.032931295
0.019251202
0.0079092749
0.0014663625
0.0014658275
0.0079014152
0.019230685
0.03289581
0.43801298
0.43741254
0.032855117
0.019206591
0.0078918773
0.0014651647
0.001464589
0.0078832712
0.01918426
0.032816761
0.43678559
0.43610501
0.032770471
0.019156635
0.0078722742
0.0014638439
0.0014631656
0.0078623867
0.01913093
0.032726514
0.43539625
0.43465147
0.03267631
0.01910123
0.007850692
0.0014623391
0.001461612
0.0078404096
0.019074498
0.032630463
0.43389221
0.43308793
0.032580072
0.019044453
0.0078284416
0.0014607643
0.001459981
0.0078170852
0.019015068
0.032529817
0.43229171
0.43144766
0.032475928
0.018982828
0.0078042493
0.0014590731
0.001458219
0.007791875
0.018950784
0.032421051
0.43057497
0.42964538
0.032359393
0.01891425
0.0077774782
0.0014572126
0.0014562591
0.0077637539
0.018878886
0.032299224
0.42868375
0.42769957
0.032233329
0.018839711
0.0077482691
0.0014551653
0.0014541282
0.0077335785
0.018802029
0.032169528
0.42670296
0.42568479
0.032101841
0.018761571
0.0077175043
0.0014529691
0.0014518644
0.0077021592
0.018722297
0.032035601
0.4246338
0.42353236
0.031966786
0.018680746
0.0076855714
0.0014506365
0.0014494989
0.0076707061
0.018643642
0.031906506
0.42236116
0.42105977
0.031856083
0.0186102
0.0076564919
0.001448299
0.001447209
0.0076452632
0.018585804
0.031825071
0.41947714
0.41735634
0.031798166
0.01855988
0.0076318956
0.0014455937
0.0014421607
0.0076019979
0.018495003
0.031710081
0.41415283
0.40919751
0.031408379
0.018306291
0.0075224668
0.0014326646
0.0014130227
0.0073642474
0.017914291
0.030739159
0.40246544
0.39482013
0.029728917
0.01733222
0.0071275781
0.0013822396
0.0013355115
0.0067175087
0.016316562
0.02803072
0.38126476
0.42229254
0.025187759
0.014657815
0.0060616178
0.0012992736
0.001380256
0.0071062678
0.017292705
0.029618176
0.38920976
0.39445358
0.029791842
0.01740272
0.0071495181
0.0013789074
0.0013807169
0.0071357468
0.01734137
0.029710036
0.3963182
0.40299257
0.030712657
0.017905303
0.0073636561
0.0014122508
0.0014320873
0.0075230846
0.018305446
0.031402494
0.40946579
0.41432082