/*--------------------------------*- C++ -*----------------------------------*\
  =========                 |
  \\      /  F ield         | OpenFOAM: The Open Source CFD Toolbox
   \\    /   O peration     | Website:  https://openfoam.org
    \\  /    A nd           | Version:  7
     \\/     M anipulation  |
\*---------------------------------------------------------------------------*/
FoamFile
{
    version     2.0;
    format      ascii;
    class       volScalarField;
    location    "220";
    object      nut;
}
// * * * * * * * * * * * * * * * * * * * * * * * * * * * * * * * * * * * * * //

dimensions      [0 2 -1 0 0 0 0];

internalField   nonuniform List<scalar> 
25201
(
6.8221939
6.8255292
6.8222104
6.8255576
6.7984738
6.8161265
6.8098675
6.8422179
6.8484383
6.837715
6.848413
6.8161059
6.8080979
6.4863773
6.3920625
6.7624042
6.7115751
6.6636192
6.6463038
6.4739603
6.5982673
6.5936261
6.6447127
6.56384
6.5603463
6.4384393
6.5087042
6.6527526
6.6047035
6.4485176
6.4900625
6.5438055
6.229892
6.2977299
6.3815695
6.3898869
6.5348589
6.479096
6.307885
6.2389153
6.4352122
6.4104267
6.4240572
6.1930669
6.2030666
6.2323271
6.4182706
6.6401691
6.7803326
6.8080838
6.8429645
6.8199974
6.7473278
6.7910998
6.8244254
6.8026856
6.7838811
6.738546
6.7634251
6.6136759
6.6306449
6.6974649
6.7203762
6.7594863
6.7825119
6.8435719
6.8122611
6.6898866
6.650932
6.5074383
6.4654059
6.5073196
6.6839915
6.7153913
6.6741364
6.3585885
6.4023878
6.4653426
6.4889389
6.539093
6.6046127
6.6521726
6.5830514
6.5879036
6.5320158
6.5943994
6.507009
6.4841681
6.3979768
6.4455342
6.3763283
6.334301
6.3313283
6.3439487
6.3388711
6.3953152
6.3993575
6.3439393
6.2362495
6.3093023
6.3072236
6.2395891
6.2471262
6.3156842
6.3141179
6.2592326
6.1255638
6.2093721
6.2540599
6.252225
6.202299
6.2035743
6.114307
6.1096075
5.9642599
6.0737536
6.073221
5.9702794
5.9783482
6.1200463
6.2093446
6.0850434
6.0865033
5.9863078
5.8260452
5.9589781
6.0518044
6.2550582
6.4471734
6.3101498
6.2413423
6.2056902
6.2339129
6.266383
6.3367376
6.4112458
6.508129
6.5843403
6.6978974
6.7842095
6.8027538
6.7204173
6.6138294
6.6310416
6.7391005
6.7635666
6.7911414
6.8244293
6.8429366
6.843571
6.7825034
6.7594338
6.6510349
6.6898775
6.8122619
6.771409
6.8200004
6.7804046
6.6846721
6.7156102
6.4656749
6.5078901
6.594899
6.6059238
6.6533264
6.5405292
6.4904462
6.4659757
6.3650916
6.4269907
6.5324905
6.5883453
6.4858702
6.5494614
6.5920998
6.5094039
6.4855699
6.4706774
6.2867926
6.3023274
6.124302
6.1826929
6.2097509
6.1237802
6.1131386
6.0183109
6.1016713
6.101539
5.9986359
5.8390582
5.9744332
6.0797345
6.2872206
6.471531
6.3352165
6.3779965
6.4002642
5.9806434
6.0870429
6.2115052
6.3179323
6.3157304
6.260962
6.3331495
6.3463918
6.2494427
6.1224066
6.1271699
6.2107617
6.0876668
5.9877634
5.8271554
5.9597531
5.9550704
5.9435029
6.0402189
6.8254929
6.8220742
6.7747846
6.6528841
6.6047153
6.4240751
6.2978062
6.4901347
6.4485922
6.4352446
6.4104226
6.2030295
6.1930371
6.2298054
6.2389091
6.3079246
6.4791379
6.5349578
6.5439593
6.3816387
6.38997
6.484333
6.5938452
6.7117397
0.0011814419
0.006149483
0.014983169
0.025725842
0.33510425
0.34140902
0.02661819
0.015477144
0.0063473884
0.0012134398
0.0012301539
0.0065209114
0.015908517
0.027336321
0.34886167
0.35329993
0.027588312
0.016066321
0.0065887773
0.0012380977
0.0012409839
0.0066146266
0.016123607
0.02766782
0.35616218
0.35802421
0.02768727
0.016142902
0.0066248664
0.0012423435
0.0012434468
0.0066359262
0.016167759
0.027720727
0.35940126
0.36052536
0.027761253
0.016194178
0.0066471164
0.0012444532
0.0012455594
0.0066610617
0.01622909
0.027817995
0.36151847
0.36244638
0.027871749
0.01626119
0.0066738764
0.001246549
0.0012476142
0.0066883005
0.016298086
0.027933642
0.36333194
0.36419397
0.027986825
0.016329481
0.0067007485
0.0012485322
0.0012495254
0.0067145951
0.016365074
0.028046889
0.36503215
0.36584751
0.028096646
0.016394374
0.0067262075
0.0012503646
0.0012512853
0.0067392056
0.016427784
0.028152997
0.36663493
0.36740011
0.02819913
0.016454937
0.006749981
0.0012520548
0.0012529119
0.0067621912
0.016486345
0.028252062
0.36814149
0.36886554
0.028295285
0.016511669
0.006772206
0.0012536194
0.0012544128
0.0067835674
0.016540934
0.028344634
0.36956301
0.37023528
0.0283847
0.016564225
0.0067927307
0.0012550567
0.0012557844
0.0068031024
0.016590875
0.028429499
0.37087586
0.37148716
0.028465638
0.016611912
0.006811411
0.0012563679
0.0012570413
0.0068211026
0.016636838
0.02850753
0.37207816
0.37264664
0.028540693
0.016656058
0.0068286906
0.0012575683
0.0012581919
0.0068377598
0.016679438
0.028580028
0.37318958
0.37370978
0.028610757
0.016697195
0.0068447675
0.0012586718
0.0012592583
0.0068533607
0.016719377
0.028648098
0.37420264
0.37467018
0.028677732
0.016736402
0.0068600421
0.0012597153
0.0012602899
0.0068683237
0.01675768
0.028713294
0.37511507
0.3755404
0.028745288
0.016775861
0.0068752498
0.001260747
0.0012612344
0.0068825954
0.016794109
0.028775223
0.37594286
0.376287
0.028804407
0.016810143
0.0068886818
0.0012616263
0.42219691
0.026001471
0.015315142
0.0063396735
0.0012083452
0.0012080321
0.0063348176
0.015302557
0.025978945
0.42181213
0.42132977
0.025948359
0.015284598
0.0063276778
0.0012075863
0.0012071368
0.0063204755
0.015265726
0.025916197
0.42080806
0.42026757
0.025882977
0.015245801
0.0063125764
0.0012065905
0.0012061272
0.0063057312
0.015227971
0.02585257
0.41972514
0.41916023
0.0258199
0.015208374
0.0062979134
0.0012055832
0.0012051057
0.0062909286
0.015190243
0.025789089
0.41857416
0.41796191
0.025755419
0.015170058
0.0062828898
0.0012045363
0.0012040286
0.0062756279
0.015151211
0.025723388
0.41732871
0.41666179
0.025688375
0.015130236
0.006267273
0.0012034283
0.001202876
0.0062593544
0.015109699
0.025653467
0.4159564
0.41521001
0.025614543
0.015086388
0.0062500946
0.0012022188
0.0012016057
0.0062412731
0.015063562
0.025575872
0.41443582
0.41362272
0.025533554
0.015038195
0.0062311983
0.0012008902
0.0012002164
0.0062215186
0.015013166
0.025491152
0.41278716
0.41195706
0.02544826
0.014987159
0.0062110817
0.001199463
0.0011987421
0.0062007805
0.014960496
0.025402989
0.41108182
0.41017394
0.025355069
0.014931685
0.0061893197
0.0011979204
0.0011971246
0.0061780353
0.014902517
0.025305642
0.40921977
0.40823925
0.025252916
0.014870881
0.0061654908
0.0011962201
0.0011953445
0.0061533846
0.014839807
0.025200667
0.40724099
0.40621229
0.025145992
0.01480682
0.0061402517
0.0011943688
0.0011934283
0.0061278726
0.014775376
0.025093861
0.40515196
0.40402297
0.025043692
0.01474411
0.0061151422
0.0011924104
0.0011914446
0.0061042304
0.014717782
0.0250033
0.40277105
0.40130604
0.024975628
0.014696278
0.0060942329
0.0011904082
0.001189063
0.0060841252
0.01467607
0.024953495
0.39936192
0.3964552
0.024885158
0.014625165
0.0060602499
0.0011861829
0.0011789536
0.0059996823
0.014482843
0.024660941
0.39194025
0.38529443
0.024134017
0.014167208
0.0058694425
0.0011636095
0.0011411502
0.0056669644
0.013684803
0.023318816
0.37760402
0.3551633
0.020997167
0.012192321
0.0050448666
0.0010979029
0.0011394079
0.0056768578
0.013709605
0.023352714
0.37818432
0.3858889
0.024158394
0.014183223
0.0058760248
0.0011625876
0.001178489
0.006006462
0.014499157
0.024686108
0.39240573
0.39678658
0.024901212
0.014635668
0.0060648427
0.001185869
0.0011888798
0.0060878977
0.014685242
0.024967952
0.39963407
0.40152583
0.024983536
0.014701481
0.0060965982
0.001190259
0.0011913486
0.0061064613
0.014723473
0.025012664
0.40296774
0.40417355
0.025048338
0.014746863
0.0061163501
0.0011923074
0.0011933396
0.006128821
0.014778005
0.02509849
0.40526855
0.40629933
0.025146112
0.014806755
0.0061403274
0.0011942601
0.0011952471
0.0061534302
0.014840218
0.025201759
0.40729167
0.40826098
0.025249578
0.014868744
0.006164763
0.0011961006
0.0011970214
0.0061774312
0.0149012
0.025303768
0.40920933
0.41013934
0.025349118
0.014928196
0.0061881522
0.0011978066
0.0011986645
0.0062001916
0.014959092
0.02540076
0.41104608
0.41192974
0.025443108
0.014984258
0.0062101831
0.0011993852
0.0012001823
0.0062214952
0.015013314
0.02549169
0.41278837
0.41362133
0.025530874
0.015036561
0.0062307252
0.0012008416
0.0012015816
0.0062413146
0.015063812
0.025576464
0.41442854
0.41520807
0.025612643
0.015085201
0.006249791
0.0012021814
0.001202861
0.0062595937
0.015110473
0.025654926
0.41595501
0.41666826
0.025688187
0.015129927
0.0062672619
0.0012033975
0.0012040116
0.0062760702
0.015152566
0.025725947
0.41735103
0.41799653
0.025755277
0.015169813
0.0062829218
0.0012044991
0.0012050867
0.0062913843
0.015191653
0.025791791
0.41861988
0.41922232
0.025819943
0.015208201
0.0062979596
0.0012055483
0.0012061154
0.0063061736
0.015229319
0.025855174
0.41980268
0.42036655
0.025883271
0.015245734
0.0063126731
0.0012065735
0.0012071544
0.0063209277
0.015266819
0.025918161
0.42091587
0.42145167
0.025948438
0.015284914
0.0063281858
0.0012076385
0.0012082154
0.0063371653
0.015307283
0.025984941
0.42195411
0.42243691
0.026018784
0.015326866
0.0063445829
0.0012086886
0.0012090603
0.0063498886
0.015340381
0.026042476
0.4229138
0.0012524541
0.0067862289
0.016523066
0.028263875
0.37644277
0.37600339
0.028233722
0.01650661
0.0067799967
0.0012520516
0.0012515298
0.006771603
0.016484844
0.028196172
0.37553198
0.37505192
0.028158785
0.016462503
0.0067626588
0.0012509321
0.0012504089
0.006754736
0.016442112
0.028124165
0.37457762
0.37409382
0.028088071
0.01642057
0.0067461374
0.0012497967
0.0012492778
0.0067386738
0.01640126
0.028055041
0.37360551
0.37309536
0.028019523
0.016380106
0.0067302247
0.0012486748
0.001248148
0.0067226367
0.016360374
0.027985637
0.37256959
0.37205045
0.027951344
0.016339777
0.0067143507
0.0012475456
0.0012470046
0.0067064965
0.016319223
0.027915829
0.37148586
0.37088955
0.02787696
0.016296143
0.0066973394
0.0012463573
0.0012457663
0.0066887278
0.01627375
0.027838549
0.37026753
0.36960777
0.027795958
0.016248484
0.0066787228
0.001245061
0.001244407
0.0066692637
0.01622397
0.027754071
0.3689357
0.36823682
0.027708883
0.016197068
0.0066585769
0.001243646
0.0012429313
0.0066483257
0.016170544
0.027663605
0.36751623
0.36676431
0.027614624
0.016141414
0.0066367743
0.001242105
0.0012413229
0.0066256957
0.016112837
0.027565978
0.36600009
0.36520377
0.027513645
0.016081705
0.0066133535
0.0012404304
0.0012395785
0.006601494
0.016051167
0.02746174
0.36439736
0.36356038
0.027406326
0.016018191
0.0065884257
0.0012386164
0.0012376913
0.006575908
0.01598603
0.027351805
0.36271706
0.36184416
0.027295144
0.015952133
0.0065624274
0.0012366614
0.0012356714
0.006549785
0.015919899
0.027241138
0.36094191
0.35997474
0.027190154
0.015888328
0.0065369429
0.0012345995
0.0012335956
0.0065263319
0.015862821
0.027151156
0.35889291
0.3575996
0.027127856
0.015843586
0.0065171469
0.0012325268
0.0012311205
0.0065081009
0.015826473
0.027112015
0.35584724
0.35314388
0.027039374
0.015772792
0.0064832493
0.0012278828
0.0012194526
0.0064190043
0.015619046
0.026791423
0.34901035
0.34311924
0.026197783
0.015272149
0.0062794634
0.0012011889
0.0011722782
0.0060849878
0.014787806
0.025336581
0.33674118
0.33624984
0.025778051
0.015034524
0.0061816238
0.0011777992
0.0012134158
0.0063367244
0.015446673
0.026573908
0.34110465
0.34893652
0.027344637
0.015914235
0.0065233617
0.0012300197
0.0012381536
0.0065905045
0.016070084
0.027593813
0.35327433
0.35615193
0.027667071
0.01612336
0.00661474
0.0012408818
0.0012423243
0.0066258966
0.016145453
0.027690838
0.35800652
0.35938496
0.027717028
0.016165532
0.0066351716
0.0012433157
0.0012444244
0.0066476673
0.016195622
0.027763084
0.36050579
0.36149114
0.027812939
0.016226078
0.006659998
0.0012454321
0.0012465287
0.0066743051
0.016262419
0.027873291
0.36241291
0.36329218
0.027928038
0.016294636
0.0066870278
0.0012474862
0.0012485088
0.0067009338
0.016330151
0.027987522
0.36414252
0.364972
0.028039884
0.016360804
0.0067130161
0.0012493903
0.0012503403
0.0067262333
0.016394645
0.028096705
0.36578332
0.36656538
0.028144963
0.016422972
0.0067374411
0.0012511479
0.001252037
0.0067499784
0.016455116
0.028198987
0.36732928
0.36806587
0.02824411
0.016481572
0.006760442
0.0012527814
0.0012536104
0.0067722476
0.016511874
0.028295039
0.36878926
0.36948644
0.028337522
0.016536585
0.0067819718
0.0012542935
0.0012550603
0.0067929271
0.016564705
0.028384719
0.37016467
0.37081413
0.028423606
0.016587327
0.0068018391
0.0012556837
0.0012563984
0.0068121174
0.01661384
0.0284683
0.371442
0.3720363
0.028504278
0.016634583
0.006820254
0.0012569665
0.0012576274
0.0068296574
0.01665876
0.028544879
0.37260303
0.37313763
0.02857759
0.016677613
0.006837086
0.0012581539
0.0012587871
0.006846013
0.016700522
0.028616008
0.37365179
0.37414983
0.028646694
0.016718355
0.0068531138
0.0012592945
0.0012599208
0.0068620783
0.016741415
0.028685454
0.37464398
0.37513056
0.028716394
0.016759322
0.0068691658
0.001260414
0.0012610193
0.0068780824
0.016782245
0.028754791
0.37561523
0.3760781
0.028788772
0.016801566
0.006885458
0.0012614921
0.0012620045
0.006893195
0.016820905
0.028820735
0.37651707
0.37689853
0.028852154
0.016838218
0.0068997774
0.0012624154
0.0012524158
0.0067857201
0.016521648
0.028261265
0.37641355
0.37601794
0.028233467
0.016506269
0.0067797936
0.00125202
0.0012515048
0.0067715551
0.016484888
0.028196485
0.37555998
0.37508877
0.028159398
0.01646273
0.0067626869
0.0012509131
0.0012503943
0.0067547874
0.016442336
0.028124633
0.37460361
0.37411417
0.028087638
0.016420302
0.0067460307
0.0012497788
0.0012492626
0.0067385598
0.016401005
0.028054639
0.37361495
0.37310566
0.028018602
0.016379552
0.0067300126
0.0012486585
0.0012481414
0.0067225657
0.016360288
0.027985659
0.37258182
0.37203864
0.027948773
0.016338386
0.0067138728
0.0012475235
0.0012469835
0.0067061042
0.016318241
0.027914258
0.37147056
0.37087837
0.027875227
0.016295085
0.0066969265
0.0012463353
0.0012457501
0.006688458
0.016273134
0.027837646
0.37025782
0.3696097
0.027795649
0.016248171
0.0066785613
0.0012450507
0.0012444063
0.0066692794
0.016224132
0.027754534
0.3689442
0.36826341
0.027710393
0.016197765
0.0066587834
0.0012436568
0.0012429544
0.0066487105
0.016171665
0.027665707
0.3675448
0.36680042
0.027617036
0.016142682
0.0066372211
0.0012421346
0.0012413614
0.0066262773
0.016114415
0.027568801
0.36603657
0.36525335
0.02751759
0.016083839
0.0066141248
0.001240481
0.0012396365
0.0066023299
0.016053356
0.027465507
0.36444053
0.36360288
0.027410593
0.016020573
0.0065893185
0.0012386796
0.0012377582
0.0065768162
0.015988371
0.027355773
0.36275876
0.36187689
0.027298413
0.01595405
0.0065631905
0.0012367236
0.0012357297
0.0065504596
0.015921568
0.027243871
0.36096356
0.35998651
0.027191868
0.01588939
0.0065373977
0.0012346464
0.0012336398
0.0065268106
0.015864016
0.027153173
0.35891022
0.3576128
0.027128843
0.015844206
0.0065174235
0.0012325574
0.0012311422
0.0065085071
0.015827442
0.027113561
0.35586728
0.35317969
0.02704094
0.015773772
0.0064836417
0.0012278907
0.0012193765
0.0064187381
0.015618577
0.026790549
0.34904509
0.34317942
0.026194432
0.015270629
0.0062788976
0.0012010656
0.0011715552
0.0060818295
0.014781479
0.025325321
0.33693284
0.37921929
0.023402012
0.013760163
0.0057055451
0.0011359106
0.0011624998
0.0058713988
0.014166967
0.024132483
0.38566023
0.39249693
0.024692083
0.014502774
0.0060078506
0.0011785423
0.0011861669
0.0060673688
0.014641597
0.024910613
0.39687439
0.39969752
0.024970525
0.01468653
0.006088455
0.0011889926
0.0011904236
0.0060981713
0.014705625
0.024990289
0.40156654
0.40299443
0.025012897
0.014723361
0.0061064617
0.0011913974
0.0011924409
0.0061177152
0.014750398
0.025053897
0.40420453
0.40529874
0.025098484
0.014778006
0.0061289488
0.0011933863
0.0011944106
0.0061421824
0.014811571
0.025153754
0.40633888
0.40734466
0.025203897
0.014841365
0.006153954
0.0011953042
0.0011962517
0.0061667959
0.014874101
0.02525826
0.40832658
0.40928054
0.025306246
0.014902461
0.0061779737
0.00119707
0.001197945
0.0061901217
0.014933447
0.025357693
0.41020851
0.4111119
0.025402684
0.014959942
0.0062005449
0.0011986923
0.0011994992
0.006211883
0.014988868
0.025450681
0.41199129
0.41284389
0.02549215
0.015013253
0.0062214794
0.0012001803
0.0012009257
0.0062320587
0.015040284
0.025537026
0.41366729
0.41446133
0.025574954
0.015062536
0.0062408136
0.0012015432
0.0012022319
0.0062506417
0.01508772
0.025616884
0.41523469
0.41597112
0.025650548
0.015107608
0.006258533
0.0012027911
0.0012034378
0.0062678383
0.015131579
0.02569066
0.41668012
0.41735715
0.025721354
0.015149656
0.0062750206
0.0012039501
0.0012045633
0.0062837157
0.015172126
0.025759026
0.41800873
0.41863593
0.025787949
0.01518915
0.0062904835
0.0012050533
0.0012056472
0.0062989692
0.015211073
0.025824692
0.41924243
0.41982435
0.025852681
0.015227504
0.0063055042
0.0012061139
0.0012066891
0.0063137383
0.015248705
0.025888107
0.42038423
0.42091806
0.025916227
0.015265218
0.0063202615
0.0012071492
0.0012077032
0.0063286841
0.015286639
0.025951342
0.42142593
0.42188694
0.025982333
0.015304352
0.0063355312
0.0012081159
0.0012085439
0.0063415687
0.015318855
0.026005203
0.42231688
0.42272071
0.026033196
0.015334533
0.006347582
0.0012089521
0.37679124
0.028842439
0.016832824
0.0068977779
0.0012622971
0.0012618685
0.0068913636
0.016816297
0.028813086
0.37640348
0.37602924
0.028785307
0.016799565
0.0068845299
0.0012613912
0.0012609313
0.0068771183
0.01677994
0.028750935
0.37557781
0.37510431
0.028716181
0.016759258
0.0068689029
0.0012603581
0.001259851
0.0068614917
0.01673971
0.028682084
0.3746507
0.37416602
0.028647397
0.016719022
0.0068532111
0.0012592569
0.0012587345
0.0068456218
0.016699124
0.028612863
0.37367576
0.37315379
0.028577315
0.016677894
0.0068371216
0.0012581237
0.0012575792
0.0068291983
0.01665717
0.028541484
0.37262712
0.37206588
0.028505088
0.016635358
0.0068204453
0.0012569505
0.0012563812
0.0068120632
0.016613414
0.028467142
0.37149233
0.37087554
0.028428131
0.016590034
0.0068027011
0.0012557167
0.0012550982
0.0067935975
0.01656623
0.02838703
0.3702453
0.36956895
0.028343957
0.016540507
0.0067833423
0.001254372
0.0012536851
0.0067733128
0.016514363
0.028298954
0.3688772
0.36814476
0.028251194
0.016485911
0.0067620061
0.001252883
0.0012521231
0.0067510873
0.016457628
0.028202802
0.3674039
0.36663005
0.028151767
0.016427204
0.006738986
0.0012512545
0.001250426
0.0067272701
0.016396951
0.028100138
0.36584871
0.36503221
0.028045797
0.016364573
0.006714403
0.0012494899
0.001248589
0.0067018955
0.016332313
0.027990817
0.36420764
0.36334672
0.027933354
0.016298053
0.0066882861
0.0012475784
0.0012466021
0.0066751669
0.016264334
0.027876178
0.36247449
0.36155267
0.027819944
0.016230276
0.0066614871
0.0012455319
0.0012445122
0.0066488447
0.016198393
0.027767436
0.3605844
0.35946524
0.027724232
0.016169998
0.0066368188
0.0012434233
0.0012424212
0.0066274181
0.016149047
0.027696515
0.35810029
0.35624673
0.027675643
0.016128668
0.0066167514
0.0012409962
0.0012382422
0.0065930707
0.016076252
0.027603673
0.35339812
0.34903121
0.027353478
0.01591878
0.0065248445
0.0012300194
0.0012129499
0.0063424058
0.015459839
0.026593052
0.34127173
0.33607953
0.025774496
0.015033329
0.0061811112
0.001176982
0.0011814065
0.0061618
0.015009776
0.025764424
0.33550841
0.34165758
0.026628855
0.015484675
0.0063509196
0.0012129919
0.0012297573
0.0065227722
0.015912075
0.027340674
0.34903867
0.35341869
0.027594527
0.016070424
0.006590499
0.0012378625
0.0012408237
0.0066159006
0.016126239
0.027671152
0.35624959
0.35807796
0.027692493
0.016146276
0.0066262193
0.0012422466
0.0012433549
0.0066365688
0.016168985
0.027721995
0.35944123
0.36054693
0.027763391
0.016195734
0.0066477676
0.0012443851
0.0012454866
0.0066612157
0.016229145
0.027817373
0.36152517
0.36243191
0.02787282
0.016261976
0.0066741579
0.0012464887
0.0012475324
0.0066879001
0.016296771
0.027930801
0.3633059
0.36414593
0.027985903
0.016329049
0.0067005383
0.0012484628
0.0012494376
0.0067137663
0.016362597
0.028042009
0.36497252
0.36577788
0.028094215
0.016393145
0.0067257345
0.0012502973
0.0012512104
0.0067383663
0.016425257
0.028147975
0.36656509
0.36732994
0.028197146
0.016453962
0.0067496031
0.0012520046
0.001252854
0.0067614855
0.016484159
0.028247633
0.36807562
0.36879835
0.028293995
0.016511074
0.0067719701
0.0012535837
0.0012543651
0.0067829523
0.016538971
0.028340639
0.3695047
0.37018561
0.028383187
0.01656367
0.0067925854
0.0012550297
0.001255753
0.0068029013
0.016590001
0.02842734
0.370847
0.37148063
0.028466855
0.016612713
0.0068116876
0.0012563483
0.0012569961
0.0068209254
0.016636198
0.028506106
0.37208235
0.37265159
0.028541478
0.016656512
0.0068288012
0.0012575288
0.0012581295
0.0068373716
0.01667828
0.02857781
0.37319733
0.37371489
0.028610283
0.016697022
0.0068446936
0.0012586251
0.0012592129
0.0068530809
0.016718318
0.028645809
0.3742133
0.37469537
0.028677636
0.016736764
0.006860332
0.00125971
0.001260322
0.0068690003
0.016758765
0.028714319
0.37517125
0.37564543
0.028748757
0.016778747
0.0068768158
0.0012608516
0.0012614795
0.0068862377
0.016802392
0.028787668
0.37611617
0.37655397
0.028828225
0.01682508
0.0068946325
0.0012620139
0.0012624069
0.0069002469
0.016839088
0.028852572
0.37694147
6.8887562
6.8930202
6.8887394
6.8929827
6.8765408
6.8790769
6.8731636
6.9078778
6.9131513
6.8791002
6.875032
6.9113114
6.9131457
6.9116588
6.9010865
6.881969
6.8636319
6.8170369
6.8393391
6.7661729
6.8587319
6.8381843
6.7290407
6.6028239
6.8023415
6.8606959
6.9000968
6.8544094
6.8827562
6.9029925
6.9190441
6.8906737
6.8697293
6.8020327
6.8355648
6.7390085
6.8778893
6.8533608
6.8285662
6.7953978
6.8259422
6.6497897
6.5598729
6.5076994
6.7707297
6.7351796
6.7107811
6.7474166
6.5075306
6.5546312
6.4546703
6.4036355
6.3588748
6.4030999
6.6409389
6.6744243
6.6744839
6.7804829
6.8254872
6.8220613
6.8161893
6.8082173
0.33762112
0.025307759
0.014773394
0.0060789588
0.0011764712
0.0012025367
0.0062678322
0.015241833
0.026144612
0.34306974
0.34864138
0.026735925
0.015585361
0.0064054886
0.0012196596
0.0012279608
0.0064737845
0.015749492
0.027001826
0.35273154
0.35547361
0.027079689
0.015806079
0.0064998172
0.0012310369
0.001232512
0.0065117289
0.015830162
0.027106447
0.35727882
0.35864031
0.027130937
0.015849951
0.0065211471
0.0012334953
0.0012345882
0.0065339374
0.015880873
0.027178388
0.35976285
0.36076858
0.027227907
0.015911277
0.0065462972
0.0012355754
0.0012366551
0.0065606644
0.015947778
0.02728842
0.36170596
0.36260433
0.027342109
0.015979626
0.0065733104
0.0012375965
0.0012386097
0.0065873343
0.016015613
0.027402668
0.36347337
0.36431143
0.027453136
0.016045488
0.0065992046
0.0012394734
0.0012404164
0.0066124971
0.016079685
0.027510837
0.36513119
0.36592827
0.027557674
0.016107406
0.006623531
0.0012412096
0.001242091
0.006636133
0.016139921
0.027612593
0.36670045
0.36744862
0.02765631
0.01616564
0.0066463293
0.0012428149
0.0012436239
0.0066579231
0.016195531
0.027706752
0.36817038
0.36886368
0.027746359
0.016218895
0.0066672279
0.0012442838
0.0012450399
0.0066781836
0.01624725
0.0277943
0.36953578
0.3701796
0.027831276
0.016268833
0.0066867166
0.0012456378
0.0012463277
0.0066966952
0.01629461
0.027874703
0.37079117
0.37137951
0.027908534
0.016314224
0.006704437
0.0012468694
0.0012475083
0.0067136441
0.016337969
0.027948446
0.37193361
0.37246131
0.02797917
0.016355832
0.0067207444
0.0012480092
0.0012486235
0.0067295851
0.016378613
0.028017466
0.37297396
0.37346812
0.028046363
0.016395578
0.0067363965
0.0012491075
0.0012497214
0.0067452816
0.01641847
0.02808485
0.37395099
0.37442596
0.028114951
0.016436006
0.0067522676
0.0012502095
0.0012508243
0.0067611976
0.016458756
0.028152678
0.37489593
0.37535984
0.028186786
0.016478468
0.0067688422
0.0012513294
0.0012518861
0.0067771149
0.016499276
0.028221262
0.37581905
0.37626694
0.028255712
0.016518301
0.0067842931
0.0012523342
0.001251694
0.0067749327
0.016493912
0.028213588
0.37572332
0.37537043
0.028189102
0.016479964
0.0067693566
0.0012513287
0.0012508402
0.0067616192
0.016459881
0.028154485
0.37494486
0.3744839
0.028118496
0.016438188
0.0067528786
0.0012502495
0.0012497404
0.0067454811
0.016418963
0.028085582
0.37403593
0.37356573
0.02805204
0.016398797
0.0067373726
0.0012491587
0.0012486628
0.0067301776
0.016380027
0.028019612
0.37310396
0.37259542
0.027984597
0.016359125
0.0067218443
0.0012480716
0.0012475558
0.0067143353
0.01633945
0.02795053
0.37206478
0.3715118
0.027914931
0.016318193
0.0067058645
0.0012469505
0.0012464073
0.0066979688
0.016297453
0.027878912
0.37092811
0.37029862
0.027839106
0.016273733
0.0066885467
0.0012457464
0.0012451352
0.006679526
0.016250275
0.027798804
0.36964795
0.36896052
0.027755226
0.016224243
0.0066691759
0.0012444098
0.0012437338
0.0066593479
0.016198738
0.027711524
0.36826209
0.36752757
0.027665527
0.016171143
0.0066483339
0.001242951
0.0012422153
0.0066377662
0.016143793
0.027618727
0.36680342
0.36601633
0.027567217
0.016113142
0.0066256348
0.0012413561
0.0012405403
0.0066140135
0.016083157
0.027516074
0.3652085
0.3643736
0.027461077
0.01605036
0.0066010107
0.0012396082
0.0012387145
0.0065884556
0.016018028
0.027406063
0.36352368
0.36265866
0.02734937
0.015983996
0.0065748874
0.0012377176
0.0012367559
0.0065617242
0.015950173
0.02729203
0.36176347
0.36081376
0.027233242
0.015914633
0.0065475239
0.0012356833
0.0012346767
0.0065346744
0.015882498
0.027180846
0.3598126
0.35868568
0.027136913
0.015853422
0.0065223324
0.0012336085
0.0012326184
0.0065124901
0.015832
0.027109441
0.35733225
0.35551041
0.02708647
0.015809839
0.0065010549
0.0012311948
0.0012281566
0.0064749051
0.015752978
0.027008782
0.35273734
0.34845905
0.02674858
0.015590208
0.0064062955
0.0012199874
0.001202883
0.0062686891
0.015249485
0.02616713
0.34254022
0.33591125
0.025295981
0.014747769
0.0060645487
0.0011763253
0.0011365208
0.0056923361
0.013821431
0.023747848
0.32338515
0.33628062
0.026919631
0.015611238
0.0063561902
0.001195901
0.0011814257
0.0062043806
0.01508219
0.025849661
0.33764369
0.34120629
0.026561183
0.015442063
0.0063362334
0.001214642
0.0012304104
0.0065195683
0.015904171
0.027326094
0.34883053
0.35305348
0.02756755
0.01605413
0.0065842906
0.0012382649
0.0012410322
0.0066112554
0.016114889
0.027653045
0.35594213
0.3578104
0.027673396
0.016134481
0.0066215225
0.0012423374
0.0012434024
0.0066329697
0.016160373
0.027708579
0.35921434
0.3603498
0.027750352
0.016187404
0.0066443511
0.0012443835
0.0012454639
0.0066582716
0.016222094
0.027806394
0.36134423
0.36226446
0.027861498
0.016254811
0.0066712611
0.0012464411
0.0012474844
0.0066854886
0.016290994
0.027921861
0.36315769
0.36402475
0.027975524
0.016322682
0.0066980535
0.0012483999
0.0012493936
0.0067120233
0.016358517
0.028035835
0.36486322
0.36567703
0.02808644
0.016388313
0.0067238176
0.0012502371
0.0012511593
0.0067368864
0.01642184
0.028142895
0.36647271
0.36725376
0.028189883
0.016449476
0.0067478497
0.0012519369
0.001252802
0.0067602579
0.016481437
0.028243813
0.36800563
0.36873277
0.02828703
0.016506838
0.0067703441
0.0012535129
0.0012543151
0.0067819497
0.016536781
0.028337609
0.36944012
0.37012231
0.028377388
0.01656009
0.0067911936
0.0012549605
0.0012557015
0.006802004
0.016588102
0.028424832
0.37077909
0.3714029
0.028461226
0.016609292
0.0068103713
0.0012562821
0.0012569572
0.0068201811
0.016634675
0.028504196
0.37199867
0.37256371
0.028536917
0.016653725
0.006827734
0.0012574841
0.0012581211
0.0068369526
0.016677553
0.028577107
0.37310083
0.37362243
0.028608368
0.016695594
0.0068440799
0.0012586179
0.0012592253
0.0068528336
0.016718143
0.028646322
0.37413147
0.37461953
0.028675532
0.016735192
0.0068596456
0.001259705
0.0012603175
0.0068684861
0.016757878
0.028713572
0.37508765
0.37553856
0.028744786
0.0167761
0.0068757136
0.0012608156
0.0012614496
0.0068849468
0.016799101
0.028781984
0.3759634
0.37634992
0.028825309
0.016824022
0.0068945021
0.0012620173
0.0012624136
0.0069027163
0.016838959
0.028845798
0.37670252
0.001251647
0.0067738596
0.016491273
0.028209147
0.37568318
0.37533396
0.028183781
0.016476573
0.0067679638
0.001251254
0.0012507468
0.0067601859
0.016456273
0.028148657
0.37491335
0.37447229
0.028115598
0.016436406
0.0067521976
0.0012501794
0.0012497118
0.0067454164
0.016418785
0.028085262
0.37404945
0.37359651
0.028053711
0.016399832
0.0067377943
0.0012491699
0.0012487141
0.0067310975
0.016382348
0.028023469
0.37313641
0.37262453
0.027988793
0.016361817
0.0067229704
0.0012481492
0.0012476594
0.0067156401
0.016342793
0.027956111
0.37209011
0.37151077
0.027916751
0.016319314
0.0067063012
0.001247031
0.001246453
0.0066978749
0.016297402
0.027879273
0.37090664
0.37027112
0.027836441
0.016272063
0.0066878971
0.0012457462
0.0012451206
0.0066791057
0.016249222
0.027797275
0.36962278
0.36893677
0.027754322
0.016223613
0.0066689049
0.0012443977
0.0012437277
0.0066592148
0.016198539
0.027711436
0.36825737
0.36753681
0.027665426
0.016171014
0.0066482556
0.0012429498
0.001242217
0.0066376848
0.016143643
0.027618549
0.36679155
0.36599737
0.027565864
0.016112427
0.0066253827
0.0012413526
0.0012405322
0.0066136462
0.01608219
0.027514414
0.36517546
0.36433375
0.027458042
0.016048679
0.0066003985
0.0012395898
0.0012386937
0.0065878158
0.016016412
0.027403404
0.36348079
0.36260862
0.027345396
0.015981743
0.0065740393
0.0012376905
0.0012367306
0.0065608666
0.015948041
0.027288545
0.36170756
0.36076239
0.027229428
0.015912356
0.0065466168
0.001235662
0.001234664
0.0065338011
0.015880377
0.027177443
0.35975608
0.35863776
0.02713379
0.015851481
0.006521524
0.0012336096
0.0012326327
0.0065117046
0.015830083
0.027106321
0.35727588
0.35545717
0.027082506
0.015807476
0.0065001006
0.001231215
0.001228192
0.0064741192
0.015750968
0.027005351
0.35270236
0.34847445
0.026747794
0.015589874
0.0064062144
0.0012200671
0.0012030661
0.0062700971
0.015252853
0.02617256
0.34267287
0.33618664
0.025312822
0.014757108
0.0060683055
0.0011767833
0.0011379262
0.0057238974
0.013899921
0.023873052
0.32460966
0.35952165
0.021470879
0.012497356
0.0051683933
0.0011079231
0.0011719207
0.006032972
0.014684546
0.025158775
0.3307969
0.33500408
0.025262078
0.0147532
0.006061194
0.0011690278
0.0011752943
0.0060743697
0.014762949
0.025293559
0.33742053
0.34306783
0.026145823
0.015242702
0.0062685218
0.0012021938
0.0012194817
0.0064062643
0.015588033
0.026740898
0.34867884
0.35282535