/*--------------------------------*- C++ -*----------------------------------*\
  =========                 |
  \\      /  F ield         | OpenFOAM: The Open Source CFD Toolbox
   \\    /   O peration     | Website:  https://openfoam.org
    \\  /    A nd           | Version:  7
     \\/     M anipulation  |
\*---------------------------------------------------------------------------*/
FoamFile
{
    version     2.0;
    format      ascii;
    class       surfaceScalarField;
    location    "220";
    object      phi;
}
// * * * * * * * * * * * * * * * * * * * * * * * * * * * * * * * * * * * * * //

dimensions      [1 0 -1 0 0 0 0];

internalField   nonuniform List<scalar> 
76009
(
0.0018874078
1.4786818
-1.4800985
-2.0325338
2.0329711
-36.228055
2.0781204
-2.0795991
-2.0789909
2.0768572
-34.809861
6.826709e-05
0.0017926248
2.0329936
1.4787325
-1.480063
-2.0325081
-36.227993
2.0769434
2.0781649
-2.0795426
-2.078889
8.4147547e-05
-34.809689
-0.0027534663
-9.3253354
-0.0027089861
-0.3831454
0.37472916
0.36797325
-0.39129042
0.36797649
0.37474406
-0.38314246
-0.39129538
-0.012536027
-7.6962681
0.066349974
-7.4067955
0.012581692
-0.012551085
-0.012530676
-10.341875
0.0057090015
-0.054747662
-9.6922886
-0.0056885756
0.38347848
0.37877948
-0.37529947
-0.38007762
0.38347745
-0.38008026
-0.37530532
0.37877304
-9.3276836
7.6962904
-0.054742884
-9.6923006
0.066389569
0.37058837
-0.37688779
0.5239073
-0.53759048
-8.2567884
-0.0018194468
-0.00017610889
-0.57870733
-0.020094234
0.023891005
-0.024984495
0.032514894
-0.00036948512
-0.56504416
0.032712148
-0.025224164
-0.025352406
0.032591847
-0.011155338
-0.0079350743
-2.4811461
0.098722396
0.13262138
-0.12926397
-0.096213343
0.003464736
-2.6369944
0.094950924
-0.092239818
-0.12671602
0.12817863
-0.13061205
-2.3430077
0.0024037344
-0.47568223
0.0019471791
-0.0015133127
-0.0013245213
0.00058338199
-0.57556768
-0.031942335
-0.023526266
0.023745115
0.032298269
-0.52709759
0.0015577931
-0.00061763172
0.00037744896
-0.65449881
-0.0016225679
-0.0004925424
-0.66426048
0.48070117
-0.62376382
0.0096662545
0.00618783
0.0046164099
-0.13143016
-0.51109047
-0.023285892
0.023541106
0.032664996
-0.032790207
-0.0018371379
-0.13256741
-0.10190109
0.09792113
-0.10190147
-0.13256502
-2.3809049
0.0019922134
0.13642252
0.13352333
-0.1311329
-0.13381399
-2.5353715
0.13596445
-0.1334606
-0.12914501
0.13144246
-2.4762268
1.3926323e-05
-2.8538375e-05
0.0014809132
-0.53363866
-0.0006857764
-0.00075401756
0.0015287107
-0.53502496
0.0015005495
-0.53174806
0.00014354426
-0.54563126
-8.474786e-05
0.032262853
0.032314416
-0.031977956
-0.031978809
7.1792945e-05
-0.54642066
0.032352588
-0.031965509
-0.031992294
0.03230635
-0.54754963
-0.032137975
0.032513095
0.032344639
-0.031971578
0.0029203631
-0.0003569321
0.00016923692
0.032715527
0.032597157
-0.025345134
-0.025218932
-0.56503091
-0.00060062331
-0.65898252
-0.0030524957
-0.0001627735
-0.6662243
-0.00017532279
0.032603675
0.032558294
-0.025429008
-0.025351355
-0.56403637
0.0031262829
-3.9494235e-05
-0.025423493
0.032564147
0.032519284
-0.025424593
-0.56312872
0.00054906614
-0.66468482
0.52528471
-0.0031511997
-0.65073395
4.5011974e-06
0.0014394245
4.0219193e-06
-0.5438012
4.3270229e-06
-0.031956201
0.032253405
0.032225617
-0.031945681
-0.56120148
5.0146276e-06
-0.02540125
0.032508952
0.032484177
-0.025387312
0.0047450313
5.109125e-05
-0.57251384
4.7915835e-06
0.0065114483
-0.12865857
0.0006660642
-0.51800104
4.620874e-06
-0.50007676
0.0024753274
-2.0270581
-0.10839488
0.13306528
-0.10491146
1.5278022e-05
0.0018144398
-7.7910095
0.51957258
-0.5458562
-0.52583588
3.4504505e-05
-8.2567378
-0.37686863
0.370607
0.5239282
-0.53756119
0.012481191
0.54782662
0.38620152
-0.37553106
-0.52876329
-10.433243
0.55326888
3.5353898e-05
-0.53175909
-0.51385809
0.53651451
-9.9016188
-0.0068835395
0.020331018
2.6816562
-2.140297
-0.0015378277
-0.013381025
2.6566975
-2.1177885
0.015415081
2.6260808
0.006468469
-1.8762503
1.8142487
0.021709675
0.030108377
0.04264826
0.035790505
-2.1038758
-0.085024132
-0.0030541885
0.12973957
0.096545565
-0.10474895
0.04031746
-0.0033472188
0.63393787
0.021550303
-2.3269875
-0.0074861721
0.61580331
0.53952825
0.62216855
0.077638633
-0.098089628
-0.13421131
0.096465127
0.084359077
0.47530111
-0.0045343616
-0.0062120852
-2.0378338
0.094749065
0.12572862
-0.11884376
0.08131494
-2.1869753
-0.19049023
-1.9495471
0.0027655966
0.14505415
-0.0049095384
0.0010808723
-0.14279791
-2.17822
-0.0065980313
-2.6301705
0.0051426095
-0.0024067407
-2.6558857
2.3145191
0.095940234
0.13060248
-0.12957059
-0.095141309
0.00047781583
-2.3106043
0.001535562
0.13181651
0.096403567
-0.094786132
-0.1292572
2.216601
-2.2006694
2.6136533e-05
-0.12991771
0.13279069
0.13216224
-0.12912639
0.62864848
-0.064415384
-0.0018402389
0.63342163
0.54556045
0.54232993
0.098748285
-0.13605204
-0.13523056
0.09794426
0.10544556
-0.0018814464
0.52331627
0.0054789986
-0.0037109086
-2.0662265
-0.108847
0.13346909
0.13067217
0.0018109115
0.061825947
1.3319944e-05
-2.6129224
0.63253181
0.54165949
0.5393271
0.6178545
1.617052e-05
0.097949198
-0.13492497
-0.1347489
0.097648835
-2.1973275
0.0010934425
-0.0040575933
0.52636228
0.00073880707
0.52776813
-0.0039814981
-0.0002862882
-0.0045837038
-0.00011708842
-0.00085318097
-0.0044271876
-0.0023588142
-0.51998486
-0.0032687468
-2.3554008e-05
-0.51583179
0.0098522536
0.0079207816
-0.0031011719
-0.020305429
0.0032983517
0.57484322
-0.037902648
-0.003811849
0.57869652
0.0033342614
-0.00060405565
0.023893966
-0.020090619
-0.024979752
0.032518171
-0.023742018
-0.11765068
0.00055809822
0.16440842
0.00032014053
-0.020343467
0.03272713
-0.029851736
-0.01085784
-0.63288616
-0.1557112
-0.0011211529
-0.0012524039
0.15376101
0.15584987
0.13480333
-0.0070198663
-0.022806164
0.018933293
0.02315293
-0.028239244
-0.0031157401
-0.57769636
0.12947395
-0.00067736346
-0.0011364871
0.16275008
-0.00025239384
5.25344e-05
0.0001459287
0.13081148
-0.00014093425
-8.7237242e-06
0.11837454
-0.00063234791
0.00017709869
0.00038031429
-0.00014801779
7.2201364e-05
0.00014689345
-0.14568472
-0.00022922707
-8.9366634e-05
-0.1314671
3.4141207e-05
-4.6332215e-05
-0.16409441
-0.000748913
-0.14543524
-0.0003920874
-4.4659237e-05
-0.0003411363
-0.1439093
-0.0012899419
-0.00014724889
-0.13068186
-0.00070640884
-0.00065409567
-0.0052820348
-0.0094476338
-0.00098979596
0.00013644501
0.14497434
0.00027081838
-0.1542711
-0.00055814458
0.02852906
0.13141973
-2.0891717e-05
-0.16507349
0.49537075
0.03299461
0.032201462
-0.032383939
-0.035220453
-0.5771923
0.032561309
-0.032456511
0.031881832
-0.032328142
0.03133394
-0.1315037
-0.00017279385
-0.00015382799
-6.7240001e-05
-0.00058250769
-0.16405937
0.14543764
-0.00047940329
-0.14534335
-7.421335e-05
-0.00027115811
-0.00012205365
0.0001921427
-0.14480419
-0.0002690178
-0.00014558134
-0.13001163
-0.00013252891
-0.00010968548
-0.16217395
-0.0006386382
-0.14493162
-0.00035976076
-0.00010189627
0.0011973678
-0.00017465195
-0.14555334
-0.00034638453
-5.4608293e-05
-0.00037034372
-9.123666e-05
-0.00072178406
-0.13057361
-0.00029531626
0.00010711944
-0.00074793151
-0.16233763
-0.00033581653
-0.1447594
-8.0192184e-05
-3.5159494e-06
-0.14378435
0.14393775
-5.7304537e-05
-0.00042839441
0.032664197
-0.16281006
-0.00041172544
0.12980614
0.035224076
-0.59582298
-0.032665847
0.032521107
0.5269138
0.024209178
-0.024834615
-0.024832998
0.024210282
0.03252174
0.010864743
-0.57719562
0.032200133
0.032994688
-0.028530581
-0.032386349
-0.63289237
-0.020344524
0.023742514
0.032726311
-0.02985402
-0.00019363451
-0.56405219
0.03259863
-0.025358911
-0.025439609
0.032550053
-6.243778e-05
-0.5631456
0.032556372
-0.025434285
-0.025439294
0.032507134
-0.56121866
0.032497568
-0.025415936
-0.025406368
0.032467701
-2.0070842e-05
7.3099131e-05
0.0064623619
-1.8141348e-05
0.0047853149
-0.57252129
0.00028678977
0.0066012222
0.0047393424
-0.57469986
0.0007473122
0.0046067166
-0.5760313
0.0069118676
0.00061377737
0.004443483
-0.57669924
0.0073451308
-0.00984644
0.0032799329
-0.57485015
0.0033231038
-0.12572564
3.0615259e-05
-0.51583637
0.007913206
-0.035773223
-2.0378414
-0.084362067
0.094750039
-0.11884988
0.081302292
-1.8142589
0.042648715
0.030097939
0.02170161
-2.6260887
-0.021568978
-2.1869783
-0.19049157
0.63394405
-0.040294488
-2.3269916
-0.0075247102
0.6221743
0.53952936
0.61580696
0.077636696
-0.098090708
-0.13421758
0.096458728
0.085032179
-0.0062168199
0.47530622
-0.0045395977
-2.103896
-0.0030705536
-0.10476081
0.12973112
0.096538996
-2.65671
-0.0033693809
-0.013371033
-0.54780797
0.015399996
-2.1177918
0.0068608788
-0.38619096
-1.8762532
0.0064618093
-0.37554035
-0.52877937
0.012456636
-10.433266
0.0049055587
-0.0066071303
-2.6301722
1.9495477
0.0010661324
-2.1782196
-0.14279405
0.0027476149
0.14505667
-2.3145177
0.0015040607
0.096403731
-0.094785518
-0.12926048
0.13181194
-0.0051329815
-2.310601
0.00045396167
0.095941096
-0.095140163
-0.12957223
0.13059977
-0.0024250836
-2.6558862
0.53177768
-2.6831153
0.0024467714
2.1402983
0.0061674482
7.7910824
-9.9016403
-0.51389195
0.53646731
0.55324509
-1.9234356e-05
0.51953925
-0.54589687
0.50001271
-0.52590502
-3.1527347e-05
-2.0662508
-0.10545978
0.13066245
0.1334511
-0.1088694
-0.0025054544
0.064370692
-2.6816692
0.0017814528
0.62865854
0.6334289
0.54232824
0.54556424
-2.2166007
-0.0018978122
-0.13605712
0.098741008
0.09792667
-0.13524598
0.0054885986
0.52332472
-0.0018909171
-0.0037236402
0.51999226
-0.0033069892
-0.0023554782
0.00084593707
0.0002772132
-0.52777793
-0.00013209369
-0.0039996279
-0.0011097209
0.00093376533
-0.00087771759
-0.037758731
0.0038233042
-0.037748184
0.0031080771
-0.037912547
-0.020310805
0.11756321
0.50185187
0.0071978218
0.0086773002
-0.65560101
-2.212951
-0.11755881
0.12601537
0.091418081
-0.10253643
0.091414991
0.12601451
-0.10254121
0.10984893
0.096417735
0.10984372
-0.096305414
-0.098032561
0.096423046
-0.098027493
-0.096299608
-2.6178011
0.65559878
0.0030057966
-0.47149421
0.00037719575
0.50184896
0.0086789274
0.0072066508
-0.0041209163
-0.51557212
-0.020971981
0.027459772
-0.030633671
0.031584336
0.018238532
-0.0050738431
-0.050146159
-0.55420962
0.15889283
0.15612781
0.1352046
0.1552581
-0.011960479
-0.0021756497
0.023143203
0.018814098
-0.024694691
-0.0335795
-0.58010416
0.11863364
-0.0013307364
-0.0021882183
-0.00015129287
0.00010450943
-0.13045791
-0.00018060698
-0.00063094631
-0.00225288
-0.0016472018
0.0012326076
0.14322191
-0.0013647271
-0.010138063
0.12967854
-0.0060097234
1.1714905e-05
-0.00098196256
-0.0013642142
-0.00034216824
-5.0257784e-05
-0.14371718
-0.0011888589
-0.00019226394
-0.032525944
-0.13049777
-0.00081856655
-0.018238983
0.032523863
-0.029850257
-0.025296231
0.024183545
-0.56247622
-0.029847523
-0.025294082
0.024185498
0.0041249923
-0.020974528
0.027458166
0.031582012
-0.030636535
-0.51557372
0.0070122194
0.15571444
0.15585219
0.13480472
0.15376411
-0.0031301653
-0.57770123
-0.022807908
0.018931654
-0.028242631
0.023150138
0.11765312
-0.0012548199
-0.0011226243
0.00031714013
0.00055709604
-0.00017230653
0.0012010109
-0.14555573
-0.00034932088
-5.8406895e-05
0.00072424393
-0.13057515
-0.0002976064
0.0007098633
0.00036838586
-0.13142167
-0.13068432
0.00033958217
-0.00065607421
-0.0052848992
0.00068071376
0.14391257
-0.0094516335
-0.00099300059
0.12947719
-0.0011394802
-0.0002564191
5.0439546e-05
-0.0012939099
-0.00014976748
-0.14497718
-9.4370327e-05
0.00013903307
0.00026786545
-0.00056235875
-0.15427335
-2.27434e-05
-0.16507538
0.00010416508
-0.00074942765
-0.16233898
-0.00033802379
-8.4567641e-05
-0.1447611
-3.6727191e-07
0.14393954
-0.00042940055
-6.221541e-05
-0.14378558
0.12980719
-0.00041192397
-0.16281091
0.1623087
-3.8824654e-05
-0.00023918024
0.032538651
0.12953444
-0.00022936089
-0.00017687942
0.032246283
0.024104201
-0.024664326
-0.032538866
0.03224425
-0.024663912
0.024103562
-0.0016647639
2.0769598
-2.0788829
-2.079491
2.0782434
-34.809627
1.4788168
2.033068
-2.0324591
-1.4800071
-36.227831
-0.53061598
-10.422977
-0.36967496
0.37460085
0.058684966
0.0019714114
0.1364297
-0.13380749
-0.13112221
0.13353431
-0.003443578
-2.5353712
0.13144298
0.13597119
-0.13345413
-0.12914481
-2.4762268
0.00069194206
-0.52528465
0.0014421985
-0.0015400874
-0.0001496129
-0.54642011
7.5947497e-05
0.032356835
0.032309826
-0.031988957
-0.031961211
2.2005035e-05
-0.5350242
-0.0007495636
-0.53363815
0.0014885878
0.00054199073
-0.0031196944
0.00017047987
-0.66468506
-0.0031488477
-0.65073412
0.54380123
4.8902961e-05
-0.56120187
0.03248408
0.032510763
-0.025399639
-0.025387297
9.2620802e-05
-0.031945706
0.032225677
0.032255392
-0.031954287
-0.5456311
0.032264888
-0.031976968
-0.031974598
0.032317851
0.00018316738
-0.56312962
0.032520859
0.032567261
-0.025420566
-0.025422994
0.0030425369
0.00036291697
-0.56403765
0.032607629
0.032561211
-0.025426093
-0.025347492
0.00060606404
-0.66622474
0.53174688
-0.0029080289
-0.00037207132
-0.65898293
0.0015143931
-0.0015534157
-0.54754858
0.032517743
0.032348924
-0.031967277
-0.032133143
-0.0005806905
0.00017352764
-0.5650323
0.032719943
0.032600938
-0.025341311
-0.025214494
0.0016084966
0.032522499
0.57556658
-0.024975354
-0.020085832
0.023899093
-0.57869808
-0.0096638762
0.12925372
0.52709648
-0.65449951
-0.00061426205
-2.6369956
0.13263233
-0.096199541
0.098737329
0.011168103
5.9975407e-05
-0.0021763176
1.4740241e-05
-3.6365884e-05
0.00012131904
-0.0026214957
1.8916263e-05
-4.050393e-05
0.00018882963
-0.0029867159
2.2100606e-05
-4.4259067e-05
0.00026748272
-0.003357994
2.4826896e-05
-4.8374314e-05
-0.055137781
0.00049922922
-0.00046796688
-0.0001707397
-0.00023404721
-0.055198125
0.00031082378
-0.00020310691
0.00018667544
-0.00016505315
-0.0034224646
1.868195e-05
-2.3205018e-05
-0.00010226875
-0.0030452258
1.7311229e-05
-2.1585422e-05
-4.6322588e-05
-0.002673484
1.6092105e-05
-2.0049319e-05
-0.0022192782
1.4772688e-05
-1.8134589e-05
1.9833718e-05
-0.002236623
3.3037643e-06
-5.7921452e-06
4.0786591e-05
-0.0026920281
4.0517824e-06
-6.4594992e-06
6.392043e-05
-0.0030658919
4.4680069e-06
-6.9351906e-06
9.0131706e-05
-0.0034460847
4.8347022e-06
-7.4254115e-06
-0.055466583
0.00011122389
-6.592056e-05
0.0003132877
-3.5506053e-05
-0.055804976
7.3102128e-05
-2.4594984e-05
0.00032539288
-2.5106364e-05
-0.0034567131
3.4326383e-06
-3.201214e-06
-1.5706088e-05
-0.003075439
3.2082643e-06
-3.0585975e-06
-7.2817726e-06
-0.0027005422
3.0486771e-06
-2.9527326e-06
-0.0022439792
2.9621953e-06
-2.8877187e-06
2.6978506e-06
-0.0022466161
1.6427321e-06
-1.7014285e-06
5.3499412e-06
-0.0027032474
1.8059662e-06
-1.7517181e-06
8.1376592e-06
-0.0030783707
1.9513755e-06
-1.8064944e-06
1.1174418e-05
-0.0034599982
2.1217496e-06
-1.8731618e-06
-0.056092193
5.0706132e-05
-1.3371746e-05
0.00026105795
-5.2587049e-06
-0.056288831
4.0926336e-05
-1.1674517e-05
0.00017264558
-3.8908089e-06
-0.0034616904
1.9653213e-06
-1.6405826e-06
-2.5669505e-06
-0.0030799395
1.8244026e-06
-1.5790537e-06
-1.277743e-06
-0.0027047186
1.706162e-06
-1.5232569e-06
-0.0022480358
1.6079582e-06
-1.4660482e-06
9.8348864e-07
-0.0022490743
1.3246235e-06
-1.2706112e-06
1.8622061e-06
-0.0027056961
1.4475956e-06
-1.3490457e-06
2.7126149e-06
-0.0030809329
1.556889e-06
-1.4140266e-06
3.5758892e-06
-0.0034627481
1.6749509e-06
-1.4805056e-06
-0.056403742
3.1966626e-05
-1.10396e-05
9.7560722e-05
-3.1421784e-06
-0.056463534
2.4946996e-05
-9.9804481e-06
4.7967351e-05
-2.3862203e-06
-0.0034636329
1.4284478e-06
-1.2985392e-06
-1.6395779e-06
-0.003081778
1.3337793e-06
-1.2343281e-06
-8.6480712e-07
-0.0027065419
1.2443276e-06
-1.1712056e-06
-0.0022499894
1.1452204e-06
-1.0949248e-06
7.9059485e-07
-0.0022508093
9.4387434e-07
-9.1344319e-07
1.4674109e-06
-0.0027072656
1.0300707e-06
-9.8254651e-07
2.1088235e-06
-0.0030824838
1.1037529e-06
-1.0389551e-06
2.7520389e-06
-0.0034643594
1.1792842e-06
-1.0960142e-06
-0.056492614
1.9493045e-05
-8.5860091e-06
2.0926232e-05
-2.459923e-06
-0.056506789
1.5514051e-05
-7.207734e-06
8.328564e-06
-1.8934847e-06
-0.0034649852
9.7114893e-07
-9.1138033e-07
-1.3271472e-06
-0.0030830973
9.1028491e-07
-8.6270184e-07
-7.2366493e-07
-0.0027079038
8.503153e-07
-8.1492692e-07
-0.002251556
7.7958679e-07
-7.5653008e-07
6.6483764e-07
-0.0022522357
6.426884e-07
-6.270228e-07
1.2059536e-06
-0.0027084703
7.0155953e-07
-6.756803e-07
1.7013374e-06
-0.003083628
7.5112032e-07
-7.154757e-07
2.1901536e-06
-0.0034655188
8.01045e-07
-7.5619218e-07
-0.056514369
1.2584483e-05
-6.0051352e-06
3.1916386e-06
-1.9785023e-06
-0.056519047
1.0369042e-05
-5.0122069e-06
1.299866e-06
-1.5475724e-06
-0.0034659842
6.6483419e-07
-6.3025218e-07
-1.1069987e-06
-0.0030840958
6.2340053e-07
-5.9611363e-07
-6.1557861e-07
-0.0027089803
5.8192347e-07
-5.6312092e-07
-0.0022528611
5.328385e-07
-5.2297047e-07
5.7481264e-07
-0.0022534395
4.4135726e-07
-4.3718319e-07
1.0226888e-06
-0.0027094401
4.8265911e-07
-4.7041354e-07
1.4211969e-06
-0.0030845138
5.1756347e-07
-4.9777385e-07
1.8033777e-06
-0.0034663928
5.52435e-07
-5.260179e-07
-0.056522319
8.6018667e-06
-4.1773092e-06
6.5020126e-07
-1.6608877e-06
-0.056524749
7.085607e-06
-3.452292e-06
4.5848678e-07
-1.3157366e-06
-0.0034667565
4.556239e-07
-4.3679082e-07
-9.5400473e-07
-0.0030848884
4.266656e-07
-4.1356128e-07
-5.3986422e-07
-0.00270986
3.976887e-07
-3.9142237e-07
-0.0022539784
3.6364602e-07
-3.6452666e-07
5.1100511e-07
-0.0022544801
2.8981968e-07
-2.9879317e-07
8.9699616e-07
-0.0027102427
3.161161e-07
-3.1923794e-07
1.2290368e-06
-0.0030852229
3.3893448e-07
-3.3635474e-07
1.5391767e-06
-0.0034670739
3.6170692e-07
-3.544125e-07
-0.056526508
5.6079506e-06
-2.7678391e-06
4.5794125e-07
-1.4415462e-06
-0.056527638
3.9622936e-06
-2.0356229e-06
6.4506518e-07
-1.1548781e-06
-0.003467349
2.5725989e-07
-2.687075e-07
-8.4698794e-07
-0.0030855163
2.4196065e-07
-2.5619028e-07
-4.8220112e-07
-0.002710589
2.2692365e-07
-2.4494922e-07
-0.0022549407
2.1041841e-07
-2.3194694e-07
4.6172044e-07
-0.0022553623
1.2023595e-07
-1.5974361e-07
8.0343213e-07
-0.0027108907
1.2407559e-07
-1.6376307e-07
1.0944689e-06
-0.0030857687
1.2958546e-07
-1.6805936e-07
1.3584064e-06
-0.0034675749
1.3571503e-07
-1.7371063e-07
-0.056528162
2.0525568e-06
-1.2085109e-06
1.0383064e-06
-1.2885055e-06
-0.056527892
-9.5642338e-08
-4.0196148e-07
1.5170375e-06
-1.039924e-06
-0.0034677333
-1.9512979e-09
-8.8015337e-08
-7.6612922e-07
-0.0030859559
2.7391789e-09
-8.9172002e-08
-4.3894544e-07
-0.0027111341
8.5369827e-09
-9.2036208e-08
-0.0022557234
1.9290844e-08
-9.7213927e-08
4.2124362e-07
-0.0022560536
-7.6998388e-08
-1.3573963e-08
7.3523476e-07
-0.0027113475
-1.0261323e-07
2.232139e-09
9.9315086e-07
-0.0030861072
-1.193866e-07
1.2911073e-08
1.2305568e-06
-0.0034678574
-1.3462941e-07
2.1351047e-08
-0.056526989
-2.155194e-06
4.9961562e-07
1.9827596e-06
-1.1702849e-06
-0.056525509
-3.4436263e-06
9.5989259e-07
2.1743647e-06
-9.4836268e-07
-0.0034679361
-2.1887961e-07
7.5783811e-08
-6.9617671e-07
-0.0030862256
-1.9721668e-07
6.3645683e-08
-4.006246e-07
-0.0027115186
-1.7329515e-07
4.9218795e-08
-0.0022563444
-1.3835269e-07
2.8473552e-08
3.7667855e-07
-0.0022566083
-1.3233952e-07
2.0129869e-08
6.5690989e-07
-0.0027116714
-1.6491686e-07
3.7828531e-08
8.8726558e-07
-0.0030863182
-1.8746713e-07
4.9936501e-08
1.091567e-06
-0.0034679922
-2.0796703e-07
5.98843e-08
-0.056523747
-3.2690375e-06
7.7077858e-07
1.8285074e-06
-9.9489763e-07
-0.056522125
-1.3373484e-06
-1.7072948e-07
8.8082064e-07
-8.1429607e-07
-0.0034680488
-8.7747617e-08
-3.6036417e-08
-6.0746964e-07
-0.0030864095
-7.8151841e-08
-3.7164004e-08
-3.5226055e-07
-0.002711819
-6.7479644e-08
-3.9574e-08
-0.0022568646
-5.1277551e-08
-4.4714859e-08
3.1926019e-07
-0.002257129
1.0204662e-07
-1.5631575e-07
5.4830456e-07
-0.0027119871
1.1312836e-07
-1.7381048e-07
7.3150477e-07
-0.0030865279
1.2320172e-07
-1.8779277e-07
8.8480681e-07
-0.0034681336
1.3324551e-07
-2.0167319e-07
-0.056521045
2.1756793e-06
-1.7589145e-06
-6.1185314e-07
-8.0438861e-07
-0.056520687
6.5372961e-06
-3.6544204e-06
-2.4364122e-06
-6.6923796e-07
-0.0034682762
4.1174735e-07
-4.0405935e-07
-5.0551351e-07
-0.0030866965
3.7768343e-07
-3.7250682e-07
-2.9725861e-07
-0.002712197
3.4144534e-07
-3.3922417e-07
-0.002257426
2.9451931e-07
-2.9476787e-07
2.6828766e-07
-0.0022577498
4.7906314e-07
-4.2280726e-07
4.529514e-07
-0.0027124482
5.5725846e-07
-4.9031463e-07
5.9400984e-07
-0.0030869141
6.1678238e-07
-5.4001567e-07
7.0531313e-07
-0.0034684742
6.732653e-07
-5.8650531e-07
-0.056521141
1.0569238e-05
-5.3245436e-06
-4.0847357e-06
-6.4091178e-07
-0.056522121
1.2960184e-05
-6.2138671e-06
-5.1249295e-06
-5.4587143e-07
-0.0034687093
8.2431729e-07
-6.8402786e-07
-4.2041852e-07
-0.0030871642
7.5415974e-07
-6.2927866e-07
-2.5049838e-07
-0.0027127274
6.8056534e-07
-5.707866e-07
-0.0022580928
5.8408255e-07
-4.9166176e-07
2.4198131e-07
-0.0022584544
5.8391223e-07
-4.6375216e-07
4.080586e-07
-0.0027130359
6.8178085e-07
-5.3899141e-07
5.3062098e-07
-0.0030874481
7.5635546e-07
-5.9476398e-07
6.2146602e-07
-0.0034689805
8.2745144e-07
-6.4701286e-07
-0.056523273
1.3049675e-05
-5.9389015e-06
-5.3372286e-06
-6.6243771e-07
-0.056523951
1.0876486e-05
-4.7884226e-06
-4.7472549e-06
-5.5954704e-07
-0.0034692395
6.8570152e-07
-5.2947506e-07
-4.2370329e-07
-0.0030877215
6.2561051e-07
-4.8787202e-07
-2.4742918e-07
-0.0027133319
5.6384447e-07
-4.4375386e-07
-0.002258802
4.8425104e-07
-3.8401762e-07
2.6722263e-07
-0.0022591411
3.0659985e-07
-2.3451618e-07
4.6369181e-07
-0.0027136097
3.5129684e-07
-2.6973855e-07
6.2082594e-07
-0.0030879753
3.9221675e-07
-2.9544229e-07
7.4431824e-07
-0.0034694765
4.3341286e-07
-3.1986645e-07
-0.056523806
7.0616545e-06
-2.8534886e-06
-3.6090402e-06
-7.2335587e-07
-0.056522675
2.4367448e-06
-7.7248397e-07
-2.0710771e-06
-6.1302767e-07
-0.003469626
1.3408249e-07
-9.4508002e-08
-4.7017549e-07
-0.0030881456
1.1697444e-07
-8.9066107e-08
-2.7630068e-07
-0.0027138192
9.9276332e-08
-8.284416e-08
-0.0022594253
8.1246075e-08
-7.328621e-08
1.6428039e-07
-0.0022595549
-8.8526716e-08
5.4442046e-08
2.6695021e-07
-0.0027139019
-8.9783476e-08
7.0115997e-08
3.3037654e-07
-0.0030881979
-9.2396695e-08
8.1434715e-08
3.5476416e-07
-0.0034696442
-9.7334583e-08
9.121032e-08
-0.056521279
-1.3341598e-06
9.4312538e-07
-6.5005579e-07
-4.8164745e-07
-3.5336402e-06
2.0700364e-06
-5.1033275e-07
-4.2405702e-07
-2.4406232e-07
2.1955109e-07
-3.3988624e-07
-2.2727806e-07
2.0003765e-07
-2.1450812e-07
-2.1343736e-07
1.7793465e-07
-1.9782983e-07
1.4536608e-07
1.9583834e-07
0.082570759
-1.9285178e-06
-2.7279074e-06
9.8829423e-08
0.0035783496
-1.2786661e-07
3.1069794e-08
0.0031239243
-1.1383442e-07
-9.5731967e-09
0.0026944083
-9.7504403e-08
0.0022012277
-7.3101841e-08
-8.5872044e-08
0.0022010934
1.3238343e-07
-2.0694963e-07
0.0026943148
1.2498829e-07
-3.5425772e-07
0.0031238571
1.2243499e-07
-5.4129662e-07
0.0035783165
1.2286839e-07
0.082569844
8.826038e-07
-1.8433783e-06
-8.6501721e-08
0.082570195
4.0630323e-06
-1.8906935e-06
-1.3055375e-07
0.0035781603
3.3446883e-07
-1.5060148e-07
0.0031236806
3.1359251e-07
-1.26413e-07
0.0026941017
2.8838849e-07
0.0022008014
2.4683547e-07
2.9125936e-07
0.0022004035
4.1348421e-07
4.9391735e-07
0.0026937672
4.8326315e-07
6.6302914e-07
0.0031233698
5.3399462e-07
8.1405455e-07
0.0035778618
5.8094199e-07
0.082572143
7.7998661e-06
-1.8719012e-06
-9.5553054e-07
0.08257382
1.1217745e-05
-1.0620723e-06
-7.6083923e-07
0.0035775304
8.2245266e-07
-5.4966009e-07
0.0031230312
7.5309656e-07
-3.074862e-07
0.0026934092
6.7976835e-07
0.0021999994
5.8082256e-07
3.2028635e-07
0.0021995961
6.6715764e-07
5.7447733e-07
0.0026930534
7.8344671e-07
7.949711e-07
0.0031226975
8.6967248e-07
9.9662641e-07
0.0035772051
9.5115398e-07
0.08257513
1.3070689e-05
-3.3444978e-07
-1.0970243e-06
0.082576457
1.249415e-05
2.3624482e-07
-8.7236048e-07
0.0035769012
9.0357848e-07
-6.2856585e-07
0.0031223825
8.2544737e-07
-3.5138662e-07
0.0026927137
7.4323586e-07
0.0021991957
6.3305966e-07
3.7961794e-07
0.0021988176
4.7780001e-07
6.8822896e-07
0.0026924026
5.5986149e-07
9.6320605e-07
0.0031221029
6.2157727e-07
1.2222849e-06
0.0035766347
6.8078262e-07
0.082578062
9.4794204e-06
7.0756066e-07
-1.2783435e-06
0.082579808
4.8818131e-06
1.1878046e-06
-1.0052274e-06
0.0035764317
3.4170053e-07
-7.1231869e-07
0.0031218761
3.1160644e-07
-3.8975212e-07
0.0026921402
2.8137478e-07
0.0021984793
2.4303776e-07
3.7305922e-07
0.0021981756
3.2882708e-08
6.7436763e-07
0.002691924
2.8083353e-08
9.429057e-07
0.0031217055
2.534441e-08
1.198576e-06
0.0035762859
2.3458618e-08
0.082581414
1.9132756e-07
1.5774143e-06
-1.1555506e-06
0.082582942
-3.5206556e-06
1.8110426e-06
-9.0833095e-07
0.0035761771
-2.2615541e-07
-6.4753357e-07
0.0031215657
-1.9899208e-07
-3.6001131e-07
0.0026917374
-1.6824035e-07
0.0021978881
-1.2380541e-07
3.8645394e-07
0.0021975917
-2.2218651e-07
6.9284106e-07
0.0026915461
-2.7991647e-07
9.6600792e-07
0.0031214294
-3.2425838e-07
1.2313322e-06
0.0035760689
-3.650153e-07
0.082584431
-5.5765575e-06
2.0499045e-06
-1.3537978e-06
0.08258563
-5.7666988e-06
2.4777497e-06
-1.0600341e-06
0.003575943
-3.8666567e-07
-7.5340379e-07
0.0031212712
-3.4565033e-07
-4.1680209e-07
0.0026913362
-2.9983464e-07
0.0021972741
-2.3757652e-07
4.4062804e-07
0.0021969138
-1.5719908e-07
7.9436191e-07
0.0026910881
-2.0828022e-07
1.114007e-06
0.0031210771
-2.4481087e-07
1.4246931e-06
0.0035757749
-2.7725516e-07
0.082586245
-4.3126448e-06
2.9672842e-06
-1.4795146e-06
0.082586139
-2.030351e-06
3.5203833e-06
-1.1540488e-06
0.0035755517
-1.0411085e-07
-8.2194316e-07
0.0031208331
-8.5328247e-08
-4.5613609e-07
0.0026907944
-6.3401332e-08
0.0021965095
-3.2569564e-08
4.7540957e-07
0.0021960619
9.2944747e-08
8.5470801e-07
0.0026904568
8.2622446e-08
1.2012037e-06
0.0031205408
7.5591216e-08
1.5397018e-06
0.0035752783
7.0637441e-08
0.082585269
2.9269566e-07
4.1698114e-06
-1.6167288e-06
0.082583672
2.2640799e-06
4.9124117e-06
-1.2559704e-06
0.003574956
2.188687e-07
-8.9382345e-07
0.0031202083
2.1236935e-07
-4.9492326e-07
0.0026900779
2.070308e-07
0.0021955767
2.0072708e-07
5.234197e-07
0.002195053
2.901696e-07
9.4667757e-07
0.002689662
3.0880661e-07
1.3337682e-06
0.003119837
3.2328249e-07
1.7214207e-06
0.0035745915
3.3856484e-07
0.082581297
3.8395877e-06
5.8644209e-06
-1.8588465e-06
0.082577991
5.1349331e-06
7.1154676e-06
-1.4340061e-06
0.0035741832
4.3916271e-07
-1.0113394e-06
0.0031194238
4.1717893e-07
-5.5930366e-07
0.002689212
3.9573398e-07
0.0021944894
3.6796601e-07
5.9820385e-07
0.0021938886
4.4465623e-07
1.0951949e-06
0.002688718
4.7990654e-07
1.5594594e-06
0.0031189703
5.0709685e-07
2.032427e-06
0.0035737279
5.3479837e-07
0.082573516
6.3252641e-06
8.7843829e-06
-2.2429129e-06
0.082567087
7.6287677e-06
1.1412169e-05
-1.7121043e-06
0.0035732198
6.4220672e-07
-1.1946878e-06
0.0031184678
6.085736e-07
-6.506535e-07
0.0026881808
5.7533383e-07
0.0021932385
5.3228016e-07
7.0569654e-07
0.0021925377
6.383187e-07
1.3094036e-06
0.0026875876
6.9121393e-07
1.8923189e-06
0.0031179043
7.3185759e-07
2.4940381e-06
0.0035726467
7.7247503e-07
0.08255665
9.1948192e-06
1.6321087e-05
-2.8147672e-06
0.082537136
1.1088716e-05
2.6754236e-05
-2.1187856e-06
0.0035719908
9.3125456e-07
-1.4537225e-06
0.0031172675
8.8215262e-07
-7.7580044e-07
0.0026869274
8.3291429e-07
0.0021917727
7.68727e-07
8.5480928e-07
0.0021909376
9.2433286e-07
1.6237603e-06
0.0026861867
1.0017802e-06
2.3846323e-06
0.0031165494
1.0610113e-06
3.1819808e-06
0.0035712533
1.1195321e-06
0.082497221
1.3293992e-05
4.9296867e-05
-3.7212058e-06
0.082415332
1.5635984e-05
9.4920762e-05
-2.7685078e-06
0.0035703994
1.3297555e-06
-1.8643929e-06
0.0031157167
1.262508e-06
-9.6649481e-07
0.0026853386
1.1946918e-06
0.0021900093
1.1070142e-06
1.1177407e-06
0.0021889396
1.2747161e-06
2.1811724e-06
0.0026843501
1.3717378e-06
3.2591273e-06
0.00311475
1.4450431e-06
4.3997843e-06
0.0035694166
1.5171202e-06
0.082257751
1.759068e-05
0.00017635777
-6.766892e-06
0.081987574
1.851613e-05
0.00029935405
-4.9374281e-06
0.0035678888
1.6638408e-06
-3.2231351e-06
0.0031132615
1.5987727e-06
-1.5996011e-06
0.0026828977
1.5354598e-06
0.0021874868
1.4611115e-06
3.0447805e-06
0.0021846336
1.4518121e-06
6.3184455e-06
0.0026799096
1.5204986e-06
9.9047309e-06
0.0031100609
1.5659389e-06
1.3930253e-05
0.0035643738
1.6114539e-06
0.081589563
1.724702e-05
0.00044540123
-3.9804026e-05
0.081117141
1.7978985e-05
0.00056734995
-2.7835284e-05
0.0035539371
1.9021506e-06
-1.735674e-05
0.0031009031
1.8890955e-06
-8.1384851e-06
0.0026718613
1.8822932e-06
0.0021776038
1.85348e-06
1.9287943e-05
0.0021601644
1.4562938e-06
4.2144542e-05
0.002651397
1.6594098e-06
6.8464189e-05
0.0030773408
1.710731e-06
9.891571e-05
0.0035266138
1.7067012e-06
0.080714882
2.0725489e-05
0.00059167346
-0.00019747492
0.080600876
8.0497414e-05
0.00054180815
-0.00013600521
0.0034779229
5.9031073e-06
-8.3364224e-05
0.0030365029
5.5081399e-06
-3.8176081e-05
0.002617399
4.9019168e-06
0.0021328474
3.9136139e-06
5.4944747e-05
0.002090736
1.922001e-06
0.00011698613
0.0025706816
3.5983026e-06
0.00018788436
0.0029828931
4.8166011e-06
0.00027000509
0.0034147725
5.8568174e-06
0.080646084
0.00012689904
0.00059712721
-0.001025082
0.00040320989
0.0017210696
-0.00074837351
4.2732449e-05
-0.00049099997
4.2291506e-05
-0.00024519715
3.82987e-05
2.7408922e-05
5.5464804e-05
-0.0021264999
-5.2892442e-06
6.0301495e-07
0.00011878724
-0.0026100741
-1.7629664e-06
-3.6204719e-06
0.00019133278
-0.003028104
6.2596326e-07
-6.7852388e-06
0.00027560276
-0.0034683678
2.4839315e-06
-9.7330873e-06
-0.080433865
0.00016057903
-0.00036516012
0.00054507119
-0.00019232709
-0.080613914
4.8359573e-05
-0.00018641788
0.0005104378
-0.00013214783
-0.0035212381
4.2206361e-07
-7.7275904e-06
-8.1026399e-05
-0.0030726159
-2.6885628e-08
-6.5790992e-06
-3.7319688e-05
-0.002647324
-8.2814239e-07
-5.6210502e-06
-0.0021568425
-2.2235662e-06
-4.7535518e-06
1.8218866e-05
-0.0021759171
-4.2532182e-06
5.1091258e-06
3.979842e-05
-0.0026697873
-4.3564338e-06
5.2403309e-06
6.4856774e-05
-0.0030984902
-4.4591472e-06
5.2757927e-06
9.4126123e-05
-0.0035511731
-4.588714e-06
5.2548535e-06
-0.081056763
-3.7220686e-05
1.9014509e-05
0.0005551829
-3.6686788e-05
-0.081550352
-4.4310133e-05
3.339149e-05
0.0005411965
-2.5489787e-05
-0.003562651
-3.7762833e-06
4.0572311e-06
-1.5795032e-05
-0.0031085479
-3.5178717e-06
3.8807416e-06