/*--------------------------------*- C++ -*----------------------------------*\
  =========                 |
  \\      /  F ield         | OpenFOAM: The Open Source CFD Toolbox
   \\    /   O peration     | Website:  https://openfoam.org
    \\  /    A nd           | Version:  7
     \\/     M anipulation  |
\*---------------------------------------------------------------------------*/
FoamFile
{
    version     2.0;
    format      ascii;
    class       volScalarField;
    location    "90";
    object      k;
}
// * * * * * * * * * * * * * * * * * * * * * * * * * * * * * * * * * * * * * //

dimensions      [0 2 -2 0 0 0 0];

internalField   nonuniform List<scalar> 
24866
(
3468.0719
3534.7259
3544.0129
4134.4708
4720.5241
4709.4528
4668.8073
4720.9909
4726.3622
4663.236
4689.3411
4689.6803
4664.0807
4726.9141
4720.4742
4670.7036
4704.9732
4722.0257
4706.6943
4690.998
4624.2182
4736.6221
4869.5677
4808.5674
4680.6342
4596.4657
4694.8288
4817.7239
4804.8804
4641.1206
4711.585
4709.6309
4709.624
4711.5908
4641.3288
4804.9689
4818.2785
4695.3621
4595.9066
4679.9612
4808.383
4869.5518
4736.6735
4624.2301
4691.5316
4706.4069
4722.7644
4704.3669
4671.159
4719.2838
4727.8536
4663.8191
4689.3484
4689.6094
4664.4659
4725.9341
4721.4811
4667.8369
4710.6899
4719.4647
4752.6096
4724.5009
4753.0995
4755.0714
4682.0333
4715.4452
4776.2416
4764.5618
4682.5531
4685.1264
4685.3532
4682.9457
4764.7575
4776.2908
4715.6652
4681.1981
4751.0708
4750.6711
4715.2508
4735.3381
4728.9792
4629.0707
4642.9318
4701.2065
4720.5181
4783.7917
4715.4509
4654.9225
4727.182
4792.2181
4720.7441
4663.008
4703.5675
4707.4542
4700.5279
4683.5392
4671.6706
4691.7128
4686.4664
4696.1158
4692.3834
4695.637
4691.4891
4697.8625
4702.1258
4702.1823
4700.0027
4704.9692
4698.6881
4691.2085
4642.1999
4744.1191
4740.8903
4714.0632
4679.3662
4693.9759
4695.7228
4698.2191
4701.9711
4704.2195
4703.7523
4700.4511
4703.6659
4698.5237
4692.9097
4689.9203
4676.2492
4682.5733
4685.4608
4692.5695
4699.8323
4705.2313
4708.193
4706.7164
4707.282
4705.407
4701.9912
4700.0327
4695.7363
4698.7156
4679.3957
4642.2407
4744.1123
4740.8763
4537.876
4539.065
4169.7382
4112.9495
4124.462
4124.4621
4112.9426
4052.9216
4066.3553
4590.7974
4589.6349
4084.2937
4101.8257
4012.0463
4082.503
4063.0195
3947.5414
3918.9625
4025.9225
4095.7861
4121.6584
4133.4639
4110.7666
4071.3111
4118.4851
4120.6356
4047.9968
4047.7705
4047.3149
4046.9551
4119.8233
4118.5371
4070.4437
4113.8101
4179.8773
4190.8576
4548.881
4550.8814
4166.1738
4015.2356
4177.9445
4123.9047
4074.2236
4688.6135
4695.4125
4688.6251
4696.1382
4689.4324
4675.7272
4682.3905
4685.2393
4692.2844
4699.4327
4704.6923
4707.558
4708.2217
4708.8533
4707.3088
4704.2641
4702.2346
4703.6158
4705.0005
4720.7918
4691.231
4098.8537
4124.8147
4452.3976
4590.9326
4066.1363
4052.9419
3518.2734
3530.8441
3536.3012
3536.2982
3530.8274
3518.234
3493.7389
3503.8449
3512.1929
3489.532
3505.7538
3492.8275
3448.8671
3432.1635
3498.1963
3522.1214
3535.9751
3542.1283
3533.1018
3534.1092
3532.6763
3535.4455
3517.4521
3513.4028
3513.3156
3516.8113
3534.5964
3532.2241
3533.4411
3078.4716
3076.3704
3077.864
3077.7896
3076.6071
3535.0933
4114.5068
4070.2287
4119.0012
4119.5318
4048.2802
4047.6803
4047.3629
4047.6227
4120.5077
4117.6887
4071.8469
4110.4546
4133.9954
4121.6111
4096.1866
4026.0488
3919.0987
4440.0551
4637.0919
4568.4659
4063.3322
4082.821
4012.2053
4101.59
4083.8195
4590.0405
4466.3002
4161.6191
4120.7698
3992.2158
4156.5015
4190.0298
4199.585
4577.796
4792.4053
4727.2992
4654.8919
4663.0404
4720.4958
4707.5184
4702.2034
4703.8243
4706.7698
4703.7404
4705.2797
4704.7135
4702.0687
4697.4916
4692.2847
4692.3447
4694.5194
4697.5096
4699.4736
4699.8945
4698.6109
4695.7479
4700.5459
4697.9638
4700.6203
4701.2253
4643.0319
4683.6784
4691.617
4691.8658
4692.5065
4693.0004
4692.638
4692.3483
4692.3212
4692.3539
4696.1417
4689.4957
4685.3327
4685.5351
4690.0026
4696.2478
4686.6465
4715.4121
4671.8542
4629.2461
4729.3311
4735.3115
4531.8344
4176.6936
4155.7617
4525.8576
4137.917
4159.4154
3994.0056
3453.5823
3522.4197
3498.3466
3432.2666
3449.0294
3948.0413
3957.0315
4094.1067
4122.3342
4456.522
4438.2342
4123.1093
3973.8331
4138.045
3423.2536
3492.9245
3505.742
3489.4935
3512.2918
3503.9264
3493.7479
3045.9137
3065.4762
3071.4361
3072.1799
3072.1779
3071.4246
3065.4537
3045.9133
3047.952
3054.1486
3046.6607
3051.5881
3041.4061
3020.7011
3015.5113
3053.6903
3066.3167
3072.5526
3076.3987
3075.7004
3079.0816
3075.211
3076.9187
3071.7898
3070.6202
3070.2669
3071.0121
3076.1883
3074.6676
2706.1148
2709.6713
2707.3645
2706.8902
2706.8781
2707.5323
2709.8235
3078.5796
3533.4136
3532.6267
3534.8733
3517.5501
3513.3857
3513.4416
3517.3683
3535.2279
3532.1572
3534.2811
3532.9943
3542.4468
3536.0671
3072.6521
3066.5213
3053.8249
3015.6123
3020.8352
3041.4975
3051.6145
3046.6567
3054.1859
3047.9668
2685.1293
2685.0002
2698.9283
2702.4263
2702.4768
2702.4763
2702.4181
2698.9133
2684.9957
2685.1171
2689.248
2687.2438
2688.379
2680.8081
2669.6182
2668.2972
2691.3228
2699.4782
2703.1934
2705.816
2707.1422
2710.2146
2706.6556
2707.7129
2706.6863
2706.3207
2706.0829
2706.1116
2707.0946
2406.9763
2406.3939
2409.1744
2407.1484
2406.1502
2406.1635
2407.276
2409.3311
2406.6526
2407.2771
2707.4379
3076.528
3071.7921
3070.6269
3070.4025
3071.431
3076.6633
3074.8368
3079.0881
3075.6401
3076.5676
2705.8984
2703.271
2699.6157
2691.4305
2668.3839
2669.7188
2680.8797
2688.406
2687.2492
2689.2733
2393.0312
2390.0882
2390.7527
2400.4883
2402.6256
2402.5887
2402.588
2402.6194
2400.4775
2390.7467
2390.078
2393.0129
2393.2166
2392.7954
2386.9895
2380.4897
2380.8533
2395.3118
2400.8202
2403.3997
2405.3134
2407.1037
2409.6403
2406.882
2407.4812
2407.9225
2407.9249
2407.7486
2407.4845
2162.336
2161.34
2161.0348
2163.1063
2161.4126
2160.3849
2160.406
2161.5136
2163.2503
2161.2504
2161.5924
2162.6317
2407.8832
2706.6583
2706.344
2706.2087
2706.4232
2707.4569
2706.3559
2710.1416
2707.088
2407.0493
2405.3482
2403.4536
2400.9129
2395.3951
2380.9247
2380.5662
2387.0462
2392.8211
2393.2264
2151.3235
2150.3576
2148.1988
2149.204
2156.0801
2157.4181
2157.4219
2157.4208
2157.4131
2156.0716
2149.1977
2148.1901
2150.3439
2151.3124
2150.2708
2145.759
2141.7871
2142.8955
2152.3916
2156.2107
2158.1783
2159.6668
2161.4097
2163.4888
2161.4551
2161.7511
2162.6749
2162.897
2162.7636
1959.8931
1959.4076
1958.3529
1958.2155
1959.7294
1958.3671
1957.4785
1957.5003
1958.4487
1959.8552
1958.3935
1958.5605
1959.6308
1960.008
2162.9135
2407.9488
2407.854
2407.7208
2407.2596
2406.642
2409.5402
2163.3872
2161.3575
2159.6772
2158.2144
2156.2747
2152.4561
2142.9537
2141.8465
2145.8044
2150.2942
1949.4108
1950.6268
1949.5365
1947.9574
1949.0576
1953.9948
1954.8854
1954.9547
1954.9535
1954.8811
1953.9878
1949.0516
1947.95
1949.5256
1950.6155
1949.3897
1945.8684
1943.3509
1944.7264
1951.2413
1953.9904
1955.5942
1956.8112
1958.3452
1960.0299
1958.5663
1958.6877
1959.6741
1959.9959
1789.8573
1789.7754
1789.3031
1788.3642
1788.3144
1789.4074
1788.3519
1787.6412
1787.6612
1788.4187
1789.5147
1788.461
1788.5337
1789.4754
1789.8668
1789.8362
1959.963
2162.8479
2162.5201
2161.5673
2161.2646
1958.4156
1959.9376
1958.2979
1956.8104
1955.6186
1954.0362
1951.2919
1944.7741
1943.3979
1945.9052
1778.1738
1780.9131
1782.1146
1781.1559
1780.0222
1781.0815
1784.6817
1785.3319
1785.4578
1785.4565
1785.3282
1784.6758
1781.076
1780.0156
1781.1468
1782.1036
1780.8943
1778.1433
1776.5108
1777.9043
1782.5423
1784.6099
1785.9704
1786.9965
1788.2909
1789.6336
1788.6006
1788.637
1789.5169
1644.8952
1645.2123
1645.1468
1644.7229
1643.9488
1643.9352
1644.716
1643.9211
1643.3767
1643.3942
1643.9765
1644.8067
1644.056
1644.0868
1644.8575
1645.2199
1645.1993
1644.8235
1789.4244
1959.555
1958.5388
1788.5177
1788.4815
1789.5541
1788.2495
1786.991
1785.9873
1784.644
1782.5827
1777.9437
1776.5489
1634.4221
1635.4879
1637.6283
1638.7294
1637.9763
1637.1804
1638.1317
1640.791
1641.3075
1641.4711
1641.47
1641.3043
1640.7859
1638.1266
1637.1746
1637.9685
1638.7189
1637.6115
1635.4622
1634.3907
1635.6803
1639.0798
1640.6954
1641.8709
1642.7491
1643.821
1644.8793
1644.1647
1644.1707
1519.8079
1520.3826
1520.6593
1520.6065
1520.2432
1519.6274
1519.6216
1520.1746
1519.5849
1519.1791
1519.1942
1519.6313
1520.2511
1519.7215
1519.74
1520.3494
1520.6655
1520.6517
1520.3272
1519.7324
1644.0757
1644.0703
1644.8126
1643.7855
1642.7421
1641.8832
1640.7218
1639.1128
1635.7132
1512.9759
1511.8385
1512.5418
1514.2149
1515.186
1514.6354
1514.0888
1514.9071
1516.8937
1517.325
1517.508
1517.507
1517.3221
1516.8893
1514.9026
1514.0837
1514.6286
1515.1763
1514.1998
1512.5199
1511.8122
1512.9481
1515.4979
1516.7944
1517.8163
1518.5726
1519.4534
1520.2869
1519.8033
1411.5328
1411.5485
1411.9985
1412.2315
1412.1887
1411.885
1411.4017
1411.3905
1411.78
1411.3431
1411.0465
1411.0593
1411.3821
1411.8446
1411.4736
1411.4939
1411.9698
1412.2366
1412.2276
1411.9556
1411.4885
1411.4727
1519.7282
1520.2315
1519.4232
1518.5654
1517.8255
1516.8154
1515.5251
1407.8898
1405.9414
1404.968
1405.4339
1406.7435
1407.5823
1407.2034
1406.8359
1407.5212
1409.0214
1409.3876
1409.576
1409.5751
1409.3851
1409.0174
1407.5171
1406.8313
1407.1973
1407.5734
1406.7301
1405.4151
1404.9456
1405.9178
1407.867
1408.9244
1409.8133
1410.4664
1411.189
1411.852
1316.6125
1316.4082
1316.438
1316.7914
1316.9839
1316.949
1316.6986
1316.3187
1316.2981
1316.572
1316.2445
1316.0312
1316.0421
1316.2776
1316.6266
1316.3675
1316.3946
1316.7669
1316.9883
1316.9826
1316.7582
1316.3902
1316.3599
1316.5746
1411.8062
1411.1636
1410.4595
1409.8203
1408.9413
1314.1578
1313.2933
1311.7788
1310.9595
1311.2697
1312.2972
1313.0135
1312.7698
1312.5282
1313.0929
1314.2389
1314.5492
1314.7332
1314.7324
1314.5469
1314.2354
1313.0893
1312.5241
1312.7644
1313.0053
1312.2852
1311.2534
1310.9404
1311.7586
1313.2741
1314.1439
1314.9166
1315.4815
1316.0759
1231.881
1232.3247
1232.1994
1232.2418
1232.523
1232.6809
1232.6523
1232.4468
1232.145
1232.1154
1232.3088
1232.0579
1231.9068
1231.9161
1232.0862
1232.3552
1232.1737
1232.2078
1232.5025
1232.6848
1232.6814
1232.4973
1232.2037
1232.1603
1232.2933
1231.8626
1316.0543
1315.4752
1314.9219
1230.9043
1230.2405
1229.5265
1228.3309
1227.6475
1227.8554
1228.6643
1229.2724
1229.1306
1228.976
1229.4377
1230.324
1230.5838
1230.7577
1230.7569
1230.5818
1230.3209
1229.4345
1228.9724
1229.1257
1229.2651
1228.6537
1227.8413
1227.6311
1228.3137
1229.5105
1230.2291
1230.9003
1231.3897
1156.4606
1156.8693
1157.2445
1157.1724
1157.2241
1157.4524
1157.582
1157.5584
1157.3898
1157.1458
1157.1096
1157.2474
1157.0497
1156.9444
1156.9523
1157.0739
1157.287
1157.1589
1157.1981
1157.4355
1157.5855
1157.5836
1157.4326
1157.1937
1157.1406
1157.2184
1156.8535
1156.4551
1231.3839
1232.4334
1233.4913
1231.5997
1232.073
1233.0711
1229.5166
1230.3074
1231.3647
1231.9014
1231.4037
1230.6506
1155.9526
1154.4778
1154.8544
1155.5491
1155.7636
1155.9241
1155.9233
1155.7619
1155.5467
1154.852
1154.4751
1154.5693
1154.6348
1154.117
1153.4746
1153.3317
1153.899
1154.8579
1155.453
1156.0359
1088.9476
1089.3167
1089.6592
1089.9835
1089.9464
1090.0042
1090.194
1090.3008
1090.2811
1090.1419
1089.9406
1089.9003
1090.0003
1089.8393
1089.7672
1089.7742
1089.8604
1090.0345
1089.9423
1089.9846
1090.1799
1090.3039
1090.3031
1090.1785
1089.9797
1089.9203
1089.9615
1089.6455
1089.3116
1088.9493
1156.0387
1155.4622
1154.8712
1153.9134
1153.3454
1153.4863
1154.1258
1154.6408
1154.573
1087.7346
1087.6792
1087.987
1088.5393
1088.7134
1088.8591
1088.8588
1088.7126
1088.5382
1087.9865
1087.6787
1087.7333
1087.747
1087.3084
1086.7978
1086.6987
1087.1699
1087.9484
1088.4415
1028.0788
1028.518
1028.8393
1029.1285
1029.4144
1029.3997
1029.4604
1029.6224
1029.7116
1029.695
1029.5786
1029.4083
1029.3663
1029.4411
1029.305
1029.2569
1029.2632
1029.3237
1029.471
1029.4027
1029.4458
1029.6107
1029.7144
1029.7143
1029.6102
1029.4403
1029.3777
1029.3954
1029.116
1028.8337
1028.5178
1028.0826
1088.4486
1087.9588
1087.1809
1086.7088
1086.8061
1087.3141
1087.7502
1027.4884
1027.5079
1027.4785
1027.7317
1028.1774
1028.316
1028.4471
1028.4475
1028.3172
1028.1797
1027.7357
1027.4837
1027.513
1027.492
1027.1199
1026.7111
1026.6396
1027.0313
1027.6711
973.10761
973.44152
973.8223
974.10183
974.34733
974.60479
974.60318
974.66409
974.807
974.88341
974.86908
974.76951
974.62069
974.57923
974.6378
974.51754
974.48666
974.49227
974.53432
974.66444
974.61133
974.65331
974.79705
974.88582
974.88611
974.79701
974.64703
974.58404
974.58755
974.33496
974.09446
973.81834
973.43937
973.10517
1027.6771
1027.0368
1026.6433
1026.7125
1027.1187
972.62058
972.93449
972.97602
972.96206
973.17279
973.53908
973.64611
973.76394
973.76593
973.65207
973.54917
973.18807
972.9813
972.99669
972.95445
972.63808
972.30702
972.25088
972.57655
923.0413
923.48441
923.75044
924.07869
924.32074
924.5294
924.76737
924.7717
924.83018
924.96202
925.03032
925.01763
924.92903
924.79294
924.75409
924.80329
924.69024
924.6718
924.677
924.70573
924.82759
924.78311
924.82206
924.95328
925.03232
925.03287
924.95341
924.81506
924.75426
924.75064
924.51551
924.30914
924.06699
923.7361
923.46452
923.01127
972.57073
972.24081
972.29313
922.77583
923.04313
923.31007
923.36298
923.35551
923.53456
923.84264
923.92044
924.02792
924.03355
923.93754
923.87088
923.57581
923.40747
923.41969
923.36768
923.09768
922.82416
922.77204
877.55376
877.77085
878.13825
878.33414
878.61228
878.81866
878.99444
879.22295
879.2271
879.28057
879.41041
879.47592
879.46437
879.38052
879.24744
879.2132
879.25851
879.14237
879.13298
879.13792
879.1571
879.28131
879.24013
879.27418
879.40245
879.47756
879.47825
879.40264
879.26665
879.21048
879.20537
878.97667
878.79844
878.58517
878.29505
878.08252
877.69046
877.44875
922.73147
923.8058
924.30178
924.81989
925.04759
924.81223
924.35459
878.96525
877.98813
878.14541
878.41298
878.46128
878.56321
878.57648
878.50233
878.48007
878.24215
878.11041
878.13239
878.08166
877.85005
877.61535
836.13025
836.04034
836.20136
836.49533
836.60753
836.8323
837.00133
837.14514
837.37694
837.37536
837.42152
837.56111
837.63049
837.61977
837.53345
837.39112
837.36315
837.40908
837.27574
837.27272
837.27751
837.29005
837.43095
837.38868
837.41627
837.55377
837.63187
837.63267
837.55402
837.40849
837.35903
837.35702
837.12001
836.96498
836.77615
836.52069
836.37001
836.02257
835.80836
835.86487
877.49396
877.71649
877.9435
877.99841
836.29612
836.27145
836.41592
836.65849
836.67315
836.77674
836.8049
836.76159
836.80218
836.62198
836.53273
836.58259
836.54562
836.34555
798.13239
797.91472
797.76973
797.85857
798.06847
798.06881
798.22844
798.35379
798.46334
798.71478
798.70266
798.74041
798.90535
798.98624
798.97581
798.87896
798.71204
798.69111
798.74109
798.57157
798.57231
798.57698
798.5856
798.76223
798.71549
798.73608
798.89842
798.98777
798.98864
798.89876
798.72833
798.68653
798.69112
798.42619
798.28995
798.1218
797.89663
797.81767
797.50165
797.30657
797.38768
797.56036
836.05619
836.24861
797.72196
797.75193
797.69782
797.83661
798.06758
798.0399
798.15486
798.20944
798.21389
798.34947
798.24008
798.21101
798.3146
798.30689
763.02868
762.87478
762.63091
762.39625
762.37997
762.47802
762.32281
762.39428
762.46461
762.53525
762.82512
762.79972
762.83055
763.03872
763.14006
763.13015
763.01424
762.8052
762.78965
762.84529
762.6177
762.61887
762.62336
762.63123
762.86539
762.81255
762.82789
763.03272
763.14207
763.14303
763.03317
762.82019
762.7844
762.79701
762.4815
762.3592
762.20885
762.01204
762.02012
761.72722
761.54683
761.66795
761.83366
761.96707
761.9692
761.86812
762.00437
762.23331
762.15089
762.28792
762.38462
762.46401
762.74135
762.73259
762.79782
762.9888
730.4256
730.53129
730.394
730.10152
729.74081
729.56598
729.50008
729.13507
729.0845
729.08539
729.11362
729.45751
729.42228
729.45341
729.71976
729.84957
729.84085
729.6992
729.43439
729.41778
729.47633
729.17391
729.171
729.1751
729.1863
729.49446
729.43807
729.45455
729.71577
729.85151
729.85245
729.7161
729.44628
729.40966
729.42679
729.04232
728.92769
728.79288
728.62557
728.73477
728.46631
728.30306
728.47618
728.64271
728.74986
728.71672
728.55485
728.68439
728.91219
728.76372
728.92987
729.08597
729.27659
729.75196
729.89743
730.11134
700.21054
700.67325
700.85165
700.72834
700.37777
699.86637
699.4499
699.1277
698.50028
698.28995
698.21173
698.20196
698.5992
698.57441
698.62422
698.94785
699.10596
699.09964
698.93466
698.61716
698.58425
698.63005
698.25876
698.24751
698.25092
698.26905
698.64475
698.60014
698.63299
698.94781
699.10779
699.10847
698.94721
698.62268
698.56865
698.57292
698.12245
698.0075
697.88594
697.75211
697.96117
697.73975
697.61233
697.82947
697.98933
698.06937
698.00378
697.78522
697.89165
698.09924
697.88662
698.07763
698.30337
698.64356
699.37043
699.76352
672.61942
673.45057
674.05935
674.28031
674.1671
673.78749
673.13435
672.32628
671.56471
670.62757
670.2374
670.09029
670.05541
670.47336
670.5183
670.6237
670.97183
671.14589
671.1427
670.97016
670.63637
670.55508
670.53821
670.14584
670.13289
670.13538
670.15277
670.54776
670.56442
670.64452
670.97773
671.1483
671.14798
670.9757
670.63181
670.52645
670.46562
669.99356
669.8794
669.76845
669.66468
669.9444
669.85343
669.81186
670.01073
670.11333
670.15875
670.08537
669.85229
669.89818
670.0224
669.77498
669.97537
670.2584
670.76869
671.79657
647.21145
648.89064
650.36938
651.07587
651.24583
651.1393
650.82481
650.08096
648.62479
647.00052
645.65625
645.13477
644.96878
644.90167
645.23844
645.51541
645.71722
646.00703
646.25261
646.26824
646.03371
645.75368
645.58835
645.35922
645.06882
645.10829
645.1091
645.07115
645.36206
645.59067
645.75279
646.02015
646.25605
646.26981
646.03132
645.73746
645.54426
645.26822
644.89623
644.83478
644.73189
644.61305
644.8827
645.18292
645.32273
645.32161
645.24217
645.28563
645.22726
645.07424
644.98086
644.8352
644.65279
644.86456
645.15193
645.78463
623.08254
625.03432
629.0973
631.89085
632.20941
632.10787
632.01851
631.99204
631.6319
628.86088
624.84962
622.97257
622.17279
622.06801
622.37895
621.94178
623.41539
623.54398
623.61543
624.60737
624.61078
623.64536
623.60519
623.52481
622.12714
622.64274
622.39243
622.39179
622.64031
622.12413
623.51899
623.58913
623.63334
624.61064
624.60846
623.63471
623.57721
623.46884
622.02576
622.47125
622.12346
622.02866
622.21752
621.98435
623.99216
623.57413
623.06919
622.93004
623.74826
622.99667
622.9935
622.92136
621.59326
622.15962
621.97037
622.18521
605.01667
605.27878
607.20469
613.98877
619.39304
618.35257
617.99643
617.90329
618.16185
619.17402
613.78222
607.0623
605.16866
605.0496
604.92244
605.02654
604.95655
605.61761
605.80755
605.92569
605.97956
605.99467
605.97901
605.88903
605.74686
605.18548
605.34578
605.40796
605.41052
605.33374
605.16697
605.72896
605.87539
605.93925
605.98354
605.99302
605.95972
605.87062
605.697
605.06498
605.20464
605.12597
605.18458
604.95418
605.50994
609.19308
609.09985
606.35371
605.59078
605.46195
605.45687
605.37615
605.16657
604.66888
604.78046
604.84969
589.18845
589.13339
589.68757
591.56577
591.11316
590.4784
590.66957
590.42816
590.4594
590.844
591.60533
589.46248
589.36268
589.10428
589.75993
590.41079
589.74682
589.70038
591.23496
590.59193
590.61577
591.30588
589.77979
589.89593
590.70082
590.0841
589.83467
589.86191
590.03604
590.70144
589.85217
589.76195
591.23628
590.5908
590.61619
591.27906
589.72946
589.8977
590.51191
590.13121
589.40149
590.07634
589.59989
591.4137
588.90143
588.41699
591.0834
591.36462
590.31171
590.92071
589.47649
589.24912
590.30026
589.28651
589.07374
589.25023
591.22777
593.03787
596.65676
602.02107
606.01644
605.26531
600.95042
596.35465
593.35451
591.52809
589.52456
589.59538
591.60389
593.31622
597.54807
606.0175
618.88979
628.55315
629.20649
619.86402
606.4154
597.45445
593.25929
591.96726
589.43225
589.32758
604.12561
603.92909
607.59468
608.24896
618.01013
608.85894
608.09454
607.06051
608.40141
617.49348
607.96353
603.63766
603.83143
607.67918
607.41643
606.03693
591.27421
591.91594
594.26081
595.567
595.20208
593.05349
592.27176
592.15778
589.54831
589.83183
604.0544
603.85554
607.52697
617.54998
607.8981
608.61759
608.16217
606.39616
607.93575
611.40679
619.46521
610.69331
610.6765
611.38932
608.56199
603.86678
603.88193
608.40927
610.91554
610.83183
619.6464
608.96744
609.45802
605.71059
591.06069
592.22739
591.72233
591.76549
589.40912
589.0293
604.51527
608.51208
609.36561
619.01709
608.8588
604.4744
608.30281
606.99734
624.61649
625.51539
625.65571
622.897
623.82848
623.92689
624.45647
646.57468
672.00458
673.45338
671.47513
645.90403
647.54921
650.41943
646.74966
672.57296
674.43014
671.72026
646.54286
647.30723
672.62073
673.1238
647.74941
625.56706
607.0155
611.07186
608.88477
607.78696
612.25022
607.39806
626.06328
631.89069
638.56273
627.64715
630.25885
643.78442
622.81968
618.18519
638.92879
623.09764
612.6508
607.91586
607.39573
625.3582
626.80404
632.88042
629.06966
630.25517
615.16343
607.45777
605.44746
605.1918
605.05099
605.30749
607.24662
614.9582
614.92325
615.05817
615.14215
615.10062
631.27572
631.60853
633.13196
631.69657
610.67858
593.57243
600.54058
617.90263
637.23182
646.99512
648.8368
648.67679
646.68961
636.76411
632.28985
617.47938
614.639
614.72576
617.63627
632.99097
637.49682
647.88608
649.8434
649.8645
647.94195
637.69846
633.23151
618.04755
615.17828
615.19452
606.38007
596.93801
592.3537
589.48479
589.75931
592.14345
592.09467
592.10518
592.16014
589.74452
589.49601
592.32468
596.92356
606.44911
615.46946
615.52236
618.43431
633.71045
638.3777
649.04768
651.15428
651.45703
649.45996
638.97475
634.27595
618.63335
615.58383
615.37257
618.23376
632.87027
652.28106
663.65533
679.72768
696.92036
712.54935
719.72996
719.60975
712.36056
696.66726
679.67021
664.06473
652.76928
633.60613
619.77744
602.32395
594.68535
596.16651
606.62854
629.28517
648.34241
638.02785
659.05741
672.82102
696.40631
708.92153
718.47207
728.26626
734.79355
739.47945
741.56743
741.583
739.50706
734.97585
728.41508
718.72776
709.10445
696.50959
718.56529
728.91735
739.56785
746.50047
751.74772
753.9965
753.99937
751.74394
746.43928
739.44908
728.72852
718.43473
728.12376
711.81386
688.00602
672.9135
675.57439
650.25427
650.21531
629.24074
606.6129
596.15984
594.68084
602.31116
619.65602
637.81155
648.20257
672.76881
675.53523
691.62554
691.67569
718.84762
739.13808
734.52462
746.22892
739.33315
749.71924
757.76349
763.39523
766.09511
766.07966
763.34568
757.74656
749.77913
739.47421
728.18499
711.80065
734.61159
746.39196
757.69944
766.92824
773.20748
776.30862
776.42167
773.32634
766.97895
757.67127
763.28021
751.46227
753.69971
741.14254
741.13958
718.79103
739.04319
751.39073
753.6952
765.89912
765.9624
776.27632
773.22918
780.11098
783.44601
783.34708
780.00837
773.15919
763.28558
751.60956
739.18402
718.83855
741.1593
753.78597
765.93362
776.13813
783.27263
786.79054
786.85965
783.44299
783.35609
776.26609
773.11644
763.09168
757.44854
746.0529
734.38096
711.58974
687.83657
672.50962
658.82592
652.41835
633.30155
618.05515
630.92712
640.9093
663.63544
679.16925
695.94989
718.04173
727.82638
739.03814
749.3299
757.36653
766.67975
773.04442
779.90842
783.29553
786.7904
786.71217
783.19618
776.18834
765.85558
753.71621
741.07073
718.67827
738.93918
751.38606
763.139
773.06485
779.7883
783.17825
776.09417
776.10814
765.64563
762.93664
751.13878
745.8775
738.93096
728.25901
717.94264
708.44524
695.83121
711.29117
727.62304
734.12802
738.73267
740.73777
753.33371
753.30482
765.55715
762.89057
772.95926
766.71308
757.43079
746.06229
734.30634
711.37598
727.74179
739.05068
749.36861
757.35576
745.88236
751.04178
738.67817
740.69632
718.35247
718.33219
691.13417
687.44974
672.37308
663.57517
652.34904
630.9332
624.94284
634.94324
638.91024
666.33593
671.44084
688.57159
690.70769
690.71586
688.64598
671.58108
666.49396
639.31097
618.41707
631.45457
625.36536
631.43924
652.96167
659.47969
673.60096
676.45704
676.68458
673.95608
659.89375
653.40618
631.51844
625.38959
631.42239
641.5836
664.6013
673.57278
688.96648
692.71108
692.48676
688.59897
673.23736
664.18166
641.53057
645.30416
639.25417
666.62969
671.77931
688.99786
691.16558
691.38858
689.31111
672.13204
666.98551
639.29943
635.23376
644.85337
639.25715
645.32579
671.91388
682.22736
678.93019
696.27771
704.95206
699.12363
726.95488
719.80728
704.12176
686.6332
670.86531
665.84711
680.93148
670.85617
658.52231
672.35826
687.17643
671.96199
674.55996
690.79798
690.66653
674.39473
671.63105
686.80549
671.8255
695.81032
708.34108
717.95097
727.66222
734.17417
711.28926
695.72909
678.84606
662.93538
651.6633
658.02106
670.44962
687.15035
689.26189
689.4301
687.41843
702.92306
694.40504
677.69161
703.70291
715.3873
727.08342
739.54693
733.42226
723.68606
733.83268
723.53548
733.35575
739.54907
752.89682
746.97469
734.83271
740.47829
751.70609
761.23263
757.87722
751.59413
745.24707
755.08767
745.18693
734.60639
719.05055
746.80166
761.07231
752.76585
757.80588
751.47645
740.11057
751.53037
757.08869
745.27688
726.03718
697.14643
697.01921
702.70696
694.094
677.22903
680.54696
665.39331
670.35509
685.97149
703.13034
718.6736
725.88908
746.8704
746.9721
758.98362
757.54784
770.39626
764.16056
765.77089
759.06634
771.2403
768.62659
762.9894
769.97834
762.01304
769.99876
762.99266
772.45838
779.83049
786.28593
775.62993
764.23621
757.77185
745.58157
747.40393
759.23383
770.61548
765.79575
759.21802
757.14781
768.63749
771.36099
778.28129
789.36092
781.85568
778.77787
785.63456
778.78633
786.27018
775.60818
778.19902
789.2656
781.69975
788.93105
796.42752
793.14668
796.51164
788.93577
792.44458
799.91347
808.59318
805.24266
798.07005
786.00754
783.37573
777.74094
769.29411
779.1954
787.9181
798.16957
787.91393
777.70418
788.46695
794.99553
804.57828
793.40166
796.16208
807.61858
817.27866
804.18302
789.87113
755.3858
747.41064
730.69166
711.59633
696.16444
713.83516
730.13801
737.33778
737.20804
704.68024
698.83734
695.91025
678.62491
681.86787
671.56995
686.71567
703.93061
719.65079
726.82199
747.33847
759.20055
770.60376
757.67699
745.53872
757.18478
759.24165
765.82305
764.1964
757.9067
751.64141
740.2887
734.72753
746.9138
761.22345
752.80426
745.1687
751.56114
763.03454
768.73384
771.37652
778.29054
775.68965
786.40893
789.42882
782.01687
778.92942
772.53531
779.93213
769.99578
762.03117
755.08558
762.99155
770.01998
775.66473
786.37188
793.33308
796.58253
789.07636
785.72891
789.11977
792.52365
800.00355
796.65539
789.4223
781.86044
778.81347
768.65938
771.28693
778.27682
765.70627
764.09627
757.77069
752.77593
739.48219
733.33903
723.47319
715.2553
703.87194
727.00504
739.49516
733.30446
723.42885
733.67688
745.05902
734.58269
719.40329
746.81943
761.10484
751.45451
740.08086
751.3808
756.94083
745.28299
726.41728
757.57674
770.43756
758.95218
746.98187
758.98201
759.01144
771.24263
781.89621
789.05079
792.49717
792.40296
788.88076
781.78397
771.1611
758.98496
765.63079
758.87538
770.28568
757.32274
745.03367
756.84069
763.89159
757.53035
751.22132
739.79653
751.19483
744.80401
734.21623
746.47887
760.777
752.45957
761.67958
769.74161
775.42492
778.10543
789.21699
786.13509
778.67215
768.48871
762.72689
772.24779
779.63202
769.68796
762.68337
754.75823
744.73466
738.99011
728.2692
717.92192
722.94018
732.85875
738.99815
739.04301
733.26714
722.96214
703.23256
714.69084
726.50804
732.90229
746.41723
752.39053
760.68376
757.34704
751.04716
739.66791
718.89453
734.12084
751.06141
757.16135
763.67292
775.29506
786.04985
793.08544
796.40255
799.89777
796.43496
788.81987
785.42256
778.53088
781.70517
789.15621
777.9344
770.90164
768.21028
756.50508
758.63653
765.3006
770.02793
758.49706
725.92517
744.76792
746.5164
746.56615
758.68409
771.00436
781.76839
788.96735
796.51657
799.99402
796.57713
793.21413
785.63181
778.77473
786.29143
789.33718
778.24624
775.5599
768.47792
762.79759
772.29016
778.70062
786.2313
789.24824
778.0064
775.42518
768.33033
762.72452
769.7976
779.72421
769.85269
761.77545
754.77891
744.85313
751.28641
756.9112
764.02001
765.68301
770.38916
758.9655
726.38761
746.96369
745.18379
757.49316
751.39363
757.6358
760.93955
752.54515
746.62131
719.23408
739.93383
734.34671
723.12097
733.32236
744.7367
751.10864
756.6501
763.7529
765.34188
770.07859
758.57467
725.92813
744.85464
757.16067
751.18483
757.46047
760.7822
752.41961
746.44222
718.93928
739.68475
734.14297
723.01634
703.41421
732.9662
739.13078
739.10734
733.07824
703.53185
714.85324
726.72979
686.41536
696.06397
713.39618
729.76498
736.89481
736.89848
729.87663
713.67432
696.29182
713.68167
730.0318
747.25485
755.30448
789.87688
779.73985
799.57271
762.20565
741.63569
677.02651
643.08506
628.66029
624.78392
607.22944
609.74362
608.53751
626.54652
625.77639
625.46844
624.78175
622.85135
625.86956
631.3182
637.61343
617.12586
621.97524
649.80678
650.41398
677.45719
663.7356
645.94663
633.51345
645.94201
622.81242
605.84775
596.58325
593.13645
609.92757
612.70784
617.72495
639.25378
643.96926
621.39292
603.41227
626.14132
625.98147
603.31175
594.10665
594.20847
611.46056
611.38488
633.05821
631.5253
631.07799
631.52485
610.52357
593.45603
600.37738
617.61151
605.54711
596.42189
592.97469
591.91965
593.21534
597.35877
606.14392
619.46228
629.04064
629.06628
619.58653
606.35941
597.68707
593.40015
591.70409
589.64906
589.78532
591.61209
593.39983
596.93332
602.27226
606.53569
606.52242
602.20016
596.76393
593.12958
591.28377
589.43178
589.33539
603.86702
604.09677
608.05353
608.81816
608.19375
617.93959
607.52452
624.38851
625.21418
628.87336
630.02413
650.12048
651.37323
652.06554
652.15608
651.59226
650.378
674.31319
701.39199
731.30062
733.46404
731.73197
730.47464
699.98089
701.58228
699.59041
730.21011
732.02022
735.08596
731.22102
700.70121
702.47248
699.67009
730.19732
730.97942
700.54956
701.03646
731.40595
737.09584
735.42225
732.82215
739.62072
709.75539
704.85919
676.71287
681.80835
655.56205
648.6909
651.51305
677.35056
679.20559
653.31311
668.40712
662.68499
689.0281
695.0994
722.96261
707.10174
705.29958
716.81167
746.288
752.30629
797.15404
776.78162
754.9505
741.88418
735.27051
705.14909
701.48064
673.70138
648.3627
651.06964
677.15338
682.51394
675.9819