/*--------------------------------*- C++ -*----------------------------------*\
  =========                 |
  \\      /  F ield         | OpenFOAM: The Open Source CFD Toolbox
   \\    /   O peration     | Website:  https://openfoam.org
    \\  /    A nd           | Version:  7
     \\/     M anipulation  |
\*---------------------------------------------------------------------------*/
FoamFile
{
    version     2.0;
    format      ascii;
    class       volScalarField;
    location    "90";
    object      nut;
}
// * * * * * * * * * * * * * * * * * * * * * * * * * * * * * * * * * * * * * //

dimensions      [0 2 -1 0 0 0 0];

internalField   nonuniform List<scalar> 
24866
(
7.9871356
7.9939633
7.9907859
8.1778772
8.34244
8.3402624
8.336201
8.3404646
8.3397339
8.3348704
8.3351306
8.3351673
8.3348938
8.3397677
8.3405476
8.3361861
8.3400876
8.3413815
8.3405199
8.3359941
8.3259472
8.3403591
8.3708345
8.3582262
8.3324997
8.3285499
8.3363989
8.3604138
8.3556676
8.3291457
8.3383246
8.3413921
8.3413931
8.3383329
8.3291933
8.355715
8.3605212
8.3364912
8.3284418
8.3323263
8.358159
8.3707893
8.3403494
8.3259497
8.3360188
8.3405699
8.3414015
8.3401627
8.3361954
8.3404709
8.3398509
8.3349903
8.335128
8.3351426
8.3349533
8.3397322
8.3403457
8.3360847
8.3402264
8.3424875
8.3463461
8.3431124
8.3463375
8.3430537
8.3368248
8.3395651
8.3453971
8.3420152
8.334427
8.3344147
8.3344391
8.3344308
8.3420668
8.3454462
8.3395725
8.3366941
8.3425454
8.3453012
8.3417845
8.3429121
8.337668
8.3299889
8.3283387
8.3390901
8.3427738
8.3480367
8.3326385
8.3287031
8.3364108
8.3485094
8.3426931
8.3379986
8.3369822
8.3377791
8.3361347
8.3335112
8.3360501
8.3350034
8.3385974
8.3361764
8.3339798
8.3336445
8.3336962
8.3343288
8.3350399
8.3350421
8.3348628
8.3377238
8.3367931
8.3364936
8.3331123
8.3401473
8.3441447
8.3419295
8.3378152
8.3354802
8.3346242
8.3341176
8.3344671
8.3347832
8.3347132
8.3341972
8.3345921
8.3338336
8.3333659
8.3340015
8.3360048
8.333551
8.332843
8.3330736
8.3339658
8.3348381
8.3353571
8.3351048
8.3351934
8.3348855
8.3344706
8.3348678
8.3346264
8.3367969
8.3378182
8.3331203
8.3401505
8.3441465
8.2387928
8.2354673
8.1650566
8.1703747
8.1771268
8.1771237
8.1703664
8.1680426
8.1366847
8.2614392
8.2641287
8.1430928
8.1679658
8.1698923
8.1639899
8.1380045
8.0966437
8.1118258
8.1576951
8.168836
8.1759799
8.1755517
8.1747242
8.1727081
8.1718564
8.1691774
8.1670744
8.1591507
8.1591112
8.1670623
8.1690822
8.1715925
8.1731115
8.1744524
8.1675745
8.1752217
8.2404414
8.238721
8.1677431
8.1032951
8.1763665
8.1780564
8.1699248
8.3391133
8.3357885
8.3391203
8.336225
8.3339467
8.3359588
8.333528
8.3328141
8.3330321
8.3339021
8.334748
8.3352506
8.3353618
8.3354649
8.3351981
8.3347911
8.335051
8.33699
8.3377289
8.3427039
8.336504
8.1702162
8.1797998
8.2019915
8.2614965
8.1366384
8.1680224
8.0008548
7.9886463
7.9903559
7.9903521
7.9886384
8.0008642
7.9665349
7.9658605
7.9851513
8.0061591
7.9844739
7.9615817
7.9478304
7.9643316
7.989956
7.9881487
7.9893657
7.9881996
7.9941963
8.0056312
7.9885324
7.9860222
8.000951
7.992103
7.9921619
8.0010428
7.9859981
7.9882802
8.0060851
7.841417
7.8316432
7.8254417
7.8256758
7.8313791
7.9936718
8.1741975
8.1732224
8.171428
8.1691632
8.1670556
8.159128
8.1591319
8.1671941
8.1689371
8.1719935
8.1727217
8.1749449
8.1754874
8.1761252
8.1688124
8.1577349
8.1118735
8.2303159
8.2760796
8.2633094
8.138103
8.1641247
8.1699919
8.1678303
8.142876
8.2641617
8.2086385
8.1431594
8.1401221
8.1017472
8.1681591
8.1637739
8.1957201
8.234489
8.3485552
8.3364456
8.3286825
8.3380038
8.3427635
8.337788
8.3350531
8.334726
8.3351142
8.3346056
8.3348465
8.3347517
8.3343156
8.333669
8.3332815
8.3340405
8.3335031
8.3336717
8.3339088
8.3339768
8.3338497
8.3336655
8.3342145
8.3343471
8.3361493
8.3390853
8.3283483
8.3335362
8.3337205
8.335032
8.3340041
8.3333832
8.3330863
8.3330418
8.3332864
8.3340402
8.3362193
8.3339545
8.3328266
8.3328582
8.3340186
8.3362044
8.3386353
8.3418123
8.3360815
8.3300213
8.3377099
8.3429501
8.2372555
8.172398
8.1621117
8.2333943
8.16403
8.1730706
8.0994356
7.9851885
7.9881128
7.990003
7.964373
7.9478598
8.096794
8.1228754
8.13303
8.1837904
8.1918783
8.2021104
8.1662845
8.0995573
8.1359748
7.9686189
7.9616077
7.9844901
8.0061799
7.9851345
7.9658569
7.9665533
7.8123594
7.836258
7.8261061
7.8251508
7.8251476
7.8261012
7.8362686
7.8123486
7.807337
7.8213872
7.8439425
7.8209397
7.8017344
7.7997502
7.8185991
7.8287095
7.8253448
7.8239424
7.8231555
7.8317999
7.840984
7.8266022
7.8238707
7.8402489
7.834908
7.8348743
7.8402678
7.8239009
7.8264251
7.6804912
7.6913921
7.6851713
7.678909
7.6790881
7.6849526
7.6915059
7.841552
8.0062141
7.9881283
7.986145
8.0008615
7.9921127
7.99222
8.0011119
7.9859168
7.9887355
8.00555
7.9944497
7.9881211
7.9895324
7.824079
7.8253027
7.8287511
7.8186437
7.7997691
7.8017601
7.8209732
7.8439754
7.8213524
7.8073117
7.6656864
7.6713639
7.6867361
7.6799582
7.6785369
7.6785338
7.6799547
7.6867449
7.6713552
7.6657082
7.6753458
7.6955558
7.67441
7.6588503
7.6621465
7.6796605
7.6816208
7.6790456
7.6772079
7.6768558
7.6851409
7.6909645
7.6805904
7.6782807
7.6919817
7.6886774
7.6886991
7.6920769
7.6783488
7.5459966
7.5475975
7.554859
7.5515304
7.5460859
7.5462151
7.5513586
7.5549443
7.547484
7.5460077
7.678408
7.8240044
7.8401372
7.8349282
7.8349408
7.8402855
7.8238253
7.8268326
7.8408869
7.8320266
7.8230827
7.6767969
7.6773087
7.6790034
7.6816519
7.6797011
7.6621549
7.6588697
7.6744443
7.6955897
7.6753135
7.5430176
7.5364766
7.54178
7.5509684
7.5469096
7.5455854
7.5455821
7.5469069
7.5509748
7.5417736
7.5364956
7.543046
7.5598199
7.5414267
7.5289911
7.5346261
7.5498887
7.5477612
7.5459223
7.5442377
7.5441877
7.5512975
7.5544268
7.5476173
7.5458881
7.5563433
7.5543966
7.5544455
7.5564823
7.4331735
7.4255238
7.4266081
7.4311125
7.429746
7.4253989
7.4254884
7.4296139
7.4311698
7.4265032
7.4254893
7.4329234
7.5562463
7.6918771
7.6887025
7.6887622
7.6920588
7.678281
7.6808197
7.6908769
7.6853241
7.5514389
7.5441428
7.5443067
7.5458827
7.547782
7.5499227
7.5346289
7.5290057
7.5414602
7.559853
7.43624
7.4229318
7.4185065
7.423028
7.4280228
7.4258176
7.4247987
7.4247952
7.425815
7.4280268
7.4230237
7.4185232
7.4229559
7.4362092
7.4207009
7.4109352
7.4173049
7.430156
7.426246
7.42485
7.4234808
7.4236096
7.4293348
7.430666
7.4265543
7.4253834
7.4330073
7.4319466
7.4320127
7.3205095
7.3211476
7.3157116
7.316364
7.3189347
7.318786
7.3155276
7.3155877
7.3186843
7.3189678
7.3162641
7.3156395
7.3208955
7.320442
7.431961
7.5544186
7.554497
7.5564475
7.5459294
7.5478349
7.5543644
7.4306308
7.4294424
7.4235762
7.4235249
7.4248139
7.4262579
7.4301828
7.4173045
7.4109464
7.4207325
7.3109798
7.3238293
7.313672
7.3106958
7.3143184
7.316578
7.3155391
7.3148706
7.3148672
7.3155363
7.3165798
7.3143158
7.3107105
7.313692
7.3238011
7.3109504
7.3033956
7.3096991
7.3202954
7.3158137
7.3146494
7.3136016
7.31382
7.3182287
7.3184666
7.3162432
7.3155453
7.320965
7.3204334
7.2185011
7.2185821
7.218938
7.2151413
7.2154533
7.2167303
7.2172862
7.2149808
7.2150201
7.2172069
7.2167434
7.2153555
7.2150404
7.2186906
7.2185057
7.2186008
7.3205363
7.4320502
7.4331295
7.4254586
7.4267579
7.3164334
7.318456
7.3183112
7.3137958
7.3136276
7.3146167
7.3158185
7.3203152
7.309697
7.3034045
7.204912
7.2106967
7.2212505
7.2137134
7.2117313
7.2144833
7.2150092
7.2146592
7.2143071
7.2143038
7.2146562
7.2150093
7.2144819
7.2117441
7.2137297
7.221225
7.2106698
7.2049049
7.2107817
7.2193986
7.2149345
7.2138776
7.2130948
7.2133415
7.2166144
7.2162364
7.2152723
7.214953
7.218746
7.1248421
7.1247357
7.1248196
7.1250414
7.1224213
7.1224734
7.1229166
7.1238406
7.1223134
7.1223381
7.1237771
7.1229136
7.1223756
7.1222991
7.124801
7.1247373
7.1248303
7.1249855
7.2188853
7.3210981
7.3156474
7.2150749
7.215451
7.2162463
7.2166795
7.2133243
7.2131082
7.2138479
7.2149338
7.2194122
7.2107786
7.119363
7.1140621
7.1184162
7.127049
7.1216035
7.1203015
7.1222758
7.1217348
7.1217575
7.1216566
7.1216535
7.1217543
7.1217336
7.1222751
7.1203126
7.1216166
7.1270261
7.1183917
7.1140563
7.1193667
7.1263018
7.1221186
7.1210976
7.120506
7.1207392
7.1230834
7.1223959
7.1222393
7.1222128
7.0361419
7.0379594
7.037907
7.0379925
7.0381639
7.036369
7.0362289
7.0361572
7.0372326
7.0363113
7.0363259
7.03718
7.0361414
7.0361298
7.0362315
7.0379318
7.0379065
7.0379956
7.0381048
7.0362875
7.1223489
7.1224086
7.1224224
7.1231369
7.1207271
7.1205108
7.1210704
7.1221137
7.1263102
7.0399151
7.0343738
7.0296724
7.032895
7.0399454
7.0361253
7.0352834
7.0365966
7.0354278
7.0356182
7.0356978
7.0356949
7.0356146
7.0354256
7.0365964
7.035293
7.0361357
7.0399249
7.0328729
7.0296675
7.034378
7.0399111
7.0361091
7.0350827
7.0346126
7.034805
7.0364155
7.0356112
7.0359486
6.9554553
6.9558076
6.9570728
6.9570315
6.9571175
6.9572812
6.9560519
6.9557751
6.9554053
6.9564955
6.956028
6.9560356
6.9564503
6.9553792
6.9556739
6.9559039
6.957058
6.9570297
6.9571139
6.9572185
6.9559593
6.9556107
7.0361103
7.0356507
7.0364614
7.0347968
7.0346115
7.0350574
7.0361009
6.9559081
6.9593186
6.9549341
6.9508154
6.9531513
6.9589085
6.9563261
6.9557891
6.9565608
6.9550516
6.9552799
6.9554763
6.9554736
6.9552762
6.9550487
6.9565608
6.9557973
6.9563341
6.9588901
6.9531315
6.9508114
6.9549387
6.9593184
6.955919
6.9548638
6.9544583
6.9545942
6.9556397
6.954837
6.879271
6.8800283
6.8804904
6.8813902
6.8813421
6.8814281
6.8816015
6.8807503
6.8803815
6.8798581
6.8808804
6.8807403
6.8807429
6.8808399
6.8798236
6.880278
6.8805956
6.8813874
6.8813399
6.8814184
6.8815349
6.8806453
6.8801784
6.8793281
6.9548865
6.9556808
6.9545889
6.9544532
6.9548399
6.8796708
6.8807763
6.8837988
6.8803562
6.8767804
6.8784278
6.8831324
6.8814752
6.8811337
6.881476
6.8798131
6.8800008
6.8802618
6.8802592
6.879997
6.8798096
6.8814761
6.8811406
6.8814815
6.883116
6.8784101
6.8767772
6.8803614
6.8838017
6.8807893
6.8796938
6.879311
6.879383
6.8800026
6.8089131
6.8082896
6.8090936
6.8096266
6.8102935
6.8102349
6.8103206
6.810507
6.8099008
6.8094748
6.8088919
6.8097997
6.8098861
6.8098853
6.809762
6.8088506
6.8093692
6.8097421
6.8103018
6.8102328
6.8103054
6.8104362
6.8097828
6.8092392
6.8083524
6.8089498
6.8800409
6.8793799
6.8793032
6.8085919
6.8089679
6.8101151
6.8127811
6.8100992
6.8070167
6.8081351
6.8119842
6.8110062
6.8107834
6.8107954
6.8090978
6.809201
6.8094867
6.8094842
6.8091971
6.8090941
6.8107956
6.8107893
6.811011
6.8119697
6.8081195
6.8070144
6.8101051
6.8127868
6.81013
6.8089903
6.8086015
6.8086081
6.7418151
6.7418924
6.7413933
6.742186
6.7427602
6.7432861
6.7432209
6.7433058
6.7435014
6.743047
6.7425905
6.7420071
6.7427773
6.7430128
6.7430095
6.7427413
6.7419602
6.742483
6.7428865
6.7433049
6.7432193
6.7432858
6.7434259
6.7429159
6.7423275
6.7414601
6.741928
6.7418146
6.8086065
6.8121408
6.8152539
6.8122278
6.8130673
6.8147885
6.8137368
6.8142824
6.8147434
6.8154569
6.8155184
6.8141495
6.7471145
6.7443077
6.7440733
6.7424149
6.7424124
6.7426942
6.742692
6.7424087
6.7424114
6.7440738
6.7443132
6.744469
6.7449427
6.7417879
6.7410836
6.7437325
6.7458055
6.7434674
6.7422842
6.7418717
6.6787383
6.6786231
6.6785388
6.678168
6.6789149
6.6795083
6.6799564
6.6798915
6.6799756
6.6801726
6.6798057
6.679338
6.6787896
6.6794139
6.6797403
6.6797355
6.679379
6.6787383
6.679229
6.6796452
6.6799847
6.6798907
6.6799513
6.6800925
6.6796622
6.6790524
6.6782377
6.6785739
6.6786234
6.6787262
6.7418607
6.742262
6.7434507
6.7457972
6.7437255
6.7410845
6.7418011
6.7449549
6.7444648
6.6814742
6.681346
6.6809336
6.6793585
6.679243
6.679502
6.6795002
6.67924
6.6793559
6.6809355
6.6813525
6.6814795
6.6816145
6.6790257
6.6786209
6.6808782
6.6824647
6.680408
6.6791844
6.6193534
6.6188696
6.6187014
6.6185051
6.6182597
6.6189415
6.6195386
6.6199524
6.6198967
6.6199796
6.6201689
6.6198447
6.6193791
6.6188855
6.6193639
6.6197389
6.6197328
6.6193296
6.6188308
6.6192693
6.6196857
6.6199894
6.6198969
6.6199516
6.6200843
6.6196896
6.6190749
6.6183309
6.6185395
6.6187016
6.6188557
6.6193289
6.6791617
6.6803892
6.682453
6.6808687
6.6786191
6.679035
6.6816231
6.6216294
6.6217098
6.6215845
6.6210488
6.6195811
6.6193534
6.6195783
6.6195772
6.6193525
6.6195818
6.6210549
6.6215959
6.6217207
6.6216288
6.6195016
6.6193158
6.6212262
6.6224246
6.6206145
6.5637885
6.5624907
6.5619682
6.5617527
6.5614808
6.5613557
6.5619627
6.562553
6.5629638
6.5629267
6.5630084
6.56318
6.5628657
6.5624108
6.561982
6.5623176
6.5627112
6.5627042
6.5622837
6.5619248
6.562301
6.5627094
6.5630086
6.5629279
6.562977
6.5630908
6.5627
6.5620918
6.5614272
6.5615136
6.5617513
6.5619505
6.5624608
6.563757
6.6205917
6.6224072
6.6212109
6.6193074
6.6195029
6.5629092
6.564658
6.5648824
6.5647399
6.5641234
6.5627757
6.5624397
6.5626251
6.5626258
6.562444
6.5627847
6.5641414
6.5647659
6.5649094
6.564676
6.5629265
6.5628948
6.564496
6.565384
6.5110662
6.5096556
6.5083166
6.5077558
6.5074978
6.507176
6.5071676
6.5076954
6.508272
6.5087046
6.5086965
6.5087768
6.5089197
6.5085894
6.5081502
6.5077904
6.5079854
6.5083769
6.5083693
6.5079519
6.5077316
6.5080411
6.5084366
6.5087564
6.5086989
6.5087426
6.5088263
6.5084142
6.5078197
6.5072377
6.5072056
6.5074917
6.5077297
6.5082739
6.5096048
6.5110091
6.5653544
6.5644661
6.5628698
6.509045
6.5089803
6.5104183
6.5107209
6.5105441
6.5098797
6.5086576
6.5082172
6.5083629
6.5083675
6.5082339
6.508687
6.5099266
6.5106063
6.5107882
6.51048
6.5090402
6.5091089
6.5104291
6.4587815
6.4592097
6.4579549
6.4565609
6.45596
6.4556619
6.4553074
6.4554164
6.4558632
6.456422
6.4568993
6.4569318
6.4570106
6.4571129
6.4567423
6.4563211
6.4560318
6.4560838
6.4564589
6.456451
6.4560507
6.4559721
6.4562134
6.4565938
6.4569575
6.4569358
6.4569741
6.4570155
6.4565588
6.4559822
6.4554835
6.4553311
6.4556456
6.455916
6.4564897
6.4578621
6.4590932
6.458641
6.5103647
6.5130622
6.5140213
6.514665
6.5151737
6.5146443
6.5128369
6.4612297
6.4587309
6.4580443
6.4569509
6.4564066
6.4565166
6.4565302
6.4564511
6.4570256
6.458156
6.4588752
6.4591183
6.4587891
6.4576043
6.4577264
6.4085347
6.4093252
6.4095672
6.4084353
6.4069575
6.4063092
6.4059694
6.4055922
6.4058264
6.4061906
6.4067297
6.4072772
6.4073643
6.4074415
6.4074893
6.4070517
6.4066488
6.4064303
6.4063287
6.4066773
6.4066692
6.406296
6.4063703
6.406543
6.406908
6.4073416
6.4073702
6.4074034
6.4073883
6.4068613
6.406304
6.4058884
6.4056053
6.4059328
6.4062297
6.4068288
6.4082578
6.4093301
6.4090286
6.4082082
6.4575763
6.4574505
6.4586315
6.4589603
6.409337
6.4090326
6.408343
6.4073814
6.4067278
6.4068103
6.4068423
6.4068291
6.4075491
6.4085878
6.4093458
6.409681
6.4093776
6.408403
6.3612621
6.3613582
6.3618656
6.3619213
6.3608697
6.3592582
6.3585444
6.3581546
6.3577589
6.358135
6.3584143
6.358935
6.359584
6.3597412
6.3598168
6.3597938
6.3592581
6.358871
6.3587236
6.3584473
6.3587612
6.3587529
6.3584149
6.3586635
6.3587672
6.3591195
6.3596545
6.3597499
6.3597782
6.35969
6.3590616
6.3585222
6.3581899
6.3577544
6.3580821
6.3584005
6.3590225
6.3605339
6.3614575
6.3612743
6.3606989
6.3605586
6.4080586
6.4090251
6.3613441
6.3616014
6.3611928
6.3605139
6.3596885
6.3589118
6.3589788
6.359045
6.3591196
6.3600303
6.3610093
6.3618249
6.3622964
6.3620633
6.3167477
6.3160899
6.3161033
6.3162897
6.3161306
6.3150981
6.3132779
6.3124646
6.3120078
6.3115933
6.3121363
6.3123289
6.3128366
6.3136232
6.3138695
6.3139441
6.3138324
6.3131619
6.3127846
6.3127084
6.3122269
6.3124973
6.3124889
6.3121946
6.3126479
6.3126829
6.3130285
6.3137008
6.3138815
6.3139048
6.3137253
6.3129593
6.3124323
6.3121825
6.3115638
6.3118792
6.3122152
6.3128615
6.3144908
6.3152751
6.3151872
6.3148674
6.3147667
6.3153972
6.315566
6.3150172
6.3143551
6.3136694
6.3127483
6.3128131
6.3129375
6.3131367
6.3143088
6.3152821
6.3161995
6.3168657
6.2734568
6.2734982
6.2729584
6.2728421
6.2726565
6.2722211
6.2711128
6.2689884
6.2680248
6.2674748
6.2670406
6.2677761
6.2678865
6.268394
6.2693543
6.2697079
6.2697832
6.2695663
6.2687261
6.2683464
6.2683371
6.2676199
6.2678368
6.267828
6.2675867
6.2682752
6.2682454
6.2685963
6.2694407
6.2697231
6.2697411
6.2694541
6.2685148
6.2679879
6.2678151
6.2669814
6.2672707
6.2676222
6.2682994
6.2700853
6.2707475
6.2707436
6.270692
6.2706535
6.2711495
6.2712013
6.270478
6.2698279
6.2692772
6.2681881
6.2682609
6.2684748
6.26885
6.2703751
6.2714332
6.2725276
6.2311716
6.2324268
6.2326547
6.2322122
6.2319365
6.2313319
6.2305089
6.2291708
6.2266399
6.2254637
6.2247946
6.2243446
6.225281
6.2253379
6.2258722
6.2270244
6.2274949
6.2275729
6.227245
6.2262193
6.2258145
6.2258475
6.2248894
6.225045
6.2250355
6.2248544
6.2257829
6.2257125
6.2260912
6.2271237
6.2275145
6.2275267
6.227124
6.2259952
6.225444
6.2253214
6.2242638
6.2245141
6.224879
6.2255985
6.2275635
6.2281479
6.2282427
6.2284503
6.2284733
6.2288473
6.2287684
6.2278568
6.2271965
6.2267485
6.225481
6.2255617
6.2258924
6.2265038
6.2284809
6.2297756
6.190978
6.1929056
6.194527
6.1949261
6.1945608
6.1941389
6.193096
6.1916695
6.1898168
6.1867851
6.1853426
6.1845511
6.1840923
6.1851841
6.1852852
6.1858963
6.1872113
6.1878021
6.1878859
6.1874495
6.1862718
6.1857985
6.1857865
6.1846478
6.1847505
6.1847399
6.1846094
6.1857169
6.1856927
6.1861405
6.1873272
6.1878271
6.1878345
6.1873152
6.1860296
6.185408
6.1852451
6.1840208
6.1842346
6.1846106
6.1853763
6.1874963
6.1881477
6.1883977
6.1887838
6.1888023
6.1890612
6.1888653
6.1878074
6.1870828
6.1866246
6.185215
6.185295
6.1857431
6.1866408
6.1891645
6.1529668
6.1559539
6.1588222
6.1607797
6.1612577
6.1609548
6.1604798
6.1590416
6.1566196
6.1536056
6.1499853
6.1482796
6.1473997
6.146921
6.1479476
6.1484315
6.1491798
6.1504963
6.1513142
6.1514204
6.1507747
6.1495944
6.1489973
6.1486201
6.147547
6.1476498
6.1476376
6.1475043
6.1485445
6.1488874
6.1494567
6.1506338
6.1513467
6.1513663
6.1506271
6.149332
6.1485846
6.1480618
6.1469157
6.1471457
6.1475331
6.1483183
6.1504274
6.1516233
6.1521088
6.1524193
6.1522413
6.152477
6.1521416
6.151108
6.1502097
6.1493674
6.1480258
6.1481106
6.1486359
6.14981
6.1162013
6.1198802
6.1257382
6.1304739
6.1322897
6.1325934
6.1323554
6.1320889
6.1307374
6.1263875
6.1205256
6.1164031
6.1146771
6.113785
6.113204
6.1135718
6.115371
6.1162898
6.1172036
6.1186212
6.1187099
6.117488
6.1167423
6.1159867
6.1143303
6.1139123
6.1141646
6.1141516
6.1138658
6.1142485
6.1158738
6.1165996
6.1173647
6.1186603
6.1186539
6.1173237
6.1164649
6.1155626
6.1137693
6.1133169
6.1137145
6.1141374
6.1147967
6.1165363
6.1196909
6.1202201
6.1196626
6.1191364
6.1197928
6.1189047
6.1181862
6.1170755
6.1149914
6.1142875
6.114465
6.1149802
6.0893737
6.0896559
6.0926392
6.1015175
6.1093979
6.1101352
6.1103594
6.1101423
6.110029
6.1097241
6.1021663
6.0933415
6.0899217
6.0891975
6.0882533
6.0871574
6.0876267
6.0886558
6.0896152
6.090294
6.0904865
6.0905944
6.0906141
6.0900984
6.0893052
6.0884501
6.0879415
6.0887329
6.0887194
6.087884
6.0883507
6.0891776
6.0899687
6.0904636
6.0905353
6.0905428
6.0904367
6.089832
6.0888892
6.0878734
6.087391
6.0883357
6.0889848
6.0890976
6.0915027
6.0969902
6.0985348
6.0947946
6.0928959
6.092126
6.092093
6.0915204
6.0903319
6.0890591
6.0881676
6.0889046
6.0682468
6.0685654
6.0693532
6.0718352
6.0719906
6.0741064
6.076087
6.075854
6.0743838
6.0724468
6.0726041
6.0696774
6.0684766
6.0676193
6.0671046
6.0688905
6.0680661
6.0689151
6.0710589
6.071157
6.0712727
6.0713857
6.0693938
6.0687462
6.0697442
6.0679961
6.0682145
6.0682004
6.0679339
6.0696562
6.0686091
6.0692511
6.0712348
6.0712074
6.0712227
6.0712046
6.0691123
6.0683521
6.0691878
6.0674684
6.0679257
6.0686767
6.0695681
6.0724833
6.0707196
6.0705538
6.0741199
6.0743707
6.0732058
6.0729825
6.0709073
6.0697271
6.0703258
6.068088
6.0690205
6.068275
6.0807411
6.1042637
6.139284
6.1807058
6.2057238
6.2023389
6.1748211
6.1364491
6.1043427
6.0807198
6.0680964
6.0688103
6.0791143
6.1045727
6.15357
6.2270065
6.2998158
6.3278022
6.3298323
6.3041769
6.2292421
6.1529974
6.1037494
6.0804142
6.070629
6.0685175
6.07932
6.0804466
6.0904084
6.0922658
6.1031107
6.091409
6.0891851
6.1012745
6.0911033
6.1022426
6.0906485
6.0788291
6.0790677
6.0888391
6.0886853
6.0987277
6.0793773
6.090979
6.1097814
6.1214822
6.1183172
6.103862
6.0890594
6.080645
6.0702561
6.0688167
6.0793617
6.0795816
6.0894266
6.1023076
6.0891134
6.0911987
6.0911587
6.0994832
6.1098807
6.0993619
6.1095589
6.100364
6.1007477
6.0989666
6.0925382
6.0849183
6.0843184
6.0926965
6.1005863
6.1023367
6.1134112
6.1004174
6.1002352
6.0908304
6.0776893
6.0850991
6.0855365
6.0816985
6.0723005
6.0731495
6.0829562
6.0925205
6.0958266
6.1073026
6.0945697
6.0825682
6.0925134
6.1017621
6.1290364
6.125548
6.1386654
6.1250553
6.1200791
6.1285926
6.1211607
6.1547532
6.1918426
6.2012468
6.191075
6.1537406
6.1639154
6.1885298
6.1601514
6.1974465
6.2093407
6.1944249
6.157837
6.1627475
6.1992523
6.2020784
6.1658431
6.1329923
6.1052052
6.1429088
6.1287808
6.1110269
6.1624774
6.1224518
6.1516346
6.193737
6.2431368
6.1577399
6.172329
6.2755155
6.2368705
6.208233
6.3533986
6.2671824
6.1777559
6.1227254
6.1007293
6.1283929
6.1524799
6.1937444
6.1434947
6.1330401
6.1083054
6.0905411
6.0914547
6.0927254
6.0925054
6.0915541
6.0909938
6.1087322
6.1120911
6.1142482
6.114373
6.1120514
6.1384655
6.1412702
6.1736263
6.16257
6.1250058
6.1015923
6.1685823
6.2921617
6.3573685
6.3237764
6.3233412
6.323363
6.3236708
6.3565251
6.3438717
6.3145088
6.2971701
6.297959
6.3162383
6.3491931
6.3628729
6.3318987
6.3322195
6.3324478
6.3323829
6.3639781
6.3507017
6.31899
6.3011149
6.3012314
6.229375
6.1403419
6.0916846
6.0725244
6.071597
6.08139
6.0857266
6.0857112
6.0813117
6.0714489
6.0723512
6.0914388
6.1402207
6.2297871
6.3021565
6.3023253
6.3199811
6.3501367
6.3633387
6.3296179
6.3295721
6.3294669
6.3298106
6.3649394
6.351597
6.320216
6.3016704
6.3001658
6.317051
6.3452615
6.3927981
6.4277259
6.4235458
6.3091012
6.1567321
6.0726589
6.073832
6.1596768
6.3128938
6.4264048
6.4312355
6.3970983
6.3522384
6.3052436
6.1831154
6.1113881
6.1250342
6.2108194
6.3331649
6.3347659
6.3655321
6.4091643
6.4282294
6.3157412
6.1918394
6.1113702
5.9768832
5.9076311
5.8312615
5.8059466
5.8052846
5.8297638
5.9053237
5.9732797
6.1067373
6.1874788
6.3098843
6.1070868
6.0123998
5.8733664
5.8002423
5.7167589
5.6888528
5.6894017
5.718229
5.8027898
5.8771847
6.0177299
6.1121233
5.9800292
6.1668027
6.3239717
6.3293498
6.3260534
6.3352417
6.3354777
6.333155
6.2107868
6.1250359
6.1114811
6.1831697
6.3047905
6.3651728
6.3349496
6.3299684
6.326301
6.3102661
6.3098786
6.0852767
5.8381457
5.912654
5.807422
5.8797897
5.7796932
5.6915416
5.613207
5.5754861
5.5749902
5.6115687
5.68869
5.7757735
5.8741478
5.9745982
6.1597737
5.9068055
5.8014088
5.6892647
5.5795224
5.4947798
5.4515013
5.4521813
5.4965621
5.5825943
5.6937035
5.6170487
5.7245949
5.6968216
5.8137085
5.8138468
6.0857299
5.8383478
5.7247307
5.6967876
5.5801246
5.5803624
5.4545543
5.4980986
5.4067205
5.3584509
5.3577867
5.4049811
5.4948957
5.6124402
5.7182013
5.831775
6.0766377
5.8071432
5.6900687
5.5754922
5.4510771
5.3573566
5.3083554
5.308939
5.3593342
5.35898
5.4543859
5.4977707
5.6166465
5.6939451
5.8079348
5.9135464
6.1683636
6.3249237
6.4285665
6.4090755
6.3966643
6.3514866
6.3191149
6.3817421
6.424814
6.4309495
6.4270351
6.318152
6.1151673
5.9816164
5.8813693
5.7807867
5.6926306
5.5823631
5.4965101
5.4058534
5.3579349
5.308581
5.3078897
5.356958
5.4512907
5.5754122
5.6903145
5.8073302
6.0772699
5.8320772
5.7185335
5.6124626
5.4948624
5.4042933
5.3571424
5.4518121
5.4520752
5.5767246
5.6141462
5.721233
5.8056161
5.8800346
6.020987
6.1143087
6.1940605
6.3167563
6.1649171
5.9794233
5.9105239
5.8343568
5.8092083
5.6924594
5.6921739
5.5761633
5.6131883
5.4951399
5.580219
5.6899449
5.8023643
5.9079146
6.1613935
5.9765521
5.8762461
5.7774873
5.6904928
5.8039369
5.7201502
5.8334483
5.8088044
6.0804602
6.080866
6.3057363
6.3209753
6.4269097
6.4300123
6.3956235
6.3816578
6.3507936
6.3723355
6.3961831
6.4144861
6.4258774
6.3254722
6.3236634
6.3233223
6.3249188
6.4258031
6.4145804
6.3964721
6.3202366
6.3828977
6.3520406
6.38285
6.3957665
6.4074151
6.3242646
6.3199738
6.3189966
6.3230864
6.4072378
6.3954985
6.3815822
6.3505926
6.380676
6.4235614
6.4286056
6.4236206
6.3152287
6.2991688
6.3005868
6.3171444
6.4251392
6.4298168
6.4256675
6.425401
6.3964454
6.4129811
6.4238647
6.3197957
6.3175889
6.3163649
6.3184355
6.423325
6.4124145
6.3947186
6.3710265
6.4053057
6.3943054
6.4231434
6.4370335
6.4558634
6.43504
6.3211733
6.3445479
6.3108337
6.0950712
6.1766488
6.3257147
6.4392636
6.4358552
6.4104496
6.4536899
6.4209917
6.4039919
6.4228774
6.3188769
6.3236956
6.319675
6.3036234
6.3043067
6.3199802
6.3240467
6.3197204
6.4234825
6.3126002
6.1902427
6.1103265
5.9767945
5.9090931
6.1631263
6.3137292
6.4242131
6.4271005
6.3919059
6.4036297
6.4209148
6.3211866
6.3191251
6.3187601
6.3208113
6.3476614
6.3246073
6.433894
6.326835
6.17823
6.1044699
6.0802881
6.0625685
6.1099448
6.0125569
6.1103586
6.0625122
6.0181852
5.8337539
5.8663453
5.9522353
5.8996752
5.8270955
5.8204548
5.7900712
5.7936816
5.8562227
5.7654461
5.8572311
5.9538612
6.1802877
5.8673363
5.8219488
5.8347157
5.7913953
5.8279754
5.9013026
5.79506
5.7020842
5.81336
6.0997571
6.3148343
6.3155152
6.3479231
6.3252135
6.4343012
6.4535
6.4098408
6.4352997
6.4395255
6.3285869
6.1811321
6.1001951
5.7943644
5.7941711
5.7036492
5.7180505
5.6750575
5.6815012
5.6642714
5.6777755
5.5641634
5.6011996
5.6799818
5.6722546
5.7571985
5.6715447
5.6791697
5.5652099
5.5503578
5.4600038
5.5899905
5.6796472
5.7165309
5.8109131
5.7920121
5.7021592
5.6730197
5.6623192
5.6762585
5.7002336
5.6000508
5.5635099
5.5528928
5.4147395
5.4336816
5.4779249
5.3855627
5.4783091
5.4602188
5.5910774
5.5536837
5.4145646
5.4332977
5.3369642
5.3136832
5.3635482
5.3141669
5.3370866
5.2867347
5.2620529
5.2376984
5.2913546
5.3958404
5.5464614
5.5840292
5.6687579
5.7563824
5.7472401
5.6543036
5.5224774
5.655268
5.6695111
5.5358178
5.4422667
5.4258044
5.5704369
5.5296637
5.3777672
5.3621467
5.532288
5.6603335
6.1570141
6.2409376
6.3835915
6.4918465
6.463007
6.3639419
6.2237862
6.1479496
6.1490844
6.3459204
6.3120944
6.3227102
6.4363598
6.4564881
6.437959
6.4418523
6.3289693
6.179249
6.0961376
5.7925784
5.7026463
5.67376
5.7172572
5.812164
5.7016882
5.6768822
5.6629372
5.6805831
5.7922306
5.8289893
5.9017774
5.9552646
5.868622
5.8226486
5.8359967
5.8593896
5.7960299
5.6818103
5.6017579
5.563963
5.5532887
5.5913178
5.4614205
5.4151645
5.4344714
5.4796469
5.5680252
5.5528103
5.6735104
5.7600546
5.7688222
5.6838503
5.6754999
5.5943826
5.4626491
5.3653618
5.3146798
5.3378559
5.3870775
5.3388547
5.287296
5.2625525
5.3154346
5.417152
5.4364588
5.4809338
5.6050888
5.5683217
5.5571283
5.6694692
5.686629
5.7962474
5.839476
6.0226101
6.066693
6.1141833
6.1825182
6.3306327
6.1083654
6.0843398
6.0665999
6.1152504
6.0172995
5.8621854
5.9591512
6.1842794
5.8718048
5.8264386
5.8326254
5.9070751
5.8003081
5.707622
5.8195649
6.1042908
5.7230887
5.680062
5.708476
5.8004767
5.6836637
5.6837097
5.5680399
5.4364873
5.3385397
5.2871087
5.2863593
5.3366164
5.4336604
5.5640671
5.6780237
5.6642939
5.7035544
5.6750197
5.717756
5.8134373
5.7021624
5.6812515
5.7917282
5.8284057
5.9021661
5.795608
5.8585333
5.9551438
5.8675777
5.8220211
5.8350411
5.7576835
5.6721813
5.5907175
5.5534877
5.4143051
5.4596938
5.4779467
5.6010239
5.6802614
5.5655112
5.5501165
5.6719232
5.6804706
5.7666225
5.8592969
5.8771176
6.0162702
6.1105095
6.1134302
6.065115
6.0825945
6.0208903
6.0158759
6.1135085
6.3282112
6.180997
6.1063022
6.0647062
5.8679947
5.835973
5.8224286
5.7923262
5.7967749
5.9032955
6.1801568
5.955733
5.8285994
5.718021
5.6817623
5.5902913
5.4593214
5.3630788
5.313355
5.2616662
5.3134361
5.3364827
5.3847067
5.4778506
5.4337941
5.4139687
5.5529664
5.5640956
5.6009661
5.7029728
5.6790931
5.664535
5.6748956
5.7032191
6.0991243
5.8145337
5.7954858
5.7958886
5.6794472
5.5646773
5.4342407
5.3373289
5.3139067
5.2623764
5.3150831
5.3644218
5.3864403
5.4807322
5.4619819
5.4166154
5.5567402
5.5938631
5.6046075
5.6837433
5.5675462
5.4794177
5.4606903
5.4144646
5.5533058
5.5912559
5.6020647
5.6824147
5.6736203
5.5518448
5.6749492
5.7600609
5.7694476
5.8631189
5.8006761
5.7076991
5.686313
5.6692442
5.679696
5.7083375
6.1045667
5.800512
5.8195115
5.7227065
5.8327114
5.7960734
5.8260252
5.8391916
5.871626
6.1850989
5.9076578
5.9600454
6.1179252
6.0201391
5.861681
5.7983431
5.7040567
5.6824752
5.6648511
5.6752854
5.7036448
6.0994943
5.8154145
5.7184841
5.8299794
5.7937479
5.823797
5.8376143
5.8695038
6.1815287
5.9047142
5.9578226
6.117151
6.3306323
6.0682628
6.024834
6.0859576
6.0687728
6.3321259
6.1847238
6.1098194
6.4420504
6.4657615
6.3693458
6.2311313
6.1564301
6.1562532
6.2308618
6.3685656
6.4655745
6.3667768
6.2261754
6.2429895
6.1580263
5.6611643
5.8215643
5.827829
6.2772486
6.4042406
6.4418417
6.2727421
6.168195
6.1318425
6.1047423
6.1380256
6.1230688
6.1540362
6.1306027
6.1265102
6.13746
6.1253588
6.1513413
6.1918646
6.2391287
6.2026027
6.2334405
6.3803727
6.3821295
6.4428986
6.4068705
6.3093197
6.2116589
6.3074811
6.2635616
6.2244047
6.1352007
6.0903993
6.1128467
6.1599868
6.199449
6.2402421
6.2699538
6.2235469
6.1884648
6.3157803
6.3153337
6.1881517
6.1088413
6.1089637
6.1328824
6.1327823
6.1735326
6.1411438
6.1384467
6.1625684
6.1250572
6.1016839
6.1682646
6.2912104
6.2229517
6.1349328
6.0906695
6.0808215
6.1037809
6.1522888
6.2276547
6.3031439
6.3311627
6.3313811
6.3040703
6.2291663
6.1543695
6.1050151
6.0795589
6.0693306
6.0684078
6.0809351
6.1050007
6.1402824
6.182799
6.2100723
6.2099845
6.1823915
6.1395299
6.1040354
6.0804391
6.0685797
6.0708651
6.0804638
6.0793243
6.0891747
6.0913868
6.0922483
6.1030488
6.0904489
6.1210986
6.1287141
6.1437927
6.1334411
6.1637257
6.1689023
6.1719054
6.1720491
6.1689607
6.1633394
6.1980911
6.2361822
6.2769612
6.2883596
6.2785906
6.2731781
6.231418
6.240321
6.2308799
6.2728309
6.2812579
6.3017828
6.2779162
6.2366936
6.2475096
6.2338293
6.2755063
6.2792924
6.2381874
6.240669
6.2813689
6.3149921
6.3042062
6.2875041
6.3360392
6.3005085
6.2630633
6.2256258
6.2654368
6.2293362
6.1729035
6.1935282
6.2294779
6.242105
6.2065332
6.3165611
6.2810598
6.3175918
6.3551598
6.3895548
6.278003
6.2661549
6.351208
6.3838187
6.4217703
6.6604731
6.5824547
6.4536079
6.3544282
6.302036
6.2634793
6.2377697
6.1990737
6.1625608
6.1894468
6.2262698
6.2664866
6.211554
6.1762806
6.2305407
6.2817644
6.1971287
6.2319186
6.2032634