/*--------------------------------*- C++ -*----------------------------------*\
  =========                 |
  \\      /  F ield         | OpenFOAM: The Open Source CFD Toolbox
   \\    /   O peration     | Website:  https://openfoam.org
    \\  /    A nd           | Version:  7
     \\/     M anipulation  |
\*---------------------------------------------------------------------------*/
FoamFile
{
    version     2.0;
    format      ascii;
    class       volScalarField;
    location    "440";
    object      k;
}
// * * * * * * * * * * * * * * * * * * * * * * * * * * * * * * * * * * * * * //

dimensions      [0 2 -2 0 0 0 0];

internalField   nonuniform List<scalar> 
25278
(
1046.9301
987.11613
989.82234
989.82073
934.15962
987.11359
1045.2651
1046.9276
1045.2708
1028.7562
1031.7928
1034.3694
1007.6027
977.8627
891.91915
989.52907
987.01024
919.52469
904.27039
944.65302
964.30857
969.40993
973.71491
1003.6529
994.45699
1003.6518
973.71481
964.83985
955.17321
970.51728
964.97014
949.67183
933.45398
944.24143
958.7087
953.18159
961.42898
957.56309
949.45792
939.06142
944.80532
952.97184
947.58705
955.54484
965.48205
980.3166
999.93395
995.17369
975.84202
960.18703
956.99018
941.58195
918.5985
924.47016
945.97263
954.20918
951.00105
942.77784
929.37019
934.00845
942.44406
938.08607
934.86072
948.85819
940.52646
939.23919
947.5419
933.1277
924.31286
926.13481
909.46353
914.29439
920.77406
927.87504
935.82132
945.07639
958.71684
970.52234
969.41282
943.25528
916.17676
891.98258
919.5661
904.48822
937.39854
910.46058
874.48102
837.55941
855.69795
874.15005
887.6126
868.39704
855.54751
819.77795
834.64279
868.54186
883.68866
901.59605
915.38619
896.19089
883.56765
850.36204
865.86612
896.30526
878.50689
866.38355
850.66787
792.35836
776.21501
734.25552
823.10608
835.5767
749.58357
766.4822
809.41156
826.49593
783.83075
864.22243
852.60635
852.60449
904.47139
937.35277
934.06585
855.40262
819.71105
776.2181
734.19823
823.10689
874.464
910.41872
916.05126
943.11228
919.45784
891.88598
855.67932
837.58737
850.71943
835.58909
749.51465
792.44764
809.57481
766.4016
783.71692
864.23918
878.61545
866.46323
883.7197
868.5595
834.66276
868.3145
891.70428
874.04249
887.52771
901.51142
919.31074
915.31987
896.36304
866.04365
826.73174
738.78921
594.45
594.63795
738.31256
825.36981
878.04222
865.90638
851.53759
863.14186
779.24778
762.17466
808.2916
717.79236
571.29176
582.39071
357.68618
342.14128
582.4381
582.3109
346.83311
362.52517
582.89425
570.9816
718.00764
808.02756
850.47342
883.52494
896.21815
878.04917
825.33345
777.07494
759.89461
850.96448
904.04288
865.79199
862.73173
880.81842
796.81369
598.42935
387.35966
382.62585
596.75491
798.79665
880.98847
894.23281
911.87416
930.12139
944.25638
955.1842
949.69485
964.98633
953.20348
933.50703
944.83385
952.99244
961.44747
957.59469
949.49808
939.12073
947.63076
955.57759
961.00241
974.63663
985.26841
999.93296
1001.0814
989.91657
984.59764
995.8723
980.32638
969.08806
977.02762
969.02747
963.61132
973.22098
965.50717
962.21204
975.85968
995.17649
964.32457
944.70969
960.21867
946.03346
924.60839
934.10721
942.5193
954.25901
951.06923
942.86608
929.52771
938.20537
935.0219
948.94227
957.04183
941.66575
918.83797
940.63821
926.34158
924.54845
939.37192
947.64647
933.32122
941.38749
943.06982
946.20852
950.4671
958.63386
969.99217
966.89518
959.18413
957.08511
972.94663
988.52707
991.52001
977.90789
981.12197
988.97058
992.69141
984.8853
976.91795
971.60429
979.51951
974.58363
985.79458
982.73905
974.92906
962.44945
966.63854
957.7812
960.71591
963.88884
968.36325
977.29955
989.91545
1001.0817
985.26679
974.6336
969.07451
977.01645
973.2039
963.58663
969.01539
960.98766
952.13724
961.17569
960.46985
955.85992
951.86059
947.58722
936.2167
944.20192
932.54007
924.48095
913.78607
922.78987
907.34867
921.37614
932.56838
944.22344
935.85946
911.95488
924.51392
913.89812
927.96084
936.28072
922.87902
907.44715
898.4965
912.95837
882.41238
898.37609
879.20583
889.34789
906.61518
914.21257
922.1387
928.93014
935.85893
941.87651
946.11568
942.23235
948.54555
944.31054
937.7702
931.0801
935.39109
940.19671
941.05124
948.94477
944.20258
950.22032
954.2365
959.93728
956.64474
952.67003
946.39455
950.38475
943.5871
948.33623
941.43783
937.4135
933.24963
927.95958
923.3286
915.48976
919.92422
926.52258
929.52471
941.06899
952.16099
960.48723
948.95677
944.23454
950.24993
955.88924
951.89226
947.62735
941.91988
946.15764
942.28919
948.59118
944.36614
937.83885
931.16202
935.91581
940.2406
933.28941
928.99076
923.4221
928.04021
935.4612
939.60618
946.44435
952.7083
956.68063
959.96265
954.26364
950.42338
943.63516
948.36466
941.46694
937.45213
932.23387
936.27071
940.31519
945.6097
957.4446
965.08795
976.5022
971.8636
967.92234
962.24629
958.30225
954.46077
958.39729
964.63865
968.67819
972.66169
975.94868
970.29042
966.27529
962.44368
966.44084
959.68509
964.43141
960.3076
956.41033
952.36356
947.66523
951.63451
944.28581
949.52851
953.55993
957.56698
952.34952
948.32429
955.65861
951.27019
958.77365
965.75476
961.7415
954.74652
950.78874
946.77009
953.77928
949.76358
945.63921
941.34687
929.20334
920.94643
894.61993
904.00595
912.79894
903.79449
923.1337
914.58278
894.32125
869.6006
884.20752
844.70526
858.70467
868.82772
893.03632
879.18659
846.58526
834.53515
808.54625
856.40531
886.87898
909.87499
881.88132
907.25983
916.02523
918.53048
896.57585
892.33573
882.23687
846.93688
803.52404
778.75902
792.89056
821.349
866.54225
857.44712
878.86581
882.15493
886.60424
891.57777
897.3027
903.09587
909.4501
915.60434
922.19832
926.56544
918.5455
914.26366
906.51837
911.3149
920.01955
924.25512
930.75166
937.97258
930.71522
934.80506
928.25447
936.2201
932.1722
939.55963
935.12577
942.69083
949.70957
958.59183
969.96773
962.18135
959.1277
966.85656
954.35543
946.11969
950.41277
941.26874
929.07344
922.90442
903.32899
912.57209
903.73758
893.75652
885.97117
895.81258
918.20338
915.63453
906.78886
881.10067
891.384
854.68705
864.59665
878.22125
892.66395
883.77642
843.6289
868.52654
832.57507
858.21768
868.37635
844.80239
816.44897
803.68455
854.31374
844.06702
769.59257
783.35998
825.27731
854.88176
877.17173
893.29373
907.19001
918.18538
928.25683
941.23779
955.76434
972.91664
988.51432
991.51267
995.86978
984.59172
992.68666
988.96384
981.1114
971.58676
976.90806
984.8793
979.50848
974.56379
985.78358
977.89249
974.90066
982.72346
970.37419
962.40836
966.60842
957.74371
960.68962
963.86925
968.35443
976.49339
971.85047
967.90576
964.61334
958.36748
962.23076
958.27932
954.43073
947.62244
952.33763
957.43581
965.08475
960.29011
966.25936
970.27773
975.93823
972.64678
968.66219
962.42101
966.42234
959.66494
964.41967
957.55483
953.54744
949.50928
956.39568
951.60141
944.24696
940.27668
945.58934
938.8606
946.10643
954.15278
946.88654
942.87178
936.30607
932.32158
923.71167
931.13138
926.84545
922.97373
918.51524
911.21971
906.41203
897.27327
901.89386
911.0728
901.97041
897.37092
886.71615
891.83901
896.24665
906.25534
915.54517
924.19011
917.87396
926.89777
922.66692
930.93872
938.51569
945.57964
942.47015
938.16482
930.37637
934.10368
926.70742
922.28758
926.6898
934.97677
939.18922
946.69142
950.66609
953.73677
946.71022
943.22099
940.00086
948.11979
944.10712
939.88624
935.52895
932.9886
937.34953
928.7649
931.7033
927.17189
924.08529
914.62869
918.3761
922.7165
919.12751
908.19213
912.67951
917.5424
912.70226
918.11898
909.24734
913.59105
907.36604
902.75549
890.88578
898.94936
903.65601
896.05783
900.50933
911.73153
921.82442
930.9263
935.00428
939.19474
930.98437
925.94676
921.2024
931.11479
927.00086
935.95657
933.05389
941.64161
945.61879
937.12795
927.61008
923.46094
912.6342
917.03921
905.80961
901.34209
896.76443
907.90704
903.13932
899.17571
911.54777
921.62381
931.01203
942.9488
957.02085
964.78578
963.49485
949.54308
951.232
959.29975
972.82026
980.67379
979.40002
971.58759
957.62984
965.60889
967.28166
955.8469
957.75002
960.18366
962.73771
965.72804
961.70975
958.65836
954.75098
947.25936
950.7392
954.70197
951.22834
955.27177
958.74092
962.75655
969.74803
966.69899
959.28598
956.08608
964.16856
961.68285
953.2401
949.23261
952.079
948.02914
956.12555
952.18835
949.74708
953.64053
945.17853
941.19997
944.0579
935.16157
939.03915
943.21178
947.20532
943.04461
934.0286
939.0316
935.02296
930.00632
925.29902
929.3583
939.18727
935.72806
931.69613
921.03007
916.88687
913.11042
924.61457
934.69686
943.7186
939.71069
935.41571
933.73393
929.33579
919.53919
924.30399
926.28098
930.60288
928.66085
938.08401
942.06981
932.78182
931.46128
941.04932
937.04324
932.69319
932.09496
927.66818
917.44567
922.24331
922.94783
927.33101
926.63847
936.4693
940.46792
930.78822
919.72537
920.57943
922.23447
917.98583
920.41675
916.02461
913.543
908.95107
895.67544
900.98397
904.24539
908.78523
905.628
910.05709
907.88711
903.38264
916.29688
911.79994
910.90416
906.26089
891.98304
897.43833
898.65708
882.47423
885.90093
890.40707
895.64124
890.77676
875.38751
883.37911
888.5007
881.06274
885.89744
900.25205
904.63505
910.08104
915.90987
922.00528
912.16899
919.63668
910.39522
919.46838
926.86391
934.83816
928.32018
919.69223
915.62434
923.00739
915.40451
906.3224
910.4522
900.45596
904.56477
914.49244
923.56508
931.1485
938.88866
942.88444
934.92147
927.74473
936.3534
932.37496
923.77599
914.53447
918.54511
927.54076
934.91291
927.70547
931.77624
940.36085
948.29273
955.63342
951.22897
955.27755
951.11847
947.07594
938.07118
943.06245
947.11495
952.33011
944.4012
950.95219
942.99768
939.17394
931.615
939.17796
946.90254
950.96087
943.00539
935.83017
944.42853
940.39561
931.81459
922.59994
926.64546
935.64099
926.6279
935.81284
928.43646
938.19461
934.13198
930.08867
926.05981
920.0036
924.06776
913.02557
920.31212
916.26575
908.92601
904.77155
897.50806
893.12608
878.68646
888.04755
897.22897
908.02009
892.79453
888.31016
878.547
883.47576
869.53598
880.99777
876.05581
863.91088
851.71422
868.95804
873.87562
863.97479
858.49541
837.39381
844.0079
857.33131
862.36174
874.26884
885.52926
889.83099
901.4612
892.40094
878.74444
867.12996
883.25977
874.00179
890.5034
894.96191
908.91316
914.24767
918.36194
913.11435
925.13469
929.21228
939.77636
943.21925
947.26626
943.82641
933.29991
937.4802
942.13539
932.20398
928.13287
917.12459
924.37593
913.74523
922.58476
918.51764
908.63015
912.69033
916.76161
906.35627
917.83779
909.08976
921.22816
914.31341
926.56157
922.46256
933.42203
917.28142
921.42528
907.90057
903.64809
910.16968
905.99541
901.79
887.67822
896.63917
905.58985
909.67494
900.81378
887.3381
898.15412
894.02986
883.09065
871.74251
876.25027
892.02438
883.36027
899.34608
893.18681
908.49184
921.49837
932.79601
942.77534
951.75313
947.84064
946.23325
950.11467
940.88912
936.89337
938.78937
928.73478
926.38923
930.48555
918.59622
914.36923
917.34652
904.16742
899.75055
895.19882
890.8689
895.59602
877.71937
883.85198
878.97848
873.86042
868.08886
885.49401
880.7126
860.71674
867.10438
872.53922
867.14811
887.61901
892.50402
890.85296
906.76851
902.21919
915.4276
915.42572
926.63878
936.46167
949.52808
963.4794
972.88376
995.11229
964.24961
919.37292
904.25818
883.53059
901.42586
883.52525
866.03996
851.72645
863.34407
878.16164
826.12826
780.88525
763.65789
809.10593
850.47127
865.90204
896.12718
915.19314
919.28394
896.1151
878.28696
826.53839
740.29769
589.64946
577.68166
719.86425
586.06145
357.07572
374.46156
598.26546
783.65052
766.56782
809.61832
866.21183
904.19168
852.38079
865.6478
807.65828
717.30904
583.25665
349.10777
364.31138
595.10333
738.09564
577.88222
566.7794
758.97617
776.07526
824.97538
877.92891
903.98594
850.84368
862.60539
880.71502
795.74599
592.6474
388.2686
401.53981
604.82715
800.54869
881.14847
918.59662
941.55529
956.96256
960.09317
944.57426
924.40577
942.70347
940.48316
939.2292
947.52881
948.80915
934.82323
933.12168
924.30923
926.11093
929.31693
938.01626
950.92756
954.09795
945.87277
933.91087
942.33621
950.29065
962.06607
975.74855
991.41343
988.48207
971.56828
979.38327
980.6206
972.76849
964.73616
956.97075
955.75132
941.22995
942.90104
951.18018
959.24613
957.61408
965.59123
967.22557
970.28325
982.63875
974.81726
966.77527
959.04887
946.03889
954.271
958.47254
969.8499
977.77229
985.66197
974.44073
966.48462
962.32166
949.66581
947.77731
946.19175
945.18302
944.63672
944.64538
945.21035
949.10146
948.52725
938.93077
939.60021
935.59183
934.92324
923.93529
924.7711
928.88859
928.07293
915.50907
916.56455
912.27363
911.19076
895.68457
897.24615
900.18521
904.66805
887.69341
882.77559
888.58522
869.67966
878.74895
859.78127
854.72131
849.49819
869.13048
859.1679
853.58602
847.92084
836.34855
842.61071
809.95377
828.74784
821.9975
801.86195
778.7136
786.34654
831.68661
861.45463
858.14989
880.66019
875.25582
851.30984
817.73439
824.12104
764.01739
756.30976
654.81709
713.17247
760.40756
792.5135
814.61906
833.31811
848.79846
863.48402
876.24537
888.55718
899.18935
903.8573
913.7594
922.80434
931.04174
938.59729
934.20128
930.51836
938.26903
942.56056
935.09266
939.2881
942.76828
935.22029
939.26671
931.08034
927.01768
922.00589
931.06296
926.85833
922.48425
926.84138
918.28701
912.96221
917.76686
913.00098
922.94642
931.86191
939.99938
935.66694
927.36212
924.32169
933.16358
937.49662
928.97572
933.22861
936.08796
944.20074
946.76782
950.72809
943.30593
935.12052
926.10353
921.43721
931.27485
940.11755
948.1987
954.42656
951.31951
964.83592
963.55603
955.84874
955.83538
972.91928
995.11536
987.00646
989.52234
1046.5922
1045.1449
977.4895
973.4467
969.25682
964.26797
941.64398
957.02105
939.36412
918.83528
924.55314
933.32251
947.64394
948.92015
940.62167
926.34133
935.02389
938.19551
951.03123
960.14631
944.65332
924.59193
942.83349
929.53359
934.09036
945.98132
954.19082
942.49244
950.4192
946.18591
943.06222
941.38932
949.64939
949.65777
957.70747
959.36387
972.85362
980.69468
967.31853
970.40395
960.22275
962.77386
958.70063
954.80252
947.32942
951.2845
955.31783
959.31819
962.78601
969.76822
966.72648
964.19602
956.13109
952.13408
948.10319
956.17881
952.2541
944.14707
941.3141
949.83266
945.72495
941.76754
939.85345
935.58824
931.2158
921.91914
926.53227
924.59992
933.93832
929.5657
919.88999
909.47104
911.99293
914.98763
918.64886
908.2882
903.67333
908.65503
919.43334
923.71217
927.19987
917.31619
913.031
917.21618
927.83073
937.28071
934.87452
943.84203
942.21584
938.25747
928.91785
930.8232
920.73981
916.41251
904.85462
899.89282
896.55024
901.74644
914.00426
918.38123
922.56792
924.89618
913.56471
909.31738
906.29449
910.62781
908.53948
920.96089
931.70511
933.00352
937.06556
938.93558
947.94053
951.82616
953.70611
945.27324
949.30336
957.80459
961.72102
953.29474
943.90685
947.32779
951.16523
955.31377
947.15305
943.11386
939.09547
947.26426
943.2756
935.10327
930.12676
939.13246
943.12051
934.13468
938.14869
947.13934
943.30323
939.29227
935.2985
925.49246
929.51105
925.35186
935.87758
931.87458
921.31386
909.35999
914.53912
920.18582
926.16164
922.12941
918.02765
908.17976
912.31961
905.05767
916.13617
911.98945
907.67112
896.4533
891.35576
879.10182
883.96314
893.01512
881.17278
870.08311
864.51181
852.98109
869.98803
884.14734
889.1829
901.81713
896.35613
882.17805
876.6482
860.29458
865.64508
874.82348
858.51904
846.32525
839.88111
826.33516
850.83626
869.93345
875.54866
891.42302
887.22682
869.49952
863.32654
840.8397
846.98713
856.3743
833.00256
817.54894
809.52828
790.73412
831.40678
858.09302
864.43735
884.03108
899.51468
912.31285
923.27537
932.91048
928.51568
918.57322
917.8427
927.93422
932.33197
922.59111
926.9394
927.61847
937.23083
941.21066
940.64376
936.6767
936.67029
932.33546
927.93443
916.03562
907.27474
881.89876
882.22868
892.33935
896.62423
918.55479
909.91188
886.94553
856.4258
846.86487
803.36552
778.16492
792.15235
857.35024
866.54578
821.0495
808.38737
834.87286
869.82362
894.43818
914.62522
894.72039
920.98581
929.23219
923.17146
903.91283
912.93661
904.16674
884.50769
845.02091
859.23835
869.39305
846.946
879.40908
893.34634
903.32517
897.50749
891.72329
886.67122
882.14863
878.82157
876.94215
876.97679
892.9928
894.2947
907.78897
906.86693
911.44026
898.32469
902.9926
904.14715
916.74352
915.88966
920.13222
931.05141
935.13975
935.79328
945.34478
946.35888
950.21269
941.03627
942.89752
946.92503
955.91427
959.8436
950.91351
949.05288
958.22616
954.33177
945.07771
934.74838
937.0059
939.89474
929.38736
933.53202
937.56415
942.19089
932.27842
938.23978
934.19254
930.17095
920.4048
916.38767
909.16758
913.22377
924.21386
928.24026
917.27064
924.44246
928.49134
921.33058
909.23201
917.89453
913.83323
909.78294
905.72581
901.62312
897.42304
885.68245
889.96831
879.16658
892.78566
888.4908
900.8662
893.71762
906.22761
910.43944
898.03454
891.37159
905.18752
900.87948
886.90474
870.64991
879.54878
884.01138
868.11292
863.46114
874.76123
859.52292
872.94243
868.26174
854.22449
837.48565
854.65462
849.2711
838.91252
828.22787
760.9671
787.87913
800.97379
745.4161
803.03253
790.11535
728.20174
637.67817
729.15492
742.67349
626.72217
622.95379
460.13537
464.62039
655.0026
539.69023
661.03682
751.03438
737.3687
609.99652
643.72196
480.53508
644.57206
649.9124
485.71639
393.45078
380.36894
525.40443
374.20824
389.28521
434.25362
381.80231
394.72867
392.85337
469.86509
630.92903
772.36132
844.64792
881.23979
906.8078
915.64731
918.20724
909.50878
886.21107
895.99274
891.49957
855.3077
865.43452
855.1886
806.5457
819.44587
786.58098
819.04041
851.78659
875.42926
892.05316
906.27867
917.45425
927.66278
932.09678
932.67075
928.25007
918.19695
922.94366
922.25481
910.92679
911.83755
907.25564
893.47375
898.79529
897.49945
902.26118
906.8009
919.73708
930.78398
940.46867
941.02739
937.02471
927.3188
931.44808
932.74959
942.03924
938.04856
933.70992
929.31105
930.97481
935.36764
926.25259
924.30385
919.55162
921.62193
911.59558
909.01352
913.58618
916.05253
904.37919
901.16091
895.89187
899.36598
903.2483
914.65251
924.05473
932.93954
922.87501
914.29249
894.29468
920.70743
928.98438
912.53449
903.42732
893.89804
903.74075
883.92211
869.0285
844.32083
833.94277
846.03145
878.66314
892.75632
868.66941
858.61048
879.19368
898.31895
913.69311
927.75447
938.9315
949.32002
964.81942
969.24819
999.75619
980.15887
995.70723
1000.8554
994.14444
985.04594
970.30668
964.54696
954.97131
949.52983
933.31878
953.01217
958.49055
961.25502
957.42334
947.44453
952.79258
944.63485
935.64784
944.84706
944.01369
936.08125
922.67136
932.36564
924.31628
911.76913
929.9062
944.03196
911.73274
882.37918
912.79088
921.19325
907.26431
889.27681
907.25178
898.32679
913.6699
924.29851
932.34353
943.96548
935.61161
927.69674
936.01297
922.64082
928.7498
940.83602
960.93418
951.95023
947.42854
955.39712
965.33682
973.05493
976.83522
974.40392
968.89668
960.80116
968.82593
963.43464
971.43085
980.95981
988.81086
992.49917
989.68147
984.40843
976.71538
984.68573
979.35154
968.50754
965.59315
962.6202
960.07963
957.66446
955.77989
954.20249
953.20021
952.65909
952.66999
953.23241
954.25361
958.16668
959.7996
950.84391
946.83804
944.9586
948.97009
947.68455
957.15897
956.58047
947.0267
943.0162
943.67766
932.98907
934.56933
936.86005
940.91812
938.64133
926.93127
929.74154
925.63214
922.78594
920.79774
924.99474
937.07976
936.27691
932.18914
919.78007
924.00962
909.53969
910.84623
913.39854
916.98072
912.76213
909.07101
892.50467
897.71301
902.14488
897.21385
893.26012
888.26377
906.40275
901.8753
900.39327
880.59155
883.19431
877.98624
872.64063
869.68249
864.02785
885.88766
886.03803
880.83478
882.8928
877.62768
856.02986
862.54845
858.65338
864.52071
870.17647
891.00703
892.83834
907.98239
920.5931
916.3228
903.5064
905.76017
918.01014
928.65194
930.56047
939.66008
943.66375
934.64861
924.59267
922.24126
910.15412
913.17769
908.88743
920.42406
923.42424
932.99919
941.57284
937.29319
939.79947
935.45685
927.11123
931.63119
928.73407
919.1274
922.67359
918.35863
907.94106
912.68984
908.28012
912.67916
916.89196
927.56791
937.06053
945.55094
948.02105
944.01972
935.87055
939.91345
943.11474
950.55895
946.58398
942.3732
938.0692
941.15232
945.45031
938.39075
934.88406
930.30067
933.99179
926.60723
922.23048
926.61545
930.82936
922.56854
917.49879
912.68468
918.04437
909.20306
902.79544
896.92087
891.06972
885.91406
881.20991
886.36435
890.78713
874.70767
868.23135
861.91813
869.02546
849.69648
838.85475
828.02186
834.6017
825.59405
768.18266
759.838
785.38595
793.6778
801.25229
841.18769
868.23957
888.00516
891.27828
895.94643
900.00488
895.52219
879.74944
873.59655
878.6995
873.68795
847.58101
839.0173
837.29093
844.38573
854.49794
864.51098
840.69436
834.83298
816.62892
848.66779
838.13495
830.7558
770.3471
793.07893
799.65775
823.17043
829.6288
860.22235
865.81734
874.7455
852.06326
864.73416
869.56353
887.89711
896.30453
904.96595
891.55017
902.26367
889.97495
902.32689
898.24737
894.14141
883.44881
896.96291
901.07527
887.64556
891.7866
905.16495
896.72263
910.44012
922.63923
918.60169
906.35631
902.23159
895.71279
899.95469
913.4858
917.56207
921.62372
926.69087
914.51567
908.24928
904.13538
888.72497
884.39725
892.56805
888.3329
872.60453
876.98146
866.31587
861.59597
879.95587
875.3891
856.72363
851.67144
838.93191
861.78442
880.51598
896.0905
900.52456
885.22679
879.74118
896.64336
892.06134
874.75888
852.87437
858.50333
866.91426
844.60794
830.72747
824.23306
806.10298
844.16171
869.96337
889.0168
893.74719
875.23693
872.36998
892.129
907.44948
911.76424
912.8253
914.84441
917.71661
928.96406
932.98842
921.80733
918.99074
930.723
926.67912
925.09219
929.15426
939.76683
949.21297
948.6495
944.80023
944.79039
957.70228
971.61656
971.63122
979.42605
965.6593
953.31735
957.21879
947.7837
943.80713
943.15596
952.76918
956.65267
947.13637
936.45061
937.23498
938.77748
941.02755
929.90947
933.42992
937.4804
941.63597
946.2676
951.24734
956.48086
961.78632
973.68564
993.33639
1006.0868
1015.8137
1025.1328
1031.791
1064.2283
1067.0469
1064.2303
1057.2135
1061.8569
1028.7533
1015.8126
1032.3041
1022.0638
1006.0881
1000.4528
1011.2293
1027.5496
1016.5679
1008.6732
1001.0873
992.97251
987.66501
996.97997
1005.0087
995.79811
1004.2119
1009.3144
1017.8017
1025.1428
1021.6291
1013.2525
1010.1849
1023.5224
1024.7605
1058.1481
1040.0061
1043.8356
1047.959
1065.358
1055.9196
1039.0015
1033.3095
1042.0418
1035.0606
1026.3455
1021.4007
1030.0791
1038.6573
1030.143
1039.1907
1043.7912
1050.3385
1061.0666
1059.2984
1052.9697
1056.1586
1047.325
1044.4581
1057.4387
1053.2845
1034.6913
1025.5604
1035.7595
1027.1064
1018.6204
1007.9258
1012.6785
1005.089
1009.8583
1010.229
1022.0658
1032.3063
1027.5529
1011.2304
1000.4511
1008.6726
1005.0082
996.97682
987.65886
992.96837
1001.0874
995.79651
1004.2131
1013.2539
1016.5698
1025.145
1021.6331
1012.6805
1017.8051
1009.3161
1001.1487
992.87763
984.49592
979.94569
984.09619
980.81749
976.77026
970.54994
974.39618
978.47167
974.62
978.81759
984.98718
988.15858
992.39955
989.13966
982.98993
986.82261
982.63229
976.72716
981.62695
973.68546
968.49718
972.6843
967.89462
963.78842
956.46337
961.77824
965.84159
960.57977
964.79448
972.08636
976.30482
981.03791
974.24335
970.03861
963.41616
970.80193
981.62801
992.87799
984.5009
979.95384
984.10164
978.47672
974.40697
970.56325
976.78115
980.82667
974.6294
978.82414
982.63449
988.16228
992.40086
986.82275
982.9934
989.14336
984.99423
982.08255
990.92775
1001.9125
1007.0667
993.81772
982.72891
978.56303
990.883
998.90655
986.78162
995.27445
999.38092
990.51671
993.40874
996.54438
1001.1497
990.54458
998.84564
993.88319
999.67721
995.35357
1000.8739
997.64326
991.54947
987.29758
991.09145
985.28247
981.03823
976.73278
972.68948
968.51025
963.8021
967.90525
960.58985
965.84804
970.03502
974.24057
969.02706
976.30987
972.09193
964.8023
956.90436
963.42079
959.23762
962.41401
955.0794
959.23443
952.66787
948.54142
939.95752
947.35634
951.28369
944.08718
948.3443
956.90445
961.15163
969.03155
973.37237
980.61871
987.29719
993.40931
996.54509
1000.8738
997.6479
991.55413
995.35689
991.0929
985.28411
990.54635
998.8481
1009.8623
1005.0937
1009.5112
1006.3208
1001.9823
995.93976
999.68179
1004.0535
1000.2958
993.72958
998.38306
993.89028
989.66719
984.9302
977.70201
982.91945
978.6444
972.01148
979.42745
988.21248
980.76823
987.29631
991.70203
986.56467
982.1298
989.31892
984.98454
992.33403
999.12751
1007.9334
1018.6259
1023.5274
1024.7643
1058.154
1061.8609
1047.9612
1043.8398
1033.3128
1039.0033
1042.0463
1038.6629
1030.0839
1021.4065
1026.3488
1035.0652
1030.1488
1027.2147
1018.3893
1027.4037
1022.6407
1018.2928
1013.7978
1010.7435
1015.1565
1009.204
1012.9108
1008.4724
1004.7777
998.22821
1002.789
1008.0494
1016.6952
1011.7251
1017.3759
1021.9209
1027.222
1024.1391
1019.6283
1013.7542
1018.28
1011.8665
1016.3952
1009.8463
1005.2595
1000.7303
1007.3518
1002.7188
995.61723
991.10543
996.26501
989.74308
997.16462
1008.0469
1018.3864
1027.3997
1016.6919
1011.7192
1017.3689
1022.6355
1018.2868
1013.792
1009.5074
1004.0475
1000.2857
1006.3142
1001.9764
995.93462
989.30687
984.92541
989.66581
982.91259
978.64029
973.37105
980.62033
976.23517
983.64822
979.35592
986.27604
983.24392
979.1094
974.89781
977.93953
973.85263
966.88593
970.97455
967.50727
963.42551
970.86987
968.31928
972.37172
964.31137
960.23135
957.38858
965.8925
969.89075
961.46331
965.65353
968.50456
971.70543
975.1667
967.70386
963.52214
959.40241
955.24632
959.36606
950.39792
955.38252
959.57678
963.83116
971.94287
967.78231
975.89766
972.69809
980.72635
976.56675
974.13033
978.24462
969.84248
960.46289
963.92523
959.69437
963.55491
954.58941
958.84256
954.17363
949.93486
945.75705
955.51816
951.40412
947.97473
952.07525
941.5869
945.74524
956.24851
953.31885
963.25087
972.22945
983.70748
996.90078
1004.2976
1020.6852
1005.2842
1007.2993
1015.6885
1003.8636
1000.8341
1013.7156
1012.476
1004.0799
995.63804
987.62982
988.85036
975.48497
973.82083
982.04112
990.55999
992.21991
980.69411
982.59719
985.02583
987.55787
991.7946
994.79991
987.93556
984.4973
980.20151
972.08703
976.43735
980.57567
972.51476
977.69804
982.11816
987.29004
991.69412
998.37756
993.72227
986.55523
978.77995
985.2441
980.76441
976.38344
972.00965
967.69056
959.77127
955.72581
951.28979
947.36277
955.09186
948.55545
952.68339
944.09719
939.98017
930.77052
939.79309
943.91937
934.91495
930.76613
920.87929
925.0475
934.92197
939.16106
948.17991
955.72425
959.77117
967.69825
952.59767
943.44158
952.43316
943.44008
952.59816
961.15476
965.50608
969.86209
961.34514
968.50601
964.34169
956.98319
947.81742
956.80987
964.3411
968.507
976.39193
969.86768
965.51428
956.98178
961.35152
965.84623
974.32597
978.79013
985.25245
977.42594
973.15807
965.67221
973.15222
977.42251
970.3182
965.84256
974.31875
968.132
976.94533
984.97439
992.32342
999.12017
1003.5037
996.71285
993.3074
1000.5341
996.18913
988.90786
980.85472
985.31776
989.41904
981.42162
976.47986
971.98289
967.54028
963.16148
968.1554
959.28828
954.95347
950.68611
946.47611
942.33705
932.59155
936.74002
929.55711
940.50138
936.36929
925.42393
913.33898
922.00035
926.15472
914.70022
910.53125
906.4135
895.90558
885.46461
900.8567
892.95647
875.29928
870.89445
881.26989
863.78729
877.10268
872.87083
885.83992
881.63862
877.36517
863.77647
859.15023
842.66059
847.51194
864.12948
850.10923
845.21324
839.97362
834.6266
812.75
831.13434
811.83341
818.13546
838.73536
821.05374
795.39932
787.57693
759.2141
788.92662
795.11717
819.0352
797.94114
823.7897
817.509
790.25292
760.95155
768.52146
734.16118
766.92175
773.68714
801.67037
826.92652
844.05567
849.0581
832.51313
807.61734
829.0345
823.7666
801.20235
824.59868
829.80547
809.87501
834.94242
829.53057
804.09763
775.20033
781.43914
806.86178
780.0432
748.41364
741.53513
698.84174
738.46331
773.41901
805.81546
799.13702
768.33206
722.60268
766.15792
758.2105
712.24903
639.84333
647.61231
719.06767
655.56671
527.48018
527.77699
426.35676
580.63785
666.46246
722.68491
730.55538
677.09325
627.18507
690.36912
680.76591
724.67301
683.34948
727.15441
763.81561
798.0613
804.61824
771.66373
733.69283
779.12961
771.1997
723.51253
675.61809
685.7552
734.81831
692.84259
633.70643
621.74143
535.15593
596.17545
660.11545
732.69717
739.60392
798.83248
837.81164
830.76583
861.25284
882.24348
887.3179
866.93778
837.32519
843.73068
850.3042
813.40088
793.65195
786.30434
779.22152
770.84413
824.34923
854.6267
854.50706
861.13142
882.20741
898.3199
911.44452
922.59613
917.85441
918.57729
928.51947
932.91304
923.28197
927.61569
926.94862
931.04954
940.65087
941.20689
937.23916
938.25168
951.30466
964.80507
963.55183
957.06412
959.13278
975.77998
991.42485
988.49712
979.41263
965.64772
967.28173
980.65208
972.81859
959.34075
962.39815
974.86245
966.84102
954.38737
958.56967
969.9061
962.14243
965.3983
980.18157
999.75507
995.71388
980.98988
977.81208
985.68393
982.66596
970.33651
974.48472
966.55547
971.48644
963.51583
973.10584
976.87049
974.43923
968.94665
961.31736
957.50332
964.8604
949.58542
933.44088
949.41513
939.07896
947.57354
952.89339
958.55334
953.0898
944.75188
935.81464
927.97664
912.00818
914.02398
922.98432
936.28247
944.16526
944.97288
924.56675
932.60963
921.5368
907.72291
898.76568
882.6549
879.68089
889.84607
907.69751
898.69861
913.12903
924.54143
911.9135
930.03974
944.10538
964.56176
955.00541
970.33003
985.0577
994.14601
1000.8578
989.69593
984.43185
992.51221
988.82919
979.38447
984.71039
976.75965
968.89027
960.88263
955.50506
944.33538
941.33833
938.27177
935.67346
933.17547
931.22708
929.57461
933.9467
924.6215
919.91428
921.95212
926.55514
935.59282
939.85425
943.83105
942.21584
933.00318
931.71454
920.96678
920.13741
915.89518
902.99154
907.44016
908.53978
904.13945
916.75497
912.32785
907.79852
906.87587
892.99915
894.28527
899.51763
901.77083
914.03428
909.51212
896.58661
899.9514
912.04678
916.45767
904.91712
909.3632
906.31838
918.41037
928.94197
930.83387
934.89046
924.92261
922.59687
910.64462
913.61522
917.75088
914.85714
912.82389
911.76463
924.28253
924.28659
928.35868
939.1246
939.11305
948.65057
949.20525
945.34557
935.79064
935.1527
939.76269
943.79602
943.15827
952.7646
956.64843
947.13294
947.77344
957.20749
953.31451
954.31133
950.20408
946.34923
937.07389
941.03461