/*--------------------------------*- C++ -*----------------------------------*\
  =========                 |
  \\      /  F ield         | OpenFOAM: The Open Source CFD Toolbox
   \\    /   O peration     | Website:  https://openfoam.org
    \\  /    A nd           | Version:  7
     \\/     M anipulation  |
\*---------------------------------------------------------------------------*/
FoamFile
{
    version     2.0;
    format      ascii;
    class       volScalarField;
    location    "440";
    object      nut;
}
// * * * * * * * * * * * * * * * * * * * * * * * * * * * * * * * * * * * * * //

dimensions      [0 2 -1 0 0 0 0];

internalField   nonuniform List<scalar> 
25278
(
6.7430886
6.6317929
6.6731644
6.6731512
6.5437411
6.6317849
6.7173285
6.7430715
6.7173652
6.6135572
6.6791491
6.7159244
6.6787366
6.6409433
5.9025838
6.6730636
6.6317168
6.0232666
5.6109134
6.0877038
6.4025867
6.4989632
6.5850231
6.6307282
6.4757196
6.6307184
6.5850313
6.407645
6.3261258
6.3640711
6.2423086
6.2061478
5.8549851
6.0890996
6.1151238
6.0593793
6.0885465
5.9960115
5.9695041
5.7200735
5.8674395
5.8950935
5.7608342
5.7927232
6.0355761
6.2985407
6.552804
6.4602894
6.1973126
6.1341419
6.0568388
6.0093038
5.4228498
5.6129578
5.8809457
5.9119415
5.8274551
5.7961636
5.4434526
5.5808952
5.6220365
5.4951785
5.3922555
5.7681203
5.7308411
5.6924867
5.730772
5.3337582
5.2708822
5.3349404
4.8478603
5.0314314
5.2389441
5.4454957
5.6529329
5.8076542
6.1154145
6.3642049
6.4991003
6.4346771
6.3848983
5.9062261
6.0255817
5.6248479
6.3150651
6.2605998
5.4330979
4.6357606
5.126954
5.6109041
5.634534
5.1293162
5.1167416
4.2052018
4.2733841
5.1392672
5.2396813
5.7078423
5.7104275
5.2304885
5.2306214
4.3585693
4.4430546
5.23848
4.7295042
4.7483584
4.6436472
3.3035622
3.2483663
2.4655077
4.1990151
4.166718
2.4334843
2.4150359
3.3746973
3.4512412
2.3970141
4.2245874
4.2797108
4.2753212
5.6230153
6.3149298
6.5436628
5.1028439
4.1857278
3.2348818
2.4581675
4.1945934
5.4306949
6.2603894
6.3846994
6.4345617
6.0242827
5.9037698
5.1187918
4.6281313
4.6358006
4.1615026
2.4246133
3.2880984
3.3579676
2.4041845
2.3838117
4.2185596
4.7215146
4.7406346
5.2329182
5.1309653
4.2536512
5.1152868
5.8974233
5.6051686
5.6294705
5.7038468
6.0200411
5.7070911
5.2323306
4.4252647
3.4327079
1.9966805
0.85392201
0.85947318
2.0155749
3.403357
4.6983967
4.7188365
4.2257824
4.1657097
2.2877049
2.318763
3.3306054
1.9745307
0.88320383
0.80578537
0.28372763
0.31169055
0.93652767
0.93144513
0.3219547
0.29395908
0.80155285
0.87635004
1.9582452
3.2903762
4.338931
5.2186994
5.2192516
4.6701393
3.3603017
2.2059554
2.2454376
4.166904
5.5947727
4.6900893
4.1033034
4.2476712
2.1822279
0.73209595
0.2700744
0.25993319
0.7334934
2.2736899
4.3075724
4.8124914
5.3361949
5.7783413
6.0896371
6.3264599
6.2074668
6.2428369
6.0605482
5.8583323
5.8694365
5.8965264
6.0891833
5.9974482
5.9716845
5.7242251
5.7638548
5.7947729
5.9383698
6.1798062
6.4119523
6.5528157
6.4407838
6.2091436
6.1674305
6.326838
6.2987231
6.123943
6.14073
5.9587829
5.8252928
6.0512343
6.0364673
5.95556
6.1978623
6.4603405
6.4031322
6.0907242
6.1354677
5.8846394
5.6227893
5.5886418
5.6279514
5.914292
5.8312996
5.8015867
5.4555884
5.5046416
5.4048525
5.7730243
6.0587544
6.0133967
5.4387824
5.7377024
5.3510098
5.2875885
5.6993188
5.7355677
5.3465415
5.3940109
5.4482955
5.5422393
5.6606817
5.6958968
5.9723812
5.8944714
5.8780456
5.8226528
6.1290416
6.1592855
6.2285069
6.0069237
6.0845748
6.099336
6.1852653
6.0107434
5.9930453
5.8556924
5.8817438
5.7578422
6.0230749
5.9488019
5.9338404
5.6194396
5.7286932
5.5555631
5.6323164
5.7151317
5.7899212
5.9233118
6.2091271
6.4407652
6.4118742
6.1796242
6.1235357
6.1405826
6.0506665
5.8240863
5.958311
5.9373943
5.7257026
5.8747684
5.7539567
5.6799441
5.658037
5.6392707
5.4874517
5.6856502
5.397897
5.3711713
5.0857169
5.1471211
4.7513951
5.1157857
5.4000636
5.687779
5.6555141
5.3430454
5.3740099
5.0960485
5.4523924
5.4929441
5.155421
4.7600929
4.695598
5.0736621
4.5564509
4.6850999
4.2015128
4.2960547
4.6023405
4.7968945
4.9980225
5.1705367
5.3448557
5.4967666
5.514547
5.4090659
5.568372
5.5502063
5.382065
5.2102748
5.2341546
5.3659457
5.4512287
5.4732097
5.3886194
5.5390706
5.5527749
5.6929613
5.6070493
5.594174
5.4321506
5.4512813
5.2807117
5.4066782
5.2365393
5.2200528
5.1913902
5.0452566
5.0115795
4.8116058
4.8420108
5.0227689
5.1626673
5.4528799
5.726858
5.7545621
5.4742574
5.3917511
5.5415681
5.6816457
5.660282
5.6421201
5.5005888
5.5174524
5.4141729
5.5721035
5.5547693
5.3882653
5.2183305
5.349291
5.3696239
5.1960782
5.1756928
5.0217701
5.0538381
5.2409348
5.2642639
5.4362435
5.5971754
5.6092319
5.6941955
5.5546579
5.4546164
5.2852352
5.409105
5.239623
5.2237608
5.0796214
5.1025379
5.1256649
5.2680251
5.5250191
5.5418542
5.8131189
5.7441986
5.725766
5.5884908
5.5779895
5.4743757
5.4904917
5.6422037
5.6636442
5.6731294
5.7547619
5.6197421
5.608993
5.5085805
5.5239639
5.3607124
5.4789034
5.4642761
5.4463606
5.4320427
5.3059726
5.3244251
5.1455484
5.2797192
5.3029708
5.3150703
5.1848737
5.165985
5.3429628
5.2297959
5.4136936
5.5886965
5.5673221
5.3947126
5.3765848
5.3559593
5.5323904
5.518224
5.4923403
5.4723693
5.2966736
5.2531396
4.8421688
4.8101528
4.8677719
4.5727901
5.1090411
5.0553771
4.4921579
3.832054
4.2918223
3.5585225
3.6833298
3.7720057
4.3565795
3.9091635
3.1509442
3.0413795
2.3189844
3.3354425
4.1983153
4.8815041
4.3648618
4.7737304
4.8411032
4.9444386
4.2834061
4.0740794
3.9777079
2.9369237
2.3996446
1.607482
1.6038694
2.3691883
3.4050949
2.9770694
3.4620519
3.6410162
3.851811
4.0625427
4.2705243
4.4608771
4.6489866
4.8226737
5.0030704
5.0272659
4.8238403
4.8003926
4.5946065
4.6345376
4.8517252
4.8806983
5.0564655
5.2007045
5.0527721
5.0725939
4.8991227
5.0964432
5.0721945
5.258298
5.1336917
5.3289778
5.5139345
5.6933158
5.9713387
5.9537533
5.8755826
5.8928629
5.5778566
5.5353126
5.6564069
5.4658261
5.2847041
5.0882614
4.5302536
4.8461647
4.7855611
4.4455425
4.130099
4.2181239
4.9148851
4.8103992
4.738418
3.9049642
4.0035928
2.8430791
3.2849433
3.8377195
4.3253176
4.2584855
3.5056061
3.7602159
2.9597789
3.6547971
3.7425052
3.0643259
2.2127829
2.1812605
3.2220612
2.8130368
1.4638192
1.4404465
1.966343
2.6676978
3.3412869
3.8846185
4.3569584
4.7240405
5.0457411
5.3847408
5.7848855
6.1282025
6.1590791
6.2283855
6.326776
6.1673153
6.1852703
6.0992112
6.0842122
5.8550554
5.9928633
6.0106899
5.8814749
5.7572169
6.0228608
6.0062921
5.9329767
5.9483679
5.6499185
5.6166175
5.7272594
5.5529826
5.6305489
5.7141357
5.7894829
5.8130284
5.743722
5.7250823
5.6410062
5.4887044
5.5873981
5.5765565
5.4717342
5.3025392
5.4302251
5.5243587
5.5414848
5.4633797
5.6083436
5.6193425
5.7544889
5.672589
5.6626691
5.5073037
5.5231489
5.3594344
5.4782702
5.3141804
5.3015187
5.2778568
5.4448386
5.3218056
5.1420267
5.1207214
5.2654677
5.1005996
5.2478927
5.2778111
5.1406127
5.1166392
4.9491589
4.9254347
4.7169764
4.9100982
4.8753146
4.8580428
4.8203369
4.6248514
4.5833997
4.3567667
4.395407
4.6332339
4.4023326
4.3642798
4.0997126
4.1509466
4.1901558
4.4318048
4.6580945
4.8719242
4.6945524
4.9225753
4.8922157
5.1060947
5.3036483
5.4868688
5.3987085
5.3761707
5.16625
5.2770893
5.0822194
4.9475393
4.978349
5.199745
5.2279887
5.4296101
5.4451057
5.5289571
5.3508271
5.2523861
5.1568139
5.3730185
5.3547681
5.3220396
5.2959959
5.2148398
5.2422718
4.9992868
5.0974276
5.0631579
4.9574306
4.6813393
4.8160221
4.8485457
4.7202696
4.4032981
4.5715578
4.7351978
4.6905643
4.8589578
4.6290278
4.659924
4.4695661
4.42782
4.1289103
4.3719263
4.4125491
4.1844658
4.2279613
4.509132
4.7700942
5.0090571
5.0380574
5.1587399
4.9509689
4.8032179
4.6515558
4.917554
4.8840693
5.1288397
5.0345593
5.2793344
5.2985746
5.065607
4.7989773
4.7603844
4.4498355
4.6120891
4.3108994
4.2636708
4.220508
4.5260146
4.3453799
4.1756402
4.5550791
4.8653414
5.1467292
5.4390319
5.8192711
5.8392356
5.8053184
5.4369192
5.4875262
5.5313025
5.8804935
5.8978571
5.8663964
5.8489293
5.483865
5.5234747
5.5682997
5.3227403
5.3761729
5.4423961
5.5100722
5.587427
5.565479
5.4848693
5.4724258
5.2768234
5.3726142
5.3918796
5.2981382
5.3200199
5.4115863
5.429297
5.5990147
5.5210742
5.3392709
5.2544328
5.4554285
5.3895758
5.1760739
5.151736
5.2326231
5.2083671
5.4163797
5.4016088
5.331177
5.3465928
5.124099
5.0966073
5.1840286
4.949399
5.0652615
5.1827214
5.2050975
5.0908776
4.8645066
5.0029798
4.9777202
4.8344954
4.688972
4.7247234
4.9790734
4.8710134
4.8357338
4.5403553
4.4953078
4.3388848
4.6857275
4.9822807
5.2394746
5.2174613
5.1781572
5.118833
5.0857941
4.7817712
4.8309161
4.9081994
4.9472942
4.8733759
5.1616508
5.1849064
4.9113751
4.859581
5.1502236
5.1252544
5.0808455
5.0597788
5.0239323
4.6934861
4.7456477
4.773883
4.8187215
4.7917058
5.1052802
5.1306325
4.8332859
4.4696472
4.5085801
4.5851826
4.5368457
4.6419061
4.5964805
4.4874547
4.4413544
4.0085421
4.0767413
4.2335896
4.2860998
4.1334976
4.1914317
4.0731548
4.0112944
4.4566429
4.4042572
4.3625391
4.3136098
3.8169992
3.8875034
3.9516419
3.3927505
3.5830924
3.810302
4.0435672
3.9908622
3.5774518
3.8767008
3.9310101
3.6473372
3.7042186
4.0968742
4.1501649
4.355808
4.5468207
4.7261953
4.4852836
4.6871923
4.4645093
4.6942649
4.8779153
5.0755533
4.9060846
4.6947612
4.6665825
4.8607942
4.6692109
4.4379591
4.4698708
4.2262981
4.2607256
4.4958649
4.725388
4.912155
5.1029322
5.1187113
4.9255312
4.7473494
4.9533933
4.9310605
4.7226286
4.500533
4.5286206
4.7465851
4.92381
4.7425295
4.7686594
4.9725981
5.1634896
5.341053
5.2265489
5.2467895
5.1381528
5.1151194
4.8925197
5.027017
5.0497642
5.1830044
4.9940161
5.1559051
4.9666955
4.9542125
4.7744553
4.9556201
5.1419586
5.1569073
4.9674914
4.7942249
4.9962242
4.9757586
4.7720677
4.5558687
4.5806964
4.7930174
4.5785021
4.7915179
4.6086401
4.8368825
4.8115201
4.7846461
4.7563731
4.5828853
4.6171264
4.3494003
4.5502515
4.5185739
4.3100752
4.2695756
4.0319916
3.9814649
3.6338851
3.9308477
4.1916423
4.4495769
4.1500867
4.111936
3.8329692
3.883453
3.5755883
3.8768816
3.8285902
3.5114978
3.1712925
3.5302557
3.5792508
3.2272314
3.1691248
2.745671
2.8141069
3.2273286
3.2815696
3.6244751
3.9209065
3.9625975
4.2300807
3.9763153
3.6723952
3.3359877
3.6872334
3.3450592
3.7625474
3.8234598
4.203302
4.3996419
4.4422771
4.2565614
4.5837294
4.6255764
4.9042425
5.0074353
5.0338885
4.9352837
4.6646365
4.7905449
4.9188353
4.6801653
4.6494607
4.3865224
4.5801663
4.3350278
4.5525845
4.5246248
4.2930013
4.3237323
4.3524104
4.1112747
4.3660083
4.1451111
4.4214936
4.2255521
4.5214162
4.4829299
4.7583908
4.3085118
4.3582066
4.0113924
3.9491064
4.1791905
4.1311462
4.0816312
3.7416706
4.0205884
4.2668115
4.3015973
4.0637895
3.7661456
4.0404219
4.0021318
3.7193636
3.391881
3.449225
3.7963427
3.4785815
3.8857405
3.6044174
4.0584708
4.4434305
4.7690592
5.0481805
5.2917308
5.2737008
5.2226293
5.2418624
4.9842173
4.9495357
5.0168757
4.728116
4.6328794
4.6791727
4.3112788
4.2506914
4.3910293
3.9933601
3.9304277
3.8697926
3.6448501
3.7102971
3.129705
3.4574093
3.3927334
3.3326109
3.2706764
3.757342
3.5274417
2.9381962
3.0082855
3.0649569
2.7715898
3.4546551
3.5216382
3.4191056
4.0111568
3.9478333
4.4160132
4.4238682
4.7954631
5.1070816
5.4382997
5.805672
6.1283929
6.4602888
6.402697
6.0247975
5.6159766
5.2414507
5.7097504
5.239042
4.7371973
4.2416104
4.1845583
4.7183458
3.4426401
2.3314296
2.3548506
3.3656627
4.3705044
4.4544054
5.2382272
5.7121531
6.0255235
5.2398881
4.7264106
3.4543441
2.047175
0.83493516
0.91075699
2.002915
0.95324465
0.33354021
0.30550139
0.87588941
2.3927718
2.4141819
3.3802106
4.746771
5.6229724
4.2762156
4.6860831
3.2788536
1.952568
0.94008743
0.32645205
0.29800177
0.86159031
1.9894602
0.77986026
0.85622316
2.2251612
2.1814729
3.3475793
4.6650716
5.5931934
4.1591126
4.0948288
4.2398473
2.1533726
0.70917854
0.27363785
0.28180512
0.76372311
2.3269741
4.3272244
5.4271081
6.0102634
6.0571711
6.1348778
6.0889513
5.6184932
5.7991074
5.733561
5.69347
5.7314592
5.7702162
5.3979333
5.3360656
5.2737699
5.3416894
5.4502953
5.5008454
5.8294523
5.9135916
5.8830477
5.5861011
5.6261684
5.6596532
5.954952
6.1975738
6.2284579
6.1591255
5.8492762
5.8665344
5.8982206
5.88109
5.8401492
5.8207418
5.7853062
5.3864235
5.4435267
5.4907549
5.5334282
5.4847824
5.524039
5.5695631
5.6510328
5.9486632
5.9335058
5.8937783
5.8770132
5.5397321
5.5808371
5.6952766
5.9720771
6.0067678
6.023073
5.7578262
5.7284941
5.6185006
5.3364688
5.279522
5.2280033
5.193358
5.1721366
5.1707853
5.1891909
5.2101915
5.1921512
4.9138406
4.9373874
4.9001581
4.8752275
4.5227962
4.5599513
4.6106484
4.5752858
4.1472479
4.2037893
4.1371705
4.0775501
3.4941866
3.5954687
3.7806391
3.8561038
3.2887552
3.2034562
3.5276461
3.0055595
3.4092045
2.9879403
2.9249337
2.8675791
3.2843341
2.8747
2.8188807
2.7747028
2.3457153
2.3797719
1.7756358
2.3219691
2.2816415
1.7428599
1.2745142
1.2599261
1.9728947
2.7222567
2.5608345
3.2905801
3.2410616
2.5060544
1.7396418
1.7293828
0.93845287
0.96369314
0.48769665
0.78423726
1.2943545
1.8740898
2.3827151
2.8359429
3.2046215
3.5440287
3.8423507
4.1327494
4.3937473
4.4328925
4.6780117
4.9067305
5.1172338
5.311606
5.2864814
5.1798562
5.385565
5.4064219
5.2113218
5.23763
5.3352499
5.1428038
5.1663644
4.9613621
4.9348336
4.7902616
5.023205
4.9946516
4.9662907
5.0947583
4.8752425
4.7165915
4.7579175
4.6060728
4.8723628
5.1134769
5.332273
5.3081094
5.0816398
4.9819536
5.2302473
5.2554363
5.0201886
5.0526094
5.1425553
5.3633024
5.4359082
5.4501784
5.2601949
5.0497973
4.8202938
4.6781378
4.9351562
5.1679302
5.3798482
5.5821384
5.4937373
5.841295
5.8074008
5.7880531
5.7879853
6.1289413
6.4603151
6.6317104
6.6730521
6.7429307
6.7172436
6.6409784
6.5849795
6.4990046
6.403081
6.0131858
6.0584896
5.6989763
5.4372258
5.2864772
5.3456585
5.7350787
5.772325
5.7368057
5.3489268
5.4028704
5.5027763
5.8305221
6.1353175
6.0902254
5.6206862
5.8006399
5.452956
5.5867588
5.8837692
5.9138524
5.6264845
5.6596701
5.5407621
5.4466973
5.3931791
5.4424427
5.4429456
5.4875691
5.5349788
5.8817326
5.8983925
5.5702076
5.6511904
5.4454327
5.5121034
5.4877858
5.4763704
5.2829817
5.302834
5.3233751
5.341617
5.4305969
5.5998186
5.5223943
5.4575142
5.2579546
5.2378393
5.2153438
5.4204238
5.4069803
5.1931285
5.1091758
5.3383968
5.3075058
5.2902693
5.2307312
5.1937436
5.164989
4.8947231
4.9340955
4.8601673
5.1361731
5.1062193
4.8146491
4.4929569
4.5998215
4.7170655
4.8426117
4.5637198
4.3982382
4.451551
4.7526998
4.7893949
4.9046772
4.642773
4.4937884
4.534504
4.8236169
5.0805577
5.0015411
5.2503447
5.1971504
5.1763077
4.8989406
4.9696425
4.6791331
4.6375485
4.2968448
4.2422222
4.0877653
4.1519211
4.5352176
4.5803495
4.6236909
4.7180119
4.3919464
4.3446792
4.2044135
4.2569092
4.1438772
4.5489041
4.8821471
4.9331715
4.9680098
5.0327597
5.2824955
5.2987373
5.3522452
5.1338992
5.1591612
5.3802306
5.3923602
5.1812316
4.9444585
5.0399411
5.1419027
5.2488821
5.0531327
5.0317735
5.0094872
5.2093549
5.1886199
4.9861346
4.8488624
5.0747866
5.0982403
4.8756163
4.901042
5.1204598
5.015927
4.9904796
4.9636863
4.7113557
4.7429359
4.6115891
4.887376
4.8563875
4.5736217
4.2553561
4.4325406
4.6023937
4.7673878
4.7394418
4.7099967
4.4681425
4.5009275
4.2992211
4.56971
4.5357149
4.4992103
4.2204236
4.1674781
3.8739819
3.9223232
4.1695109
3.8902709
3.6099578
3.5474033
3.2372478
3.599017
3.9381812
3.9903016
4.3105181
4.1118072
3.7371187
3.6694709
3.2762038
3.3345125
3.6469279
3.2939651
2.924543
2.8531668
2.4334084
2.9226152
3.3953268
3.4588054
3.9025631
3.696309
3.1673069
3.0927715
2.5311618
2.5788898
2.9737899
2.4847668
1.9836336
1.9320955
1.4703433
2.1651692
2.8343997
2.8969288
3.5148658
4.0314823
4.4539603
4.8038991
5.0986622
5.0662145
4.7576831
4.7245599
5.0430341
5.0757476
4.7729179
4.8155085
4.8449709
5.1402822
5.1626498
5.1415854
5.118515
5.1180816
5.0748841
5.0422356
4.8386309
4.7709639
4.3586563
3.9725517
4.0679274
4.2712296
4.9392922
4.8758505
4.1859952
3.3145124
2.9255635
2.3831833
1.5909984
1.5830529
2.9634183
3.3808231
2.3339663
2.2897535
3.0156029
3.8125973
4.4811465
5.0502918
4.8342582
5.2491364
5.2930551
5.1041062
4.5617542
4.8600664
4.8012661
4.2773013
3.5386008
3.6610688
3.7500923
3.1218476
3.8886607
4.3425218
4.4486196
4.2548497
4.0431858
3.8299088
3.6190784
3.4447265
3.3439684
3.3503783
3.8925117
3.9673414
4.4097852
4.3624274
4.4077178
3.959715
4.0164408
4.086951
4.501978
4.4571399
4.505613
4.8533987
4.8919807
4.9190464
5.1992001
5.2323633
5.249472
4.9986642
5.0606258
5.0888023
5.3276095
5.3416831
5.1134798
5.0571971
5.2959311
5.2812562
5.0296058
4.7453876
4.8254033
4.9166727
4.6472849
4.7727114
4.8008087
4.9249825
4.6892984
4.8416255
4.8182061
4.7933848
4.5611839
4.531834
4.3357068
4.370536
4.6329635
4.6618693
4.4034245
4.5887507
4.6146737
4.4341516
4.1608153
4.3726929
4.3437603
4.3129253
4.2803704
4.2457865
4.2091816
3.9333718
3.9738481
3.7036093
4.0092093
3.966749
4.2604811
4.0374592
4.3533906
4.3936137
4.0828336
3.844907
4.2081431
4.1606981
3.7906966
3.3914767
3.6986573
3.748573
3.3994482
3.3468069
3.6573166
3.3346198
3.6374382
3.5893492
3.2619487
2.9402421
3.2832604
3.2270684
3.1152813
3.0262168
2.0976263
2.2528875
2.3426729
1.6991187
2.3982794
2.3053704
1.6039696
0.89109386
1.3541749
1.3585999
0.53517725
0.60435829
0.31935519
0.28760945
0.90715859
0.46314949
0.9397278
1.4620344
1.447853
0.78697316
0.92081648
0.35184356
0.67639538
0.60378042
0.31819629
0.17937759
0.195668
0.48224619
0.1880807
0.17272656
0.1751132
0.17898716
0.18605224
0.2025628
0.33250142
0.63102009
1.5123608
2.8489676
3.9224593
4.7460298
4.8173191
4.9296233
4.8628489
4.1658275
4.2544498
4.0223821
2.8857578
3.3598918
3.2873567
2.274536
2.3240897
1.500764
1.7798027
2.5374238
3.2620132
3.8295741
4.3213227
4.697558
5.0263416
5.061524
5.0872746
5.052313
4.7360303
4.785215
4.7493575
4.3698719
4.4242742
4.3766777
3.9190724
3.986549
3.9008781
3.9618899
4.0251278
4.4764383
4.836807
5.1318976
5.1550226
5.1307334
4.8293086
4.8689886
4.9239342
5.1910327
5.1690154
5.1270439
5.0952211
5.1570484
5.1874605
4.924312
4.8457489
4.7977532
4.8825226
4.5829784
4.4682389
4.5137053
4.6230937
4.2766368
4.1203991
4.0523308
4.2193418
4.3840311
4.7060276
4.9735778
5.2244555
5.1015791
5.0460065
4.8320288
5.2492542
5.2935888
4.8638612
4.5599496
4.4769313
4.8047916
4.2886158
3.8132117
3.5500003
3.0303619
3.1409036
3.8929492
4.3539925
3.7770265
3.6888412
4.2139188
4.6986062
5.0953734
5.4511582
5.7230326
5.9710505
6.2425677
6.4989189
6.5527013
6.2985968
6.3267332
6.4406725
6.4756036
6.411824
6.3640766
6.4076007
6.3263011
6.2068074
5.8572551
6.0601913
6.1154301
6.0889785
5.9969542
5.7630639
5.8961992
5.8689198
5.6556744
5.8083228
5.6877907
5.4919325
5.1549724
5.4008667
5.3751582
5.3427248
5.7795996
6.0895894
5.3435592
4.566343
5.0783495
5.1190945
4.7623326
4.3062286
4.7610416
4.6975207
5.0950096
5.3752295
5.4006363
5.687547
5.6553688
5.4511531
5.4915837
5.1540206
5.175341
5.4531157
5.8750341
5.7268752
5.641737
5.7942067
6.0362025
6.0510497
6.1406504
6.1797005
6.1237327
5.9381259
5.9587064
5.8249632
5.8555268
6.0844244
6.09925
6.1852105
6.2090489
6.1672614
5.9930196
6.0106808
5.8816137
5.663515
5.5886469
5.5119562
5.4450195
5.3794844
5.3264209
5.2793049
5.2479335
5.2291707
5.2282107
5.245069
5.2756503
5.2921358
5.3382189
5.1068029
5.0791709
5.0187901
5.0493012
5.0078404
5.2629617
5.2465836
4.9866257
4.9521434
4.9744912
4.660106
4.7239761
4.8080891
4.8446174
4.7661673
4.4299256
4.5426218
4.4940773
4.3712239
4.2713709
4.3380618
4.7068369
4.6762892
4.6267837
4.2181076
4.2889001
3.7705466
3.8588837
4.0156044
4.1882931
4.1238878
3.9350338
3.3847808
3.6850031
3.768001
3.4894499
3.1965851
3.0792449
3.765192
3.676859
3.5781502
2.8014967
2.9799949
2.8974428
2.8286543
2.6565139
2.6037369
3.3515939
3.3765874
3.3134834
3.4504035
3.3944375
2.7500847
2.8131475
2.5970301
2.6449836
2.7025073
3.4447816
3.585003
4.1074972
4.5266851
4.4759249
4.0460864
4.1768192
4.5617622
4.8868509
4.9619433
5.2254452
5.2462806
4.9950936
4.7085412
4.6082404
4.2332072
4.3775129
4.3272879
4.6666517
4.7820444
5.0473172
5.2867128
5.2506725
5.3293945
5.3042935
5.0767016
5.1094207
5.0132842
4.7433892
4.8670851
4.8360254
4.5560104
4.5992273
4.4391659
4.4836871
4.5264902
4.8178669
5.0767775
5.3046684
5.3782973
5.3608712
5.1394413
5.1656556
5.2587305
5.4489663
5.4343986
5.4043223
5.382994
5.4708632
5.4912518
5.3102694
5.2086587
5.1763913
5.2846059
5.0929823
4.9625788
4.9917877
5.1154589
4.905366
4.7546099
4.7121821
4.873447
4.6477795
4.4566925
4.2613171
4.0451915
3.8224676
3.5946714
3.6535223
3.8762206
3.4278208
3.1139432
3.0363198
3.3616163
2.8893921
2.4718616
2.0726976
2.0973413
1.7774816
0.98157837
0.99912721
1.3914145
1.3970353
1.4034677
2.1360884
2.8715406
3.5153025
3.7170247
3.7827157
3.9941522
3.935119
3.4903457
3.1779056
3.2479742
2.9385463
2.1834042
1.8122615
1.7451736
2.0160252
2.4692611
2.9353353
2.4145549
2.3651043
1.7915447
2.4201706
1.9917439
1.7343592
0.90302434
1.2401922
1.2177707
1.8122604
1.8396027
2.5297586
2.6054568
3.0851091
2.541158
3.0562904
3.1304789
3.5505541
3.850986
4.1051678
3.8112293
4.0766339
3.8079825
4.0837671
4.0488896
4.0122256
3.7479799
4.0498605
4.0888399
3.7909125
3.832123
4.1256562
3.8930803
4.2110567
4.5047725
4.4694666
4.1698361
4.1269412
3.8989308
3.9528601
4.3007178
4.3446137
4.3858808
4.5376206
4.2496738
4.0559613
4.0053414
3.6312656
3.5698508
3.8458028
3.7976282
3.4518383
3.5041217
3.1641473
3.099593
3.5087143
3.4491146
3.0383192
2.9802085
2.5376618
3.0341975
3.5183633
3.9585915
4.013881
3.5801166
3.2939816
3.8171164
3.7557286
3.2277766
2.6328618
2.6942563
3.0978439
2.5958718
2.0650217
2.0200283
1.4866778
2.2305598
2.9535526
3.5764225
3.6406634
3.0172031
2.8218322
3.5248713
4.0742855
4.1344449
4.2012441
4.3094533
4.4378921
4.7555721
4.7911687
4.4826857
4.3615927
4.7060252
4.6655234
4.5947741
4.63946
4.9523655
5.2178525
5.1987799
5.1793092
5.1790593
5.4870497
5.8500676
5.850133
5.8669185
5.5252407
5.2508687
5.2669962
5.0159085
4.9859381
4.9621276
5.2330051
5.2497374
4.9933764
4.6902982
4.7237233
4.7818509
4.8572204
4.5666102
4.680659
4.7120954
4.8269431
4.947809
5.0735292
5.2045033
5.3407708
5.5899738
5.9847315
6.2687031
6.4831564
6.5425514
6.6791333
6.7228177
6.7537389
6.7228321
6.6083793
6.6664338
6.6135257
6.4831476
6.5107838
6.297556
6.2686467
6.2158356
6.3774803
6.4039679
6.2553671
6.2303842
6.0609276
6.0461496
5.9101877
6.1331133
6.1453327
5.934631
5.9623094
6.0928271
6.1104616
6.2729068
6.1903967
6.1759942
6.1024686
6.3118051
6.535855
6.5941389
6.3649564
6.4531952
6.551988
6.5816491
6.3871207
6.3561449
6.3024723
6.3163482
6.1612597
6.1453739
6.0158168
6.2226578
6.2341972
6.0408982
6.0700709
6.1933208
6.3395407
6.4824542
6.3505359
6.2117624
6.2724526
6.2626671
6.1901459
6.396292
6.197399
5.9544159
5.9249347
6.1621481
6.1501213
6.1175862
5.8695953
5.9874139
5.8582931
5.9251968
6.0309472
6.2975627
6.5108022
6.404029
6.3774821
6.2158558
6.2304735
6.1454243
6.1330902
5.9101612
6.0461802
6.0609459
5.9347183
5.9624621
6.1761304
6.25542
6.2729827
6.190502
5.9876339
6.1105094
6.0928545
5.9021479
5.8692508
5.8477512
5.7742772
5.7841284
5.7028532
5.6938473
5.5410812
5.6412988
5.6506275
5.5557363
5.5726843
5.7230122
5.8014274
5.8116524
5.7321507
5.5872621
5.6802607
5.6700452
5.529296
5.6047989
5.5896974
5.4995263
5.5123712
5.3946666
5.3779001
5.2033938
5.3401237
5.3501462
5.2209693
5.239518
5.4117475
5.428272
5.5430819
5.3828281
5.3715232
5.2148835
5.3471653
5.6047725
5.8692459
5.847745
5.7744179
5.7841543
5.650782
5.6415022
5.5415643
5.6941679
5.7028944
5.5559502
5.572699
5.6701373
5.8013796
5.8115639
5.6802439
5.5871575
5.7319964
5.7228991
5.65065
5.8142481
6.0711922
6.283844
6.0576483
5.7873527
5.6832563
5.987337
5.9989203
5.71158
5.7415189
5.8426808
5.6809512
5.7525277
5.8305953
5.9020101
5.6509502
5.6670873
5.5930177
5.7305152
5.7108876
5.8405906
5.7614842
5.6184975
5.6041053
5.7013977
5.5633961
5.5430475
5.5292915
5.5126296
5.4998396
5.3787464
5.3950611
5.2216363
5.3504997
5.3719513
5.3830002
5.256852
5.4281719
5.4118817
5.2397524
5.0549496
5.2150593
5.1939216
5.3197963
5.1802142
5.1934861
5.0347806
5.0154537
4.8152278
4.9964716
5.0067771
4.8355208
4.8567606
5.0543369
5.0726121
5.2565831
5.2752028
5.4456186
5.6042823
5.7526552
5.8306981
5.8408017
5.7615863
5.6186164
5.7109823
5.7014376
5.5634316
5.6509355
5.6671282
5.9252209
5.8583714
5.8689934
5.7909883
5.7815864
5.6353348
5.7305916
5.7411504
5.6498989
5.4945866
5.607098
5.59298
5.5761738
5.4614911
5.2916143
5.4172816
5.4074716
5.2511149
5.3874185
5.4144656
5.2844776
5.4385495
5.4499178
5.3261668
5.3093042
5.4781716
5.3722937
5.5461017
5.7108309
5.8697598
6.1177164
6.3118859
6.5359016
6.594206
6.6664689
6.5520153
6.453255
6.3025238
6.3561655
6.3163729
6.2342727
6.2227527
6.0159249
6.1454352
6.1612702
6.0409956
6.0931678
5.9598775
5.9825425
5.9155748
5.8983409
5.8881969
5.8113395
5.8203491
5.6812548
5.7720698
5.7624258
5.6668695
5.5118888
5.6275443
5.7144935
5.7311935
5.6573751
5.7913938
5.8019753
5.9258088
5.8490338
5.8399261
5.6978625
5.7125092
5.5611022
5.6715214
5.5176032
5.5059154
5.4846448
5.6404515
5.5277923
5.3610057
5.3444168
5.4745712
5.3205091
5.4549879
5.7144655
5.959813
5.9825105
5.7311936
5.6572918
5.7913286
5.9154592
5.89825
5.888114
5.8688561
5.7410858
5.6498573
5.7908439
5.7814644
5.6351556
5.4782388
5.4613826
5.5760593
5.4173705
5.4075774
5.2751743
5.4454391
5.3381142
5.5138492
5.4969013
5.6608969
5.5864271
5.5771379
5.5550376
5.6307488
5.6205011
5.4484399
5.464316
5.3774906
5.3605209
5.5456546
5.4809816
5.4917664
5.2966639
5.2783792
5.2038472
5.4184802
5.4289021
5.2234019
5.2438474
5.3156377
5.395409
5.4812306
5.3033851
5.285544
5.2676372
5.1623121
5.1816852
4.9692971
5.0928684
5.1119105
5.130283
5.3205116
5.2189619
5.4115853
5.3327081
5.5242181
5.5137267
5.4532305
5.4628643
5.2617319
5.0378809
5.1239158
5.1043564
5.2004496
4.9898362
5.0095754
4.8959376
4.8741893
4.8512666
5.0838403
5.0625583
4.9701892
4.994114
4.7406053
4.7669693
5.0165051
4.9397113
5.1817329
5.4050547
5.6348045
5.9503829
6.2200909
6.2462446
5.9850524
6.0336036
6.046701
5.7691755
5.6944109
5.9989168
5.9693629
5.956113
5.9201117
5.9080802
5.9377663
5.604602
5.5617773
5.5931106
5.6250654
5.6657756
5.4396524
5.4865779
5.5460113
5.6083991
5.6174086
5.6911563
5.5292893
5.4450222
5.4291175
5.2369831
5.2546432
5.3549789
5.166512
5.2915321
5.3093751
5.438572
5.4499478
5.6070206
5.4944269
5.3260845
5.144811
5.297837
5.2844417
5.2637508
5.2511742
5.2284822
5.0436385
5.0337963
5.0070094
4.9970093
5.1807381
5.0170574
5.0355068
4.8365317
4.816708
4.6049333
4.818734
4.8353491
4.6258408
4.6032126
4.3793538
4.4043039
4.6267987
4.6486765
4.8587949
5.0336141
5.0435591
5.2281169
4.8754816
4.668293
4.8740909
4.6685925
4.8757027
5.0727643
5.0917504
5.1089961
4.9132927
5.0800202
5.0710066
4.8955142
4.6887027
4.8968626
5.0710158
5.0800228
5.2635718
5.109039
5.0915175
4.8955967
4.9132892
4.9325592
5.1273782
5.1448582
5.2977387
5.1153475
5.1057781
4.933491
5.1059271
5.115347
4.9499891
4.9324025
5.1272594
4.9814182
5.1843904
5.3721498
5.5460069
5.7106808
5.7212049
5.5614521
5.4780353
5.6480209
5.6388994
5.4621944
5.2722843
5.2897178
5.3890797
5.2022149
5.0845136
5.0660407
5.0475107
5.0287452
5.1484399
4.9440484
4.9247687
4.9052498
4.8849774
4.8638864
4.6391604
4.66197
4.489553
4.7385564
4.71458
4.4627062
4.1930032
4.3997111
4.4249072
4.1748089
4.1466122
4.1162969
3.8709941
3.6054943
3.9373718
3.6908106
3.2965564
3.2300475
3.5554026
3.2085705
3.5238844
3.4782198
3.7675243
3.7258716
3.6824213
3.3633181
3.3130759
2.9926642
3.0444779
3.3832767
3.0462164
2.9926613
2.9384307
2.8878289
2.5298542
2.8710417
2.5025054
2.5593924
2.8856184
2.4387615
2.1174412
2.0539125
1.7663479
2.1752151
2.2236665
2.5877664
2.1768136
2.5312259
2.4728639
2.1116544
1.7925784
1.8453636
1.4978381
1.8193665
1.8666045
2.1658509
2.4892853
2.9401235
2.9943385
2.5426742
2.2170163
2.6663733
2.6124328
2.2762085
2.6411655
2.6945117
2.2777577
2.6394118
2.5841692
2.2258474
1.892565
1.9415644
2.3289725
1.9157093
1.583461
1.5391228
1.1348934
1.3892111
1.6297297
1.9373165
1.9011561
1.3038431
1.023036
1.594565
1.562615
1.0027895
0.54943376
0.52642398
0.74982392
0.4405816
0.24513033
0.27394343
0.19294775
0.44897542
0.83428117
1.3233406
1.3532322
0.85412649
0.69234693
1.1033188
1.0697899
1.4428496
1.0872019
1.3675536
1.6449778
2.0007184
2.0365746
1.6809034
1.1172473
1.4658784
1.4449746
1.0924799
0.8827405
0.90336083
1.3979457
1.1209663
0.71831928
0.69640502
0.39402481
0.48317871
0.61348371
0.91905056
0.89338787
1.4784434
2.1906968
1.9143417
2.7151129
3.4007257
3.46059
2.7641816
1.934475
1.962193
2.2775314
1.5004757
1.0609846
1.0785226
1.0999769
1.1108314
1.910019
2.6538385
2.6442626
2.703689
3.3935237
3.955274
4.4050375
4.7713637
4.7227606
4.7539379
5.064034
5.0965135
4.800183
4.8417027
4.8139373
4.8521967
5.1406938
5.160874
5.1380371
5.1738479
5.492375
5.8408675
5.807015
5.821938
5.8776538
6.1977523
6.2284682
6.1592131
5.8668136
5.524939
5.5696204
5.8981627
5.8813673
5.5339323
5.618653
5.9336167
5.8940243
5.5810506
5.6951091
5.9721095
5.9550115
6.0362592
6.2986708
6.5527081
6.3267442
6.0844475
6.0067039
6.022967
5.9485625
5.6506786
5.7574345
5.7281995
5.8553131
5.8246253
6.0509153
6.1406629
6.1796144
6.1237346
6.0889276
5.9969142
6.2426224
6.2071124
5.8568903
5.97109
5.7227094
5.7627428
5.8957976
6.1149495
6.0599826
5.8683053
5.6538032
5.4493652
5.3380683
5.0897623
5.1502836
5.490388
5.6863716
5.8060955
5.3700321
5.3967485
5.1095602
4.7504224
4.6844131
4.5400785
4.1820404
4.2786759
4.7386874
4.6700997
5.0658819
5.3658314
5.3274387
5.7759389
6.088921
6.4075027
6.3263015
6.3641054
6.4118672
6.4755988
6.440685
6.2089878
6.1672783
6.1851638
6.0991618
5.8814025
6.0105633
5.9928107
5.9584145
5.9378846
5.7938388
5.5532372
5.4702384
5.3829259
5.305163
5.2268006
5.1615062
5.1030532
5.1330733
4.8546829
4.8089414
4.8885952
4.928486
5.1906074
5.2278256
5.2478091
5.1945702
4.9288654
4.8786504
4.542596
4.5030548
4.4544538
4.0118156
4.0697924
4.1319629
4.0754122
4.4953001
4.4471815
4.4033083
4.3596596
3.8879888
3.9565007
4.0199769
4.1370982
4.5261141
4.4835302
4.0726826
4.2274997
4.5901546
4.628237
4.2819289
4.3304176
4.1894729
4.5714076
4.8935857
4.9647095
4.9966382
4.7098608
4.6151241
4.2422459
4.3777797
4.424788
4.2953353
4.1894626
4.1296049
4.5511471
4.5533365
4.6005145
4.9265242
4.9258932
5.1981901
5.2164233
5.1974215
4.9161009
4.8903981
4.9497522