/*--------------------------------*- C++ -*----------------------------------*\
  =========                 |
  \\      /  F ield         | OpenFOAM: The Open Source CFD Toolbox
   \\    /   O peration     | Website:  https://openfoam.org
    \\  /    A nd           | Version:  7
     \\/     M anipulation  |
\*---------------------------------------------------------------------------*/
FoamFile
{
    version     2.0;
    format      ascii;
    class       volScalarField;
    location    "440";
    object      p;
}
// * * * * * * * * * * * * * * * * * * * * * * * * * * * * * * * * * * * * * //

dimensions      [1 -1 -2 0 0 0 0];

internalField   nonuniform List<scalar> 
25278
(
101315.4
101314.96
101316.22
101316.14
101319.91
101314.64
101314.25
101315.34
101314.55
101310.19
101311.85
101313.61
101314.68
101316.88
101325.44
101316.13
101314.94
101323.07
101326.75
101320.14
101315.14
101315.5
101315.55
101312.36
101309
101312.18
101315.4
101314.13
101319.7
101313.03
101310.92
101317.05
101312.68
101315.42
101309.22
101315.68
101311.07
101307.57
101311.86
101306.7
101309.75
101304.73
101305.17
101299.04
101303.13
101305.57
101310.72
101308.32
101304.51
101311.18
101310.68
101319.86
101315.83
101314.26
101315.54
101308.89
101306.77
101313.07
101305.58
101309.64
101304.05
101303.44
101303.22
101308.12
101317.23
101315.91
101307.22
101302.95
101307.56
101309.81
101323
101313.46
101316.7
101311.69
101317.13
101309.23
101309.24
101312.99
101315.33
101319.8
101323.33
101325.33
101323.01
101327.19
101319.65
101323.85
101328.62
101331.72
101331.41
101330.25
101324.88
101325.43
101331.48
101335.54
101336.89
101325.55
101331.31
101329.46
101322.58
101323.83
101331.31
101341.58
101338.15
101323.91
101322.72
101330.75
101324.56
101334.54
101332.89
101341.48
101335.9
101328.3
101348.27
101362.54
101340.41
101336.87
101366.61
101330.43
101338.65
101337.78
101326.09
101319.21
101319.61
101330.88
101335.31
101331.39
101341.08
101335.74
101327.98
101323.6
101323.11
101319.38
101322.29
101324.85
101330.92
101331.1
101323.41
101327.67
101347.48
101332.9
101338.6
101361.38
101365.32
101328.97
101321.58
101329.92
101330.07
101324.11
101336.52
101324.13
101324.76
101330.33
101324.3
101329.35
101322.04
101321.86
101322.07
101337.17
101335.79
101309.62
101337.65
101346.17
101312.07
101336.73
101322.72
101331.17
101338.34
101329.54
101362.81
101361.06
101340.66
101328.29
101346.39
101345.7
101439.51
101391.35
101346.54
101340.54
101394.34
101451.85
101343
101343.3
101324.62
101337.9
101340.94
101330.6
101322.52
101320.87
101333.58
101369.97
101364.47
101338.49
101326.42
101329.9
101329.88
101327.19
101352.11
101316.38
101471.65
101432.28
101314.23
101347.58
101326.67
101318.61
101320.58
101319.44
101315.43
101319.64
101316.75
101310.48
101315.72
101312.74
101309.78
101304.74
101311.18
101307.23
101311.62
101306.86
101305.21
101298.94
101299.37
101302.84
101308.57
101310.42
101307.15
101301.04
101299.11
101303.32
101304.98
101306.46
101304.38
101297.04
101294.7
101300.19
101302.71
101304.02
101304.16
101307.62
101314.8
101319.92
101311.05
101315.54
101314.4
101309.89
101304.25
101309.01
101306.31
101312.63
101305.94
101303.65
101303.33
101308.2
101310.11
101319.39
101316.16
101317.02
101310.07
101307.77
101315.27
101306.63
101302.98
101293.76
101294.79
101295.7
101297.54
101291.67
101300.3
101296.91
101301.05
101302.72
101302.1
101298.72
101301.35
101294.38
101295.23
101296.53
101300.43
101295.41
101292.43
101291.19
101290.52
101286.19
101294.91
101291.54
101290.46
101283.72
101287.4
101283.59
101282.08
101288.38
101289.39
101293.64
101301.14
101307.32
101308.7
101302.91
101306.41
101304.38
101300.75
101294.88
101297.21
101299.47
101301.03
101299.6
101295.9
101296.62
101303.12
101305.27
101303.63
101307.68
101301.21
101308.97
101302.15
101301.67
101299.86
101303.32
101301.34
101307.8
101317.11
101320.62
101309.05
101302.72
101311.92
101303.85
101302.05
101300.19
101313.5
101319.13
101326.46
101313
101299.56
101297.69
101289.64
101284.33
101297.86
101288.19
101299.63
101294.2
101292.06
101292.31
101295.18
101296.97
101291.83
101292.9
101289.06
101295.82
101292.97
101286.89
101289.69
101286.78
101286.52
101296.75
101289.6
101289.31
101286.55
101284.31
101279.57
101287.19
101277.43
101278.62
101285.19
101285.72
101284.28
101288.19
101281.67
101289.72
101293.25
101293.06
101301.06
101295.9
101286.97
101290.23
101287.04
101297.04
101303.44
101305.54
101294.48
101292.29
101292.57
101294.99
101296.94
101292.24
101293.41
101300.01
101296.28
101285.55
101288.55
101285
101286.23
101289.49
101283.62
101286.78
101289.13
101289.17
101297.01
101286.59
101284.45
101279.9
101287.6
101277.69
101279.03
101278.21
101274.43
101268.84
101269.48
101278.64
101282.84
101290.65
101283.6
101292.07
101283.66
101280.29
101280.22
101279.24
101285.73
101278.77
101285.36
101289.27
101283.95
101277.61
101277.22
101278.09
101271.64
101278.56
101275.11
101281.19
101280.15
101275.06
101273.24
101266.68
101273.6
101266.01
101274.64
101265.26
101264.29
101270.98
101266.44
101273.44
101278.11
101286.05
101275.7
101277.4
101281.86
101291.58
101292.57
101298.95
101302.99
101303.47
101316.62
101318.79
101310
101301.37
101300.82
101302.4
101313.9
101301.35
101320.65
101326.6
101323.1
101318.54
101296.45
101299.8
101299.65
101295.14
101295.54
101332.57
101350.66
101313.57
101322.67
101328.12
101321.07
101302.68
101303.11
101302.69
101302.41
101307.59
101344.56
101351.97
101295.95
101291.32
101302.92
101304.84
101303.91
101296.97
101292.43
101295.49
101286.55
101290.58
101287.71
101291.78
101288.91
101298.17
101290.15
101278.24
101284.56
101277.72
101278.51
101282.28
101274.25
101282.77
101281.83
101282.28
101278.09
101267.78
101273.96
101277.69
101283.23
101281.29
101284.77
101292
101291.7
101300.4
101303.96
101301.64
101297.68
101289.06
101295.64
101297.46
101302.61
101302.94
101301.66
101299.38
101300.48
101309.43
101299.56
101312.36
101300.82
101302.22
101301.64
101320.59
101304.93
101299.71
101297.82
101301.5
101297.43
101298.58
101326.69
101322.45
101318.82
101291.84
101318.44
101294.88
101291.72
101297.29
101330.31
101351.58
101340.77
101287.75
101281.17
101296.57
101270.84
101294.43
101277.91
101293.77
101287.11
101301.36
101294.12
101301.89
101303.12
101300.2
101302.08
101304.08
101299.18
101300.63
101297.45
101295.91
101291.63
101292.74
101295.84
101291.21
101287.06
101295.55
101294.63
101291.49
101293.01
101283.21
101284.3
101287.79
101283.12
101282.52
101288.06
101289.56
101290.88
101283.43
101291.89
101286.51
101279.39
101283.81
101280.27
101280.24
101274.9
101279.72
101278.65
101282.89
101274.86
101277.85
101284.45
101289.35
101286.58
101279.6
101277.63
101278.74
101272.18
101278.53
101274.86
101265.97
101273.51
101280.9
101273.23
101266.49
101268.53
101269.22
101268.96
101273.13
101271.76
101261.34
101269.51
101258.31
101261.51
101252.89
101256.16
101266.1
101269.39
101277.89
101277.96
101277.03
101280.87
101272.23
101278.62
101272.59
101281.47
101267.85
101269.08
101253.91
101261.25
101266.7
101273.64
101270.29
101274.86
101282.35
101287
101290.19
101298.43
101292.29
101296.02
101288.87
101294.27
101294.34
101291.19
101284.76
101289.13
101282.05
101285.82
101285.29
101291.15
101281.45
101278.77
101275.93
101287.22
101288.96
101295.67
101301.54
101295.55
101290.26
101286.49
101286.99
101291.21
101285.57
101289.29
101292.53
101282.43
101281.19
101277.15
101277.54
101281.02
101279.86
101288.09
101291.13
101277.95
101275.34
101286.09
101271.19
101283.38
101272.88
101271.01
101256.55
101265.39
101270.82
101277.77
101272.54
101276.32
101269.39
101265.13
101260.32
101269.04
101275.76
101280.3
101277.98
101283.53
101281.61
101273.7
101265.98
101272.94
101264.56
101267.92
101261.52
101271.06
101289.2
101283.69
101274.49
101281.37
101294.04
101289.52
101302.29
101294.86
101302.8
101297.77
101296.62
101285.68
101286.82
101281.25
101290.87
101291.73
101290.66
101289.61
101279.6
101278
101279.82
101266.88
101267.41
101272.15
101273.23
101278.01
101285.9
101281.36
101277.36
101274
101277.14
101275.69
101272.19
101270.16
101273.74
101274.72
101283.89
101281.48
101271.1
101266.97
101279.11
101276.27
101263.41
101262.65
101266.17
101268.35
101281.14
101278.42
101273.01
101276.46
101265.12
101267.85
101270.73
101262.89
101266.98
101271.22
101268.94
101264.15
101254.51
101260.58
101263.53
101258.38
101252.74
101247.88
101259.32
101254.76
101258.98
101248.02
101256.88
101251.77
101262.62
101271.18
101283.74
101286.79
101293.49
101289.86
101298.1
101285.27
101284.98
101284.87
101276.73
101275.42
101283.16
101279.68
101269.97
101268.31
101280.95
101285.07
101291.66
101290.39
101300.04
101285.83
101284.03
101283.92
101274.57
101274.2
101283.82
101279.5
101267.98
101258.06
101258.48
101260.98
101270.01
101271.54
101279.3
101279.08
101291.75
101274.12
101274.88
101274.18
101262.04
101260.48
101250.44
101246.3
101258.43
101268.9
101277.72
101277.78
101293.18
101275.48
101273.08
101272.67
101263.36
101266.78
101266.05
101270.06
101283.61
101263.3
101278.16
101265.35
101265.12
101246.84
101257.81
101245.75
101250.02
101256.62
101262.2
101253.41
101260.69
101252.38
101262.31
101266.5
101278.48
101268.39
101261.28
101267.28
101269.81
101270.22
101261.71
101252.84
101243.98
101233.11
101243.62
101253.93
101256.64
101269.44
101269.83
101260.1
101249.7
101258.66
101261.97
101253.38
101244.05
101238.63
101250.64
101259.65
101249.27
101246.19
101255.95
101264.42
101271.25
101266.51
101267.55
101262.75
101261.76
101252
101258.26
101259.44
101265.64
101257.08
101266.98
101261.25
101250.42
101245.72
101250.87
101261.62
101267.07
101261.64
101247.94
101256.81
101255.94
101246.32
101235.28
101236.84
101248.82
101236.92
101248.01
101238.14
101249.67
101248.32
101251.02
101255.23
101248.51
101243.12
101229.62
101239.6
101244.85
101236.57
101246.9
101238.19
101251.33
101242.4
101249.34
101256.2
101262.36
101267.03
101285.58
101278.13
101263.77
101259.33
101262.26
101276.9
101260.27
101270
101283.57
101256.98
101256.06
101273.86
101247.69
101250.2
101250.71
101230
101239.2
101247.45
101233.2
101243.73
101235.5
101223.44
101207.94
101223.64
101218.05
101233.46
101219.1
101234.65
101240.68
101233.97
101226.19
101242.09
101238.51
101251.72
101256.67
101257.59
101252.53
101238.85
101245.91
101252.9
101241.36
101240.2
101225.77
101236.45
101222.76
101235.13
101238.25
101225.97
101221.8
101223.42
101208.22
101224.95
101210.9
101227
101214.51
101232.18
101230.81
101245.1
101221.71
101222.37
101201.05
101201.65
101213.09
101217.26
101226.01
101208.01
101222.83
101233.49
101226.33
101213.49
101194.95
101210.96
101220.29
101207.22
101187.34
101171.57
101196.07
101184.01
101208.01
101187.8
101213.17
101234.35
101249.68
101261.49
101276.76
101274.36
101270.51
101273.06
101259.35
101263.02
101264.79
101254.78
101252.41
101246.6
101231.21
101239.37
101241.57
101224.1
101237.76
101254.04
101252.62
101236.54
101221.5
101221.51
101240.65
101259.36
101276.47
101293.57
101288.99
101262.2
101260.95
101239.29
101232.63
101248.98
101229.02
101228.85
101246.21
101258.1
101268.49
101269.02
101274.55
101283.87
101285.91
101296.71
101303.27
101308.37
101315.21
101322.94
101326.91
101330.03
101329.19
101332.12
101330.07
101340.08
101332.02
101321.54
101332.76
101367.41
101364.12
101336.97
101342.11
101338.94
101324.66
101322.35
101323.08
101322.86
101322.39
101339.29
101309.27
101353.79
101350.99
101325.09
101338
101393.83
101446.45
101334
101368.63
101363.27
101342.25
101330.07
101327.28
101336.53
101330.04
101336.95
101324.72
101335.39
101396.67
101456.6
101330.73
101312.03
101334.52
101338.12
101362.54
101367.06
101333.27
101321.45
101325.64
101337.58
101328.5
101324.08
101343.14
101304.83
101494.02
101460.85
101331.47
101354.32
101329.49
101316.79
101320.18
101310.81
101311.15
101320.02
101313.81
101313.02
101317.31
101316.19
101307.36
101308.15
101303.4
101303.34
101307.99
101309.77
101305.58
101303.55
101306.85
101308.85
101315.44
101309.54
101304.1
101297.69
101304.03
101304.56
101302.08
101300.31
101289.74
101290.79
101291.85
101291.08
101297.87
101302.89
101301.98
101294.31
101295.09
101287.2
101281.72
101279.84
101278.23
101280.26
101283.63
101293.24
101291.8
101297.86
101301.8
101295.92
101289.48
101292.04
101300.47
101294.83
101295.63
101287.34
101288.16
101284.79
101273.93
101274.98
101271.15
101271.77
101270.2
101270.04
101271.36
101273.28
101271.97
101256.1
101256.71
101260.87
101260.35
101248.2
101248.95
101242.07
101241.11
101222.53
101223.21
101233.52
101233.04
101209.16
101210.34
101221.76
101209.25
101187.51
101202.68
101202.87
101172.53
101199.56
101178.51
101202.08
101224.35
101237.61
101228.25
101248.28
101291.92
101280.36
101250.01
101240.51
101239.03
101268.22
101237.69
101257.61
101227.51
101241.74
101255.53
101255.89
101263.75
101292.64
101263.9
101286.08
101240.36
101224.75
101231.14
101284.58
101336.01
101275.73
101309.27
101271.37
101286.75
101275.31
101286.01
101277.02
101286.19
101284.16
101274.04
101279.15
101283.28
101287.82
101290.74
101294.89
101289.71
101296.11
101292.26
101289.71
101282.64
101285.3
101282.03
101277.01
101270.23
101275.76
101272.1
101278.72
101285.72
101292.16
101294.89
101288.97
101281.46
101282.17
101279.34
101283.96
101287.91
101296.45
101302.03
101292.27
101286.91
101295.63
101290.31
101287.4
101278.93
101281.21
101289.76
101285.81
101284.95
101279.21
101273.41
101266.29
101262.15
101270.48
101276.72
101287.87
101288.98
101286.58
101297.56
101295.62
101301.01
101301.26
101301.81
101307.18
101314.22
101315.7
101315
101313.98
101316.25
101314.64
101314.63
101314.45
101319.08
101309.95
101315.45
101314.6
101307.52
101302.14
101306.8
101307.03
101315.95
101308.35
101301.79
101301.54
101305.56
101310.03
101318.97
101312.74
101312.18
101304.25
101307.58
101314.31
101307.58
101301.8
101294.7
101293.38
101293.16
101293.15
101284.33
101285.08
101278.18
101280.38
101290.34
101290.57
101277.97
101281.95
101272.23
101272.24
101280.47
101277.03
101274.26
101272.15
101269.71
101270.16
101274.04
101283.52
101279.83
101278.47
101265.91
101265.76
101268.53
101281.35
101279.11
101271.29
101268.39
101272.69
101281.31
101283.56
101287.89
101294.63
101302.89
101290.99
101286.12
101286.1
101289.9
101297.85
101286.65
101293.29
101295.16
101290.83
101293.44
101285.5
101277.35
101279.14
101282.84
101274.61
101277.19
101269.78
101266.8
101258.97
101267.64
101274.49
101272.36
101284.74
101279.34
101283.1
101276.55
101278.02
101273.86
101281.67
101277.02
101284.24
101277.65
101277.72
101281.41
101272.37
101263.49
101265.15
101254.98
101265.14
101263.6
101253.36
101250.12
101261.67
101269.36
101270.94
101263.67
101265.69
101275.35
101277.14
101275.42
101265.26
101262.06
101266.16
101274.08
101262.06
101251.6
101256.82
101262
101267.03
101259
101258.29
101261.03
101269.23
101271.77
101264.24
101259.39
101267.68
101264.52
101255.2
101252.11
101261.63
101256.79
101260.15
101264.14
101254.4
101249.1
101243.64
101255.84
101260.49
101249.99
101238.66
101243.71
101250.23
101256.3
101263.37
101271.41
101263.48
101254.57
101248.65
101258.39
101267.13
101276.95
101272.63
101273.2
101280.27
101265.66
101268.22
101263.05
101260.88
101262.03
101272.06
101285.39
101280.37
101268.16
101273.75
101273.22
101268.37
101267.57
101278.43
101260.52
101260.63
101254.05
101254.35
101252.63
101273.04
101294.86
101280.63
101264.54
101270.81
101271.88
101266.44
101268.5
101286.91
101258.09
101255.7
101246.52
101248.87
101246.66
101266.23
101300.43
101277.22
101262.57
101269.65
101275.91
101280.42
101285.03
101292.83
101301.95
101288.67
101286.86
101299.42
101290.09
101284.98
101275.02
101275.75
101286.14
101281.92
101278.78
101283.38
101284.28
101290.96
101300.32
101301.42
101320.5
101324.5
101306.95
101300.07
101299.27
101300.84
101321.06
101310.18
101347.38
101343.06
101343.9
101292.31
101281.66
101299.2
101299.55
101294.99
101325.68
101288.8
101318.43
101297.99
101312.62
101317.2
101314.76
101300.53
101299.71
101297.15
101297.62
101306.35
101324.05
101321.8
101313.37
101290.88
101288.88
101294.77
101295.1
101283.13
101285.79
101282.63
101291.18
101289.62
101294.83
101295.41
101296.65
101279.02
101281.53
101294.98
101294.67
101280.33
101276.44
101261.69
101262.15
101271.71
101271.07
101260.97
101268.65
101260.59
101261.59
101272.27
101270.12
101271.87
101259.52
101261.91
101258.26
101266.95
101273.74
101257.92
101254.64
101269.28
101261.59
101255.33
101243.39
101247.12
101251.92
101238.97
101245.41
101245.19
101252.31
101241.2
101249.45
101248.66
101251.85
101240.47
101245.92
101238.29
101231.09
101244.57
101240.93
101226.46
101236.84
101238.03
101226.83
101211.3
101225.02
101223.42
101227.49
101234.79
101245.02
101257.37
101248.08
101233.91
101225.05
101237.82
101251.53
101258.34
101254.26
101264.2
101253.01
101241.3
101236.85
101249.48
101261.26
101250.42
101242.73
101246.35
101228.31
101211.85
101233.46
101240.84
101232.89
101240.71
101256.05
101252.19
101249.94
101253.18
101277.29
101294.43
101353.17
101281.62
101333.2
101291.93
101287.14
101292.4
101336.35
101277.44
101377.41
101441.28
101305.38
101305.68
101377.94
101252.64
101286.35
101286.42
101394.47
101304.44
101307.17
101436.35
101315.49
101372.44
101258.84
101390.48
101318.49
101296.25
101457.11
101518.09
101672.2
101479.45
101442.06
101456.34
101203.23
101232.72
101521.58
101268
101390.28
101296.51
101344.43
101306.79
101321.53
101302.47
101302.46
101322.95
101311.67
101301.02
101301.65
101302.31
101301.41
101350.35
101326.73
101296.11
101292
101290.35
101265.82
101293.8
101276.06
101293.58
101286.06
101300.09
101290.45
101291.9
101301.55
101287.38
101284.18
101284.41
101278.36
101278.13
101294
101278.39
101273.22
101274.09
101259.07
101247.49
101258.78
101268.44
101279.6
101281.26
101285.33
101274.92
101268.74
101270.84
101280.15
101283.49
101290.16
101298.06
101302.41
101293.76
101285.34
101285.48
101285.54
101289.95
101294.24
101291.64
101279.8
101279.95
101275.03
101275.88
101274.67
101282.01
101275.54
101289.56
101286.14
101295.85
101301.82
101313.23
101317.84
101316.44
101302.99
101300.42
101299.56
101299.68
101309.04
101325.75
101318.54
101319.88
101292.37
101292.49
101297.65
101298.45
101294.7
101316.83
101299.44
101313.18
101302.35
101311.85
101306.78
101312
101310.98
101315.47
101310.65
101305.67
101304.1
101307.16
101308.74
101308.64
101312.93
101313.96
101319.62
101317.11
101312.69
101315.59
101308.98
101310.95
101307.65
101305.22
101304.7
101309.65
101317.08
101309.07
101307.62
101303.76
101301.74
101301.08
101308.73
101320.9
101319.24
101315.12
101320.08
101326.75
101318.87
101303.21
101299.99
101297.82
101300.05
101312.87
101302.06
101308.93
101301.18
101307.54
101316.88
101311.34
101303.38
101301.72
101288.53
101293.04
101299.55
101301.14
101305.25
101299.25
101303.32
101300.88
101304.3
101302.76
101306.4
101299.55
101297.21
101295.11
101291.87
101296.15
101297.54
101300.52
101300.84
101299.22
101292.81
101295.66
101291.33
101280.27
101278.64
101274.16
101272.97
101268.48
101267.69
101264.09
101263.51
101262.16
101261.86
101263.02
101263.2
101272.08
101274.71
101259.57
101258.85
101256.32
101256.79
101254.33
101271.39
101270.45
101253.67
101253.09
101253.65
101238.13
101242.76
101246.44
101247.34
101243.11
101225.77
101231.39
101230.67
101226.53
101218.33
101219.88
101239.26
101238.57
101237.49
101219.17
101221.3
101191.74
101187.08
101201.74
101210.85
101208.62
101202.69
101181.15
101182.03
101185
101177.1
101156.36
101143.04
101182.39
101191.83
101189.14
101152.75
101155.74
101183.12
101208.81
101209.58
101231.86
101248.47
101250.31
101265.57
101264.27
101294.97
101271.66
101256.89
101259.06
101235.2
101213.7
101231.2
101230.91
101247.45
101259.15
101269.36
101259.2
101261.87
101270.86
101276.09
101277.39
101287.14
101284.15
101271.98
101263.69
101262.23
101252.43
101253.43
101263.26
101272.31
101273.85
101278.74
101284.15
101290.77
101295.88
101301.6
101291.54
101287.47
101286.99
101281.9
101283.04
101292.73
101284.16
101278.3
101278.01
101265.91
101258.65
101267.19
101274.6
101282.31
101287.59
101289.33
101280.96
101276.71
101279.47
101285.94
101286.51
101292.82
101296.47
101302.62
101298.53
101290.55
101289.53
101289.4
101294.44
101294.44
101291.48
101285.29
101287.4
101282.85
101281.6
101280.67
101288.26
101291.11
101286.52
101289.39
101284.19
101293.83
101288.99
101268.31
101267.26
101260.97
101263.17
101263.55
101277.36
101292.45
101281.48
101298.28
101244.15
101246.73
101234.42
101237.96
101258.75
101230.39
101192.34
101220.14
101234.74
101250.21
101254.55
101239.31
101239.95
101255.58
101243.09
101242.37
101225.95
101212.28
101185.09
101185.27
101176.03
101178.06
101200.43
101199.38
101174.2
101209.26
101207.94
101227.26
101216.08
101212.3
101182.04
101187.46
101138.97
101177.4
101142.98
101174.31
101151.3
101147.88
101100.22
101158.61
101145.43
101174.43
101190.87
101208.73
101187.96
101206.07
101186.67
101206.39
101211.58
101220.98
101208.98
101225.36
101215.97
101196.75
101188.94
101210.34
101194.26
101214.21
101232.3
101236.66
101219.98
101229.16
101222.53
101211.27
101230.19
101224.42
101223.1
101232.16
101213.95
101200.43
101203.07
101181.06
101191.81
101201.41
101213.29
101191.79
101176.05
101163.39
101182.23
101206.16
101223.66
101205.73
101228.59
101218.11
101237.22
101246.48
101259.22
101244.04
101228.04
101226.8
101243.12
101258.35
101245.21
101236.97
101211.64
101211.06
101184.72
101184.12
101216.83
101203.17
101230.39
101241.14
101256.5
101238.61
101218.06
101218.45
101239.16
101249.59
101236.41
101237.59
101242.13
101244.8
101257.24
101251.68
101237.11
101233.49
101248.69
101254.88
101252.36
101245.35
101256.93
101273.47
101270.32
101269.23
101270.07
101277.34
101288.27
101288.15
101288.57
101275.34
101262.65
101269.62
101251.38
101252.36
101250.94
101259.49
101266.7
101249.65
101235.22
101237.49
101241.8
101246.34
101230.02
101238
101240.3
101247.49
101254.29
101260.35
101266.07
101267.62
101279.31
101294.52
101300.4
101305.17
101309.2
101311.66
101313.21
101314.28
101313.32
101311.86
101312.2
101309.78
101304.84
101308.7
101306.15
101300.15
101295.59
101302.21
101307.09
101299.24
101300.58
101299.58
101292.56
101291.24
101293.07
101298.43
101294.83
101299.13
101299.98
101306.67
101304.69
101304.38
101298.4
101296.19
101305.59
101307.3
101311.32
101308.27
101309.19
101309.31
101311.8
101312.27
101309.47
101305.3
101308.51
101311.72
101308.51
101307.99
101306.05
101309.37
101311.13
101313.59
101313.83
101310.32
101312.15
101311.26
101314.1
101312.26
101311.58
101310.91
101311.76
101311.64
101314.13
101311.43
101308.32
101304.66
101302.64
101302.88
101303.96
101294.59
101302.88
101301.79
101306.39
101308.94
101307.88
101303.18
101296.05
101301.01
101299.64
101294.24
101292.28
101293.28
101300.22
101296.02
101300.4
101299.76
101299.94
101305.17
101305.48
101305.12
101307.26
101300.87
101296.19
101294.67
101287.95
101280.78
101289.41
101289.45
101279.97
101278.81
101278.94
101288.22
101282.26
101284.6
101285.14
101283.84
101292.14
101294.62
101289.11
101294.21
101284.83
101278.59
101291.69
101279.59
101273.27
101280.39
101276.56
101272.7
101266.85
101268.1
101280.78
101271.56
101275.77
101279.73
101285
101286.17
101289.88
101277.12
101268.77
101282.24
101291.44
101294.24
101287.38
101280.5
101289.09
101287.46
101278.18
101277.85
101278.6
101287.85
101281.1
101283.21
101283.72
101283.19
101291.56
101293.25
101287.59
101292.84
101283.38
101279.74
101291.61
101296.18
101299.77
101290.81
101287.33
101283.31
101287.23
101294.2
101288.24
101294.91
101297.03
101286.07
101290.1
101287.5
101295.38
101293.9
101304.68
101294.32
101299.59
101299.77
101295.52
101298.69
101295.45
101290.57
101291.06
101284.91
101285.66
101277.85
101280.14
101272.98
101271.79
101275.41
101270.52
101280.29
101276.23
101289.16
101280.67
101283.43
101278.3
101274.42
101268.92
101268.14
101270.69
101272.99
101261.02
101270.8
101264.65
101259.25
101250.77
101254.33
101270.22
101257.97
101264.82
101270.24
101277.67
101282.18
101287.44
101289.11
101292.22
101292.08
101288.57
101296.21
101300.39
101297.04
101300.71
101292.48
101286.07
101294.37
101304.99
101303.3
101295.73
101301.1
101305.98
101300.2
101300.61
101300.98
101306.82
101304.68
101303.94
101301.04
101295.59
101293.31
101294.74
101294.06
101299.14
101288.58
101280.61
101290.44
101300.84
101293.73
101300.41
101307.58
101304.88
101299.4
101299.18
101298.52
101299.91
101296.36
101304.62
101303.94
101306.7
101308.33
101311.9
101312.46
101309.64
101309.93
101306.04
101309.74
101308.92
101310.12
101307.2
101309.01
101309.29
101312.11
101311.91
101308.37
101306.51
101310.15
101307.88
101305.23
101302.29
101307.12
101310.13
101310.5
101311.24
101308.19
101307.65
101307.55
101304.04
101309.53
101313.55
101310.38
101313.47
101314.28
101308.69
101312.96
101312.38
101312.83
101314.5
101315.35
101311.6
101316.97
101316.68
101313.3
101307.04
101310.85
101312.74
101309.1
101310.25
101305.13
101308.25
101309.1
101305.8
101309.89
101313.36
101309.41
101312.51
101306.95
101304.57
101301.13
101300.37
101305.98
101303.26
101304.55
101298.36
101299.02
101297.55
101293.1
101292.72
101298.43
101287.35
101285.79
101287.4
101284.88
101288.38
101284.69
101288.48
101289.34
101277.62
101283.04
101284.41
101276.23
101274.13
101277.42
101273.98
101270.54
101272.03
101270.06
101279.84
101270.01
101266.46
101262.58
101265.24
101277.68
101266.45
101270.4
101273.59
101277.02
101279.92
101274.4
101271.3
101267.3
101262.82
101267.05
101259.35
101265.19
101269.84
101276.87
101280.28
101277.45
101282.21
101279.18
101285.1
101274.27
101271.52
101285.25
101276.58
101270.54
101273.91
101266.85
101271.02
101265.14
101272.78
101268.3
101259.82
101253.05
101262.29
101257.78
101252.62
101257.56
101246.44
101254.14
101262.75
101258.19
101266.87
101268.91
101285.12
101292.39
101297.23
101304.59
101292.68
101294.36
101302.41
101301.81
101301.05
101301.02
101300.85
101291.51
101291.1
101283.39
101285.58
101279.5
101276.74
101282.81
101291.61
101293.09
101278.64
101281.91
101282.35
101286.24
101296.78
101294.25
101293.73
101292.53
101286.67
101283.15
101290.32
101291.38
101290.69
101292.45
101297.82
101299.18
101306.96
101300.43
101302.5
101303.49
101303.57
101300.42
101292.65
101289.9
101279.64
101279.44
101283.48
101267.49
101270.47
101254.57
101260.86
101258.54
101263.66
101257.27
101250.34
101241.37
101249.07
101257.94
101250.28
101241.75
101229.83
101240.03
101249.63
101258.64
101262.46
101267.56
101283.48
101279.75
101274.19
101270.2
101273.19
101269.25
101272.99
101276.18
101282.86
101290.52
101290.38
101296.62
101283.62
101281.11
101279.52
101279.72
101283.99
101296.75
101290.22
101292.05
101284.45
101282.39
101291.65
101299.41
101298.63
101304.85
101300.73
101308.27
101300.3
101296.95
101299.78
101308.06
101305.57
101298.21
101297.14
101296.71
101296.91
101296.34
101297.86
101294.55
101300.58
101302.53
101302.42
101303.95
101296.47
101297.31
101296.16
101302.3
101301.95
101303.31
101303.46
101296.38
101288.96
101280.49
101283.1
101280.24
101272.33
101263.94
101257.74
101251.77
101241.84
101249.63
101240.34
101250.98
101244.45
101231.72
101219.6
101231.43
101241.59
101230.86
101217.75
101208.3
101189.76
101166.32
101194.9
101177.83
101141.18
101148
101165.93
101133.02
101164.31
101174.76
101193.02
101205.13
101220.97
101209.09
101231.52
101223
101197.3
101210.45
101193.69
101224.13
101246.06
101288.12
101274.23
101257.32
101275.12
101240.89
101243.13
101243.25
101243.36
101249.55
101279.32
101292.27
101234.95
101241.96
101244.55
101247.14
101276.46
101251.33
101282.3
101243.33
101256.04
101242.07
101204.75
101209.37
101216.09
101220.69
101189.45
101184.14
101172.67
101174.81
101211.46
101201.46
101212.42
101176.32
101171.16
101188.16
101220.45
101209.6
101205.61
101152.7
101151.52
101153.02
101156.26
101214.31
101196.65
101183.57
101185.92
101197.64
101230.61
101232.45
101231.72
101230.36
101290.27
101227.8
101279.82
101220.42
101221.03
101214.23
101220.02
101194.04
101253.6
101390.41
101279.42
101336.06
101233.54
101243.82
101278.27
101254.65
101338.84
101268.01
101333.21
101335.41
101288.32
101311.53
101237.58
101232.06
101233.85
101239.56
101284.03
101232.33
101286.63
101249.7
101235.09
101252.72
101276.94
101277.65
101387.82
101389.55
101277.48
101336.33
101227.24
101238.6
101252.11
101253.96
101264.44
101270.78
101256.8
101241.52
101230.35
101199.39
101197.99
101156.64
101157.9
101203.15
101240.84
101245.63
101294.59
101271.99
101271.07
101262.02
101269.13
101275.25
101279.59
101284.32
101286.84
101286.88
101300.29
101290.94
101283.82
101274.25
101274.5
101268.03
101279.71
101279.79
101284.19
101282.52
101284.7
101296.29
101295.84
101301.46
101300.12
101302.64
101299.81
101298.36
101288.6
101274.39
101275.54
101289.05
101288.77
101278.18
101280.57
101289.03
101295.9
101286.24
101288.4
101298.57
101302.31
101300.92
101303.36
101309.47
101301.59
101292.82
101292.1
101292.69
101290.02
101278.49
101282.2
101283.68
101287.39
101291.31
101298.32
101302.61
101300.06
101304.83
101309.92
101305.72
101309.38
101315.84
101310.75
101310.31
101304.33
101302.74
101301.57
101306.98
101314.76
101307.2
101315.9
101309.87
101318.95
101298.47
101298.53
101300.89
101305.5
101307.03
101305.71
101297.25
101299.87
101295.96
101310.49
101324.56
101293.48
101292.98
101295.47
101309.69
101317.37
101305.71
101318.99
101318.37
101313.78
101312.76
101318.91
101311.83
101306.99
101307.18
101305.47
101298.04
101296.84
101298.16
101294.14
101286.47
101291.11
101288.11
101293.08
101295.8
101295.95
101294
101300.87
101293.75
101299.86
101294.35
101300.67
101297.68
101289.36
101283.9
101284.89
101287.75
101283.43
101292.14
101285.25
101281.86
101278.61
101268.38
101267.83
101259.73
101260.21
101270.47
101260.7
101248.39
101247.76
101259.94
101269.92
101278.78
101293.68
101294.11
101278.8
101278.86
101274.01
101274.28
101278.73
101291.47
101274.9
101279.46
101292.29
101278.27
101273.01
101260.53
101259.94
101269.66
101274.18
101274.86
101269.07
101261.15
101260.38
101249.23
101249.99
101239.19
101237.46
101234.94
101235.07
101250.48
101251.33
101244.09
101255.78
101254.98
101271.17
101271.16
101270.04
101259.84
101259.89
101255.07
101250.22
101250
101260.19
101267.35
101248.58
101249.06
101267.16
101260.09
101260.06
101270.79
101269.12
101260.76
101256.38
101257.92
101273.89
101272.16