/*--------------------------------*- C++ -*----------------------------------*\
  =========                 |
  \\      /  F ield         | OpenFOAM: The Open Source CFD Toolbox
   \\    /   O peration     | Website:  https://openfoam.org
    \\  /    A nd           | Version:  7
     \\/     M anipulation  |
\*---------------------------------------------------------------------------*/
FoamFile
{
    version     2.0;
    format      ascii;
    class       volScalarField;
    location    "130";
    object      nut;
}
// * * * * * * * * * * * * * * * * * * * * * * * * * * * * * * * * * * * * * //

dimensions      [0 2 -1 0 0 0 0];

internalField   nonuniform List<scalar> 
25201
(
6.8853287
6.9773522
6.8853428
6.9773989
7.2817705
7.0676792
6.9355755
6.9477775
7.0754877
7.2903229
7.0754015
7.06762
7.1834601
7.3125686
7.2245976
7.354955
7.3728988
7.3798111
7.4157465
7.3420611
7.4007607
7.3537823
7.3788241
7.3585485
7.3959718
7.3232209
7.309663
7.3424936
7.3037591
7.2704613
7.3120637
7.3594108
7.111257
7.1829105
7.2644208
7.2178791
7.3020074
7.2489486
7.1347747
7.0593657
7.2027666
7.1767667
7.2454503
7.0710012
7.0196003
6.9974939
7.1454138
7.297168
7.2277713
7.1833161
7.1925321
7.2491056
7.37047
7.3854422
7.3564651
7.3521193
7.3462609
7.362695
7.3728024
7.3074948
7.3068902
7.3754629
7.3765693
7.4068623
7.4303803
7.3698955
7.4069858
7.3803136
7.3365429
7.1862073
7.1539422
7.1959896
7.3334607
7.3490338
7.3152276
7.0340583
7.0848993
7.1578925
7.222012
7.2697069
7.3342874
7.3598092
7.3493501
7.3243821
7.2882491
7.2925053
7.2895497
7.3058283
7.2736116
7.2806979
7.2142913
7.150335
7.1845267
7.23614
7.2605757
7.2975277
7.3345881
7.3005809
7.2203923
7.2747979
7.2389796
7.1904355
7.165136
7.219279
7.1828141
7.1439899
7.0240046
7.0943082
7.1234781
7.1791164
7.1858216
7.1527584
7.0822413
7.11167
6.9766316
7.0712445
7.0358367
6.9485291
6.9231577
7.0538409
7.1284439
7.0184966
6.9876262
6.8987629
6.7451627
6.8695195
6.9494612
7.126618
7.2856783
7.1418337
7.0669557
7.0277751
7.0026259
7.0386324
7.1177338
7.194545
7.2933209
7.3534932
7.376957
7.3474473
7.3524425
7.3768552
7.3080177
7.3084947
7.3646589
7.3733505
7.3856414
7.3565551
7.1925078
7.3699795
7.4304494
7.4068296
7.336763
7.3803415
7.4070654
7.3967477
7.2490861
7.2280813
7.3357931
7.3497786
7.1547409
7.197931
7.2944507
7.338583
7.3635891
7.2743124
7.2268347
7.1599999
7.1123646
7.1750578
7.2900761
7.3260726
7.25383
7.2954724
7.3109705
7.2642289
7.2527397
7.2692214
7.1140578
7.0894748
6.9222291
7.0021253
7.0668231
6.9898836
6.9424859
6.8711593
6.9450482
6.9768155
6.8805762
6.7289007
6.8590799
6.9284783
7.1154727
7.2719939
7.1533992
7.219543
7.2805925
6.9304363
7.0248175
7.1352089
7.2262236
7.1879058
7.1495173
7.190283
7.2436663
7.1723551
7.0612771
7.0291723
7.098755
6.9913628
6.9034554
6.7487261
6.8719918
6.8998724
6.9188984
6.9984206
6.9774699
6.8853687
7.2028756
7.3430585
7.3038273
7.245519
7.1834085
7.312476
7.2707903
7.2029955
7.1767775
7.0195432
7.0709782
7.1111604
7.0595226
7.1351759
7.2492724
7.3026012
7.3601022
7.2649316
7.2184744
7.3066899
7.354703
7.3736036
0.0013579729
0.0085009653
0.020773632
0.035254413
0.44040476
0.44612093
0.036298857
0.021349149
0.008730099
0.0013930561
0.0014127085
0.0089346816
0.021845997
0.037123591
0.45382688
0.45820571
0.03735088
0.021990115
0.008998467
0.0014206281
0.0014227785
0.0090120379
0.022014518
0.03737153
0.4608024
0.46218816
0.037309858
0.021986578
0.00900421
0.0014229386
0.0014231707
0.0090014249
0.021975969
0.037281646
0.46295352
0.46340159
0.037257044
0.021963707
0.0089976436
0.0014232063
0.0014236578
0.0090006732
0.021970984
0.037266445
0.46369106
0.46392757
0.037266842
0.021970998
0.00900105
0.0014238556
0.0014244039
0.0090065553
0.021985318
0.037290161
0.46413896
0.46436356
0.037297169
0.021988985
0.0090083578
0.0014246558
0.0014252638
0.0090152218
0.022006809
0.0373268
0.46460285
0.46486729
0.037338456
0.022013244
0.0090181716
0.0014255752
0.0014262525
0.0090261572
0.022033604
0.037372148
0.46514804
0.46546773
0.037389446
0.022043536
0.0090305977
0.0014266646
0.001427459
0.0090402289
0.022067729
0.037429304
0.46582465
0.4662442
0.037455349
0.022082853
0.0090467642
0.0014280183
0.0014289522
0.0090583069
0.022111617
0.037502767
0.46671118
0.46723783
0.037538404
0.022132287
0.0090670321
0.0014296681
0.0014307363
0.009080235
0.022164833
0.037591879
0.46781332
0.46844391
0.037635489
0.02219044
0.0090910538
0.0014316157
0.0014328544
0.0091064889
0.02222832
0.037697792
0.46914894
0.46992578
0.03775096
0.022259656
0.0091196752
0.0014339153
0.0014353362
0.0091375266
0.022303413
0.037823082
0.47077518
0.47170307
0.037886172
0.022340715
0.009153166
0.0014365809
0.0014381813
0.0091733961
0.022390305
0.037968156
0.47270043
0.4737678
0.038041551
0.022433679
0.0091914549
0.0014396101
0.0014413772
0.0092137457
0.022488202
0.038131571
0.47490581
0.47611262
0.038218169
0.022539092
0.0092345109
0.0014429727
0.0014447108
0.0092569959
0.022593279
0.038307342
0.47737264
0.47860719
0.038396995
0.022644701
0.009277558
0.0014462477
0.53498362
0.034720342
0.020668307
0.0085376406
0.0013774543
0.0013761279
0.0085195231
0.020623581
0.034643635
0.53357301
0.53210683
0.034557493
0.020571662
0.0084979231
0.0013745313
0.0013730178
0.0084772796
0.020521065
0.034473346
0.53071021
0.52939633
0.034390973
0.020470863
0.0084563805
0.0013713887
0.0013700291
0.0084386586
0.02042795
0.034320002
0.5281978
0.52707803
0.034248217
0.020384207
0.0084203466
0.0013685883
0.0013674115
0.008405071
0.020347259
0.034187118
0.52604837
0.52510016
0.034124877
0.020309332
0.0083891786
0.0013661461
0.00136515
0.0083764053
0.020278386
0.034073596
0.52424578
0.52346113
0.034021305
0.020246504
0.0083630027
0.0013640672
0.0013632379
0.0083523194
0.02022047
0.033977937
0.52274068
0.52207357
0.033932105
0.020192546
0.0083406065
0.0013622932
0.0013616037
0.008331764
0.020170928
0.033896048
0.52148364
0.52093606
0.033857804
0.020147598
0.0083219506
0.0013607963
0.0013602377
0.008314881
0.020130119
0.033828348
0.52046479
0.52010057
0.033802539
0.020113884
0.0083077934
0.0013596081
0.0013591939
0.0083026509
0.020100769
0.033779784
0.51974843
0.51942734
0.033755757
0.020086036
0.0082964008
0.0013586353
0.001358283
0.0082922594
0.020075249
0.033736827
0.5191016
0.51880213
0.03371436
0.020061609
0.0082865546
0.0013577514
0.0013574428
0.008283506
0.020053712
0.033700674
0.51854176
0.51828319
0.033683521
0.020043118
0.0082789971
0.0013569572
0.0013567059
0.0082775051
0.020039369
0.033677496
0.51802973
0.51771147
0.033673375
0.020035492
0.0082753798
0.0013563112
0.0013561945
0.0082776434
0.02004265
0.033689091
0.51724775
0.5165428
0.033723442
0.020057398
0.0082815695
0.0013560134
0.0013557331
0.0082875845
0.020078594
0.033771787
0.51521881
0.51274882
0.033762448
0.020061281
0.0082761169
0.0013535959
0.0013463603
0.0082188498
0.019930565
0.033559587
0.50844884
0.50184316
0.032958642
0.019569221
0.0080680547
0.001329109
0.0013023677
0.0078266189
0.018995074
0.031987909
0.49434772
0.46979856
0.029192579
0.017193009
0.0070519007
0.0012480328
0.0013011318
0.0078450582
0.019039952
0.03204899
0.49531109
0.50263173
0.032988466
0.019588464
0.0080763891
0.0013281779
0.0013459789
0.0082266091
0.019948985
0.033588201
0.50898396
0.51306246
0.03377497
0.020069352
0.0082799518
0.0013532451
0.0013555093
0.0082907092
0.020086265
0.033783965
0.51544491
0.51668479
0.033723671
0.020057753
0.0082821749
0.0013557602
0.0013560357
0.0082789977
0.020046444
0.033695496
0.51737595
0.517772
0.033671742
0.02003406
0.0082749384
0.0013560958
0.0013565108
0.008277116
0.020039144
0.033677714
0.5180529
0.51827607
0.033675781
0.020037861
0.0082769647
0.0013566944
0.0013572038
0.0082818702
0.020050554
0.033696287
0.5184823
0.51870429
0.033701723
0.020053392
0.0082833261
0.0013574404
0.0013580017
0.0082895382
0.020069272
0.033727661
0.51895027
0.51923451
0.033738322
0.020075301
0.0082923324
0.0013583047
0.0013589438
0.008299931
0.020094481
0.033769682
0.51955407
0.51991793
0.033786215
0.020104115
0.0083042373
0.0013593408
0.0013600818
0.0083133718
0.020126876
0.033823363
0.5203315
0.52080179
0.033846856
0.020140808
0.0083194878
0.0013606034
0.0013614784
0.008330529
0.02016811
0.033891418
0.52134012
0.52194851
0.033923411
0.020187196
0.0083387631
0.0013621481
0.0013631643
0.0083517947
0.020219267
0.033975756
0.52262248
0.52336436
0.034017203
0.020243792
0.0083621678
0.001363981
0.0013651163
0.0083766282
0.020279071
0.034074663
0.52418682
0.5250729
0.034122446
0.020307731
0.0083888382
0.0013660913
0.0013674208
0.0084058452
0.020349247
0.034190296
0.52605277
0.5271258
0.034248373
0.020384194
0.0084206521
0.0013685889
0.0013701011
0.0084400722
0.020431439
0.034325614
0.52829269
0.52955572
0.034394443
0.020472757
0.0084574521
0.0013714644
0.0013731629
0.0084791133
0.020525292
0.0344802
0.53091636
0.53237198
0.034560543
0.020573941
0.008499586
0.0013747318
0.0013765894
0.0085242507
0.020633338
0.034657196
0.53389544
0.53548932
0.034751582
0.020689371
0.0085468508
0.001378255
0.001379693
0.0085659869
0.02073626
0.034830899
0.53715003
0.001435182
0.0091501746
0.022292446
0.037734664
0.47926485
0.47776107
0.037639794
0.02223808
0.0091285364
0.0014335812
0.0014317464
0.0091038297
0.022176991
0.037536495
0.47630519
0.47492158
0.037435487
0.022116186
0.0090786852
0.0014297791
0.0014280614
0.0090564944
0.022062266
0.037345736
0.47365196
0.47245674
0.037255953
0.022008096
0.009033973
0.0014262482
0.0014247257
0.0090146939
0.021961305
0.037177929
0.47135837
0.47032292
0.037098798
0.021913562
0.0089947987
0.0014231177
0.0014217931
0.0089779982
0.021872657
0.037030389
0.46937789
0.4685458
0.036965505
0.021833197
0.0089613841
0.001420424
0.0014193203
0.0089472835
0.021798596
0.036907214
0.4677577
0.46702793
0.036848037
0.021762887
0.0089323976
0.0014181111
0.001417184
0.0089205611
0.021733905
0.036799355
0.4663717
0.46575493
0.03674823
0.021703086
0.0089077178
0.0014161349
0.0014153709
0.0088980709
0.02167944
0.036708504
0.46523284
0.46476155
0.036667754
0.021654733
0.0088876797
0.0014144958
0.0014138947
0.008880222
0.021636285
0.036636499
0.46435431
0.46397587
0.036602635
0.02161583
0.0088716452
0.0014131535
0.0014126831
0.0088660605
0.021601894
0.03657887
0.46366696
0.46336615
0.036551313
0.021585307
0.0088591188
0.0014120531
0.0014116829
0.0088550973
0.021575087
0.03653365
0.46312808
0.46288705
0.036511532
0.02156181
0.0088495499
0.001411134
0.0014108351
0.0088469121
0.021554913
0.036499411
0.46270217
0.46250771
0.036484256
0.021545625
0.008842945
0.0014103554
0.0014101243
0.0088420671
0.021543223
0.036480239
0.46231734
0.46206037
0.036479628
0.021541394
0.0088407753
0.0014097438
0.0014096815
0.0088444939
0.021552296
0.036502203
0.46167017
0.46102894
0.036547097
0.021572594
0.0088505185
0.00140957
0.0014093638
0.0088591836
0.021601022
0.036609641
0.45980782
0.45745256
0.036600615
0.021583255
0.0088476246
0.0014069506
0.0013985848
0.0087874311
0.021442804
0.036376974
0.45353832
0.44780983
0.035700808
0.021046322
0.008626059
0.0013782555
0.0013455118
0.0083937847
0.020472809
0.034680076
0.44190391
0.44186013
0.035307818
0.020825682
0.0085344401
0.0013550739
0.0013927417
0.0087156619
0.021314479
0.036248623
0.44571991
0.45377338
0.037118136
0.021843048
0.0089338852
0.0014123528
0.0014206005
0.0089986475
0.021990532
0.037350216
0.4579956
0.46058975
0.037353446
0.022003452
0.009007883
0.0014223607
0.0014228089
0.0090034668
0.021985218
0.037306288
0.46196802
0.46274426
0.0372605
0.021962808
0.0089963271
0.0014227118
0.0014230632
0.0089964503
0.021961354
0.037252028
0.46320083
0.46348451
0.037244491
0.021957432
0.008995443
0.0014232137
0.0014237355
0.0089999747
0.021968981
0.037262342
0.46372096
0.46393083
0.037269289
0.021972287
0.0090014768
0.0014239792
0.0014245397
0.0090072461
0.021986999
0.03729295
0.46414793
0.46437852
0.037305009
0.021993271
0.009009964
0.0014248366
0.0014254585
0.0090169742
0.022011032
0.037333926
0.46464431
0.46491948
0.03734967
0.022019787
0.0090208334
0.0014258296
0.0014265591
0.0090294548
0.022041378
0.037384947
0.46524238
0.46559107
0.037407631
0.022054439
0.0090351339
0.0014270585
0.0014279294
0.0090457194
0.022080689
0.037450535
0.46601067
0.46647794
0.037483287
0.022099586
0.0090537217
0.0014285921
0.0014296138
0.0090662893
0.022130514
0.037533838
0.4670199
0.46761438
0.037575364
0.022154843
0.0090765725
0.0014304508
0.001431657
0.0090916316
0.022191957
0.037636477
0.46828798
0.46901603
0.037688549
0.022222404
0.0091043535
0.0014326769
0.0014340452
0.0091213814
0.022264139
0.037757236
0.4698217
0.47067915
0.037817918
0.022299834
0.009136317
0.0014352485
0.0014368083
0.0091556688
0.022347092
0.037895743
0.4716146
0.47262757
0.037965492
0.022388506
0.0091730776
0.0014382158
0.0014399915
0.0091953199
0.022442922
0.03805543
0.47374311
0.47494623
0.038136413
0.022490955
0.0092153606
0.001441589
0.0014435194
0.0092398953
0.022551107
0.03823598
0.47625162
0.4776179
0.03833048
0.022606599
0.0092624784
0.0014452401
0.0014470807
0.00928642
0.022664779
0.038426916
0.4790363
0.48042005
0.038522671
0.022719283
0.0093080266
0.0014486659
0.0014350923
0.0091490069
0.022289376
0.037729268
0.47920765
0.47777262
0.037639354
0.022237457
0.0091281292
0.0014335233
0.0014317084
0.0091036855
0.022176938
0.037536828
0.47633148
0.47496029
0.037436048
0.022116287
0.0090786246
0.001429752
0.0014280391
0.0090564223
0.022062209
0.03734575
0.47367215
0.47247329
0.037254464
0.022007172
0.0090336036
0.001426213
0.0014246941
0.0090143638
0.021960545
0.03717673
0.47136098
0.47033675
0.037097111
0.021912489
0.0089943612
0.001423083
0.0014217823
0.0089779346
0.021872694
0.037030766
0.46940034
0.4685397
0.036961687
0.021831034
0.0089606029
0.0014203783
0.0014192845
0.0089468037
0.021797503
0.036905607
0.46775111
0.46703222
0.036846307
0.021761746
0.0089319191
0.0014180771
0.0014171678
0.0089204
0.021733666
0.036799211
0.46637887
0.46578627
0.036749465
0.021703576
0.0089078302
0.0014161376
0.0014153983
0.0088985348
0.021680796
0.03671106
0.46527426
0.4648317
0.036671879
0.02165692
0.0088884639
0.0014145474
0.0014139719
0.0088813249
0.021639202
0.036641637
0.46442533
0.4640632
0.036608637
0.021619173
0.0088729195
0.0014132469
0.0014127943
0.0088675543
0.02160568
0.036585345
0.46375167
0.46347449
0.036560038
0.021590241
0.0088610198
0.001412192
0.0014118321
0.0088570268
0.021579835
0.036541533
0.46322056
0.46298071
0.036520646
0.021567071
0.0088516354
0.0014112943
0.0014109978
0.0088489531
0.021559865
0.036507544
0.46279151
0.46258102
0.03649093
0.021549646
0.0088446409
0.0014104994
0.0014102567
0.0088436026
0.021546822
0.036486019
0.46237304
0.46210088
0.036483676
0.021543898
0.0088418855
0.001409848
0.0014097896
0.0088458068
0.0215555
0.036507604
0.46173069
0.46108141
0.036550572
0.021574701
0.0088514407
0.0014096518
0.0014094419
0.0088603382
0.021603789
0.036614197
0.45986779
0.45753277
0.036604804
0.021585798
0.0088486852
0.0014070096
0.0013985385
0.0087874781
0.021442959
0.036377049
0.45360054
0.44788655
0.035695175
0.021043635
0.0086251265
0.0013781118
0.0013446633
0.0083878217
0.02045909
0.034657158
0.44211831
0.49664556
0.032090543
0.019086748
0.0078740242
0.0012983255
0.0013281969
0.0080716839
0.019573544
0.03296404
0.50241057
0.50914797
0.033596537
0.019953963
0.0082288847
0.0013461136
0.0013538176
0.0082858587
0.020083539
0.033796942
0.51326391
0.51563178
0.033790953
0.020089953
0.0082924344
0.0013556987
0.0013561843
0.0082871968
0.020070543
0.033744002
0.5168574
0.51752281
0.033698966
0.020047895
0.0082797954
0.0013561313
0.0013564583
0.0082792305
0.020044864
0.033688637
0.51793007
0.51819334
0.033678966
0.02003978
0.0082777911
0.0013566036
0.0013571049
0.0082820555
0.020050589
0.033695611
0.51842448
0.51864784
0.033701872
0.020053609
0.0082834161
0.0013573421
0.0013578599
0.0082887027
0.020066988
0.033723232
0.51889601
0.51914908
0.033734229
0.020072756
0.008291182
0.0013581361
0.001358699
0.0082974954
0.020088494
0.033759335
0.51943042
0.51973945
0.033775571
0.020097406
0.0083012673
0.0013590447
0.0013596804
0.008308765
0.020115858
0.033805022
0.52009946
0.52050039
0.033826784
0.020128245
0.0083140316
0.0013601262
0.0013608759
0.0083232417
0.020150806
0.03386302
0.52095995
0.52146953
0.033891517
0.020167369
0.0083302724
0.0013614463
0.0013623311
0.008341388
0.020194565
0.033935564
0.52206431
0.5227125
0.033969922
0.020215087
0.0083502205
0.0013630445
0.0013641079
0.0083638256
0.020248467
0.034024451
0.52344056
0.52423892
0.034067446
0.020274235
0.0083748421
0.0013649914
0.0013662332
0.008390606
0.020312818
0.034130588
0.5251244
0.52609499
0.034183194
0.020344501
0.0084040904
0.0013673156
0.0013687538
0.0084224832
0.020389444
0.034256854
0.52716475
0.52832351
0.034319911
0.02042739
0.0084385264
0.0013700227
0.0013716282
0.0084591141
0.020477558
0.034402109
0.52957842
0.53091199
0.034475086
0.020521538
0.0084775739
0.00137307
0.0013748098
0.0085005738
0.020577522
0.034566534
0.53232366
0.5337768
0.034651557
0.020627964
0.0085213377
0.0013763225
0.0013778972
0.0085415219
0.020675694
0.03472847
0.53527172
0.53678132
0.034812644
0.020724693
0.008561302
0.0013793771
0.48009533
0.038496775
0.022704665
0.0093024209
0.0014482674
0.0014466813
0.0092815908
0.022653106
0.038407851
0.47874702
0.47746491
0.038321477
0.02260102
0.009259804
0.0014449544
0.0014432813
0.0092374055
0.022545388
0.038226938
0.47615082
0.47488328
0.038134494
0.022489792
0.0092144205
0.001441451
0.0014398438
0.0091938285
0.022439096
0.038048869
0.47374573
0.47265294
0.037966053
0.022389107
0.0091729905
0.0014381514
0.0014367174
0.0091547254
0.022344312
0.037890567
0.47166504
0.47072636
0.03781808
0.022300451
0.0091363727
0.0014352151
0.0014339848
0.0091207103
0.022262022
0.037753308
0.4699009
0.46912282
0.037693428
0.022225546
0.0091053185
0.0014327082
0.0014316955
0.009092289
0.022193348
0.037638806
0.46844555
0.4677965
0.037587897
0.022162322
0.0090791897
0.0014306092
0.0014297776
0.0090684575
0.022135624
0.037542378
0.46723676
0.46669746
0.037499221
0.02210934
0.00905736
0.0014288468
0.0014281673
0.0090486674
0.022087554
0.037461855
0.466243
0.46580366
0.037424844
0.022065076
0.0090392038
0.0014273596
0.0014268176
0.0090325182
0.022048286
0.037396011
0.46545139
0.46511185
0.037366784
0.022030502
0.0090249835
0.0014261421
0.001425722
0.0090200795
0.022017981
0.037344987
0.4648462
0.46457328
0.037321575
0.022003779
0.0090140673
0.0014251462
0.0014248089
0.0090105048
0.021994394
0.037304895
0.46436194
0.46412703
0.03728589
0.021982868
0.0090056298
0.0014242914
0.0014240073
0.0090033059
0.021976541
0.037274544
0.46393994
0.46370268
0.03726599
0.021970589
0.0090004802
0.0014235728
0.0014233894
0.0090006305
0.021971021
0.037267659
0.46345741
0.46300548
0.03728247
0.021976545
0.0090017178
0.0014230984
0.0014231652
0.0090083012
0.021996479
0.037324621
0.46226137
0.46087304
0.037377208
0.022018335
0.0090138015
0.0014227666
0.0014209556
0.0090046338
0.022004501
0.037372837
0.45830333
0.45399938
0.037141717
0.021856896
0.0089391483
0.0014126154
0.0013925821
0.0087254898
0.021335343
0.036278953
0.44600662
0.44167907
0.035303982
0.020825007
0.0085341499
0.0013542919
0.0013582396
0.0085154868
0.020804673
0.035300088
0.4408965
0.44644689
0.036313587
0.021359298
0.0087349311
0.0013927041
0.0014121979
0.0089347817
0.021845035
0.037120374
0.45395851
0.45820825
0.037350739
0.021990367
0.0089985399
0.0014202821
0.0014224407
0.009010602
0.022010228
0.037363005
0.46074091
0.46207438
0.037307315
0.021985305
0.0090035933
0.0014226992
0.0014228852
0.0089992455
0.021970102
0.0372709
0.46283417
0.46326533
0.037250226
0.021959922
0.008996062
0.0014229748
0.001423395
0.0089981202
0.021964265
0.037254358
0.46354414
0.4637505
0.037259844
0.021966957
0.0089992655
0.0014236357
0.0014241207
0.0090034009
0.021977167
0.037275776
0.46395594
0.46415031
0.037288131
0.021983644
0.0090060231
0.0014244146
0.0014249608
0.0090115095
0.021997157
0.037309801
0.46437743
0.46462715
0.037327139
0.022006717
0.0090154675
0.0014253296
0.0014259761
0.0090226121
0.022024279
0.037355558
0.46491321
0.46523244
0.03737942
0.022037799
0.0090282325
0.0014264552
0.001427222
0.0090371113
0.022059417
0.037414372
0.46560072
0.4660152
0.037446909
0.022078086
0.0090448126
0.0014278451
0.0014287476
0.0090555246
0.022104048
0.037489096
0.46650254
0.46704729
0.037529677
0.022127709
0.0090653541
0.0014295315
0.0014306127
0.0090785987
0.022159973
0.037582506
0.46766308
0.46834203
0.037633458
0.022189616
0.009090776
0.0014315614
0.0014327751
0.0091056925
0.022225758
0.037692666
0.4690808
0.46988402
0.037751231
0.022260086
0.0091198636
0.001433885
0.0014352753
0.0091370289
0.022301661
0.037819525
0.47075863
0.47169846
0.037886676
0.022341355
0.0091535113
0.0014365726
0.0014381749
0.009173382
0.022389516
0.037965964
0.47271745
0.47381375
0.038043349
0.022435481
0.0091925049
0.0014396887
0.0014415221
0.0092152712
0.022490745
0.038134543
0.47499992
0.47627548
0.03822494
0.022544483
0.0092374905
0.0014432662
0.0014452928
0.0092634647
0.022607637
0.03832906
0.4776453
0.47906352
0.038438038
0.022670879
0.0092885401
0.0014471567
0.0014486966
0.0093086383
0.022720229
0.038522392
0.48047199
6.9250786
6.9934367
6.9250682
6.9933444
7.1784647
7.0632556
6.9535508
6.9690803
7.0667027
7.063358
7.2927996
7.2840992
7.0667013
7.1766411
7.370821
7.378765
7.3680354
7.4616808
7.4899581
7.4798335
7.4395653
7.4167406
7.4273788
7.2993359
7.4173229
7.2433396
7.2531188
7.463276
7.4430663
7.4575333
7.3724108
7.536592
7.5134059
7.5292073
7.5783014
7.5087427
7.4860114
7.487715
7.4586929
7.4341609
7.4474877
7.3677037
7.2685743
7.1920444
7.3994816
7.3711949
7.3431319
7.3707186
7.1864447
7.2388483
7.1252353
7.068599
7.0348543
7.0871464
7.2996645
7.3160712
7.3162469
7.2283118
6.9774682
6.8854034
7.0683206
7.1840776
0.44289061
0.034617322
0.02043766
0.008379181
0.0013488702
0.001378991
0.0086058884
0.020996322
0.035615322
0.44755306
0.45289516
0.036285567
0.021387079
0.008764577
0.0013980727
0.0014066295
0.0088326791
0.021547643
0.036542969
0.45675813
0.45916557
0.036551732
0.021564784
0.0088442333
0.0014087621
0.0014092917
0.008841366
0.021550603
0.036511461
0.46046136
0.46121558
0.036462409
0.021527338
0.0088343369
0.0014091966
0.001409588
0.0088356424
0.021529074
0.036459585
0.4616655
0.46198534
0.036453061
0.02152585
0.0088349877
0.0014097422
0.0014102727
0.0088400067
0.021538663
0.036473026
0.46224181
0.46247866
0.036478757
0.021541658
0.0088415392
0.0014105137
0.0014110963
0.0088479984
0.021558457
0.036506585
0.46271989
0.46296229
0.036515572
0.021563484
0.0088504302
0.0014113784
0.0014120262
0.0088580834
0.021583177
0.036548337
0.46323216
0.46353349
0.036562111
0.021591182
0.0088618068
0.001412392
0.0014131474
0.0088711119
0.021614852
0.036601373
0.46386354
0.46423619
0.036622839
0.02162732
0.0088766007
0.001413629
0.0014144848
0.0088872108
0.021653896
0.036666733
0.46465414
0.46512015
0.036694821
0.0216706
0.0088945545
0.0014151106
0.001416139
0.0089075649
0.021703054
0.036748515
0.46565244
0.46624386
0.036787483
0.021725987
0.0089173381
0.0014169353
0.0014181045
0.0089320922
0.021762408
0.03684743
0.46689282
0.46761405
0.036896245
0.021791106
0.0089441911
0.0014190763
0.0014204085
0.0089609702
0.021832292
0.036964005
0.46839668
0.46924194
0.037021156
0.021866191
0.0089753017
0.0014215636
0.0014230961
0.0089946043
0.021913456
0.03709908
0.47017718
0.47119076
0.037165415
0.021953199
0.0090114601
0.0014244575
0.0014262115
0.0090336728
0.022007613
0.037255364
0.47229392
0.47348719
0.037334213
0.022054603
0.0090533791
0.0014277812
0.0014297021
0.0090777257
0.022113942
0.037431844
0.47477039
0.47613806
0.03752477
0.022169071
0.0091004027
0.0014314499
0.0014333623
0.0091251982
0.022229316
0.037624358
0.47758318
0.47907998
0.037724507
0.022286651
0.0091479157
0.0014350221
0.0014327452
0.0091188831
0.022215223
0.037604315
0.4772817
0.47602042
0.037522673
0.0221673
0.0090991456
0.0014312507
0.0014295504
0.0090763766
0.022111224
0.03742804
0.47473341
0.47348956
0.037333751
0.02205427
0.0090527414
0.001427702
0.0014261284
0.0090326476
0.022005354
0.037252146
0.47237438
0.47131327
0.037172672
0.021957112
0.0090124454
0.0014244921
0.0014231327
0.0089950658
0.021914649
0.037101292
0.47036693
0.46944945
0.037029855
0.021871424
0.0089770318
0.0014216773
0.0014205042
0.008962027
0.021834604
0.036967744
0.46861351
0.46784135
0.036907698
0.021798182
0.0089467698
0.0014192555
0.0014182807
0.00893432
0.021767433
0.036855457
0.46713984
0.46646943
0.036802352
0.021735234
0.0089208497
0.0014171849
0.0014163615
0.0089102299
0.021709052
0.036758024
0.46588501
0.4653362
0.036713533
0.021681944
0.0088988302
0.0014154207
0.0014147582
0.0088904449
0.021661154
0.036678145
0.46488165
0.46444673
0.036644083
0.021640141
0.0088814733
0.0014139866
0.0014134833
0.0088752452
0.021624472
0.036616984
0.46413454
0.46377504
0.036584807
0.021605073
0.0088671836
0.0014127939
0.001412371
0.0088621599
0.021592325
0.036562648
0.46346475
0.46317339
0.036536898
0.021576676
0.008855591
0.0014117715
0.0014114203
0.008851736
0.021566662
0.036519214
0.46292896
0.46270387
0.036500928
0.021555227
0.00884679
0.0014109063
0.0014106222
0.0088442104
0.021548247
0.036488333
0.46249173
0.46222136
0.036473292
0.021538549
0.0088399968
0.001410129
0.0014099369
0.0088398087
0.021538679
0.036475222
0.46193457
0.46148315
0.036487893
0.021542669
0.0088402034
0.0014096378
0.0014097092
0.0088463496
0.021562359
0.036530772
0.46076898
0.45944704
0.036580254
0.021581769
0.0088507343
0.0014092868
0.0014071721
0.0088387232
0.021562787
0.036569223
0.45700733
0.45286026
0.03632396
0.021407282
0.00877141
0.0013987998
0.0013797221
0.0086131068
0.021019662
0.035664494
0.44702195
0.44060823
0.034618131
0.020414997
0.0083650975
0.0013487746
0.0013017281
0.0079020067
0.019289409
0.032739708
0.42708563
0.44253997
0.036557716
0.02148387
0.0087360328
0.0013746636
0.0013585925
0.0085530732
0.020860547
0.035357596
0.44311819
0.44553827
0.036201442
0.021289687
0.0087069491
0.0013933838
0.0014124902
0.0089264571
0.021824582
0.037084243
0.45344944
0.45758386
0.037301513
0.02196088
0.008986847
0.0014202861
0.0014223838
0.0090025225
0.021991059
0.037332089
0.46023326
0.46164549
0.037273756
0.021964856
0.0089953048
0.0014225279
0.0014227569
0.0089934772
0.021956687
0.037249649
0.46247454
0.46295451
0.037228873
0.02194644
0.0089903978
0.0014227929
0.0014232185
0.0089934153
0.021953349
0.037237105
0.4632575
0.46348416
0.037241337
0.021955279
0.0089944026
0.0014234227
0.0014239321
0.0089994483
0.021968037
0.037261512
0.46371882
0.46396062
0.037270079
0.021972605
0.0090016147
0.0014241971
0.0014248172
0.0090087579
0.021990957
0.037300309
0.46420578
0.46446542
0.037313691
0.021998464
0.0090121389
0.0014251507
0.0014258427
0.0090203411
0.022019184
0.037347793
0.46476377
0.46511531
0.037367402
0.022030444
0.0090253156
0.0014262882
0.0014271124
0.0090354476
0.022055918
0.037409453
0.46549737
0.46592336
0.037435998
0.022071452
0.0090422237
0.0014276908
0.0014286579
0.0090542868
0.022101509
0.037485626
0.4664134
0.46696273
0.037521033
0.022122396
0.0090632715
0.0014294
0.0014305367
0.0090776476
0.022158183
0.037580372
0.46758101
0.46825165
0.03762548
0.02218478
0.0090889087
0.001431447
0.0014327305
0.0091050837
0.022224766
0.037691797
0.46899133
0.46979115
0.037745519
0.022256583
0.0091185318
0.001433817
0.0014352883
0.0091370101
0.022301988
0.037820537
0.47065404
0.47160401
0.037885805
0.022340538
0.0091531585
0.0014365816
0.0014382324
0.0091738905
0.022391316
0.037969783
0.47264887
0.47377137
0.038043427
0.022435193
0.0091923374
0.0014397132
0.0014415682
0.0092157577
0.0224926
0.038138591
0.47496899
0.47623841
0.038224034
0.022543416
0.0092369027
0.0014432409
0.0014452483
0.0092623517
0.022605121
0.038324982
0.47755607
0.47888051
0.038436729
0.022670356
0.0092884349
0.00144713
0.0014486494
0.0093112588
0.022717575
0.038510732
0.4801895
0.0014326409
0.0091170605
0.022210793
0.037596636
0.47724439
0.47600993
0.037514988
0.022162461
0.009097124
0.0014311199
0.001429414
0.0090745438
0.02210678
0.037420935
0.4747359
0.47351022
0.037331723
0.022052854
0.0090521166
0.0014276206
0.0014261119
0.0090328754
0.022006018
0.037253311
0.47241678
0.47136501
0.037175998
0.021959091
0.0090132315
0.0014245278
0.0014232228
0.0089964942
0.021918273
0.0371074
0.47041041
0.46947636
0.037035166
0.021874818
0.008978473
0.0014217855
0.0014206384
0.0089636863
0.021838832
0.036974877
0.46862608
0.467822
0.036908029
0.02179854
0.0089469812
0.0014193279
0.0014183071
0.0089339914
0.021766816
0.036854938
0.46709487
0.46642273
0.036797181
0.021732118
0.0089196444
0.0014171416
0.00141631
0.0089094633
0.021707254
0.036755385
0.46583814
0.46528922
0.036711471
0.021680594
0.0088982427
0.0014153761
0.0014147274
0.0088900794
0.021660464
0.036677307
0.4648586
0.46444856
0.036642465
0.021639133
0.0088810477
0.0014139576
0.0014134532
0.0088747528
0.021623307
0.036615084
0.46409137
0.46372635
0.036580498
0.021602667
0.0088662814
0.0014127433
0.0014123101
0.0088611349
0.021589775
0.036558393
0.46339424
0.46309732
0.036529879
0.02157266
0.0088540523
0.0014116815
0.001411332
0.0088503353
0.021563325
0.036513868
0.46285166
0.46262013
0.036492765
0.021550517
0.0088449446
0.0014107979
0.001410521
0.0088425121
0.021544222
0.036481868
0.46239625
0.46213985
0.036465897
0.021534125
0.0088381839
0.0014100298
0.0014098524
0.0088381418
0.021534779
0.036468997
0.46184028
0.46141003
0.036481853
0.021538977
0.0088386407
0.0014095725
0.0014096583
0.008844808
0.021558701
0.036524803
0.46067154
0.45935525
0.03657237
0.021577106
0.008848834
0.0014092302
0.0014071282
0.0088369953
0.021558557
0.036562119
0.45692672
0.45282703
0.036320014
0.021405053
0.0087705188
0.0013988092
0.0013798401
0.008613732
0.021021107
0.035666736
0.44711639
0.4409186
0.034639214
0.02042735
0.0083702219
0.0013492912
0.0013037218
0.0079402436
0.019381109
0.032886016
0.42844573
0.47470534
0.029772755
0.017571408
0.0072094756
0.0012598918
0.001343023
0.0083442529
0.020396476
0.034544691
0.43612617
0.44137886
0.034639235
0.020460973
0.0083716281
0.0013411051
0.0013478779
0.0083763513
0.02043207
0.034611275
0.44271609
0.44759849
0.035616571
0.020997057
0.0086067406
0.001378649
0.0013980923
0.0087677795
0.021396163
0.036300954
0.45297985
0.45689298
0.036542238
0.021546921