/*--------------------------------*- C++ -*----------------------------------*\
  =========                 |
  \\      /  F ield         | OpenFOAM: The Open Source CFD Toolbox
   \\    /   O peration     | Website:  https://openfoam.org
    \\  /    A nd           | Version:  7
     \\/     M anipulation  |
\*---------------------------------------------------------------------------*/
FoamFile
{
    version     2.0;
    format      ascii;
    class       surfaceScalarField;
    location    "130";
    object      phi;
}
// * * * * * * * * * * * * * * * * * * * * * * * * * * * * * * * * * * * * * //

dimensions      [1 0 -1 0 0 0 0];

internalField   nonuniform List<scalar> 
76009
(
0.0022149479
1.47908
-1.479908
-2.0321664
2.0335643
-36.229809
2.0786384
-2.0792653
-2.078649
2.0773099
-34.811818
-6.1491254e-05
0.0021683703
2.0335789
1.4791159
-1.4798854
-2.0321487
-36.229761
2.0773868
2.078669
-2.0792223
-2.0785552
7.8485242e-06
-34.811675
-0.0032091729
-9.3254899
-0.0031739911
-0.38308981
0.37481023
0.36806708
-0.39123494
0.36807207
0.37482501
-0.38308807
-0.39123952
-0.012856314
-7.6965751
0.066639693
-7.4071794
0.012890333
-0.012284095
-0.012273243
-10.342415
0.0061538621
-0.054478658
-9.6926831
-0.0061423696
0.38355625
0.37887484
-0.37518168
-0.37998875
0.38355361
-0.37999335
-0.37518812
0.3788683
-9.3276948
7.6965956
-0.054484767
-9.6926928
0.066667432
0.37072078
-0.37678455
0.5240433
-0.5374994
-8.2570287
-0.0017646118
-0.00017376569
-0.57881281
-0.020098729
0.023898839
-0.024990328
0.032525371
-0.00037283349
-0.56515394
0.032719939
-0.025233124
-0.025363589
0.032598529
-0.011102731
-0.0078431093
-2.4813123
0.098766385
0.13267406
-0.12926657
-0.096207717
0.0034784521
-2.6372255
0.094981618
-0.092243614
-0.12672371
0.12822633
-0.13058602
-2.34326
0.0024175596
-0.47575548
0.0019704955
-0.0015416292
-0.0013447248
0.00059470192
-0.5756861
-0.031943049
-0.023526351
0.023758916
0.032316412
-0.52718869
0.0015658094
-0.00062258535
0.00037651179
-0.65459504
-0.0016141518
-0.00048257978
-0.66434682
0.48078855
-0.62386279
0.0096746367
0.006193313
0.0046392546
-0.13146848
-0.51119864
-0.023287475
0.02355215
0.032679987
-0.032792958
-0.0018324761
-0.1325907
-0.10193245
0.097943026
-0.10193129
-0.13258651
-2.3812783
0.0019773757
0.13645273
0.13356494
-0.13114846
-0.13384421
-2.535619
0.13598257
-0.1335008
-0.12919289
0.13145034
-2.4764716
-2.5531368e-06
-2.3315662e-05
0.0014631754
-0.53374156
-0.00069167661
-0.00075314146
0.0015284041
-0.5351264
0.0015179697
-0.53184658
0.00014642629
-0.54575583
-8.9958263e-05
0.032266393
0.032319644
-0.031993513
-0.03199642
6.8862501e-05
-0.5465442
0.032362932
-0.031975463
-0.03200414
0.032315539
-0.54767016
-0.032142773
0.03252769
0.032359669
-0.031976954
0.0029253446
-0.00036518403
0.00017085535
0.03272258
0.032602365
-0.025357458
-0.025228528
-0.56514014
-0.00060690534
-0.65908628
-0.0030745425
-0.00017207138
-0.6663309
-0.00018622817
0.032605906
0.032557706
-0.025447642
-0.025366724
-0.56414694
0.0031638023
-4.8682937e-05
-0.025444562
0.032561144
0.032513673
-0.025448359
-0.56323907
0.00054195935
-0.66479258
0.52538611
-0.0031976804
-0.65083925
-1.0841022e-07
0.0014110943
-1.3097055e-06
-0.54392528
-5.3721332e-07
-0.031975621
0.032254912
0.032225866
-0.031966384
-0.56131063
5.4232903e-07
-0.025426191
0.032502208
0.032475986
-0.025413559
0.0047965737
6.1121048e-05
-0.57260613
1.1547348e-06
0.0064366512
-0.12864631
0.00067350927
-0.51807045
5.791434e-07
-0.50012477
0.0024898563
-2.027166
-0.10842889
0.13306082
-0.10495053
1.5272625e-06
0.0017516924
-7.7911672
0.51966069
-0.54580493
-0.52580773
-9.1400832e-07
-8.2569797
-0.37676822
0.37073593
0.52406003
-0.53747225
0.012563953
0.54795062
0.38632078
-0.37540369
-0.52861926
-10.433493
0.55335976
1.1314893e-05
-0.53164365
-0.51374532
0.53659427
-9.9017348
-0.0069231294
0.020383769
2.6817031
-2.140276
-0.0015279612
-0.013438795
2.6567394
-2.1177672
0.015494103
2.6261166
0.0065602554
-1.8762386
1.8143224
0.021755453
0.030180701
0.042692466
0.035863845
-2.103981
-0.085020839
-0.0030478158
0.129762
0.096568629
-0.104754
0.040369312
-0.0033277232
0.63399222
0.021523468
-2.3270941
-0.0075024678
0.61586743
0.53958655
0.62222698
0.07764228
-0.098099834
-0.13423574
0.096462495
0.084363352
0.47535339
-0.0045322927
-0.006213074
-2.0379677
0.094765378
0.12574917
-0.11885552
0.081342906
-2.1870309
-0.19046757
-1.9495346
0.0028145271
0.14512433
-0.0050226086
0.0011575534
-0.14269999
-2.1781513
-0.0065249731
-2.6301287
0.0052542005
-0.0023474567
-2.6558182
2.3145366
0.095958474
0.13062296
-0.12955536
-0.095123698
0.00051808967
-2.3105453
0.0015479132
0.13182803
0.096416177
-0.094781075
-0.12925989
2.2167343
-2.2007182
2.1967452e-05
-0.1299274
0.1327992
0.13216371
-0.12914186
0.62871768
-0.064422956
-0.0018679603
0.63349025
0.54562636
0.54238991
0.098739099
-0.13608454
-0.13527668
0.09792063
0.105461
-0.0018888286
0.52338547
0.0054857667
-0.0037257301
-2.0663386
-0.10887437
0.13347093
0.13068674
0.0018088932
0.06179801
3.4007899e-06
-2.6129662
0.63260639
0.54172238
0.5393855
0.61792536
5.7572364e-06
0.097920703
-0.13497453
-0.1348054
0.097612791
-2.1974689
0.0011037285
-0.0040923697
0.52643327
0.00073287911
0.52783841
-0.0040076229
-0.00027834462
-0.0046155181
-0.00012770079
-0.00084832687
-0.0044440815
-0.0023602223
-0.52004874
-0.0032724005
-1.9640613e-05
-0.51590081
0.0098508078
0.0079167369
-0.0031063049
-0.020314883
0.0033030678
0.57492921
-0.037928293
-0.0038237396
0.57880165
0.0033197508
-0.00061378268
0.023901234
-0.020095524
-0.024986416
0.032527598
-0.023749323
-0.11767768
0.00056010638
0.16444651
0.00032161283
-0.020347818
0.032736239
-0.029858714
-0.010869083
-0.63300597
-0.15574568
-0.0011216321
-0.0012537041
0.15379532
0.1558837
0.13483228
-0.0070112639
-0.022817729
0.018932186
0.023151171
-0.028254814
-0.0031330572
-0.57780372
0.12950432
-0.00067930894
-0.0011377424
0.16278881
-0.00025119321
5.4411263e-05
0.00014205963
0.13084338
-0.00013553772
-4.1453308e-06
0.11840288
-0.00062813448
0.00018344806
0.00038827388
-0.00013827793
7.9766723e-05
0.00014038582
-0.1457221
-0.00021987664
-8.2674833e-05
-0.13149875
4.3100457e-05
-4.2185342e-05
-0.1641329
-0.00074475685
-0.14547149
-0.00038772916
-4.061001e-05
-0.00034295506
-0.14394344
-0.0012904011
-0.00014588311
-0.13071187
-0.00070612573
-0.00065458193
-0.0052860155
-0.0094539727
-0.00099108224
0.00013829434
0.14501105
0.00026559551
-0.15430834
-0.0005605811
0.028537076
0.1314519
-2.4687974e-05
-0.16511201
0.49548446
0.033002448
0.032206519
-0.032396065
-0.035247076
-0.57731474
0.032571605
-0.032463627
0.031892217
-0.032336412
0.031336046
-0.13153787
-0.00016815808
-0.00014795568
-6.4860121e-05
-0.00058068246
-0.16410071
0.14547709
-0.00047650957
-0.14538157
-7.159172e-05
-0.00026297306
-0.0001168859
0.00018993101
-0.14484531
-0.00026286801
-0.00014265429
-0.13004575
-0.00012733621
-0.00010949765
-0.16221511
-0.0006382393
-0.14497118
-0.00035882624
-0.00010131787
0.0011992513
-0.00017280496
-0.14559157
-0.00034979154
-5.6262557e-05
-0.00037054234
-9.1127497e-05
-0.00072302492
-0.13060601
-0.00029840215
0.00010381393
-0.00075414093
-0.16237644
-0.00034267469
-0.14479588
-8.3607946e-05
1.9623297e-06
-0.14382247
0.14397741
-6.2740238e-05
-0.00043684051
0.032677039
-0.1628516
-0.00041822696
0.12984061
0.035250968
-0.59596346
-0.032678124
0.032526187
0.52704625
0.024208847
-0.024848957
-0.024847746
0.024209609
0.032526397
0.010875372
-0.57731796
0.032205965
0.033003135
-0.028537808
-0.032397675
-0.63301225
-0.020348086
0.023750583
0.032736353
-0.029860073
-0.00019878716
-0.56416364
0.03260184
-0.025373493
-0.025456864
0.03255134
-6.5203302e-05
-0.56325749
0.032554653
-0.025454421
-0.025461453
0.032503837
-0.56133002
0.032492478
-0.025439778
-0.025430755
0.032462297
-1.7714372e-05
7.8660471e-05
0.0063886505
-1.6855272e-05
0.0048352623
-0.57261574
0.00029671554
0.0065369465
0.0047824058
-0.5747949
0.00075761081
0.0046372787
-0.57612573
0.0068639132
0.00062073646
0.0044592376
-0.57679249
0.0073161878
-0.0098472662
0.0032827376
-0.57493675
0.0033092092
-0.125748
2.6228438e-05
-0.51590585
0.007909354
-0.035848159
-2.0379764
-0.084365276
0.094767828
-0.11886042
0.081328656
-1.8143334
0.042694964
0.030171209
0.021747824
-2.6261251
-0.021539775
-2.1870346
-0.19047031
0.63399888
-0.040346807
-2.3271001
-0.0075364907
0.62223372
0.5395885
0.6158714
0.077639549
-0.098101841
-0.1342424
0.096455843
0.085028778
-0.0062166649
0.47535901
-0.0045375172
-2.1040033
-0.0030600471
-0.10476534
0.12975499
0.096562646
-2.6567533
-0.0033484434
-0.013428548
-0.54793397
0.015479521
-2.1177713
0.0069010712
-0.38631286
-1.8762418
0.0065546035
-0.37541047
-0.52863375
0.012531965
-10.433513
0.0050197864
-0.0065347518
-2.6301306
1.9495358
0.001143428
-2.1781513
-0.14269625
0.0027978707
0.14512616
-2.3145367
0.0015195321
0.09641568
-0.094781138
-0.12926346
0.1318233
-0.0052453806
-2.3105433
0.00049637818
0.095958931
-0.095122955
-0.12955714
0.13062023
-0.0023658647
-2.6558194
0.53166065
-2.6830433
0.0024695849
2.1402789
0.0062682226
7.7912387
-9.9017537
-0.51377734
0.53654942
0.55333807
-5.1624052e-05
0.51963135
-0.54584381
0.50006665
-0.52587478
-7.3983224e-05
-2.0663662
-0.10547519
0.13067788
0.13345506
-0.10889618
-0.0025148806
0.064378464
-2.6817186
0.001781712
0.62872851
0.63349909
0.54238955
0.54563063
-2.216737
-0.0019187332
-0.13609102
0.09873086
0.097902709
-0.13529259
0.0054934515
0.52339483
-0.0018966128
-0.0037383441
0.52005678
-0.0033116123
-0.0023586131
0.00084366615
0.000271786
-0.52784932
-0.00013911896
-0.0040257466
-0.0011172814
0.00094484989
-0.00088869643
-0.037818082
0.0038330215
-0.037788382
0.0031116065
-0.037938445
-0.020320776
0.11758603
0.50193428
0.0071869037
0.0086621146
-0.6556901
-2.2131928
-0.11758332
0.12603263
0.091418488
-0.10257142
0.091416954
0.12603363
-0.10257486
0.10985763
0.096420335
0.1098539
-0.09631522
-0.098052076
0.096424402
-0.098048097
-0.096310727
-2.6179608
0.65568752
0.0029932978
-0.47154689
0.00036597848
0.50193102
0.0086645615
0.0071937353
-0.0041368392
-0.51567206
-0.020980718
0.027463449
-0.030647194
0.0315855
0.018217926
-0.0050959595
-0.050178443
-0.55430451
0.15892976
0.15616353
0.13523277
0.15529273
-0.01193373
-0.0022021908
0.023137599
0.018810087
-0.024707893
-0.033598782
-0.58021983
0.11866074
-0.0013349986
-0.0021944256
-0.00015469828
9.9057395e-05
-0.13048853
-0.00018832053
-0.00063501467
-0.0022613126
-0.0016535017
0.0012378685
0.14325636
-0.0013709943
-0.010151781
0.12970878
-0.0060198026
6.9824126e-06
-0.00099008868
-0.0013736745
-0.00034717969
-4.3582365e-05
-0.14375401
-0.0011995532
-0.00019899441
-0.032528742
-0.13053002
-0.00082650334
-0.01821707
0.032527333
-0.029862774
-0.025311772
0.024180572
-0.56260165
-0.029860815
-0.025310143
0.02418204
0.0041412123
-0.020982503
0.027462571
0.03158387
-0.030649387
-0.51567384
0.0070062217
0.1557487
0.15588579
0.13483377
0.15379843
-0.0031439153
-0.57780898
-0.02281962
0.018930553
-0.028258018
0.023148728
0.11767997
-0.0012557525
-0.0011223347
0.00031929295
0.00056004328
-0.00017141933
0.0012018891
-0.14559365
-0.0003518663
-5.881849e-05
0.00072486663
-0.13060737
-0.00030009484
0.00070875339
0.0003696298
-0.13145364
-0.13071408
0.00034246428
-0.00065566888
-0.0052884478
0.00068206927
0.14394636
-0.0094572211
-0.00099310791
0.12950733
-0.001139494
-0.00025420351
5.3687101e-05
-0.0012933255
-0.0001471115
-0.14501354
-9.296488e-05
0.00013989499
0.00026319965
-0.0005634415
-0.15431041
-2.6248179e-05
-0.16511375
0.00010179722
-0.00075542017
-0.16237767
-0.00034444557
-8.6801202e-05
-0.14479741
4.2971669e-06
0.143979
-0.00043759341
-6.6580933e-05
-0.14382357
0.12984153
-0.00041841483
-0.16285236
0.16235302
-4.2242663e-05
-0.00024315525
0.032549787
0.12957142
-0.00023036937
-0.00017828362
0.032254032
0.024109256
-0.02467532
-0.032550235
0.032252066
-0.02467512
0.024108538
-0.0021454004
2.0773977
-2.0785474
-2.0791966
2.0786972
-34.811582
1.4791543
2.0336102
-2.0321185
-1.4798565
-36.229539
-0.5305422
-10.423459
-0.36959202
0.37478199
0.058281091
0.0019809547
0.13645538
-0.1338397
-0.13114343
0.13356692
-0.003480478
-2.5356079
0.13145144
0.13598355
-0.13349824
-0.12919175
-2.4764682
0.00068947517
-0.52538549
0.0014123311
-0.0015331042
-0.00014438723
-0.54654006
6.6560844e-05
0.032364218
0.032317138
-0.032001944
-0.031973311
2.6147147e-05
-0.53512284
-0.00075518361
-0.53373927
0.0014665277
0.000542175
-0.0031602696
0.00017143676
-0.66479086
-0.0031964107
-0.65083877
0.5439245
4.9434109e-05
-0.56131026
0.032476174
0.032502948
-0.025425331
-0.025413337
8.8532634e-05
-0.031966065
0.032226182
0.032255505
-0.031974801
-0.54575335
0.032267553
-0.031995
-0.031991852
0.032320765
0.00018625898
-0.5632378
0.03251475
0.032562532
-0.025442843
-0.025447089
0.0030693325
0.0003645963
-0.56414474
0.032607632
0.032559395
-0.025445568
-0.02536444
0.00060638108
-0.66632815
0.53184175
-0.0029190814
-0.0003771777
-0.65908254
0.0015234346
-0.0015677289
-0.54766457
0.032529003
0.032361348
-0.031974346
-0.032140342
-0.00059668152
0.00017001766
-0.56513705
0.032724442
0.032604347
-0.025354891
-0.025225917
0.0016070688
0.032529724
0.57567932
-0.024983566
-0.020092713
0.023903578
-0.57879785
-0.0096755447
0.12926034
0.52718331
-0.65459081
-0.00062294109
-2.6372105
0.13267727
-0.096200698
0.098770865
0.011103824
5.9212389e-05
-0.00225344
1.4285473e-05
-3.7661886e-05
0.00011946281
-0.0026788162
1.8358319e-05
-4.174971e-05
0.00018657954
-0.0030357713
2.1465612e-05
-4.5591302e-05
0.00026540252
-0.0034029152
2.4254409e-05
-4.9807138e-05
-0.055298672
0.00051061906
-0.00048174297
-0.00017313957
-0.0002402279
-0.055365195
0.00032706334
-0.00021310201
0.00019279194
-0.00016971545
-0.0034688049
2.0083419e-05
-2.4705741e-05
-0.00010535573
-0.0030957786
1.8682628e-05
-2.3034755e-05
-4.7794508e-05
-0.0027323264
1.7410867e-05
-2.1460888e-05
-0.0022976955
1.611095e-05
-1.9650011e-05
1.9910744e-05
-0.0023149889
3.7328944e-06
-6.3492058e-06
4.1242504e-05
-0.0027511407
4.5063014e-06
-7.0228994e-06
6.4878945e-05
-0.0031168389
4.9732698e-06
-7.5487182e-06
9.160903e-05
-0.0034928484
5.4154722e-06
-8.1015383e-06
-0.055640732
0.00012323618
-7.1995851e-05
0.00031590702
-3.6752413e-05
-0.055986934
8.1827387e-05
-2.8419373e-05
0.00032954874
-2.584955e-05
-0.0035040468
3.9255769e-06
-3.6261241e-06
-1.6018586e-05
-0.0031268746
3.6565694e-06
-3.447521e-06
-7.2935972e-06
-0.0027600022
3.4570732e-06
-3.3102846e-06
-0.0023224057
3.3463744e-06
-3.2231988e-06
2.5359881e-06
-0.0023249372
1.8781711e-06
-1.8775321e-06
5.2726227e-06
-0.0027628498
2.0512521e-06
-1.9379304e-06
8.2782567e-06
-0.0031300851
2.220169e-06
-2.0135297e-06
1.16099e-05
-0.0035076944
2.4233809e-06
-2.1069612e-06
-0.056280781
5.6929321e-05
-1.5886781e-05
0.00026441603
-5.4151967e-06
-0.056483011
4.5367251e-05
-1.335219e-05
0.00017563102
-3.8405119e-06
-0.0035096613
2.1810233e-06
-1.7881982e-06
-2.3802452e-06
-0.0031318537
2.0176909e-06
-1.7087382e-06
-1.072984e-06
-0.0027643997
1.8851878e-06
-1.6410498e-06
-0.0023262093
1.7830292e-06
-1.5838849e-06
7.1778209e-07
-0.0023270409
1.4495239e-06
-1.3385584e-06
1.5386623e-06
-0.0027653756
1.5687292e-06
-1.4146415e-06
2.4394074e-06
-0.0031329538
1.6853574e-06
-1.4865815e-06
3.4139818e-06
-0.0035108887
1.8185966e-06
-1.565615e-06
-0.056602436
3.5106403e-05
-1.2150967e-05
9.9884988e-05
-2.8166842e-06
-0.056665854
2.7096646e-05
-1.0675058e-05
4.9814341e-05
-2.0059313e-06
-0.0035118772
1.5194436e-06
-1.3396044e-06
-1.2565732e-06
-0.0031338487
1.4147542e-06
-1.2669267e-06
-5.7555872e-07
-0.0027661729
1.3222549e-06
-1.2007289e-06
-0.002327715
1.2295964e-06
-1.1310685e-06
4.7846551e-07
-0.0023282641
9.9725395e-07
-9.239324e-07
1.0224941e-06
-0.002766805
1.0748143e-06
-9.8546941e-07
1.6219044e-06
-0.0031345529
1.1484679e-06
-1.0428067e-06
2.2687698e-06
-0.0035126485
1.2302289e-06
-1.1056181e-06
-0.056697813
2.0892688e-05
-8.9820493e-06
2.2317498e-05
-1.8595985e-06
-0.056714258
1.6349299e-05
-7.3866345e-06
9.3428163e-06
-1.3278205e-06
-0.0035132741
9.9253552e-07
-8.9863257e-07
-8.3771045e-07
-0.0031351249
9.2819061e-07
-8.4618402e-07
-3.9519908e-07
-0.0027673186
8.7022345e-07
-7.9893712e-07
-0.0023287195
8.0894077e-07
-7.4873914e-07
3.2472317e-07
-0.0023290917
6.5375762e-07
-6.0544823e-07
6.8184561e-07
-0.0027677321
7.0291213e-07
-6.4603987e-07
1.0716889e-06
-0.0031355791
7.4914814e-07
-6.8445167e-07
1.4929042e-06
-0.0035137682
8.0051053e-07
-7.2752629e-07
-0.056723602
1.2994534e-05
-6.0268244e-06
3.8696296e-06
-1.2044762e-06
-0.056729619
1.0457748e-05
-4.920623e-06
1.6842192e-06
-8.6872742e-07
-0.003514161
6.4765698e-07
-5.9044204e-07
-5.5816306e-07
-0.0031359408
6.0631001e-07
-5.5497853e-07
-2.6918613e-07
-0.0027680658
5.690405e-07
-5.2386367e-07
-0.0023293992
5.2960255e-07
-4.9132171e-07
2.2659113e-07
-0.0023296526
4.2751333e-07
-3.9829215e-07
4.5671725e-07
-0.0027683296
4.5897514e-07
-4.2432845e-07
7.0440775e-07
-0.0031362272
4.8892467e-07
-4.4951911e-07
9.6738572e-07
-0.0035144681
5.2253761e-07
-4.7833749e-07
-0.056733866
8.4443373e-06
-4.0041625e-06
7.7518356e-07
-7.7187306e-07
-0.05673697
6.7498425e-06
-3.2265227e-06
3.5261777e-07
-5.6593269e-07
-0.0035147062
4.16335e-07
-3.8382874e-07
-3.7314989e-07
-0.0031364486
3.8949608e-07
-3.6050321e-07
-1.8956807e-07
-0.0027685379
3.6611427e-07
-3.4071079e-07
-0.0023298637
3.4235999e-07
-3.2076813e-07
1.6329478e-07
-0.0023300391
2.6372178e-07
-2.5174893e-07
3.0846799e-07
-0.002768697
2.7919311e-07
-2.6532253e-07
4.5615992e-07
-0.0031366123
2.9584638e-07
-2.7995815e-07
6.0952719e-07
-0.0035148777
3.1591932e-07
-2.9786143e-07
-0.056739148
5.1497281e-06
-2.5110778e-06
1.4814569e-07
-4.8229034e-07
-0.056740486
3.4288905e-06
-1.765986e-06
1.5788308e-07
-3.6749582e-07
-0.0035149904
2.081071e-07
-2.1040751e-07
-2.5696405e-07
-0.0031367208
1.9587787e-07
-1.9813346e-07
-1.4088694e-07
-0.0027688115
1.8740865e-07
-1.8950366e-07
-0.0023301787
1.8203377e-07
-1.8337394e-07
1.281153e-07
-0.0023302885
9.1124572e-08
-1.1105493e-07
2.163374e-07
-0.0027688762
8.4150596e-08
-1.0834109e-07
2.9928161e-07
-0.0031367772
8.2965101e-08
-1.0996735e-07
3.7905233e-07
-0.0035150406
8.5794079e-08
-1.15372e-07
-0.056741048
1.4740371e-06
-9.3721549e-07
4.0391779e-07
-3.0439478e-07
-0.056740676
-6.9954523e-07
-1.3488409e-07
7.6729272e-07
-2.5005801e-07
-0.0035150127
-5.0402585e-08
-3.1291961e-08
-1.9201508e-07
-0.0031367596
-4.2258998e-08
-3.2721122e-08
-1.191404e-07
-0.0027688796
-2.9938387e-08
-3.8198208e-08
-0.0023303486
-9.2569825e-09
-4.9770392e-08
1.1722605e-07
-0.0023303932
-1.0438324e-07
3.248491e-08
1.7605851e-07
-0.0027688534
-1.3850771e-07
5.3729657e-08
2.1183582e-07
-0.0031367005
-1.6136587e-07
6.6682927e-08
2.467766e-07
-0.0035149428
-1.8014981e-07
7.5316636e-08
-0.056739563
-2.7678561e-06
7.5682616e-07
1.1444129e-06
-1.9760931e-07
-0.056737795
-4.0539803e-06
1.202349e-06
1.2811865e-06
-1.8284921e-07
-0.0035148227
-2.6074692e-07
1.2596027e-07
-1.5603663e-07
-0.0031366055
-2.3543942e-07
1.1369006e-07
-1.1345244e-07
-0.002768787
-2.0599117e-07
9.7323461e-08
-0.0023304145
-1.6412827e-07
7.1954343e-08
1.0990401e-07
-0.0023304296
-1.547331e-07
5.9969615e-08
1.4400798e-07
-0.0027687092
-1.9366308e-07
8.1665469e-08
1.4985757e-07
-0.0031364854
-2.2147606e-07
9.5525045e-08
1.4646982e-07
-0.0035146791
-2.4586761e-07
1.0563276e-07
-0.056735691
-3.8677366e-06
9.9449635e-07
9.1598144e-07
-9.6105635e-08
-0.056733688
-1.9175723e-06
2.8705004e-08
-1.8162074e-08
-1.1864396e-07
-0.0035145397
-1.2145592e-07
4.5001056e-09
-1.3039033e-07
-0.0031363693
-1.0761728e-07
3.2222837e-09
-1.1029933e-07
-0.0027686369
-9.1715461e-08
-8.0090514e-10
-0.0023304614
-6.8784053e-08
-9.7729714e-09
1.0658062e-07
-0.0023305294
9.1832882e-08
-1.3066266e-07
1.1695676e-07
-0.0027686001
9.6395234e-08
-1.4372613e-07
9.2162083e-08
-0.0031362903
1.011518e-07
-1.5555915e-07
5.1212723e-08
-0.0035144367
1.0691623e-07
-1.6897766e-07
-0.056732217
1.6488094e-06
-1.5937273e-06
-1.4757349e-06
-4.2655101e-08
-0.056731486
6.0893508e-06
-3.5275333e-06
-3.2497424e-06
-9.1909457e-08
-0.0035144024
3.9538187e-07
-3.8055516e-07
-1.2409321e-07
-0.0031362738
3.6537309e-07
-3.4983388e-07
-1.1719723e-07
-0.0027686225
3.3464144e-07
-3.1951342e-07
-0.0023306604
2.954292e-07
-2.8166674e-07
1.1552535e-07
-0.002330847
4.8984456e-07
-4.192555e-07
1.1623697e-07
-0.0027687028
5.5865582e-07
-4.7929949e-07
7.3406146e-08
-0.0031363179
6.1218063e-07
-5.2537495e-07
1.1057406e-08
-0.0035144337
6.6430911e-07
-5.7074939e-07
-0.056731587
1.0172392e-05
-5.2270781e-06
-4.8335887e-06
-1.0378763e-08
-0.056732236
1.2598634e-05
-6.1356937e-06
-5.8044146e-06
-7.9433817e-08
-0.0035145114
8.2181075e-07
-6.7524042e-07
-1.2680202e-07
-0.0031364051
7.5659254e-07
-6.2221984e-07
-1.2571019e-07
-0.0027688262
6.8954262e-07
-5.6761868e-07
-0.0023310797
6.0261489e-07
-4.9563527e-07
1.4170632e-07
-0.0023313572
6.0740304e-07
-4.7219627e-07
1.5394864e-07
-0.0027689934
6.9680978e-07
-5.4213553e-07
1.1482292e-07
-0.0031365362
7.651762e-07
-5.9515381e-07
5.240711e-08
-0.0035146344
8.3131606e-07
-6.4596933e-07
-0.056733098
1.2725853e-05
-5.8751111e-06
-5.9361764e-06
-1.6273132e-07
-0.05673355
1.0577627e-05
-4.731998e-06
-5.2312026e-06
-2.0132978e-07
-0.0035147549
6.9154186e-07
-5.3268312e-07
-2.1508407e-07
-0.0031366668
6.3684498e-07
-4.9276032e-07
-1.7656987e-07
-0.0027691617
5.8002026e-07
-4.5080298e-07
-0.0023316445
5.0553262e-07
-3.9476194e-07
2.207994e-07
-0.0023319472
3.1986625e-07
-2.3893913e-07
2.9814046e-07
-0.0027693276
3.6146685e-07
-2.7328084e-07
3.2086301e-07
-0.00313679
3.9837113e-07
-2.981911e-07
3.163409e-07
-0.003514865
4.3563258e-07
-3.2099179e-07
-0.056733256
6.7564151e-06
-2.7985112e-06
-3.9355597e-06
-3.717935e-07
-0.056732043
2.1416966e-06
-7.1582604e-07
-2.2678372e-06
-3.745789e-07
-0.0035148985
1.2850438e-07
-9.236261e-08
-3.5040928e-07
-0.0031368419
1.1492283e-07
-8.7242084e-08
-2.5619711e-07
-0.002769441
1.0067774e-07
-8.1798843e-08
-0.0023322155
8.6432153e-08
-7.4297109e-08
1.5394365e-07
-0.0023323413
-8.783512e-08
5.9106811e-08
1.664514e-07
-0.0027694381
-8.9109808e-08
7.3453054e-08
1.2035568e-07
-0.0031367863
-9.367688e-08
8.3937579e-08
4.1697514e-08
-0.0035148119
-1.0174942e-07
9.3763289e-08
-0.056730608
-1.599641e-06
9.7148288e-07
-7.6476517e-07
-1.6737632e-07
-3.7889635e-06
2.0923931e-06
-5.0213225e-07
-2.1098671e-07
-2.5369692e-07
2.2668407e-07
-2.3804489e-07
-2.3466564e-07
2.0792779e-07
-2.0558227e-07
-2.1932207e-07
1.8655441e-07
-2.0436175e-07
1.5507222e-07
5.5357968e-07
0.082867751
-2.0825003e-06
-3.0460178e-06
3.2800744e-07
0.0036338961
-1.5678429e-07
1.3054895e-07
0.0031818581
-1.4338915e-07
-9.2110064e-09
0.002758315
-1.2758539e-07
0.0022810072
-1.0335883e-07
-8.3551325e-08
0.0022808916
1.1071427e-07
-2.9618053e-07
0.002758336
1.0230035e-07
-5.6810394e-07
0.0031819365
9.9673671e-08
-8.8485605e-07
0.0036340109
1.001642e-07
0.082866887
7.523544e-07
-2.3725657e-06
3.0311127e-07
0.08286734
3.9383827e-06
-2.5532738e-06
1.1602714e-07
0.0036340122
3.1423093e-07
-3.9797363e-08
0.0031819137
2.9350048e-07
-1.1738194e-07
0.0027582443
2.6983984e-07
0.002280627
2.3368377e-07
2.6875131e-07
0.0022802767
4.0039419e-07
3.6196621e-07
0.0027580457
4.6643077e-07
3.9176655e-07
0.0031817662
5.1574032e-07
3.982712e-07
0.0036338788
5.6246738e-07
0.082869506
7.6793657e-06
-2.6906918e-06
-4.6141935e-07
0.082871501
1.1105098e-05
-2.0610272e-06
-4.2674241e-07
0.0036337269
8.087484e-07
-3.7073082e-07
0.0031816064
7.4054144e-07
-2.5824504e-07
0.0027578443
6.6880294e-07
0.0022799506
5.7343251e-07
2.4492344e-07
0.0022796524
6.604811e-07
3.5385507e-07
0.0027576615
7.706027e-07
4.0672272e-07
0.003181464
8.5465792e-07
4.3630515e-07
0.0036335934
9.351921e-07
0.082873229
1.2937627e-05
-1.5041789e-06
-4.5545379e-07
0.082875032
1.2353873e-05
-1.1031091e-06
-4.1817971e-07
0.0036334914
8.8644572e-07
-3.5775117e-07
0.0031813509
8.0916353e-07
-2.459202e-07
0.0027575102
7.2895413e-07
0.0022793848
6.2428073e-07
2.4382751e-07
0.0022791682
4.6255112e-07
3.6870705e-07
0.002757404
5.3988376e-07
4.463389e-07
0.0031812852
6.0025112e-07
5.0543573e-07
0.0036334375
6.5909237e-07
0.082877148
9.3283539e-06
-7.6658386e-07
-4.7421615e-07
0.082879431
4.7074593e-06
-4.2650066e-07
-4.1689801e-07
0.00363346
3.1546171e-07
-3.3850148e-07
0.0031812865
2.8559575e-07
-2.216938e-07
0.0027573655
2.5613912e-07
0.0022790218
2.2011509e-07
1.728533e-07
0.0022789422
-1.5404209e-09
2.4825713e-07
0.0027573935
-7.0589563e-09
2.8571316e-07
0.0031813599
-9.7096763e-09
3.0932508e-07
0.0036335545
-1.1237626e-08
0.082881577
-1.1819118e-08
-1.7613348e-07
-1.8856539e-07
0.082883604
-3.7426927e-06
-1.415311e-08
-1.8805305e-07
0.0036336963
-2.6376649e-07
-1.7389164e-07
0.0031814754
-2.3737857e-07
-1.3184006e-07
0.0027574676
-2.0792952e-07
0.0022789078
-1.6627613e-07
1.2729739e-07
0.0022788884
-2.6257308e-07
1.7435446e-07
0.002757547
-3.2017557e-07
1.9272889e-07
0.0031815991
-3.6355696e-07
2.0504331e-07
0.0036338415
-4.0337804e-07
0.08288554
-5.7954987e-06
1.9747565e-07
-2.9182496e-07
0.082887118
-5.980844e-06
6.3991731e-07
-2.5189044e-07
0.0036339674
-4.2664057e-07
-2.0264026e-07
0.003181701
-3.8662265e-07
-1.3448982e-07
0.0027576144
-3.4153291e-07
0.0022788695
-2.7981112e-07
1.3825181e-07
0.0022788261
-1.9926181e-07
2.1807784e-07
0.0027576467
-2.5066153e-07
2.8099112e-07
0.0031817637
-2.8690927e-07
3.405533e-07
0.003634046
-3.1827236e-07
0.082887999
-4.5154909e-06
1.2071313e-06
-3.9028262e-07
0.082888004
-2.2151694e-06
1.9013066e-06
-3.0856607e-07
0.0036340599
-1.4601327e-07
-2.2784614e-07
0.0031817691
-1.2838317e-07
-1.3715487e-07
0.0027576323
-1.0615263e-07
0.002278753
-7.3228715e-08
1.4004073e-07
0.0022786487
5.3579074e-08
2.4556969e-07
0.0027575707
3.9541006e-08
3.4912075e-07
0.0031817163
3.1747086e-08
4.5541022e-07
0.0036340114
2.8041009e-08
0.082887045
1.3134299e-07
2.7574034e-06
-5.5876038e-07
0.082885116
2.1370218e-06
3.779735e-06
-4.154472e-07
0.003633899
1.7709484e-07
-2.8345665e-07
0.0031816109
1.6920182e-07
-1.5200539e-07
0.0027574618
1.6474569e-07
0.0022785156
1.6309808e-07
1.7587731e-07
0.0022783478
2.5555232e-07
3.4125546e-07
0.0027573062
2.6942508e-07
5.1371298e-07
0.003181451
2.8327577e-07
7.0214451e-07
0.0036337263
3.0021366e-07
0.082882112
3.7680371e-06
5.0875136e-06
-8.8775372e-07
0.082877817
5.1568521e-06
6.7753632e-06
-6.4111431e-07
0.0036334878
4.0817736e-07
-4.1515833e-07
0.0031812304
3.8407173e-07
-2.0972936e-07
0.0027571041
3.6272312e-07
0.0022781411
3.3938162e-07
2.4946037e-07
0.0022778948
4.2522462e-07
5.1415571e-07
0.0027568423
4.5644323e-07
8.0224333e-07
0.0031809474
4.8415224e-07
1.1211075e-06
0.0036331768
5.1467132e-07
0.082871928
6.4811956e-06
8.9743393e-06
-1.4023594e-06
0.082863577
7.9724495e-06
1.2238488e-05
-9.9802121e-07
0.0036327839
6.3646049e-07
-6.3326602e-07
0.0031805901
5.9901284e-07
-3.0489712e-07
0.0027565187
5.6457253e-07
0.0022775941
5.2537648e-07
3.6719384e-07
0.0022772342
6.467767e-07
7.7573675e-07
0.0027561172
6.9595382e-07
1.2338305e-06
0.0031801427
7.3861227e-07
1.7415738e-06
0.0036322924
7.84349e-07
0.082850626
9.7780873e-06
1.7909296e-05
-2.1737533e-06
0.082827898
1.1986334e-05
2.9265355e-05
-1.5327181e-06
0.0036316786
9.6516724e-07
-9.5894335e-07
0.0031795877
9.091846e-07
-4.5053666e-07
0.0027556219
8.5672644e-07
0.0022767967
7.9586634e-07
5.4712926e-07
0.0022762715
9.7566034e-07
1.1780553e-06
0.0027550153
1.0505605e-06
1.8870643e-06
0.0031789126
1.1147625e-06
2.6755398e-06
0.0036309379
1.1825262e-06
0.08278394
1.4608463e-05
5.2917777e-05
-3.4009258e-06
0.082696999
1.7494027e-05
9.9945327e-05
-2.3949421e-06
0.0036300205
1.4311409e-06
-1.4897757e-06
0.0031780709
1.3515214e-06
-6.8662985e-07
0.0027542587
1.2762177e-06
0.002275625
1.1894948e-06
8.6805559e-07
0.0022748064
1.3959434e-06
1.8824163e-06
0.0027533169
1.4945006e-06
3.0196462e-06
0.0031770391
1.5788067e-06
4.2843178e-06
0.003628907
1.6675378e-06
0.082533183
2.0161373e-05
0.00018304698
-7.0151551e-06
0.082255407
2.2034612e-05
0.00030812477
-4.9441648e-06
0.0036271375
1.8797853e-06
-3.0678261e-06
0.0031753887
1.792065e-06
-1.4080134e-06
0.00275183
1.7128126e-06
0.0022735488
1.6326227e-06
2.9088487e-06
0.0022708361
1.6832936e-06
6.2864254e-06
0.0027487395
1.7645132e-06
1.0118152e-05
0.0031719442
1.8335424e-06
1.4481284e-05
0.0036232873
1.9107659e-06
0.081848446
2.2087562e-05
0.00045628543
-4.1378663e-05
0.081365738
2.4537333e-05
0.00058137825
-2.8774029e-05
0.0036122695
2.341015e-06
-1.7758888e-05
0.0031623037
2.284212e-06
-8.1755784e-06
0.0027403768
2.2418279e-06
0.0022638034
2.2035127e-06
1.9482194e-05
0.0022461978
1.8574557e-06
4.2757781e-05
0.0027195314
2.0763106e-06
6.9646368e-05
0.0031382249
2.163928e-06
0.00010073657
0.0035843706
2.2245271e-06
0.080953485
2.9541445e-05
0.00060668495
-0.00020190761
0.080829962
9.2173599e-05
0.00056032282
-0.0001391889
0.0035348879
6.8478771e-06
-8.5276249e-05
0.0030966011
6.3942857e-06
-3.8967285e-05
0.0026848666
5.7678094e-06
0.0022185523
4.7892259e-06
5.4609943e-05
0.0021767721
1.4708268e-06
0.00011760716
0.0026372839
2.9497308e-06
0.00019027123
0.003041331
4.0765241e-06
0.00027472847
0.0034695308
5.1548367e-06
0.080875857
0.00013062862
0.00060882519
-0.0010540382
0.00041068038
0.0017777185
-0.00076857637
4.5446752e-05
-0.00050277659
4.4971954e-05
-0.000250224
4.1265054e-05
3.0830827e-05
5.3935378e-05
-0.0022114583
-6.5251988e-06
3.5845086e-06
0.00011735821
-0.0026766894
-3.4681641e-06
-4.1283827e-07
0.00019095965
-0.0030872634
-1.3663306e-06
-3.3501762e-06
0.00027681842
-0.0035242789
4.0678057e-07
-6.1230198e-06
-0.080640645
0.00014422628
-0.00033386318
0.00054420972
-0.0001957225
-0.080838401
4.1708079e-05
-0.0001712565
0.00052302992
-0.00013459486
-0.0035782173
-1.9708076e-07
-6.9901052e-06
-8.2494488e-05
-0.0031327931
-6.1328508e-07
-5.9549865e-06
-3.7910272e-05
-0.0027148085
-1.3311751e-06
-5.1283694e-06
-0.0022422846
-2.5852542e-06
-4.4987652e-06
1.8321313e-05
-0.0022617801
-4.7540676e-06
5.9284711e-06
4.0291661e-05
-0.0027379612
-4.8931541e-06
6.0761939e-06
6.5898098e-05
-0.0031595232
-5.0332557e-06
6.1579196e-06
9.5779948e-05
-0.003609092
-5.1868649e-06
6.1803226e-06
-0.081296568
-4.3103293e-05
2.9944908e-05
0.00056710774
-3.8107293e-05
-0.081803414
-4.8214549e-05
4.0184364e-05
0.00055298516
-2.6318635e-05
-0.0036212881
-4.1342953e-06
4.5414162e-06
-1.613432e-05