/*--------------------------------*- C++ -*----------------------------------*\
  =========                 |
  \\      /  F ield         | OpenFOAM: The Open Source CFD Toolbox
   \\    /   O peration     | Website:  https://openfoam.org
    \\  /    A nd           | Version:  7
     \\/     M anipulation  |
\*---------------------------------------------------------------------------*/
FoamFile
{
    version     2.0;
    format      ascii;
    class       volScalarField;
    location    "480";
    object      nut;
}
// * * * * * * * * * * * * * * * * * * * * * * * * * * * * * * * * * * * * * //

dimensions      [0 2 -1 0 0 0 0];

internalField   nonuniform List<scalar> 
25278
(
6.7430766
6.6316957
6.6731335
6.6731204
6.5435468
6.6316884
6.7172927
6.7430595
6.7173292
6.6134098
6.6790724
6.7158949
6.6786889
6.6408654
5.9009225
6.6730324
6.631619
6.0216413
5.6088678
6.0861899
6.4019964
6.498559
6.5848135
6.6305985
6.4753233
6.6305887
6.584822
6.4070163
6.3251938
6.3632732
6.2411181
6.2048375
5.8525882
6.0874307
6.1135496
6.0574811
6.0867555
5.9938647
5.9672689
5.7170165
5.8648691
5.8925951
5.7578363
5.7898609
6.033619
6.2975951
6.5525487
6.4599015
6.1961482
6.1326924
6.0552783
6.00768
5.4200347
5.6101697
5.8785184
5.9095675
5.8249446
5.7935969
5.4399867
5.5775429
5.6186871
5.4916879
5.3887649
5.7655436
5.7282278
5.6898713
5.7281892
5.3302975
5.2674337
5.3314537
4.8438422
5.0272626
5.2348253
5.4416737
5.6497469
5.8051212
6.1138331
6.3634038
6.498699
6.434132
6.3842686
5.904574
6.0239502
5.6227707
6.3143134
6.2597914
5.4311206
4.6333552
5.1245782
5.6087221
5.6322332
5.1266659
5.1142994
4.2025904
4.2705691
5.1366591
5.2369098
5.705502
5.7078855
5.2272838
5.2278265
4.3554725
4.4395076
5.2352502
4.726111
4.7454641
4.6409812
3.3008915
3.2458071
2.4629572
4.1966643
4.1641625
2.4308331
2.412294
3.3718239
3.4480437
2.3941569
4.2214171
4.2769824
4.2726454
5.6209455
6.3141802
6.5434684
5.1004927
4.1831629
3.2324066
2.4556269
4.1922413
5.4287248
6.2595827
6.3840767
6.4340225
6.0226588
5.902107
5.1164317
4.6257414
4.6331714
4.1589344
2.4219778
3.2854787
3.3551552
2.4014532
2.3809743
4.2154063
4.7181609
4.7377671
5.2301774
5.1283587
4.2508713
5.1127061
5.8957824
5.6030142
5.6272002
5.7015448
6.0184327
5.7045786
5.2291409
4.4217972
3.4295615
1.9945336
0.85243288
0.85792347
2.0133304
3.4001849
4.6950595
4.715953
4.2231217
4.1626441
2.2848584
2.3159546
3.3276784
1.9723101
0.88146104
0.80428083
0.28328781
0.311103
0.93471307
0.92968519
0.32145143
0.29357992
0.80007732
0.87460728
1.9561045
3.2875555
4.3358565
5.2159912
5.2161097
4.6669095
3.3572014
2.203129
2.2426387
4.1643076
5.5927644
4.6872766
4.1003304
4.2443835
2.1793388
0.7308365
0.26978814
0.25958966
0.73221685
2.2707577
4.3041389
4.8087232
5.3327093
5.7758069
6.0879567
6.3255207
6.2061595
6.2416363
6.0586415
5.8559111
5.8668577
5.8940215
6.0873747
5.995275
5.9694244
5.7211322
5.7608288
5.7918872
5.9360726
6.1785393
6.4113264
6.5525619
6.4403084
6.2081548
6.1661668
6.3261055
6.2977689
6.1223174
6.1392808
5.9567147
5.8226748
6.0494544
6.034485
5.9533604
6.1966872
6.4599519
6.4025401
6.0891892
6.1340008
5.8821767
5.6199505
5.5852401
5.624556
5.9118691
5.8287394
5.798969
5.4520343
5.501075
5.4012747
5.7703996
6.0571702
6.0117482
5.4358926
5.7350346
5.3474352
5.2840747
5.6966417
5.7329254
5.3429882
5.3905165
5.4447755
5.5387477
5.6573748
5.6928854
5.9703855
5.8923349
5.8756771
5.8202363
6.1277602
6.1582931
6.227597
6.005187
6.0830251
6.0979929
6.1841694
6.009174
5.9912335
5.8533955
5.8797531
5.7555456
6.0215607
5.9471804
5.9319698
5.616624
5.7260295
5.552002
5.6289832
5.7121564
5.7875045
5.9216344
6.208138
6.4402875
6.4112468
6.1783557
6.1219214
6.1391471
6.0489022
5.8214901
5.956251
5.9351004
5.7226874
5.8726015
5.7512135
5.6766165
5.6545365
5.6357017
5.4834935
5.6824366
5.3939376
5.3672947
5.0812317
5.1423975
4.7462432
5.1111738
5.396082
5.6845672
5.6523036
5.3395464
5.370122
5.0915282
5.4485217
5.4889497
5.1506517
4.7548949
4.6907325
5.0692395
4.5523485
4.6802624
4.1967376
4.2908248
4.5967793
4.7915048
4.9928702
5.1656702
5.3403658
5.4926736
5.5105228
5.4046072
5.5644699
5.5462466
5.377509
5.20531
5.2292344
5.3614905
5.4473973
5.4696687
5.3843451
5.5352146
5.54912
5.6898013
5.6035177
5.590446
5.4278586
5.4472041
5.2762086
5.4026018
5.2321144
5.2153987
5.1865485
5.0400041
5.0062577
4.8060971
4.8365305
5.0176297
5.1580757
5.4490413
5.7238164
5.7517973
5.4707088
5.3874627
5.5376961
5.6782901
5.6567594
5.6385204
5.4964736
5.5133884
5.409676
5.5681714
5.5507727
5.3836654
5.2133205
5.3447514
5.3651355
5.1912293
5.1707806
5.0164167
5.0485469
5.2359682
5.2594948
5.4319103
5.5934211
5.6056652
5.6910087
5.5509793
5.4505132
5.280698
5.4050086
5.2351836
5.2190804
5.0745113
5.0976718
5.1210808
5.2638456
5.521896
5.5391191
5.8110081
5.7416128
5.722979
5.5852613
5.57453
5.4705187
5.4868786
5.6390744
5.6607427
5.6704317
5.7523572
5.6169457
5.6059749
5.5052116
5.5208309
5.3572277
5.4757741
5.4609138
5.4427573
5.4281932
5.3016877
5.3204077
5.1412304
5.2757883
5.2993066
5.3116534
5.1811097
5.1619358
5.3391987
5.2258023
5.4100746
5.5855779
5.563967
5.3908276
5.3724446
5.351565
5.5285707
5.5142188
5.4881522
5.4681386
5.2922127
5.2489266
4.8383242
4.8053933
4.8626193
4.5677713
5.1044536
5.0510692
4.4875314
3.8277541
4.2870337
3.5548744
3.6789841
3.7672654
4.3513458
3.904479
3.1471539
3.0378579
2.3162311
3.3317281
4.1940631
4.8773347
4.3612999
4.769683
4.8367778
4.939962
4.2787882
4.0697972
3.9737213
2.9335961
2.3966766
1.6051122
1.6016044
2.3664166
3.4011953
2.9736862
3.4581489
3.636809
3.8471969
4.0575296
4.2651523
4.455277
4.6433246
4.8171092
4.9978738
5.0221083
4.8184508
4.794954
4.5889662
4.6289238
4.8461982
4.8753697
5.0514918
5.1964446
5.0478183
5.0678752
4.8940638
5.0915925
5.0671014
5.2535317
5.1286966
5.3244083
5.5099713
5.6903406
5.9693619
5.9515691
5.8732705
5.890759
5.5747161
5.5318842
5.6531333
5.4616527
5.2803135
5.0838051
4.5253951
4.8411027
4.7808575
4.4410498
4.1260082
4.213704
4.910555
4.8062191
4.7344849
3.9011766
3.9995106
2.8398446
3.2811885
3.8331784
4.3201758
4.2537582
3.5020125
3.7559886
2.9563509
3.6504871
3.7378102
3.0606183
2.2100262
2.1784771
3.2184118
2.8097832
1.4614804
1.4382088
1.963892
2.6646595
3.3375766
3.8803897
4.352399
4.7194627
5.0414997
5.3813281
5.7824955
6.1269339
6.1580902
6.2274798
6.3260433
6.1660551
6.1841809
6.0978733
6.0826692
5.8527754
5.9910617
6.0091271
5.8794953
5.7549412
6.0213559
6.0045628
5.931132
5.946756
5.6474894
5.6138263
5.724624
5.5494529
5.6272338
5.711178
5.7870715
5.810932
5.7411496
5.7223128
5.6379058
5.4851232
5.5841774
5.5731185
5.4678938
5.2982944
5.4264003
5.5212414
5.5387496
5.4600377
5.605343
5.6165624
5.7520964
5.6699089
5.659778
5.5039587
5.5200395
5.355973
5.4751531
5.310776
5.2978577
5.2739391
5.4412375
5.3178179
5.1377411
5.1161443
5.26129
5.0961531
5.2441065
5.2744925
5.1366922
5.1124386
4.9446582
4.9206358
4.7120821
4.905419
4.8703493
4.8528526
4.8149511
4.6192687
4.5777734
4.3511763
4.3898367
4.6276566
4.3967366
4.358641
4.0942933
4.1455212
4.1848955
4.4263937
4.6526608
4.8665919
4.6891464
4.9172819
4.8867484
5.1008968
5.2988856
5.4827139
5.3944193
5.3718289
5.1613204
5.2722732
5.0770117
4.9422469
4.9730767
5.1948451
5.2232739
5.425483
5.441182
5.525166
5.3464824
5.2478966
5.1522764
5.3690062
5.3505667
5.3176651
5.2915966
5.2104597
5.2379094
4.9944253
5.0924944
5.0581811
4.9525175
4.6762341
4.8107615
4.8433006
4.715157
4.3982331
4.566216
4.7297185
4.685063
4.8534563
4.6234389
4.6543215
4.4640957
4.4223187
4.1236206
4.366352
4.4069828
4.1791538
4.2228026
4.5038077
4.7647817
5.0039359
5.03319
5.153959
4.9459232
4.7981449
4.6466058
4.9126863
4.8789702
5.1240535
5.0298449
5.2751291
5.2945609
5.061092
4.7942263
4.7554061
4.4449004
4.6068796
4.3058484
4.2584497
4.2152775
4.5206371
4.3402851
4.1708669
4.5501508
4.8605402
5.1423765
5.4355855
5.8168941
5.8370756
5.8031362
5.4337634
5.48435
5.5284818
5.8785894
5.8961948
5.8647136
5.8470034
5.4810468
5.5209962
5.5658169
5.3194063
5.3728339
5.4390834
5.5068432
5.5843388
5.5621553
5.4813967
5.4687293
5.2725923
5.3685171
5.3880453
5.2941571
5.3162977
5.4080021
5.4259683
5.5961366
5.5180592
5.3357975
5.2508961
5.4523271
5.3864511
5.1725237
5.1479407
5.2288163
5.2043211
5.4128165
5.3978356
5.3273927
5.343009
5.1200603
5.0923268
5.1797191
4.9447976
5.0606454
5.1782162
5.2008742
5.0865351
4.859975
4.998482
4.9729387
4.8296731
4.6842576
4.7202543
4.9747137
4.8667466
4.8312048
4.53585
4.4905582
4.3344599
4.6811478
4.9778488
5.2354729
5.2132824
5.1738131
5.1145675
5.0814851
4.7770949
4.8262687
4.9034153
4.9426546
4.86887
5.1575292
5.1809667
4.9070493
4.8553497
5.1463068
5.1211694
5.0766012
5.0555824
5.0197042
4.6889618
4.7411421
4.7693095
4.8142835
4.7873377
5.1012197
5.1267417
4.8290877
4.4655099
4.5043486
4.5807943
4.5322703
4.6371173
4.5915599
4.4827407
4.4366135
4.0040812
4.0723093
4.2288196
4.2814623
4.1291948
4.1873027
4.0692718
4.0072252
4.4522116
4.3997038
4.3580831
4.3091134
3.8129032
3.8834337
3.9474201
3.3891483
3.5791667
3.8059465
4.0387505
3.9860159
3.5730895
3.8717769
3.9261107
3.6429792
3.7000049
4.0921977
4.1457001
4.3509571
4.5417291
4.7210083
4.4801145
4.6819833
4.4593329
4.6891229
4.8729505
5.0708069
4.90099
4.6895591
4.6611246
4.8555747
4.6638065
4.43252
4.4646675
4.2212355
4.2559094
4.4909294
4.7205103
4.9074706
5.0984595
5.1145161
4.9211177
4.7427077
4.9488503
4.9262305
4.7176822
4.4955861
4.5239517
4.741986
4.9193889
4.7378987
4.7643114
4.968369
5.1594716
5.3373119
5.2225979
5.2431014
5.1343475
5.1110347
4.8882425
5.0227984
5.0458321
5.1792549
4.9900706
5.1522403
4.9628281
4.9500628
4.7701392
4.9514836
5.1380239
5.1532399
4.9636178
4.7901363
4.9922467
4.9714992
4.7676842
4.5514631
4.5765562
4.78896
4.5743721
4.7874297
4.6045191
4.8327938
4.8071559
4.7800094
4.751465
4.5780518
4.6125404
4.3449251
4.5455919
4.5136449
4.3053448
4.2646066
4.0274302
3.9766805
3.6295786
3.9259835
4.186392
4.4441281
4.1446752
4.1065198
3.827957
3.8784333
3.571024
3.8717827
3.8234808
3.5069207
3.1673357
3.5257474
3.5747838
3.2234205
3.1652402
2.742415
2.810887
3.2233941
3.277767
3.6200142
3.91594
3.9578374
4.2250364
3.9716461
3.6681061
3.3323334
3.6830821
3.3415549
3.7584945
3.8196048
4.1990258
4.395016
4.4378839
4.2524896
4.5794377
4.6215213
4.9002065
5.0033388
5.0300514
4.9314903
4.6607874
4.7865702
4.9148132
4.676083
4.6451137
4.3822644
4.5757543
4.3307187
4.5481632
4.5199512
4.2884165
4.3193931
4.3483132
4.1073597
4.3619214
4.1412537
4.4174544
4.2217802
4.5174571
4.4787517
4.7541434
4.3046185
4.3544904
4.0079931
3.9455638
4.175209
4.1269807
4.0772582
3.7377146
4.0161238
4.262012
4.2970316
4.0595264
3.7622193
4.0360704
3.9975597
3.715241
3.3883736
3.4458519
3.7925413
3.4753944
3.8820321
3.6012891
4.0547901
4.4393966
4.764923
5.0442011
5.2881481
5.2699206
5.2189058
5.2383366
4.9803249
4.9454179
5.0126546
4.7237469
4.6287015
4.6751943
4.3075127
4.2467393
4.3867748
3.989501
3.9263869
3.8655729
3.6410775
3.7067034
3.1267907
3.4539423
3.3890866
3.3288124
3.2668053
3.7529003
3.5234152
2.9348371
3.0050045
3.0618362
2.7688695
3.451202
3.5183786
3.4160314
4.0073925
3.9438907
4.4116663
4.4195427
4.7910746
5.1030158
5.4351279
5.8034813
6.1271215
6.4598993
6.4021028
6.0231516
5.6139256
5.2386334
5.7073677
5.2362366
4.7343572
4.238974
4.1815197
4.7150252
3.439505
2.3286813
2.3521321
3.3627867
4.3673668
4.450846
5.2349955
5.7095974
6.0238619
5.2366539
4.7230169
3.45114
2.0449779
0.83347083
0.9090243
2.0007396
0.95150653
0.33302278
0.3051109
0.87436895
2.389899
2.411356
3.3772708
4.7438279
5.6208608
4.2734704
4.683323
3.276025
1.950426
0.93834311
0.32593339
0.29760716
0.86007221
1.987269
0.77834472
0.85443563
2.2223785
2.1786193
3.3444795
4.661839
5.5911799
4.1564901
4.0918445
4.2365524
2.1504651
0.70789159
0.27333712
0.28150867
0.76247899
2.3241495
4.3238106
5.4242767
6.0086403
6.0555997
6.1334301
6.0874235
5.6156956
5.7965412
5.7309513
5.6908452
5.7288678
5.7676401
5.3944277
5.3325831
5.2703144
5.3381875
5.4467995
5.4973315
5.8269155
5.9112074
5.880595
5.5827356
5.6228029
5.6563835
5.9527617
6.1964029
6.2275509
6.1581319
5.8473523
5.8648474
5.8965547
5.8791797
5.8379744
5.8183595
5.7829017
5.3829803
5.4400661
5.4875592
5.5305894
5.4819484
5.5215521
5.5670727
5.6485945
5.9470413
5.931647
5.8916568
5.8746812
5.5362824
5.577669
5.69228
5.9700928
6.0050364
6.0215661
5.7555355
5.7258477
5.6156846
5.332651
5.2757072
5.2242376
5.1896336
5.1684451
5.1671022
5.1854882
5.2066886
5.1886628
4.9100563
4.9335515
4.8961126
4.8712242
4.5188403
4.5559096
4.6068063
4.5715043
4.1438297
4.2002411
4.1334529
4.0739547
3.4912748
3.592378
3.7772103
3.8528254
3.2861556
3.2007025
3.5243406
3.0028993
3.4058403
2.985143
2.9219795
2.864479
3.2806352
2.8716941
2.815704
2.7714033
2.3429404
2.3771441
1.7735919
2.319399
2.278952
1.7406832
1.2726428
1.2582154
1.97062
2.7193217
2.5581308
3.2871309
3.2374911
2.5032021
1.7373828
1.7273182
0.93698957
0.96206021
0.48674744
0.78294178
1.2926885
1.8719514
2.3800064
2.8325221
3.200553
3.5393538
3.8372221
4.1272972
4.3881064
4.4272839
4.672356
4.9011954
5.1119854
5.306792
5.2816083
5.174833
5.3811519
5.402058
5.2063466
5.2328411
5.3306051
5.1377357
5.1615403
4.95626
4.929465
4.7848597
5.0179885
4.9892561
4.9608701
5.0894596
4.8696506
4.7109741
4.7523137
4.6005977
4.866973
5.1084352
5.3278111
5.3036061
5.0765387
4.9769175
5.225736
5.2509561
5.0151729
5.0477652
5.1376764
5.3590282
5.4317143
5.446203
5.255632
5.0448368
4.8151216
4.673053
4.930175
5.163288
5.3757705
5.5789248
5.4905038
5.8390961
5.8051828
5.7856049
5.7855528
6.1276601
6.4599271
6.6316137
6.6730214
6.7429187
6.7172077
6.6409014
6.5847725
6.4986049
6.40249
6.0115468
6.0568992
5.6963061
5.4343388
5.2829576
5.3421096
5.7324218
5.7697141
5.7341462
5.3453856
5.3993037
5.4992462
5.8279705
6.1338635
6.0886913
5.6178689
5.7980374
5.4494142
5.5833941
5.8813161
5.9114602
5.6231189
5.6564054
5.5373034
5.4431948
5.3896774
5.4392263
5.4397132
5.4847139
5.53211
5.8798097
5.8967197
5.5677068
5.6487328
5.4420903
5.5088337
5.4842736
5.4726295
5.2786866
5.2988
5.3196025
5.3381102
5.4272249
5.5969159
5.5193455
5.4543938
5.2543687
5.2339871
5.2112327
5.4168122
5.4031503
5.1887508
5.1048146
5.3345366
5.303394
5.285953
5.2264475
5.1892716
5.1605009
4.8897617
4.9291574
4.8553484
5.1317586
5.1017834
4.8097843
4.4880387
4.5947006
4.7117719
4.837188
4.5581876
4.3929665
4.4462943
4.7474133
4.7842792
4.8994302
4.6374261
4.4886706
4.5295987
4.8187083
5.0759071
4.9969847
5.246239
5.1930968
5.1720543
4.8942604
4.9648369
4.6741791
4.6324283
4.2918704
4.2372013
4.0830767
4.1472534
4.5302957
4.5755776
4.6191252
4.7132499
4.3873116
4.3398258
4.1998748
4.2525562
4.139779
4.5444826
4.8777586
4.9286758
4.9637827
5.0284319
5.278636
5.2951134
5.348609
5.1297832
5.1553114
5.3768412
5.3892039
5.1776311
4.9405926
5.0360402
5.1380409
5.2451424
5.0491591
5.0275069
5.0049405
5.2050621
5.1840609
4.9812957
4.843974
5.0700953
5.0938297
4.8709957
4.8967015
5.1163042
5.0117511
4.9860349
4.9589682
4.7065178
4.7383632
4.6071714
4.8829798
4.8517293
4.5689392
4.2509033
4.4277726
4.5974509
4.7624202
4.7341915
4.7045064
4.4626867
4.4957
4.2941686
4.5644845
4.5302758
4.4936078
4.2150063
4.1620463
3.8688784
3.9172227
4.1640559
3.8851488
3.605291
3.5427426
3.2331839
3.5943911
3.933115
3.9852638
4.3051446
4.1067995
3.7325754
3.6649108
3.2722076
3.3305586
3.6423228
3.2899118
2.9212074
2.8497954
2.4306944
2.9192199
3.3912932
3.4548344
3.8979758
3.6921479
3.1638555
3.0892489
2.5283309
2.5761933
2.970494
2.4821505
1.9815995
1.9299369
1.4685142
2.1626708
2.8312269
2.8938776
3.5110368
4.0270462
4.4492051
4.799155
5.0942895
5.0618232
4.7529098
4.7198765
5.0386892
5.0714168
4.7682424
4.8109845
4.8403539
5.1360749
5.1586199
5.1375884
5.1143251
5.1139172
5.0705504
5.0378993
4.8343056
4.766902
4.3551186
3.9686053
4.0636572
4.2666606
4.9348452
4.8716843
4.1817492
3.310837
2.922229
2.3802317
1.5886127
1.5807682
2.9600393
3.3769643
2.3312117
2.2869881
3.0122064
3.8083567
4.4766065
5.0460483
4.8304513
5.2449875
5.2886455
5.0995645
4.556795
4.8549808
4.7965436
4.2726033
3.5350256
3.6568433
3.7454745
3.1181449
3.8840478
4.3373736
4.4431249
4.2495678
4.0382515
3.8253569
3.6149021
3.4408294
3.3402323
3.3466258
3.8881969
3.9628472
4.4049899
4.3577443
4.4030637
3.955426
4.0123035
4.0826342
4.4973423
4.4526167
4.5012876
4.8490479
4.8878667
4.9148742
5.1954065
5.228532
5.2458725
4.9946603
5.0565457
5.0849857
5.3242133
5.3385156
5.1099024
5.0536712
5.2927734
5.277883
5.0258303
4.7414865
4.8213659
4.9125226
4.6430979
4.7683947
4.7967621
4.9209101
4.6851626
4.8374963
4.8137993
4.7886909
4.5564904
4.5268557
4.3308829
4.3659638
4.628279
4.6574497
4.3990953
4.5843165
4.6105099
4.4300537
4.1568878
4.3685797
4.339403
4.3083228
4.2755291
4.2407041
4.2038825
3.928385
3.969054
3.6992493
4.0044267
3.9617702
4.2551822
4.0325562
4.3481688
4.3885919
4.0781096
3.8406726
4.2034468
4.1558231
3.7862661
3.3876469
3.6941829
3.7442731
3.3956596
3.34286
3.6527541
3.3306205
3.6328866
3.5846661
3.2578791
2.9367683
3.2791227
3.2229408
3.1114389
3.022635
2.0952809
2.2503218
2.3399949
1.6974692
2.3955746
2.3027649
1.6023422
0.89015097
1.3523237
1.3568707
0.53414222
0.6030841
0.31886625
0.28721981
0.90629129
0.46265115
0.93883031
1.4602971
1.4459684
0.7856468
0.91983308
0.35129447
0.6750762
0.60269309
0.31774878
0.17916949
0.19540935
0.48166107
0.18785744
0.17253954
0.17494966
0.1788097
0.18589907
0.20236723
0.33201234
0.62979302
1.5101146
2.8457992
3.9186725
4.7421105
4.8131217
4.9252621
4.8587652
4.1617171
4.2499853
4.0182857
2.8825625
3.3561495
3.2837543
2.2719042
2.321451
1.4986271
1.7776141
2.5346252
3.2584768
3.8254722
4.3168367
4.6930142
5.0221155
5.0572981
5.0830253
5.0480391
4.7314219
4.7806223
4.7448085
4.3653875
4.4196939
4.3720654
3.9148172
3.9823131
3.8967931
3.9579512
4.0213623
4.4722669
4.8325937
5.127972
5.1510735
5.1266158
4.8248463
4.8647137
4.9195626
5.1870256
5.1648563
5.1227244
5.0908908
5.1526575
5.1830788
4.9194816
4.8410261
4.7930143
4.877646
4.5779924
4.4634606
4.5089319
4.6180914
4.2717886
4.1158786
4.0478029
4.2144668
4.3788816
4.7008323
4.9686061
5.2200137
5.0970586
5.0417818
4.8282532
5.2451021
5.2891615
4.8587596
4.554992
4.4724039
4.8000544
4.2838886
3.8089962
3.5464186
3.0269482
3.1371829
3.8883465
4.3487979
3.7722779
3.6844766
4.2091174
4.6937625
5.0908535
5.4473068
5.7199444
5.9688094
6.2413683
6.4985115
6.552445
6.2976446
6.3259967
6.4401923
6.4752025
6.4111929
6.3632713
6.4069659
6.3253583
6.205491
5.8548275
6.0582834
6.1138482
6.0871746
5.9947866
5.7600448
5.8936868
5.8663286
5.6524826
5.8057858
5.6845842
5.487937
5.1502034
5.3968784
5.3712687
5.3392172
5.7770633
6.0878992
5.3400633
4.5622132
5.073944
5.1144777
4.7571223
4.3009552
4.7558349
4.6926438
5.0904881
5.3713469
5.3966533
5.6843334
5.6521484
5.447292
5.4875905
5.1492475
5.1704562
5.4492784
5.8728667
5.7238362
5.6381474
5.7913171
6.0342309
6.0492757
6.1392034
6.178425
6.1221037
5.9358199
5.9566379
5.8223422
5.8532289
6.0828732
6.0979038
6.1841143
6.2080539
6.1659876
5.9912076
6.0091071
5.8796155
5.6606112
5.5855362
5.5087017
5.4416897
5.3761225
5.3230601
5.2759732
5.244629
5.2258885
5.2249314
5.2417752
5.2723349
5.289027
5.3350804
5.1032853
5.0754106
5.0151131
5.0458338
5.0044244
5.2598544
5.2435012
4.9832339
4.9485436
4.9708542
4.6564506
4.7201947
4.804165
4.8409137
4.7625772
4.4264794
4.5389511
4.4902166
4.3676077
4.2679734
4.3347908
4.7033401
4.6728581
4.6231701
4.2148156
4.2857235
3.7679538
3.8561244
4.0125486
4.1848872
4.1203451
3.9318747
3.3822896
3.6819787
3.7650671
3.4870103
3.1945714
3.0771645
3.7623461
3.6739039
3.5753702
2.7995235
2.9777931
2.8950921
2.8261177
2.6541975
2.601208
3.3483082
3.3733204
3.3100367
3.446778
3.3907046
2.7471085
2.8102822
2.5943491
2.642497
2.7002175
3.4416796
3.5816956
4.1035537
4.5224001
4.4714495
4.0419608
4.1724395
4.557114
4.8822583
4.9572585
5.2212147
5.2422257
4.9906029
4.7038942
4.6037713
4.228989
4.3729697
4.322543
4.6617705
4.7770141
5.0425292
5.2824568
5.2462407
5.3249859
5.2998413
5.0716782
5.1044341
5.0083124
4.7381798
4.8617679
4.8306817
4.550584
4.5938044
4.4339762
4.478646
4.5216547
4.8130268
5.0722006
5.3005867
5.3742589
5.3566202
5.134613
5.1610582
5.2541825
5.4449906
5.4302321
5.3999734
5.3786118
5.4666523
5.4870825
5.3054828
5.2036994
5.1713839
5.2797505
5.0877321
4.9572114
4.9864403
5.1102075
4.8998549
4.74905
4.7066034
4.8678849
4.6421368
4.4511303
4.256006
4.0402678
3.8179812
3.5906327
3.6495342
3.8717617
3.4239635
3.1106432
3.0329635
3.3576934
2.8861111
2.469177
2.0703657
2.0952109
1.7754841
0.98018697
0.9975601
1.389726
1.3955133
1.4021194
2.13414
2.8688363
3.5117999
3.7131677
3.7790147
3.9899839
3.9307697
3.486599
3.1747486
3.2449814
2.936012
2.1816348
1.8106678
1.7435069
2.0141454
2.4670018
2.9324836
2.4123042
2.3626834
1.7896607
2.4177095
1.9896564
1.7324859
0.90173058
1.238642
1.216383
1.8105374
1.8380477
2.5276772
2.6035405
3.0825798
2.539197
3.0536101
3.1279121
3.5474824
3.8473444
4.1010842
3.8074612
4.0724796
3.8041468
4.0796062
4.0445097
4.007631
3.743794
4.045289
4.0844829
3.7868979
3.8282835
4.121494
3.8893074
4.2069618
4.5004894
4.4649301
4.1655229
4.1224155
3.8948682
3.9489768
4.2964575
4.340572
4.382047
4.5335659
4.2457799
4.0524004
4.0016069
3.6279978
3.5664517
3.8418376
3.7935021
3.4481957
3.5006132
3.1613
3.0966325
3.5051729
3.4454214
3.0352301
2.976983
2.535191
3.0310523
3.5145249
3.9541533
4.009619
3.576438
3.2908561
3.8132653
3.7516994
3.2244637
2.6303312
2.6918951
3.094847
2.5935347
2.063317
2.0181535
1.4852082
2.228456
2.9506698
3.572746
3.637162
3.0144984
2.819356
3.5215647
4.0703113
4.1306788
4.1973254
4.3053008
4.433465
4.7510519
4.7868817
4.4784701
4.3576298
4.7018771
4.6611511
4.5905604
4.6354684
4.9484232
5.214272
5.1952252
5.1755208
5.1753003
5.484189
5.8481252
5.8481831
5.8652276
5.5227374
5.2475283
5.2638643
5.0124303
4.9822269
4.9584751
5.2296742
5.246624
4.9899353
4.686796
4.7201404
4.7781545
4.8534186
4.5628275
4.6766923
4.7083926
4.8231509
4.9440217
5.0698275
5.2010047
5.3376018
5.5876296
5.9834899
6.2679791
6.4827973
6.5423231
6.6790565
6.7227704
6.7537204
6.7227848
6.608247
6.6663477
6.6133783
6.4827896
6.5105195
6.2970216
6.2679199
6.2148981
6.376942
6.4035728
6.2546832
6.2295842
6.0597827
6.0448051
5.9084838
6.1319674
6.1443539
5.9331776
5.9610837
6.0918508
6.1096388
6.2723282
6.1896959
6.175161
6.1015434
6.311324
6.5356341
6.5940146
6.3646107
6.4529078
6.5517881
6.5814986
6.3868375
6.3557597
6.3019824
6.3159369
6.1606795
6.1446803
6.0149543
6.2220694
6.2337046
6.0401778
6.0694764
6.1928325
6.3391888
6.4822426
6.3502378
6.2113557
6.272106
6.2622531
6.1896935
6.3960428
6.1970222
5.9537486
5.9241178
6.1616029
6.1494698
6.1168049
5.8684132
5.9863759
5.856941
5.9240946
6.0300436
6.2970258
6.5105368
6.4036337
6.3769426
6.2149197
6.2296764
6.1444481
6.1319473
5.9084663
6.0448413
6.0598004
5.9332687
5.961238
6.1752995
6.2547348
6.2724045
6.1897997
5.9865988
6.1096822
6.0918768
5.9008419
5.8677095
5.8459493
5.7720661
5.7820867
5.7005591
5.6913618
5.5382038
5.6387215
5.6482416
5.5530664
5.570223
5.7208913
5.7995334
5.8099101
5.7301954
5.5849851
5.678219
5.6678326
5.5268279
5.6027809
5.5873481
5.4966458
5.5096965
5.3916864
5.3746753
5.199921
5.3369611
5.3472099
5.217735
5.2365187
5.4089783
5.4257205
5.5407925
5.3803021
5.3687871
5.2119497
5.3447005
5.602751
5.867704
5.8459346
5.7721961
5.7821043
5.6483901
5.6389089
5.5386683
5.6916685
5.7005838
5.5532649
5.5702237
5.6679225
5.7994787
5.8098181
5.6782021
5.5848701
5.7300293
5.7207622
5.6483686
5.8125711
6.070092
6.2831774
6.0563637
5.7853762
5.6811514
5.9859562
5.9977441
5.7097839
5.7400061
5.8412624
5.6790235
5.7507233
5.8289844
5.9006992
5.6492416
5.665631
5.5912399
5.7289299
5.7091618
5.8391107
5.7598316
5.6165687
5.6019995
5.6995165
5.5612927
5.5407579
5.5268118
5.5099489
5.4969367
5.375504
5.3920634
5.2183877
5.3475537
5.3692294
5.3804823
5.254074
5.4256058
5.409103
5.2367377
5.0517576
5.2121176
5.1907528
5.3169196
5.1768164
5.1903172
5.0313551
5.0117661
4.8114244
4.9928685
5.0034193
4.8319613
4.8534445
5.0511389
5.0696535
5.2537936
5.2726378
5.4432624
5.6021824
5.7508541
5.8290874
5.8393267
5.7599281
5.6166821
5.7092513
5.6995544
5.5613249
5.6492223
5.6656686
5.9241117
5.8570119
5.8677477
5.7895927
5.7800617
5.6335578
5.7289991
5.7396892
5.6482637
5.4927492
5.6054518
5.5911885
5.57423
5.4593154
5.2892403
5.4151288
5.4051352
5.2485965
5.3853102
5.4126721
5.2823264
5.4365619
5.4480912
5.3241487
5.3071079
5.4761622
5.3701516
5.5441865
5.7092001
5.8685704
6.1169319
6.3114027
6.5356801
6.594082
6.6663827
6.5518154
6.4529672
6.3020322
6.3557793
6.3159581
6.2337772
6.2221626
6.0150565
6.1447382
6.1606848
6.0402702
6.0925202
5.958944
5.9817608
5.9146176
5.8972941
5.8870502
5.8100607
5.8191795
5.6798851
5.770839
5.761083
5.6653691
5.5102004
5.6260318
5.7132636
5.7301547
5.6561054
5.7902659
5.8009463
5.9249322
5.8480594
5.8388561
5.6966087
5.7113643
5.5598056
5.6703558
5.5163043
5.5044991
5.4831028
5.6390606
5.5262414
5.3593024
5.3425572
5.4728895
5.3186869
5.4534673
5.7132397
5.9588826
5.981734
5.730159
5.6560326
5.7902136
5.9145087
5.8972124
5.8869764
5.8676143
5.7396345
5.6482404
5.7894566
5.779947
5.6333841
5.4762528
5.459212
5.5741148
5.4152326
5.4052513
5.2726062
5.4430728
5.3355939
5.5115858
5.4944353
5.65878
5.584216
5.5747312
5.5524322
5.6282634
5.6178218
5.4453196
5.4614251
5.374471
5.3572521
5.5428352
5.4780931
5.4890867
5.2935714
5.2750362
5.2004996
5.4155483
5.426185
5.2202836
5.2409649
5.3127758
5.3926105
5.4785497
5.3004184
5.2823281
5.2641647
5.1587179
5.1783502
4.9657667
5.0894205
5.108722
5.1273276
5.3177558
5.2161174
5.4090036
5.3300694
5.5219366
5.511245
5.4507196
5.4605475
5.259061
5.0349682
5.1210068
5.1012104
5.1973481
4.9865546
5.0065321
4.8928718
4.8708811
4.8477152
5.0804445
5.0589104
4.9665635
4.9907348
4.7371178
4.7637053
5.0133444
4.9366045
5.1788424
5.4025278
5.6329606
5.9491666
6.2193641
6.2457191
5.9840285
6.0326083
6.0458677
5.7679074
5.6931081
5.9980539
5.96849
5.9550742
5.9188792
5.9066397
5.9363391
5.6024367
5.5596147
5.5912574
5.6234976
5.6642105
5.4375115
5.4844475
5.5439184
5.6063656
5.6155489
5.6893826
5.527215
5.4428533
5.4267478
5.2343561
5.2522306
5.352654
5.1640009
5.2891595
5.3071996
5.4365971
5.4481373
5.6053838
5.4925996
5.3240816
5.1426615
5.2958633
5.2822984
5.2614292
5.2486604
5.225758
5.0407368
5.0306653
5.0036423
4.9934017
5.1773199
5.0133553
5.0320531
4.8329592
4.8128689
4.6010507
4.8149499
4.8318208
4.6222068
4.5993234
4.375498
4.4006804
4.6231553
4.6452844
4.8554986
5.0304807
5.0406561
5.2253708
4.8723886
4.665126
4.8710233
4.6654263
4.8726067
5.0697948
5.089012
5.1064643
4.9106379
5.0775257
5.0683152
4.8926377
4.685755
4.8940183
5.0683243
5.0775274
5.2612304
5.1065012
5.0887642
4.8927292
4.9106257
4.9300922
5.1250247
5.1426916
5.2957471
5.1132165
5.1034623
4.9310488
5.1036246
5.1132226
4.9477173
4.9299371
5.1249161
4.9789721
5.1820739
5.37002
5.5441073
5.7090585
5.7197229
5.5597122
5.4762184
5.6464593
5.6371916
5.4602011
5.2700671
5.2876845
5.3871245
5.2000886
5.0823167
5.063648
5.0449136
5.0259299
5.1456985
4.9411777
4.9216638
4.9019059
4.8813864
4.8600274
4.6352595
4.6583164
4.4859286
4.7349177
4.7106851
4.4588369
4.1892714
4.3958357
4.4212708
4.1712767
4.1428683
4.1123423
3.8673211
3.6022462
3.9337399
3.6876494
3.2938728
3.2272826
3.5520092
3.2056579
3.520433
3.4746311
3.7634872
3.7216721
3.6780345
3.3595063
3.3091005
2.9892741
3.0412099
3.3793985
3.0429818
2.9892945
2.9349731
2.8843249
2.5270048
2.8675554
2.4996844
2.5566011
2.882242
2.4361111
2.1153364
2.0517658
1.7647056
2.1729591
2.221471
2.5849339
2.1746632
2.5284969
2.4700792
2.1094654
1.7909118
1.8437339
1.4966761
1.8177614
1.8650726
2.1638398
2.4867522
2.936853
2.9911924
2.5402627
2.2150954
2.6637555
2.6097107
2.274078
2.6384157
2.6918547
2.2757751
2.6369023
2.5815416
2.2237681
1.8909986
1.9400567
2.3269069
1.9142324
1.5823886
1.5380036
1.1341628
1.388186
1.6283194
1.9354318
1.8991319
1.3023039
1.0219671
1.5930429
1.5610055
1.0016331
0.54866949
0.52575589
0.74867091
0.43978929
0.24471833
0.27342786
0.19265024
0.44848776
0.83350756
1.3221634
1.3521325
0.85340912
0.69186566
1.1025372
1.0689596
1.4416549
1.0863567
1.3663502
1.6433491
1.9985553
2.0345402
1.6793623
1.1161653
1.4643691
1.4433284
1.0913012
0.8819245
0.90260303
1.3968158
1.1201651
0.71779571
0.69584525
0.39366761
0.48264901
0.61268143
0.91772732
0.89223449
1.476771
2.188384
1.9122222
2.7122473
3.397067
3.4570857
2.7614918
1.9325522
1.9604707
2.2756065
1.4991737
1.0598441
1.0771859
1.0984557
1.1091438
1.9076702
2.6508379
2.6412839
2.7008317
3.3898827
3.9509971
4.4003889
4.76669
4.7180585
4.7492117
5.0596695
5.0921656
4.7954712
4.8371412
4.8094003
4.8478642
5.1366765
5.1568697
5.1338279
5.1696447
5.4891494
5.8386742
5.8047778
5.819515
5.8753111
6.1965825
6.2275669
6.1582181
5.8651205
5.5224385
5.5671296
5.8964897
5.879444
5.5310672
5.615859
5.9317579
5.8918933
5.5778699
5.6921255
5.9701278
5.9528126
6.0342996
6.2977244
6.5524548
6.3260154
6.0829131
6.0049752
6.0214695
5.9469441
5.648241
5.7551542
5.7255636
5.8530353
5.8220171
6.0491363
6.1392299
6.1783603
6.1221183
6.087136
5.9947459
6.2414206
6.205805
5.8544818
5.9688464
5.7196357
5.7597343
5.8933086
6.1133752
6.0580765
5.8657352
5.6506484
5.4455337
5.3346033
5.085285
5.1455609
5.4864176
5.6831947
5.8035847
5.3661973
5.3928052
5.1050089
4.7452798
4.679612
4.5360589
4.1773637
4.2735417
4.7336114
4.6653596
5.0615157
5.3620241
5.3240192
5.773429
6.0872507
6.4068796
6.3253706
6.3633076
6.4112444
6.4752043
6.4402115
6.2080096
6.1660189
6.1840774
6.0978242
5.8794242
6.0090115
5.9910158
5.9563581
5.935604
5.7909558
5.5492921
5.4660439
5.378559
5.3007183
5.2223379
5.1570621
5.0986468
5.1286797
4.8498889
4.804104
4.8836787
4.9236034
5.1861821
5.2235789
5.2437523
5.1905302
4.9244347
4.8742715
4.5382098
4.4987298
4.4499315
4.0076791
4.0658415
4.1278874
4.0711411
4.4906898
4.4424458
4.398551
4.3549669
3.8836534
3.9520589
4.0155587
4.1324788
4.5212306
4.4786243
4.0680109
4.2225701
4.585085
4.6231796
4.2770182
4.3256581
4.1849752
4.566665
4.8889114
4.9599791
4.9921153
4.7051736
4.6105755
4.2379455
4.3732061
4.4204434
4.2912378
4.1855707
4.1258381
4.5470349
4.5491994
4.5966044
4.9226113
4.9220197
5.1946272
5.2128578
5.1936301
4.9119651
4.8862551
4.9458382
4.9801369
4.9574527
5.2292937
5.2462646
4.9891658