/*--------------------------------*- C++ -*----------------------------------*\
  =========                 |
  \\      /  F ield         | OpenFOAM: The Open Source CFD Toolbox
   \\    /   O peration     | Website:  https://openfoam.org
    \\  /    A nd           | Version:  7
     \\/     M anipulation  |
\*---------------------------------------------------------------------------*/
FoamFile
{
    version     2.0;
    format      ascii;
    class       volScalarField;
    location    "480";
    object      p;
}
// * * * * * * * * * * * * * * * * * * * * * * * * * * * * * * * * * * * * * //

dimensions      [1 -1 -2 0 0 0 0];

internalField   nonuniform List<scalar> 
25278
(
101315.31
101314.86
101316.17
101316.09
101319.97
101314.54
101314.1
101315.24
101314.39
101309.93
101311.65
101313.47
101314.59
101316.87
101325.61
101316.07
101314.82
101323.2
101326.95
101320.25
101315.13
101315.49
101315.52
101312.22
101308.78
101312.04
101315.37
101314.08
101319.84
101312.99
101310.77
101317.1
101312.73
101315.47
101309.1
101315.76
101311.03
101307.45
101311.9
101306.76
101309.79
101304.62
101305.17
101298.91
101303.03
101305.36
101310.55
101308.13
101304.37
101311.12
101310.58
101319.95
101316.02
101314.41
101315.65
101308.88
101306.72
101313.17
101305.8
101309.78
101304.14
101303.56
101303.38
101308.13
101317.32
101315.99
101307.21
101303.12
101307.81
101310.04
101323.35
101313.85
101316.97
101311.95
101317.29
101309.34
101309.13
101312.97
101315.32
101319.87
101323.45
101325.51
101323.16
101327.42
101319.75
101323.99
101328.89
101331.91
101331.61
101330.43
101325.08
101325.7
101331.68
101335.83
101337.24
101325.83
101331.6
101329.69
101322.77
101324.09
101331.59
101341.99
101338.56
101324.18
101323.11
101331.06
101324.84
101334.93
101333.2
101341.81
101336.17
101328.67
101348.7
101363.09
101340.89
101337.37
101367.21
101330.87
101338.95
101338.08
101326.3
101319.31
101319.66
101331.06
101335.6
101331.7
101341.4
101335.99
101328.25
101323.74
101323.23
101319.45
101322.43
101325.03
101331.11
101331.29
101323.73
101328.04
101347.89
101333.31
101339.11
101361.89
101365.87
101329.4
101322
101330.22
101330.35
101324.41
101336.87
101324.42
101324.93
101330.51
101324.53
101329.59
101322.18
101322.08
101322.37
101337.6
101336.34
101310.12
101338.38
101346.96
101312.58
101337.22
101323.08
101331.46
101338.61
101329.91
101363.36
101361.64
101341.14
101328.71
101346.96
101346.44
101440.57
101391.98
101347.12
101341.08
101395.01
101452.89
101343.7
101343.83
101325.02
101338.37
101341.35
101330.86
101322.8
101321.27
101334.07
101370.52
101365
101338.75
101326.62
101330.18
101330.27
101327.59
101352.86
101317.32
101472.99
101433.71
101315.19
101348.34
101327.1
101319.04
101320.85
101319.64
101315.48
101319.8
101316.82
101310.35
101315.82
101312.82
101309.84
101304.65
101311.15
101307.13
101311.68
101306.94
101305.23
101298.83
101299.26
101302.65
101308.52
101310.25
101306.91
101300.6
101298.92
101302.89
101304.79
101306.48
101304.2
101296.67
101294.41
101299.9
101302.64
101304.05
101304.05
101307.44
101314.81
101320.05
101311.02
101315.68
101314.59
101310.06
101304.37
101309.02
101306.29
101312.78
101306.19
101303.81
101303.55
101308.26
101310.05
101319.52
101316.41
101317.15
101310.35
101308.09
101315.41
101306.67
101303.21
101293.84
101294.85
101295.72
101297.52
101291.46
101300.13
101296.68
101301.04
101302.76
101301.95
101298.27
101300.96
101294.2
101294.94
101296.06
101300.09
101294.81
101292.02
101290.75
101289.94
101285.65
101294.54
101291.11
101290.22
101283.35
101287.01
101283.49
101281.79
101288.31
101289.15
101293.31
101300.7
101307.07
101308.63
101302.71
101306.4
101304.19
101300.44
101294.57
101296.83
101299.34
101301.07
101299.55
101295.74
101296.65
101303.1
101305.37
101303.84
101307.79
101301.38
101309.28
101302.64
101302.02
101300.5
101303.77
101301.53
101307.92
101317.28
101320.89
101309.37
101303.22
101312.19
101304.07
101302.4
101300.82
101314.08
101319.4
101326.93
101313.58
101300.47
101298.47
101290.17
101284.89
101298.13
101288.51
101299.77
101294.31
101291.95
101292.29
101295.03
101297.03
101291.93
101293.16
101289.21
101295.9
101293.03
101286.7
101289.76
101286.68
101286.25
101296.61
101289.29
101289.18
101286.53
101284.16
101279.56
101287.14
101277.31
101278.65
101285.27
101285.89
101284.7
101288.72
101282.07
101290.02
101293.51
101293.13
101301.12
101295.75
101286.79
101290.32
101286.96
101297.1
101303.45
101305.67
101294.61
101292.2
101292.57
101294.86
101297.01
101292.36
101293.68
101300.16
101296.37
101285.64
101288.88
101285.42
101286.42
101289.65
101283.72
101286.78
101289.02
101288.87
101296.9
101286.33
101284.31
101279.9
101287.57
101277.58
101279.07
101278.43
101274.48
101268.84
101269.28
101278.31
101282.31
101290.22
101283.35
101291.8
101283.22
101280.02
101280.03
101278.95
101285.26
101278.32
101284.76
101288.9
101283.38
101277.17
101276.87
101277.67
101271.36
101278.27
101274.91
101281.02
101280.1
101275
101273.08
101266.59
101273.3
101265.65
101274.2
101265.04
101264.13
101270.76
101266.31
101273.17
101277.84
101285.79
101275.5
101277.29
101281.81
101291.47
101292.62
101299
101303.13
101303.84
101316.91
101319.24
101310.6
101301.92
101301.47
101302.84
101314.32
101302.13
101321.47
101327.2
101323.77
101319.5
101297.51
101300.7
101300.64
101296.28
101296.67
101333.72
101351.47
101314.36
101323.06
101328.59
101321.53
101303.24
101303.64
101303.45
101303.22
101308.46
101345.43
101352.73
101297.08
101292.64
101304.18
101305.94
101305
101298.03
101293.49
101296.43
101287.48
101291.34
101288.46
101292.32
101289.43
101298.44
101290.46
101278.6
101285.12
101278.48
101278.93
101282.68
101274.57
101283.01
101281.91
101282.51
101278.24
101268
101274
101277.89
101283.32
101281.45
101284.82
101292.02
101291.47
101300.2
101303.96
101301.58
101297.42
101288.84
101295.62
101297.4
101302.72
101303.28
101302.06
101300.01
101301.01
101310
101300.29
101313.09
101301.53
101302.69
101302.14
101320.97
101305.68
101300.45
101298.83
101302.54
101298.4
101299.46
101327.28
101323.11
101319.61
101292.93
101319.39
101295.93
101292.85
101298.5
101331.41
101352.37
101341.56
101288.77
101282.4
101297.97
101272.01
101295.44
101278.81
101294.37
101287.62
101301.56
101294.12
101301.84
101302.93
101299.73
101301.67
101303.64
101298.98
101300.28
101296.97
101295.61
101291.17
101292.32
101295.24
101290.62
101286.51
101295.16
101294.42
101291.22
101292.57
101282.66
101283.9
101287.38
101282.99
101282.22
101287.96
101289.3
101290.44
101283.16
101291.61
101286.03
101279.09
101283.36
101279.97
101280.03
101274.83
101279.65
101278.31
101282.35
101274.65
101277.4
101283.87
101288.96
101285.99
101279.15
101277.27
101278.31
101271.9
101278.23
101274.42
101265.61
101273.21
101280.71
101273.06
101266.39
101268.52
101269.02
101269.04
101273
101271.45
101261.29
101269.54
101258.38
101261.64
101253.09
101256.1
101266.22
101269.6
101278.24
101278.37
101277.79
101281.73
101272.86
101279.19
101273.22
101282.33
101268.92
101269.7
101254.62
101261.81
101267.14
101273.96
101270.69
101275.13
101282.68
101287.27
101290.28
101298.45
101292.25
101296.17
101289.15
101294.47
101294.63
101291.6
101285.05
101289.23
101282.14
101285.75
101285.07
101291.01
101281.38
101278.73
101275.96
101287.12
101288.98
101295.74
101301.68
101295.73
101290.3
101286.68
101287.18
101291.54
101286
101289.83
101292.94
101282.83
101281.6
101277.63
101278
101281.36
101280.51
101288.58
101291.67
101278.5
101275.92
101286.83
101272.18
101284.19
101273.48
101271.62
101257.2
101265.88
101271.2
101277.99
101272.65
101276.4
101269.54
101265.35
101260.63
101269.23
101276.04
101280.45
101278.16
101283.49
101281.47
101273.75
101266.2
101273.26
101265.06
101268.35
101262.08
101271.79
101289.96
101284.38
101275.31
101282.2
101294.57
101289.96
101302.46
101294.85
101302.79
101297.58
101296.4
101285.48
101286.61
101280.87
101290.65
101291.33
101290.24
101289.35
101279.21
101277.48
101279.3
101266.59
101267.04
101271.86
101272.83
101277.73
101285.62
101280.98
101277.11
101273.9
101277.01
101275.47
101272
101269.91
101273.46
101274.38
101283.47
101280.96
101270.79
101266.72
101278.73
101275.83
101263.19
101262.48
101265.98
101268.23
101280.89
101278.28
101272.78
101276.15
101265.03
101267.83
101270.69
101263
101267.02
101271.23
101268.86
101264.11
101254.6
101260.58
101263.62
101258.54
101252.98
101248.05
101259.35
101254.83
101259.13
101248.32
101257.23
101252.18
101262.89
101271.28
101283.69
101286.81
101293.62
101289.96
101298.3
101285.78
101285.24
101285.13
101276.95
101275.65
101283.14
101279.6
101270.08
101268.45
101280.92
101285.09
101291.82
101290.52
101300.23
101286.37
101284.31
101284.2
101274.82
101274.46
101283.81
101279.45
101268.13
101258.39
101258.81
101261.28
101270.4
101271.9
101279.81
101279.59
101292.37
101275.03
101275.46
101274.75
101262.59
101261.07
101250.89
101246.78
101259.04
101269.31
101278.27
101278.33
101293.82
101276.42
101273.71
101273.28
101264.28
101267.66
101266.91
101270.81
101284.52
101264.44
101279.19
101266.12
101265.89
101247.65
101258.44
101246.28
101250.49
101257
101262.51
101253.8
101260.96
101252.8
101262.66
101266.63
101278.64
101268.61
101261.55
101267.73
101270.02
101270.61
101262.26
101253.26
101244.49
101233.56
101243.96
101254.15
101256.59
101269.52
101269.86
101260.03
101249.83
101258.73
101262.11
101253.58
101244.39
101238.9
101250.84
101259.57
101249.39
101246.22
101255.93
101264.25
101271.03
101266.37
101267.35
101262.58
101261.66
101252.02
101258.19
101259.32
101265.41
101257.01
101266.87
101261
101250.19
101245.8
101250.64
101261.57
101266.97
101261.39
101247.93
101256.74
101255.93
101246.36
101235.46
101236.96
101248.87
101237.04
101247.99
101238.24
101249.68
101248.4
101251.18
101255.46
101248.81
101243.35
101229.95
101239.84
101245.17
101236.99
101247.37
101238.77
101252.05
101243.24
101250.1
101256.85
101262.89
101267.86
101286.47
101279.23
101264.63
101260.17
101263.12
101278.04
101261.54
101271.36
101284.74
101258.01
101257.11
101275.14
101249.08
101251.22
101251.74
101230.98
101240.12
101248.24
101233.85
101244.28
101236.13
101224.16
101208.78
101224.39
101218.87
101234.1
101219.68
101235.09
101241.07
101234.28
101226.56
101242.31
101238.66
101251.72
101256.64
101257.49
101252.47
101238.94
101245.95
101252.85
101241.45
101240.36
101226.04
101236.61
101223.06
101235.31
101238.51
101226.34
101222.1
101223.65
101208.56
101225.18
101211.22
101227.2
101214.81
101232.35
101231.05
101245.2
101222.01
101222.6
101201.43
101202.09
101213.46
101217.7
101226.52
101208.66
101223.38
101233.95
101226.72
101213.96
101195.52
101211.45
101220.85
101207.87
101188.1
101172.28
101196.66
101184.67
101208.52
101188.43
101213.63
101234.64
101249.81
101261.45
101276.54
101274.21
101270.31
101272.82
101259.33
101263.06
101264.82
101254.97
101252.62
101246.75
101231.54
101239.77
101241.93
101224.62
101238.35
101254.72
101253.36
101237.17
101222.29
101222.23
101241.5
101260.24
101277.63
101294.49
101290
101263.39
101261.86
101240.21
101233.57
101249.74
101229.68
101229.55
101246.71
101258.73
101268.91
101269.43
101274.8
101283.86
101285.69
101296.5
101303.07
101308.18
101315.2
101323.06
101327.09
101330.27
101329.41
101332.38
101330.34
101340.36
101332.36
101321.9
101333.22
101367.87
101364.65
101337.41
101342.48
101339.31
101324.9
101322.54
101323.2
101323.1
101322.78
101339.8
101309.78
101354.49
101351.53
101325.48
101338.54
101394.45
101447.47
101334.73
101369.26
101363.8
101342.72
101330.36
101327.51
101336.88
101330.34
101337.44
101325.16
101335.95
101397.34
101457.69
101331.48
101312.59
101335.23
101338.64
101363.07
101367.64
101333.81
101321.89
101325.86
101337.85
101328.91
101324.5
101343.91
101305.81
101495.45
101462.28
101332.37
101355.01
101329.85
101316.91
101320.25
101310.71
101311.06
101320.11
101313.93
101313.09
101317.38
101316.27
101307.36
101308.14
101303.53
101303.5
101308.23
101309.98
101305.76
101303.63
101306.78
101308.8
101315.5
101309.64
101304.14
101297.56
101303.97
101304.38
101301.65
101299.84
101289.48
101290.38
101291.43
101290.81
101297.65
101302.84
101301.94
101294.3
101295.05
101286.95
101281.3
101279.45
101277.7
101279.7
101283.04
101292.78
101291.5
101297.59
101301.71
101295.83
101289.2
101291.72
101300.23
101294.57
101295.21
101286.72
101287.67
101284.32
101273.65
101274.77
101270.93
101271.57
101270.02
101269.85
101271.21
101273.09
101271.76
101256.11
101256.71
101260.93
101260.42
101248.46
101249.2
101242.27
101241.31
101222.93
101223.6
101233.95
101233.49
101209.79
101210.94
101222.32
101209.75
101188.19
101203.4
101203.53
101173.34
101200.28
101179.35
101203
101225.44
101238.55
101229.24
101249.45
101293.29
101281.73
101251.22
101241.74
101240.18
101269.66
101239.09
101259
101228.73
101242.95
101256.47
101256.87
101264.67
101293.69
101265.09
101287.48
101241.61
101226.06
101232.51
101286.13
101337.69
101277.37
101311.04
101272.94
101288.32
101276.72
101287.28
101278.15
101287.08
101284.98
101274.64
101279.7
101283.61
101288.1
101290.86
101295.11
101290.02
101296.28
101292.23
101289.83
101282.77
101285.37
101282.21
101277.11
101270.4
101276.05
101272.49
101278.96
101286.02
101292.59
101295.18
101289.48
101282.13
101282.52
101279.83
101284.38
101288.13
101296.56
101302.21
101292.64
101287.37
101295.86
101290.37
101287.62
101279.15
101281.39
101289.83
101285.77
101284.74
101279.2
101273.54
101266.52
101262.47
101270.69
101276.77
101287.81
101288.8
101286.43
101297.4
101295.44
101301.02
101301.3
101301.68
101307
101314.11
101315.64
101314.89
101313.82
101316.24
101314.6
101314.62
101314.47
101319.2
101309.91
101315.6
101314.84
101307.84
101302.38
101306.86
101307.08
101316.09
101308.67
101302.02
101301.72
101305.57
101310
101319.09
101312.95
101312.33
101304.54
101307.79
101314.43
101307.6
101301.93
101294.69
101293.41
101293.23
101293.23
101284.2
101284.94
101277.85
101280.04
101290.15
101290.19
101277.47
101281.42
101271.98
101271.85
101280.1
101276.8
101274.19
101271.99
101269.47
101269.86
101273.71
101283.12
101279.32
101278.11
101265.69
101265.59
101268.44
101281.13
101279.01
101271.28
101268.4
101272.5
101281.19
101283.56
101287.98
101294.82
101303.12
101291.49
101286.42
101286.4
101290.05
101298.11
101287.22
101293.95
101295.72
101291.4
101293.87
101286.22
101278.21
101279.64
101283.28
101274.96
101277.48
101270.23
101267.33
101259.34
101267.88
101274.57
101272.5
101284.74
101279.3
101283.14
101276.83
101278.28
101274.25
101282.21
101277.62
101285.12
101278.62
101278.33
101281.96
101272.8
101263.83
101265.46
101255.42
101265.72
101264.23
101253.84
101250.64
101262.04
101269.55
101271.1
101263.75
101265.76
101275.27
101276.97
101275.13
101265.19
101261.91
101265.81
101273.65
101261.85
101251.56
101256.75
101261.85
101266.84
101258.89
101258.24
101261.05
101269.17
101271.79
101264.34
101259.58
101267.74
101264.5
101255.3
101252.14
101261.54
101256.77
101260.21
101264.28
101254.67
101249.29
101243.88
101255.94
101260.66
101250.31
101239.13
101244.12
101250.55
101256.54
101263.7
101271.82
101264.01
101254.97
101249.13
101258.78
101267.63
101277.55
101273.24
101274.2
101281.38
101266.53
101269.05
101263.92
101261.72
101263.32
101273.42
101286.56
101281.42
101268.94
101274.49
101273.99
101269.15
101268.74
101279.73
101261.58
101261.68
101255.08
101255.36
101254.04
101274.5
101296.24
101281.82
101265.45
101271.71
101272.79
101267.36
101269.76
101288.33
101259.31
101256.9
101247.68
101250.09
101248.11
101267.71
101301.9
101278.47
101263.55
101270.63
101276.57
101281.03
101285.38
101293.05
101302.22
101289.26
101287.49
101299.7
101290.29
101285.32
101275.34
101276.06
101286.24
101281.95
101278.78
101283.44
101284.37
101291.19
101300.61
101302
101320.93
101324.96
101307.79
101300.89
101300.08
101301.4
101321.48
101311.07
101348.25
101343.84
101344.62
101293.38
101283.01
101300.33
101300.72
101296.32
101327.01
101290.04
101319.25
101298.86
101313.04
101317.66
101315.05
101300.94
101300.2
101297.86
101298.24
101307.04
101324.64
101322.5
101314.45
101292.07
101290.14
101295.86
101296.1
101283.94
101286.61
101283.61
101292.2
101290.7
101295.97
101296.52
101297.78
101280.06
101282.52
101295.64
101295.39
101280.94
101277.11
101262.38
101262.81
101272.17
101271.56
101261.36
101268.85
101260.71
101261.71
101272.18
101269.97
101271.66
101259.53
101261.9
101258.17
101266.71
101273.43
101257.77
101254.51
101268.92
101261.28
101255.25
101243.5
101247.2
101251.94
101239.15
101245.53
101245.24
101252.28
101241.3
101249.48
101248.76
101252.02
101240.72
101246.25
101238.72
101231.43
101244.81
101241.1
101226.74
101237.01
101238.14
101227.04
101211.63
101225.25
101223.73
101227.88
101235.25
101245.58
101258.02
101248.87
101234.56
101225.77
101238.46
101252.3
101259.01
101254.99
101264.78
101253.5
101241.89
101237.5
101250.03
101261.91
101251.24
101243.68
101247.2
101229.06
101212.68
101234.44
101241.76
101233.9
101241.6
101257.16
101253.3
101250.99
101254.29
101278.72
101295.77
101354.28
101282.5
101334.44
101293.3
101288.55
101293.77
101337.6
101278.67
101378.7
101442.73
101306.72
101307
101379.22
101253.62
101287.7
101287.78
101395.75
101305.83
101308.54
101437.81
101316.5
101373.73
101259.82
101391.86
101319.88
101297.67
101458.41
101519.4
101674.07
101480.64
101443.25
101457.47
101204.3
101233.8
101522.74
101268.92
101391.44
101297.49
101345.15
101307.52
101321.88
101302.96
101302.91
101323.27
101312.4
101301.71
101302.37
101303.3
101302.42
101351.1
101327.82
101297.29
101293.19
101291.69
101266.97
101294.8
101276.97
101294.19
101286.59
101300.28
101290.6
101292.02
101301.7
101287.88
101284.45
101284.69
101278.9
101278.66
101294.6
101279.3
101273.83
101274.7
101259.69
101247.98
101259.11
101268.57
101279.55
101281.2
101285.3
101275.15
101268.87
101270.93
101280.07
101283.45
101290.25
101298.22
101302.51
101293.85
101285.56
101285.71
101286.02
101290.36
101294.73
101292.21
101280.29
101280.43
101275.57
101276.44
101275.56
101282.83
101276.34
101290.04
101286.52
101295.96
101302.18
101313.56
101318.22
101316.66
101303.27
101300.91
101300.14
101300.38
101309.58
101326.28
101319.28
101320.5
101293.43
101293.59
101298.57
101299.27
101295.72
101317.75
101300.31
101313.71
101302.8
101312.06
101306.79
101311.99
101310.8
101315.43
101310.47
101305.42
101303.63
101306.89
101308.5
101308.54
101312.87
101313.89
101319.74
101317.13
101312.71
101315.63
101308.82
101310.87
101307.49
101305.16
101304.53
101309.63
101317.2
101309.16
101307.69
101303.91
101302.03
101301.19
101308.97
101321.14
101319.43
101315.13
101320.34
101327.18
101319.09
101303.62
101300.57
101298.57
101300.64
101313.43
101302.54
101309.17
101301.3
101307.64
101317.01
101311.58
101303.56
101302.03
101288.74
101293
101299.45
101301.11
101305.29
101299.04
101303.17
101300.54
101304.08
101302.5
101306.34
101299.34
101296.76
101294.72
101291.33
101295.8
101297.03
101300.15
101300.36
101298.97
101292.32
101295.01
101290.68
101279.74
101278.27
101273.69
101272.61
101268.06
101267.34
101263.73
101263.18
101261.84
101261.52
101262.73
101262.86
101271.7
101274.36
101259.39
101258.73
101256.21
101256.64
101254.2
101271.06
101270.1
101253.54
101253.01
101253.57
101238.24
101242.83
101246.49
101247.34
101243.13
101225.96
101231.55
101230.89
101226.77
101218.64
101220.13
101239.32
101238.63
101237.61
101219.48
101221.55
101192.19
101187.53
101202.09
101211.16
101209
101203.1
101181.75
101182.6
101185.49
101177.65
101157.08
101143.79
101182.89
101192.4
101189.74
101153.55
101156.51
101183.88
101209.61
101210.42
101232.84
101249.26
101251.09
101266.48
101265.17
101295.98
101272.85
101257.82
101260.02
101236.15
101214.52
101231.88
101231.57
101247.92
101259.46
101269.76
101259.8
101262.44
101271.23
101276.29
101277.57
101287.1
101284.06
101272.05
101263.94
101262.51
101252.86
101253.82
101263.78
101272.64
101274.13
101278.87
101284.06
101290.78
101295.9
101301.65
101291.82
101287.61
101287.14
101282.28
101283.4
101293.08
101284.82
101278.73
101278.46
101266.38
101258.98
101267.38
101274.61
101282.14
101287.44
101289.27
101281.05
101276.7
101279.38
101285.67
101286.36
101292.72
101296.52
101302.64
101298.5
101290.58
101289.57
101289.62
101294.57
101294.64
101291.83
101285.53
101287.61
101283.12
101281.9
101281.28
101288.7
101291.58
101287.21
101290.08
101285.04
101294.72
101289.94
101269.16
101268.1
101261.84
101264.06
101264.73
101278.52
101293.78
101282.81
101299.68
101245.36
101247.96
101235.7
101239.29
101260.17
101231.61
101193.58
101221.26
101235.67
101250.96
101255.27
101239.94
101240.53
101256.24
101243.93
101243.28
101226.72
101213.08
101186.11
101186.32
101177.12
101179.06
101201.42
101200.28
101175.2
101210.4
101209.19
101228.36
101217.2
101213.47
101183.37
101188.68
101140.1
101178.54
101144.02
101175.22
101152.17
101148.68
101101.13
101159.38
101146.16
101175.02
101191.39
101209.13
101188.48
101206.49
101187.22
101206.82
101212.07
101221.55
101209.63
101225.91
101216.46
101197.34
101189.47
101210.76
101194.8
101214.59
101232.56
101236.99
101220.43
101229.68
101223.13
101211.8
101230.59
101224.74
101223.35
101232.35
101214.26
101200.81
101203.53
101181.69
101192.5
101202.01
101213.95
101192.55
101176.76
101164.18
101183.07
101206.9
101224.49
101206.64
101229.68
101219.24
101238.23
101247.35
101259.93
101244.66
101228.76
101227.6
101243.8
101259.13
101246.16
101238.09
101212.64
101211.96
101185.71
101185.25
101218.09
101204.45
101231.55
101242.11
101257.31
101239.33
101218.88
101219.32
101239.91
101250.13
101236.91
101238.05
101242.56
101245.18
101257.47
101251.83
101237.43
101233.85
101248.88
101255.14
101252.66
101245.59
101256.97
101273.34
101270.15
101269.1
101269.97
101277
101288.06
101287.93
101288.18
101274.85
101262.4
101269.33
101251.28
101252.31
101250.9
101259.2
101266.38
101249.56
101235.31
101237.58
101241.85
101246.36
101230.21
101238.11
101240.36
101247.48
101254.2
101260.18
101265.79
101267.13
101278.74
101294.06
101299.92
101304.86
101308.87
101311.46
101313.04
101314.15
101313.15
101311.56
101311.95
101309.52
101304.53
101308.35
101305.6
101299.67
101295.23
101301.73
101306.55
101298.73
101300.12
101298.88
101291.96
101290.57
101292.61
101297.84
101294.08
101298.37
101299.32
101305.99
101304.18
101303.77
101297.83
101295.68
101305.04
101307.02
101311.03
101307.75
101308.7
101308.92
101311.48
101311.85
101308.99
101304.78
101308.01
101311.13
101307.92
101307.3
101305.49
101308.8
101310.48
101313.03
101313.34
101309.83
101311.76
101310.83
101313.65
101311.8
101311.09
101310.42
101311.34
101311.17
101313.57
101310.78
101307.76
101304.13
101302.06
101302.14
101303.21
101293.94
101302.23
101301.2
101305.83
101308.58
101307.35
101302.7
101295.68
101300.55
101299.05
101293.77
101291.6
101292.68
101299.52
101295.28
101299.66
101299.2
101299.43
101304.67
101304.88
101304.39
101306.59
101300.22
101295.59
101294.07
101287.46
101280.38
101288.91
101288.75
101279.39
101278.34
101278.37
101287.55
101281.74
101284.06
101284.49
101283.31
101291.56
101293.87
101288.53
101293.49
101284.19
101278.15
101291
101279.01
101272.93
101279.97
101276.16
101272.35
101266.56
101267.61
101280.24
101271.23
101275.4
101279.3
101284.54
101285.68
101289.28
101276.57
101268.5
101281.68
101290.75
101293.65
101286.9
101280.11
101288.6
101286.79
101277.62
101277.39
101278.03
101287.16
101280.59
101282.67
101283.09
101282.68
101290.98
101292.53
101287.01
101292.09
101282.72
101279.23
101290.88
101295.66
101299.3
101290.43
101286.67
101282.66
101286.8
101293.63
101287.51
101294.16
101296.27
101285.49
101289.4
101286.89
101294.78
101293.25
101303.97
101293.78
101298.94
101299.03
101294.88
101297.92
101294.84
101289.98
101290.4
101284.41
101285.17
101277.42
101279.73
101272.65
101271.45
101275.02
101270.2
101279.75
101275.69
101288.57
101280.27
101282.98
101277.87
101274.06
101268.7
101267.87
101270.48
101272.58
101260.85
101270.58
101264.47
101259.11
101250.68
101253.97
101269.85
101257.85
101264.65
101270.01
101277.4
101281.79
101287.03
101288.63
101291.64
101291.39
101287.96
101295.57
101299.62
101296.43
101299.98
101291.82
101285.57
101293.73
101304.28
101302.65
101295.08
101300.44
101305.23
101299.52
101300.03
101300.33
101306.1
101304.08
101303.43
101300.46
101295.05
101292.76
101294.24
101293.62
101298.53
101288.01
101280.28
101289.9
101300.21
101293.35
101299.86
101306.97
101304.44
101298.98
101298.68
101298.08
101299.37
101295.75
101303.88
101303.37
101306.16
101308.05
101311.62
101312.21
101309.25
101309.44
101305.52
101309.26
101308.42
101309.56
101306.65
101308.33
101308.7
101311.52
101311.27
101307.84
101305.92
101309.55
101307.24
101304.58
101301.64
101306.47
101309.41
101309.93
101310.56
101307.59
101307.09
101307.06
101303.5
101308.96
101312.91
101309.85
101312.91
101313.65
101308.06
101312.29
101311.77
101312.31
101313.97
101314.88
101311.06
101316.43
101316.22
101312.72
101306.47
101310.35
101312.31
101308.68
101309.76
101304.75
101307.73
101308.53
101305.2
101309.29
101312.72
101308.88
101311.94
101306.31
101303.91
101300.47
101299.7
101305.25
101302.65
101303.79
101297.66
101298.44
101297.04
101292.6
101292.17
101297.82
101286.79
101285.38
101286.92
101284.47
101287.85
101284.18
101287.88
101288.65
101277.02
101282.42
101283.9
101275.82
101273.74
101276.98
101273.58
101270.19
101271.5
101269.66
101279.36
101269.67
101266.17
101262.31
101264.76
101277.13
101266.13
101270.04
101273.2
101276.58
101279.44
101274.05
101270.99
101267.05
101262.61
101266.79
101259.21
101264.97
101269.58
101276.58
101279.9
101277.12
101281.74
101278.76
101284.52
101273.78
101270.95
101284.62
101276.18
101270.3
101273.63
101266.61
101270.72
101264.96
101272.56
101268.15
101259.72
101252.99
101262.1
101257.64
101252.51
101257.41
101246.43
101254.09
101262.55
101258.03
101266.55
101268.43
101284.41
101291.86
101296.71
101303.99
101292.16
101293.82
101301.8
101301.06
101300.3
101300.43
101300.24
101290.97
101290.55
101282.98
101285.19
101278.87
101276.12
101282.1
101290.86
101292.34
101278.09
101281.29
101281.78
101285.58
101296.06
101293.6
101293.18
101292.02
101286.18
101282.78
101289.94
101290.95
101290.35
101292.02
101297.4
101298.63
101306.35
101299.86
101301.98
101303.05
101303.23
101299.98
101292.27
101289.52
101279.3
101279.12
101283.03
101267.07
101270.1
101254.22
101260.69
101258.41
101263.48
101257.15
101250.26
101241.42
101249.04
101257.87
101250.29
101241.8
101230
101240.15
101249.64
101258.6
101262.35
101267.14
101283.02
101279.42
101273.99
101270.12
101273.02
101269.17
101272.79
101275.92
101282.58
101290.21
101290.13
101296.14
101283.2
101280.88
101279.42
101279.55
101283.56
101296.27
101289.84
101291.74
101284.17
101282.15
101291.39
101299.16
101298.31
101304.51
101300.29
101307.77
101299.88
101296.75
101299.36
101307.56
101305.29
101297.95
101296.82
101296.47
101296.56
101295.9
101297.32
101293.93
101299.91
101301.97
101301.89
101303.24
101295.81
101296.8
101295.77
101301.9
101301.49
101302.95
101303.17
101296.09
101288.69
101280.24
101282.78
101280.04
101272.17
101263.81
101257.65
101251.73
101241.88
101249.62
101240.44
101250.97
101244.49
101231.88
101219.86
101231.6
101241.7
101231.08
101218.02
101208.64
101190.19
101166.87
101195.34
101178.33
101141.79
101148.75
101166.6
101133.86
101164.98
101175.47
101193.65
101205.81
101221.76
101209.96
101232.54
101224.13
101198.25
101211.32
101194.68
101225.23
101247.37
101289.7
101275.81
101258.78
101276.7
101242.16
101244.43
101244.55
101244.6
101251.05
101281.02
101294.1
101236.42
101243.22
101245.78
101248.43
101278.07
101252.83
101284.01
101244.76
101257.36
101243.49
101206.13
101210.68
101217.31
101221.79
101190.44
101185.23
101173.85
101175.88
101212.66
101202.74
101213.62
101177.38
101172.32
101189.24
101221.67
101210.91
101207
101153.98
101152.71
101154.29
101157.59
101215.72
101198.08
101185.05
101187.31
101198.94
101232.02
101233.93
101233.25
101231.73
101291.91
101229.27
101281.21
101221.78
101222.42
101215.68
101221.47
101195.24
101254.93
101392.04
101281.11
101338.05
101235.08
101245.48
101279.65
101256.09
101340.58
101269.49
101334.94
101337.43
101289.98
101313.33
101239.02
101233.45
101235.25
101241.01
101285.73
101233.82
101288.34
101251.25
101236.68
101254.16
101278.26
101279.06
101389.18
101391.3
101278.91
101338.11
101228.69
101239.88
101253.39
101255.28
101265.45
101271.77
101257.65
101242.54
101231.57
101200.5
101199.05
101157.79
101159.16
101204.49
101242.2
101247.14
101296.09
101273.3
101272.37
101263.06
101270.15
101275.95
101280.22
101284.67
101287.47
101287.51
101300.56
101291.15
101284.17
101274.57
101274.83
101268.23
101279.75
101279.8
101284.27
101282.6
101284.55
101296.13
101295.68
101301.48
101300.12
101302.52
101299.4
101297.92
101288.22
101273.89
101275.03
101288.66
101288.56
101277.83
101280.18
101288.79
101295.69
101286.06
101288.19
101298.39
101302.32
101300.84
101303.16
101309.29
101301.14
101292.52
101291.89
101292.29
101289.59
101277.94
101281.62
101283.27
101286.91
101291.02
101298.03
101302.42
101299.83
101304.83
101309.88
101305.64
101309.26
101315.91
101310.85
101310.37
101304.45
101302.77
101301.47
101306.86
101314.84
101307.25
101316.05
101310.16
101319.25
101299.08
101298.94
101301.15
101305.65
101307.17
101306.03
101297.46
101300.4
101296.68
101311.12
101325.08
101294.53
101293.87
101296.18
101310.34
101317.59
101306.02
101319.27
101318.59
101313.84
101312.7
101319.05
101311.8
101306.92
101306.93
101305.2
101297.55
101296.63
101297.8
101293.66
101285.84
101290.46
101287.65
101292.68
101295.65
101295.84
101294.08
101301
101293.95
101300.04
101294.6
101300.9
101297.96
101289.56
101284.23
101285.51
101288.32
101283.75
101292.32
101285.32
101281.85
101278.61
101268.56
101268.03
101260.12
101260.61
101270.96
101261.4
101248.94
101248.3
101260.64
101270.41
101279.41
101294.38
101294.82
101279.84
101279.93
101274.7
101274.94
101279.33
101292.16
101275.94
101280.46
101292.9
101278.86
101273.66
101261.17
101260.62
101270.13
101274.5
101275.14
101269.23
101261.49
101260.75
101249.74
101250.47
101239.61
101237.93
101235.43
101235.57
101250.8
101251.65
101244.34
101255.83
101255.04
101271.03
101271
101269.92
101259.96
101260.01
101255.13
101250.18
101249.97
101259.93
101267.05
101248.49
101248.97
101266.85
101259.81
101259.77
101270.62
101269
101260.86
101256.4
101257.92
101273.7
101272.03
101262.02
101253.04
101251.68
101250.53