/*--------------------------------*- C++ -*----------------------------------*\
  =========                 |
  \\      /  F ield         | OpenFOAM: The Open Source CFD Toolbox
   \\    /   O peration     | Website:  https://openfoam.org
    \\  /    A nd           | Version:  7
     \\/     M anipulation  |
\*---------------------------------------------------------------------------*/
FoamFile
{
    version     2.0;
    format      ascii;
    class       volScalarField;
    location    "480";
    object      rho;
}
// * * * * * * * * * * * * * * * * * * * * * * * * * * * * * * * * * * * * * //

dimensions      [1 -3 0 0 0 0 0];

internalField   nonuniform List<scalar> 
25278
(
1.1738743
1.1738586
1.1738758
1.1738751
1.1739002
1.1738556
1.1738608
1.1738738
1.1738632
1.1738092
1.1738285
1.1738502
1.1738581
1.1738755
1.1738919
1.1738751
1.1738585
1.1738882
1.1738971
1.1738761
1.1738439
1.1738516
1.1738562
1.1738307
1.1737952
1.173829
1.1738547
1.1738341
1.1738875
1.1738267
1.1737994
1.1738478
1.1737738
1.1738236
1.1737779
1.1738448
1.1738069
1.1737617
1.1737928
1.1737172
1.1737622
1.1737245
1.173725
1.1736757
1.1737266
1.1737565
1.1738124
1.1737877
1.1737443
1.1737975
1.1737878
1.1738666
1.1737751
1.1737736
1.173831
1.1737733
1.173744
1.1737955
1.1736838
1.1737427
1.173704
1.1736885
1.1736786
1.1737552
1.1738384
1.1738206
1.1737428
1.1736715
1.173694
1.1737244
1.1738426
1.1737471
1.1738041
1.1737595
1.1738414
1.1737675
1.1737786
1.1738268
1.1738502
1.1738861
1.1739144
1.1738913
1.1738885
1.1739034
1.1738757
1.1739084
1.173889
1.1737941
1.1738445
1.1738966
1.1738478
1.173789
1.1738459
1.1737832
1.1738166
1.1737903
1.1738809
1.1739191
1.1738591
1.1738163
1.1738797
1.1738926
1.1738858
1.173819
1.1737541
1.1738236
1.1737268
1.1736452
1.1736125
1.1735888
1.1737908
1.1737173
1.1736808
1.1738564
1.1737305
1.1737254
1.1739213
1.173792
1.1738647
1.1738476
1.173887
1.1738702
1.173897
1.1738183
1.173755
1.1735707
1.1735705
1.1737827
1.1738772
1.1739043
1.17391
1.1738807
1.1738748
1.1738784
1.1738222
1.173772
1.1736962
1.1737037
1.1736551
1.1735974
1.173676
1.1738228
1.1738808
1.173767
1.1737212
1.1737961
1.1738489
1.1737559
1.1737838
1.1737516
1.1738737
1.1738827
1.1738259
1.1739034
1.1738687
1.173837
1.1737792
1.1738408
1.1736726
1.1729447
1.1726925
1.1728617
1.1730435
1.1737215
1.1737498
1.173826
1.1738659
1.173781
1.1738842
1.1738539
1.1737344
1.1732009
1.1729336
1.1728633
1.1701617
1.1705527
1.172902
1.1727781
1.1705313
1.1702313
1.1727882
1.1728667
1.1731048
1.1736631
1.1738545
1.173849
1.1737778
1.1736986
1.1736387
1.1739178
1.1738555
1.1738389
1.1738792
1.1737841
1.1737538
1.173774
1.1737435
1.1724341
1.1694
1.169055
1.1724795
1.1737451
1.1737999
1.1737514
1.1738235
1.1738519
1.1738243
1.1738874
1.1738454
1.1737948
1.1738466
1.1737762
1.1737639
1.1737257
1.1738092
1.1737592
1.1737915
1.1737212
1.1737274
1.1736757
1.1736817
1.1737298
1.1737878
1.1738098
1.1737828
1.1737296
1.1737053
1.1737482
1.1737503
1.1737663
1.173759
1.1736775
1.1736513
1.1737133
1.1737227
1.1737373
1.1737415
1.1737815
1.173841
1.1738757
1.1737972
1.1738335
1.1737785
1.173749
1.1737092
1.1737767
1.1737412
1.1737931
1.1736919
1.1736952
1.1736846
1.1737591
1.1737827
1.1738627
1.1737813
1.1738396
1.1737323
1.1736997
1.173816
1.1737387
1.1736763
1.1736009
1.1736158
1.1736306
1.1736561
1.1736169
1.173716
1.1736784
1.1737015
1.1737185
1.1737187
1.1737064
1.1737308
1.1736611
1.1736673
1.1736934
1.1737293
1.173687
1.1736392
1.1736317
1.1736382
1.1735971
1.1736799
1.1736487
1.1736206
1.1735543
1.1735928
1.1735543
1.1735328
1.1736027
1.1736162
1.1736618
1.1737303
1.173784
1.1737888
1.1737304
1.1737649
1.1737582
1.1737189
1.1736526
1.1736789
1.1736821
1.1737018
1.1736983
1.1736708
1.1736731
1.1737367
1.1737458
1.1736934
1.1737544
1.1736616
1.1737191
1.1736138
1.1736524
1.1736004
1.1736725
1.1736644
1.1737573
1.1738427
1.1738263
1.1737216
1.1736236
1.173765
1.1736987
1.1736601
1.1736072
1.1737147
1.1738208
1.1738062
1.1737062
1.1734808
1.1735329
1.1735184
1.1734574
1.1736394
1.1735212
1.1736721
1.173604
1.1736002
1.1736058
1.173638
1.1736388
1.1735725
1.1735835
1.1735652
1.1736506
1.1736005
1.1735704
1.173599
1.1735563
1.1735714
1.1736912
1.1736062
1.1735851
1.1735561
1.1735505
1.1735014
1.1735909
1.1734747
1.1734624
1.173515
1.1735232
1.1734692
1.17351
1.1734687
1.1735744
1.1735997
1.1736026
1.1737034
1.1736716
1.1735722
1.1736071
1.173561
1.1736793
1.1737422
1.1737509
1.1736096
1.1736048
1.1736116
1.173638
1.1736404
1.1735803
1.1735929
1.1736787
1.1736581
1.1735215
1.1735281
1.1734817
1.1735329
1.1735736
1.1735276
1.173561
1.1735846
1.1736027
1.1736955
1.1735736
1.1735539
1.1735075
1.1735971
1.1734793
1.1734691
1.1734637
1.1734482
1.1734086
1.1734055
1.1735075
1.1735814
1.1736469
1.1735655
1.1736602
1.1735699
1.1735156
1.1735222
1.1735263
1.1735904
1.1735176
1.1736035
1.1736401
1.1735919
1.1735096
1.1735157
1.1735339
1.1734757
1.1735446
1.1734955
1.173556
1.1735264
1.173472
1.1734694
1.1734061
1.1734756
1.1734018
1.1735152
1.1734204
1.1733969
1.173458
1.1734138
1.1734786
1.1735151
1.1735992
1.1734908
1.173493
1.1735256
1.1736341
1.1736269
1.1736852
1.1737131
1.1736826
1.1738084
1.1737598
1.1736882
1.1736309
1.1736006
1.1736573
1.1737587
1.173553
1.1737019
1.1738313
1.1736345
1.173634
1.1734487
1.1735636
1.1735133
1.1733395
1.1732426
1.1735494
1.1739943
1.1736688
1.1738471
1.1738222
1.1738181
1.1736399
1.1736526
1.1735959
1.1735773
1.1735801
1.173884
1.1738008
1.1730425
1.173061
1.1732899
1.1735139
1.1734676
1.1735056
1.1734625
1.1735233
1.1734343
1.1735049
1.1734837
1.1735479
1.1735224
1.1736451
1.1735814
1.1734241
1.1734616
1.1733695
1.1734277
1.1734797
1.1734181
1.173523
1.1735175
1.1735155
1.1734962
1.1733731
1.1734402
1.1734545
1.1735204
1.1734961
1.1735346
1.1736181
1.173616
1.1737158
1.1737349
1.1737062
1.1736856
1.1735843
1.1736268
1.1736531
1.1737055
1.1736718
1.1736418
1.1735732
1.1736139
1.1736749
1.1735232
1.1736435
1.1735613
1.1736343
1.1736207
1.1738066
1.1735427
1.1735346
1.1733814
1.1734564
1.1734731
1.1735416
1.173825
1.1736202
1.173669
1.1731869
1.1736274
1.1734245
1.1732837
1.1731979
1.1735025
1.1739884
1.1738313
1.1729413
1.1729199
1.1732787
1.1730881
1.1734564
1.173307
1.1735362
1.1734762
1.1736631
1.1736015
1.1737055
1.1737289
1.1737206
1.1737374
1.1737558
1.1737053
1.1737304
1.1737026
1.1736742
1.1736361
1.1736423
1.1736913
1.1736452
1.1736058
1.1736854
1.1736626
1.1736308
1.1736633
1.1735686
1.1735594
1.1735964
1.1735476
1.1735369
1.1735981
1.1736174
1.1736487
1.1735627
1.1736573
1.1735985
1.173527
1.1735708
1.1735142
1.173521
1.1734684
1.1735202
1.173507
1.1735814
1.1734917
1.1735115
1.1735967
1.1736398
1.1736164
1.1735263
1.1735194
1.1735402
1.1734808
1.1735434
1.173517
1.1734005
1.1734738
1.1735517
1.173468
1.1734025
1.173403
1.1734012
1.1734141
1.1734606
1.1734751
1.1733655
1.1734454
1.1733219
1.1733313
1.1732394
1.1732658
1.1733496
1.1733525
1.1734186
1.1734178
1.1733577
1.1733915
1.1733368
1.1734281
1.1733434
1.1734011
1.1732066
1.1732868
1.1731584
1.173254
1.1733214
1.1734077
1.1733634
1.1734183
1.1734756
1.1735358
1.173577
1.1736762
1.173599
1.1736207
1.1735271
1.1735988
1.1735957
1.1735484
1.1735029
1.1735609
1.1735
1.1735428
1.1735575
1.1736272
1.1735183
1.1734868
1.1734523
1.1735804
1.1735785
1.1736363
1.173683
1.1736067
1.1735679
1.173518
1.1735303
1.1735497
1.1734746
1.1735065
1.173557
1.1734675
1.1734434
1.1733807
1.1733988
1.1734519
1.173396
1.173508
1.1735341
1.1734141
1.1733699
1.1734555
1.1732465
1.1734196
1.1733423
1.1733036
1.1731809
1.1732958
1.1733646
1.1734504
1.1734186
1.1734641
1.1733869
1.1733348
1.1732735
1.1733747
1.1734215
1.1734766
1.1734445
1.1735121
1.173513
1.1734232
1.1733339
1.1733811
1.1732718
1.1733226
1.1732381
1.1733024
1.1734766
1.1734304
1.1733039
1.1733713
1.1735543
1.173515
1.173681
1.1736127
1.1737169
1.1736855
1.1736725
1.1735422
1.1735565
1.173526
1.1736245
1.1736505
1.1736411
1.1736116
1.1735075
1.1735157
1.1735344
1.1733992
1.173404
1.1734545
1.1734635
1.1735129
1.1735962
1.1735468
1.1734822
1.1734537
1.1734881
1.1734891
1.1734527
1.1734457
1.1734808
1.1735019
1.1735908
1.1735706
1.1734678
1.1734263
1.1735473
1.1735203
1.1733905
1.1733669
1.1734041
1.1734109
1.1735469
1.1734961
1.1734336
1.1734946
1.1733748
1.1733821
1.1734164
1.1733333
1.1733812
1.173429
1.1734242
1.1733731
1.1732756
1.1733409
1.1733484
1.1732897
1.1732227
1.1732011
1.1733195
1.1732675
1.1732858
1.1731633
1.1732248
1.1731564
1.1732893
1.173391
1.1735358
1.1735469
1.1736015
1.1735557
1.1736281
1.173458
1.1734885
1.1734933
1.1734257
1.1734055
1.1735025
1.173487
1.1733731
1.1733518
1.1734998
1.1735223
1.1735737
1.1735581
1.173647
1.1734591
1.1734719
1.173473
1.1733929
1.1733869
1.1735075
1.1734828
1.1733465
1.1732237
1.1732311
1.173264
1.1733319
1.1733573
1.1734122
1.1734008
1.1735165
1.1732705
1.1733264
1.1733321
1.173231
1.1732002
1.1731298
1.1730752
1.1731686
1.1733142
1.1733796
1.173377
1.1735255
1.1732733
1.1732916
1.1732923
1.1731344
1.1731877
1.1732015
1.1732697
1.1733849
1.1730917
1.1733067
1.1732119
1.1731792
1.1730224
1.1731767
1.1730876
1.173151
1.1732364
1.1733066
1.1732052
1.1732926
1.173198
1.1733165
1.1733553
1.1735021
1.1733829
1.1733022
1.1733312
1.1733588
1.1733695
1.1732613
1.1732051
1.1731002
1.1730277
1.1731413
1.1732562
1.1732723
1.1734208
1.1734497
1.1733431
1.1732379
1.1733275
1.1733388
1.1732472
1.1731477
1.1731252
1.1732514
1.1733372
1.1732314
1.1732233
1.1733169
1.1733971
1.1734601
1.1734132
1.1734373
1.1733912
1.1733655
1.1732718
1.1733356
1.1733644
1.1734237
1.1733452
1.1734449
1.1733963
1.1732516
1.1732208
1.1732574
1.1733695
1.1734466
1.1734012
1.1732633
1.173343
1.173318
1.1732258
1.1731196
1.1731605
1.1732748
1.173161
1.1732632
1.1731682
1.1732748
1.1732406
1.1732455
1.1732617
1.1731836
1.1731591
1.1730198
1.173129
1.1731496
1.1730529
1.1731219
1.173008
1.1731021
1.1729766
1.1730831
1.1731839
1.1732631
1.1732553
1.1734274
1.1733035
1.1731912
1.1731105
1.1731777
1.1732881
1.173037
1.1731082
1.1733366
1.1730767
1.17302
1.1731663
1.1727572
1.1728874
1.1729599
1.1727998
1.1729427
1.1730669
1.1729674
1.1730926
1.1729854
1.1728383
1.1726337
1.1728294
1.1727318
1.1729315
1.1728309
1.1730109
1.1730894
1.173055
1.1729625
1.1731334
1.1731256
1.1732583
1.1733119
1.1733392
1.173287
1.1731546
1.1732288
1.1733001
1.173193
1.173157
1.1730151
1.1731255
1.1729931
1.1731173
1.1731199
1.1729946
1.1729873
1.1730343
1.1728897
1.1730471
1.1729088
1.1730577
1.1729293
1.173099
1.1730558
1.1731981
1.1729541
1.1729947
1.1727857
1.1727494
1.1728778
1.1728786
1.1729249
1.1727218
1.1729017
1.1730275
1.1729936
1.1728527
1.1726608
1.1728351
1.1728827
1.1727284
1.172488
1.1723955
1.1726536
1.1725053
1.1727664
1.1725225
1.1728062
1.173041
1.1732077
1.1733331
1.1734982
1.1734485
1.1734038
1.1734564
1.1733077
1.1733226
1.1733452
1.1732337
1.1732019
1.17317
1.1729996
1.1730486
1.1730824
1.1728783
1.1729802
1.173115
1.1730771
1.1729466
1.172735
1.1727694
1.1729224
1.1730785
1.1732153
1.1734827
1.1734036
1.1730079
1.1730605
1.1728699
1.1727694
1.1730218
1.1728477
1.1728365
1.1730693
1.1731598
1.1733066
1.1733134
1.1733914
1.1735076
1.1735452
1.1736732
1.1737304
1.1737883
1.1738448
1.173887
1.1738994
1.1738666
1.1739152
1.1738884
1.1738129
1.1738858
1.1738092
1.1737362
1.1736758
1.1739378
1.1738899
1.1736923
1.1738985
1.1738942
1.1738257
1.1738559
1.1738885
1.1738072
1.173749
1.1737511
1.1730086
1.1729699
1.1729987
1.1731648
1.1728106
1.1706887
1.1703661
1.172728
1.1739437
1.1738685
1.1737518
1.1738151
1.1739027
1.1738411
1.1737866
1.1736574
1.1731245
1.1727634
1.1706237
1.1704059
1.172666
1.1729868
1.1727142
1.1728277
1.1738393
1.1738892
1.1736384
1.1737048
1.1738705
1.1738299
1.1737394
1.1737409
1.1736513
1.1723238
1.1698191
1.1695021
1.1726866
1.1738204
1.1738317
1.1737865
1.1738701
1.1737892
1.1737974
1.1738752
1.1737696
1.1737951
1.1738399
1.1738233
1.1737442
1.1737563
1.1736815
1.1736764
1.1736987
1.173725
1.173685
1.1736913
1.1737451
1.1737734
1.1738305
1.1737431
1.173706
1.1736572
1.1737362
1.1737453
1.1737375
1.1737216
1.1736127
1.1736421
1.1736516
1.1736269
1.1736869
1.1737185
1.1737062
1.1736041
1.1736166
1.1735618
1.1735317
1.1735106
1.1735183
1.1735391
1.173573
1.1736649
1.1736337
1.1736874
1.1737082
1.1736315
1.1735901
1.1736207
1.1737164
1.1736646
1.1736856
1.1736086
1.1736009
1.1735654
1.1734445
1.1734567
1.1734115
1.1734183
1.173399
1.1733976
1.1734126
1.1734582
1.1734437
1.1732693
1.1732767
1.1732963
1.1732894
1.1731486
1.173159
1.173116
1.1731038
1.172893
1.1729035
1.1729754
1.172966
1.1726716
1.1726933
1.1728355
1.1727503
1.1724984
1.1725946
1.1726257
1.1722614
1.1726022
1.1723542
1.1725173
1.1726726
1.1728792
1.1727254
1.1728763
1.1733306
1.1731285
1.1728322
1.1725707
1.172671
1.1729183
1.1724375
1.172583
1.1723137
1.1726886
1.1729735
1.17296
1.1731294
1.1734258
1.1729918
1.1731273
1.1726367
1.172189
1.1722038
1.17236
1.1731107
1.1726351
1.1732487
1.1729397
1.1732436
1.173171
1.1733638
1.1732928
1.1734401
1.1734351
1.1733621
1.1734342
1.1734918
1.17355
1.1735871
1.17361
1.1735422
1.1736254
1.1736024
1.1735727
1.1735111
1.1735438
1.1735087
1.1734754
1.1734008
1.1734337
1.1733865
1.1734669
1.1735205
1.1735662
1.1736068
1.1735241
1.173423
1.1734733
1.1734302
1.1734934
1.1735472
1.17365
1.1736937
1.1735687
1.1734978
1.1736129
1.1735741
1.1735365
1.1734623
1.1734926
1.1735916
1.1735456
1.1735562
1.1734955
1.1734334
1.1733545
1.1733034
1.1733977
1.173466
1.1735913
1.1735855
1.1735566
1.1736853
1.1736634
1.173698
1.1737004
1.1737157
1.1737775
1.1738517
1.1738714
1.1738712
1.1738585
1.1738701
1.1738477
1.1738433
1.1738374
1.1738589
1.1737806
1.1738176
1.1737618
1.1736958
1.1736658
1.1737399
1.1737444
1.1738254
1.1737078
1.1736639
1.1736664
1.17373
1.1737853
1.1738632
1.1737526
1.1737848
1.1736659
1.1737151
1.1738163
1.1737581
1.1736761
1.173621
1.1736012
1.1735951
1.1735933
1.1735293
1.1735382
1.1734936
1.173518
1.1736206
1.1736404
1.1735156
1.1735559
1.1734573
1.1734535
1.1735382
1.1734802
1.1734594
1.1734544
1.1734422
1.1734588
1.1734955
1.173588
1.1735534
1.1735422
1.1734165
1.1734017
1.1734157
1.1735515
1.1735065
1.1734264
1.1733931
1.1734331
1.1735136
1.1735171
1.1735652
1.1736212
1.1736948
1.173541
1.1735165
1.1735113
1.173563
1.1736317
1.1734829
1.173546
1.1735788
1.1735341
1.1735758
1.1734622
1.1733501
1.1734175
1.1734729
1.1734098
1.1734455
1.173354
1.1733103
1.1732609
1.1733614
1.1734384
1.1734117
1.1735522
1.1734884
1.1735079
1.1734273
1.1734485
1.1733954
1.1734512
1.1733804
1.1734198
1.1733267
1.1733768
1.1734406
1.1733715
1.1733045
1.1733286
1.1732081
1.1732822
1.1732534
1.1731807
1.1731371
1.1732796
1.1733721
1.1733923
1.1733367
1.1733614
1.1734638
1.1735059
1.1734853
1.1733801
1.1733632
1.173392
1.1734978
1.173378
1.17328
1.1733331
1.1733846
1.1734329
1.1733609
1.1733377
1.1733485
1.1734295
1.1734378
1.1733597
1.1733064
1.173393
1.1733801
1.1732872
1.1732756
1.1733661
1.1733161
1.173333
1.173353
1.1732492
1.1732206
1.173159
1.1732852
1.1733101
1.173196
1.1730706
1.1731337
1.1732096
1.1732778
1.1733249
1.173382
1.173282
1.1732237
1.1731512
1.1732645
1.1733245
1.173398
1.1733328
1.1732805
1.1733388
1.1732238
1.1732747
1.1731905
1.1731379
1.1730669
1.1731472
1.1733727
1.1733467
1.1732593
1.1733462
1.1733229
1.1732372
1.17316
1.17324
1.1730946
1.1731351
1.1730151
1.1729613
1.1728384
1.1730053
1.1733907
1.1732859
1.1731622
1.1732757
1.1732683
1.1731514
1.1731041
1.1732327
1.1729586
1.1729895
1.1727909
1.1727114
1.1725799
1.1727235
1.1733536
1.1731854
1.1730813
1.1732277
1.1733469
1.1734233
1.1734953
1.173594
1.1736772
1.1735035
1.1734784
1.1736457
1.173561
1.1734919
1.1734046
1.1734154
1.173541
1.1735165
1.1734796
1.1735082
1.1735175
1.1735696
1.1736554
1.1736235
1.1738102
1.1737746
1.1735688
1.1735469
1.1735442
1.1736201
1.1738206
1.173614
1.1739303
1.1738604
1.1736851
1.1729807
1.1729339
1.173407
1.173429
1.1731483
1.1734121
1.1731024
1.1736422
1.1734935
1.1737332
1.1737235
1.1737751
1.1736382
1.1736167
1.17354
1.1735681
1.1736237
1.1737681
1.1735734
1.173518
1.1733278
1.1732061
1.1734235
1.1734751
1.1734036
1.1734235
1.1733649
1.1734527
1.1734158
1.1734708
1.1734736
1.1734887
1.1733269
1.1733647
1.1735625
1.1735528
1.1734182
1.1733467
1.1732177
1.1732293
1.1733592
1.1733481
1.1732683
1.173362
1.1732988
1.1733116
1.1734277
1.1734038
1.1734462
1.1733149
1.1733424
1.1733221
1.1734028
1.1734963
1.1733346
1.1733001
1.173449
1.1733441
1.17329
1.1731703
1.173212
1.1732646
1.1731368
1.1732057
1.1732239
1.1732957
1.1731936
1.1732739
1.1732464
1.1732577
1.173142
1.1731662
1.1730802
1.1730422
1.1731803
1.1731685
1.1730269
1.173132
1.1731687
1.1730589
1.1729162
1.1730491
1.1730024
1.1730096
1.1730463
1.1731123
1.1732027
1.1730778
1.1729789
1.1728659
1.1730216
1.1731186
1.1732115
1.1731507
1.1732814
1.1731966
1.1730577
1.1729909
1.173146
1.1732328
1.173084
1.1729619
1.1730384
1.1728987
1.1726955
1.1728569
1.1729711
1.1728488
1.1729704
1.1730711
1.1729796
1.1729009
1.1729976
1.1732004
1.1732974
1.1739176
1.1727805
1.1734461
1.1730632
1.1726748
1.1730869
1.1734968
1.1723281
1.1727487
1.1743775
1.1728292
1.1725229
1.1735595
1.1709216
1.1710882
1.1719009
1.1713457
1.1721603
1.1729027
1.1743629
1.1725255
1.1727578
1.1712136
1.1736904
1.1726976
1.171458
1.1688269
1.1699906
1.1745316
1.1693351
1.1682398
1.1636355
1.1619097
1.1625322
1.1698614
1.1712305
1.1737643
1.1730458
1.1738724
1.173563
1.173817
1.1736306
1.1736385
1.1738428
1.1736362
1.1735651
1.1735569
1.1734323
1.1734563
1.1739726
1.1734566
1.1731833
1.1730449
1.1731753
1.173013
1.1734391
1.1732798
1.1735302
1.1734619
1.1736468
1.1735585
1.1735778
1.1736667
1.1734808
1.173477
1.1734769
1.1733844
1.1733858
1.1735402
1.1733142
1.1733003
1.173304
1.173172
1.1730855
1.1732328
1.1733523
1.1734835
1.1735047
1.1735266
1.1733984
1.1733581
1.1733851
1.173493
1.1735071
1.17356
1.1736281
1.1736844
1.1736066
1.1735009
1.1734963
1.1734629
1.1735227
1.1735595
1.1735171
1.1734118
1.173423
1.1733457
1.1733413
1.1732791
1.1733826
1.1733203
1.1735128
1.1734841
1.1736114
1.1736459
1.1737456
1.1737433
1.1738028
1.1736746
1.1736164
1.1735783
1.1735262
1.1736729
1.1738163
1.173666
1.1735899
1.17319
1.1732926
1.1734787
1.1735437
1.1734252
1.1736096
1.1734812
1.1737101
1.1736184
1.1737626
1.1737196
1.1737948
1.1738
1.1738513
1.1738118
1.1737578
1.1737559
1.1737822
1.1737929
1.1737882
1.1738255
1.1738324
1.1738864
1.1738488
1.173775
1.1738437
1.1737757
1.1738053
1.1737629
1.1737266
1.1737254
1.1737622
1.1738408
1.1737656
1.1737541
1.1736965
1.1736553
1.1736619
1.1737179
1.1738273
1.1738491
1.1738206
1.17382
1.1738094
1.1738186
1.1736721
1.1736045
1.1735367
1.1736069
1.1737081
1.173617
1.1737213
1.1736635
1.1737536
1.1738395
1.1737579
1.1736932
1.1736566
1.1735299
1.1736035
1.1736974
1.1737032
1.1737456
1.1736792
1.1737289
1.17372
1.1737567
1.173729
1.1737645
1.1736842
1.1736796
1.1736558
1.1736389
1.1736765
1.1737029
1.1737286
1.173727
1.1737053
1.1736434
1.1736891
1.1736463
1.1735332
1.1735189
1.1734732
1.1734631
1.1734154
1.1734082
1.1733688
1.1733632
1.1733479
1.1733449
1.1733572
1.1733592
1.1734773
1.1735041
1.1733498
1.1733251
1.173297
1.1733203
1.1732932
1.1734696
1.1734602
1.1732862
1.1732605
1.1732667
1.1731032
1.1731569
1.1731989
1.1732312
1.1731849
1.1730103
1.1730731
1.173036
1.1729868
1.1728905
1.1729427
1.1731416
1.1731341
1.1730958
1.1728994
1.1729592
1.1726434
1.1725913
1.1727626
1.1728671
1.1728026
1.1727296
1.1724993
1.1725204
1.1726064
1.1725127
1.1722657
1.1720488
1.1724907
1.1725413
1.172505
1.1720679
1.1721148
1.172348
1.1725657
1.1725545
1.1727417
1.1730065
1.1730293
1.1731514
1.1731465
1.1734633
1.1730974
1.1729898
1.1729976
1.1727823
1.1726056
1.1728659
1.1728743
1.1730917
1.1732408
1.1733215
1.1731802
1.1732204
1.1733446
1.1734153
1.1734358
1.1735527
1.1735421
1.1734023
1.1733049
1.1732813
1.1731575
1.1731806
1.1732499
1.1733697
1.1733949
1.1734558
1.1735204
1.1735753
1.1736404
1.1736856
1.1735567
1.1735382
1.1735264
1.1734551
1.1734778
1.1735626
1.1734403
1.1734116
1.173395
1.173292
1.1732498
1.1733508
1.1734356
1.1735219
1.1735855
1.1735841
1.1734864
1.173463
1.1734961
1.1735656
1.1735519
1.1736066
1.1736275
1.173707
1.1736783
1.173583
1.1735676
1.1735363
1.1736033
1.1735995
1.1735549
1.1735119
1.1735427
1.1734842
1.173462
1.1734098
1.1735136
1.1735377
1.1734649
1.1734833
1.1733958
1.1734892
1.1734056
1.1732094
1.1732205
1.173102
1.1730897
1.1730246
1.173229
1.173338
1.1731408
1.1732949
1.1727151
1.1727119
1.1723165
1.1722933
1.1725959
1.1723468
1.171995
1.1725185
1.172797
1.1730393
1.1731049
1.1729857
1.1730129
1.1731391
1.1729581
1.1729119
1.1727958
1.172612
1.1722071
1.1721637
1.1720527
1.1721212
1.1724274
1.1724775
1.172133
1.1724244
1.1722861
1.1726483
1.1724708
1.1723859
1.1717586
1.1719381
1.1714884
1.1720525
1.1718014
1.1722292
1.1720729
1.1720712
1.1715359
1.1722342
1.1721808
1.1724688
1.1726542
1.1728478
1.1726433
1.1728292
1.172637
1.1728343
1.1728443
1.1728935
1.1727563
1.1729386
1.1728869
1.1726871
1.1726582
1.1728701
1.1727006
1.1728978
1.173078
1.1730931
1.1729195
1.1729733
1.1728888
1.1728191
1.1730191
1.1729932
1.1730097
1.1731029
1.1729287
1.1727889
1.1727776
1.1725583
1.1726127
1.1727256
1.1727963
1.1725543
1.1724586
1.1723098
1.1724232
1.1726999
1.17282
1.1725874
1.1727488
1.1725618
1.172858
1.1730148
1.1731945
1.1730718
1.1728704
1.1728275
1.1730452
1.1731656
1.1729675
1.1727952
1.1725935
1.1726422
1.1722918
1.1721808
1.1724362
1.1721727
1.17267
1.1728967
1.1731312
1.1729816
1.1727046
1.1726892
1.1729774
1.1731254
1.1730208
1.173039
1.1730959
1.1731327
1.1732707
1.1732375
1.1730835
1.1730387
1.1732019
1.1732404
1.1732088
1.1731622
1.1732848
1.1734644
1.1734285
1.1733928
1.1734016
1.1734842
1.1735989
1.1735975
1.1736211
1.1734886
1.1733565
1.1734538
1.1732644
1.1732566
1.1732406
1.1733217
1.1734221
1.1732456
1.1731025
1.1731279
1.1731758
1.1732245
1.1730645
1.1731498
1.1731909
1.1732622
1.1733281
1.1733842
1.1734364
1.1734373
1.1735464
1.1736761
1.1737221
1.1737583
1.1737997
1.1738268
1.173843
1.1738598
1.1738439
1.1738205
1.1738278
1.1738057
1.1737554
1.1737946
1.1737775
1.1737198
1.1736717
1.1737364
1.1737841
1.1737038
1.173728
1.1737351
1.1736557
1.1736522
1.1736537
1.1737141
1.17369
1.1737285
1.1737286
1.1737931
1.1737576
1.1737618
1.1737037
1.1736828
1.1737713
1.1737811
1.1738155
1.173785
1.1737948
1.1737934
1.1738143
1.1738159
1.173798
1.1737546
1.1737818
1.1738235
1.1737998
1.1737975
1.1737681
1.1737948
1.1738181
1.1738329
1.1738364
1.1737951
1.1738167
1.1737987
1.1738304
1.17381
1.1738101
1.1738008
1.1738099
1.1738006
1.1738384
1.1738226
1.1737822
1.1737532
1.1737444
1.1737627
1.1737682
1.1736664
1.1737548
1.1737392
1.1737793
1.1737962
1.1737909
1.1737457
1.1736757
1.1737311
1.1737253
1.1736652
1.1736625
1.1736629
1.1737407
1.1737011
1.1737399
1.1737163
1.1737099
1.173761
1.1737712
1.1737781
1.1737977
1.1737369
1.1736932
1.1736898
1.1736171
1.1735383
1.1736416
1.1736534
1.1735407
1.1735455
1.1735351
1.1736449
1.1735854
1.1736085
1.1735978
1.1735702
1.1736628
1.1737035
1.1736529
1.1737038
1.1736003
1.17354
1.1736829
1.1735489
1.1734839
1.1735677
1.1735364
1.1734918
1.173444
1.1734418
1.1735919
1.1734981
1.1735404
1.1735677
1.1736195
1.1736203
1.1736819
1.1735415
1.1734589
1.1735951
1.1736811
1.1736865
1.1736117
1.1735364
1.1736398
1.1736378
1.1735277
1.173536
1.1735265
1.1736372
1.1735742
1.1735952
1.1735897
1.173565
1.1736587
1.1736953
1.1736388
1.1736865
1.1735802
1.1735432
1.1736643
1.1736937
1.1737151
1.1736337
1.1736183
1.1735824
1.1736017
1.1736805
1.1736363
1.1736992
1.173714
1.1736018
1.1736447
1.1736022
1.1736857
1.1736897
1.1737903
1.1736797
1.173737
1.1737519
1.1736883
1.1737364
1.1737083
1.1736634
1.1736601
1.1735966
1.1736168
1.1735336
1.1735664
1.1734818
1.1734828
1.1735252
1.1734881
1.1735875
1.1735331
1.1736758
1.1735889
1.1736048
1.173554
1.1735274
1.1734824
1.1734532
1.1734922
1.1734995
1.1733783
1.1734924
1.173439
1.1733775
1.1733038
1.1733209
1.173508
1.1733856
1.1734541
1.1734952
1.1735671
1.1736032
1.1736489
1.1736544
1.1736785
1.1736637
1.1736116
1.1736932
1.1737517
1.1737224
1.1737596
1.1736735
1.1736072
1.1736938
1.1737924
1.1737576
1.1736764
1.1737288
1.1737935
1.1737371
1.1737502
1.1737497
1.1738059
1.1737838
1.17378
1.1737403
1.1736912
1.1736793
1.1737053
1.1737084
1.1737613
1.1736524
1.1735685
1.1736652
1.1737529
1.1736839
1.1737585
1.1738255
1.1737964
1.1737514
1.1737407
1.1737374
1.173746
1.1736933
1.1737774
1.1737551
1.1737804
1.1737903
1.1738201
1.1738298
1.1737963
1.1738012
1.1737612
1.1738004
1.1737848
1.1738009
1.1737783
1.1738061
1.1738068
1.1738262
1.1738242
1.173787
1.1737767
1.1738022
1.1737797
1.1737575
1.1737327
1.1737946
1.1738195
1.1738256
1.1738339
1.1738094
1.1738047
1.1738063
1.1737617
1.1738198
1.1738449
1.1738113
1.1738489
1.1738493
1.1737807
1.1738334
1.1738352
1.1738409
1.1738505
1.173859
1.1738151
1.1738787
1.1738869
1.1738611
1.1737838
1.1738306
1.1738534
1.1738271
1.1738403
1.1737796
1.1738076
1.1738161
1.1737704
1.1738008
1.1738437
1.1738025
1.1738404
1.1737715
1.1737526
1.1737223
1.1737236
1.1737994
1.1737718
1.1737813
1.1737201
1.1737364
1.1737264
1.1736907
1.1736755
1.1737559
1.1736408
1.1736338
1.1736387
1.1736189
1.1736461
1.1736142
1.1736403
1.1736616
1.1735299
1.1735979
1.173603
1.1735047
1.1735021
1.1735412
1.1735114
1.1734702
1.173466
1.1734481
1.1735658
1.1734742
1.173431
1.1733938
1.1734006
1.17355
1.1734415
1.1734844
1.1735123
1.1735431
1.1735665
1.1735203
1.1734895
1.1734422
1.173402
1.1734525
1.1733879
1.173441
1.1734882
1.1735578
1.1735791
1.1735577
1.173595
1.1735684
1.1736166
1.1734959
1.1734739
1.1736284
1.1735468
1.1734984
1.173527
1.1734561
1.1734933
1.173448
1.1735233
1.1734839
1.1734001
1.1733288
1.1734084
1.1733537
1.1733033
1.1733642
1.1732654
1.1733476
1.1734196
1.1733762
1.1734509
1.1734473
1.1736094
1.1736637
1.1736937
1.1737658
1.1736544
1.1736703
1.1737481
1.1737568
1.1737536
1.1737342
1.1737361
1.1736459
1.1736542
1.1735665
1.1735868
1.1735466
1.17352
1.1735888
1.1736748
1.1736862
1.1735424
1.1735773
1.1735729
1.1736143
1.1737264
1.1736874
1.1736951
1.1736885
1.173635
1.173609
1.1736747
1.1736785
1.1736824
1.1736941
1.1737375
1.1737471
1.1738212
1.1737363
1.1737678
1.1737846
1.1737889
1.1737451
1.1736738
1.1736615
1.1735595
1.1735738
1.1736402
1.173466
1.1735115
1.1733243
1.1733773
1.1733705
1.1734292
1.1733787
1.1732998
1.1732232
1.1732854
1.1733859
1.1733227
1.1732271
1.1731203
1.1732332
1.173316
1.1734068
1.1734272
1.1734658
1.1736392
1.1735756
1.1735454
1.1735179
1.1735338
1.1735084
1.173534
1.1735529
1.1736128
1.1736812
1.17369
1.1737535
1.1736218
1.1736067
1.1736017
1.1735876
1.1736247
1.1737537
1.173663
1.1736949
1.1736275
1.1736183
1.1737013
1.1737655
1.1737491
1.1737996
1.1737464
1.1738425
1.1737713
1.1737371
1.1737668
1.1738415
1.1738153
1.173755
1.173736
1.1737376
1.1737335
1.1737183
1.1737281
1.1736777
1.1737358
1.1737672
1.1737702
1.1737819
1.1737083
1.1737276
1.1737227
1.1737742
1.1737656
1.1737867
1.1737923
1.1737336
1.1736712
1.1735945
1.1736136
1.1735948
1.1735234
1.1734414
1.1733786
1.1733096
1.1732234
1.1733121
1.1732269
1.1733184
1.1732425
1.1731288
1.1730282
1.1731358
1.1732496
1.1731594
1.1730157
1.1728919
1.1727125
1.1724784
1.172752
1.1725768
1.172223
1.1722252
1.1724164
1.1720861
1.1724134
1.1724563
1.1726479
1.1727141
1.1728184
1.1726603
1.1728264
1.172686
1.1725049
1.1726824
1.1724651
1.1727077
1.1728559
1.1732733
1.1729954
1.1728701
1.1729967
1.1727063
1.1728067
1.1727086
1.1725994
1.1725174
1.1727271
1.1731018
1.1725355
1.1727291
1.1726398
1.1727815
1.1730243
1.1725633
1.1727788
1.1724757
1.1724226
1.1724451
1.1721996
1.1723445
1.1725094
1.1726523
1.1724004
1.1722699
1.1720919
1.1722063
1.1724898
1.1723078
1.1725113
1.172234
1.1721032
1.1723471
1.1725893
1.1723753
1.1722268
1.1718373
1.171905
1.1718228
1.1717905
1.1721714
1.1717062
1.1717168
1.1718918
1.1721745
1.1724197
1.1722171
1.171869
1.1722348
1.1727895
1.171669
1.1719129
1.1712469
1.1718174
1.1714951
1.171015
1.170944
1.1710046
1.1724964
1.1718635
1.1731173
1.1720588
1.1715895
1.1716123
1.1720678
1.1728035
1.1723255
1.1727617
1.1731464
1.1728125
1.1733133
1.1725409
1.1723012
1.1719825
1.172362
1.1727873
1.1718027
1.1720349
1.1717446
1.1721131
1.1720699
1.1716979
1.171379
1.1716289
1.1725675
1.1719596
1.1731833
1.1719651
1.1724902
1.1728406
1.172829
1.1730849
1.1732302
1.1731237
1.1728819
1.1726318
1.1723594
1.1723864
1.1717539
1.1716753
1.1720874
1.1724443
1.172417
1.173253
1.1731044
1.1730914
1.1730538
1.1732086
1.1733312
1.1734081
1.1734833
1.1734775
1.1734785
1.1736559
1.1735705
1.1734782
1.1733954
1.1733977
1.1733541
1.1734893
1.1734911
1.1735176
1.1734985
1.1735343
1.1736712
1.1736656
1.1737039
1.1736899
1.1737257
1.1737163
1.1737031
1.1736217
1.1734784
1.1734901
1.1736254
1.1736041
1.1734935
1.1735196
1.1736061
1.1736669
1.1735534
1.1735794
1.1736974
1.1737175
1.1737024
1.173734
1.1738016
1.1737324
1.1736436
1.1736382
1.1736593
1.1736344
1.1735201
1.1735567
1.1735529
1.1735918
1.1736134
1.1736935
1.1737414
1.173701
1.1737487
1.1737935
1.1737398
1.1737823
1.1738331
1.1737465
1.1737731
1.1736849
1.1736944
1.1736862
1.1737516
1.1738332
1.1737292
1.1738198
1.1737298
1.1737906
1.1735541
1.1736021
1.1736553
1.1737233
1.1737358
1.1736673
1.1736038
1.1736108
1.1735296
1.173649
1.1737495
1.1733639
1.1734339
1.1735172
1.1736336
1.1737771
1.1736635
1.1737843
1.1738292
1.1738012
1.1738199
1.1738785
1.1738145
1.1737727
1.1737791
1.173768
1.1737018
1.173684
1.1737095
1.1736714
1.1735983
1.1736453
1.1735949
1.1736342
1.1736406
1.1736396
1.1736012
1.1736828
1.1735922
1.1736626
1.1735926
1.1736645
1.1736261
1.1735527
1.1734808
1.1734568
1.173495
1.1734788
1.1735879
1.1735323
1.1735167
1.1734774
1.1733594
1.1733522
1.1732539
1.1732585
1.17334
1.1732047
1.1731101
1.1731048
1.173198
1.1733347
1.1733999
1.1735419
1.1735459
1.1733231
1.1733256
1.1733188
1.1733268
1.1734021
1.1735178
1.1732833
1.1733478
1.1735348
1.1734021
1.1733201
1.1732165
1.173202
1.1733339
1.1733958
1.1734065
1.1733693
1.1732753
1.1732632
1.173125
1.1731397
1.1730591
1.1730354
1.1730042
1.1730041
1.1731837
1.1731945
1.173146
1.173271
1.1732615
1.1734376
1.1734379
1.173402
1.1732898
1.1732902
1.1732625
1.1732319
1.1732297
1.1733293
1.1734293
1.1732335
1.1732387
1.1734271
1.1733283
1.1733272
1.173433
1.173391
1.1733008