/*--------------------------------*- C++ -*----------------------------------*\
  =========                 |
  \\      /  F ield         | OpenFOAM: The Open Source CFD Toolbox
   \\    /   O peration     | Website:  https://openfoam.org
    \\  /    A nd           | Version:  7
     \\/     M anipulation  |
\*---------------------------------------------------------------------------*/
FoamFile
{
    version     2.0;
    format      ascii;
    class       volVectorField;
    location    "480";
    object      U;
}
// * * * * * * * * * * * * * * * * * * * * * * * * * * * * * * * * * * * * * //

dimensions      [0 1 -1 0 0 0 0];

internalField   nonuniform List<vector> 
25278
(
(120.02839 0.0072009959 0.0069602931)
(120.01632 -0.0044336891 -0.020647329)
(120.01576 -0.0037754864 -0.0081531527)
(120.01641 -0.007637697 -0.0063515968)
(119.98608 -0.021986282 -0.010425564)
(120.01827 -0.022705393 -0.0084932225)
(120.03452 0.0045648602 0.00039281599)
(120.02902 0.0074131582 0.0057789728)
(120.03234 0.0021151811 0.0054322331)
(120.03862 0.00069210054 -0.0041470601)
(120.03587 -0.00084058092 -0.0025651191)
(120.03062 0.0027988708 0.00095908319)
(120.02247 -0.0084836203 -0.01095619)
(120.00724 -0.014891456 -0.017788901)
(119.87953 -0.035789295 -0.063759497)
(120.01635 0.0029588359 -0.010284593)
(120.01645 0.0018145619 -0.021709805)
(119.9109 -0.051409078 -0.087679761)
(119.85265 -0.020912674 -0.12881747)
(119.94178 -0.029872887 -0.1177839)
(119.99102 -0.0120295 -0.065552828)
(119.99715 -0.022335511 -0.049149855)
(120.00383 -0.023052896 -0.033533417)
(120.02702 -0.015979259 -0.023192411)
(120.03674 -0.032781839 -0.038075489)
(120.02798 -0.021428543 -0.020435987)
(120.00448 -0.031464873 -0.028206903)
(119.99499 -0.048469999 -0.054491748)
(119.96997 -0.043845872 -0.07581656)
(119.99947 -0.045685791 -0.077894482)
(119.99686 -0.045463309 -0.098387436)
(119.95707 -0.043711431 -0.10127824)
(119.93297 -0.084228528 -0.15107915)
(119.95281 -0.078385397 -0.10704027)
(119.99779 -0.075437083 -0.11065245)
(119.98275 -0.069015479 -0.12796681)
(120.00544 -0.067679414 -0.12670916)
(120.00271 -0.066425797 -0.14866792)
(119.97391 -0.066640864 -0.15197604)
(119.95902 -0.09578325 -0.18650409)
(119.9699 -0.096661552 -0.15229811)
(120.0025 -0.093360092 -0.15218257)
(119.99813 -0.09273028 -0.18103457)
(120.03924 -0.086224635 -0.16483881)
(120.03231 -0.060284141 -0.13472217)
(120.03544 -0.036777716 -0.08099879)
(120.02986 -0.014001286 -0.035247302)
(120.03386 -0.010470093 -0.048812355)
(120.03725 -0.028942011 -0.10025934)
(119.98822 -0.034070831 -0.12015136)
(119.9812 -0.014081844 -0.13588257)
(119.92932 -0.011444259 -0.1288839)
(119.86439 -0.021055795 -0.21597709)
(119.89913 -0.06211913 -0.1996136)
(119.96355 -0.059029962 -0.16970266)
(119.99559 -0.060072278 -0.16986088)
(119.98848 -0.048373161 -0.19359168)
(119.95103 -0.044791312 -0.19278782)
(119.92127 -0.069917991 -0.24887127)
(119.94143 -0.088154815 -0.21537678)
(119.98447 -0.088067657 -0.21632945)
(119.97241 -0.073118327 -0.24923762)
(119.95349 -0.049574359 -0.27554238)
(119.97976 -0.032140426 -0.20891663)
(119.94012 -0.029113664 -0.20179652)
(119.93336 -0.010245036 -0.21207636)
(119.97532 -0.01157737 -0.219888)
(119.94562 -0.017839874 -0.29034907)
(119.88707 -0.017155541 -0.27755851)
(119.89879 -0.045452237 -0.2631058)
(119.81829 -0.064721117 -0.33247068)
(119.86182 -0.097766858 -0.31365384)
(119.89807 -0.12144012 -0.26317781)
(119.92672 -0.1312737 -0.22340747)
(119.94863 -0.12411163 -0.17476016)
(119.9831 -0.12456958 -0.13579817)
(119.99833 -0.10425756 -0.086992407)
(120.00038 -0.074875221 -0.0560694)
(119.99847 -0.049695541 -0.030521045)
(119.96543 -0.046259365 -0.031077027)
(119.94513 -0.034106295 -0.025001275)
(119.88155 -0.0609768 -0.045270453)
(119.91248 -0.084353464 -0.061812142)
(119.85855 -0.13560959 -0.037215596)
(119.95222 -0.062496092 -0.021238247)
(119.92799 -0.043709148 -0.016482773)
(119.82339 -0.097173868 -0.02526227)
(119.61531 -0.13068905 -0.066596508)
(119.72149 -0.085601986 -0.085221011)
(119.81344 -0.064081431 -0.071330349)
(119.82704 -0.082471121 -0.090271517)
(119.73167 -0.095366693 -0.10835344)
(119.71718 -0.073878561 -0.089757009)
(119.54871 -0.12254136 -0.13155831)
(119.57152 -0.13980844 -0.15109263)
(119.73621 -0.10282468 -0.10748499)
(119.76306 -0.12370187 -0.12192628)
(119.84715 -0.091286919 -0.099765943)
(119.87298 -0.11336466 -0.12274062)
(119.79002 -0.13796095 -0.1681432)
(119.75886 -0.10904624 -0.13026739)
(119.59377 -0.17531029 -0.18791833)
(119.63246 -0.22020277 -0.2321166)
(119.79406 -0.16030929 -0.15100542)
(119.70443 -0.24508747 -0.12227611)
(119.66783 -0.18732192 -0.095278841)
(119.63492 -0.15460526 -0.08387684)
(119.28735 -0.28375238 -0.12262045)
(119.25297 -0.24081486 -0.1109145)
(118.91294 -0.25415295 -0.055297526)
(119.51122 -0.11786868 -0.02711209)
(119.52804 -0.12960626 -0.03496189)
(118.93727 -0.28804032 -0.066306637)
(118.93906 -0.36996152 -0.093793009)
(119.32011 -0.3578257 -0.14419522)
(119.38183 -0.43922032 -0.19592177)
(118.95256 -0.4865659 -0.15069854)
(119.59179 -0.23178111 -0.060181753)
(119.56236 -0.15515536 -0.04192702)
(119.55233 -0.18101095 0.0074537006)
(119.85635 -0.15887264 0.013918305)
(119.95319 -0.071424253 0.0026522576)
(119.98722 -0.027243428 0.0017316922)
(119.69101 -0.11509771 0.12115973)
(119.50984 -0.18098188 0.16439612)
(119.20988 -0.31610595 0.12762511)
(118.89 -0.29772987 0.022373587)
(119.50147 -0.13737292 0.0011271304)
(119.81864 -0.11811815 0.0055317509)
(119.92744 -0.052716829 -0.00058526539)
(119.94493 -0.049710209 0.019905478)
(119.9673 -0.061689413 0.025660017)
(119.91088 -0.11514787 0.065167681)
(119.87624 -0.090499741 0.049733474)
(119.70053 -0.13020739 0.10059478)
(119.59543 -0.17713551 0.066499836)
(119.61513 -0.20625277 0.084783455)
(119.51813 -0.15221608 0.0037323895)
(118.91172 -0.34149278 0.028815884)
(119.24315 -0.36619096 0.14264483)
(119.27482 -0.44749019 0.17325822)
(118.90969 -0.43309018 0.049758933)
(118.91934 -0.56403437 0.099109468)
(119.58178 -0.26535782 0.019681833)
(119.68549 -0.30627593 0.12546318)
(119.6492 -0.24189999 0.096613293)
(119.74567 -0.17477557 0.13906658)
(119.71595 -0.15144429 0.12425066)
(119.53197 -0.20404274 0.18530558)
(119.70598 -0.13966252 0.14219049)
(119.8716 -0.059227737 0.085711424)
(119.79896 -0.10047144 0.091358667)
(119.81419 -0.1210753 0.11233135)
(119.83671 -0.12993907 0.12191065)
(119.90802 -0.074560914 0.11002399)
(119.86481 -0.15407103 0.14647714)
(119.77875 -0.21644951 0.17052479)
(119.59357 -0.29334479 0.2740016)
(119.33308 -0.53839905 0.23410879)
(118.48541 -0.61629385 0.58758453)
(116.23034 -0.51286745 0.67301893)
(116.31362 -0.43099797 -0.79825167)
(118.60939 -0.47173005 -0.49618649)
(119.35652 -0.18927868 -0.44991484)
(119.6892 -0.1080048 -0.24860774)
(119.65367 -0.080345493 -0.18816989)
(119.53675 -0.013726165 -0.14141172)
(119.56211 -0.029632781 -0.22008991)
(118.86484 -0.10380583 -0.46944507)
(118.8625 -0.050147414 -0.34358187)
(119.29758 -0.13643192 -0.36225059)
(118.44768 -0.38460902 -0.40461709)
(116.18218 -0.45729705 -0.23615214)
(116.03564 -0.66004897 -0.41281349)
(103.4634 -1.6009018 -1.4812203)
(105.17256 -1.1726312 -1.0661477)
(116.40182 -0.2788888 -0.58845024)
(116.32638 -0.36065023 0.47677172)
(105.46014 -1.4596864 1.2438089)
(103.73959 -1.9796328 1.6555826)
(115.73719 -0.91434138 0.3984254)
(115.93434 -0.70231102 0.26554731)
(118.33691 -0.51700023 0.47905636)
(119.22364 -0.18620152 0.42941699)
(119.55396 -0.24501989 0.22500624)
(119.73556 -0.15348022 0.16586166)
(119.76807 -0.18424918 0.20732266)
(119.65107 -0.14152071 0.30373716)
(119.28074 -0.24083151 0.51869182)
(118.73346 -0.1650668 0.54707976)
(118.75182 -0.10648595 0.42501064)
(119.48675 -0.042895868 0.18383691)
(119.84099 -0.035222612 0.16329744)
(119.61588 -0.11433988 0.23864195)
(119.50866 -0.058950614 0.26689461)
(119.61122 -0.075742499 0.36436421)
(118.805 -0.25514084 0.71044431)
(115.55544 -1.1552259 0.83010129)
(101.54142 -2.7543221 2.2282177)
(101.26903 -2.2058291 -2.1056549)
(115.93671 -0.92817004 -0.80508437)
(118.94922 -0.18697566 -0.63496094)
(119.66262 -0.047657046 -0.30755446)
(119.77741 -0.1257402 -0.29317761)
(119.86127 -0.14839561 -0.19603426)
(119.92188 -0.11742534 -0.12768611)
(119.95341 -0.10052303 -0.088977911)
(119.97082 -0.072587948 -0.053756602)
(119.95838 -0.10080816 -0.056477387)
(119.99821 -0.098218652 -0.058925287)
(119.98396 -0.12405134 -0.083263514)
(119.93492 -0.14682648 -0.09869668)
(119.971 -0.14610757 -0.1114096)
(120.00325 -0.14613076 -0.10907397)
(120.00655 -0.12312018 -0.082592)
(120.00409 -0.14705186 -0.083211705)
(119.97553 -0.1499417 -0.082724425)
(119.96101 -0.18171358 -0.11276021)
(119.99935 -0.1765015 -0.11076536)
(120.04005 -0.1609417 -0.1055559)
(120.038 -0.13350202 -0.10084208)
(120.04478 -0.085012516 -0.072288913)
(120.02976 -0.060914337 -0.045607988)
(120.03211 -0.035899167 -0.021085607)
(120.04768 -0.037440259 -0.028968143)
(120.07431 -0.049891329 -0.046307124)
(120.07309 -0.073175809 -0.053527139)
(120.06347 -0.052720486 -0.033867157)
(120.03753 -0.081463635 -0.050002841)
(120.03128 -0.11165726 -0.075308892)
(120.05603 -0.094087894 -0.065629884)
(120.07302 -0.11339083 -0.088337705)
(120.08171 -0.13766733 -0.094042219)
(120.0633 -0.11434376 -0.06943207)
(120.03369 -0.13382033 -0.077500867)
(120.03223 -0.15740348 -0.07510213)
(120.04027 -0.10623627 -0.044404915)
(120.03852 -0.055436214 -0.018767234)
(119.99354 -0.07241856 -0.02204031)
(119.94413 -0.12163979 -0.044399914)
(119.99071 -0.1252826 -0.049635866)
(119.96623 -0.17057257 -0.07662498)
(119.90365 -0.20085438 -0.079618429)
(119.94501 -0.21359636 -0.10708156)
(119.98688 -0.2151006 -0.10848992)
(119.99778 -0.1714076 -0.078616043)
(119.99149 -0.19970745 -0.068591822)
(119.95471 -0.1981025 -0.064141817)
(119.92693 -0.25107262 -0.091460083)
(119.9762 -0.2521102 -0.096028655)
(119.95909 -0.28615056 -0.074222595)
(119.98402 -0.22079342 -0.053064858)
(119.98511 -0.14967447 -0.030188672)
(119.93255 -0.14142918 -0.027114806)
(119.87192 -0.2297066 -0.043309801)
(119.94504 -0.21251346 -0.049308247)
(119.90637 -0.27278454 -0.068734483)
(119.89557 -0.29773639 -0.041159499)
(119.93888 -0.23142122 -0.029775292)
(119.98049 -0.24036713 -0.031722733)
(119.95221 -0.31115968 -0.043088971)
(120.01622 -0.30394921 -0.044348748)
(120.02143 -0.27705358 -0.076924907)
(120.03039 -0.23955807 -0.096921804)
(120.03661 -0.20084638 -0.10670646)
(120.08748 -0.17395406 -0.096916985)
(120.06684 -0.135833 -0.067795877)
(120.07067 -0.16285177 -0.062486799)
(120.03021 -0.18545499 -0.066630912)
(120.02698 -0.207592 -0.05268272)
(120.04324 -0.13077473 -0.028633665)
(120.08558 -0.087765663 -0.023094437)
(120.07434 -0.068865478 -0.030260759)
(120.09286 -0.1042174 -0.055816388)
(120.08517 -0.087429756 -0.056671162)
(120.09746 -0.05242096 -0.040223378)
(120.08233 -0.043078071 -0.036008551)
(120.1111 -0.048903178 -0.046453659)
(120.09802 -0.085527067 -0.070143931)
(120.11384 -0.10220454 -0.074152494)
(120.13175 -0.060920744 -0.051194032)
(120.15276 -0.078034047 -0.055124256)
(120.10833 -0.062834518 -0.03958215)
(120.12187 -0.077803692 -0.040364967)
(120.1021 -0.12634834 -0.053524491)
(120.14029 -0.16151966 -0.077500914)
(120.1285 -0.13043611 -0.079184823)
(120.13802 -0.16143984 -0.10684712)
(120.13119 -0.14247233 -0.10379979)
(120.1201 -0.12590583 -0.099600391)
(120.12041 -0.097472166 -0.087823232)
(120.10817 -0.054967476 -0.066992641)
(120.07311 -0.035030715 -0.055460043)
(120.04592 -0.019782489 -0.039826802)
(120.02857 -0.035742152 -0.063634508)
(120.04417 -0.060725098 -0.091062743)
(120.03017 -0.060274271 -0.1148682)
(120.05452 -0.05022061 -0.096728393)
(120.06151 -0.051629289 -0.11433298)
(120.08084 -0.073477524 -0.14058104)
(120.07226 -0.071211174 -0.1185772)
(120.03742 -0.084577722 -0.13925397)
(120.03943 -0.11428244 -0.16723934)
(120.0583 -0.10487624 -0.11683915)
(120.08601 -0.096082367 -0.14103896)
(120.07709 -0.10318676 -0.17084309)
(120.05375 -0.11162518 -0.18482959)
(120.02868 -0.1165208 -0.19388762)
(119.98031 -0.13518612 -0.22599468)
(119.99182 -0.12564248 -0.17795725)
(119.97779 -0.17614903 -0.21926792)
(119.91845 -0.17608425 -0.21025215)
(119.88616 -0.18867946 -0.2752994)
(119.95897 -0.19119053 -0.27997175)
(119.90624 -0.27422326 -0.34051975)
(119.94841 -0.23358192 -0.24901661)
(119.97853 -0.20690242 -0.19198596)
(119.99265 -0.16903628 -0.14153921)
(119.94995 -0.16609889 -0.13891714)
(119.86436 -0.18731325 -0.16280158)
(119.91965 -0.19862203 -0.19029699)
(119.89019 -0.26414511 -0.20521931)
(119.92973 -0.21576247 -0.14865636)
(119.98216 -0.21810061 -0.15382457)
(119.96139 -0.26818462 -0.20972506)
(119.90896 -0.32502361 -0.29254355)
(119.82142 -0.31002612 -0.26670015)
(119.87857 -0.22095991 -0.23484886)
(119.71933 -0.26809763 -0.28092895)
(119.81732 -0.25020876 -0.32367355)
(119.72759 -0.36223789 -0.37818247)
(119.84693 -0.38549507 -0.40406783)
(119.97383 -0.33294602 -0.35328429)
(119.9895 -0.2867698 -0.33101897)
(120.00516 -0.23623168 -0.29340134)
(120.01617 -0.20008901 -0.26863023)
(120.02404 -0.16309377 -0.24072531)
(120.02693 -0.13930594 -0.21919312)
(120.05807 -0.13272176 -0.20889154)
(120.05842 -0.13532163 -0.23481523)
(120.05475 -0.11244592 -0.20679631)
(120.0244 -0.11720397 -0.21714678)
(120.0233 -0.14255132 -0.24809203)
(120.01725 -0.17298328 -0.27570772)
(120.05782 -0.16779584 -0.26390218)
(120.05964 -0.15789167 -0.23013519)
(120.04164 -0.16350998 -0.20759697)
(120.10873 -0.13965941 -0.17931217)
(120.09326 -0.14642656 -0.21396963)
(120.08638 -0.12294389 -0.19253769)
(120.11465 -0.10877702 -0.17197815)
(120.10048 -0.090698975 -0.15170837)
(120.10835 -0.092554589 -0.17048245)
(120.0814 -0.10386047 -0.19135307)
(120.08998 -0.12499407 -0.21641164)
(120.12197 -0.11210399 -0.19400503)
(120.1356 -0.13951604 -0.21951136)
(120.12713 -0.12972684 -0.19058764)
(120.14307 -0.15873309 -0.21533988)
(120.1016 -0.17874829 -0.24077344)
(120.06058 -0.19199522 -0.25875977)
(120.05759 -0.20193969 -0.29757385)
(120.00809 -0.21094024 -0.31175548)
(119.99078 -0.25495909 -0.34426232)
(120.04899 -0.24941611 -0.33344149)
(120.05579 -0.23061983 -0.28462337)
(120.03433 -0.22616366 -0.24351684)
(120.04189 -0.19449492 -0.18088585)
(120.03979 -0.1582417 -0.13110899)
(120.08631 -0.13237808 -0.11423187)
(120.10871 -0.16549024 -0.15919218)
(120.09338 -0.2027533 -0.16909893)
(120.08661 -0.18374458 -0.14478972)
(120.07759 -0.16441169 -0.12413755)
(120.05444 -0.17803232 -0.13182353)
(120.02966 -0.186761 -0.13566682)
(120.02787 -0.20996217 -0.15878143)
(120.05861 -0.19983275 -0.15350864)
(120.05916 -0.22664816 -0.15782412)
(120.05554 -0.2010889 -0.13424183)
(120.02568 -0.21098976 -0.13787374)
(120.02473 -0.23958549 -0.16366841)
(120.01898 -0.26516942 -0.19446378)
(120.02509 -0.22954968 -0.18282434)
(120.06024 -0.21892387 -0.17919634)
(120.06119 -0.24482002 -0.21376976)
(120.01731 -0.25506165 -0.21998402)
(120.01023 -0.29860632 -0.23258742)
(120.05866 -0.28432406 -0.22567339)
(120.0587 -0.25344598 -0.19098707)
(120.09738 -0.2352759 -0.18062326)
(120.09022 -0.20879941 -0.1489791)
(120.08187 -0.18625419 -0.12668052)
(120.10871 -0.16614875 -0.1165765)
(120.10101 -0.14583095 -0.11269118)
(120.11473 -0.16359097 -0.13196378)
(120.12191 -0.18702482 -0.13758587)
(120.13522 -0.20991045 -0.16663754)
(120.12701 -0.17960536 -0.15406739)
(120.14275 -0.20092318 -0.18428811)
(120.10165 -0.22654461 -0.20218322)
(120.1037 -0.26393524 -0.21415634)
(120.15018 -0.23566268 -0.19773087)
(120.19212 -0.19901078 -0.1732617)
(120.17794 -0.1704428 -0.16034357)
(120.15993 -0.11789921 -0.1191367)
(120.18785 -0.056982171 -0.071565993)
(120.1389 -0.05035064 -0.056074105)
(120.14728 -0.075142527 -0.069206137)
(120.13698 -0.099331504 -0.083316635)
(120.15909 -0.1103714 -0.097570308)
(120.13852 -0.13944437 -0.11578471)
(120.14973 -0.15809311 -0.12131117)
(120.17329 -0.12725045 -0.10452565)
(120.15068 -0.11409378 -0.088810786)
(120.1635 -0.085354678 -0.072771095)
(120.17044 -0.052181399 -0.053316337)
(120.15256 -0.044899362 -0.048636002)
(120.17875 -0.047121364 -0.055772895)
(120.17212 -0.080159021 -0.079006154)
(120.18928 -0.090203398 -0.082671458)
(120.19807 -0.054632543 -0.061190004)
(120.22937 -0.054681718 -0.069259815)
(120.20409 -0.046234676 -0.061149199)
(120.19609 -0.085064568 -0.089403353)
(120.18037 -0.11905975 -0.11227923)
(120.1553 -0.15315025 -0.13425866)
(120.16967 -0.17789498 -0.14625577)
(120.19839 -0.1404341 -0.12481717)
(120.22769 -0.15564651 -0.14706094)
(120.20873 -0.13163137 -0.13305262)
(120.22886 -0.093129613 -0.1040565)
(120.23879 -0.046823196 -0.068744165)
(120.26616 -0.054892875 -0.078334058)
(120.25274 -0.10670547 -0.11245794)
(120.21855 -0.098553805 -0.097116294)
(120.23877 -0.11667047 -0.10631071)
(120.20553 -0.10605166 -0.089576868)
(120.17522 -0.097217496 -0.075791922)
(120.16027 -0.12992912 -0.091727522)
(120.18604 -0.14885942 -0.11073876)
(120.15891 -0.18404752 -0.1285481)
(120.12674 -0.21671235 -0.14332904)
(120.11292 -0.18783163 -0.11862771)
(120.08268 -0.20965319 -0.12807921)
(120.05312 -0.22567186 -0.13428955)
(120.02083 -0.23392977 -0.13701506)
(119.9591 -0.27179103 -0.15088014)
(119.9042 -0.25774505 -0.14085477)
(119.7905 -0.28814764 -0.14322401)
(119.84811 -0.32010172 -0.20559435)
(119.92011 -0.34577885 -0.21780187)
(119.87848 -0.43171026 -0.20386832)
(119.93609 -0.32931998 -0.13641522)
(119.87227 -0.31171311 -0.12039889)
(119.79099 -0.40044926 -0.18212548)
(119.6458 -0.51025045 -0.24728067)
(119.74767 -0.38800491 -0.27553552)
(119.50488 -0.50112608 -0.27886568)
(119.60484 -0.45308906 -0.41942121)
(119.72627 -0.52925538 -0.4637178)
(119.83261 -0.43407082 -0.31629753)
(119.74954 -0.56551637 -0.31424579)
(119.58898 -0.71515532 -0.49854143)
(119.42154 -0.62500115 -0.41861193)
(119.09751 -0.68443361 -0.4437628)
(119.49424 -0.56666973 -0.21167532)
(119.71993 -0.43480311 -0.14240065)
(119.8328 -0.33857628 -0.089795586)
(119.68793 -0.31746366 -0.078712754)
(119.81204 -0.37606844 -0.053593897)
(119.88607 -0.41977928 -0.059260576)
(119.90186 -0.37937507 -0.10446806)
(119.81311 -0.50875812 -0.16238984)
(119.78084 -0.57402793 -0.088432217)
(119.67715 -0.49852235 -0.083205543)
(119.38989 -0.69358073 -0.1335595)
(119.04676 -0.64009568 -0.23889431)
(118.73299 -0.94522617 -0.36275096)
(118.97028 -1.189943 -0.35736029)
(119.27785 -0.93729058 -0.51465273)
(119.6025 -0.69459475 -0.27202638)
(119.51462 -0.8184336 -0.15535299)
(119.7477 -0.76123007 -0.16905205)
(119.78378 -0.70839336 -0.22859727)
(119.82687 -0.63476278 -0.26355726)
(119.87729 -0.573631 -0.28672866)
(119.91531 -0.49981148 -0.29519889)
(119.94662 -0.44032921 -0.2969337)
(119.97125 -0.37734217 -0.28502288)
(119.99339 -0.32883414 -0.27695304)
(120.0064 -0.27778078 -0.25625068)
(120.05651 -0.26817685 -0.25270032)
(120.05216 -0.30350246 -0.29989681)
(119.9905 -0.31289954 -0.30699615)
(119.97543 -0.37084486 -0.33095766)
(120.04466 -0.35601107 -0.32323098)
(120.05047 -0.31731187 -0.27372628)
(120.10742 -0.2965481 -0.25983716)
(120.10518 -0.24949798 -0.2380032)
(120.12566 -0.19235642 -0.21199417)
(120.10506 -0.2140597 -0.26670382)
(120.15468 -0.19056469 -0.23886587)
(120.16429 -0.20968276 -0.28181768)
(120.15073 -0.16911258 -0.24870678)
(120.10352 -0.1880557 -0.27717119)
(120.09724 -0.1554819 -0.24540913)
(120.09651 -0.15980916 -0.28070013)
(120.09052 -0.12835972 -0.24628133)
(120.08198 -0.10360448 -0.21271601)
(120.08644 -0.073109936 -0.17211344)
(120.06461 -0.047972793 -0.13203334)
(120.03033 -0.055947081 -0.15488944)
(120.02754 -0.045815381 -0.17808313)
(120.06772 -0.041026583 -0.15349732)
(120.08875 -0.064479053 -0.2037087)
(120.02799 -0.072154068 -0.23481799)
(120.03518 -0.084592667 -0.20080558)
(120.01879 -0.11503329 -0.23857889)
(119.95472 -0.12965858 -0.27747382)
(119.92863 -0.11239564 -0.3312972)
(119.86432 -0.18020719 -0.44057793)
(119.91308 -0.19692986 -0.35674359)
(119.83852 -0.1875238 -0.33003673)
(119.77185 -0.16029207 -0.40867844)
(119.69029 -0.11711492 -0.43360944)
(119.78764 -0.13505713 -0.51068203)
(119.8899 -0.077614682 -0.37346298)
(119.87267 -0.029503207 -0.39995647)
(119.79598 -0.025890207 -0.35668552)
(119.64165 -0.049522807 -0.48166748)
(119.75064 -0.05255734 -0.55890515)
(119.43684 -0.10772558 -0.81254202)
(119.54346 -0.24569245 -0.70853953)
(119.72205 -0.29112085 -0.58266237)
(119.8211 -0.29571626 -0.45058481)
(119.73429 -0.25786214 -0.40216532)
(119.47793 -0.26478957 -0.51541421)
(119.61365 -0.22412153 -0.52548794)
(119.3743 -0.39344039 -0.64589997)
(119.59194 -0.40292745 -0.47159574)
(119.71444 -0.44114763 -0.55070869)
(119.54919 -0.47011109 -0.73725552)
(119.16563 -0.48286131 -0.96156644)
(118.98644 -0.41927406 -0.69337203)
(119.43717 -0.18678234 -0.57392673)
(119.31378 -0.089550569 -0.68287308)
(118.52707 -0.27598091 -0.94532412)
(118.76885 -0.26855451 -1.1954145)
(119.24481 -0.30500551 -1.14803)
(119.51946 -0.20388418 -0.94375206)
(119.69157 -0.13191263 -0.76069492)
(119.81219 -0.095363096 -0.63722982)
(119.88415 -0.06673159 -0.5245437)
(119.93407 -0.050917736 -0.44756798)
(119.96201 -0.037861432 -0.36854892)
(120.01117 -0.017954446 -0.28046737)
(120.0207 -0.01121761 -0.20583534)
(120.03823 -0.013230156 -0.11662858)
(120.07701 -0.0096383732 -0.073079223)
(120.06914 -0.015884639 -0.062217271)
(120.05999 -0.021278752 -0.051642633)
(120.07109 -0.038334523 -0.075423665)
(120.07953 -0.021258859 -0.044880239)
(120.09354 -0.022830816 -0.050960186)
(120.08258 -0.038924202 -0.086613076)
(120.11226 -0.052725238 -0.10397313)
(120.09673 -0.052804755 -0.090190166)
(120.10886 -0.029199055 -0.05298808)
(120.12856 -0.029690956 -0.061741657)
(120.14852 -0.029651977 -0.072503818)
(120.10333 -0.020150035 -0.057071483)
(120.08968 -0.035958352 -0.099313706)
(120.09787 -0.03214161 -0.11550022)
(120.11507 -0.019490852 -0.065637834)
(120.16625 -0.028635589 -0.085764263)
(120.13786 -0.049380953 -0.15089209)
(120.12663 -0.054048234 -0.12653688)
(120.13746 -0.079830838 -0.16228589)
(120.13063 -0.078896161 -0.14602348)
(120.11939 -0.077070066 -0.13135455)
(120.11979 -0.068998679 -0.10581015)
(120.13729 -0.03689352 -0.058074718)
(120.14544 -0.045710612 -0.079534704)
(120.13575 -0.059989277 -0.10415523)
(120.14954 -0.062887534 -0.11675477)
(120.17286 -0.076220141 -0.13253399)
(120.15849 -0.072336226 -0.11778033)
(120.13835 -0.091695474 -0.14741597)
(120.14977 -0.094354111 -0.16421023)
(120.17028 -0.11707847 -0.18677713)
(120.15549 -0.10866083 -0.1639201)
(120.15989 -0.098176292 -0.13197342)
(120.1871 -0.049446851 -0.07100488)
(120.1954 -0.061439037 -0.094993344)
(120.1709 -0.053273079 -0.087080024)
(120.17658 -0.029730483 -0.053481586)
(120.14978 -0.025060844 -0.048735406)
(120.16715 -0.026802966 -0.053382149)
(120.16149 -0.046453467 -0.087260388)
(120.18802 -0.05340123 -0.094545667)
(120.19546 -0.03151309 -0.058258697)
(120.2275 -0.035751726 -0.061000725)
(120.20245 -0.03261818 -0.055602053)
(120.23776 -0.037288054 -0.06058193)
(120.22874 -0.07359028 -0.10727264)
(120.20903 -0.10380354 -0.14596629)
(120.18019 -0.085172309 -0.12933697)
(120.19868 -0.093709958 -0.14846843)
(120.22858 -0.11319433 -0.16763382)
(120.19314 -0.14198 -0.21162288)
(120.17846 -0.13312834 -0.18493518)
(120.19683 -0.15965423 -0.20524492)
(120.19716 -0.13464324 -0.15623734)
(120.23758 -0.062029875 -0.084869953)
(120.2577 -0.084046497 -0.11729395)
(120.23349 -0.12339775 -0.16175899)
(120.26054 -0.13849525 -0.1896438)
(120.21671 -0.1759512 -0.24035967)
(120.24313 -0.21193005 -0.27318325)
(120.22307 -0.19320753 -0.23451766)
(120.1703 -0.23124233 -0.27364446)
(120.11031 -0.25801188 -0.30234698)
(120.05148 -0.27734563 -0.32296841)
(120.04299 -0.29805132 -0.37546987)
(119.97267 -0.30846287 -0.38920007)
(119.94768 -0.36663558 -0.42279935)
(120.02669 -0.36119379 -0.41495156)
(120.04237 -0.32557594 -0.34814213)
(120.02803 -0.39181816 -0.38722749)
(119.94983 -0.401889 -0.38980785)
(119.91579 -0.44295823 -0.46755353)
(120.00963 -0.43242593 -0.4599497)
(120.10203 -0.41001767 -0.44130824)
(120.10812 -0.34035175 -0.39489374)
(120.10929 -0.27945058 -0.35325237)
(120.10699 -0.23271519 -0.31316801)
(120.10173 -0.24666711 -0.36514316)
(120.10089 -0.19847221 -0.32041417)
(120.0457 -0.20989487 -0.34234713)
(120.04992 -0.16975415 -0.30060601)
(120.05329 -0.13692815 -0.26639466)
(120.05184 -0.11100361 -0.2296337)
(120.04822 -0.10843069 -0.25628719)
(120.0104 -0.11137401 -0.26681409)
(120.00468 -0.14139757 -0.3106022)
(120.01477 -0.14262427 -0.27753921)
(120.00468 -0.17322103 -0.30948204)
(119.98996 -0.17412826 -0.35101354)
(120.04102 -0.17176878 -0.34026878)
(120.04835 -0.13599143 -0.29679521)
(120.08862 -0.12795505 -0.27592549)
(120.08192 -0.10151496 -0.23834664)
(120.11654 -0.092054086 -0.21355773)
(120.11247 -0.092737259 -0.18982113)
(120.12687 -0.11561693 -0.22119427)
(120.13015 -0.1164909 -0.24873206)
(120.12998 -0.11480069 -0.28209547)
(120.11741 -0.088666316 -0.23618809)
(120.07926 -0.096861561 -0.26239035)
(120.04231 -0.10216875 -0.28104925)
(120.00281 -0.10406038 -0.28933687)
(119.99076 -0.092074659 -0.31713617)
(120.03488 -0.092158937 -0.30821343)
(120.02832 -0.11948604 -0.36453123)
(120.03826 -0.13024716 -0.3324423)
(119.99235 -0.1336861 -0.34263997)
(119.97713 -0.12117241 -0.37641492)
(119.94979 -0.15321333 -0.43306681)
(119.97184 -0.16629714 -0.38918054)
(120.02568 -0.16646359 -0.38343384)
(120.00927 -0.15656182 -0.42708268)
(119.98734 -0.20602686 -0.50337417)
(120.01079 -0.21417917 -0.44644517)
(120.0333 -0.21626504 -0.39174548)
(119.97053 -0.22236642 -0.40538242)
(119.99097 -0.21619494 -0.35260911)
(119.96605 -0.26168621 -0.39250726)
(120.03159 -0.25979339 -0.38667)
(120.01211 -0.27243983 -0.44719782)
(119.93736 -0.27231457 -0.45530439)
(119.90224 -0.34560121 -0.52297253)
(119.94068 -0.32417024 -0.44618211)
(120.01909 -0.31881875 -0.43848205)
(119.99365 -0.34074411 -0.51110197)
(120.08315 -0.32809728 -0.48738413)
(120.08981 -0.26085018 -0.42519482)
(120.09335 -0.20602962 -0.36918898)
(120.09243 -0.16256102 -0.31962688)
(120.14319 -0.14855859 -0.28826594)
(120.1408 -0.14440842 -0.25190131)
(120.15556 -0.17981087 -0.28852394)
(120.15652 -0.18899632 -0.33439772)
(120.15116 -0.19386344 -0.38816373)
(120.141 -0.14890152 -0.32987989)
(120.08401 -0.1605787 -0.36286435)
(120.08381 -0.12468228 -0.31097575)
(120.07634 -0.11523057 -0.34377351)
(120.07501 -0.08782504 -0.28949772)
(120.11721 -0.08179292 -0.26246341)
(120.12768 -0.10776423 -0.31397679)
(120.13515 -0.14386922 -0.3740508)
(120.07167 -0.1524955 -0.4077986)
(120.05993 -0.20291844 -0.48370931)
(120.07977 -0.20798107 -0.42445015)
(120.06864 -0.26920551 -0.49489963)
(119.97862 -0.27510752 -0.51541731)
(119.89992 -0.26958062 -0.5142657)
(119.94486 -0.21647056 -0.45307661)
(119.91275 -0.20513143 -0.51145723)
(119.87337 -0.1802887 -0.55620167)
(119.92281 -0.13164903 -0.46709276)
(119.95931 -0.10287963 -0.40416742)
(119.97933 -0.07763774 -0.33607179)
(120.01761 -0.050367912 -0.26418196)
(120.0233 -0.031245771 -0.19432861)
(120.06772 -0.028123262 -0.16920255)
(120.06781 -0.01080601 -0.1808775)
(120.08445 -0.016723126 -0.25021321)
(120.08665 -0.046250387 -0.23314636)
(120.14425 -0.036665612 -0.17545951)
(120.10149 -0.022011529 -0.12824701)
(120.12142 -0.013345594 -0.073065373)
(120.12604 -0.0074024763 -0.079809777)
(120.10426 -0.0096283068 -0.13810368)
(120.14664 -0.013870308 -0.19078039)
(120.1851 -0.0097152898 -0.11170145)
(120.1789 -0.02228681 -0.1009816)
(120.21313 -0.041781752 -0.15070461)
(120.20716 -0.047230454 -0.13617359)
(120.19645 -0.047981214 -0.11995764)
(120.18704 -0.048893786 -0.10787796)
(120.17299 -0.046954997 -0.095748171)
(120.15907 -0.063487974 -0.12952392)
(120.17035 -0.064642688 -0.14632371)
(120.14532 -0.08025165 -0.18302751)
(120.16683 -0.10087725 -0.21125925)
(120.15915 -0.098989898 -0.18713594)
(120.18589 -0.079418239 -0.15055945)
(120.19803 -0.08192409 -0.17027853)
(120.21984 -0.059614812 -0.11999267)
(120.20426 -0.056928365 -0.10628101)
(120.21369 -0.032832113 -0.063543444)
(120.18007 -0.026917004 -0.057345145)
(120.19586 -0.029032069 -0.063900352)
(120.23166 -0.035561371 -0.071137324)
(120.24786 -0.037943196 -0.081839997)
(120.20707 -0.029224603 -0.070851785)
(120.21998 -0.030141962 -0.081380557)
(120.26257 -0.039694577 -0.095355284)
(120.24489 -0.061262143 -0.15816442)
(120.23334 -0.061649257 -0.13809684)
(120.20759 -0.082888902 -0.19510771)
(120.17745 -0.06332244 -0.16277834)
(120.14916 -0.077772832 -0.20303238)
(120.15295 -0.072827067 -0.22702075)
(120.18502 -0.060441114 -0.18340921)
(120.21506 -0.080524513 -0.2208879)
(120.17413 -0.09605356 -0.27064943)
(120.17171 -0.1008744 -0.24102678)
(120.19474 -0.13129081 -0.28404115)
(120.18995 -0.12883518 -0.24637189)
(120.18143 -0.12348826 -0.21435845)
(120.21489 -0.098615574 -0.17008737)
(120.22934 -0.10419855 -0.19603545)
(120.26511 -0.13247336 -0.22666105)
(120.24801 -0.12230741 -0.19400461)
(120.20587 -0.15381602 -0.24578387)
(120.21493 -0.1642395 -0.28632926)
(120.21903 -0.17164158 -0.33543326)
(120.27835 -0.14137269 -0.26789861)
(120.2407 -0.10806913 -0.2275871)
(120.24852 -0.10869509 -0.26374261)
(120.19559 -0.12924786 -0.32541317)
(120.21693 -0.17481577 -0.39129543)
(120.14002 -0.19303357 -0.44715289)
(120.12142 -0.17870481 -0.5127224)
(120.12468 -0.12959586 -0.42077736)
(120.12223 -0.095391695 -0.34902679)
(120.11483 -0.071048208 -0.28504806)
(120.06935 -0.075654679 -0.31239114)
(120.02568 -0.078272971 -0.33084865)
(120.01769 -0.059894023 -0.35214307)
(119.96818 -0.058971365 -0.35725236)
(119.94453 -0.079969456 -0.4305274)
(120.00207 -0.079937518 -0.42417415)
(120.01298 -0.10270953 -0.3983138)
(120.06659 -0.10082059 -0.37870107)
(120.05705 -0.078407787 -0.40623169)
(120.06347 -0.057685857 -0.33426419)
(120.11189 -0.054860946 -0.30713366)
(120.11649 -0.074959072 -0.37689716)
(120.11063 -0.048752602 -0.4005571)
(120.1092 -0.035499934 -0.32162464)
(120.05907 -0.037296695 -0.34838434)
(120.01178 -0.038183894 -0.36571547)
(120.0084 -0.012392287 -0.37275148)
(119.95752 -0.01228691 -0.37539908)
(119.9281 -0.016919279 -0.45629034)
(119.98693 -0.016709422 -0.45388661)
(119.99155 -0.050977213 -0.44524034)
(120.049 -0.05071266 -0.42879315)
(120.04479 -0.015951136 -0.43821327)
(120.05638 -0.01163716 -0.35576855)
(120.10746 -0.011067453 -0.32925889)
(120.10767 -0.015005973 -0.41028157)
(120.09689 -0.021492915 -0.50978534)