/*--------------------------------*- C++ -*----------------------------------*\
  =========                 |
  \\      /  F ield         | OpenFOAM: The Open Source CFD Toolbox
   \\    /   O peration     | Website:  https://openfoam.org
    \\  /    A nd           | Version:  7
     \\/     M anipulation  |
\*---------------------------------------------------------------------------*/
FoamFile
{
    version     2.0;
    format      ascii;
    class       volScalarField;
    location    "230";
    object      alphat;
}
// * * * * * * * * * * * * * * * * * * * * * * * * * * * * * * * * * * * * * //

dimensions      [1 -1 -1 0 0 0 0];

internalField   nonuniform List<scalar> 
25201
(
8.0059994
8.0056035
8.0060206
8.0056436
7.9517977
7.988975
7.9885348
8.0277796
8.0289802
8.0013628
8.0289528
7.9889493
7.971439
7.5545913
7.4433357
7.9007146
7.8344343
7.7727261
7.7486906
7.5390953
7.6897443
7.6855951
7.7479626
7.6479521
7.6428281
7.4963744
7.5832003
7.7621124
7.7043287
7.5117614
7.5607913
7.6244478
7.2522014
7.3314494
7.4298493
7.4410727
7.6154867
7.5494818
7.3448461
7.264294
7.4977796
7.4686527
7.4830566
7.2092773
7.2224744
7.2576038
7.4790951
7.7481808
7.9330148
7.9714385
8.0151001
7.9821056
7.8775316
7.9329522
7.9789896
7.95134
7.9282557
7.8685275
7.8985409
7.7095233
7.7328305
7.8142157
7.8415296
7.8886123
7.9155812
8.0026677
7.9583316
7.7976479
7.7526718
7.58099
7.5332309
7.5850454
7.8010936
7.8385671
7.788367
7.4074613
7.46107
7.5349236
7.5622689
7.6217929
7.6996558
7.7579083
7.6712914
7.6773043
7.6097236
7.6878789
7.5800205
7.5522885
7.4483779
7.5060505
7.4243379
7.3754795
7.3709152
7.3844587
7.3775207
7.4442826
7.4478822
7.3822612
7.2553397
7.3416255
7.3403172
7.2603639
7.2701747
7.3510791
7.3501415
7.2852436
7.1290887
7.2272768
7.2810094
7.2771941
7.2158465
7.2185142
7.113763
7.1070532
6.9375329
7.0659632
7.0665395
6.9458462
6.9563883
7.1215902
7.2263118
7.0813446
7.0838202
6.9665785
6.7799672
6.9348958
7.0439877
7.2820575
7.5077725
7.3472019
7.2668218
7.2252135
7.2592491
7.2971977
7.3794235
7.4669966
7.5811587
7.6726173
7.8146511
7.9285763
7.9514007
7.8415644
7.7096719
7.7332135
7.8690772
7.8986739
7.9329878
7.978987
8.0150652
8.0026622
7.9155691
7.8885526
7.7527733
7.7976309
7.9583256
7.9060478
7.9821006
7.9330643
7.8017686
7.8387757
7.5334992
7.5856127
7.6883691
7.7009975
7.7590807
7.6232646
7.5638219
7.535564
7.4129707
7.4859118
7.6101954
7.6777429
7.5541726
7.6320651
7.681388
7.5812732
7.5538709
7.5363385
7.3200485
7.3384595
7.1299575
7.1981175
7.2286484
7.128029
7.1164517
7.0050071
7.1025895
7.1020101
6.9816502
6.795847
6.953609
7.0775853
7.3204879
7.5372132
7.3764231
7.426075
7.4507732
6.9587992
7.0834441
7.228571
7.3534357
7.3518281
7.2870408
7.3728025
7.3870193
7.2726035
7.1240653
7.1307607
7.2287253
7.0850391
6.9680976
6.7811272
6.9357066
6.9293606
6.9147415
7.0285831
8.0055588
8.0058499
7.9284673
7.7622478
7.7043437
7.483079
7.3315378
7.5608752
7.5118457
7.4978185
7.4686547
7.2224405
7.2092486
7.2521162
7.2642982
7.3449011
7.5495369
7.615595
7.6246186
7.4299303
7.4411726
7.5524677
7.6858293
7.8346017
0.0013735753
0.0070363454
0.01712785
0.029437268
0.38536676
0.39291152
0.030486801
0.01770996
0.0072701067
0.0014120864
0.0014309772
0.0074667589
0.018199524
0.031301596
0.4014169
0.40650031
0.031588526
0.01837924
0.0075440259
0.001440149
0.0014432639
0.0075718394
0.018440646
0.031672511
0.40970181
0.41175783
0.031689025
0.018459323
0.0075821168
0.0014446985
0.0014458045
0.0075930565
0.018483695
0.03172054
0.41324517
0.41443958
0.031760417
0.018510016
0.0076042099
0.0014468176
0.001447936
0.0076183819
0.018545706
0.031818324
0.41547715
0.41643428
0.031872838
0.018578214
0.007631274
0.0014489283
0.0014500024
0.0076459141
0.01861595
0.031936266
0.41733643
0.41820585
0.031989843
0.018647489
0.0076583318
0.001450915
0.0014519106
0.0076722881
0.018683643
0.032050992
0.4190428
0.4198495
0.032100684
0.018712825
0.0076837791
0.0014527394
0.0014536603
0.0076968358
0.018746623
0.032157789
0.4206214
0.42136625
0.032203781
0.018773638
0.0077074964
0.0014544207
0.0014552823
0.0077198206
0.018805532
0.032257586
0.42208375
0.42278255
0.03230111
0.018830996
0.0077298428
0.0014559895
0.0014567993
0.0077414814
0.01886111
0.032351891
0.42345393
0.42410153
0.032393198
0.018885124
0.0077508986
0.0014574603
0.0014582249
0.0077618413
0.018913297
0.032440486
0.4247201
0.42531511
0.032479364
0.018935998
0.0077707992
0.001458852
0.001459592
0.007781519
0.018963546
0.032525533
0.42589794
0.42646802
0.032563553
0.018985727
0.0077902895
0.0014601969
0.0014609246
0.0078009688
0.019013142
0.032609477
0.42702415
0.42757168
0.032647811
0.019035545
0.0078098481
0.0014615274
0.0014622659
0.007820782
0.019063539
0.032694651
0.4281076
0.42863671
0.032735264
0.019087266
0.0078301718
0.0014629013
0.0014636863
0.0078416783
0.019116524
0.032783874
0.42916428
0.42969785
0.032830956
0.019143912
0.0078523275
0.0014643895
0.0014651664
0.0078640357
0.01917289
0.032878404
0.43023628
0.43074223
0.032926907
0.019200748
0.0078749361
0.0014658686
0.48327932
0.029717722
0.017490379
0.0072480988
0.0014045327
0.0014039475
0.0072389924
0.017467311
0.029678258
0.48272153
0.48209536
0.029631468
0.0174394
0.0072277953
0.0014032439
0.0014025658
0.0072170407
0.017411765
0.029585106
0.48145633
0.48082758
0.029539816
0.017384394
0.0072061359
0.0014018289
0.001401201
0.0071967443
0.017360233
0.029499095
0.48022156
0.47961476
0.029457714
0.017335251
0.0071867503
0.0014005173
0.0013999251
0.0071780083
0.01731272
0.029419729
0.47900605
0.4783885
0.029380226
0.017288922
0.0071685181
0.0013992614
0.0013986816
0.007160179
0.017267328
0.029343692
0.47776415
0.47711673
0.029305185
0.017244186
0.0071509626
0.001398023
0.0013974305
0.0071424693
0.017222117
0.029267725
0.47643776
0.4757224
0.02922684
0.017197595
0.0071327468
0.0013967416
0.0013961109
0.0071236896
0.017174032
0.029186878
0.474982
0.4742027
0.0291436
0.017148088
0.0071134227
0.0013953811
0.0013947043
0.0071037221
0.017122807
0.029100648
0.47339936
0.47260353
0.029057583
0.017096688
0.0070932811
0.0013939482
0.0013932329
0.0070830857
0.017070052
0.029012177
0.47175603
0.47086879
0.028964055
0.017041159
0.0070716556
0.0013924119
0.0013916215
0.0070604561
0.017011919
0.028914281
0.46992443
0.46894428
0.028860862
0.016979937
0.0070478569
0.0013907137
0.0013898369
0.0070357275
0.016948502
0.028807799
0.46793677
0.46688736
0.028751957
0.016914872
0.0070224269
0.0013888504
0.0013879003
0.0070099216
0.016882826
0.028698707
0.46579358
0.46461397
0.02864763
0.016850927
0.0069969957
0.0013868667
0.0013858849
0.0069860459
0.016824417
0.028607315
0.46328483
0.46170672
0.028581571
0.016803408
0.0069761384
0.0013848344
0.0013834017
0.0069659041
0.016783409
0.028561432
0.45956506
0.45631762
0.028489073
0.016728649
0.0069400793
0.0013802498
0.0013719554
0.0068714722
0.01656725
0.028234847
0.45115702
0.4435753
0.027636135
0.016208766
0.006723637
0.001354397
0.0013283585
0.0064908708
0.015654124
0.026698195
0.43455959
0.40856477
0.023985756
0.013912532
0.0057663734
0.0012763431
0.0013266928
0.0065038523
0.015686569
0.026744205
0.43533884
0.44433272
0.027668805
0.016229906
0.0067323014
0.0013534247
0.0013715703
0.0068801224
0.016588116
0.028267341
0.45174556
0.45673783
0.028510123
0.016742277
0.006945988
0.0013799922
0.0013832653
0.006970694
0.016795067
0.028579924
0.45990709
0.46198262
0.028592194
0.016810309
0.0069792259
0.0013847191
0.0013858167
0.006988873
0.016831603
0.028619168
0.46352905
0.46480177
0.028653888
0.016854651
0.006998612
0.0013867826
0.0013878262
0.0070111953
0.016886286
0.028704762
0.46593954
0.46699754
0.028752799
0.016915234
0.0070226951
0.0013887502
0.0013897464
0.0070359333
0.016949329
0.02880964
0.46800413
0.46897784
0.028857672
0.016977887
0.007047191
0.0013905971
0.0013915221
0.0070599192
0.01701077
0.028912724
0.46992141
0.47083892
0.028957972
0.017037617
0.0070705033
0.0013923006
0.001393161
0.007082572
0.017068831
0.029010269
0.47172577
0.47258384
0.029052472
0.01709384
0.0070924363
0.001393876
0.0013946789
0.0071038277
0.0171233
0.029101812
0.47341215
0.47421197
0.029141211
0.017146628
0.0071130398
0.0013953396
0.0013960954
0.007123863
0.017174628
0.029188086
0.47498469
0.47573053
0.029225317
0.017196629
0.0071325473
0.001396711
0.0013974235
0.0071428537
0.017223276
0.029269865
0.47644617
0.47713319
0.029305536
0.017244186
0.0071510833
0.0013979982
0.0013986704
0.0071607849
0.017269117
0.029347015
0.47779742
0.4784344
0.029380637
0.017288998
0.0071686837
0.0013992271
0.0013999085
0.007178606
0.017314515
0.029423119
0.47906347
0.47968888
0.029458257
0.017335362
0.0071869101
0.0014004831
0.0014011903
0.0071973008
0.017361895
0.02950227
0.48031166
0.48093928
0.029540579
0.017384595
0.0072063375
0.0014018131
0.0014025861
0.0072175997
0.017413151
0.029587586
0.48157611
0.48222875
0.029632115
0.017440062
0.0072284342
0.0014033007
0.001404136
0.007241475
0.017472405
0.029684847
0.48287524
0.48353197
0.029735448
0.01750237
0.0072531138
0.0014048824
0.0014055664
0.007263353
0.017528044
0.029778913
0.48421518
0.0014555897
0.0077621123
0.018882227
0.032323705
0.43102201
0.43039555
0.0322723
0.018852753
0.0077505825
0.0014548463
0.001454015
0.0077374242
0.01881927
0.032215623
0.42976337
0.42914847
0.032161167
0.018786467
0.0077242337
0.0014531418
0.001452369
0.0077125338
0.018756747
0.0321113
0.42856296
0.42799418
0.032062112
0.018727178
0.0077006901
0.0014515471
0.0014508462
0.0076904705
0.018701023
0.03201787
0.42744263
0.42688827
0.031972866
0.01867404
0.0076796631
0.0014500881
0.0014494345
0.007670167
0.018649535
0.031931145
0.42633508
0.42580688
0.03189059
0.018625061
0.0076603126
0.0014487284
0.001448109
0.0076512783
0.018601504
0.031850116
0.42524391
0.42465893
0.031807324
0.018576
0.007641155
0.0014473988
0.0014467647
0.0076318897
0.018551877
0.031766027
0.42405515
0.42341826
0.031721199
0.018525232
0.0076213539
0.0014460256
0.0014453541
0.007611619
0.018499882
0.03167786
0.42277274
0.42210194
0.031631631
0.018472341
0.0076007109
0.0014445794
0.0014438638
0.0075904296
0.018445549
0.031585795
0.42140879
0.42068168
0.031536355
0.01841616
0.0075788261
0.0014430353
0.0014422604
0.0075678332
0.018387565
0.03148753
0.41993939
0.41915946
0.031434889
0.018356289
0.0075554992
0.0014413702
0.001440527
0.0075437391
0.018325729
0.031382759
0.41836423
0.41753061
0.031326809
0.018292493
0.0075306477
0.0014395658
0.0014386457
0.0075181635
0.018260116
0.031271724
0.41668406
0.41579864
0.031214217
0.018225764
0.0075045874
0.0014376119
0.0014366211
0.0074919169
0.018193168
0.031159486
0.41487317
0.41386833
0.031108186
0.018161304
0.0074790117
0.0014355443
0.0014345398
0.007468572
0.01813616
0.031070247
0.41272567
0.41133881
0.031050442
0.01811826
0.0074597952
0.0014334789
0.00143201
0.0074510181
0.018102414
0.0310386
0.40941523
0.40640386
0.030962905
0.018045384
0.0074244521
0.0014285036
0.0014189238
0.0073522176
0.017872224
0.030683647
0.401702
0.39502656
0.030014148
0.017481562
0.0071954475
0.0013983174
0.0013651321
0.0069741338
0.016929093
0.029030063
0.38765758
0.38666354
0.029494063
0.017185336
0.007072701
0.0013690039
0.0014122878
0.0072590292
0.017677471
0.030440296
0.39261634
0.40152409
0.0313128
0.018207084
0.0074699398
0.0014308593
0.0014402647
0.0075463627
0.018384416
0.031596317
0.40649221
0.40970713
0.031672954
0.018441153
0.0075722838
0.0014431821
0.0014447028
0.007583523
0.0184628
0.031694067
0.41175261
0.41323942
0.031717308
0.018481759
0.0075924383
0.0014456801
0.0014468028
0.0076050131
0.018512089
0.031763236
0.41442854
0.41545619
0.031813369
0.018542769
0.0076173681
0.0014478107
0.001448919
0.0076319029
0.018579956
0.031875185
0.41640523
0.41729947
0.031930562
0.018612443
0.0076446351
0.0014498735
0.0014509004
0.0076586656
0.018648542
0.03199113
0.41815471
0.41898175
0.032043676
0.018679194
0.0076706579
0.001451773
0.0014527232
0.0076839301
0.018713419
0.032101237
0.41978405
0.42055033
0.032149367
0.018741593
0.0076950072
0.0014535206
0.0014544116
0.007707619
0.018774138
0.032204127
0.4212941
0.42200697
0.032249345
0.018800597
0.0077180273
0.0014551514
0.0014559906
0.0077300257
0.018831554
0.032301396
0.42270551
0.42337724
0.032344692
0.018856711
0.0077398821
0.0014566817
0.0014574745
0.0077512596
0.018886013
0.032393836
0.42403169
0.42466015
0.032434714
0.018909822
0.0077606181
0.0014581272
0.0014588931
0.0077716926
0.018938413
0.032482818
0.4252722
0.42585728
0.032522602
0.018961459
0.0077807379
0.0014595222
0.0014602695
0.0077914511
0.018988937
0.03256858
0.42642374
0.42697048
0.032607571
0.019011619
0.0078004183
0.0014608995
0.0014616648
0.0078113417
0.019039501
0.032654108
0.42751178
0.42805449
0.032694208
0.019063087
0.0078207657
0.0014623273
0.0014631387
0.0078325509
0.019093142
0.032744418
0.42861345
0.42918764
0.032788462
0.019119044
0.0078428692
0.0014638445
0.0014646943
0.0078555349
0.01915124
0.032842049
0.42978343
0.4303833
0.032893288
0.019181094
0.0078671748
0.0014654472
0.0014662752
0.0078797757
0.019212422
0.032944859
0.43098632
0.43156193
0.032998082
0.019243106
0.0078918076
0.0014670389
0.0014555469
0.00776156
0.018880703
0.03232092
0.430991
0.43040835
0.032271875
0.018852306
0.007750336
0.0014548096
0.0014539842
0.0077373297
0.018819196
0.032215735
0.42979062
0.42918543
0.032161584
0.018786577
0.0077242131
0.0014531165
0.0014523479
0.0077125363
0.018756856
0.032111579
0.42858968
0.42801526
0.032061493
0.018726799
0.0077005372
0.0014515232
0.0014508256
0.0076903075
0.018700652
0.032017276
0.42745239
0.42689931
0.031971752
0.018673367
0.0076794018
0.0014500672
0.001449424
0.0076700521
0.018649351
0.031931025
0.42634875
0.42579417
0.031887761
0.018623523
0.0076597794
0.0014487029
0.0014480846
0.0076508288
0.018600376
0.031848305
0.42522672
0.42464567
0.031805333
0.018574787
0.0076406821
0.0014473736
0.0014467455
0.0076315672
0.01855113
0.031764915
0.4240433
0.42341883
0.031720727
0.018524812
0.0076211482
0.0014460125
0.0014453511
0.0076116043
0.018499976
0.031678227
0.42278035
0.42213007
0.031633165
0.018473028
0.0076009061
0.0014445888
0.0014438866
0.0075908234
0.018446714
0.031588003
0.42143958
0.42072106
0.031538915
0.018417493
0.0075792898
0.0014430653
0.0014423005
0.007568451
0.018389257
0.031490573
0.41997956
0.41921499
0.031439195
0.018358605
0.0075563293
0.0014414236
0.001440589
0.0075446493
0.018328131
0.031386913
0.4184131
0.4175789
0.031331528
0.018295115
0.0075316232
0.0014396337
0.0014387179
0.007519163
0.018262712
0.031276146
0.41673202
0.41583659
0.03121787
0.018227896
0.0075054295
0.0014376792
0.0014366842
0.0074926616
0.018195025
0.03116254
0.41489837
0.41388199
0.031110082
0.018162475
0.0074795099
0.0014355949
0.0014345873
0.0074690924
0.018137464
0.031072455
0.41274511
0.41135328
0.031051481
0.018118916
0.0074600891
0.0014335112
0.001432032
0.0074514593
0.018103461
0.031040261
0.40943745
0.40644452
0.03096463
0.018046472
0.0074248898
0.0014285121
0.0014188281
0.0073518774
0.017871604
0.030682498
0.40174061
0.39510153
0.030010706
0.017480058
0.0071949003
0.0013981936
0.0013642529
0.0069703279
0.016921438
0.029016441
0.38786814
0.43647562
0.026797516
0.015743231
0.0065363299
0.0013223464
0.0013534635
0.0067276502
0.016212494
0.027641141
0.44409085
0.45184454
0.028273706
0.016591975
0.0068815776
0.001371603
0.0013803267
0.0069487755
0.016748792
0.028520466
0.45683393
0.45997357
0.028582445
0.01679629
0.006971224
0.0013833816
0.0013848935
0.0069808861
0.016814709
0.02859938
0.46202311
0.46355462
0.028619139
0.016831306
0.0069887997
0.0013858639
0.001386924
0.007000069
0.016858447
0.028659861
0.46483295
0.46597105
0.028704589
0.016886186
0.0070112894
0.001387873
0.0013889111
0.0070247081
0.01692049
0.028761159
0.46704006
0.46806217
0.028811859
0.016950503
0.0070364656
0.0013898046
0.0013907582
0.0070493949
0.016983728
0.028867161
0.46904949
0.46999901
0.028915275
0.017012043
0.0070604622
0.0013915704
0.0013924466
0.00707262
0.017043292
0.028967259
0.47091323
0.47179582
0.029012135
0.017069608
0.007082892
0.0013931858
0.0013939941
0.0070942365
0.017098751
0.029060552
0.47264803
0.473469
0.029102007
0.017123044
0.0071037327
0.0013946708
0.0013954241
0.0071144197
0.017150504
0.029147618
0.47425708
0.47501536
0.029186104
0.017173039
0.0071232391
0.0013960479
0.0013967586
0.007133394
0.017199163
0.029229584
0.47575471
0.47645937
0.02926483
0.017220002
0.0071416385
0.0013973431
0.0013980347
0.007151626
0.017245764
0.029307868
0.47714222
0.47780112
0.029341815
0.017265829
0.0071595911
0.0013986005
0.0013992897
0.0071694438
0.017291245
0.029384284
0.47844512
0.47907839
0.02941881
0.017311711
0.0071775896
0.0013998718
0.0014005847
0.0071878921
0.017338173
0.029462916
0.47970741
0.48033081
0.029499462
0.017359874
0.0071965545
0.0014011919
0.001401935
0.007207378
0.017387494
0.029545292
0.48095329
0.48157369
0.029585426
0.017411411
0.0072168894
0.0014025877
0.0014033704
0.0072288808
0.017441622
0.029634732
0.48219654
0.48280085
0.029681944
0.017469299
0.007239793
0.001404043
0.0014047452
0.0072501076
0.017494378
0.029721978
0.48340479
0.48401764
0.029769445
0.017522093
0.007261012
0.0014054612
0.43144734
0.032987468
0.019237152
0.007889577
0.0014669031
0.0014661202
0.0078776925
0.019207167
0.032936111
0.43086502
0.43032837
0.032888894
0.019178573
0.0078660548
0.0014653333
0.0014645844
0.0078543053
0.019148268
0.032837044
0.42973794
0.42915239
0.032787079
0.019118292
0.0078423287
0.0014637647
0.0014630447
0.0078316965
0.019090752
0.032739846
0.42861323
0.42806507
0.032693911
0.019063173
0.0078206241
0.0014622664
0.0014615894
0.0078107193
0.019037506
0.032649885
0.42753082
0.42698184
0.032606459
0.019011432
0.0078002593
0.0014608488
0.0014602015
0.0077907922
0.018986819
0.032564213
0.42644317
0.42588195
0.032522765
0.018961879
0.0077807787
0.0014594899
0.0014588606
0.0077714837
0.018937573
0.032480888
0.42531858
0.42471854
0.032438976
0.018912377
0.0077613985
0.0014581493
0.001457503
0.0077518512
0.01888733
0.032395749
0.42411169
0.42346009
0.032351199
0.018860679
0.007741246
0.0014567554
0.0014560613
0.007731075
0.018833997
0.032305183
0.42279486
0.42208715
0.03225671
0.018805109
0.0077196341
0.0014552525
0.0014544968
0.0077087403
0.018776665
0.032207903
0.42137005
0.42061581
0.032156527
0.01874605
0.0076966166
0.0014536289
0.001452809
0.0076849855
0.018715751
0.032104641
0.41985056
0.41904303
0.032049898
0.018683169
0.0076721052
0.0014518747
0.0014509807
0.0076596428
0.018650724
0.031994396
0.4182215
0.41735418
0.031936118
0.018616028
0.0076459412
0.0014499673
0.0014489918
0.0076327657
0.01858185
0.03187797
0.41646756
0.41551845
0.031820766
0.018547197
0.0076189209
0.0014479123
0.0014468908
0.0076062207
0.018514922
0.031767639
0.4145103
0.41332323
0.031724934
0.01848649
0.0075941691
0.0014457905
0.0014448005
0.0075851169
0.018466554
0.031699946
0.41185132
0.4098081
0.031682174
0.018446865
0.0075744397
0.0014433021
0.0014403525
0.0075491606
0.018391131
0.031607006
0.40662677
0.4016321
0.031322678
0.01821211
0.0074715713
0.0014308655
0.0014117276
0.007265453
0.017692354
0.030461841
0.39280419
0.38649851
0.029493724
0.017186323
0.0070731961
0.0013682741
0.0013737369
0.0070517461
0.017161527
0.029486834
0.38589986
0.39324432
0.03050264
0.017720746
0.0072750543
0.0014117128
0.0014305974
0.0074694302
0.018204938
0.031308848
0.40165041
0.40666168
0.031597432
0.018384998
0.0075464291
0.0014399407
0.0014431256
0.007573655
0.018444546
0.031677815
0.409822
0.41183605
0.031696153
0.018463868
0.0075839421
0.0014446233
0.001445729
0.0075940438
0.018485723
0.031723031
0.41330437
0.41447552
0.031763705
0.0185123
0.0076051587
0.001446764
0.0014478739
0.0076187477
0.01854624
0.031818394
0.41549428
0.416426
0.031874692
0.01857949
0.0076317501
0.0014488773
0.001449926
0.0076456179
0.018614844
0.031933669
0.41731378
0.41815745
0.031989332
0.018647327
0.0076582303
0.001450851
0.0014518263
0.007671504
0.018681211
0.032046068
0.4189811
0.41977693
0.032098479
0.018711766
0.0076833807
0.0014526768
0.0014535896
0.0076960392
0.018744143
0.032152732
0.42054889
0.42129398
0.032202087
0.018772864
0.007707203
0.0014543766
0.0014552304
0.0077191769
0.018803449
0.032253231
0.42201671
0.42271476
0.032300216
0.018830658
0.0077297116
0.0014559614
0.0014567587
0.0077409521
0.018859317
0.032348097
0.42339656
0.42405459
0.032392142
0.018884871
0.0077508783
0.001457441
0.0014581999
0.0077617611
0.018912704
0.032438743
0.42469662
0.4253156
0.032481195
0.018937158
0.0077712107
0.0014588374
0.001459549
0.0077814388
0.018963146
0.032524494
0.42590919
0.42647921
0.032564795
0.018986443
0.0077904956
0.0014601582
0.0014608617
0.0078006561
0.019012171
0.032607559
0.42703818
0.42758359
0.032647738
0.019035612
0.0078098656
0.0014614805
0.0014622216
0.00782061
0.01906275
0.032692786
0.42812622
0.42867196
0.03273577
0.019088007
0.0078306101
0.0014628989
0.0014637229
0.0078425448
0.019118096
0.03278568
0.42923316
0.42981816
0.032835358
0.01914737
0.0078541108
0.0014644989
0.0014654142
0.0078678847
0.019181723
0.032891759
0.43042608
0.43102395
0.032951416
0.019216074
0.0078810102
0.0014662579
0.00146701
0.0078921095
0.019243569
0.032997829
0.43160271
8.0853788
8.0878411
8.085358
8.0877963
8.0583764
8.0676226
8.0652945
8.1070006
8.1097018
8.0676468
8.0494129
8.0968613
8.1096933
8.1029772
8.0782049
8.0525309
8.0290355
7.9582885
7.9856379
7.8883628
8.0173542
7.9916118
7.8438613
7.6902313
7.9449806
8.0344897
8.0847834
8.0113084
8.0492478
8.0758532
8.1019512
8.0524991
8.0250635
7.9328498
7.9755641
7.854553
8.0419403
8.0105789
7.9784355
7.9357435
7.97417
7.7453272
7.6374754
7.5767264
7.9055049
7.8612531
7.8326588
7.8776144
7.5810743
7.6345876
7.5159129
7.4582949
7.4077576
7.461791
7.7489531
7.7886518
7.7887143
7.93314
8.0055422
8.0058305
7.9890005
7.9715348
0.38853637
0.028987038
0.016906972
0.0069649794
0.0013695825
0.0013996632
0.0071810014
0.017443955
0.02994813
0.39490478
0.40123184
0.030616493
0.017831591
0.0073359299
0.0014190062
0.0014284943
0.0074131042
0.018017391
0.030917639
0.4059041
0.40896993
0.031000249
0.018078295
0.0074412341
0.0014318466
0.0014334124
0.0074533764
0.01810233
0.031024979
0.41096175
0.41243135
0.031046637
0.018121157
0.007462532
0.0014343927
0.0014355042
0.0074754702
0.018152505
0.031094283
0.4136238
0.41467507
0.031144201
0.018183217
0.0074878943
0.001436495
0.001437589
0.0075025227
0.018220651
0.031206326
0.41564197
0.41655767
0.031260658
0.0182528
0.0075151969
0.0014385296
0.0014395489
0.0075293737
0.018289465
0.031322504
0.41743364
0.41826903
0.031373057
0.018319313
0.0075411545
0.0014404051
0.0014413494
0.0075545164
0.01835395
0.031431632
0.4190795
0.41986103
0.031478284
0.018381502
0.0075654186
0.0014421331
0.0014430169
0.0075781001
0.01841445
0.031534031
0.42061224
0.42133562
0.031577741
0.018440118
0.0075882226
0.0014437357
0.0014445543
0.0075999897
0.018470622
0.031629249
0.42202995
0.42269502
0.031669472
0.018494345
0.0076094037
0.0014452218
0.0014460036
0.0076207784
0.018523889
0.0317194
0.42334057
0.42396085
0.031758259
0.018546605
0.0076297398
0.0014466302
0.0014473701
0.0076404937
0.018574403
0.03180499
0.42455358
0.42513053
0.031842521
0.01859627
0.0076491281
0.0014479716
0.0014486951
0.0076596334
0.018623285
0.031887749
0.42568211
0.42621997
0.031924653
0.018644933
0.007668256
0.0014492972
0.0014500406
0.0076790733
0.018672637
0.031970973
0.42675803
0.4272948
0.032009169
0.0186953
0.0076881859
0.0014506764
0.0014514717
0.0076998605
0.018725107
0.032058945
0.42784
0.42839954
0.032102037
0.018750588
0.0077100581
0.0014521702
0.0014530265
0.0077227111
0.018782543
0.0321548
0.42897847
0.4295776
0.032206014
0.018812716
0.0077345904
0.0014538085
0.0014546768
0.0077476596
0.018845359
0.032259835
0.43019975
0.43084011
0.032315766
0.018877572
0.0077602135
0.0014554731
0.0014544813
0.0077454285
0.018839755
0.032251671
0.43010136
0.42958796
0.032207918
0.018814029
0.0077350527
0.0014538057
0.0014530401
0.0077230689
0.018783494
0.032156245
0.42902867
0.42845819
0.032105009
0.018752427
0.0077105158
0.0014521991
0.0014514785
0.0076998814
0.018725172
0.032058947
0.42792618
0.42739431
0.032014158
0.018698096
0.0076889748
0.0014507133
0.0014500631
0.0076794649
0.01867357
0.031972302
0.42689186
0.4263585
0.031929443
0.018647837
0.007669178
0.0014493429
0.0014487262
0.0076601533
0.018624345
0.031889093
0.42581753
0.42526803
0.031848593
0.018600053
0.0076504628
0.00144804
0.0014474394
0.0076417133
0.018577103
0.031808892
0.42469692
0.42408614
0.031766221
0.018551601
0.0076315869
0.0014467333
0.001446095
0.0076221298
0.018526934
0.031723872
0.42345888
0.42279701
0.031678745
0.018499934
0.0076114179
0.0014453474
0.001444664
0.007601458
0.018473927
0.031634113
0.42212606
0.42141761
0.031587501
0.018445941
0.0075903246
0.0014438746
0.0014431437
0.0075798088
0.01841851
0.031540429
0.42072114
0.4199541
0.031488508
0.018387639
0.0075676499
0.0014422849
0.001441477
0.0075561144
0.018357615
0.031437116
0.41916072
0.41833332
0.031381552
0.018324524
0.0075430691
0.001440545
0.0014396558
0.0075305315
0.018291942
0.031325904
0.41748334
0.41661167
0.031268341
0.01825742
0.0075168456
0.001438654
0.0014376902
0.0075035909
0.01822305
0.031209874
0.41569866
0.41471711
0.03114965
0.018186656
0.0074891343
0.0014366034
0.0014355893
0.0074761471
0.018153958
0.031096397
0.41366946
0.41247095
0.031052579
0.018124593
0.007463676
0.0014345034
0.0014335114
0.0074540155
0.018103863
0.031027433
0.41100794
0.40899556
0.03100681
0.018081879
0.007442363
0.0014320005
0.0014286723
0.0074139915
0.018020434
0.030924022
0.40588869
0.40099867
0.030629076
0.01783595
0.0073363488
0.0014193262
0.0013998801
0.0071808118
0.017450082
0.029969761
0.39424922
0.38653195
0.028969943
0.016875241
0.0069473472
0.0013692476
0.0013221893
0.0065152366
0.015801148
0.027181356
0.37203286
0.38836521
0.031041122
0.017983129
0.0073292411
0.0014004132
0.0013729054
0.0070977737
0.017237596
0.029571728
0.38821912
0.39270698
0.030424193
0.017671463
0.0072582255
0.0014136032
0.001431173
0.0074649436
0.018193901
0.031288689
0.40136897
0.40621425
0.031564421
0.018365118
0.0075388431
0.0014403036
0.0014432757
0.0075678983
0.018430451
0.031655192
0.40944615
0.41151254
0.031672981
0.018449603
0.0075782619
0.001444663
0.0014457308
0.0075896608
0.018475197
0.031706541
0.41303142
0.41423984
0.031747917
0.018502262
0.0076010526
0.001446722
0.0014478162
0.0076152189
0.018537755
0.031805122
0.41527925
0.41622836
0.03186121
0.01857099
0.007628323
0.0014487989
0.0014498522
0.0076427701
0.018607994
0.03192303
0.41714013
0.41801623
0.031977226
0.018639909
0.0076553379
0.0014507651
0.0014517635
0.00766945
0.01867638
0.032038731
0.41885443
0.41966062
0.032089446
0.018706158
0.0076811596
0.0014525992
0.0014535237
0.0076943131
0.018740133
0.03214675
0.42044298
0.42120706
0.032193768
0.018767727
0.0077051979
0.0014542948
0.0014551665
0.0077177536
0.018800267
0.032248738
0.42193722
0.42264055
0.032292335
0.018825864
0.0077278724
0.0014558787
0.0014566985
0.0077397911
0.018856755
0.032344528
0.42332349
0.4239822
0.032385587
0.018880823
0.0077493067
0.0014573611
0.0014581389
0.0077607166
0.018910457
0.032435722
0.42461804
0.42522529
0.032474865
0.018933312
0.0077697325
0.0014587619
0.0014595028
0.0077805672
0.018961318
0.032522129
0.42581137
0.42637627
0.032559718
0.018983345
0.0077893117
0.0014601087
0.0014608516
0.0078001579
0.019011251
0.032606565
0.42692503
0.42747409
0.032645541
0.019034002
0.0078091832
0.0014614742
0.0014622372
0.0078203147
0.019062457
0.032693145
0.42802794
0.42857984
0.032733511
0.019086328
0.0078298849
0.0014628994
0.0014637264
0.0078420082
0.019117136
0.032784826
0.42913351
0.42969418
0.032831292
0.019144683
0.0078530087
0.0014644724
0.0014653893
0.0078665947
0.019178416
0.032886008
0.43025461
0.43080579
0.032948953
0.019215452
0.0078811223
0.0014662779
0.0014670381
0.0078953181
0.019244566
0.032992027
0.43135489
0.0014544275
0.007744261
0.018836915
0.032246896
0.43006107
0.42954865
0.032202037
0.018810274
0.0077335077
0.0014537207
0.0014529354
0.0077214805
0.018779486
0.032149775
0.42899364
0.42844555
0.032101801
0.018750484
0.0077097923
0.0014521259
0.00145145
0.0076998429
0.018725021
0.032058626
0.427941
0.42742844
0.03201615
0.018699347
0.0076894931
0.0014507301
0.0014501261
0.007680548
0.01867628
0.031976772
0.42692874
0.42639315
0.031934478
0.01865106
0.0076705236
0.0014494377
0.0014488505
0.0076616952
0.018628285
0.03189565
0.42584815
0.42526786
0.031850921
0.018601466
0.0076510007
0.0014481322
0.0014474915
0.0076416285
0.018577113
0.031809424
0.42467314
0.4240552
0.03176337
0.018549795
0.0076308786
0.0014467341
0.0014460831
0.0076216929
0.018525824
0.031722265
0.42343142
0.42277074
0.031677789
0.018499267
0.0076111335
0.0014453357
0.001444658
0.0076013196
0.018473724
0.031634047
0.42212143
0.42142929
0.031587468
0.018445839
0.0075902531
0.001443874
0.0014431463
0.0075797368
0.018418393
0.031540322
0.42070968
0.41993441
0.031487113
0.018386907
0.0075673929
0.001442282
0.0014414688
0.0075557236
0.018356582
0.03143534
0.4191248
0.41828903
0.031378228
0.018322687
0.0075424022
0.0014405251
0.0014396325
0.0075298205
0.018290139
0.031322933
0.41743504
0.41655458
0.031263874
0.018254891
0.0075158954
0.0014386227
0.0014376597
0.0075026147
0.018220615
0.031205888
0.4156344
0.41465737
0.031145262
0.018184038
0.0074880922
0.0014365759
0.00143557
0.0074751309
0.018151483
0.031092418
0.41360341
0.41241424
0.031048894
0.018122305
0.0074627242
0.001434498
0.0014335188
0.0074530798
0.018101576
0.031023702
0.41094133
0.40893175
0.031002087
0.018079064
0.0074412263
0.0014320125
0.001428698
0.0074130279
0.018017971
0.030919807
0.40584525
0.40101282
0.030627813
0.017835364
0.0073361775
0.0014193982
0.0014000727
0.0071823704
0.017453792
0.029975689
0.39439838
0.38684849
0.028988972
0.016885746
0.0069515766
0.0013697583
0.0013237499
0.006551396
0.015892128
0.027325901
0.37345482
0.41365855
0.024543846
0.01426895
0.0059104752
0.0012884324
0.0013678754
0.0069303315
0.016846611
0.028880417
0.38125614
0.38642829
0.029050965
0.01695469
0.0069730877
0.0013663992
0.001368228
0.0069596838
0.016894974
0.028970911
0.38830808
0.39491634
0.029950518
0.017445533
0.0071820267
0.001399309
0.0014188235
0.0073369098
0.017834866
0.030622571
0.40128102
0.40601815
0.030919715
0.018018682
0.0074137981