/*--------------------------------*- C++ -*----------------------------------*\
  =========                 |
  \\      /  F ield         | OpenFOAM: The Open Source CFD Toolbox
   \\    /   O peration     | Website:  https://openfoam.org
    \\  /    A nd           | Version:  7
     \\/     M anipulation  |
\*---------------------------------------------------------------------------*/
FoamFile
{
    version     2.0;
    format      ascii;
    class       volScalarField;
    location    "230";
    object      k;
}
// * * * * * * * * * * * * * * * * * * * * * * * * * * * * * * * * * * * * * //

dimensions      [0 2 -2 0 0 0 0];

internalField   nonuniform List<scalar> 
25201
(
1110.9404
1112.8047
1110.9433
1112.8106
1112.6325
1102.0993
1099.0975
1134.3387
1136.0621
1142.7087
1136.0578
1102.0959
1107.0245
1152.3028
1159.3782
1099.2909
1108.3551
1118.2776
1120.8922
1149.4945
1128.3495
1133.4937
1126.771
1141.6574
1137.2367
1155.8435
1142.2716
1113.7646
1116.508
1138.6419
1136.7788
1133.2652
1164.8451
1162.4656
1157.7655
1158.72
1137.9295
1141.0724
1162.7104
1164.6968
1142.7112
1143.5602
1139.6241
1165.7608
1165.4616
1165.0736
1146.5957
1125.6353
1110.3884
1107.0221
1140.2271
1142.8871
1149.0127
1145.6419
1139.8672
1126.5458
1111.0004
1118.8686
1132.9074
1153.4032
1139.9202
1128.096
1141.2186
1153.3558
1168.667
1156.5466
1161.7214
1179.5616
1166.0261
1173.7482
1161.5357
1149.1497
1123.4347
1136.7337
1138.5861
1164.1706
1152.9532
1151.418
1144.3387
1141.6534
1137.4782
1131.452
1144.8541
1150.1691
1156.4296
1144.7085
1153.3807
1151.6573
1166.2503
1158.5721
1167.8454
1174.4596
1173.5057
1173.0959
1173.5631
1165.9221
1165.264
1173.3295
1188.1579
1178.7894
1179.019
1187.5074
1186.4719
1178.5763
1178.3228
1184.8596
1199.0073
1190.6839
1180.9148
1178.6302
1191.1348
1190.9946
1200.9302
1201.7907
1214.2925
1203.6271
1203.7101
1213.5364
1212.8357
1200.03
1190.6783
1203.2675
1203.7268
1212.3739
1224.4409
1215.0206
1202.0094
1181.2589
1159.0742
1163.4152
1165.466
1166.292
1165.501
1164.8539
1163.0942
1159.7712
1153.6404
1145.1861
1128.1951
1111.0677
1126.5582
1141.2227
1153.4435
1139.9843
1118.9891
1132.9383
1145.6536
1139.868
1140.2222
1156.5473
1168.6655
1153.3415
1166.0627
1179.5653
1161.7252
1164.7932
1142.8896
1110.4035
1123.5923
1136.7858
1161.6081
1149.2845
1144.7981
1137.8043
1131.731
1142.0355
1144.7519
1151.5745
1164.9269
1162.2464
1156.5236
1150.2511
1164.7428
1149.7771
1161.1736
1169.2011
1164.6787
1160.2179
1181.7505
1185.1069
1200.6888
1192.6168
1190.8737
1198.7645
1199.1215
1210.6363
1203.5936
1203.3312
1211.7449
1224.4122
1215.0274
1203.1849
1181.8824
1160.441
1174.7174
1168.3362
1167.0445
1213.7743
1204.0822
1191.4984
1179.3832
1178.8036
1185.3803
1174.0289
1173.9364
1187.3171
1200.9353
1199.536
1191.1357
1204.1334
1212.8822
1224.8323
1215.2832
1215.0121
1215.6291
1200.8489
1112.6863
1110.581
1080.1955
1113.7148
1116.4851
1139.6199
1162.4914
1136.7546
1138.6431
1142.6959
1143.5572
1165.4594
1165.7609
1164.8323
1164.7122
1162.724
1141.0436
1137.8779
1133.2437
1157.763
1158.722
1151.6178
1133.4354
1108.2462
118.04136
189.89449
260.94266
328.92272
717.60856
721.66182
334.36896
265.24266
193.09471
119.87156
120.48254
195.72399
269.09128
338.95372
726.07516
729.30573
340.50695
270.38902
196.7124
120.89078
121.07333
197.14708
270.99127
341.22236
732.00246
734.39533
341.67844
271.36512
197.42334
121.23025
121.40697
197.826
271.94782
342.39701
736.6378
738.79311
343.18952
272.57319
198.24981
121.5807
121.77564
198.76654
273.33893
344.15096
740.86745
742.88546
345.05577
274.04641
199.23836
121.94911
122.13606
199.76124
274.82799
346.0431
744.82465
746.70673
346.91082
275.50516
200.21082
122.29518
122.46784
200.70585
276.24785
347.85129
748.52154
750.27284
348.65575
276.87443
201.12075
122.61177
122.77079
201.58277
277.56779
349.53315
751.95334
753.58212
350.28002
278.14877
201.96694
122.9022
123.05032
202.40192
278.80144
351.10522
755.16008
756.70782
351.81013
279.34741
202.76161
123.1716
123.30971
203.1709
279.96164
352.5868
758.20892
759.67931
353.25432
280.47503
203.50745
123.42171
123.5511
203.89228
281.05099
353.98098
761.11098
762.52618
354.61656
281.53973
204.21299
123.65692
123.78223
204.59036
282.10493
355.33089
763.94045
765.36841
355.96107
282.58773
204.90663
123.88496
124.00921
205.28511
283.15558
356.68084
766.81268
768.29742
357.32634
283.64875
205.60754
124.11233
124.23856
205.99791
284.23546
358.07232
769.81827
771.39096
358.76172
284.76032
206.34014
124.34639
124.47902
206.75172
285.37788
359.54562
773.01946
774.72244
360.32764
285.96835
207.13037
124.59606
124.7239
207.54159
286.58866
361.11803
776.49668
778.31704
361.93599
287.20139
207.93803
124.84097
790.81765
331.60567
262.23839
190.72327
118.75139
118.65477
190.38986
261.71593
330.90026
788.99443
787.11594
330.14053
261.13535
190.01075
118.54002
118.42789
189.65016
260.56938
329.39204
785.31146
783.60257
328.67261
260.00528
189.27161
118.30354
118.19757
188.94132
259.49113
327.99596
781.98938
780.44637
327.33365
258.97044
188.59087
118.08149
117.98117
188.28366
258.49083
326.70287
778.94769
777.49173
326.07436
257.99586
187.95033
117.86861
117.77103
187.65533
257.53402
325.46661
776.05673
774.63489
324.85396
257.05159
187.33092
117.66056
117.56164
187.03457
256.58657
324.2413
773.19161
771.72824
323.6048
256.08508
186.69754
117.44598
117.34005
186.38315
255.59378
322.96049
770.23471
768.69739
322.28813
255.06304
186.02643
117.21669
117.1017
185.68848
254.53587
321.59786
767.11832
765.58691
320.91831
253.99466
185.32232
116.97265
116.85006
184.96636
253.43937
320.19049
763.95796
762.26996
319.43957
252.84563
184.56734
116.70923
116.5731
184.17641
252.23832
318.64618
760.46398
758.59682
317.81522
251.583
183.73701
116.41671
116.26535
183.3118
250.92738
316.96413
756.66941
754.68099
316.08492
250.23299
182.84503
116.09506
115.93109
182.40241
249.55553
315.20997
752.63484
750.52708
314.35885
248.87817
181.94266
115.75375
115.59055
181.54754
248.28321
313.59898
748.33351
746.13861
313.02286
247.80528
181.20737
115.43311
115.29331
180.96534
247.46643
312.60906
743.78216
741.20536
312.09794
247.01808
180.6196
115.1283
114.83521
179.82963
245.90714
310.74556
738.14761
734.32421
307.51265
243.28495
177.97438
114.29212
113.86951
174.66303
238.61351
301.83607
729.69298
720.80112
286.09269
224.66447
164.63094
111.05736
113.61616
174.82098
238.81521
302.05593
730.33558
734.72884
307.7173
243.4521
178.06356
114.12279
114.75775
179.95622
246.09887
310.97094
738.43113
741.36351
312.21994
247.12713
180.69676
115.07345
115.26014
181.03224
247.56635
312.72709
743.90527
746.21611
313.06016
247.84352
181.23989
115.40516
115.57218
181.58299
248.33794
313.66767
748.42593
750.56316
314.36367
248.88317
181.95043
115.73412
115.91414
182.40529
249.56192
315.22109
752.64099
754.65647
316.03306
250.19236
182.823
116.0747
116.24724
183.29088
250.89833
316.93227
756.60357
758.49716
317.72244
251.50987
183.69376
116.39477
116.55435
184.13973
252.18477
318.58303
760.33248
762.11708
319.32467
252.75781
184.51626
116.68878
116.8366
184.93697
253.39547
320.13815
763.84288
765.51796
320.83002
253.92896
185.28684
116.9595
117.09698
185.68283
254.52931
321.59573
767.14175
768.72275
322.24301
255.02745
186.0091
117.21015
117.33912
186.38457
255.59684
322.96936
770.26498
771.77734
323.58207
256.06676
186.69162
117.44424
117.5657
187.04889
256.60877
324.27381
773.25691
774.71645
324.86367
257.05698
187.34003
117.66367
117.77833
187.67977
257.57121
325.51864
776.16843
777.61407
326.08938
258.00656
187.96378
117.8735
117.98986
188.3114
258.53357
326.76288
779.08356
780.59423
327.35855
258.98749
188.60737
118.08744
118.20695
188.97077
259.53766
328.06207
782.15079
783.77485
328.71076
260.03087
189.29236
118.31107
118.44032
189.68487
260.62234
329.46439
785.47599
787.27609
330.19989
261.18618
190.05349
118.55709
118.69238
190.49414
261.85033
331.04455
789.16564
791.17097
331.90396
262.4992
190.90545
118.81438
118.92658
191.27539
263.06396
332.6501
793.31301
123.88244
204.81744
282.47648
355.9543
774.68233
772.53679
355.09532
281.83421
204.40021
123.75789
123.61954
203.94004
281.12431
354.16792
770.45504
768.49705
353.28478
280.43062
203.47337
123.47427
123.34687
203.0639
279.79838
352.45972
766.67743
764.9735
351.67055
279.17584
202.64298
123.20916
123.09263
202.27749
278.61083
350.9321
763.3499
761.7972
350.21298
278.04263
201.89266
122.96588
122.85681
201.55423
277.51633
349.52301
760.28486
758.89697
348.87291
276.99854
201.20133
122.738
122.63358
200.87969
276.49559
348.21088
757.46339
756.04113
347.54139
275.96515
200.52049
122.51313
122.4055
200.19197
275.45357
346.87205
754.59934
753.13758
346.17828
274.90338
199.81949
122.27933
122.1644
199.474
274.36748
345.4803
751.66252
750.17169
344.76283
273.79664
199.08677
122.03146
121.90826
198.72115
273.23062
344.02702
748.63016
747.04383
343.26099
272.62178
198.30894
121.76558
121.63172
197.91704
272.01723
342.47751
745.41338
743.72536
341.65976
271.36762
197.47761
121.47779
121.3315
197.05657
270.72019
340.82254
741.98669
740.18253
339.94953
270.02707
196.58786
121.16456
121.00417
196.13774
269.33768
339.06
738.33361
736.428
338.14804
268.61279
195.64642
120.82379
120.65013
195.18131
267.90421
337.23596
734.45649
732.43078
336.35522
267.20031
194.70025
120.46138
120.28793
194.29404
266.59055
335.57669
730.32
728.21262
335.00152
266.11476
193.95373
120.11864
119.96324
193.72562
265.79577
334.60585
725.94993
723.46539
334.06759
265.32968
193.3673
119.75356
119.35772
192.55763
264.1878
332.66682
720.58717
717.08047
329.28661
261.45718
190.65574
118.61815
117.7603
188.01176
257.38711
324.07849
713.08233
718.57038
329.67014
261.75725
190.50861
117.17183
119.75612
192.90584
264.89641
333.99435
721.5492
725.99107
338.93773
269.08185
195.69952
120.39555
120.87166
196.73036
270.40484
340.51301
729.1482
731.85362
341.16228
270.94395
197.11452
121.04121
121.22202
197.43732
271.3803
341.68461
734.24801
736.50366
342.32065
271.8845
197.78267
121.38158
121.57544
198.25576
272.57641
343.18139
738.65772
740.72624
344.06217
273.26627
198.71745
121.75243
121.94589
199.24286
274.04837
345.04717
742.73508
744.66938
345.94802
274.7482
199.70644
122.11285
122.29135
200.20835
275.49733
346.89113
746.5265
748.33503
347.7392
276.15455
200.64222
122.44333
122.60795
201.1145
276.8612
348.62994
750.08815
751.7721
349.41159
277.46785
201.51509
122.74614
122.89992
201.9624
278.13792
350.25705
753.41001
754.99405
350.99204
278.70731
202.33773
123.02758
123.17186
202.76188
279.34254
351.79317
756.5523
758.06993
352.49363
279.88176
203.11582
123.29046
123.42583
203.51713
280.48209
353.24951
759.56214
761.02643
353.9131
280.99283
203.85232
123.53677
123.66619
204.24101
281.57584
354.65025
762.47957
763.91387
355.29607
282.06928
204.56338
123.7713
123.8958
204.93975
282.63287
356.00777
765.34393
766.79035
356.65103
283.12384
205.26064
123.99944
124.12574
205.64634
283.70174
357.38239
768.27206
769.81035
358.05686
284.21884
205.9858
124.23415
124.36874
206.40355
284.8463
358.85451
771.4264
773.12222
359.60049
285.41685
206.77708
124.48603
124.62895
207.22826
286.09569
360.46443
774.915
776.78891
361.32043
286.74332
207.64509
124.75576
124.89616
208.09369
287.42019
362.18527
778.743
780.75527
363.08068
288.09145
208.52804
125.02572
123.8773
204.80034
282.44951
355.91806
774.59574
772.52533
355.08601
281.82419
204.39195
123.75459
123.61806
203.93763
281.1225
354.16797
770.47564
768.54409
353.29197
280.43463
203.47509
123.47437
123.34803
203.06785
279.80511
352.46934
766.71382
765.00509
351.67089
279.17593
202.64321
123.20969
123.09323
202.2778
278.61174
350.93405
763.36995
761.82597
350.20778
278.03814
201.88972
122.96573
122.85761
201.5553
277.51955
349.52974
760.32969
758.8852
348.84457
276.97808
201.18911
122.73547
122.63063
200.86806
276.47903
348.19168
757.44485
756.02811
347.51718
275.9453
200.50703
122.50952
122.4026
200.18214
275.44025
346.85734
754.59014
753.15041
346.17049
274.89503
199.81293
122.27732
122.16411
199.47343
274.36831
345.48379
751.69032
750.24663
344.78191
273.80855
199.09318
122.03324
121.91233
198.73456
273.2526
344.05759
748.71629
747.14999
343.29818
272.64848
198.3256
121.77086
121.63867
197.93887
272.05151
342.52332
745.52734
743.88168
341.72327
271.41388
197.50664
121.48696
121.34215
197.08912
270.77033
340.88802
742.13985
740.3415
340.02415
270.08234
196.6232
121.17624
121.01663
196.17458
269.3942
339.13359
738.50531
736.58477
338.21302
268.66228
195.67895
120.83538
120.66108
195.21105
267.94931
337.29417
734.59075
732.53899
336.39804
267.23324
194.72232
120.47031
120.29659
194.31599
266.62437
335.62174
730.43886
728.31075
335.03117
266.1374
193.96913
120.1256
119.97048
193.74352
265.82289
334.64181
726.05493
723.58849
334.10536
265.35857
193.38746
119.76256
119.35915
192.56715
264.20648
332.69301
720.70412
717.19592
329.28714
261.46323
190.67348
118.62928
117.66312
187.96036
257.38056
324.08419
713.42093
731.38799
303.02724
239.84532
175.5702
113.10644
114.12616
178.09601
243.37349
307.60834
734.84265
738.61837
311.0416
246.14835
179.97492
114.73383
115.1016
180.76593
247.21893
312.32955
741.54933
744.09019
312.77091
247.59125
181.04527
115.26718
115.43021
181.29789
247.92974
313.16709
746.38913
748.59741
313.70082
248.35492
181.59131
115.5796
115.75849
182.00799
248.96767
314.46562
750.74698
752.82597
315.25853
249.58646
182.42047
115.92294
116.10258
182.89716
250.30247
316.16732
754.85275
756.81858
316.99755
250.94231
183.31757
116.25783
116.42252
183.77185
251.62663
317.86599
758.71693
760.5487
318.64639
252.22633
184.16433
116.56303
116.7139
184.58927
252.86704
319.45867
762.30747
764.01278
320.18519
253.42339
184.95212
116.84129
116.98
185.3477
254.01984
320.94054
765.65847
767.2581
321.61359
254.53429
185.68275
117.09616
117.2252
186.05463
255.09537
322.32446
768.80177
770.31462
322.95282
255.57439
186.36616
117.33204
117.45336
186.71925
256.10802
323.63064
771.80868
773.26959
324.21591
256.55603
187.01166
117.55292
117.66999
187.35814
257.08187
324.88766
774.72012
776.16539
325.45791
257.51711
187.64187
117.76509
117.8803
187.98552
258.03874
326.12512
777.61721
779.09009
326.70354
258.48032
188.27373
117.97628
118.09376
188.62872
259.01894
327.39327
780.59664
782.14831
328.0039
259.48437
188.9326
118.19266
118.31484
189.30645
260.0496
328.72702
783.75453
785.42543
329.39498
260.55876
189.63872
118.42247
118.55178
190.0425
261.1692
330.17275
787.17192
789.00091
330.95025
261.75188
190.41343
118.66154
118.77935
190.79166
262.32554
331.68589
790.92049
792.9651
332.51527
262.94556
191.19107
118.90058
780.68434
362.95542
287.99301
208.46273
125.00706
124.87553
208.03144
287.33136
362.0813
778.64083
776.76805
361.25907
286.69153
207.60479
124.74216
124.61854
207.19255
286.04512
360.40142
774.86837
773.06615
359.59868
285.41289
206.76681
124.48222
124.36351
206.38713
284.82096
358.81773
771.39649
769.78517
358.08226
284.23859
205.9919
124.23507
124.1241
205.63955
283.68888
357.35818
768.23946
766.7412
356.66973
283.14175
205.26738
124.00147
123.89404
204.93154
282.61749
355.98017
765.29545
763.87148
355.32413
282.09335
204.57357
123.77422
123.66747
204.24289
281.57644
354.64413
762.46631
761.04532
353.98563
281.04909
203.88256
123.54564
123.43439
203.54273
280.51868
353.28947
759.62864
758.1618
352.59577
279.96392
203.16448
123.30551
123.18563
202.80235
279.40074
351.85966
756.66035
755.10244
351.1087
278.80144
202.39498
123.04608
122.91542
202.00601
278.19992
350.3271
753.51083
751.86662
349.52835
277.56246
201.57288
122.76534
122.6233
201.15642
276.92069
348.69686
750.18152
748.42865
347.84395
276.24073
200.69491
122.4613
122.30581
200.24727
275.55311
346.95475
746.6255
744.7467
346.04283
274.82672
199.75433
122.12948
121.95895
199.2773
274.09741
345.10233
742.81699
740.81372
344.1775
273.35684
198.7715
121.7703
121.59112
198.30005
272.64067
343.2564
738.78299
736.63864
342.43818
271.97983
197.84169
121.40106
121.23984
197.4905
271.45655
341.77385
734.40012
732.01344
341.29495
271.05295
197.18476
121.06334
120.89247
196.80981
270.5174
340.64401
729.33383
726.18354
339.10462
269.21032
195.78199
120.41588
119.75393
193.07793
265.13647
334.25905
721.75905
718.7449
329.92076
261.99122
190.70971
117.2882
117.92141
190.06694
261.19858
329.20025
717.9476
721.80956
334.46637
265.32972
193.14455
119.76913
120.41338
195.73799
269.11489
338.97285
726.08348
729.22977
340.54968
270.42725
196.73529
120.85111
121.0451
197.15576
270.99881
341.21797
731.88383
734.25159
341.70494
271.39081
197.44012
121.21251
121.38991
197.82292
271.93697
342.37121
736.48957
738.6316
343.18121
272.57246
198.2506
121.56799
121.76211
198.75374
273.31359
344.10782
740.69105
742.68018
345.03878
274.0359
199.23102
121.93804
122.1213
199.73345
274.7808
345.9737
744.60533
746.45348
346.87107
275.47561
200.19033
122.28278
122.45212
200.66713
276.18378
347.76026
748.25828
750.0118
348.6037
276.8363
201.09541
122.6
122.75789
201.54794
277.50965
349.44984
751.70885
753.35838
350.24329
278.12197
201.94882
122.89399
123.04119
202.37555
278.75638
351.03928
754.95862
756.51978
351.79209
279.33457
202.75245
123.16718
123.30423
203.15277
279.92884
352.53706
758.04652
759.54321
353.24606
280.47332
203.5078
123.42152
123.55194
203.89415
281.04835
353.96918
761.01569
762.47184
354.65349
281.56963
204.23186
123.6616
123.78405
204.59732
282.11247
355.33563
763.90142
765.33234
355.99937
282.61727
204.92431
123.8892
124.0106
205.28949
283.16028
356.68361
766.78636
768.27864
357.35867
283.67474
205.62379
124.11713
124.24376
206.01087
284.25175
358.08845
769.82071
771.43701
358.81603
284.80787
206.37378
124.35813
124.49642
206.80086
285.44485
359.62304
773.13677
774.94406
360.44768
286.07563
207.21202
124.6243
124.77395
207.69161
286.79074
361.35135
776.86636
778.87521
362.31763
287.52096
208.15655
124.91294
125.03474
208.55445
288.12013
363.09992
780.88112
1179.7602
1181.0702
1179.7569
1181.0622
1171.2704
1167.8938
1166.0095
1205.5371
1206.3059
1167.8977
1174.9487
1209.826
1206.3046
1209.1873
1204.5254
1188.6618
1170.7478
1182.2413
1198.4273
1207.4175
1192.8163
1175.5515
1193.1612
1199.7369
1178.2731
1173.2044
1210.6153
1210.407
1208.3337
1226.7536
1223.699
1230.6053
1213.311
1222.0138
1237.4769
1241.7607
1228.5401
1229.2931
1211.3488
1196.315
1195.2443
1213.2488
1214.7964
1201.5823
1179.521
1166.246
1150.661
1149.04
1173.7734
1186.7071
1188.8325
1176.1481
1164.254
1153.145
1125.8223
1138.6546
1138.6257
1110.3457
1112.6793
1110.5706
1101.7815
1106.858
712.72399
323.12309
256.60103
187.45727
118.05829
118.74464
190.2768
260.86503
328.55674
716.59079
720.12361
332.05916
263.67276
192.2044
119.37562
119.76844
193.14572
264.99885
333.67523
723.06046
725.6222
334.26311
265.49757
193.51756
119.95022
120.11786
193.8278
265.92305
334.77196
727.94577
730.16618
335.36175
266.40007
194.16024
120.2709
120.46051
194.6332
267.09564
336.23108
732.31054
734.38942
337.09651
267.77442
195.08811
120.63331
120.82339
195.60868
268.55104
338.07556
736.39566
738.3357
338.95419
269.23683
196.06437
120.98721
121.16379
196.56421
269.98687
339.90439
740.20536
741.99409
340.72011
270.62362
196.98665
121.31237
121.47551
197.45661
271.33037
341.61665
743.73692
745.42174
342.3723
271.91998
197.84755
121.61107
121.76324
198.2919
272.5895
343.22236
747.05076
748.62842
343.92933
273.1381
198.65403
121.88709
122.0276
199.06663
273.75881
344.71616
750.15675
751.63992
345.37232
274.26872
199.40382
122.14195
122.27551
199.80095
274.86716
346.13232
753.1029
754.53642
346.76402
275.35378
200.12078
122.38224
122.50785
200.4968
275.91922
347.48034
755.94108
757.34988
348.09497
276.38995
200.80517
122.60932
122.73131
201.17359
276.94365
348.79652
758.74893
760.17341
349.41273
277.41569
201.48326
122.83205
122.95662
201.86428
277.98905
350.14138
761.64876
763.17803
350.79205
278.48948
202.19357
123.06244
123.19545
202.60625
279.11146
351.58537
764.78156
766.47232
352.31926
279.67282
202.97406
123.31156
123.45473
203.42278
280.34672
353.17507
768.26257
770.16368
354.03335
280.99945
203.84505
123.58479
123.72965
204.30744
281.69924
354.92894
772.18511
774.33948
355.85223
282.39137
204.75396
123.86215
123.69692
204.21505
281.55723
354.75901
771.95076
770.1149
354.01215
280.99127
203.84173
123.58522
123.45869
203.42349
280.34375
353.16528
768.26051
766.48802
352.35533
279.70384
202.99024
123.31994
123.2004
202.61511
279.12408
351.59724
764.83714
763.26922
350.88289
278.55595
202.22815
123.0732
122.96571
201.89143
278.03233
350.19431
761.80899
760.36392
349.52062
277.49759
201.52842
122.84554
122.74231
201.20827
276.99763
348.86237
758.93533
757.55793
348.22143
276.48728
200.86151
122.62624
122.5242
200.54742
275.99432
347.57054
756.15005
754.72328
346.90556
275.46564
200.18893
122.40341
122.29383
199.8559
274.94727
346.22631
753.27815
751.80689
345.52914
274.39108
199.47802
122.16546
122.04787
199.12525
273.84357
344.81468
750.31517
748.78052
344.09168
273.26415
198.73069
121.91195
121.7859
198.35773
272.68681
343.33954
747.26505
745.62651
342.5416
272.0523
197.92866
121.63781
121.49824
197.51997
271.42264
341.72534
743.91723
742.15523
340.86924
270.74111
197.0587
121.33715
121.18299
196.61415
270.05865
339.98661
740.3259
738.48102
339.09054
269.34244
196.12751
121.00931
120.84161
195.65545
268.62009
338.15742
736.53959
734.50879
337.20445
267.86025
195.13941
120.65283
120.47641
194.66855
267.1482
336.29352
732.42606
730.28073
335.47487
266.48556
194.20947
120.29143
120.13759
193.86455
265.97906
334.84033
728.07213
725.7471
334.38417
265.58858
193.57059
119.98028
119.80716
193.19828
265.0832
333.78431
723.17904
720.15989
332.26867
263.81825
192.28273
119.44705
118.86087
190.40482
261.09601
328.88718
716.47008
711.98266
323.53909
256.78729
187.47309
118.23144
116.53835
181.86517
248.54162
313.74337
705.25898
714.78348
337.57815
268.45511
195.91134
123.88248
117.40418
190.81224
262.08196
329.93499
718.57253
721.15337
333.6678
264.67347
192.81516
119.87291
120.45049
195.60062
268.90563
338.7015
725.66875
728.86627
340.22907
270.17079
196.58188
120.89446
121.07257
197.04672
270.83185
341.01906
731.62949
734.062
341.4975
271.22063
197.33079
121.227
121.39925
197.74124
271.81764
342.23436
736.3458
738.50494
343.03854
272.44962
198.16744
121.56895
121.75907
198.67945
273.20692
343.9852
740.55348
742.53875
344.90405
273.9214
199.15347
121.9301
122.11302
199.66785
274.6876
345.86707
744.49116
746.38301
346.74095
275.36938
200.12025
122.27161
122.44434
200.61868
276.11671
347.68577
748.2001
749.95445
348.50305
276.75274
201.03925
122.58917
122.7487
201.5039
277.44918
349.38303
751.65914
753.33156
350.14361
278.04059
201.89497
122.88192
123.03199
202.33727
278.70506
350.98459
754.93675
756.49636
351.69299
279.25535
202.70095
123.15468
123.29563
203.12015
279.8851
352.49025
758.02401
759.52051
353.15948
280.40365
203.46232
123.40965
123.54299
203.86316
281.00682
353.92471
760.9909
762.43189
354.56484
281.49985
204.18698
123.64941
123.77548
204.56837
282.07303
355.2922
763.8595
765.28313
355.91541
282.55226
204.88316
123.8778
124.00271
205.26532
283.12647
356.64416
766.71327
768.1912
357.29304
283.62207
205.58957
124.10631
124.23363
205.98306
284.21308
358.04375
769.72757
771.31813
358.72953
284.73967
206.32901
124.34315
124.48083
206.75899
285.38518
359.55063
772.97213
774.70731
360.33537
285.98728
207.15408
124.60452
124.75758
207.63148
286.69255
361.21841
776.51227
778.38768
362.20069
287.43846
208.11444
124.90568
125.03171
208.52612
288.01486
362.92671
780.34454
123.69019
204.18893
281.5202
354.71305
771.86271
770.04616
353.9594
280.94457
203.807
123.57339
123.44296
203.38482
280.29169
353.10588
768.20562
766.45202
352.3185
279.67003
202.96475
123.30769
123.1948
202.60526
279.11074
351.58264
764.83914
763.29587
350.88723
278.5607
202.23299
123.07372
122.97218
201.9117
278.05835
350.22383
761.83665
760.38056
349.55155
277.52907
201.55489
122.85573
122.75678
201.24134
277.04049
348.90999
758.94966
757.53602
348.23201
276.5027
200.87641
122.63659
122.52844
200.55015
275.99763
347.57435
756.11699
754.69123
346.87622
275.44385
200.17456
122.39988
122.28864
199.84135
274.92793
346.20486
753.24186
751.76134
345.51235
274.376
199.46657
122.16161
122.04582
199.11921
273.83671
344.80896
750.31883
748.82309
344.08779
273.26072
198.72813
121.91138
121.7862
198.35658
272.68533
343.33838
747.26836
745.61616
342.52655
272.04224
197.92308
121.63743
121.49705
197.51076
271.40814
341.70667
743.87906
742.09872
340.83106
270.71322
197.04159
121.33409
121.17959
196.59543
270.03044
339.95165
740.26278
738.4033
339.03695
269.30241
196.10231
121.00478
120.83742
195.62988
268.58148
338.10943
736.4526
734.4346
337.15194
267.81947
195.11307
120.64936
120.47457
194.64403
267.11083
336.24732
732.3445
730.23164
335.43472
266.45355
194.18891
120.29235
120.14135
193.84605
265.9491
334.80269
728.00903
725.68173
334.33828
265.55351
193.54978
119.98619
119.81731
193.17981
265.04971
333.74071
723.1089
720.08258
332.24163
263.79923
192.27698
119.46481
118.88593
190.42202
261.10695
328.89506
716.46403
712.0606
323.61146
256.84361
187.51853
118.2536
116.64997
182.43574
249.29632
314.57492
705.605
721.30135
289.01589
227.33829
166.71637
112.16531
120.5754
188.12844
257.16424
323.92168
712.39567
714.24964
325.05116
258.28137
189.16971
120.6898
117.88661
187.44659
256.65292
323.22302
712.93628
716.6483
328.59423
260.89488
190.30447
118.71663
119.35862
192.24038
263.74198
332.14929
720.16839
723.09863
333.67963
264.99755
193.14067
119.74543
119.94816
193.55847
265.56023
334.33692
725.64668
727.94792
334.76323
265.91233
193.8178
120.10201
120.27576
194.20107
266.46014
335.43058
730.15288
732.28398
336.21512
267.07788
194.61831
120.44798
120.6393
195.11949
267.81771
337.14031
734.35048
736.35565
338.04686
268.52447
195.58907
120.81228
120.99601
196.09866
269.28447
339.00477
738.29723
740.16877
339.87616
269.96186
196.54634
121.15466
121.32382
197.02681
270.68048
340.78309
741.97034
743.70622
341.59758
271.31033
197.44069
121.46732
121.62142
197.8827
271.97052
342.42908
745.37729
747.00167
343.17998
272.55133
198.26444
121.75225
121.8966
198.68351
273.17791
343.96919
748.56002
750.08977
344.67876
273.72415
199.04099
122.01743
122.15182
199.43354
274.31021
345.41655
751.57931
753.05517
346.08306
274.82418
199.77066
122.26472
122.39412
200.15444
275.39916
346.80977
754.49699
755.92817
347.45648
275.89472
200.47799
122.50077
122.62435
200.84772
276.4481
348.15566
757.35072
758.77254
348.79632
276.9359
201.16501
122.72739
122.84874
201.53101
277.48227
349.48494
760.20007
761.67628
350.14743
277.9857
201.85837
122.9536
123.07943
202.24288
278.56052
350.87417
763.22556
764.8413
351.58076
279.1015
202.59702
123.19187
123.33033
203.02687
279.74573
352.39878
766.54911
768.35827
353.20971
280.36681
203.43331
123.45739
123.61107
203.91723
281.08873
354.12063
770.29403
772.3448
355.10078
281.83352
204.39415
123.75574
123.87992
204.80739
282.46092
355.92485
774.49765
793.5763
332.70123
263.08278
191.27593
118.9255
118.81078
190.88722
262.47305
331.87925
791.38577
789.25593
331.03579
261.82655
190.46399
118.67953
118.55727
190.06661
261.20468
330.21401
787.26299
785.38905
329.44182
260.59944
189.66107
118.42671
118.31397
189.30515
260.04422
328.71012
783.64159
781.99205
328.02302
259.50374
188.94137
118.19435
118.09099
188.61923
258.99894
327.3559
780.41413
778.95073
326.73374
258.50669
188.28635
117.97941
117.88057
187.98229
258.02806
326.0994
777.45887
775.98175
325.46833
257.53061
187.64742
117.76767
117.66614
187.34011
257.04882
324.83333
774.50765
773.03341
324.19463
256.54411
186.99989
117.54973
117.44356
186.68347
256.04895
323.54401
771.54173
770.04877
322.89299
255.53296
186.33515
117.32274
117.21111
186.00674
255.0197
322.21964
768.52858
766.94372
321.54936
254.48659
185.64636
117.08456
116.96539
185.29967
253.94503
320.83841
765.40542
763.7634
320.12508
253.37833
184.91733
116.83002
116.70037
184.54454
252.79754
319.36391
762.07647
760.2911
318.57438
252.1744
184.12637
116.55156
116.40714
183.71735
251.54072
317.7483
758.41802
756.50458
316.90138
250.87135
183.26728
116.24385
116.08523
182.83128
250.20008
316.03016
754.52325
752.48421
315.17486
249.51999
182.37066
115.91067
115.74456
181.94199
248.86513
314.32852
750.42015
748.24784
313.58201
248.2644
181.52777
115.56944
115.42024
181.21183
247.79537
312.98934
745.99589
743.63654
312.58514
247.4491
180.94877
115.26231
115.1031
180.62601
247.00062
312.04831
741.04865
738.11664
310.70263
245.87474
179.78325
114.73164
114.20016
177.84139
242.96984
307.11431
734.32363
730.92607
302.53501
239.42254
175.23924
113.12808
722.2632
285.81117
224.56086
164.45159
110.4831
113.79151
174.45417
238.18
301.25216
730.02002
734.2229
307.10997
242.98245
177.78317
114.21569
114.80517
179.72037
245.72318
310.49957
737.8938
740.89165
311.88381
246.8531
180.51879
115.10365
115.27752
180.89719
247.36047
312.4757
743.51976
745.90245
312.88838
247.69662
181.1403
115.41668
115.57636
181.49489
248.20581
313.50838
748.17878
750.36363
314.24116
248.78136
181.8821
115.73658
115.91556
182.35155
249.48086
315.12192
752.47398
754.51684
315.97425
250.14073
182.78674
116.07681
116.24764
183.2578
250.84849
316.87087
756.49613
758.40347
317.69698
251.48304
183.67265
116.39568
116.55205
184.11139
252.14196
318.52938
760.22831
762.00625
319.30137
252.7334
184.49692
116.68705
116.83164
184.90814
253.35186
320.08324
763.73277
765.40035
320.79444
253.8979
185.2644
116.95505
117.09028
185.65417
254.48578
321.53998
767.01753
768.57624
322.2071
254.99446
185.98434
117.2032
117.32794
186.3452
255.53675
322.89185
770.08099
771.57256
323.52186
256.01514
186.65509
117.43269
117.55053
186.9996
256.5338
324.17819
773.03813
774.47298
324.7703
256.98476
187.29251
117.64875
117.76314
187.63134
257.49584
325.41961
775.90132
777.33264
326.0085
257.9423
187.92044
117.8586
117.97114
188.25692
258.44924
326.65276
778.79014
780.29852
327.25686
258.9079
188.55465
118.0681
118.18569
188.91265
259.44906
327.94765
781.8592
783.49633
328.6028
259.94646
189.23567
118.28926
118.41625
189.62708
260.53695
329.35579
785.22127
787.05117
330.10507
261.10738
189.998
118.53319
118.67403
190.43962
261.77065
330.94577
788.99888
791.06041
331.84993
262.45427
190.87409
118.80625
118.91905
191.24972
263.02668
332.60493
793.22522