/*--------------------------------*- C++ -*----------------------------------*\
  =========                 |
  \\      /  F ield         | OpenFOAM: The Open Source CFD Toolbox
   \\    /   O peration     | Website:  https://openfoam.org
    \\  /    A nd           | Version:  7
     \\/     M anipulation  |
\*---------------------------------------------------------------------------*/
FoamFile
{
    version     2.0;
    format      ascii;
    class       volVectorField;
    location    "230";
    object      U;
}
// * * * * * * * * * * * * * * * * * * * * * * * * * * * * * * * * * * * * * //

dimensions      [0 1 -1 0 0 0 0];

internalField   nonuniform List<vector> 
25201
(
(120.03109 0.019654997 0.013244826)
(120.03224 0.025119834 0.0052299917)
(120.03076 0.013727094 0.01928803)
(120.0312 0.0054072843 0.024638802)
(120.01517 0.0224936 0.021829842)
(120.02816 0.015770517 0.020935599)
(120.03057 0.01806921 0.01740532)
(120.03376 0.022423496 0.022038821)
(120.03326 0.017129205 0.023148173)
(120.022 0.017985808 0.017779412)
(120.03352 0.02354205 0.016868549)
(120.02867 0.021546266 0.01506162)
(120.02196 0.028058982 0.012134025)
(119.97546 0.084036335 0.046258731)
(119.96672 0.098504503 0.043549832)
(120.0154 0.026519503 0.037039479)
(120.00578 0.025454372 0.046531784)
(120.00105 0.040230667 0.051746579)
(120.00559 0.0405463 0.067485091)
(119.98914 0.054708469 0.096051462)
(119.9997 0.039401553 0.080035149)
(119.98531 0.033365644 0.069446178)
(119.99234 0.034892501 0.059162172)
(119.98061 0.046681443 0.070145588)
(119.99602 0.055200997 0.081763152)
(119.98856 0.072131514 0.096100037)
(119.98712 0.066738053 0.065151951)
(119.99896 0.018857666 0.057719479)
(119.99265 0.0066479525 0.065085927)
(119.9841 0.019026888 0.11102507)
(119.98837 0.028823078 0.10338303)
(119.99481 0.036118566 0.091677638)
(119.96307 0.02827997 0.14265825)
(119.97119 0.042339078 0.12994389)
(119.98039 0.051644881 0.11466131)
(119.96269 0.041536732 0.094488795)
(119.97949 0.029732564 0.078161821)
(119.97282 0.023344061 0.086840021)
(119.95371 0.033362919 0.10508438)
(119.94601 0.02173458 0.11369293)
(119.96833 0.015106375 0.092108919)
(119.96513 0.0042782222 0.095581925)
(119.98069 0.0056497791 0.11593285)
(119.95826 0.0089356029 0.14895404)
(119.94174 0.0066258883 0.11779666)
(119.93633 0.0046469172 0.092810995)
(119.95716 0.0034008479 0.077307382)
(119.98042 0.0048987316 0.049051396)
(120.01323 0.0042607052 0.032811829)
(120.02079 0.01245808 0.027169643)
(120.02684 0.01223022 0.025861336)
(120.0197 0.0035326835 0.027107469)
(119.99019 0.0069788015 0.025649173)
(119.99772 0.011528282 0.024299607)
(120.00964 0.01471831 0.022824675)
(120.00608 0.017084546 0.026456693)
(120.0076 0.022283824 0.033030935)
(119.99487 0.020268308 0.038636163)
(119.99338 0.014620978 0.031077826)
(119.96989 0.0196235 0.034855661)
(119.97921 0.024216453 0.042704903)
(119.9876 0.029867907 0.040023364)
(119.98514 0.021866651 0.028348556)
(119.98966 0.015311587 0.020501928)
(119.99664 0.011076942 0.015096272)
(120.01583 0.012410768 0.01946855)
(120.00466 0.0093226591 0.019587683)
(119.98176 0.0082006942 0.015470951)
(119.97324 0.011674113 0.02231871)
(119.96088 0.0075501969 0.024629767)
(119.95671 0.013192906 0.041204424)
(119.96566 0.019168531 0.053525385)
(119.98685 0.013742797 0.045118327)
(119.98568 0.0092848755 0.034373487)
(119.97977 0.0030091404 0.036474573)
(119.94867 0.0042846004 0.044315587)
(119.95546 0.0090179714 0.060334676)
(119.95936 0.014538143 0.058140332)
(119.96438 0.019013386 0.071355862)
(119.97077 0.024339698 0.065075757)
(119.97682 0.027846428 0.058961337)
(119.98459 0.029836452 0.051496264)
(119.97171 0.038550013 0.059221459)
(119.96664 0.031460316 0.048342603)
(119.9588 0.029059498 0.055486119)
(119.97136 0.02263553 0.049163737)
(119.96372 0.035464175 0.067786082)
(119.97236 0.045402303 0.08126911)
(119.97104 0.062132484 0.096108779)
(119.97109 0.059648439 0.079558347)
(119.96377 0.054857632 0.085425352)
(119.95041 0.047872416 0.075615652)
(119.95721 0.053086863 0.094295316)
(119.96487 0.059987132 0.10566409)
(119.97378 0.066720057 0.11645393)
(119.97964 0.068149169 0.10530626)
(119.99191 0.075405056 0.11547303)
(119.98624 0.073876302 0.12749349)
(119.97895 0.085346643 0.14135315)
(119.98475 0.086517513 0.12805051)
(119.97244 0.078439858 0.11657581)
(119.96675 0.077377321 0.12889506)
(119.95802 0.068707695 0.11507988)
(119.96341 0.071220448 0.10520914)
(119.95596 0.063669676 0.093460132)
(119.95022 0.061537596 0.1027152)
(119.94142 0.069451133 0.10900629)
(119.94859 0.070450136 0.099506923)
(119.95522 0.077425835 0.09292671)
(119.97319 0.096369438 0.11463405)
(119.97724 0.098953669 0.13897687)
(119.96432 0.088922381 0.12520837)
(119.95642 0.090814848 0.14018262)
(119.96857 0.1010065 0.15569979)
(119.95521 0.11628503 0.16910144)
(119.96517 0.1155359 0.15020796)
(119.9528 0.10306261 0.13446221)
(119.94347 0.10388924 0.15121527)
(119.93556 0.090382971 0.13369217)
(119.94769 0.079565746 0.1244488)
(119.95561 0.079919492 0.11275953)
(119.94431 0.091852487 0.12067856)
(119.93834 0.08044537 0.10583117)
(119.93034 0.079317107 0.11704838)
(119.91746 0.091526811 0.12301607)
(119.92887 0.091162936 0.1100996)
(119.93949 0.099710866 0.09959954)
(119.95621 0.094226247 0.077658473)
(119.97277 0.08150591 0.05976826)
(119.95861 0.11075442 0.036588216)
(119.95148 0.12163469 0.026126095)
(119.94749 0.12823665 0.011751689)
(119.93878 0.10218315 0.0097632992)
(119.94243 0.097283772 0.020627179)
(119.94922 0.089430092 0.02885441)
(119.95669 0.080602392 0.034624836)
(119.96567 0.070162698 0.03710217)
(119.97313 0.060834861 0.039321767)
(119.98832 0.041006559 0.029777642)
(120.00857 0.034115954 0.021877619)
(120.00662 0.027273884 0.017205377)
(119.98543 0.028823028 0.022315377)
(119.97028 0.035991523 0.021076478)
(119.98036 0.044146826 0.025059489)
(119.99664 0.040157314 0.020601654)
(119.9942 0.032351885 0.015379338)
(119.99804 0.025238031 0.012326958)
(120.00993 0.023399026 0.014988155)
(120.02732 0.026572235 0.012322704)
(120.01596 0.019876366 0.012703638)
(119.99663 0.015194787 0.01156013)
(119.98976 0.020741036 0.015837953)
(119.97322 0.022979895 0.012992001)
(119.98157 0.0158505 0.0092385784)
(120.0047 0.020248424 0.010010237)
(119.99752 0.020699367 0.0067221717)
(120.02026 0.028468508 0.004131851)
(120.01518 0.034595843 0.0047157888)
(119.98922 0.047680111 0.014958944)
(119.98664 0.036515598 0.010669937)
(119.95692 0.043813812 0.015833485)
(119.96725 0.056331983 0.021230802)
(119.97275 0.051176236 0.024052018)
(119.97909 0.061251186 0.028887156)
(119.98632 0.053184231 0.030219715)
(119.97349 0.068211796 0.026053023)
(119.96747 0.075725246 0.02149433)
(119.96097 0.062068978 0.017244899)
(119.94437 0.071658053 0.023045253)
(119.95178 0.065122915 0.027540134)
(119.9599 0.057415452 0.030972408)
(119.9675 0.049588674 0.032667199)
(119.95737 0.051939571 0.039475833)
(119.96916 0.045329153 0.04505064)
(119.96572 0.028926674 0.029260817)
(119.95601 0.030348649 0.040904935)
(119.95684 0.038129108 0.051143126)
(119.9615 0.048690619 0.064798566)
(119.94587 0.059323846 0.073371572)
(119.94279 0.047113398 0.056355684)
(119.9323 0.045413809 0.065480469)
(119.94 0.052774036 0.076511455)
(119.94324 0.061740984 0.088538328)
(119.93549 0.06014473 0.09625413)
(119.93302 0.052065736 0.084050818)
(119.92473 0.059434264 0.089072492)
(119.93126 0.06089959 0.081288219)
(119.93409 0.069936088 0.093275478)
(119.92701 0.067600967 0.10154992)
(119.91582 0.077352923 0.10596878)
(119.92592 0.078694827 0.096349845)
(119.93228 0.074820374 0.075532736)
(119.94645 0.073962915 0.060380918)
(119.96251 0.06612636 0.049591939)
(119.95187 0.077778187 0.050102659)
(119.9661 0.087969989 0.056023862)
(119.97402 0.098921396 0.062722942)
(119.93793 0.13648552 0.092897705)
(119.94603 0.12270502 0.093197384)
(119.95783 0.1152261 0.081013378)
(119.96607 0.10786711 0.072110881)
(119.95799 0.095766118 0.06513456)
(119.95271 0.10568287 0.063736566)
(119.95995 0.097369908 0.054936734)
(119.96846 0.10903394 0.061287723)
(119.96132 0.11841593 0.070404998)
(119.95056 0.12762847 0.08167657)
(119.94355 0.11169779 0.072060186)
(119.95025 0.10148171 0.072143971)
(119.93959 0.10730408 0.082378442)
(119.93204 0.11925541 0.082316729)
(119.91868 0.12447327 0.094845986)
(119.9297 0.11088062 0.093140709)
(119.93536 0.12776723 0.10635261)
(119.94348 0.14396773 0.1197483)
(119.95761 0.12682138 0.12515189)
(120.03124 -0.0060726692 0.024310305)
(120.031 -0.014030808 0.018670925)
(120.02718 -0.014386765 0.024030495)
(119.99886 -0.020168429 0.056264784)
(119.99262 -0.0082157538 0.06455993)
(119.98066 -0.0073538135 0.11546488)
(119.9711 -0.043666849 0.1271432)
(119.98817 -0.030108349 0.10132893)
(119.98399 -0.020557965 0.10962208)
(119.96841 -0.016840713 0.090870439)
(119.96515 -0.0061551363 0.09517819)
(119.94183 -0.0089456002 0.11721091)
(119.95829 -0.011097315 0.14824971)
(119.96308 -0.030089921 0.14077445)
(119.94624 -0.023784083 0.11210725)
(119.954 -0.035000709 0.10266728)
(119.97292 -0.024851348 0.085017082)
(119.97962 -0.030968752 0.075821694)
(119.99452 -0.037142479 0.089090587)
(119.98018 -0.052524657 0.11130774)
(119.963 -0.042743703 0.091534287)
(119.97273 -0.046290167 0.077906938)
(119.98549 -0.034380925 0.066757933)
(120.00573 -0.026471717 0.0444748)
(96.62952 0.093333671 0.2217675)
(105.46786 0.11499863 0.24080249)
(108.73363 0.12314549 0.24911526)
(110.514 0.12584788 0.25351948)
(117.33371 0.055305452 0.19905133)
(117.81974 -0.14610149 0.12242824)
(111.66452 -0.15550489 0.2416994)
(109.96599 -0.15175894 0.26694056)
(106.75974 -0.15150658 0.29050373)
(97.839722 -0.16369815 0.29959101)
(97.838893 -0.061695062 0.090897639)
(106.62915 -0.064595356 0.099811718)
(109.81981 -0.063470768 0.09620007)
(111.53812 -0.061674708 0.090875131)
(117.83706 -0.070542392 0.056518907)
(117.95246 -0.060705076 0.03992692)
(111.6919 -0.063315167 0.070528671)
(109.98132 -0.064186902 0.07643981)
(106.80081 -0.065927545 0.082123737)
(98.019415 -0.068461658 0.088041946)
(98.073212 -0.041949673 0.052108247)
(106.83614 -0.042744522 0.051617114)
(110.01068 -0.042231496 0.048985957)
(111.71958 -0.041737771 0.045877983)
(118.00629 -0.043901864 0.026147743)
(118.06038 -0.034678803 0.019630115)
(111.77077 -0.033519473 0.035554397)
(110.06557 -0.033778758 0.03835701)
(106.89579 -0.034195975 0.04101077)
(98.138488 -0.034612439 0.043074866)
(98.185014 -0.025664111 0.031522564)
(106.93497 -0.025933409 0.030659075)
(110.10091 -0.025863714 0.028781508)
(111.80348 -0.025808741 0.026712358)
(118.0967 -0.027199133 0.01483577)
(118.12635 -0.021921807 0.011634519)
(111.83639 -0.020904642 0.020918086)
(110.13611 -0.020838623 0.022647775)
(106.97383 -0.020794827 0.024277967)
(98.229741 -0.020665484 0.025264216)
(98.268979 -0.016501045 0.01998197)
(107.00623 -0.016725947 0.019255859)
(110.16512 -0.016859318 0.017937728)
(111.86331 -0.016983149 0.016542689)
(118.1484 -0.017788506 0.0093003109)
(118.16591 -0.014636837 0.0075553092)
(111.88726 -0.01404461 0.013296057)
(110.19084 -0.013887961 0.014453564)
(107.03529 -0.013709319 0.015565493)
(98.304252 -0.013480762 0.016193749)
(98.336514 -0.011118624 0.013226036)
(107.06075 -0.011347797 0.012701702)
(110.21307 -0.011551258 0.011765116)
(111.90759 -0.011719689 0.010804105)
(118.17953 -0.012157894 0.006215756)
(118.19036 -0.01021172 0.0051620192)
(111.92534 -0.0098900365 0.0088528248)
(110.23245 -0.0097129737 0.0096598445)
(107.08331 -0.0094898621 0.010459422)
(98.365175 -0.0092613222 0.010904439)
(98.39206 -0.0077655288 0.0090386916)
(107.10364 -0.0079977154 0.0086628447)
(110.24967 -0.0082354853 0.0079769417)
(111.94072 -0.0084184307 0.0072955864)
(118.19885 -0.0086519808 0.0043235432)
(118.20554 -0.007382371 0.0036563641)
(111.95429 -0.0072246851 0.0060463069)
(110.26481 -0.0070378308 0.0066258082)
(107.12181 -0.0067901879 0.0072191174)
(98.416032 -0.0065553073 0.0075383559)
(98.438993 -0.0055609296 0.0063194626)
(107.13853 -0.0057950234 0.0060455101)
(110.27858 -0.0060486987 0.0055287696)
(111.96627 -0.0062373568 0.0050337506)
(118.21071 -0.0063266085 0.0031273763)
(118.21464 -0.0054336367 0.0027066072)
(111.977 -0.0054105941 0.0042143843)
(110.29084 -0.005221972 0.004640074)
(107.15367 -0.0049653104 0.005094065)
(98.459605 -0.0047338147 0.0053303127)
(98.479655 -0.0040420686 0.0045323572)
(107.16782 -0.0042695544 0.0043282216)
(110.30219 -0.0045256578 0.0039252596)
(111.98659 -0.0047113054 0.0035563781)
(118.21751 -0.0046650984 0.0023736676)
(118.21952 -0.0039945189 0.0021192959)
(111.99527 -0.0041129782 0.0030596157)
(110.31237 -0.0039335381 0.0033856305)
(107.18074 -0.0036832053 0.0037492804)
(98.497703 -0.003467088 0.0039246285)
(98.515388 -0.0030323892 0.0034461615)
(107.19289 -0.0032435948 0.0032924285)
(110.32188 -0.0034833279 0.0029603624)
(112.00308 -0.003651113 0.0026675717)
(118.22073 -0.0034319428 0.001919613)
(118.22129 -0.00296068 0.0018172763)
(112.0102 -0.0033054675 0.0024356694)
(110.33046 -0.0031539739 0.0027076346)
(107.20404 -0.002928456 0.0030197328)
(98.531296 -0.0027316638 0.0031554782)
(98.547121 -0.0025464889 0.0029565636)
(107.21468 -0.002721063 0.0028283535)
(110.33863 -0.0029254846 0.0025371279)
(112.01672 -0.0030562812 0.0022854168)
(118.2213 -0.0025646846 0.0017936225)
(118.22083 -0.0022018611 0.0017078081)
(112.02263 -0.0027981784 0.0020335768)
(110.34596 -0.0026813223 0.0022552744)
(107.22446 -0.0024948175 0.0025140063)
(98.561422 -0.0023173707 0.0026407685)
(98.575542 -0.0020757639 0.0023580536)
(107.23359 -0.0022400043 0.0022110226)
(110.35275 -0.0024069721 0.0019739969)
(112.02783 -0.0025085934 0.0017779408)
(118.21986 -0.0018133585 0.0015937832)
(118.21853 -0.0013726669 0.0015500956)
(112.03257 -0.0021096596 0.0016610546)
(110.35884 -0.0020196197 0.0018404356)
(107.24199 -0.001863495 0.0020671998)
(98.58823 -0.0017411617 0.0021884544)
(98.60118 -0.0016477871 0.0020818222)
(107.25007 -0.0017474985 0.0019573683)
(110.36467 -0.0018764761 0.0017342776)
(112.03685 -0.0019431478 0.0015634242)
(118.21691 -0.0010740431 0.0015065889)
(118.21498 -0.00086663564 0.0014192976)
(112.04055 -0.0017666962 0.001319907)
(110.36966 -0.0016985496 0.0014629692)
(107.25728 -0.0015655192 0.0016602782)
(98.612694 -0.0014718631 0.0017807121)
(98.624403 -0.0012280335 0.0014504758)
(107.2641 -0.0013441615 0.0013347964)
(110.37431 -0.0014910551 0.0011644818)
(112.04372 -0.0015728557 0.0010516749)
(118.21269 -0.00071254954 0.0013613022)
(118.21028 -0.00059913997 0.0013327715)
(112.04677 -0.001350789 0.00087746402)
(110.37863 -0.0012407047 0.00096896365)
(107.27062 -0.001063623 0.0011201263)
(98.635188 -0.00093045633 0.0012371821)
(98.647187 -0.00042040754 0.00057553175)
(107.27759 -0.00050841065 0.00061549035)
(110.38335 -0.0007618741 0.000516611)
(112.04997 -0.00094348741 0.0004821146)
(118.20799 -0.00049909739 0.0011960676)
(118.20517 -0.00069047516 0.00056856669)
(112.05229 -0.00083080454 -0.0008547215)
(110.38701 -0.0005978529 -0.00094896444)
(107.28371 -0.0002274185 -0.00099708011)
(98.65847 -9.6436608e-05 -0.0012398154)
(98.667462 -0.0013387287 -0.0021173744)
(107.28691 -0.001863427 -0.002135292)
(110.38802 -0.0021536193 -0.0020516344)
(112.05202 -0.0023122991 -0.0019023939)
(118.20087 -0.0013015908 4.6962093e-05)
(118.19641 -0.00019208678 0.0008157981)
(112.05186 -0.00087693175 -0.00060475025)
(110.38929 -0.00076109067 -0.00070662743)
(107.29001 -0.00052630852 -0.00075532113)
(98.673777 -0.00022075521 -0.00079954321)
(118.28734 -0.00043916556 0.00054117181)
(110.96109 -0.002632307 -0.00099961115)
(109.24823 -0.0027223693 -0.0011367836)
(106.05735 -0.0026699686 -0.0012250244)
(97.290588 -0.0021140358 -0.0011069809)
(97.285156 -0.0045843998 -0.00059017376)
(106.05465 -0.005100504 -0.00079763788)
(109.24717 -0.0050841544 -0.00080198293)
(110.96146 -0.0048850736 -0.00073882502)
(118.29195 -0.0015420165 0.00044650697)
(118.29651 -0.00040866424 0.00063523012)
(110.96184 -0.0023755587 -0.00030721032)
(109.24635 -0.0024128001 -0.00035330319)
(106.05173 -0.0022963951 -0.00036729696)
(97.276297 -0.0025113193 -0.00062501716)
(97.263133 0.00017352387 0.00082504916)
(106.04434 0.00059550124 0.0010130408)
(109.24169 0.00030717807 0.00093105883)
(110.95861 0.0001572364 0.00088605013)
(118.29944 0.00056674469 0.0011446798)
(118.30163 0.00029561875 0.0012009433)
(110.95346 1.4105503e-05 0.0012089789)
(109.23483 0.0002090361 0.0013311785)
(106.03493 0.00044631594 0.0014929721)
(97.248284 0.00050437902 0.001564264)
(97.235041 0.00030324103 0.001728081)
(106.02618 0.00016925732 0.0016532995)
(109.22856 -9.1603109e-05 0.0014823841)
(110.94866 -0.00030467171 0.0013393022)
(118.30409 -6.7845995e-05 0.0011798705)
(118.30649 -0.00037605898 0.0012183436)
(110.9439 -0.00051493142 0.0015484028)
(109.2222 -0.00028015087 0.0017183811)
(106.01748 -1.6058221e-06 0.0019167308)
(97.221209 0.00013623403 0.0020208293)
(97.207192 -2.8626772e-05 0.0024207474)
(106.00805 -0.00019425381 0.0023175508)
(109.21528 -0.00049921429 0.0020862725)
(110.93846 -0.00074936156 0.0018802973)
(118.30854 -0.00069841524 0.0013122142)
(118.31027 -0.0011372386 0.0013909289)
(110.93257 -0.0011952037 0.0020393465)
(109.20773 -0.00094575524 0.0022625274)
(105.99812 -0.00064074869 0.0025123087)
(97.192271 -0.00040461545 0.0026805588)
(97.177697 -0.0011197298 0.0030833016)
(105.9879 -0.0013634891 0.0028832501)
(109.2 -0.0016335702 0.0026264206)
(110.92634 -0.0018412192 0.0024003273)
(118.31172 -0.0016242434 0.0016207979)
(118.3128 -0.0019272515 0.0018978012)
(110.91983 -0.0022562028 0.0028620252)
(109.19186 -0.0020740881 0.0031022472)
(105.97739 -0.0018225507 0.0033613182)
(97.162287 -0.001596032 0.0034826899)
(97.146436 -0.0017792585 0.0038316583)
(105.96606 -0.0019952019 0.0037159191)
(109.1831 -0.0022500351 0.0034406897)
(110.91259 -0.0024361989 0.0031769235)
(118.31334 -0.002190782 0.0020580011)
(118.31342 -0.0026453932 0.0021073159)
(110.90484 -0.0026848938 0.0033485836)
(109.17366 -0.002466302 0.0036391386)
(105.95409 -0.0021732742 0.0039529579)
(97.129272 -0.00194905 0.0041340838)
(97.111766 -0.002232698 0.0046228188)
(105.94144 -0.0024765042 0.0044179977)
(109.16376 -0.0027885523 0.0040717442)
(110.89652 -0.0030269838 0.0037510333)
(118.31303 -0.00318175 0.0022983407)
(118.31201 -0.0037732084 0.0025897826)
(110.88752 -0.0034196762 0.0042847874)
(109.15303 -0.003162445 0.0046357577)
(105.92801 -0.0028324967 0.0050071021)
(97.092747 -0.0025657969 0.005210266)
(97.073021 -0.0029579833 0.0059448027)
(105.91353 -0.003239657 0.0057424515)
(109.14147 -0.0035878597 0.0053403825)
(110.87758 -0.0038638225 0.0049521673)
(118.31023 -0.004438873 0.0029590406)
(118.3076 -0.0051919278 0.0034226026)
(110.86685 -0.0043653364 0.0057620433)
(109.12899 -0.0040693791 0.0061937808)
(105.89824 -0.0037002036 0.0066329889)
(97.051916 -0.0034034206 0.0068357316)
(97.029883 -0.0039283285 0.0079279771)
(105.88171 -0.0042413355 0.0077183787)
(109.11552 -0.0046351994 0.0072314861)
(110.85502 -0.0049542317 0.0067458054)
(118.30396 -0.0060695027 0.0039905513)
(118.29913 -0.0071183902 0.0046931173)
(110.84205 -0.0056650238 0.00796594)
(109.10075 -0.0053190332 0.0085203769)
(105.86396 -0.004897176 0.0090691611)
(97.005904 -0.0045664568 0.0092942409)
(96.980461 -0.0053479425 0.010999934)
(105.84448 -0.0057006391 0.010754193)
(109.08451 -0.0061550177 0.010127561)
(110.8275 -0.0065325057 0.0094867117)
(118.29285 -0.0083839829 0.0055702943)
(118.28485 -0.0099507285 0.0066631248)
(110.81125 -0.0076126436 0.011410909)
(109.06638 -0.0071987582 0.012163999)
(105.82315 -0.006708874 0.012893094)
(96.952416 -0.0063340863 0.013175191)
(96.922292 -0.0075431974 0.015837817)
(105.79941 -0.0079471234 0.015526487)
(109.0461 -0.0084769252 0.014678593)
(110.79273 -0.0089337004 0.013792501)
(118.27466 -0.011896107 0.0080306202)
(118.26185 -0.014366196 0.009754177)
(110.77186 -0.010593562 0.01680631)
(109.02328 -0.01008314 0.01786102)
(105.7732 -0.0095052087 0.018860975)
(96.889044 -0.0090698282 0.019222802)
(96.852763 -0.010984018 0.023485962)
(105.74346 -0.011463853 0.023093307)
(108.99717 -0.012081851 0.021920593)
(110.74766 -0.012641388 0.020664804)
(118.24542 -0.017501855 0.011971385)
(118.22478 -0.021620068 0.014880539)
(110.72094 -0.015374717 0.02580848)
(108.96825 -0.014757047 0.027348821)
(105.71094 -0.014091988 0.028787276)
(96.813113 -0.013598692 0.029325584)
(96.768528 -0.016725336 0.036356346)
(105.6727 -0.017348863 0.035944897)
(108.93402 -0.018005643 0.034295222)
(110.6892 -0.018637002 0.032460855)
(118.19725 -0.026821317 0.01877814)
(118.16353 -0.034115197 0.024242966)
(110.65756 -0.023812397 0.042287582)
(108.89939 -0.023138947 0.0447219)
(105.63383 -0.022472915 0.047018332)
(96.722134 -0.022038328 0.048218708)
(96.661972 -0.026127708 0.057491877)
(105.58122 -0.027294825 0.057730313)
(108.85209 -0.027963185 0.055500798)
(110.6141 -0.028679445 0.05280767)
(118.11476 -0.042471551 0.031321382)
(118.06353 -0.057389817 0.043876426)
(110.57525 -0.041596585 0.077089259)
(108.80916 -0.040777723 0.081727957)
(105.53097 -0.03997059 0.086396947)
(96.596569 -0.039877101 0.087733105)
(96.473053 -0.030236999 0.078825719)
(105.43532 -0.033294319 0.083735927)
(108.72388 -0.035195706 0.081091273)
(110.49293 -0.037230291 0.076111767)
(117.97313 -0.06220826 0.049757819)
(117.92494 -0.09603026 0.1001518)
(110.37495 -0.048232145 0.15854787)
(108.59777 -0.044490524 0.16469565)
(105.28933 -0.043481708 0.16835804)
(96.298645 -0.049038156 0.16374685)
(96.489016 0.035807178 -0.12798459)
(105.47005 0.051164678 -0.095805412)
(108.73079 0.042710274 -0.076552771)
(110.45884 0.035164524 -0.061590018)
(117.78649 0.016858929 0.017951411)
(117.98337 -0.25677546 0.64474677)
(110.79682 0.51541367 1.8407707)
(109.05306 0.63530148 2.0447887)
(105.575 0.71439816 2.2551205)
(95.831799 0.29653923 2.2032454)
(96.231442 0.72808901 0.29392482)
(105.22445 0.68062295 0.29516589)
(108.48328 0.63146863 0.2783619)
(110.20691 0.58636813 0.25788125)
(117.51523 0.29388322 0.18953268)
(117.74432 0.089707486 0.0014247082)
(110.18226 0.10361673 0.068027865)
(108.40583 0.10692336 0.073621377)
(105.1021 0.11232757 0.075047231)
(96.126333 0.12031204 0.07173335)
(96.374862 0.10754712 0.050603901)
(105.32938 0.10151327 0.046105216)
(108.61522 0.094890695 0.042860701)
(110.38325 0.089259859 0.038586557)
(117.86093 0.061444663 0.0062350344)
(117.98914 0.032652569 -0.010732146)
(110.49941 0.029676231 0.0076505476)
(108.7337 0.029953603 0.009333834)
(105.45754 0.030338423 0.010489892)
(96.529724 0.029733779 0.011723022)
(96.617412 0.024550054 0.0099341029)
(105.53192 0.024389672 0.0086450233)
(108.80125 0.02363834 0.0077988971)
(110.56285 0.022930014 0.0067047859)
(118.0634 0.022844962 -0.0075377889)
(118.12698 0.015704521 -0.0077131208)
(110.62078 0.01376226 0.002537573)
(108.86278 0.0138872 0.0034828034)
(105.59827 0.01396819 0.0042882781)
(96.690069 0.013619163 0.0050368156)
(96.745133 0.010287088 0.0037135183)
(105.64662 0.010524799 0.0030788116)
(108.9071 0.010462545 0.0023760238)
(110.6621 0.010358624 0.0015900543)
(118.17038 0.011621976 -0.0062047758)
(118.20454 0.0087801552 -0.0052998352)
(110.70034 0.007663439 0.00048607355)
(108.94769 0.0076535581 0.0012162299)
(105.69089 0.0075936465 0.001906334)
(96.794966 0.0073353826 0.0024501262)
(96.838504 0.0056100044 0.0017509775)
(105.72786 0.0058425942 0.0012731281)
(108.98122 0.0059301616 0.00065063248)
(110.73169 0.0059661728 1.6490364e-05)
(118.22982 0.006785424 -0.0043497986)
(118.24961 0.0053341288 -0.0036435087)
(110.7592 0.0047048981 -0.00034268548)
(109.01052 0.004643345 0.00022043343)
(105.76058 0.0045277151 0.00079497207)
(96.877244 0.0043062651 0.0012226499)
(96.912604 0.0033831649 0.00086276587)
(105.78921 0.0035889492 0.00047727015)
(109.03584 0.0037141866 -4.4128949e-05)
(110.78253 0.0037842897 -0.0005377537)
(118.26489 0.004254018 -0.0030551174)
(118.27694 0.0034326417 -0.0025982659)
(110.80291 0.0030692959 -0.00068316003)
(109.05791 0.0029903716 -0.00024456042)
(105.81459 0.0028551462 0.00023428555)
(96.944032 0.0026590031 0.00058299217)
(96.973539 0.002110612 0.00037207323)
(105.8375 0.0022978956 5.3492634e-05)
(109.0776 0.0024389521 -0.00038830285)
(110.82067 0.0025231961 -0.00078079918)
(118.28636 0.0028010751 -0.0022238303)
(118.29374 0.0023085269 -0.0019146607)
(110.83644 0.0021077096 -0.00084411342)
(109.09501 0.0020208043 -0.00048745197)
(105.8581 0.0018777488 -7.3778268e-05)
(96.999993 0.0017007443 0.00022560841)
(97.025375 0.0013371091 9.191256e-05)
(105.87715 0.0015073419 -0.0001865096)
(109.11097 0.0016547381 -0.00057412624)
(110.85049 0.0017468529 -0.00089895366)
(118.29945 0.0019053607 -0.0016565304)
(118.3038 0.001580455 -0.0014349446)
(110.86321 0.0014688229 -0.00093338037)
(109.12529 0.0013742739 -0.00063419953)
(105.89452 0.0012254742 -0.00026804242)
(97.04828 0.0010621883 -5.5579442e-06)
(97.070586 0.00079233866 -9.2743212e-05)
(105.91084 0.00095607809 -0.00034013509)
(109.13867 0.0011105753 -0.00068567274)
(110.87472 0.0012107563 -0.00096113363)
(118.307 0.0013023209 -0.0012345021)
(118.30925 0.0010683426 -0.0010469371)
(110.88526 0.00099900654 -0.00097094331)
(109.15078 0.00089480021 -0.00071656116)
(105.92583 0.0007359558 -0.00038971505)
(97.090761 0.00057194534 -0.00015634435)
(97.110623 0.00036495371 -0.00021429959)
(105.94004 0.00053041199 -0.00043383151)
(109.16222 0.00069526982 -0.00074331617)
(110.89486 0.00080481283 -0.00097820459)
(118.31066 0.00086467123 -0.00087326534)
(118.31137 0.00068323565 -0.0007207517)
(110.9037 0.00063486656 -0.0009791422)
(109.17258 0.00051917959 -0.00076207876)
(105.95315 0.00034901751 -0.00046881666)
(97.128571 0.00018664193 -0.00026662483)
(97.146336 3.0093496e-05 -0.00032171289)
(105.96556 0.00018827399 -0.00051745782)
(109.18238 0.00035889827 -0.00079150026)
(110.91172 0.0004767874 -0.00099077961)
(118.31144 0.00051029694 -0.00058076629)
(118.31091 0.0003191365 -0.00044396948)
(110.91895 0.00026865875 -0.0010030688)
(109.19108 0.00014460095 -0.00081802162)
(105.97681 -2.6699704e-05 -0.0005660583)
(97.162127 -0.00020241835 -0.00032837025)
(97.177781 -0.00065967182 -8.8557697e-05)
(105.98751 -0.0004600857 -0.00035016347)
(109.19938 -0.0002777452 -0.00059123745)
(110.92556 -0.00013380254 -0.0007739892)
(118.30986 3.8619867e-05 -0.00021211524)
(118.30856 -0.000285325 0.00014112588)
(110.93203 -0.0005545273 -0.00024811603)
(109.20729 -0.00070597698 -5.0194646e-05)
(105.99785 -0.00088849662 0.00020343861)
(97.192385 -0.001028727 0.00040520129)
(97.207711 -0.0013114482 0.00063809199)
(106.00818 -0.0012126493 0.00054830088)
(109.21519 -0.001027523 0.00030612576)
(110.9382 -0.00087042503 0.00011296396)
(118.30702 -0.00056675906 0.0004705737)
(118.30516 -0.00072070185 0.00067995158)
(110.94379 -0.00089752336 0.00025049837)
(109.2222 -0.0010346623 0.00042742014)
(106.01763 -0.0012043693 0.00064646054)
(97.221657 -0.0013005593 0.00071254312)
(97.235809 -0.0011655231 0.00083389877)
(106.02663 -0.0010788466 0.00075747322)
(109.22883 -0.00093568375 0.00055110669)
(110.94876 -0.00082220248 0.00038597459)
(118.30291 -0.00082278585 0.00086282751)
(118.30059 -0.00088897649 0.001119201)
(110.9537 -0.00066059909 0.0006759776)
(109.2352 -0.00073984789 0.00083021618)
(106.03545 -0.00085727679 0.0010419754)
(97.249087 -0.00086969374 0.001050532)
(97.264457 0.00011865672 0.00070840004)
(106.04518 -6.3423713e-05 0.0012015532)
(109.24229 -3.2881432e-05 0.00091746189)
(110.95902 -5.9194863e-05 0.00076780454)
(118.29851 -0.00071450501 0.0013481779)
(118.29563 0.00019573604 0.0003906589)
(110.96221 0.0019313839 -0.0015927655)
(109.24691 0.0020987663 -0.001602262)
(106.05267 0.0021954483 -0.0014576905)
(97.278217 0.0024362859 -0.0017044216)
(97.287826 0.0026701315 -0.003755253)
(106.05562 0.0029125477 -0.004279535)
(109.24742 0.0028500376 -0.0042848479)
(110.96139 0.0026628514 -0.0041004304)
(118.2909 0.00066530955 -0.00073613585)
(118.28634 0.00040983533 0.00023744584)
(110.96124 0.0026190052 -0.0020832827)
(109.24859 0.0028293928 -0.0020929495)
(106.05916 0.002983342 -0.0019569644)
(97.296326 0.0028524154 -0.0013163256)
(97.30588 0.00016722633 -0.0001984707)
(106.06553 0.00024238232 -0.00033296189)
(109.2532 0.00028621983 -0.00041113524)
(110.9642 0.00027535186 -0.00040006438)
(118.28286 -0.00048428732 0.0012799949)
(98.481977 -0.00055797517 -0.00048855147)
(107.11017 -0.0004931224 -0.00062953964)
(110.21964 -0.00042095663 -0.00070462754)
(111.887 -0.00036901647 -0.00067037414)
(118.17349 -0.00027615687 0.0007901245)
(118.17711 -0.00010362406 -0.00050425451)
(111.8859 -0.0001601522 -0.0027804802)
(110.21709 -0.00021552798 -0.0028418564)
(107.10587 -0.00031131243 -0.0027494918)
(98.474107 -0.00046938705 -0.0024089768)
(98.46492 -0.0020734989 -0.0031917437)
(107.10221 -0.0017148647 -0.0034107296)
(110.21588 -0.0014465134 -0.0035146165)
(111.886 -0.0012321336 -0.0034710776)
(118.18158 -0.0003225411 -0.0012533913)
(118.18616 -0.00034396376 -0.00069877511)
(111.88656 -0.00081543122 -0.0024289075)
(110.2151 -0.00095153798 -0.0024433948)
(107.09905 -0.0011346589 -0.002295991)
(98.455565 -0.0012408515 -0.0022748504)
(98.443712 -0.001181821 7.0488905e-05)
(107.09299 -0.0011603256 0.00029743874)
(110.21168 -0.0010274202 7.4069009e-05)
(111.88452 -0.0009254344 -3.0121338e-05)
(118.18913 -0.00057197755 0.00071601957)
(118.19114 -0.0006283269 0.00087338731)
(111.88031 -0.00094631108 0.0001877977)
(110.20584 -0.0010437165 0.00032555563)
(107.08467 -0.0011684356 0.00055592091)
(98.429808 -0.0012624559 0.00061445495)
(98.417274 -0.0012939989 0.00058932694)
(107.07671 -0.0011890249 0.0004531954)
(110.20033 -0.0010682362 0.00024504515)
(111.87627 -0.00096910372 9.8763493e-05)
(118.19338 -0.00065096376 0.00077537138)
(118.19554 -0.00067202689 0.00067867034)
(111.87222 -0.00098334084 9.2917647e-05)
(110.19472 -0.0010809594 0.00024738366)
(107.0688 -0.0012018593 0.00046434984)
(98.404235 -0.0013038243 0.00058533359)
(98.391106 -0.001335978 0.00052772647)
(107.06024 -0.0012299549 0.00038572917)
(110.1886 -0.0011070066 0.00015705361)
(111.86757 -0.0010088054 -8.7974426e-06)
(118.19732 -0.00068724132 0.00048935039)
(118.19876 -0.00067332137 0.00014704877)
(111.86259 -0.00099309858 -0.00035281518)
(110.18205 -0.001092181 -0.00018584704)
(107.05142 -0.0012187761 4.6727482e-05)