/*--------------------------------*- C++ -*----------------------------------*\
  =========                 |
  \\      /  F ield         | OpenFOAM: The Open Source CFD Toolbox
   \\    /   O peration     | Website:  https://openfoam.org
    \\  /    A nd           | Version:  7
     \\/     M anipulation  |
\*---------------------------------------------------------------------------*/
FoamFile
{
    version     2.0;
    format      ascii;
    class       volScalarField;
    location    "470";
    object      alphat;
}
// * * * * * * * * * * * * * * * * * * * * * * * * * * * * * * * * * * * * * //

dimensions      [1 -1 -1 0 0 0 0];

internalField   nonuniform List<scalar> 
25278
(
7.9155254
7.7846766
7.8334308
7.8334108
7.681477
7.7846482
7.8851692
7.915502
7.8852287
7.7628933
7.8400923
7.8834566
7.8398358
7.7955521
6.9271194
7.8333071
7.7845864
7.0688036
6.5843305
7.1444986
7.5149719
7.6283625
7.7296338
7.7832081
7.6007259
7.7831853
7.7296335
7.5208024
7.4251046
7.4694165
7.325873
7.2835901
6.8697133
7.1456383
7.1760163
7.1106218
7.1447522
7.0354584
7.0044284
6.7102819
6.884064
6.9163839
6.7582366
6.7955332
7.0819021
7.3918875
7.691478
7.5825759
7.2727473
7.1986023
7.1076819
7.0522871
6.3620287
6.5851891
6.9004882
6.9365916
6.8371003
6.8006064
6.384968
6.5467361
6.5948103
6.4456745
6.324826
6.7674477
6.7241268
6.6790031
6.723534
6.2561677
6.1825065
6.2578065
5.6860886
5.9009136
6.1448314
6.3873703
6.6320377
6.8139656
7.1763531
7.46957
7.6285166
7.5529617
7.4946117
6.9314018
7.0715152
6.6006847
7.4122524
7.3484585
6.3756294
5.438738
6.0155791
6.5841618
6.6114903
6.0177547
6.0035229
4.9330676
5.0130112
6.0294893
6.1476408
6.6979025
6.7003633
6.136016
6.1369732
5.1130112
5.2116427
6.1453806
5.5474564
5.5704881
5.4473866
3.8742127
3.8094506
2.8906036
4.9261327
4.8876842
2.8531279
2.8317936
3.9577579
4.047214
2.8106617
4.9552236
5.0207423
5.0155767
6.5984503
7.4120614
7.6813644
5.9871711
4.9101428
3.7935855
2.8819548
4.9209066
6.3727526
7.3481879
7.4943576
7.5527979
7.0699157
6.9284297
6.0059012
5.4296973
5.4380764
4.8814914
2.8426715
3.8559637
3.9380071
2.8189866
2.7950887
4.9480624
5.5379664
5.5613211
6.139569
6.0195692
4.9897468
6.0011737
6.9209763
6.5773809
6.6054562
6.6931651
7.0649178
6.6963525
6.1379988
5.1906492
4.0253365
2.3395808
0.99966809
1.0062545
2.3618311
3.9910264
5.5109892
5.5358585
4.9575216
4.8861899
2.6822659
2.7186974
3.9059559
2.3140172
1.033929
0.94333781
0.33149798
0.36417281
1.0963668
1.0903529
0.37627176
0.3435548
0.93834367
1.025832
2.2948134
3.8586218
5.0898163
6.1229159
6.1226944
5.4777039
3.940293
2.5863899
2.6326317
4.8883629
6.5653231
5.5019974
4.8129286
4.9821075
2.5580845
0.85687613
0.31548532
0.30347682
0.85853206
2.6654002
5.0523651
5.644418
6.2598093
6.7800485
7.1462602
7.4254882
7.2851254
7.3264523
7.1119944
6.873627
6.886408
6.9180645
7.145493
7.0370984
7.0069502
6.7151351
6.7617622
6.7979109
6.9671523
7.2519929
7.5255668
7.6914762
7.5595515
7.286749
7.2373227
7.4252973
7.3920522
7.1862386
7.2061029
6.9913516
6.8338973
7.1004053
7.082895
6.987772
7.2733612
7.5825947
7.5155908
7.1480166
7.2001358
6.9047968
6.5966964
6.5558053
6.6017273
6.9393136
6.8415378
6.8068981
6.3991517
6.4567285
6.3395398
6.7731688
7.1098702
7.0570385
6.3806742
6.7321232
6.2766057
6.202065
6.6869227
6.7290685
6.2710868
6.3264591
6.3902171
6.5005822
6.6399421
6.6813886
7.0076251
6.9158016
6.8963904
6.8314214
7.1923253
7.2280832
7.3095723
7.048134
7.1395204
7.157245
7.2586001
7.0529706
7.0316295
6.8698316
6.9007979
6.7547982
7.0674619
6.9799845
6.9619694
6.5915351
6.7201415
6.5157205
6.6059326
6.703925
6.7924144
6.9500775
7.2867341
7.5595351
7.52548
7.2517817
7.1857653
7.2059411
7.0997912
6.8325149
6.9908162
6.9660145
6.7168496
6.8927543
6.7501459
6.6626257
6.6370773
6.6150235
6.4360949
6.669914
6.330813
6.2998515
5.9635822
6.0355727
5.5703979
5.9990269
6.3333452
6.6724304
6.6350468
6.2678494
6.3031835
5.9757163
6.3954383
6.442528
6.0453004
5.5805846
5.5057821
5.9505622
5.343758
5.4934535
4.9249888
5.0356369
5.3946245
5.6228323
5.8600328
6.0622074
6.2680145
6.446379
6.467306
6.3430517
6.5308257
6.5094422
6.3110684
6.1090555
6.1370374
6.292692
6.3932178
6.4191846
6.3192317
6.4960367
6.5124353
6.6782013
6.5764667
6.5610108
6.370064
6.3927316
6.1918172
6.3406098
6.139929
6.1202546
6.0866779
5.9147656
5.8748898
5.6402157
5.6757301
5.8887641
6.0536956
6.3951587
6.7181844
6.7508363
6.420415
6.3229338
6.4989742
6.6646249
6.6397173
6.6183606
6.4508688
6.4706947
6.349032
6.5351698
6.5147627
6.318335
6.1185057
6.2731976
6.2970103
6.0922038
6.0682408
5.8868731
5.9248399
6.1449842
6.1723469
6.3748454
6.564499
6.5789674
6.6796432
6.5146294
6.3966334
6.1971175
6.343468
6.1435549
6.1246101
5.9549515
5.9820458
6.009305
6.1767942
6.4801194
6.5007341
6.8201724
6.7382721
6.716954
6.5548319
6.541939
6.4199317
6.4391471
6.6180975
6.6431078
6.6549628
6.7513088
6.5921305
6.5787972
6.4605976
6.479022
6.28673
6.4262061
6.4085034
6.3875333
6.370286
6.2215547
6.2435022
6.0329297
6.1911732
6.2183731
6.2334589
6.0797848
6.0571715
6.265486
6.1321973
6.3487611
6.5548938
6.530009
6.3262474
6.3046929
6.2803717
6.4886722
6.4717921
6.4415256
6.4181898
6.2115516
6.161407
5.6792035
5.6402278
5.7071232
5.3609443
5.9910621
5.9289162
5.26655
4.4928339
5.0324614
4.1722949
4.3179708
4.4208922
5.1067932
4.5821572
3.6928478
3.5643005
2.7183282
3.9116001
4.9226286
5.7254269
5.1195594
5.59892
5.6768189
5.7979842
5.0217663
4.7764114
4.6636601
3.4438495
2.8133356
1.8829451
1.8788586
2.7766136
3.9915245
3.4896758
4.0583361
4.2678464
4.5149768
4.7614533
5.0053963
5.2284154
5.4493855
5.6531989
5.8659346
5.8940554
5.6542926
5.6269015
5.3847668
5.4319269
5.6871289
5.7210545
5.9282392
6.0982885
5.9238904
5.9473231
5.7427644
5.9748717
5.9462103
6.165312
6.018701
6.2485559
6.4667587
6.6783973
7.0064228
6.9856565
6.8935935
6.9139948
6.5425307
6.4925071
6.6349477
6.4105355
6.1975289
5.9667482
5.3110857
5.6817879
5.6113674
5.2118684
4.8426485
4.9452354
5.7633804
5.6408625
5.5575507
4.5783761
4.6937525
3.3323677
3.850501
4.4983278
5.0701168
4.993374
4.1102019
4.4084779
3.4685043
4.2845008
4.3862372
3.5911375
2.5929123
2.5565604
3.7785442
3.2983569
1.714306
1.6869765
2.3042926
3.1260161
3.9166748
4.553078
5.1079002
5.5383716
5.9172046
6.3156804
6.7870529
7.1914194
7.2279333
7.3094761
7.4252732
7.2371923
7.2586206
7.1571608
7.1391454
6.8691301
7.0314466
7.0529412
6.9005371
6.7541396
7.0672548
7.0474114
6.9610468
6.9795738
6.6278307
6.5882819
6.7185129
6.5126921
6.603903
6.7027507
6.7919134
6.8200934
6.7377125
6.7161556
6.6167713
6.437091
6.5535651
6.5402746
6.4168452
6.2175533
6.3681481
6.4793489
6.5003008
6.4074545
6.578066
6.5917073
6.7510011
6.6544226
6.6420254
6.4591476
6.4781281
6.2852851
6.4254708
6.2324389
6.2166665
6.1889935
6.3857273
6.2404554
6.0288164
6.0034844
6.1737731
5.9800812
6.1539102
6.1896329
6.0273861
5.999345
5.8018633
5.7737308
5.5286002
5.7555495
5.7148184
5.6943083
5.6501598
5.4205514
5.3715797
5.105852
5.1509764
5.4304408
5.1591016
5.114654
4.8036621
4.8641035
4.9097564
5.1934987
5.4592794
5.7107049
5.5022871
5.7702357
5.7346928
5.9862857
6.2188351
6.4350939
6.3310542
6.3046598
6.0571382
6.1877175
5.9585612
5.8001723
5.8361263
6.0966593
6.1296975
6.3672008
6.3856994
6.4846386
6.274368
6.1585175
6.0461353
6.3011252
6.2794795
6.2411796
6.2108334
6.1152087
6.1472194
5.8612454
5.9763928
5.936222
5.8118489
5.4877999
5.6459141
5.6836646
5.5331783
5.1610142
5.3582089
5.5503145
5.4976472
5.6957812
5.4259843
5.4616657
5.2382541
5.1896142
4.8382335
5.1237824
5.1711198
4.9036333
4.9543222
5.2845135
5.591037
5.8720725
5.9062343
6.0481759
5.8036828
5.6300359
5.4519446
5.7646205
5.7252941
6.0131476
5.9024359
6.1906005
6.2134036
5.9389899
5.6254271
5.5801088
5.2152834
5.4055677
5.0519964
4.9966639
4.946747
5.304868
5.0926816
4.8941789
5.340058
5.7041132
6.0356907
6.3794165
6.8274904
6.85099
6.8110831
6.376889
6.4363311
6.4879438
6.8993471
6.9201587
6.883158
6.8622049
6.4321786
6.4790963
6.5317963
6.2419366
6.3046541
6.3826622
6.4622208
6.5534276
6.5278663
6.4328244
6.4176092
6.1873163
6.3000576
6.3229728
6.2126102
6.2385475
6.3463408
6.3675319
6.567705
6.4759698
6.2615409
6.1616976
6.3987049
6.3212544
6.0695508
6.0405906
6.1356798
6.1069784
6.3523471
6.3344966
6.2515028
6.2701485
6.0079237
5.9754258
6.0781456
5.8020873
5.9382551
6.0764517
6.1030074
5.9685852
5.7022808
5.8651106
5.8351836
5.6668042
5.4958762
5.5379993
5.8371136
5.7101805
5.6685767
5.3214889
5.2686377
5.0851967
5.4925379
5.8411502
6.1441839
6.1182059
6.072174
6.0024091
5.9639562
5.6059151
5.6637676
5.7543234
5.8000308
5.7133507
6.0525494
6.0799665
5.7579863
5.6972193
6.0393599
6.0099823
5.9579454
5.9331996
5.891544
5.5024988
5.5637929
5.5968527
5.649238
5.6175905
5.9864963
6.016314
5.6663795
5.2392328
5.2848341
5.3746755
5.3180573
5.4411988
5.3879989
5.2602543
5.2066437
4.698065
4.7783464
4.9620163
5.0233468
4.8445668
4.9124407
4.7737481
4.7013407
5.2240409
5.1627234
5.1138733
5.0570553
4.4737638
4.5565899
4.6316715
3.9760972
4.1992151
4.4653359
4.7387489
4.6773371
4.191747
4.5429863
4.6063666
4.2740594
4.3403763
4.8010737
4.8634669
5.1045353
5.3287309
5.5393987
5.2563034
5.4935449
5.2318895
5.5020321
5.717898
5.9507938
5.7509397
5.5024772
5.469256
5.6975334
5.4725829
5.2007193
5.2381804
4.9521397
4.9925003
5.2686979
5.5385686
5.7579887
5.9828223
6.0018044
5.7743422
5.5645174
5.8068099
5.7803324
5.5352081
5.2741892
5.3073574
5.5637341
5.7722855
5.5588449
5.589787
5.8296519
6.0542811
6.263283
6.1284336
6.152613
6.024766
5.9972867
5.7354211
5.8936078
5.9207722
6.0776256
5.8552484
6.0460336
5.8235351
5.8078461
5.5966119
5.8095409
6.0289694
6.0472148
5.8244863
5.62027
5.8577911
5.8333302
5.593757
5.3395995
5.369217
5.6189447
5.366657
5.6170945
5.4020577
5.6703745
5.640137
5.6083182
5.574913
5.3710973
5.4114391
5.0968768
5.3327621
5.2953842
5.0505979
5.0031107
4.7244063
4.665256
4.2575996
4.6057081
4.9116207
5.2143483
4.8629784
4.8189223
4.4915614
4.5503508
4.1893993
4.5424971
4.4862514
4.1139334
3.7157971
4.1370828
4.1936866
3.7813063
3.7135235
3.2163255
3.2969999
3.7810846
3.8443348
4.2462583
4.593864
4.6426137
4.9565667
4.6588814
4.3022819
3.9077747
4.3198127
3.9189131
4.4086421
4.4799315
4.9256958
5.1559461
5.2060749
4.9881975
5.3724813
5.421808
5.7493867
5.8706543
5.9021271
5.7862252
5.4680011
5.6159201
5.7667283
5.4861291
5.4496362
5.14065
5.3681238
5.0800909
5.335719
5.302641
5.0304842
5.0667813
5.1009026
4.8176568
5.1169215
4.8574899
5.1821107
4.9520258
5.2996045
5.254012
5.5777379
5.0493015
5.1079704
4.7006851
4.6273302
4.8971926
4.8406354
4.7825115
4.3834805
4.710712
4.9996585
5.0405857
4.7614149
4.4119847
4.7338341
4.6888634
4.3571515
3.972993
4.040064
4.4475142
4.0750785
4.5528942
4.2227556
4.755662
5.2077804
5.5904285
5.9187024
6.2057897
6.1841433
6.124048
6.1471175
5.8436276
5.8027513
5.8817557
5.5422502
5.43059
5.4849801
5.0528913
4.981818
5.1462413
4.6793835
4.6057625
4.5349537
4.2714435
4.3479408
3.6670463
4.0508477
3.9753074
3.9051328
3.8328376
4.4041616
4.1345715
3.4427373
3.5252061
3.5912873
3.2473814
4.048505
4.1266892
4.0066073
4.7011326
4.627001
5.176434
5.185705
5.6219974
5.9886044
6.3785072
6.811492
7.1916488
7.5825775
7.5151026
7.0705699
6.5902812
6.149591
6.7000713
6.146891
5.5573992
4.9762142
4.9084634
5.5343599
4.0370226
2.7338353
2.76125
3.9470246
5.1270009
5.2249905
6.1451177
6.7023545
7.0714126
6.1469672
5.5437998
4.0509357
2.3988825
0.97766198
1.0663214
2.3472985
1.1159716
0.38987248
0.35709402
1.0254246
2.8057151
2.8307228
3.9642236
5.5685278
6.5984399
5.0165194
5.4973665
3.8450697
2.2881877
1.1004891
0.38154858
0.34832044
1.0086044
2.3311418
0.91279649
1.0021386
2.6088115
2.5575547
3.9253595
5.4717809
6.563415
4.8791499
4.8029098
4.9727765
2.523996
0.82989411
0.31975043
0.3292245
0.89417084
2.7282463
5.0755935
6.3670709
7.0534354
7.1080679
7.1994679
7.1459417
6.5916537
6.8040605
6.7273328
6.6801619
6.7243387
6.7699149
6.3314886
6.2588772
6.1859128
6.2657143
6.3929722
6.4523151
6.8394215
6.938518
6.9029242
6.5528348
6.5996537
6.6387866
6.9870647
7.2730531
7.3095606
7.2279887
6.86262
6.8833208
6.9205882
6.9000551
6.8520542
6.8292203
6.7875343
6.3176346
6.3846967
6.4401272
6.4904503
6.4332541
6.4797634
6.5332972
6.6291539
6.9799189
6.9616699
6.9150598
6.895262
6.4976963
6.5460307
6.6807026
7.0072851
7.0479804
7.0675033
6.7548548
6.7199765
6.5904981
6.2577326
6.1909784
6.1303458
6.0897763
6.0648133
6.0632306
6.0848815
6.1099893
6.0887622
5.7609916
5.7885953
5.7447716
5.7155362
5.3014565
5.3449933
5.4044987
5.3630289
4.8604426
4.9266544
4.8486212
4.7787899
4.0942782
4.2129224
4.4302193
4.518571
3.8531577
3.7532746
4.1328999
3.5203253
3.9938597
3.4997858
3.4262141
3.3592394
3.8479578
3.3678535
3.3026183
3.251922
2.7486913
2.7881092
2.0797454
2.7200086
2.6731395
2.0409244
1.4923376
1.4750807
2.3110202
3.1898311
3.0007136
3.8563953
3.7991244
2.9363631
2.0382589
2.0255999
1.0983702
1.1277747
0.57066373
0.91851016
1.5159103
2.1963569
2.7917236
3.3233922
3.7549696
4.1531474
4.5023919
4.8433557
5.1493783
5.1950274
5.4829213
5.7517258
5.9993708
6.228167
6.1987322
6.073074
6.3156263
6.3400378
6.1102187
6.1409827
6.2558777
6.0293737
6.0571305
5.815881
5.7846082
5.614701
5.8886463
5.855202
5.8221171
5.9732275
5.714865
5.5281792
5.5769324
5.3986982
5.7115711
5.9951867
6.2531606
6.2249862
5.9578627
5.8405971
6.1331699
6.1625637
5.8856873
5.9235549
6.0292161
6.2894797
6.3745287
6.3915845
6.1676411
5.9199762
5.6500507
5.4831157
5.7852556
6.0591285
6.3091219
6.5474769
6.4435516
6.8533593
6.813431
6.7906583
6.7906097
7.1921891
7.5825391
7.7845346
7.8332695
7.915319
7.8850547
7.7955578
7.729529
7.628361
7.5155087
7.0567787
7.1095396
6.6865379
6.3787451
6.2007335
6.2699991
6.7284843
6.7722784
6.7309978
6.274067
6.3371135
6.4544214
6.8405687
7.1999004
7.1473555
6.594106
6.8057552
6.3959335
6.5534467
6.9036842
6.9387216
6.5998522
6.6386032
6.4987228
6.3882486
6.3254332
6.3832277
6.3838479
6.4364037
6.4921564
6.9007554
6.9207139
6.5339085
6.629218
6.3862048
6.4645018
6.4361531
6.422175
6.1944983
6.2180674
6.242407
6.2642069
6.3689724
6.568604
6.4773847
6.4011015
6.165721
6.1417342
6.1151139
6.3570607
6.340789
6.0887955
5.9901345
6.2598827
6.223773
6.2033293
6.1337511
6.0904184
6.0570346
5.7385328
5.7846465
5.6980037
6.0226217
5.9877964
5.6443953
5.2671251
5.3924536
5.5296358
5.6770195
5.3490774
5.1546975
5.2175746
5.5711712
5.614126
5.7494213
5.4415556
5.2668131
5.3146055
5.6542869
5.9564523
5.8637081
6.1569045
6.0942087
6.0696226
5.7432513
5.826175
5.4848644
5.4361368
5.0362059
4.9722233
4.7909802
4.8664933
5.3162376
5.3690536
5.4198357
5.5303899
5.1474298
5.0920457
4.9277155
4.9892108
4.8567167
5.3321419
5.7236123
5.7834586
5.8243687
5.9003495
6.1944503
6.2140026
6.2766697
6.0193593
6.0492194
6.3092912
6.324363
6.0754784
5.7968704
5.9091236
6.0290663
6.1549852
5.9246588
5.8991436
5.8727265
6.1079498
6.083356
5.8450463
5.683664
5.9494034
5.9771806
5.7152684
5.7453649
6.0034734
5.8805462
5.8504647
5.8188125
5.5221179
5.559338
5.4051356
5.7293143
5.6927764
5.3604595
4.9868045
5.1945703
5.3939767
5.5878432
5.5549538
5.5203983
5.2362056
5.2746723
5.0379167
5.3555584
5.3156994
5.2730109
4.9458237
4.8834607
4.5397131
4.5959871
4.8857981
4.5582282
4.2296999
4.156062
3.7931739
4.2177581
4.6151148
4.6759569
5.0516414
4.8188106
4.3793931
4.2997172
3.8392597
3.9072353
4.273131
3.8592927
3.4266157
3.3424941
2.8513393
3.4255423
3.979134
4.0532612
4.5735984
4.3320661
3.7118436
3.6241675
2.9664502
3.0218957
3.4845114
2.9111679
2.3239381
2.2630956
1.7222275
2.5376875
3.321697
3.3948994
4.1194212
4.7253187
5.2210022
5.6319831
5.9788068
5.9411288
5.5777511
5.5388654
5.9138174
5.951796
5.5956899
5.6454215
5.6799385
6.0275696
6.053895
6.0290249
6.001879
6.0014463
5.9508225
5.9129388
5.6738379
5.5956187
5.1120964
4.6576098
4.7690814
5.0073096
5.7918164
5.7186641
4.9079447
3.8868578
3.430437
2.793757
1.8634908
1.8542147
3.4734814
3.9627981
2.7349726
2.6836913
3.5337757
4.4698359
5.2534583
5.9228912
5.6697849
6.1566056
6.2071266
5.9851142
5.3477823
5.6978489
5.6295284
5.0152486
4.1487787
4.2915553
4.3948617
3.6583876
4.5578268
5.0900067
5.2137932
4.9867567
4.7385465
4.4890721
4.2419675
4.0378889
3.9198452
3.9273984
4.5623127
4.6500586
5.1697352
5.1142435
5.1668339
4.641278
4.7074933
4.7900594
5.2771972
5.2246657
5.2814091
5.6898745
5.7351074
5.7668596
6.096597
6.1353432
6.1559067
5.8604833
5.933234
5.9664934
6.2475962
6.2648725
5.9957861
5.9296336
6.2109457
6.1929241
5.8969247
5.5627473
5.6566626
5.7638686
5.4471731
5.5944936
5.6278544
5.77386
5.4967842
5.6758877
5.6479595
5.6185628
5.3456067
5.3109579
5.0806746
5.1216548
5.4300018
5.4641623
5.1604455
5.3781982
5.4090885
5.196896
4.8758588
5.1247408
5.0903186
5.0538993
5.0155951
4.97503
4.9322201
4.6085058
4.6558167
4.3389114
4.6974797
4.6478317
4.9924422
4.7310012
5.1018388
5.1488892
4.7840593
4.5052631
4.9314583
4.8759536
4.4418012
3.973754
4.3336113
4.3918415
3.9822467
3.9208709
4.2847668
3.9064879
4.2614607
4.2052623
3.8216004
3.4446924
3.8465799
3.781331
3.6508129
3.5484906
2.4574163
2.6407459
2.7450816
1.9906508
2.8103402
2.702405
1.8785344
1.0439454
1.5881995
1.5914405
0.62631446
0.70777815
0.37337289
0.3363671
1.0621108
0.54191716
1.1004869
1.7128543
1.698157
0.92121504
1.0787655
0.41144594
0.79235459
0.70679859
0.37223642
0.20941426
0.22862309
0.56571751
0.21966867
0.20156918
0.20359819
0.20777319
0.21612746
0.23673963
0.38886744
0.73925188
1.7715113
3.340752
4.598989
5.5665514
5.6490121
5.7806635
5.7036097
4.8845308
4.9878335
4.7158769
3.3826415
3.9384696
3.8552082
2.6660978
2.723609
1.7580329
2.0855428
2.9732771
3.8237936
4.4885365
5.0661392
5.5072676
5.8943727
5.9352156
5.9655062
5.9248993
5.5524288
5.6101481
5.5681205
5.1224774
5.1862083
5.1309991
4.5935032
4.672645
4.5723144
4.6435453
4.7175862
5.2472023
5.6705216
6.0177618
6.0449803
6.0163973
5.6616596
5.7082389
5.7727296
6.0871098
6.0611723
6.0120055
5.9749956
6.0477772
6.0830765
5.7732165
5.6811257
5.6246219
5.7242281
5.3727582
5.2381544
5.2910397
5.4191845
5.0124951
4.8295333
4.7494015
4.9453904
5.1380419
5.5166994
5.8307785
6.1264483
5.9823272
5.9179506
5.6673035
6.156889
6.2079305
5.7025248
5.3458474
5.2486794
5.6338909
5.0287062
4.470683
4.1622133
3.5513424
3.6810029
4.5630929
5.1037185
4.4266882
4.3243299
4.9395201
5.5093179
5.9749004
6.3940009
6.7137343
7.0062497
7.3261718
7.6283049
7.6913529
7.3919549
7.4252197
7.5594124
7.6005698
7.5254138
7.4694071
7.5207329
7.4252917
7.2843633
6.8723504
7.1115573
7.1763546
7.1452351
7.0365492
6.7608398
6.917673
6.8857796
6.6352466
6.8147356
6.6724337
6.4413297
6.0447517
6.3342688
6.3045112
6.2674694
6.7815071
7.1461717
6.2684229
5.3553532
5.9560738
6.0029034
5.5831879
5.0475441
5.5816879
5.5079957
5.9744637
6.3046211
6.334013
6.6721361
6.6348474
6.3939573
6.4409042
6.0436358
6.0678719
6.3954441
6.8930612
6.7182078
6.6178943
6.7972652
7.0826356
7.1002374
7.2059993
7.2518558
7.1859787
6.9668738
6.9912763
6.8335364
6.8696807
7.1393997
7.1571994
7.2585318
7.2866161
7.2371146
7.031627
7.0529064
6.9006864
6.6430442
6.554868
6.4644572
6.3857683
6.308575
6.246274
6.1908146
6.1540073
6.1319377
6.1307996
6.1506267
6.1864948
6.2066997
6.2608839
5.9880998
5.9552751
5.8843852
5.9205407
5.8718185
6.1724261
6.1531873
5.8469208
5.8060986
5.8323059
5.4626711
5.5377049
5.6364189
5.6796823
5.5875538
5.1924763
5.324696
5.2673662
5.1233224
5.0060375
5.0846283
5.517853
5.4820573
5.4235955
4.9437242
5.0271444
4.418618
4.5218134
4.7059296
4.9084865
4.8325262
4.6111917
3.965876
4.3173551
4.415099
4.0887082
3.7450166
3.6067177
4.4114743
4.3079657
4.1922957
3.281354
3.4904483
3.3941899
3.3139438
3.1123166
3.0506719
3.9277518
3.957169
3.8833415
4.0437508
3.9790461
3.2227672
3.2965763
3.0432964
3.0992026
3.1664182
4.036792
4.2010499
4.8140339
5.3060587
5.2466478
4.7421416
4.8953894
5.3472678
5.7291113
5.8172194
6.1275474
6.1521436
5.8561747
5.5193019
5.401716
4.961465
5.1304848
5.0716299
5.4701871
5.6055312
5.9173797
6.1992456
6.1570381
6.2497954
6.220527
5.9520997
5.9904471
5.8775882
5.5602536
5.7053889
5.6693226
5.3400564
5.3906432
5.2030225
5.2549709
5.3052363
5.6475706
5.9520901
6.2205243
6.3073184
6.2866159
6.0255918
6.0564978
6.1659458
6.390216
6.3728257
6.3376162
6.3126593
6.4164144
6.4402344
6.2266112
6.1070881
6.0689995
6.1965195
5.9711648
5.8177699
5.8518567
5.9972504
5.7501172
5.5730507
5.5229912
5.7127441
5.447947
5.2234684
4.9945737
4.7410446
4.4805626
4.2134568
4.2818543
4.5426298
4.0168398
3.6492253
3.5578981
3.9395223
3.3865415
2.8968218
2.4292566
2.457189
2.0822173
1.149133
1.1694788
1.629652
1.6360908
1.6433406
2.5024213
3.364705
4.1196539
4.3561199
4.4329115
4.6804962
4.6115379
4.089814
3.7238598
3.8058581
3.4429446
2.5574295
2.1224819
2.0435611
2.3609157
2.8924951
3.4384151
2.8276563
2.7701831
2.0980751
2.8352397
2.332909
2.0312233
1.0566491
1.4516669
1.4250319
2.1221239
2.1539051
2.963131
3.0516518
3.6131438
2.9748752
3.5796863
3.6666165
4.1594698
4.5117771
4.810131
4.4649669
4.7765067
4.4610568
4.7848854
4.7437696
4.7007193
4.3907419
4.7450709
4.790826
4.4410259
4.4894425
4.8341609
4.5611675
4.93452
5.2796123
5.2379733
4.8860133
4.8356795
4.5684326
4.6316156
5.040016
5.0916441
5.1403604
5.3185201
4.9801753
4.752781
4.6931707
4.2541997
4.1822314
4.5056015
4.4491899
4.043366
4.10449
3.7061689
3.6307112
4.1106844
4.0410303
3.5592213
3.4914029
2.9727916
3.5551467
4.1227672
4.639187
4.703763
4.1948739
3.8597641
4.4733134
4.4015493
3.7823509
3.0849666
3.1566238
3.6292991
3.0405032
2.4186721
2.3662483
1.7409862
2.6133486
3.4609749
4.191474
4.2664955
3.5352594
3.3063595
4.1308797
4.7751705
4.8455519
4.9238106
5.0507192
5.2012369
5.5744621
5.6163345
5.2538073
5.111851
5.5164347
5.4688407
5.3858733
5.4383368
5.8060834
6.1189195
6.0963827
6.0730835
6.0728688
6.435736
6.8634447
6.8635055
6.8836428
6.4809881
6.157372
6.1770465
5.8810666
5.8455978
5.8176503
6.1362414
6.1566502
5.8545796
5.498259
5.5374966
5.6057858
5.6943211
5.3526657
5.486639
5.5240135
5.6589922
5.8011295
5.9490214
6.1032068
6.2634873
6.5574597
7.0227506
7.3569129
7.6092621
7.6793957
7.840062
7.891482
7.9279229
7.8915049
7.7569095
7.8251528
7.7628329
7.6092342
7.6420358
7.391346
7.3568293
7.294303
7.4848859
7.5164469
7.3411931
7.3118891
7.1126518
7.0945946
6.9345947
7.1968705
7.2117771
6.9637955
6.9967722
7.1502458
7.1715148
7.362238
7.2652828
7.2478661
7.1613377
7.4080911
7.6714212
7.7401693
7.4707187
7.5744193
7.6904661
7.7254736
7.4970017
7.4604148
7.3970223
7.4135699
7.231603
7.2126815
7.0604053
7.3033156
7.317136
7.0901308
7.1246056
7.269419
7.4409437
7.6089889
7.453932
7.2911202
7.362298
7.3507369
7.2655109
7.5077662
7.2741078
6.9887985
6.95393
7.2324286
7.2180123
7.1796235
6.8882052
7.0266909
6.8741781
6.9535099
7.0777623
7.3913623
7.6420663
7.5165615
7.4849466
7.2943532
7.3120166
7.2119569
7.1969179
6.9346351
7.0946807
7.1127067
6.9639685
6.9970214
7.2481067
7.3412918
7.362349
7.2654627
7.0270115
7.1715938
7.1503269
6.9258584
6.8869585
6.8609986
6.773845
6.7862008
6.6905963
6.6791623
6.4994685
6.61736
6.62915
6.5171273
6.5373857
6.7141347
6.8062566
6.8189703
6.725658
6.5549539
6.6646591
6.6518846
6.4860769
6.5759994
6.5571436
6.4503588
6.4661317
6.3274818
6.3072849
6.1019743
6.2627592
6.2755855
6.1231547
6.1454124
6.3479386
6.3678618
6.5029058
6.3148959
6.3006309
6.116151
6.2726421
6.5759543
6.8869328
6.8609496
6.7739864
6.7862109
6.6292841
6.6175382
6.499961
6.6794413
6.6905333
6.517298
6.5373124
6.6519298
6.8061618
6.8188385
6.6645908
6.5547401
6.7253655
6.713883
6.6287175
6.8221013
7.1244957
7.3747037
7.1080222
6.7899236
6.667406
7.0252047
7.0395085
6.7013096
6.7371334
6.8560591
6.6650164
6.7494074
6.8409983
6.9256471
6.6305584
6.6503585
6.562429
6.7243545
6.7012429
6.853384
6.7606232
6.5923235
6.5749769
6.6894008
6.5268276
6.5028456
6.4860226
6.4664206
6.4506891
6.308209
6.3278643
6.1238683
6.2759654
6.3011044
6.3150744
6.1662634
6.3676478
6.3480108
6.1456019
5.9283026
6.1163185
6.0914581
6.2395399
6.0745186
6.0909485
5.9041481
5.8808603
5.6454349
5.8584006
5.8717125
5.6699197
5.695454
5.9276416
5.9497263
6.1660098
6.1883603
6.3886338
6.5752761
6.7496702
6.8411743
6.8536657
6.760825
6.592536
6.7013921
6.6895222
6.5269246
6.6305595
6.6504145
6.9535469
6.87432
6.8872253
6.7958773
6.7843663
6.6124948
6.7245087
6.7373759
6.6299415
6.4473888
6.579445
6.5624335
6.5424683
6.4077476
6.2081547
6.3561915
6.3438762
6.1597188
6.3206691
6.3532486
6.1999015
6.3813267
6.3952207
6.2495843
6.2293486
6.4277093
6.3032675
6.5075776
6.7009464
6.8884761
7.1798382
7.4082407
7.6715357
7.7402789
7.8252075
7.6905167
7.57453
7.3971224
7.4604525
7.4136137
7.3172586
7.3034883
7.0605764
7.2127923
7.2316258
7.0902761
7.1513747
6.9945384
7.0214669
6.9425283
6.9220671
6.9099002
6.8199037
6.830749
6.6672861
6.774093
6.7625024
6.6501324
6.4680123
6.6037161
6.7064284
6.7263924
6.6392874
6.7969786
6.8095146
6.9546384
6.8647225
6.8539323
6.6869992
6.7043704
6.5265175
6.6560324
6.4755647
6.4617558
6.4365028
6.6191299
6.4869709
6.291142
6.2713509
6.4244043
6.2430758
6.4014202
6.7063793
6.9944285
7.0214274
6.7263906
6.639152
6.7968678
6.9423523
6.9219422
6.9097521
6.8870379
6.7372743
6.6298458
6.7956467
6.7841335
6.6122129
6.4277366
6.4075465
6.5423119
6.3562837
6.3439495
6.1882433
6.3883262
6.2620848
6.4687721
6.4484734
6.6414836
6.5540977
6.5422348
6.5164502
6.605467
6.5926633
6.3902364
6.4093445
6.3071456
6.2867246
6.5044591
6.4283905
6.4419335
6.212015
6.1900431
6.1023877
6.3547449
6.3680326
6.1258452
6.150332
6.2347475
6.3285981
6.4295745
6.2202913
6.1989064
6.1773486
6.0534112
6.0767029
5.8269335
5.9722944
5.9951779
6.017362
6.2409448
6.1215564
6.3481112
6.255335
6.4807555
6.4675458
6.3964037
6.4087767
6.1718904
5.9086727
6.009784
5.9861973
6.0992021
5.8516192
5.8754319
5.7418573
5.7156506
5.6881288
5.961594
5.9360551
5.8274506
5.8561083
5.5580609
5.5896403
5.8829089
5.7926461
6.0772597
6.339708
6.6109985
6.9823951
7.299677
7.3310562
7.0232493
7.0803597
7.096389
6.7702065
6.6823946
7.0401855
7.0054979
6.9892185
6.9467937
6.9319146
6.9668874
6.5748312
6.5244302
6.5619411
6.6002544
6.648102
6.3812661
6.4365398
6.5063046
6.5798222
6.5912268
6.6776587
6.4873809
6.3883344
6.3691469
6.1432231
6.1645401
6.2824209
6.0610313
6.2079843
6.2293823
6.3813062
6.3952506
6.5793431
6.4471462
6.2494424
6.0365222
6.2161094
6.1998156
6.1752633
6.159746
6.1329507
5.91616
5.9034672
5.8719915
5.8590434
6.0751052
5.8826902
5.9049185
5.6710578
5.6471113
5.398235
5.649482
5.6697552
5.4235096
5.3962272
5.1331612
5.1631935
5.4245912
5.4509709
5.6977322
5.9032498
5.91606
6.1325068
5.7181226
5.474765
5.7164629
5.475073
5.7183229
5.9498204
5.9726706
5.9934965
5.7637076
5.9599003
5.9484264
5.7421794
5.4993597
5.7437046
5.9484517
5.9599034
6.1750387
5.99361
5.9724554
5.7423436
5.763749
5.7869068
6.0156225
6.0366132
6.2159805
6.0022364
5.9904277
5.7878877
5.9905946
6.0022379
5.807835
5.7866729
6.0154277
5.8441401
6.0825017
6.3030105
6.5073851
6.7006906
6.7135367
6.5259135
6.4279311
6.6278113
6.6165211
6.4089033
6.1857212
6.2066657
6.3233357
6.1039172
5.9657092
5.9435049
5.9212071
5.8985472
6.0392024
5.7990863
5.7758402
5.7522583
5.72788
5.7024896
5.4383706
5.4658282
5.2631812
5.5557342
5.5269513
5.2309661
4.9143059
5.1570883
5.1874235
4.8937391
4.8598219
4.8235108
4.5354262
4.2237147
4.6134717
4.3242103
3.8612965
3.7832459
4.1645965
3.7574519
4.1275642
4.0740186
4.4134248
4.364641
4.3138545
3.9397296
3.8811737
3.5056312
3.5659841
3.9631329
3.5679417
3.5057226
3.4424538
3.3842588
2.9642922
3.3634161
2.9322472
2.9982698
3.3804626
2.8569683
2.4805392
2.4058216
2.0695906
2.5492087
2.6048567
3.0315565
2.5501972
2.9654997
2.8975877
2.4735755
2.1004179
2.1618094
1.7547884
2.1313001
2.1863125
2.5368614
2.9158595
3.4440577
3.5070239
2.977992
2.5963918
3.1225985
3.059987
2.6660247
3.0937015
3.1556128
2.6675435
3.091489
3.027213
2.6071904
2.2167564
2.2735099
2.7270202
2.2432185
1.8542831
1.8028562
1.3289403
1.626613
1.9082825
2.2687528
2.226669
1.5266389
1.1976502
1.8674883
1.8307971
1.1736205
0.64301321
0.61580996
0.87733667
0.51522892
0.28657912
0.32017969
0.22560339
0.52586465
0.97678266
1.5511035
1.5848287
0.9998709
0.81061289
1.2922804
1.2537079
1.6901341
1.2740666
1.6029822
1.9274109
2.3450305
2.385677
1.9687908
1.3081697
1.7168342
1.6927825
1.2788316
1.0336748
1.0576493
1.6372785
1.3129449
0.84105531
0.81511008
0.46123946
0.56595249
0.7180602
1.0767007
1.0457045
1.7315669
2.566732
2.2427994
3.1818308
3.9857101
4.0557566
3.2390363
2.2662606
2.2984633
2.6679947
1.7567285
1.2418371
1.2626009
1.2879252
1.3004271
2.2382741
3.109841
3.0985974
3.1683538
3.9772069
4.636019
5.1636502
5.5938266
5.5367284
5.57329
5.9384923
5.9761935
5.6275766
5.6760693
5.64353
5.6884464
6.0280046
6.051709
6.0248129
6.0667439
6.4418395
6.8527814
6.8129689
6.8304899
6.895891
7.2731404
7.3094461
7.2279742
6.8835203
6.4805809
6.5330883
6.9203559
6.9002296
6.4907966
6.5904412
6.9616335
6.9152147
6.546058
6.6802816
7.0072102
6.9870111
7.0825528
7.3918963
7.6912966
7.4250914
7.1392439
7.047748
7.0672299
6.9796215
6.6284373
6.7541054
6.7193643
6.8691739
6.8329038
7.0999115
7.205934
7.2516041
7.1858963
7.1451154
7.0363599
7.3261208
7.2846329
6.8717738
7.0061606
6.7131687
6.7602857
6.916994
7.1756494
7.111249
6.8848853
6.6329711
6.3917366
6.2618535
5.9680318
6.039023
6.439315
6.6706231
6.8119753
6.2982826
6.329169
5.9914714
5.5689273
5.4924183
5.3243755
4.9017602
5.0149257
5.5551748
5.4756185
5.9412725
6.2933632
6.2493961
6.7771232
7.1452893
7.5205499
7.4252551
7.4693779
7.5253733
7.6004817
7.5593427
7.2864056
7.237018
7.258369
7.1569123
6.9001762
7.0525285
7.0311081
6.9906744
6.9663579
6.7966078
6.5128043
6.4155636
6.312402
6.2214292
6.1290736
6.0528404
5.9840855
6.018954
5.6914472
5.6376016
5.7311661
5.77794
6.0866177
6.1302113
6.1537974
6.0911376
5.7783165
5.7194227
5.3246637
5.2783636
5.2214784
4.7020151
4.7698636
4.8426308
4.776445
5.2692794
5.2129651
5.1620858
5.1109548
4.5569675
4.6372416
4.711725
4.8489466
5.3054237
5.2559492
4.7731239
4.9547444
5.3809637
5.4250533
5.0185164
5.0751334
4.910016
5.3584216
5.7368195
5.8202623
5.8577802
5.5206591
5.4096119
4.9718302
5.1305777
5.1856311
5.0339589
4.909874
4.8398045
5.334692
5.3372812
5.3926667
5.7757302
5.7749878
6.0957279
6.1171217
6.0943793
5.7633376
5.7331752
5.8029388
5.8430214
5.8163969
6.1358341
6.1562654
5.8536157
5.8786738
6.1756365
6.1555229