/*--------------------------------*- C++ -*----------------------------------*\
  =========                 |
  \\      /  F ield         | OpenFOAM: The Open Source CFD Toolbox
   \\    /   O peration     | Website:  https://openfoam.org
    \\  /    A nd           | Version:  7
     \\/     M anipulation  |
\*---------------------------------------------------------------------------*/
FoamFile
{
    version     2.0;
    format      ascii;
    class       surfaceScalarField;
    location    "470";
    object      phi;
}
// * * * * * * * * * * * * * * * * * * * * * * * * * * * * * * * * * * * * * //

dimensions      [1 0 -1 0 0 0 0];

internalField   nonuniform List<scalar> 
76358
(
36.221197
-0.010773285
2.0237561
1.47312
-1.4801225
-2.0330994
0.060209421
-34.801717
0.00037160415
2.1432669
2.1297211
-2.0919071
-2.0987618
-1.4916465
1.4730213
2.0313023
-2.0569436
-0.059263371
-36.221345
-1.4918327
1.4728062
-2.0569916
2.0312659
-34.674899
-2.0400975
2.0188769
-2.0326804
1.9931978
0.0012842746
-34.80221
2.1296979
-2.0919643
-2.0982949
2.1438613
0.0010309128
0.010315558
0.00057003511
-2.0829839
2.0767321
2.0783455
-2.0871361
1.4729835
2.0237309
-2.0331487
-1.4802212
2.0767233
2.0779682
-2.0871202
-2.0828982
0.00030766667
-0.053878032
10.408463
0.36963443
-0.37437307
-0.53849554
0.5326916
-0.0094977839
-8.2578218
-0.0057126338
9.6652324
-0.0073772694
-7.6822644
10.340134
0.0058867506
-7.4056298
7.4254722
-0.034530187
-0.034287348
0.00094634371
0.0012285681
-9.2577651
0.37594935
-0.3878911
-0.52741856
0.51584361
-0.06070616
-36.221177
1.4733156
2.0315741
-1.4914021
-2.0567014
-2.0987413
2.1432736
2.1299806
-2.0916493
-34.801704
0.010279133
-2.4920466
-2.5115524
-2.1921367
-2.3385029
0.38494347
-0.38283316
-0.39063814
0.5336749
-2.5291232
-2.4592458
-2.1987738
-2.2186774
-0.38855327
0.54371579
0.5425427
-0.38388663
0.00018259443
-0.42602771
-0.015803686
-2.0482075
-0.0002905075
-0.038793839
0.01033942
-7.8089054
-0.52192244
-0.50282509
0.41269054
0.00014580527
0.129621
0.32545387
-0.37533557
-0.52793068
0.41898678
-8.2468554
-7.6926529
-0.13107938
-0.023626003
-0.095268263
0.023877693
9.3821338
0.37622533
0.36848258
-0.38033551
-0.3862037
-0.38635734
-0.38050578
0.36828935
0.37606219
-9.3852947
7.6926915
-0.094797154
-9.6652957
-0.13138075
-0.12905996
0.3316589
-0.37577158
0.41564732
-0.36747718
-0.36731783
-0.37557141
0.41580738
0.3318507
-1.8164752
-0.0035124908
-0.014946075
-0.047057015
-0.045252928
-2.4752724
2.0863298
0.08672177
-0.097782154
-0.13070165
0.10678156
-2.6280499
0.001712929
-0.025552008
0.019276891
-0.63962552
-0.61822284
-0.55971679
-0.6108947
0.022589152
0.1689051
-2.082885
0.16436017
0.08374256
-0.096711787
0.10151581
-0.12924101
-0.11183491
-2.3430858
-0.47665817
0.0019572022
0.0055397771
-0.0041413015
-0.0022043277
-0.66480648
0.52134398
0.00020754024
-0.65500327
-0.0013911926
0.0068521765
0.0050077302
0.0002358946
-0.57144982
0.0047953016
0.013554014
-0.51605395
0.012450737
-0.013227175
-0.62319727
-0.01107484
-0.57657253
-7.8216453e-05
-0.0078187077
-0.00089308322
-0.57596104
0.010859322
-0.023987598
0.020588281
-0.032530691
0.025630414
-0.00027813768
-0.12867794
0.0014474849
-0.52782133
-0.00084456804
-0.52642327
-0.0065267854
-0.0066065398
0.095187696
-0.0974453
-0.13145412
-2.0834595
-0.0092876431
-0.37286627
0.36653378
-0.53637047
0.53360534
0.51255935
-0.51854855
-0.53905721
0.00016442542
-9.9056782
2.5261917
-0.13215948
0.13078763
0.13355542
-0.13505231
-0.0022896087
-1.9939548
0.0030387621
0.10751893
-0.13134824
-0.13445047
0.11301579
2.0129085
-0.13409457
0.11254759
0.10746235
-0.12957928
-2.4690651
3.4181883e-05
-0.033965327
2.8021718e-05
-0.0059388009
-0.64128738
-0.61825028
-0.56448844
-0.57422071
0.17142731
1.9126642e-05
-0.62639461
-0.64161079
-0.57394558
-0.56875212
0.16988224
-0.52575866
0.0051104804
0.0067802291
0.00012266684
0.00088420795
-0.65950497
0.53204237
0.00090354334
0.00024209163
-0.66751581
0.0069875651
0.0015702841
-0.0046079674
-0.57695737
0.001652991
0.012954327
-0.57505151
0.013266953
0.0013144793
-0.56312006
-0.012439937
0.00048259834
-0.5628065
-0.012415446
-0.0010201698
-0.00031618375
0.57598264
-0.012175724
-0.56198797
0.53088475
0.00032334127
-0.66608073
-0.0033550197
0.0070702595
-0.52145888
0.0073105413
5.3909835e-06
0.0010887376
-0.65180902
5.4632163e-06
0.57265821
-0.011971888
-0.55991643
2.6688666e-06
0.0024789176
0.012997811
3.5849131e-06
0.012964104
-0.0016260305
0.58433684
0.010525024
-0.57757003
-0.002701701
-0.0049164207
0.5840869
-0.57838006
0.010537868
-0.0042175863
0.58013073
-0.57851757
0.01095496
0.0019380666
0.5720673
-0.57538616
0.01071722
-0.10010584
0.62543283
-0.52041183
0.0094736467
0.11202782
2.212077
-2.3686553
-0.12829998
-0.09299382
0.08740758
-0.092938469
-0.12822201
0.10018524
0.087471262
0.045331105
2.0828978
0.083817411
0.10158146
-0.12918124
-0.096638161
-2.3430984
0.37541362
1.816488
-0.046848624
-2.4752933
10.416202
0.32538833
0.41902618
-0.52787787
-8.2469613
-0.0097257303
8.3782558
-0.20115639
-0.0093877066
-0.063486642
-0.012958555
-9.2579058
-0.0037391
0.51583403
0.37580163
-0.38805329
-0.52747841
0.011227487
0.53363693
0.38476987
-0.38301465
-0.39072896
-2.3385744
-2.4920866
-2.5115359
-2.1921477
0.30101415
8.801143
-0.38864507
0.54374122
-0.38368825
0.54296571
0.0009014855
-2.5292543
-2.2188201
-2.4593126
-2.1988179
8.3860646
0.00075542418
-10.127874
-0.075425729
0.00072851657
0.51887578
-0.52789801
0.51651945
-0.52433021
0.00073536701
-0.003135903
-2.0950594
0.0023336951
0.00097377668
-0.0045400198
0.00062624466
-2.0932414
-1.8941581
0.0043784602
-0.0031386365
-0.0029666261
-2.6639973
2.0931629
0.0031089296
-2.627578
0.00075110205
-2.3254519
0.0024957268
-0.0029515975
-2.3268622
0.0038517821
-2.6276748
0.0010367451
-0.0063522809
0.012454327
-2.1037237
0.0035838597
-1.9068046
0.0061683551
-0.015769659
-0.015576053
-2.6413067
2.1036455
-0.01391005
-0.0011815618
-2.4949617
0.012634096
0.0032766855
-2.3079718
0.0032005089
0.0029975826
0.014097616
-0.0010680904
-0.0012586942
-2.3336527
-0.000913086
-2.495018
2.1047512
-0.0022313309
0.00231593
-2.4943939
2.629302
0.021590359
0.0011838806
0.0064675153
0.0009138189
2.3145876
0.0018342868
-2.3140798
0.0016193827
-0.0024137139
-2.3051725
0.00031909115
-2.0882881
0.00028189725
0.0069955761
-2.6190437
0.00034363285
-2.3048462
0.00036845729
-0.0017828277
-2.2896339
-0.02308107
0.00043347184
0.0092180889
-2.2997282
0.0086564325
0.0027133803
0.0068610545
-2.312602
-0.0013253771
0.00051030825
0.0094999586
-2.2956054
2.0983554
0.00040472795
-2.4814578
0.00038016967
-0.54326307
2.6187867
0.023900382
-2.0981399
-0.00090389725
0.29981602
8.8007749
-0.010526494
-0.38321584
-0.38767339
0.54454629
-2.4594388
-2.1988005
-2.5292685
-2.2185752
2.0323534
8.3860358
0.010138489
-10.127956
1.9935424
2.0199206
-2.0390687
-34.675187
0.0013612407
-2.0926336
-0.51644134
-0.0050504178
0.0029848212
-0.0016103615
-2.3246121
0.0014437515
-0.0035007571
-2.3136338
-0.0030075603
-2.3046476
-0.51675256
-0.00074207535
-2.0880914
0.074260237
0.0042754765
0.51956796
-0.52697521
-0.52398323
0.013689738
-8.3782967
-0.061751442
-0.19941535
-10.416397
9.2575511
0.53448082
0.38541615
-0.38232698
-0.38975305
-2.511645
-2.1919507
-2.3384702
-2.49219
0.51657228
-0.52650647
0.37640401
-0.387331
0.0032902894
-2.0928152
-0.0048442829
-2.0946511
0.00064942106
0.0077430088
-2.6288061
-0.0012126872
0.0077051423
-0.0016534123
-2.3042443
-2.3130874
-0.0043845062
0.0016335317
-0.022952574
-2.2987165
0.010786231
-0.0038380443
-2.2889927
0.010715843
-0.0023372409
-0.0025926299
0.011254201
-2.2948068
-0.0020043825
-2.4812839
2.1043527
0.00071150481
-0.00071527052
-2.4940267
-0.0037635868
2.627181
-0.0066907881
-2.1033558
0.013582835
0.0040171567
0.0026294664
-0.0037482537
-2.326002
0.5265617
0.0024207347
-2.6269592
0.37620633
-0.38751352
-9.2572103
-1.8939021
-2.6636964
-0.3852347
-1.9066142
0.006877853
-0.38248394
0.5343419
-0.3898388
0.011589514
-2.3384818
-2.1918525
-2.5115655
-2.4921841
-0.015198392
-0.015022046
-2.6412047
-0.012883169
-2.4947126
-0.00030840024
2.3071244
0.013142342
-4.3004832e-06
-2.3328372
0.0091920817
-2.3115249
0.011189901
0.013559673
2.2686017
-0.0086658283
-2.2754934
-0.0013702221
2.2235411
0.021464536
-2.2211914
-0.011326328
0.017526575
2.2253592
-2.2234298
-0.0071978537
2.2710695
0.0098997531
-2.2782366
0.0020955058
0.0022623692
2.2992684
-2.3120828
2.1044885
0.001945393
-2.4940732
0.00082721407
0.021637117
-2.0978617
0.022701138
-1.2751763e-05
0.0010873263
-2.4808759
-1.4349021e-05
2.2880009
0.0091302856
-2.2937323
-4.9204589e-05
-0.0013270873
0.008547123
-3.9978985e-05
0.0088918588
0.0076857154
0.0090520368
-2.2206421
0.011764228
-0.0005460303
0.016280258
-2.2173723
-0.00052002718
1.9874099
-0.0020258732
-1.9473324
-0.0042447075
-0.013171892
-0.0017933365
-0.0035893253
0.0011771919
0.016489236
-0.0087917707
-1.9926653
-0.013505694
-0.001960997
-0.01719992
-1.9537164
-0.0023104124
2.2152061
-0.0099954284
-2.2107364
0.0018855388
-0.011188554
-0.0097309608
0.0014953333
-0.010219668
-0.0041811683
-2.2976595
0.0022408814
-0.022742844
-0.013313992
-2.103171
0.0041175374
-0.00041007077
-2.4944794
-0.00091275563
0.38763957
2.1037157
0.0024583688
-2.493311
0.0031841033
-2.3104265
2.2857291
-0.0021434417
-2.2910599
0.0006629432
-0.023792757
0.00057785269
-0.54322326
-0.001347159
-2.096881
0.00031412891
0.54431249
-0.38287006
0.00053231847
-2.2183511
-2.1982624
-2.5291785
-2.4592101
-2.4797442
0.00030799616
0.0090249852
0.00034815533
-0.57241315
-0.57898733
-0.0055479963
-0.58421593
-0.57559465
-0.17235824
0.017771622
0.00076822247
-0.56534197
-0.56897224
-0.0064556374
-0.58194318
-0.57786175
0.024028155
0.002180354
-0.016866059
-0.56401768
-0.55533898
-0.52820002
-0.55475056
0.0022427982
-0.0027963019
-0.030517468
-0.53237101
-0.49752991
-0.38214803
-0.48656828
-0.024028549
-0.0050730313
-0.024847289
-0.49713815
-0.53345221
-0.4876016
-0.37294881
-0.016590837
-0.000412393
-0.013625107
-0.55748097
-0.56522601
-0.5562962
-0.53176929
-0.0078998122
-0.0054191084
-0.56978943
-0.58237875
-0.57844144
-0.56636633
-2.8232694e-05
-0.0050401669
-0.57934082
-0.57577099
-0.5728586
-9.9175955e-07
-0.013987068
-0.57852397
-0.57943367
0.0069311899
0.050457588
-0.59910785
-0.57451424
-0.019379054
-0.16417838
-0.05023354
0.015017437
-0.01906508
-0.0033421423
-2.086342
-0.025588798
0.016078928
0.086697302
-0.097809682
-0.13069087
0.10678802
-2.6280764
0.0020231548
0.6396416
0.0055198581
-0.47666416
0.002017418
-0.61092043
-0.61821695
-0.55971609
0.022897736
0.16879571
-0.5160596
-0.00016849772
0.012408982
0.0022254717
-0.013150643
-0.62320133
-0.011114337
-0.0040722082
-0.66481433
0.5213495
0.00019289894
-0.65500907
-0.0012964053
0.0068381015
0.005099886
-0.57145904
0.0048911387
0.013521422
-0.57657739
7.9453497e-06
-0.0078473382
0.010775308
-0.57596525
-0.00088135714
-0.0001791622
-0.024000288
0.020577003
-0.032531347
0.025627698
-0.12426024
0.00080634821
-0.48122441
-0.007747721
-0.0051293205
-2.0749562
0.09112878
-0.095403643
-0.12890473
0.12213179
-0.36646966
-1.7522752
0.0068048265
-0.37293122
-0.53631381
0.5264951
-0.0087932257
-10.408649
-0.011700727
-0.017574841
-2.4762664
0.093497572
-0.093727723
-0.12643162
0.12670682
-0.13044819
-2.3424575
-0.098021941
0.66455033
0.0012356314
-0.47512167
0.0008552183
2.0834966
-0.00074474623
0.13200705
-0.13035146
-0.096697668
-2.6396203
0.095164149
-0.097470389
-0.13143616
0.12869466
-0.0062321495
-0.47633894
-0.0013761108
-0.0020462263
-0.0026164128
-0.0016316348
-0.60472863
-0.0058150964
0.001343484
-0.00053640069
-0.57743465
0.023293971
0.031876694
-0.032325766
-0.023814212
0.52782629
-0.0016042355
-0.65893114
-0.00074559351
-0.13078732
0.65951803
0.0023050546
-0.53246258
0.00068122049
-0.53368366
2.5262473
-0.13216134
-0.13499054
0.13361407
-0.0020304744
-1.9940148
7.8091086
0.51287291
-0.51829189
-0.53900209
0.00059285374
-9.9060521
0.42609652
-0.52188298
-0.50254739
0.41296573
0.00073823006
-2.0482523
-0.038753828
-7.2662712e-05
0.10751899
-0.1313578
-0.13440404
0.11306246
0.0033155478
0.62642761
0.0067783467
-0.52577087
0.0051837846
-0.56879417
-0.64162013
-0.57395099
0.0062705523
0.16984619
-0.57506855
0.0046947375
0.013249126
-0.00088538554
0.0014118999
-0.56313111
-0.012456005
0.00020756984
0.53205605
0.00092457297
0.0003525275
-0.66752963
0.0070037438
0.0016784218
-0.57698343
0.0017731069
0.012957821
0.00058971837
-0.56282323
-0.012413445
-0.0010741428
0.57601734
-0.00020438961
-0.56201093
-0.012138156
0.1340621
0.53090696
0.00041420819
-0.66610488
2.0129618
0.11259751
0.10757163
-0.12947749
-2.469144
0.00032082585
-0.033748742
0.00029101606
-0.64134512
-0.57427183
-0.56448398
-0.61827968
0.17171286
0.00037170219
0.0071135032
-0.0032757364
-0.0023780645
0.013010186
-0.0073944104
-0.57269605
0.013107534
0.00012088249
-0.52148036
0.00010216908
0.0011864348
-0.65183356
0.00010347573
-0.55994172
-0.011878214
0.00010593307
-0.00019684243
-0.0027091978
0.00011673871
-0.54459376
-0.032443137
0.026129483
0.026136784
-0.032381793
-0.00042948251
-0.0026039409
-0.54644679
-0.032544973
0.026115325
-0.032446428
0.026148518
-0.00056739823
-0.0024646644
-0.032626272
0.026017454
0.026128715
-0.032527209
-0.54721334
-0.54819862
-0.032718205
0.025906361
0.026035767
-0.032597917
0.0011099141
-0.54927825
-0.032534306
0.032093833
0.031962192
-0.032332052
0.00024364607
-0.00062959819
-0.66448865
0.53598853
-0.6706667
-0.0010348016
9.283066e-05
0.00028953073
-0.13328906
-0.53463886
-0.00049137424
-1.9564201
-0.13450449
-0.12993734
0.12897805
0.00029327119
-0.0016651138
0.13598016
-0.13389337
0.13157742
-0.12939161
-2.4775707
0.00025116922
0.13348251
-0.13166788
-0.13434274
0.13636199
-2.5392606
-0.00072800204
-0.53183428
0.00073165109
0.00082449427
-0.52708353
0.00066707125
0.0010398242
0.000784973
-0.00072170408
-0.65853809
-5.6727271e-05
-0.66445051
0.48109044
0.00054701724
-0.0036513546
-0.60447444
0.00013297975
0.0037908712
-0.57714603
0.00015456694
0.032483093
0.023845334
-0.023710267
-0.032261304
0.0002647834
0.023915471
0.032591393
-0.032290358
-0.023746484
-0.57654884
-0.00087548399
0.54920173
0.03274949
0.00023282174
0.032657543
-0.032551057
-0.032371536
-0.54877872
-0.00052557172
-0.66457378
0.5347309
7.4749507e-05
0.00095628428
-0.67063025
0.00093306412
0.00022477751
-0.00026851226
0.54770876
0.00030304955
-0.54763272
-0.032277527
0.032617335
0.032677898
-0.032195213
0.032721724
-0.032463671
-0.032256532
0.032632507
-0.00019112078
-0.1313123
0.00018710753
0.16392108
0.00011695906
-0.00024411609
0.16347196
0.00014208366
-0.13107795
-0.02355367
0.16517238
-0.11859325
0.00057575346
-0.13116157
0.64868959
-0.00059151522
-0.51325921
-0.0235361
-0.032754534
0.03285054
0.13026544
2.128371
0.098736591
-0.098105772
-0.13079134
0.13106883
-0.13088149
0.09866238
-0.098182077
-2.3907533
0.011638202
2.0749403
0.093419675
-0.093797656
0.12663677
-0.12649761
-2.3424316
1.7522544
-0.017757853
-2.4762304
0.0051985265
0.091052459
-0.095480955
-0.12897224
0.1241954
0.12232059
-0.47633267
-0.00078616378
-0.0026908668
-0.0020280462
-0.66454002
-0.0013358351
-0.0017081793
-0.65892231
0.0017187525
0.023305856
-0.023802566
-0.032327326
0.031875851
-0.00063747254
-0.57742997
0.48122132
-0.0057785488
-0.60472431
-0.0077073834
-0.13196504
-0.51129021
-0.024003574
0.019817309
0.64636654
0.025727471
-0.033115575
0.00075569553
-0.13210837
0.10137589
-0.099302979
0.10143903
0.13205093
-0.13201835
-0.099233156
0.023113272
0.00036588037
0.032346766
-0.03274362
-0.023572607
-0.64868682
0.16446764
0.00032294776
-0.11844029
6.8828754e-05
0.11802726
-0.0007792535
-0.00077153878
0.15597086
0.0016884684
0.00077352589
0.015298007
0.0073692143
-0.15540738
-0.154123
-0.14245411
0.0020832594
0.0018779021
0.52718027
-0.015485428
-0.030781578
-0.57202919
-0.0018932354
0.026846888
-0.57947401
0.010421443
0.003362307
0.0068347206
-0.15365146
-0.15631119
-0.14455526
-0.14269099
0.0027839593
0.012827305
0.58123212
-0.00056685906
-0.14791811
-0.15569973
-0.14319525
0.0032077339
-0.1430525
0.030853596
-0.012749855
0.58308103
-0.61913904
-0.0018331892
0.5271869
-0.015406221
-0.57203237
0.52041898
-0.015217189
-0.64637133
0.62545027
0.009431706
-0.0018687859
-0.59914316
-0.5745308
-0.57205914
-0.019586314
0.014313804
-0.0018270121
0.026773728
-0.010675644
-0.5794943
0.010353682
0.0034584564
-0.57540088
0.004318739
0.0073212004
-0.15597524
-0.15541583
-0.1541199
-0.1424537
0.0021780582
0.006768372
-0.14455033
-0.15631616
-0.15366139
-0.14269301
0.0028731866
0.58125223
-0.00064912279
0.0032953271
-0.14319007
-0.15570393
-0.1479297
-0.14305621
0.00031788641
0.58565045
0.00234469
0.0032928862
0.63740273
-0.0003831977
-0.58566429
-0.57846539
0.0074084516
0.0071563232
0.0024089472
0.0031971276
-0.58127112
0.0038248762
0.0037344983
-0.15631343
0.0033300953
0.0032377219
-0.14443635
-0.1444277
-0.14387745
-0.0061644657
-0.0061370375
0.0009992633
-0.14603397
0.0010227838
-0.0010908248
-0.022183101
-0.13198586
0.0011772176
-0.0019189692
0.0012579095
-0.13021507
-0.025914422
-0.0010044525
-0.025542193
-0.13015085
0.0011270705
-0.0018365701
0.0010006843
-0.13120013
-0.025279623
-0.13071241
0.00088440716
-0.0007008482
4.9664212e-05
-0.16395606
0.00042615999
0.1436519
0.00047364056
-0.14546983
0.0002172763
0.13011699
-0.16291674
-7.6320258e-05
0.0014633837
0.00093453993
0.0021543937
0.0013911905
-0.14412058
0.0010944314
0.0016259672
0.00075316993
0.00056189548
-0.1452549
0.00029290007
0.033023558
-0.16377137
0.00035051749
-0.4941003
-0.032311103
0.038715544
0.032189233
-0.032582842
-0.031920997
0.031874672
-0.032332159
-0.56026531
-0.00029752615
-0.13155002
0.00031677567
-5.1368301e-05
-0.13152095
-6.2915255e-05
0.00045403753
0.00012829694
-0.00013761686
-0.16470929
-0.00019066762
-0.16517076
0.13090713
0.00011154273
-0.16347175
-6.4912133e-05
-5.6123492e-05
-8.8085503e-06
-0.1457836
0.0001572751
3.7455501e-05
0.00019225644
-0.1458367
0.00010068372
-0.00016070413
0.00025429539
0.14553324
-0.14557796
0.00014338619
8.8257732e-05
-0.16451944
0.13002644
9.386475e-05
0.00019921997
-0.16215226
0.16180648
0.00040949021
1.9184046e-06
-0.0006535476
0.00034858605
0.14375564
0.0005412114
-0.14474808
0.00035958163
0.0015528006
0.0017333468
-0.14307758
0.00096022734
0.0017328149
0.00036396334
0.00040440819
-0.14374868
0.00044394456
0.032351071
-0.16196181
0.00010821666
-0.038630998
0.025942281
-0.032322127
-0.023936876
0.022205602
-0.52547099
-0.023956845
-0.00070566495
-0.49410283
0.02530704
-0.032995969
-0.032290954
0.025564035
-0.51129345
-0.023977533
0.019842076
0.02574985
-0.033094727
0.00031719352
0.032369844
0.0231411
-0.023545158
-0.032720282
0.032219747
-0.032552025
-0.031897084
0.031897635
-0.56026619
-0.032420871
-0.00028284466
0.16377345
-2.2647e-05
-0.1315508
0.00030258784
-0.00031385314
0.16395768
-3.5432832e-05
-0.1315214
0.16446959
9.2791737e-05
-0.11844116
0.11802909
-0.00078862391
-0.00074869865
0.0016798654
0.00079306208
-0.13071438
0.0009062651
0.0018219963
-0.00067500658
3.4959646e-05
0.00043458042
0.14365406
0.00046220497
-0.1454712
0.00024534987
0.13011813
-0.1629176
-4.5988661e-05
0.0014554416
0.00096355124
0.0021414685
0.0014205974
-0.0010230757
0.0010814685
-0.14412323
0.0016559758
-0.13120232
0.00099211903
0.00033655814
-0.00072644156
0.13015313
-0.00062635125
-0.16180837
0.00032719001
0.001149461
0.0018984381
-0.14375886
0.0015333225
0.0017634548
-0.00054741181
-0.14475015
0.00052325444
0.00038909856
-0.14525662
0.00032174287
-0.00014634094
-0.14553398
0.00029127119
0.00010979045
6.38564e-05
-0.14578427
6.7437479e-05
-0.13090735
2.3089451e-05
0.00016559107
0.00010462792
-3.1378568e-05
-0.00046255917
0.00015736977
-0.00015173745
-0.16470987
0.00018202845
-0.14583698
0.0001326804
-0.0001915004
0.0002404271
-0.14557801
0.00017712787
7.4199299e-05
-0.16452026
0.13002689
0.00023142756
-0.16215247
7.1269428e-05
3.1492546e-05
0.00038724986
-0.14490002
0.00031271822
0.00015991367
-0.14492599
0.0002775597
0.00022026575
-0.00012802913
-0.00020725928
-0.14503002
0.00024221958
0.00019709762
-0.032262956
-0.00021373635
-0.13015644
0.00035264136
-0.49550488
-0.032608348
0.032721637
-0.031985782
0.032993306
-0.00089653554
-0.032543633
0.03293216
0.03241661
-0.03198698
-0.032320157
-0.56121212
0.023863141
-0.023445405
-0.032655386
0.033152515
-0.64951331
0.16518294
0.00044550095
-0.11846081
0.00061097465
-0.00041915541
-0.00023751688
0.13169171
3.4814374e-05
-0.16475334
-0.00014687517
2.6240275e-05
0.00038189216
-0.14595969
0.0001741478
0.00011688831
-0.00013170579
-0.14604608
0.00014622808
0.00010667847
-0.16369291
-1.5572236e-05
-0.13101446
0.00011997722
0.00023846601
0.00010499536
7.7315208e-05
-2.1376941e-05
-0.16346575
-0.00044294565
-0.16510475
0.13161024
0.00018536632
-0.00020232981
-0.16469161
0.00022228581
0.00039810983
-0.1459552
0.00012303261
0.00012834692
7.4155762e-05
9.9359212e-05
-0.14586603
-0.00017250064
7.0947122e-05
0.14570496
0.00010607009
-0.14563532
0.13165259
-2.730986e-05
-0.16454375
0.16457595
0.00019214707
0.00021476297
0.13170919
7.4507194e-05
3.7035538e-05
7.8722496e-05
-0.14568799
0.0001555853
0.00016807939
-0.14577105
0.00013572318
-0.00011192253
-0.14511158
0.00019311586
0.00016844847
-0.16225198
3.4862214e-05
-0.13014644
0.00021087133
0.00029234672
0.00016388448
-8.863445e-05
-0.16223598
0.14506609
6.6825681e-05
0.00011419826
-0.14501229
-0.00012952262
0.00013618702
0.00015872238
0.0001421807
-0.00013330878
-0.14436818
0.00014535886
0.14436491
0.00013340223
-0.00012538993
0.14564031
0.00011243953
-0.14563232
0.16403534
0.00010398101
-0.13127675
0.00016690649
7.6881967e-05
0.14559873
0.00013199765
0.00018316128
0.14553195
0.00014826094
0.00022252189
-0.0001404987
0.14542515
0.00022567686
0.0001542958
0.13113458
8.0320548e-05
0.16318858
-5.4307768e-05
0.00011722964
0.13076518
-0.00050416698
0.00016337088
0.15579424
0.0015178325
0.00032302081
0.57854727
0.0072440699
0.0021260934
-0.14415716
-0.14324152
-0.15500245
0.58018717
0.01092043
0.0050075288
-0.57861021
-0.58412133
-0.57951635
0.0067545401
0.0054465869
-0.58012956
0.0041518025
0.011746428
0.0022638329
0.00646424
-0.14499966
-0.1461632
-0.14438271
-0.14319481
-0.0071183687
0.57854316
0.0062250581
0.0010871721
-0.14489188
-0.14518485
-0.14336768
-0.14302878
0.57843015
0.00086312817
-0.15518056
-0.14339535
-0.1431262
-0.15499689
0.010515693
0.0017584854
0.011868182
0.0018261257
-0.0030018495
0.58328553
-0.57508311
0.0046951231
0.001972492
0.58580955
0.0041106888
-0.57788277
-0.57674346
-0.57154818
0.0059239335
0.013023734
-0.5756904
0.0025200151
0.0043624885
-0.0047936934
0.0028538799
-0.1437388
-0.14453668
-0.14322487
-0.14263385
0.0037137236
0.0024423972
-0.14358603
-0.14486301
-0.14404979
-0.14286046
0.0048262676
0.0015263527
-0.14339729
-0.14377563
-0.14301629
-0.14257907
0.57232254
0.0024147369
-0.14277077
-0.14339807
-0.14290976
-0.14219015
0.0042116149
0.0027615837
0.0052279151
-0.0048995769
0.57035855
0.0019076519
-0.57007692
0.0054718804
-0.01196138
-9.4295152e-05
0.58273525
-0.57360666
-0.01053931
0.57951391
-0.57752519
-0.0015846656
0.58445956
-0.002588727
-0.57764147
-0.57585316
-0.57297983
0.0080108263
0.00049729897
-0.57611241
0.010636688
0.0001413654
5.7234129e-05
0.0074929466
-0.15485018
-0.14306824
-0.14300792
-0.1547465
0.00013204554
0.0073118179
-0.15504887
-0.14318262
-0.1548843
-0.1430553
0.00027455388
0.0064466712
-0.1448447
-0.14497728
-0.14310018
-0.14292527
0.57638536
0.0067732932
0.0001523229
-0.14287646
-0.14295814
-0.14488426
-0.14482462
0.012285061
0.00017248308
0.57882626
0.005692884
-0.57254324
0.00021486152
-0.56716952
0.0006864364
0.016732499
-0.56806814
0.00036949625
0.0081296658
-0.0019688056
-0.0061437336
-0.14156731
-0.14273101
0.00031187971
0.0075921157
-0.1410518
-0.14250948
-0.0053469443
-0.14225051
-0.14303251
-0.14266472
-0.14163491
0.0052985927
0.00083370268
-0.14329926
-0.14349967
-0.14265655
-0.14235881
-0.14336432
-0.14239853
0.0001956247
-0.143271
-0.14224175
-0.00026094531
0.0011181055
-0.1428745
0.00013336803
-0.0014803508
-0.00026625625
-0.0014225361
-0.14292298
0.0010515672
-0.00040245173
-0.0013466658
0.00095868317
-0.14297549
-0.00036616718
-0.0012813777
-0.14304166
0.00088946895
-0.00063663783
-0.0012372714
0.00083933271
-0.14310722
-0.00061462741
-0.0012117645
-0.14321584
0.00081956661
-0.0017635171
0.00097324568
-0.14329679
-0.0013905753
-0.0012805441
0.00094169862
-0.14308142
-0.1302174
0.0010736356
8.7836569e-05
-0.0003363055
-0.16196386
0.13198764
-1.6326387e-05
-0.0091216806
-0.14669868
0.0012001454
-0.14372803
0.0012024683
0.0016111953
-0.00038259352
0.00036132487
-0.1442639
0.00054081629
-0.14375125
0.00047418609
-0.00014165688
-0.14386113
0.00032365834
0.00024059405
-0.032328864
-0.12955705
0.00016763855
0.032296411
-0.032233875
-0.59131486
-0.024067938
0.024494568
-0.024044009
-0.03220029
0.024517114
-0.12955643
0.00018924332
0.00011128135
0.00025347402
-0.16221053
0.00026061379
-0.00029588241
-0.14389038
0.14385986
0.00024006282
0.00033980751
0.14489911
-0.14492606
0.00018457886
-0.00030558303
0.00033096958
0.00012756342
7.8661352e-05
-0.00019193045
0.00036081689
0.14388117
0.00018887949
-0.14416027
4.9205871e-05
0.14508157
0.00013861808
-0.14542387
-0.032101975
0.16318597
8.9447052e-05
-0.13113304
0.0011240241
0.00012851677
0.54819179
-0.54927199
0.031954874
-0.032340516
-0.032526143
0.53245244
-0.00072244933
-0.66447362
0.00059222288
0.0022983001
-0.53597825
0.0024357638
0.00017432802
-0.0010749704
-0.67065118
-2.6863318e-05
0.54720255
-0.54770023
-0.032348943
0.031951366
0.03200828
-0.032277066
0.0002175882
-0.00045490789
-0.03262022
0.026020323
0.02611861
-0.032538193
0.00030620352
0.025914326
-0.032708145
-0.032602314
0.026033113
0.15578644
-0.13076241
0.00030058697
0.0015242437
0.0020179453
0.0072815691
-0.15500281
-0.14323996
-0.14414455
0.0071422002
0.00074143545
-0.15516801
-0.15499319
-0.14337852
-0.14312148
-0.00216268
0.57845034
0.00097091362
0.0062825574
-0.14488298
-0.14516623
-0.14334043
-0.14300928
0.58008182
0.0065262604
-0.14615328
-0.14499959
-0.14318672
-0.14436564
0.0040654612
0.011809661
0.0016932912
0.011926707
-0.57737762
-0.0017100031
0.01196512
-0.007301336
0.00013389255
0.0064801096
-0.1430573
-0.14494533
-0.14482396
-0.14289279
-0.00019137285
-0.14316085
-0.15502965
-0.15487533
-0.14304845
0.57603312
0.0074115194
-0.14304595
-0.15482539
-0.15473342
-0.14300511
1.9665724e-06
0.010556307
1.9331703e-06
-0.57620922
0.012198544
-1.6173742e-06
0.0067231597
-0.1429055
-0.14484004
-0.14479613
-0.14284654
1.2424996e-06
-0.00067593935
0.57213649
0.0061435277
-0.14227007
-0.14327314
-0.14319565
-0.1421366
-5.4550657e-06
-0.0014134466
0.00543709
0.57330463
-0.14257159
-0.14344042
-0.14324305
-0.14226905
-0.0023436995
0.57492306
0.0049170343
-0.1437469
-0.14337245
-0.14253507
-0.14297287
0.57781421
0.0048806
-0.14485101
-0.14358142
-0.1428444
-0.14402769
0.58572129
0.0029174001
0.0041823093
-0.58316069
-0.57132814
-0.57662349
0.013419234
0.0047764249
0.0018300566
-0.0024369648
-0.57209057
0.0026117754
0.0053640443
-0.57562126
0.0044776097
0.002739013
-0.14452503
-0.14321845
-0.14371648
-0.1426165
0.0038345132
0.0022761639
-0.14271182
-0.14335615
-0.14286368
-0.14212447
0.0043454353
0.56950377
0.0017240965
-0.14292195
-0.14253624
-0.1421017
-0.14144728
0.0054925628
-0.0049515721
0.0016981271
0.0055795616
-0.00023051203
0.0056774699
-1.4391891e-05
-0.56703784
0.0081203687
-7.3253656e-05
-0.14251495
-0.14124248
-0.14230366
-0.14072641
0.0076579088
-4.0627728e-05
-0.001578061
-0.00046803923
0.001477512
-0.1421689
0.0002225404
-0.0011236063
-0.00032694784
-0.14254397
0.00014638537
-0.0014739301
-0.14279889
-0.00021351579
8.9590627e-05
-0.0011980212
-0.0001521864
6.1226934e-05
-0.14309045
-0.0025498182
-0.00010100242
-0.143424
3.6761795e-05
-0.0017625681
-7.1083601e-05
2.3293614e-05
-0.14378541
-0.026107963
-3.8369951e-05
-0.13044466
3.0345744e-06
-0.0026007849
-6.9737664e-05
-0.54457273
-0.032458059
-0.032420998
0.02609533
2.5865123e-06
-0.12886078
0.00058524067
-0.52614029
6.0332817e-06
-1.9563291
0.13324169
-0.13455063
-0.13005557
3.7508496e-05
-0.0014361154
0.13591514
-0.13394681
-0.12950728
0.13144268
4.7322445e-05
-2.4773926
0.0010150061
-0.13167183
0.13347287
0.13628793
-0.13440854
-2.5391436
0.098041173
-0.096677258
-0.13037188
0.13198209
-2.639547
-0.47511252
0.0011620828
0.00087126855
-0.0011101606
-4.3022659e-05
-0.66443425
0.5270727
0.00078395494
-0.00082053418
-0.65851816
0.00066983983
0.00062472041
-4.3741709e-05
-0.57713721
4.9140767e-05
0.032480086
0.023855945
-0.023699356
-0.032264992
-0.48108503
0.0038250121
0.00045829152
-0.0036204812
-0.60446347
0.00015889107
0.023924953
-0.023736797
-0.032295315
0.032586109
-0.5765328
-0.0008476982
0.0001110421
0.5491905
0.032642185
0.032753104
-0.032546515
-0.03238687
-0.54875686
0.53181802
-0.00061385051
-0.66454424
0.00063948723
0.0008025042
-0.53471224
0.00088153867
0.00010693702
0.00089555202
-3.660246e-05
-0.67059358
0.54761796
0.00010537075
0.032659951
0.032636671
-0.032394435
-0.032359382
-0.54725954
-0.00014773051
0.0001723411
-0.03227924
0.032616433
0.032656586
-0.032219121
0.032727878
-0.032457599
-0.03226923
0.032621371
-0.00015627085
0.16391932
-0.13131078
8.6236851e-05
0.0001893723
-0.00021827672
-0.13107765
0.00014799236
-0.023525263
-0.11859164
0.00058381172
-0.51325524
-0.023565401
-0.032780489
0.032825903
-0.00054301067
0.023833069
0.00094346887
0.033125417
-0.032681475
-0.023473745
-0.64950395
0.16518038
0.0006179928
-0.11845866
0.00041830887
-0.00026441465
-0.00041160338
0.00013664446
-0.16369184
-5.1864173e-05
-2.7397935e-06
0.14595933
-0.14604531
0.00015455325
7.0804471e-05
0.13169098
-0.16475224
-0.0001335722
-4.2578798e-06
0.00039566417
0.00018345844
8.2910844e-05
-4.5933453e-05
-0.14568813
0.00022046242
0.000119095
-0.032689044
-0.13170841
0.00022773877
-0.49550325
-0.032013616
-0.032642408
0.032237159
0.033087128
0.032896638
-0.032578228
-0.032016545
0.032387226
-0.032223598
-0.56120735
-0.00041087421
-0.13165125
0.000205629
0.16457477
0.00017836396
-0.13160903
0.00018932249
0.00043660295
0.00015211163
-0.00019046813
-0.16468875
-0.00013221115
-0.16510038
0.13101282
8.0375727e-05
-5.858608e-05
-0.16346214
0.00012386726
0.00020153816
-0.14595349
9.1102279e-05
0.00013027132
8.0445484e-05
6.1439221e-05
-0.14586289