/*--------------------------------*- C++ -*----------------------------------*\
  =========                 |
  \\      /  F ield         | OpenFOAM: The Open Source CFD Toolbox
   \\    /   O peration     | Website:  https://openfoam.org
    \\  /    A nd           | Version:  7
     \\/     M anipulation  |
\*---------------------------------------------------------------------------*/
FoamFile
{
    version     2.0;
    format      ascii;
    class       volScalarField;
    location    "470";
    object      T;
}
// * * * * * * * * * * * * * * * * * * * * * * * * * * * * * * * * * * * * * //

dimensions      [0 0 0 1 0 0 0];

internalField   nonuniform List<scalar> 
25278
(
299.99742
300.00031
299.99933
299.99925
300.0042
300.00006
299.99767
299.99734
299.99793
300.00041
299.99949
299.99834
299.99962
300.00163
300.02456
299.9993
300.00033
300.01911
300.02813
300.01472
300.00703
300.00538
300.00359
300.0008
300.00161
300.00069
300.00351
300.0064
300.00973
300.00603
300.00729
300.01223
300.01789
300.01355
300.00774
300.01023
300.00677
300.0078
300.01184
300.01507
300.01272
300.00815
300.00976
300.00419
300.00397
300.00266
300.00153
300.00186
300.00301
300.00884
300.0103
300.01676
300.028
300.02333
300.01354
300.00904
300.01064
300.01562
300.02121
300.01787
300.01204
300.01459
300.01707
300.01192
300.01719
300.01828
300.01282
300.0185
300.0257
300.02392
300.03454
300.02984
300.0245
300.01997
300.01611
300.01072
300.00756
300.00584
300.00515
300.00935
300.01232
300.02419
300.01867
300.02701
300.01197
300.01572
300.03399
300.0698
300.05464
300.03858
300.03531
300.05133
300.05486
300.08136
300.07676
300.05088
300.04559
300.03128
300.02642
300.04031
300.04621
300.07116
300.06364
300.0395
300.05408
300.06041
300.06584
300.11477
300.11858
300.14786
300.08214
300.07817
300.14394
300.1412
300.11014
300.10186
300.13781
300.06684
300.07255
300.07451
300.02797
300.01208
300.00416
300.05976
300.08739
300.125
300.15141
300.08369
300.03515
300.01602
300.01272
300.00941
300.01982
300.02587
300.05874
300.07362
300.06998
300.0799
300.14826
300.12213
300.11846
300.14658
300.14442
300.06909
300.05852
300.06464
300.04993
300.05525
300.0834
300.0565
300.02685
300.042
300.03872
300.03443
300.0207
300.02928
300.04381
300.07149
300.11131
300.228
300.37456
300.35464
300.2104
300.10339
300.05594
300.06155
300.07319
300.06903
300.13932
300.13986
300.11069
300.21739
300.33961
300.35624
301.35252
301.1177
300.34539
300.36128
301.12964
301.36747
300.3674
300.34738
300.23138
300.12064
300.07845
300.05142
300.04557
300.063
300.1149
300.1491
300.14748
300.07949
300.03097
300.06811
300.07593
300.0631
300.14336
300.38098
301.63043
301.61023
300.36407
300.13124
300.05564
300.04323
300.0297
300.01928
300.01334
300.00951
300.01175
300.00689
300.00976
300.01713
300.01216
300.00768
300.00637
300.00716
300.01108
300.0141
300.00895
300.00354
300.00334
300.00187
300.00258
300.00124
300.00056
299.99837
299.99814
299.99936
300.00229
300.00328
300.00019
299.99899
299.99843
299.9997
300.00342
300.00389
300.00241
300.00125
300.00655
300.01396
300.00815
300.01253
300.02189
300.01645
300.01078
300.00814
300.00942
300.01428
300.01925
300.01284
300.01493
300.01049
300.00936
300.01579
300.02608
300.01564
300.02162
300.02327
300.01663
300.01126
300.01621
300.00837
300.00739
300.00589
300.00451
299.99836
299.99955
299.99964
300.00469
300.0054
300.00266
299.99753
299.99838
299.99639
299.99707
299.9956
299.99709
299.99433
299.99598
299.99445
299.99221
299.99027
299.99446
299.9933
299.99587
299.99278
299.99336
299.99222
299.99271
299.99358
299.99362
299.99487
299.99853
300.00079
300.00277
300.00202
300.00363
300.0005
300.00016
299.99894
299.9993
300.00372
300.00419
300.00122
299.99812
299.99952
300.00257
300.00616
300.01287
300.01013
300.01364
300.02143
300.02741
300.01786
300.02584
300.01813
300.01323
300.00963
300.01554
300.02886
300.02099
300.02616
300.01881
300.01185
300.01673
300.02492
300.03647
300.02752
300.05082
300.03747
300.05245
300.03705
300.01835
300.01523
300.01229
300.01006
300.00823
300.00695
300.00279
300.00354
300.00306
300.00702
300.00801
300.00972
300.00443
300.00333
300.00546
299.99682
299.99897
299.99911
299.99538
299.99641
299.9961
299.99963
299.99925
299.9952
299.99442
299.99453
299.99367
299.99911
300.00432
300.00581
300.01203
300.01513
300.0078
300.0056
300.00755
300.00513
300.0038
299.99784
299.9966
299.99837
299.99853
299.99898
300.00195
300.00543
300.00616
300.00211
300.00256
300.00219
300.00602
300.00689
300.00849
300.00742
300.00262
300.00362
300.00926
300.01073
300.00466
300.00336
299.99839
299.99842
299.99888
299.99548
299.99596
299.9949
299.99452
299.99367
299.99405
299.99319
299.99851
299.99871
299.99297
299.98766
299.98883
299.99016
299.98611
299.99112
299.99
299.99142
299.98928
299.99197
299.99101
299.98801
299.9902
299.9885
299.98745
299.9892
299.98642
299.98749
299.9858
299.98448
299.98113
299.9836
299.98498
299.98722
299.99051
299.98935
299.98564
299.98304
299.98469
299.98185
299.98003
299.97729
299.97949
299.98284
299.98105
299.98434
299.98738
299.98936
299.98697
299.99042
299.99442
299.99532
299.99909
300.00273
300.00694
300.01497
300.02265
300.04092
300.03251
300.02229
300.02893
300.01858
300.02716
300.04088
300.06205
300.04738
300.08529
300.07123
300.05449
300.03505
300.04776
300.07845
300.10093
300.13553
300.07767
300.04861
300.03135
300.05251
300.03413
300.02482
300.02245
300.03641
300.04106
300.05421
300.08865
300.12728
300.1638
300.14398
300.11561
300.06401
300.07463
300.04632
300.04223
300.03666
300.03081
300.02543
300.02094
300.01709
300.01386
300.0116
300.00497
300.00709
300.01479
300.01782
300.00932
300.00666
299.99951
299.99897
299.99604
299.9995
299.99306
299.99332
299.99376
299.99969
299.9993
300.00031
299.99992
300.00006
299.99916
300.00018
300.00466
300.00573
300.0005
299.99995
300.00738
300.00556
300.00822
300.01673
300.02118
300.03259
300.02459
300.03479
300.04452
300.05307
300.04125
300.02575
300.02833
300.03749
300.05891
300.04627
300.08189
300.07068
300.05244
300.03763
300.04977
300.08778
300.06636
300.10565
300.07296
300.05655
300.0836
300.12458
300.14302
300.08333
300.09449
300.17031
300.15416
300.10632
300.07519
300.05353
300.0392
300.02895
300.02206
300.01736
300.01044
300.00733
300.00355
299.9986
299.99908
299.99981
299.99847
299.99746
299.99613
299.99753
299.99488
299.99626
299.99465
299.99268
299.99093
299.99515
299.997
299.99668
299.99421
299.98964
299.99368
299.994
299.9929
299.99324
299.99398
299.99385
299.99137
299.99037
299.99178
299.99067
299.98848
299.98962
299.99237
299.99156
299.98993
299.99089
299.9903
299.98625
299.98527
299.98782
299.98678
299.98961
299.98796
299.98896
299.98623
299.98494
299.98155
299.98391
299.98028
299.98209
299.98498
299.98753
299.98611
299.98349
299.98827
299.9892
299.9877
299.98688
299.98091
299.97907
299.98261
299.98067
299.98659
299.98483
299.98589
299.99256
300.0002
300.00751
300.01032
300.01892
300.02352
300.01362
300.00959
300.01298
300.02281
300.02949
300.01791
300.00593
300.00343
300.00169
300.00049
300.00254
300.00114
300.00806
300.00608
300.00471
300.00385
300.00503
300.00977
300.01162
300.00963
300.01192
300.01455
300.00818
300.00623
300.00099
300.00087
299.99644
299.99612
299.99536
299.99588
299.99677
299.99695
300.00179
300.00626
300.01131
300.01319
300.00782
300.01011
300.00807
300.01376
300.01624
300.0208
300.01748
300.01076
300.01362
300.01852
300.0145
300.01093
300.01856
300.01493
300.01908
300.01089
300.01481
300.02388
300.03054
300.02404
300.01441
300.01963
300.00841
300.00549
300.00328
300.00183
299.99559
299.99475
299.99437
299.99563
299.99762
299.99694
300.00385
300.00239
300.00405
300.00304
299.99776
299.99794
299.99872
300.00623
300.00957
300.00614
300.00948
300.01975
300.02935
300.02254
300.02729
300.03191
300.02407
300.01855
300.01483
300.00928
300.00665
300.00092
300.00128
300.0018
300.00104
299.99383
299.99662
299.99372
299.99347
299.99668
299.99409
299.98868
299.98892
299.98565
299.98588
299.98636
299.98699
299.98795
299.98995
299.98936
299.99281
299.99115
299.99117
299.98759
299.987
299.98381
299.9849
299.98327
299.9867
299.98539
299.98177
299.98052
299.98444
299.98357
299.97954
299.98251
299.98301
299.98674
299.98907
299.99294
299.99336
299.98898
299.9868
299.99211
299.99147
299.99027
299.98967
299.98957
299.98507
299.98443
299.98159
299.9823
299.98795
299.98825
299.98922
299.98148
299.98424
299.9845
299.99133
299.99088
300.00024
300.00338
300.00077
299.99928
299.99855
300.00416
300.0092
300.01056
300.0164
300.02067
300.01403
300.01222
300.0058
300.0074
300.00534
299.99943
300.00056
300.00156
300.00002
300.00609
300.01143
300.01195
300.01796
300.02287
300.01608
300.01539
300.0086
300.00923
300.00655
300.00038
300.00208
300.00519
300.00436
300.00276
300.0112
300.00882
300.01666
300.0193
300.02697
300.03631
300.02681
300.0229
300.01338
300.017
300.00651
300.00912
300.01987
300.01303
300.02131
300.02235
300.03007
300.04099
300.03145
300.02984
300.04286
300.03802
300.032
300.02549
300.03588
300.04745
300.03794
300.02636
300.03449
300.02092
300.01441
300.00272
299.99887
299.99605
299.99425
299.99437
299.99305
299.99308
299.99228
299.99227
299.99264
299.99252
299.99233
300.00081
299.99984
300.00116
300.00286
299.9926
299.99358
299.98142
299.98308
299.98433
299.98568
299.98739
299.98237
299.9795
299.9771
299.98023
299.98598
299.98429
299.98271
299.97378
299.97687
299.97965
299.97749
299.97174
299.97609
299.97986
299.98324
299.9816
299.97946
299.97759
299.98029
299.97624
299.97787
299.97507
299.97765
299.97325
299.97677
299.97221
299.97513
299.97134
299.97502
299.97889
299.97659
299.9721
299.96789
299.97295
299.97576
299.97147
299.96667
299.96213
299.96771
299.96227
299.96812
299.96388
299.96995
299.97356
299.97921
299.98631
299.9868
299.97835
299.97451
299.97565
299.98455
299.98523
299.99679
300.00069
300.01388
300.01971
300.0123
300.00709
300.00445
300.01902
300.03022
300.03866
300.02592
300.03379
300.02484
300.03808
300.04933
300.06287
300.04863
300.03511
300.0468
300.06184
300.08266
300.06291
300.04614
300.02713
300.01728
300.01061
299.99573
299.99482
299.99796
299.99958
300.00629
300.00316
300.01101
300.00621
299.99088
299.99077
299.98826
299.97832
299.97927
299.98204
299.97454
299.97882
299.97934
299.97602
299.97483
299.96919
299.9707
299.97271
299.96687
299.97146
299.96567
299.9685
299.96253
299.96684
299.97404
299.9703
299.9613
299.95551
299.94803
299.95666
299.95095
299.95976
299.95603
299.9642
299.96998
299.97509
299.96935
299.96218
299.95316
299.9627
299.96358
299.97445
299.98724
299.98605
299.98348
299.98271
299.97159
299.96988
299.9642
299.96694
299.98081
299.98143
299.9844
299.96304
299.96954
299.97134
299.97584
299.97918
299.98133
299.98324
299.98516
299.98712
299.98907
299.99383
299.99444
299.9893
299.98757
299.99387
299.99297
299.99274
299.99422
299.98601
299.98477
299.99559
299.99315
299.99437
300.00751
300.02012
300.02579
300.01255
300.02192
300.01357
300.02955
300.04417
300.05745
300.04269
300.0491
300.06797
300.05376
300.03877
300.0469
300.03046
300.01698
300.0195
300.01052
300.0214
300.01399
300.01388
300.00917
300.00653
300.00181
300.00131
300.00361
300.0019
300.00708
300.01924
300.02818
300.04596
300.03152
300.04638
300.06187
300.07303
300.06899
300.05627
300.1043
300.13915
300.13925
300.11151
300.07147
300.06405
300.04054
300.0267
300.01897
300.03991
300.05451
300.10226
300.21098
300.35146
300.33544
300.2175
300.34489
301.08584
301.3156
300.35453
300.13743
300.14012
300.11001
300.06068
300.02751
300.07262
300.06753
300.11874
300.22491
300.34811
301.10727
301.32994
300.35937
300.22235
300.36175
300.34238
300.14635
300.14814
300.11328
300.06252
300.03092
300.07927
300.07575
300.06277
300.14169
300.37555
301.57878
301.57195
300.35984
300.13211
300.05603
300.02814
300.0168
300.01035
300.00894
300.01482
300.02344
300.01569
300.01728
300.01832
300.01284
300.01198
300.01708
300.01851
300.02575
300.02402
300.02125
300.01459
300.01071
300.00917
300.01365
300.01794
300.01211
300.00572
300.00486
300.00318
299.99927
299.99867
299.99673
299.99354
299.99395
299.9968
300.00103
300.00672
300.00736
300.01044
300.00927
300.0011
299.99403
299.99414
299.9888
299.98926
299.99013
299.99453
299.99695
300.0007
300.00585
300.00743
300.00013
299.99947
300.00046
299.99735
299.99552
299.99149
299.99447
299.99403
299.99357
299.99394
299.99446
299.99485
299.99513
299.99513
299.99486
299.9895
299.98965
299.98824
299.98801
299.99463
299.99502
299.99615
299.99549
299.98683
299.98722
299.98697
299.98631
299.9978
299.99894
300.00457
300.00243
299.99843
299.98401
299.98377
300.00337
299.99652
299.99984
299.9911
299.99108
300.01725
300.04147
300.02978
300.04313
300.06181
300.077
300.09376
300.07819
300.11615
300.08652
300.10662
300.13881
300.16524
300.14837
300.09354
300.06189
300.06672
300.04554
300.05629
300.08027
300.11551
300.10353
300.17293
300.18841
300.31615
300.26544
300.20414
300.14678
300.10848
300.08071
300.06254
300.04812
300.03706
300.02856
300.02211
300.01257
300.00904
300.00633
300.00454
300.00337
300.00812
300.00963
300.00811
300.00356
300.00447
299.99946
299.99878
299.99898
299.99367
299.99313
299.99964
300.0011
299.99999
300.00608
300.01224
300.01021
300.01305
300.01588
300.00849
300.01121
300.00802
300.00584
300.00447
300.00932
300.01131
300.01325
300.01079
300.00564
300.00738
300.00161
300.00042
300.00021
299.99959
299.99538
299.99461
299.99406
299.9938
299.99502
299.99486
299.99511
299.99564
299.9988
299.99953
299.99984
300.00003
300.00593
300.00594
300.00254
300.001
299.99986
299.99894
299.99706
299.99748
300.00117
300.00305
300.00483
300.00644
300.01592
300.00935
300.01674
300.02666
300.02353
300.01641
300.01132
300.01069
300.01603
300.02246
300.0155
300.01368
300.00969
300.00811
300.01431
300.02324
300.01484
300.02048
300.01783
300.01315
300.00838
300.01165
300.00486
300.00631
300.0077
300.00848
300.00009
300.00007
299.99265
299.99264
299.99561
299.99256
299.98771
299.98872
299.9855
299.98628
299.98861
299.99192
299.99013
299.98618
299.98309
299.98104
299.98269
299.98608
299.98464
299.98354
299.97961
299.98209
299.98567
299.98815
299.99184
299.99013
299.9904
299.99198
299.99612
300.00111
300.00193
300.00671
300.01214
300.01515
300.00902
300.01048
300.0078
300.01344
300.0169
300.02232
300.0199
300.01719
300.01456
300.01908
300.02292
300.01435
300.01021
300.00312
300.0014
300.00314
300.00566
299.99675
299.99601
299.99586
299.99676
299.99664
299.99726
300.00284
300.00413
300.00291
300.00506
300.01261
300.01786
300.0268
300.03052
300.02108
300.01475
300.0069
299.99886
299.99742
299.99893
300.00856
300.01141
300.00124
300.00329
300.0001
299.99844
299.99767
299.99144
299.99088
299.99222
299.98773
299.98784
299.98543
299.98136
299.98484
299.98248
299.97842
299.9736
299.97508
299.97688
299.97891
299.97456
299.97732
299.98159
299.98441
299.98871
299.98699
299.98679
299.98846
299.9835
299.98051
299.97543
299.97953
299.97832
299.98295
299.9886
299.98711
299.97989
299.97976
299.98276
299.9891
299.98795
299.98694
299.98563
299.98509
299.98525
299.99289
300.00091
300.00279
299.99297
299.9944
299.99391
300.00299
300.01205
300.01668
300.02744
300.03563
300.02299
300.01741
300.02378
300.03121
300.04672
300.05845
300.04413
300.03362
300.02206
300.01591
300.02049
300.02872
300.04167
300.05555
300.04035
300.0305
300.04152
300.0559
300.07583
300.09744
300.0691
300.05043
300.03694
300.02585
300.03097
300.04536
300.05982
300.08433
300.06828
300.0535
300.07689
300.10364
300.12667
300.15148
300.0962
300.06657
300.05275
300.03527
300.02371
300.01646
300.01163
300.00853
300.01429
300.01812
300.01893
300.01488
300.00904
300.01231
300.00571
300.00511
300.00344
299.99768
299.99799
300.00387
300.00394
300.00913
300.01502
300.02526
300.03467
300.05446
300.05522
300.04194
300.03893
300.02371
300.03295
300.05172
300.08341
300.09064
300.13426
300.16925
300.14843
300.0764
300.06909
300.12676
300.14813
300.11568
300.06984
300.04531
300.02951
300.04493
300.02525
300.01698
300.02046
300.03268
300.02631
300.0373
300.05537
300.09598
300.08464
300.06746
300.09238
300.05505
300.04253
300.02655
300.03095
300.0358
300.04076
300.04513
300.04799
300.04944
300.04892
300.03486
300.03314
300.02409
300.0252
300.01748
300.02526
300.01525
300.0138
300.0084
300.00932
300.00087
299.99891
299.99228
299.99195
299.99284
299.99258
299.98774
299.98559
299.98543
299.98089
299.98442
299.98175
299.9775
299.97686
299.98113
299.98415
299.98066
299.9768
299.97696
299.97746
299.97282
299.97389
299.96967
299.97199
299.96613
299.96948
299.97301
299.97844
299.97488
299.98346
299.9833
299.97311
299.9771
299.97056
299.96469
299.96797
299.96345
299.95898
299.95017
299.9563
299.96207
299.97089
299.98171
299.99355
300.00562
300.00963
299.99487
299.99732
299.99549
300.00953
300.00568
300.00977
300.0059
299.99569
299.99694
300.00081
299.99829
300.00961
300.01523
300.02332
300.01523
299.99899
300.00196
300.02255
300.0148
300.02225
300.01553
300.03265
300.04421
300.05709
300.04252
300.06078
300.08679
300.10383
300.18583
300.16113
300.13755
300.21619
300.13305
300.15703
300.27042
300.4645
300.24666
300.24337
300.33486
300.28327
300.59842
300.65638
300.41953
300.85885
300.40253
300.22919
300.23485
300.35214
300.44616
300.53565
300.28153
300.32381
300.5866
301.72051
301.60211
300.86128
301.67552
301.84137
303.13615
302.83848
302.75264
301.64917
300.56015
300.26647
300.16895
300.09485
300.05912
300.0376
300.02836
300.02572
300.03472
300.05355
300.04129
300.0464
300.08238
300.07116
300.08448
300.14533
300.12586
300.15399
300.1157
300.0805
300.0564
300.04101
300.03007
300.02285
300.01795
300.01193
300.01135
300.01732
300.02199
300.01524
300.01604
300.02228
300.02109
300.02887
300.03917
300.02956
300.03137
300.02123
300.01027
300.00505
300.00202
300.00036
299.99995
300.006
300.00842
300.00138
300.00034
299.99937
300.00524
300.01045
300.01632
300.01474
300.00909
300.01198
300.01381
300.02053
300.01838
300.02381
300.02678
300.01895
300.01626
300.02231
300.02633
300.03611
300.03158
300.02691
300.02052
300.01606
300.01311
300.02109
300.02985
300.04341
300.02452
300.01672
300.02449
300.03245
300.04466
300.03483
300.0499
300.06685
300.08865
300.10717
300.08433
300.05244
300.03748
300.05656
300.07355
300.05287
300.03768
300.02757
300.02012
300.01523
300.01201
300.00745
300.00545
300.00156
300.00287
299.99999
300.00087
300.00162
300.00292
300.00619
300.00653
300.00988
300.01237
300.01808
300.01046
300.00802
300.00702
300.008
300.00995
300.00843
300.01297
300.01639
300.01111
300.01044
300.01303
300.01799
300.01397
300.02174
300.02997
300.0196
300.01379
300.02931
300.05135
300.0279
300.01851
300.02595
300.0372
300.02536
300.03696
300.02673
300.02145
300.01375
300.01018
300.01604
300.01943
300.01252
300.01736
300.00999
300.0058
300.00171
300.00459
300.00646
300.00448
300.00423
300.00049
300.00082
300.00234
300.00392
300.00408
299.99973
299.99935
299.99539
299.9979
299.99649
299.99776
299.99879
299.9988
299.99674
299.9951
299.99322
299.98966
299.98865
299.98767
299.98698
299.98641
299.98607
299.98587
299.98577
299.98571
299.98566
299.9856
299.98559
299.98264
299.98303
299.97888
299.98231
299.98233
299.97851
299.97837
299.98247
299.98244
299.97837
299.98254
299.98245
299.97926
299.97893
299.97872
299.97406
299.97371
299.96803
299.96828
299.97463
299.9752
299.97594
299.96817
299.97365
299.97372
299.97941
299.97614
299.96842
299.96264
299.96179
299.96112
299.96107
299.96974
299.97097
299.96577
299.96347
299.95167
299.95244
299.9543
299.9693
299.97261
299.98705
299.98821
299.9924
299.99008
300.0111
300.02997
300.03505
300.05195
300.03312
300.03288
300.04547
300.0426
300.05367
300.07583
300.0619
300.06668
300.05165
300.03447
300.0191
300.01586
300.00843
300.00398
300.01271
300.01936
300.01628
300.01074
300.00716
300.00557
300.00408
299.99854
299.99911
300.00033
300.00228
300.00563
300.00254
300.01261
300.00835
300.00587
300.0039
300.00302
300.00774
300.00627
300.01129
300.01365
300.00797
300.00991
300.01326
300.01052
300.01727
300.02222
300.01408
300.01797
300.00892
299.99963
299.99844
299.99789
299.99784
299.99714
300.00187
300.00236
299.99686
299.99613
299.99673
300.00105
300.00512
300.00981
300.00836
300.00406
300.00486
300.00625
300.01159
300.00972
300.01195
300.01444
300.0081
300.00617
300.00806
300.01071
300.01835
300.0149
300.01897
300.02358
300.02895
300.03546
300.04238
300.049
300.03747
300.03126
300.04347
300.05342
300.06827
300.05737
300.07736
300.09467
300.10765
300.09415
300.10322
300.16921
300.18552
300.16648
300.14907
300.1266
300.07439
300.04621
300.02978
300.02479
300.01113
300.00612
300.019
300.02818
300.03768
300.02
300.02839
300.05111
300.06355
300.06434
300.05277
300.0368
300.02238
300.03512
300.06253
300.09189
300.05901
300.07462
300.0857
300.15648
300.12621
300.09933
300.06189
300.0256
300.01148
299.98413
299.97656
299.97238
299.96475
299.94121
299.95388
299.95537
299.95853
299.94964
299.95549
299.94739
299.9552
299.96648
299.98013
299.97958
299.98146
299.96842
299.96291
299.94883
299.95754
299.95343
299.96184
299.96852
299.97632
299.97204
299.98409
299.98606
299.97196
299.97624
299.96706
299.9603
299.96301
299.95463
299.95065
299.95972
299.95021
299.96668
299.96683
299.98247
299.98068
299.96035
299.95982
299.98468
299.98538
300.00473
300.01022
300.03433
300.05263
300.03465
300.02224
300.01408
300.00173
300.00631
300.01307
300.00557
300.01871
300.0301
300.04884
300.02635
300.01376
300.02489
300.04878
300.07894
300.10998
300.06337
300.03738
300.02274
300.00919
300.01997
300.02448
300.0115
300.00458
299.9935
299.99248
299.99089
299.98929
299.98992
299.98293
299.98016
299.98094
299.98333
299.99087
299.99177
299.98382
299.98581
299.98778
299.98781
299.99304
299.99304
299.99254
299.99532
299.99544
299.99201
299.98713
299.984
299.98075
299.97646
299.98058
299.98054
299.9839
299.98048
299.97623
299.97121
299.97136
299.97174
299.97247
299.96625
299.96772
299.96502
299.96765
299.97052
299.97352
299.97659
299.97957
299.98578
299.99517
299.9988
300.0006
300.00107
299.99936
299.99944
299.9978
299.99953
300.00283
300.00111
300.00006
300.00031
300.00196
300.00223
299.99858
299.99709
299.99923
300.00198
300.00033
299.99844
299.99621
299.99434
299.99205
299.9955
299.99704
299.99403
299.99762
299.99901
300.00286
300.0031
300.00275
299.99936
299.99848
300.00163
300.00004
300.0025
300.00545
300.00479
300.00351
300.00503
300.00915
300.00604
300.00529
300.00775
300.00948
300.00615
300.00648
300.00559
300.00859
300.01032
300.0132
300.01172
300.00936
300.00728
300.0107
300.01349
300.01215
300.01056
300.01142
300.00869
300.01321
300.01445
300.01109
300.00916
300.0057
300.00238
300.00129
300.00209
300.00012
300.00245
300.00147
300.00249
300.00225
300.00262
299.99982
299.99754
299.99898
299.99784
299.99615
299.99268
299.99475
299.99673
299.99485
299.99856
300.00024
300.00091
300.00367
300.00361
300.00304
300.00344
299.99959
299.99786
299.99397
299.99139
299.98949
299.99026
299.98851
299.98776
299.98466
299.98662
299.98743
299.98542
299.9871
299.98983
299.99145
299.99354
299.99211
299.98963
299.99132
299.98889
299.98625
299.98946
299.98597
299.98364
299.98454
299.98195
299.98111
299.97702
299.97986
299.98089
299.97799
299.98038
299.98395
299.98694
299.98905
299.98626
299.9829
299.97968
299.98454
299.98916
299.99352
299.99107
299.98902
299.98968
299.98689
299.98619
299.98411
299.98716
299.98778
299.98473
299.98626
299.98826
299.99078
299.99278
299.99057
299.98864
299.99112
299.98897
299.98742
299.99177
299.99583
299.99809
299.99418
299.98968
299.98756
299.99273
299.99439
299.9896
299.99428
299.99596
299.99219
299.99342
299.99479
299.99734
299.99462
300.0017
299.99868
299.99939
299.99632
299.99759
299.9965
299.99502
299.99159
299.99307
299.9913
299.98836
299.98567
299.98406
299.98328
299.98061
299.98131
299.97742
299.9805
299.98241
299.98565
299.98302
299.98597
299.98314
299.97964
299.97578
299.97931
299.97704
299.98015
299.97619
299.97734
299.97355
299.9724
299.96702
299.97139
299.97274
299.96846
299.97198
299.97643
299.98068
299.98394
299.98827
299.99059
299.99269
299.99451
299.99561
299.99846
299.99765
299.9962
299.99719
299.99388
299.99207
299.99498
300.00208
300.00298
300.00101
300.00399
300.00382
300.00052
299.99981
300.00028
300.00373
300.00348
300.00325
300.0035
299.99952
299.99591
299.99471
299.99314
299.9944
299.98984
299.98774
299.99188
300.00099
299.99783
299.99864
300.0033
300.00311
299.99815
299.99898
299.99847
299.99933
300.00012
300.00272
300.00356
300.00266
300.0008
300.00303
300.00136
300.00376
300.00532
300.00581
300.00626
300.00819
300.00924
300.00638
300.00733
300.00668
300.00991
300.01102
300.00833
300.00738
300.01155
300.01109
300.00903
300.00638
300.00657
300.00947
300.01008
300.00965
300.00662
300.00689
300.00723
300.00683
300.00819
300.0137
300.01303
300.01206
300.01437
300.01314
300.01396
300.01173
300.01283
300.01522
300.01669
300.01561
300.01716
300.01427
300.01115
300.01028
300.01087
300.01187
300.00771
300.00718
300.00756
300.00897
300.00786
300.00689
300.01116
300.01343
300.01242
300.0114
300.01041
300.00829
300.00556
300.00313
300.00287
300.00232
300.00269
299.99936
299.99862
299.99778
299.99353
299.99508
299.99365
299.98916
299.98721
299.98949
299.98761
299.99001
299.98679
299.9897
299.98809
299.98569
299.98446
299.98621
299.98564
299.9821
299.98264
299.98061
299.98019
299.98401
299.9827
299.98302
299.97869
299.97844
299.97689
299.98139
299.9815
299.9769
299.97843
299.98028
299.98222
299.98423
299.98067
299.97874
299.97811
299.97574
299.97622
299.97114
299.97428
299.97667
299.98038
299.98372
299.98147
299.98493
299.9831
299.98671
299.98423
299.98266
299.9852
299.98131
299.977
299.97922
299.97579
299.97821
299.97366
299.97768
299.97495
299.97064
299.96804
299.97379
299.97352
299.97154
299.97152
299.96505
299.96765
299.97345
299.97128
299.97675
299.98142
299.98775
299.99334
299.99689
300.00102
299.99651
299.99736
300.00186
300.00044
299.99959
300.0014
300.00091
299.99573
299.99245
299.99095
299.99174
299.9859
299.98484
299.98646
299.99158
299.99275
299.98708
299.9882
299.98957
299.99079
299.99444
299.99554
299.99379
299.99253
299.98841
299.98571
299.99063
299.99209
299.99038
299.99199
299.99698
299.99788
300.00257
300.00268
300.00208
300.00198
300.00206
300.00254
299.99721
299.99235
299.98718
299.98307
299.97988
299.97537
299.97256
299.97128
299.97598
299.97204
299.97306
299.96808
299.96675
299.96074
299.96668
299.96819
299.96273
299.96089
299.95383
299.95624
299.9625
299.96681
299.97162
299.9756
299.98018
299.98356
299.97712
299.97331
299.97689
299.97289
299.97644
299.97985
299.98485
299.99046
299.98901
299.99087
299.98487
299.9824
299.98001
299.98276
299.98521
299.99125
299.99296
299.99153
299.98582
299.9832
299.98989
299.99666
299.99737
300.0031
300.00313
300.00305
299.997
299.9962
299.99662
300.00268
300.00242
299.99577
299.99629
299.99532
299.99599
299.99684
299.99778
299.99867
300.00232
300.00186
300.00142
300.00191
299.99789
299.99692
299.9959
300.00119
300.00162
300.00157
300.00124
299.99502
299.98875
299.98283
299.98505
299.9824
299.97676
299.97219
299.96917
299.96817
299.96187
299.96329
299.95823
299.96521
299.9643
299.95677
299.94761
299.95444
299.95654
299.94889
299.94569
299.9478
299.93928
299.93014
299.94391
299.93784
299.92072
299.93766
299.94271
299.92914
299.93835
299.95661
299.96185
299.97909
299.99743
300.00196
300.02392
300.03256
300.00547
300.00041
300.00621
300.03255
300.05659
300.07678
300.10067
300.07957
300.10312
300.07816
300.06074
300.08479
300.11031
300.14193
300.17794
300.12978
300.10173
300.0754
300.1037
300.07751
300.1014
300.13555
300.17393
300.13775
300.18332
300.14173
300.09573
300.07478
300.05679
300.03672
300.01025
300.02503
300.03325
300.0149
300.04841
300.06457
300.04561
300.01216
300.02644
300.01754
300.04935
300.06797
300.09163
300.03743
300.02214
300.0416
300.05358
300.12421
300.19359
300.15998
300.12463
300.09016
300.12302
300.17992
300.26442
300.16663
300.19867
300.30291
300.41033
300.40698
300.2569
300.32479
300.47786
300.42721
300.61068
300.59194
300.40426
300.25188
300.21696
300.36462
300.4494
300.27031
300.32399
300.23343
300.31823
300.24285
300.1872
300.13604
300.11179
300.15446
300.24124
300.16309
300.18792
300.28116
300.38194
300.34087
300.20731
300.26366
300.42339
300.50179
300.78485
300.5678
300.38922
300.24569
300.2352
300.13307
300.0825
300.09071
300.05701
300.03778
300.0252
300.04183
300.07255
300.05114
300.04101
300.08157
300.10437
300.13087
300.15066
300.17013
300.10406
300.0711
300.07177
300.05756
300.03821
300.0256
300.01773
300.01248
300.01913
300.01875
300.01473
300.00886
300.01213
300.00551
300.00584
299.999
299.99802
299.99781
300.00369
300.00321
299.99954
299.99964
299.99996
300.00543
300.0047
300.00201
299.99758
299.99727
299.99181
299.98689
299.98696
299.9919
299.99521
299.9923
299.99215
299.9952
299.99928
299.99872
299.99807
299.99899
300.00379
300.00316
300.00164
300.0006
299.99825
299.99592
299.99545
299.99309
299.99226
299.9875
299.98864
299.99241
299.9932
299.99787
299.99895
299.99925
300.00098
300.00283
300.0063
300.00728
300.00668
300.01205
300.01843
300.01163
300.01537
300.00966
300.00812
300.00758
300.01011
300.01315
300.01739
300.0212
300.03243
300.03052
300.02019
300.01359
300.01081
300.01175
300.02446
300.01585
300.02262
300.03114
300.04344
300.05885
300.06342
300.04722
300.03317
300.04554
300.03288
300.02543
300.03432
300.02138
300.01411
300.00595
300.00954
300.00541
300.00173
300.00042
299.99935
299.99663
299.99682
299.9954
299.99404
299.99031
299.99227
299.99453
299.99816
300.00322
300.00367
300.00704
300.0081
300.00935
300.01055
300.01192
300.01309
300.01413
300.00832
300.01131
300.01791
300.01654
300.01014
300.00741
300.00243
299.99685
299.99743
299.9981
299.99871
300.00056
300.00102
300.00952
300.01553
300.0048
300.004
300.01466
300.00901
300.0172
300.02497
300.02549
300.03523
300.03436
300.02474
300.02287
300.01599
300.02377
300.03257
300.02968
300.02189
300.0143
300.02033
300.01064
300.01291
300.00791
300.00478
300.00376
299.9973
299.99843
299.99963
300.00246
300.00061
299.9905
299.99181
299.99302
299.99367
299.99245
299.99235
299.98414
299.98595
299.98595
299.98777
299.98764
299.99286
299.9921
299.99233
299.98579
299.98038
299.98048
299.98382
299.98033
299.9761
299.97603
299.98028
299.98373
299.98368
299.98749
299.99258