/*--------------------------------*- C++ -*----------------------------------*\
  =========                 |
  \\      /  F ield         | OpenFOAM: The Open Source CFD Toolbox
   \\    /   O peration     | Website:  https://openfoam.org
    \\  /    A nd           | Version:  7
     \\/     M anipulation  |
\*---------------------------------------------------------------------------*/
FoamFile
{
    version     2.0;
    format      ascii;
    class       volVectorField;
    location    "470";
    object      U;
}
// * * * * * * * * * * * * * * * * * * * * * * * * * * * * * * * * * * * * * //

dimensions      [0 1 -1 0 0 0 0];

internalField   nonuniform List<vector> 
25278
(
(120.02818 0.0071744516 0.006933356)
(120.01616 -0.0043856916 -0.020521078)
(120.01564 -0.0037166051 -0.0080836023)
(120.01627 -0.0075680892 -0.0062834333)
(119.98616 -0.021837794 -0.010354597)
(120.01812 -0.022579973 -0.0084347092)
(120.03424 0.0045217862 0.00039018943)
(120.02882 0.0073834895 0.005758797)
(120.03207 0.0021015284 0.0053878048)
(120.03822 0.00071829935 -0.0040367466)
(120.0355 -0.00081254542 -0.0025039426)
(120.03035 0.0027848052 0.00095754183)
(120.02228 -0.0084050571 -0.010865174)
(120.00717 -0.014755929 -0.017646567)
(119.88041 -0.035514213 -0.063357757)
(120.01621 0.0028934725 -0.010202708)
(120.01627 0.0017897034 -0.021567831)
(119.91187 -0.050998322 -0.087134212)
(119.85362 -0.020691555 -0.12822024)
(119.94279 -0.029546945 -0.11698906)
(119.99134 -0.011907776 -0.06499984)
(119.99734 -0.022097592 -0.048729848)
(120.00383 -0.022840978 -0.033245837)
(120.02679 -0.015826052 -0.022965302)
(120.03665 -0.032414628 -0.037695517)
(120.02776 -0.021210699 -0.020269449)
(120.00449 -0.031182332 -0.027990469)
(119.99535 -0.048021796 -0.054044122)
(119.97064 -0.04338483 -0.075199925)
(120 -0.045160646 -0.077197567)
(119.9977 -0.044947149 -0.097543718)
(119.95802 -0.043268929 -0.10053878)
(119.93433 -0.083690937 -0.15028237)
(119.95395 -0.077797306 -0.10635878)
(119.99885 -0.07476299 -0.10982717)
(119.98398 -0.068378924 -0.12703722)
(120.00662 -0.066967132 -0.12565905)
(120.00405 -0.065762631 -0.14750891)
(119.97527 -0.066046642 -0.15095607)
(119.9606 -0.095141798 -0.18551007)
(119.97139 -0.095958476 -0.15136951)
(120.004 -0.092555217 -0.15110833)
(119.99976 -0.09198779 -0.17986236)
(120.04085 -0.085377396 -0.16349526)
(120.03353 -0.059594678 -0.13348487)
(120.03597 -0.036285186 -0.080176976)
(120.0297 -0.01383732 -0.034898751)
(120.03377 -0.010386281 -0.048327428)
(120.03793 -0.028583243 -0.09932205)
(119.98918 -0.033695135 -0.11920383)
(119.98217 -0.013866027 -0.13488739)
(119.93034 -0.011254257 -0.12803307)
(119.86556 -0.020811924 -0.21503999)
(119.90046 -0.061708766 -0.19875776)
(119.96494 -0.058501835 -0.16862537)
(119.99698 -0.059483687 -0.16862756)
(119.98986 -0.047883478 -0.19231494)
(119.95239 -0.04434705 -0.19167402)
(119.92271 -0.069436285 -0.24777698)
(119.94298 -0.087584199 -0.21431865)
(119.98611 -0.087399741 -0.21507146)
(119.97397 -0.072556904 -0.24793981)
(119.95493 -0.04914652 -0.27419413)
(119.98109 -0.031764871 -0.20761103)
(119.94144 -0.028762808 -0.20065206)
(119.93463 -0.01003829 -0.21088235)
(119.9766 -0.011356798 -0.21853925)
(119.94698 -0.017584645 -0.28894843)
(119.8883 -0.016929834 -0.27634085)
(119.90011 -0.045070283 -0.26195498)
(119.81933 -0.064333728 -0.33136394)
(119.86306 -0.097282502 -0.31263091)
(119.89955 -0.12086541 -0.26220687)
(119.92832 -0.13061978 -0.22248897)
(119.95023 -0.12338001 -0.17388802)
(119.98458 -0.12378447 -0.13500882)
(119.99941 -0.10343183 -0.086322481)
(120.00093 -0.0741801 -0.055543596)
(119.99868 -0.049280712 -0.030277531)
(119.96584 -0.045861766 -0.03085588)
(119.94559 -0.033795793 -0.024830096)
(119.88244 -0.060593573 -0.04501009)
(119.91348 -0.083819521 -0.061419937)
(119.85954 -0.13508861 -0.037007953)
(119.95274 -0.062008027 -0.021118654)
(119.9285 -0.043370437 -0.016385753)
(119.82415 -0.096831639 -0.025135489)
(119.61552 -0.13057982 -0.066503336)
(119.72198 -0.085464082 -0.085067717)
(119.8142 -0.063844599 -0.071081127)
(119.82796 -0.082178041 -0.08997006)
(119.73232 -0.095190962 -0.10812623)
(119.71767 -0.073736417 -0.08956891)
(119.54868 -0.12250618 -0.13148777)
(119.57166 -0.13975149 -0.15099113)
(119.73686 -0.10264878 -0.10730218)
(119.76395 -0.12343382 -0.12165373)
(119.84824 -0.090907572 -0.099378564)
(119.87424 -0.11287419 -0.12224246)
(119.79109 -0.13762741 -0.1677192)
(119.75974 -0.10878839 -0.12994867)
(119.5941 -0.1751857 -0.18773748)
(119.63295 -0.22000018 -0.23184038)
(119.79514 -0.15993627 -0.15064577)
(119.70509 -0.24473889 -0.12199981)
(119.66837 -0.18708283 -0.095088754)
(119.63525 -0.15446382 -0.083746829)
(119.28689 -0.28366356 -0.1225758)
(119.25239 -0.24079009 -0.11090933)
(118.91193 -0.25410619 -0.055330725)
(119.51113 -0.11778021 -0.027079235)
(119.52799 -0.12949943 -0.034905126)
(118.93632 -0.28791171 -0.066300486)
(118.9382 -0.36970641 -0.093745398)
(119.31976 -0.35767083 -0.14408581)
(119.38156 -0.43895728 -0.19573597)
(118.95179 -0.48606802 -0.15056931)
(119.59202 -0.23137142 -0.060012)
(119.56254 -0.15486406 -0.041825989)
(119.5523 -0.18064951 0.0074222745)
(119.85725 -0.15827131 0.013896413)
(119.9537 -0.070893834 0.0026829695)
(119.98729 -0.027066888 0.0017307745)
(119.69096 -0.11476085 0.12073304)
(119.50903 -0.18073951 0.16408189)
(119.20842 -0.31587528 0.12735158)
(118.88852 -0.29756897 0.022198279)
(119.5012 -0.13721761 0.001085061)
(119.81931 -0.11769993 0.0055344516)
(119.92793 -0.052337044 -0.00055237964)
(119.94537 -0.049304927 0.019807799)
(119.96769 -0.061194541 0.025522218)
(119.91179 -0.11443313 0.064837421)
(119.87698 -0.089977703 0.049523215)
(119.70058 -0.12989233 0.10035853)
(119.5952 -0.17688445 0.066359247)
(119.615 -0.20595765 0.084612153)
(119.51789 -0.15204754 0.0036918639)
(118.91028 -0.34123699 0.028597207)
(119.24175 -0.36586494 0.14231998)
(119.27348 -0.44706734 0.17287028)
(118.90829 -0.4326893 0.049482278)
(118.91795 -0.56339702 0.098774503)
(119.58178 -0.26486748 0.019633198)
(119.68566 -0.30573826 0.12522985)
(119.64929 -0.24149416 0.096427789)
(119.7461 -0.17428785 0.13874466)
(119.71614 -0.15107067 0.12398823)
(119.5313 -0.20373294 0.18493844)
(119.70608 -0.13927295 0.14171113)
(119.87229 -0.058790869 0.085145274)
(119.7994 -0.10005148 0.090998217)
(119.81479 -0.12058393 0.11192104)
(119.8375 -0.12933372 0.12142285)
(119.90884 -0.073962356 0.10930115)
(119.86579 -0.15332668 0.14589555)
(119.77937 -0.21582731 0.17014147)
(119.59318 -0.29283301 0.27347248)
(119.33174 -0.53785947 0.23362145)
(118.48264 -0.61567962 0.58654328)
(116.22948 -0.51196006 0.67190691)
(116.31444 -0.430399 -0.7981443)
(118.60878 -0.47149333 -0.4959356)
(119.35629 -0.18914838 -0.44956487)
(119.68985 -0.10776024 -0.24816365)
(119.65422 -0.080175138 -0.18783136)
(119.53702 -0.013619809 -0.1409404)
(119.56241 -0.029467491 -0.21952233)
(118.86432 -0.10363492 -0.46883332)
(118.86189 -0.050032652 -0.34322184)
(119.29729 -0.13638797 -0.36199118)
(118.44692 -0.38453691 -0.40452669)
(116.18279 -0.45704649 -0.23601234)
(116.03684 -0.65965416 -0.41227373)
(103.47233 -1.6005664 -1.4814429)
(105.17993 -1.172405 -1.0664333)
(116.40204 -0.27850779 -0.58843183)
(116.32507 -0.35999084 0.47595302)
(105.46433 -1.4591205 1.2428996)
(103.74516 -1.979143 1.6544029)
(115.73558 -0.91378537 0.3969842)
(115.93233 -0.70165256 0.26459645)
(118.33417 -0.51660383 0.47831156)
(119.22199 -0.1858815 0.42862584)
(119.55344 -0.2446271 0.22457902)
(119.73591 -0.15298627 0.16528993)
(119.76859 -0.1836499 0.20663428)
(119.65091 -0.14107851 0.30284448)
(119.27905 -0.24040466 0.51776234)
(118.73121 -0.16472357 0.54578313)
(118.74961 -0.10618128 0.42404352)
(119.48615 -0.042716444 0.18303424)
(119.84168 -0.034987117 0.16238991)
(119.61567 -0.11398722 0.23790968)
(119.508 -0.058725186 0.26588516)
(119.61084 -0.075460568 0.36299986)
(118.80275 -0.25474419 0.70876133)
(115.55465 -1.1549999 0.82827753)
(101.54899 -2.7538525 2.2266271)
(101.27974 -2.2052952 -2.1056947)
(115.93873 -0.92766042 -0.80454165)
(118.94879 -0.18675507 -0.63405026)
(119.66315 -0.047436228 -0.30675736)
(119.77835 -0.12537238 -0.29251943)
(119.8626 -0.14789801 -0.19541449)
(119.92328 -0.11681022 -0.12706699)
(119.95457 -0.099841255 -0.088400573)
(119.97151 -0.071973459 -0.053304133)
(119.95937 -0.10008084 -0.05604574)
(119.9991 -0.097377669 -0.058410458)
(119.98523 -0.12312809 -0.082634878)
(119.93632 -0.14604958 -0.098168068)
(119.97254 -0.14519015 -0.11070628)
(120.00479 -0.1450611 -0.10826428)
(120.00777 -0.12207102 -0.081880662)
(120.00549 -0.14589798 -0.082547969)
(119.97696 -0.14893555 -0.082137358)
(119.96265 -0.18074311 -0.11211302)
(120.00105 -0.17534127 -0.11001219)
(120.04173 -0.1595977 -0.10469022)
(120.03945 -0.13232808 -0.099965471)
(120.04555 -0.084148065 -0.071593435)
(120.03003 -0.060277358 -0.045125988)
(120.03196 -0.035552207 -0.020900583)
(120.04767 -0.036892813 -0.02853261)
(120.07469 -0.049110609 -0.045670972)
(120.07379 -0.072110851 -0.052822118)
(120.06368 -0.052007043 -0.033393153)
(120.0381 -0.080639868 -0.049494039)
(120.03238 -0.11056959 -0.074580832)
(120.05695 -0.092958835 -0.064881661)
(120.0743 -0.11214984 -0.08741498)
(120.08324 -0.13624052 -0.093132296)
(120.06442 -0.11303748 -0.068712508)
(120.03499 -0.13258012 -0.07680139)
(120.03361 -0.15607326 -0.074473266)
(120.04101 -0.10528885 -0.044024688)
(120.03847 -0.054939901 -0.018653047)
(119.9939 -0.071873975 -0.021907407)
(119.94521 -0.12086995 -0.044083695)
(119.99175 -0.12434005 -0.049257536)
(119.9677 -0.16951649 -0.076101925)
(119.90505 -0.20004881 -0.07921385)
(119.94664 -0.21257443 -0.10649912)
(119.98861 -0.21386273 -0.10780214)
(119.99925 -0.17018326 -0.07802346)
(119.99297 -0.19844614 -0.068093219)
(119.95617 -0.19702362 -0.06369663)
(119.92846 -0.25003295 -0.090958649)
(119.97786 -0.25084205 -0.095439722)
(119.96064 -0.28484707 -0.073762554)
(119.98547 -0.21951264 -0.052676092)
(119.98618 -0.14869408 -0.029964423)
(119.93365 -0.1406318 -0.026929601)
(119.87316 -0.22887699 -0.043079274)
(119.94646 -0.21141811 -0.048953862)
(119.90778 -0.27170894 -0.068331463)
(119.89689 -0.29663024 -0.040912898)
(119.94026 -0.23030094 -0.029560175)
(119.98191 -0.23905833 -0.031484627)
(119.95368 -0.30982664 -0.042800522)
(120.01775 -0.30236972 -0.04403041)
(120.02304 -0.27550355 -0.076407706)
(120.03209 -0.23804799 -0.096253177)
(120.03836 -0.19938024 -0.10592189)
(120.0891 -0.17237559 -0.09608146)
(120.06806 -0.13442412 -0.067149868)
(120.07193 -0.16138998 -0.061948432)
(120.03161 -0.18407982 -0.066105154)
(120.02837 -0.20619351 -0.052272829)
(120.04403 -0.12978897 -0.028409444)
(120.086 -0.086925489 -0.022879892)
(120.0747 -0.068046637 -0.029921224)
(120.09386 -0.10285246 -0.055189386)
(120.08607 -0.086168844 -0.055979674)
(120.09811 -0.051228469 -0.039572388)
(120.0828 -0.042083168 -0.035344525)
(120.11188 -0.047759609 -0.045596695)
(120.09905 -0.084313733 -0.069245831)
(120.11514 -0.10076185 -0.073235178)
(120.13279 -0.059558785 -0.050325512)
(120.15393 -0.076517689 -0.054331344)
(120.10909 -0.061542358 -0.038998782)
(120.12268 -0.076467941 -0.039883393)
(120.10314 -0.12493471 -0.053008368)
(120.14172 -0.15986657 -0.076799766)
(120.12991 -0.12883286 -0.078348313)
(120.13973 -0.15966683 -0.10578079)
(120.13288 -0.14078724 -0.10269791)
(120.12169 -0.12433828 -0.098474739)
(120.12175 -0.096179872 -0.086784185)
(120.10902 -0.054113137 -0.06612364)
(120.07347 -0.034418379 -0.054673872)
(120.0459 -0.019374184 -0.039274051)
(120.02882 -0.035273399 -0.062993804)
(120.04491 -0.060038597 -0.090197692)
(120.03122 -0.059553387 -0.11378317)
(120.05539 -0.049490331 -0.095606369)
(120.06257 -0.050930558 -0.11303891)
(120.0823 -0.072594576 -0.13916478)
(120.07349 -0.070308116 -0.11734294)
(120.03883 -0.083711757 -0.13808143)
(120.04109 -0.11330357 -0.16604077)
(120.05958 -0.10394073 -0.11589674)
(120.08753 -0.095044905 -0.13974971)
(120.0788 -0.10213114 -0.16935252)
(120.05551 -0.11059202 -0.18338713)
(120.03046 -0.11556935 -0.19256255)
(119.98207 -0.13438143 -0.22482809)
(119.9935 -0.12476919 -0.17690895)
(119.9795 -0.17530638 -0.21828904)
(119.92001 -0.17540928 -0.20944713)
(119.88754 -0.18811612 -0.27448473)
(119.96059 -0.19044123 -0.27890595)
(119.90746 -0.2735387 -0.33956858)
(119.94997 -0.23277223 -0.24812628)
(119.98026 -0.20596681 -0.19109102)
(119.99436 -0.16800239 -0.1406471)
(119.95159 -0.16524738 -0.13817021)
(119.86572 -0.18673867 -0.16227083)
(119.92123 -0.19786354 -0.18957359)
(119.89161 -0.26340297 -0.20457731)
(119.93138 -0.21488409 -0.14796977)
(119.98398 -0.21696391 -0.15298034)
(119.96304 -0.26718371 -0.20888711)
(119.9102 -0.32418612 -0.29172111)
(119.82242 -0.30941942 -0.26608627)
(119.87995 -0.22031475 -0.23412694)
(119.72005 -0.26774308 -0.28047757)
(119.8183 -0.24971668 -0.32295862)
(119.72801 -0.36179677 -0.3775888)
(119.84764 -0.38482481 -0.40322748)
(119.97494 -0.3320239 -0.35220269)
(119.99083 -0.28586276 -0.32989189)
(120.00671 -0.23530905 -0.29221362)
(120.01785 -0.19915944 -0.26739037)
(120.02583 -0.16213862 -0.23943483)
(120.02876 -0.13833348 -0.21786485)
(120.05989 -0.13166813 -0.20744413)
(120.06024 -0.13432281 -0.23329685)
(120.05655 -0.11146819 -0.20527298)
(120.02622 -0.11629795 -0.21574189)
(120.02511 -0.14162864 -0.24670113)
(120.01898 -0.17207406 -0.27435453)
(120.05957 -0.16679186 -0.26239155)
(120.06143 -0.15684257 -0.22870958)
(120.04339 -0.16251908 -0.20642411)
(120.1104 -0.13857562 -0.1780089)
(120.09504 -0.14533229 -0.21245153)
(120.08817 -0.12185683 -0.19101464)
(120.11638 -0.10765059 -0.17038947)
(120.10211 -0.08960742 -0.15015678)
(120.11005 -0.091506402 -0.16883083)
(120.08316 -0.10284405 -0.18976823)
(120.09179 -0.12393774 -0.21479052)
(120.12374 -0.11101461 -0.19231629)
(120.13734 -0.1383928 -0.21779789)
(120.12888 -0.12858695 -0.18899498)
(120.14478 -0.15758264 -0.21377754)
(120.10332 -0.17765644 -0.23929474)
(120.0623 -0.19095559 -0.25738246)
(120.0592 -0.20095352 -0.29610739)
(120.00965 -0.21006097 -0.31045572)
(119.99213 -0.25410475 -0.34302103)
(120.0504 -0.2484352 -0.33202423)
(120.05736 -0.22956738 -0.28328885)
(120.03604 -0.22513393 -0.24241102)
(120.04367 -0.19335614 -0.1798453)
(120.04149 -0.15705002 -0.13010953)
(120.08786 -0.13108827 -0.11317042)
(120.11041 -0.16420997 -0.15806403)
(120.0952 -0.2012594 -0.16793605)
(120.08844 -0.18223233 -0.14365231)
(120.07936 -0.16292155 -0.12304801)
(120.05626 -0.17659661 -0.13075771)
(120.0315 -0.18544947 -0.13468535)
(120.02975 -0.20866058 -0.15775907)
(120.06048 -0.19840466 -0.15240418)
(120.06105 -0.22515399 -0.15676058)
(120.05741 -0.19957589 -0.13322136)
(120.02757 -0.2096033 -0.13692785)
(120.02661 -0.23822865 -0.16268176)
(120.02076 -0.26386778 -0.19346214)
(120.02692 -0.22830138 -0.18179808)
(120.06208 -0.21753241 -0.17807584)
(120.06293 -0.24349937 -0.21263284)
(120.01903 -0.25388764 -0.21895581)
(120.01182 -0.29738276 -0.23158318)
(120.06031 -0.28292069 -0.22456424)
(120.0605 -0.25197614 -0.18988981)
(120.09918 -0.23367604 -0.17945305)
(120.09209 -0.20719021 -0.14785765)
(120.0837 -0.18467041 -0.12561925)
(120.11048 -0.16448852 -0.11548074)
(120.10269 -0.14427253 -0.11156205)
(120.1165 -0.16200468 -0.13078602)
(120.12374 -0.18533711 -0.13643157)
(120.137 -0.20821026 -0.16542697)
(120.1288 -0.17802683 -0.15286095)
(120.14448 -0.19939423 -0.18305214)
(120.10339 -0.22511102 -0.20100005)
(120.10537 -0.26238515 -0.21297268)
(120.15185 -0.2340009 -0.19650051)
(120.19378 -0.19727599 -0.17201172)
(120.17963 -0.1688656 -0.15910094)
(120.16146 -0.11659123 -0.11802352)
(120.1892 -0.055736238 -0.070521549)
(120.13999 -0.049133612 -0.055089046)
(120.14863 -0.073608986 -0.068115161)
(120.13846 -0.097758294 -0.082192217)
(120.16069 -0.10874786 -0.096394146)
(120.14021 -0.1378294 -0.11460489)
(120.15149 -0.15635329 -0.12014145)
(120.17497 -0.12549946 -0.10336289)
(120.15226 -0.11239787 -0.087712125)
(120.16497 -0.083690833 -0.071697089)
(120.17179 -0.050566875 -0.052273686)
(120.15379 -0.043412164 -0.047575272)
(120.18013 -0.045573493 -0.054664513)
(120.17362 -0.078564909 -0.077861134)
(120.19087 -0.08846717 -0.081528167)
(120.19956 -0.052947329 -0.060085801)
(120.23093 -0.052946774 -0.068097353)
(120.20557 -0.044667714 -0.06001672)
(120.19765 -0.08344971 -0.088230989)
(120.18202 -0.11742733 -0.11107327)
(120.15703 -0.15153076 -0.13304773)
(120.17142 -0.17613189 -0.14502547)
(120.20009 -0.13864626 -0.12359162)
(120.22934 -0.15387871 -0.14581279)
(120.21038 -0.13003392 -0.13181288)
(120.23045 -0.09154657 -0.10285183)
(120.24031 -0.045281741 -0.067583231)
(120.26775 -0.053165858 -0.077153784)
(120.25436 -0.10493941 -0.1112345)
(120.22018 -0.096774262 -0.095912659)
(120.24041 -0.1147767 -0.10512276)
(120.20715 -0.10420156 -0.088447788)
(120.17674 -0.095462867 -0.074749474)
(120.16189 -0.12814351 -0.0906661)
(120.18774 -0.14699707 -0.1095916)
(120.16067 -0.18220176 -0.12739815)
(120.12855 -0.21492749 -0.14219586)
(120.1147 -0.18608907 -0.11757188)
(120.08451 -0.20799223 -0.12705536)
(120.05498 -0.22409455 -0.13331192)
(120.02269 -0.23249347 -0.13611414)
(119.96081 -0.27059257 -0.15011421)
(119.90574 -0.25683075 -0.14023419)
(119.79146 -0.28757789 -0.14279886)
(119.84923 -0.31933164 -0.20499709)
(119.92146 -0.34472715 -0.21702328)
(119.87946 -0.4305741 -0.20317409)
(119.93759 -0.32807538 -0.13575054)
(119.87358 -0.31076721 -0.1198577)
(119.79172 -0.39960954 -0.18159451)
(119.64588 -0.50947825 -0.24676037)
(119.74823 -0.38737278 -0.27495653)
(119.50473 -0.50073847 -0.27849809)
(119.60478 -0.4526476 -0.41884699)
(119.72645 -0.52853982 -0.46296664)
(119.83335 -0.43317999 -0.31553159)
(119.74983 -0.56449835 -0.31355588)
(119.58885 -0.71427728 -0.49788932)
(119.42112 -0.62435989 -0.41811663)
(119.09696 -0.68358065 -0.44335164)
(119.49398 -0.56571687 -0.21122236)
(119.72032 -0.43385475 -0.14194671)
(119.83388 -0.3375691 -0.089352385)
(119.68843 -0.31682944 -0.078439885)
(119.81295 -0.37500276 -0.053326409)
(119.88717 -0.41841981 -0.058932806)
(119.90312 -0.37807292 -0.10394494)
(119.81374 -0.50750917 -0.16184352)
(119.78124 -0.57266362 -0.08809824)
(119.67728 -0.49744793 -0.082955913)
(119.38933 -0.69241734 -0.13333688)
(119.0461 -0.63928448 -0.23866255)
(118.73227 -0.94400302 -0.36266625)
(118.97008 -1.1885084 -0.35722123)
(119.27765 -0.93616988 -0.51420984)
(119.60245 -0.6933991 -0.27148479)
(119.51433 -0.81707157 -0.15506655)
(119.74779 -0.75962447 -0.16860248)
(119.78397 -0.70685685 -0.22801975)
(119.8272 -0.63331515 -0.26285304)
(119.87779 -0.57225369 -0.28593583)
(119.91602 -0.49851545 -0.29432099)
(119.94755 -0.43909103 -0.29600084)
(119.97242 -0.37615975 -0.28404526)
(119.99476 -0.32769452 -0.27594427)
(120.00796 -0.2766837 -0.25520755)
(120.0581 -0.266924 -0.25153003)
(120.05356 -0.3023336 -0.29870295)
(119.99184 -0.31189832 -0.30594479)
(119.97653 -0.36980659 -0.32994617)
(120.04585 -0.35477544 -0.32208585)
(120.0519 -0.31598365 -0.27259382)
(120.1089 -0.29506685 -0.25861102)
(120.10681 -0.24812473 -0.23676761)
(120.12736 -0.19117281 -0.2107507)
(120.10668 -0.212933 -0.26526193)
(120.1563 -0.18936545 -0.23733618)
(120.16579 -0.20852872 -0.2801621)
(120.15238 -0.16799202 -0.2470135)
(120.10515 -0.18698931 -0.27557408)
(120.099 -0.15440275 -0.24378278)
(120.09818 -0.15877646 -0.27899524)
(120.09228 -0.12734457 -0.24457665)
(120.08373 -0.10263498 -0.21105693)
(120.08797 -0.072312232 -0.17055387)
(120.06575 -0.047352112 -0.1306435)
(120.03163 -0.055332064 -0.15356372)
(120.02884 -0.045308032 -0.1767116)
(120.06888 -0.040518022 -0.15206212)
(120.09024 -0.063818671 -0.20210467)
(120.02958 -0.071522606 -0.2333078)
(120.03683 -0.083836172 -0.19934002)
(120.02058 -0.11418028 -0.2371214)
(119.95637 -0.12895192 -0.27623321)
(119.93005 -0.11180341 -0.32999986)
(119.86527 -0.17965231 -0.43935831)
(119.91438 -0.19627384 -0.35561331)
(119.83961 -0.18702781 -0.32917763)
(119.77256 -0.15987375 -0.40773485)
(119.6907 -0.11676171 -0.43254128)
(119.78827 -0.13464455 -0.50933674)
(119.89108 -0.077167995 -0.37209078)
(119.8737 -0.029243998 -0.39849588)
(119.79686 -0.025665638 -0.35547506)
(119.64185 -0.049336432 -0.48042418)
(119.75107 -0.052328083 -0.55741081)
(119.43674 -0.10753511 -0.81106033)
(119.54353 -0.24532211 -0.7072563)
(119.72239 -0.29062821 -0.58154439)
(119.82184 -0.29513341 -0.44957542)
(119.73484 -0.25743324 -0.40141505)
(119.47782 -0.26454874 -0.5149174)
(119.61377 -0.22376172 -0.52460222)
(119.37398 -0.39311543 -0.6451724)
(119.5919 -0.4025303 -0.47100935)
(119.71465 -0.44061103 -0.54983931)
(119.54917 -0.46967706 -0.73629098)
(119.16568 -0.48257317 -0.9604363)
(118.98612 -0.41896746 -0.69249257)
(119.43703 -0.18645876 -0.57286352)
(119.31344 -0.089377273 -0.68155639)
(118.52676 -0.27581699 -0.94405757)
(118.76903 -0.2684212 -1.1939877)
(119.24515 -0.3048098 -1.1465718)
(119.51961 -0.20363829 -0.94219029)
(119.69178 -0.13162918 -0.75901962)
(119.81261 -0.09504918 -0.63552785)
(119.88488 -0.066391789 -0.5228256)
(119.93507 -0.050563674 -0.44586958)
(119.96327 -0.037504007 -0.36688771)
(120.01258 -0.017677429 -0.27886968)
(120.02193 -0.010994152 -0.20439989)
(120.03893 -0.013030918 -0.11565795)
(120.07735 -0.0094682346 -0.07227361)
(120.06945 -0.015586326 -0.061417499)
(120.06017 -0.020839635 -0.050933438)
(120.07175 -0.03765608 -0.074365655)
(120.07996 -0.020630752 -0.043893022)
(120.09415 -0.022219837 -0.049787423)
(120.08342 -0.038263489 -0.0853685)
(120.11351 -0.051844552 -0.10254871)
(120.09773 -0.051934371 -0.088984877)
(120.10962 -0.028378578 -0.051853021)
(120.12956 -0.028866372 -0.060400835)
(120.14964 -0.028911247 -0.071026973)
(120.10404 -0.019611194 -0.055812511)
(120.09062 -0.035366752 -0.097976136)
(120.09883 -0.031663926 -0.11412584)
(120.11582 -0.019056441 -0.064351291)
(120.1674 -0.028030634 -0.084264792)
(120.1392 -0.048732796 -0.14928716)
(120.12798 -0.053257623 -0.12496666)
(120.1391 -0.078822938 -0.16053621)
(120.13225 -0.077843995 -0.14435407)
(120.12093 -0.07598451 -0.12979808)
(120.1211 -0.06798844 -0.10452212)
(120.13836 -0.035942511 -0.056862376)
(120.14675 -0.044664074 -0.078018154)
(120.13718 -0.058907695 -0.10259727)
(120.15107 -0.061840136 -0.11508038)
(120.1745 -0.075120133 -0.13079835)
(120.16006 -0.071211373 -0.1161659)
(120.14 -0.090566925 -0.14580517)
(120.15148 -0.09324884 -0.16247917)
(120.17199 -0.11593089 -0.18501238)
(120.15718 -0.10751309 -0.16229462)
(120.16141 -0.097101998 -0.13065176)
(120.18843 -0.04843814 -0.069749592)
(120.19694 -0.060323347 -0.093383281)
(120.17236 -0.052178671 -0.085498182)
(120.17794 -0.028672966 -0.051948006)
(120.15098 -0.02404727 -0.04726662)
(120.16846 -0.025814075 -0.051794688)
(120.16291 -0.045431975 -0.08562146)
(120.18957 -0.05231918 -0.092829893)
(120.19692 -0.030468572 -0.056596719)
(120.22905 -0.034656263 -0.059283445)
(120.2039 -0.031540123 -0.054043027)
(120.23928 -0.036185483 -0.059037109)
(120.23031 -0.07244998 -0.10568164)
(120.21066 -0.10263489 -0.14435435)
(120.18181 -0.084026513 -0.12770507)
(120.20034 -0.092561863 -0.14668772)
(120.23021 -0.11203746 -0.16585944)
(120.19478 -0.14083079 -0.20987056)
(120.18013 -0.13196395 -0.1833351)
(120.19845 -0.15843009 -0.2036724)
(120.19879 -0.13341159 -0.15496209)
(120.23909 -0.060866619 -0.083674655)
(120.25929 -0.082837135 -0.11572458)
(120.2351 -0.12216 -0.16017077)
(120.2621 -0.13728154 -0.18789823)
(120.21825 -0.17475521 -0.23864052)
(120.24453 -0.2107222 -0.27152255)
(120.22459 -0.19194072 -0.23298544)
(120.17178 -0.23001225 -0.27215706)
(120.11176 -0.25687102 -0.30094902)
(120.05287 -0.27629135 -0.32168395)
(120.04418 -0.29708159 -0.37411319)
(119.97376 -0.30763321 -0.38802597)
(119.94851 -0.36581938 -0.42168525)
(120.02763 -0.36021198 -0.4136678)
(120.04354 -0.32449666 -0.34691259)
(120.02896 -0.39068736 -0.38605754)
(119.95066 -0.40094071 -0.38879312)
(119.91634 -0.44212634 -0.46651998)
(120.01032 -0.43141175 -0.45874874)
(120.10283 -0.40885696 -0.43998394)
(120.10915 -0.33923537 -0.39348403)
(120.11054 -0.27837408 -0.35175919)
(120.10845 -0.23163107 -0.31161572)
(120.10302 -0.24564626 -0.36351663)
(120.10239 -0.19744869 -0.31873708)
(120.04716 -0.2089542 -0.34081598)
(120.05156 -0.16879508 -0.29902985)
(120.05505 -0.13597247 -0.26480612)
(120.05362 -0.11007788 -0.22804627)
(120.04993 -0.10756948 -0.25465661)
(120.01211 -0.11057897 -0.2653184)
(120.0063 -0.14058746 -0.3091215)
(120.01651 -0.14175713 -0.2760937)
(120.00628 -0.17236175 -0.30807758)
(119.9914 -0.17332873 -0.34956702)
(120.04252 -0.17087516 -0.33864586)
(120.05 -0.135098 -0.29516869)
(120.09029 -0.12700526 -0.27418402)
(120.08362 -0.10061385 -0.23664576)
(120.1182 -0.091125089 -0.21178617)
(120.11417 -0.091738485 -0.18809277)
(120.12861 -0.11456334 -0.2194151)
(120.13181 -0.11550462 -0.24691535)
(120.13153 -0.1138996 -0.28024283)
(120.11901 -0.087815068 -0.23438967)
(120.08088 -0.096032492 -0.26065927)
(120.04393 -0.10137738 -0.27938813)
(120.00443 -0.10332899 -0.2878133)
(119.99227 -0.09142768 -0.31558269)
(120.0364 -0.091461762 -0.30652128)
(120.02971 -0.11876129 -0.36283147)
(120.03978 -0.12942975 -0.33077573)
(119.99384 -0.13294493 -0.34112269)
(119.97847 -0.12051378 -0.37486027)
(119.95089 -0.15256642 -0.43152631)
(119.97311 -0.16556489 -0.38769076)
(120.027 -0.16564807 -0.38176767)
(120.01044 -0.15584264 -0.42537447)
(119.98826 -0.20533163 -0.50170152)
(120.01188 -0.21338773 -0.44481928)
(120.03457 -0.21539066 -0.39016352)
(119.97171 -0.22160216 -0.4039889)
(119.99237 -0.21536761 -0.35125982)
(119.9672 -0.26088769 -0.39122233)
(120.0328 -0.25887023 -0.38519299)
(120.01312 -0.27159542 -0.44567044)
(119.93827 -0.27158462 -0.45396981)
(119.90287 -0.34491069 -0.52172343)
(119.94155 -0.32340259 -0.44497557)
(120.02005 -0.31791706 -0.43707981)
(119.99441 -0.33992908 -0.50965683)
(120.08402 -0.3271878 -0.48579227)
(120.09091 -0.25991475 -0.42352015)
(120.09467 -0.2050774 -0.36746142)
(120.09396 -0.16159614 -0.31787547)
(120.14475 -0.14754669 -0.28641844)
(120.14248 -0.14332716 -0.2501016)
(120.15709 -0.17872854 -0.2867409)
(120.15791 -0.18798826 -0.33256332)
(120.15241 -0.19295532 -0.3862984)
(120.14243 -0.14798344 -0.32799961)
(120.08539 -0.15970125 -0.36107342)
(120.08535 -0.12381335 -0.30919511)
(120.07776 -0.11446384 -0.34197136)
(120.07654 -0.08709724 -0.28774329)
(120.11872 -0.081047194 -0.26064822)
(120.12913 -0.10697173 -0.31211052)
(120.13645 -0.14306497 -0.37215237)
(120.0729 -0.15172439 -0.40597867)
(120.06094 -0.2021692 -0.48191297)
(120.08093 -0.20712069 -0.42268371)
(120.06958 -0.26837354 -0.4931904)
(119.97943 -0.27435083 -0.51384742)
(119.90064 -0.26891802 -0.512885)
(119.94585 -0.21577109 -0.45163778)
(119.91356 -0.2045176 -0.50995915)
(119.87402 -0.17975795 -0.55464583)
(119.92376 -0.13108896 -0.46549951)
(119.96052 -0.10230835 -0.40256824)
(119.98074 -0.077071355 -0.33448507)
(120.01909 -0.049892085 -0.26262709)
(120.02457 -0.030858009 -0.19293175)
(120.06886 -0.027740297 -0.1677495)
(120.06891 -0.010586991 -0.1793945)
(120.08579 -0.016441237 -0.24854443)
(120.08806 -0.045758733 -0.23150779)
(120.14554 -0.036186002 -0.1738391)
(120.10246 -0.021646587 -0.12686624)
(120.12219 -0.013017883 -0.071781279)
(120.12679 -0.007215263 -0.078515468)
(120.1052 -0.0094237356 -0.13670273)
(120.14788 -0.013596733 -0.18914616)
(120.1862 -0.0094585282 -0.11019818)
(120.18003 -0.021840718 -0.099480631)
(120.21451 -0.041150104 -0.1489319)
(120.20858 -0.046498472 -0.13440074)
(120.1979 -0.047141867 -0.11818378)
(120.1885 -0.047979787 -0.10612064)
(120.17445 -0.045972294 -0.094028843)
(120.16063 -0.062485908 -0.12776918)
(120.17189 -0.063710207 -0.14452882)
(120.14694 -0.079314971 -0.18123658)
(120.16847 -0.099872341 -0.20939573)
(120.16085 -0.097917747 -0.18530833)
(120.18753 -0.078346206 -0.14872381)
(120.19963 -0.080917865 -0.16840714)
(120.2214 -0.058621128 -0.11814158)
(120.20583 -0.055871263 -0.10446415)
(120.2152 -0.031806959 -0.061781226)
(120.18143 -0.025967829 -0.055680549)
(120.19724 -0.028147482 -0.062199945)
(120.23317 -0.034595068 -0.069341936)
(120.24935 -0.037056359 -0.080022312)
(120.20845 -0.02841277 -0.069137272)
(120.22134 -0.029432834 -0.079670744)
(120.26404 -0.038914841 -0.09354796)
(120.24636 -0.06046377 -0.1562979)
(120.23487 -0.060739063 -0.13622227)
(120.20914 -0.08196907 -0.19320824)
(120.17896 -0.062468425 -0.16096325)
(120.15073 -0.076913078 -0.20121824)
(120.15444 -0.072075845 -0.22519687)
(120.18647 -0.059695371 -0.18159063)
(120.21654 -0.079718026 -0.2189908)
(120.17559 -0.095247629 -0.26875185)
(120.17327 -0.099956049 -0.23913279)
(120.19621 -0.13034814 -0.28210932)
(120.19152 -0.12779643 -0.24446706)
(120.1831 -0.12238022 -0.21250037)
(120.21653 -0.097501685 -0.16820836)
(120.23093 -0.1031519 -0.19410956)
(120.26662 -0.13141739 -0.22472983)
(120.24959 -0.121179 -0.19212516)
(120.20743 -0.15269998 -0.243933)
(120.21637 -0.16319777 -0.28442732)
(120.22036 -0.17070299 -0.33350739)
(120.27977 -0.14042065 -0.26594849)
(120.24221 -0.10711888 -0.22563875)
(120.24994 -0.10786565 -0.26179558)
(120.19695 -0.1284246 -0.32347486)
(120.21816 -0.17400587 -0.38936662)
(120.14114 -0.19224671 -0.44527194)
(120.12242 -0.17805468 -0.51083066)
(120.12586 -0.1289211 -0.41886176)
(120.12357 -0.094717998 -0.3471382)
(120.11627 -0.070404326 -0.28321475)
(120.07079 -0.07502312 -0.31061074)
(120.02711 -0.077665993 -0.32912517)
(120.01903 -0.059405984 -0.35038347)
(119.9695 -0.05851325 -0.35562723)
(119.94562 -0.079506524 -0.42887877)
(120.00323 -0.079433925 -0.42239291)
(120.01424 -0.10208846 -0.39657303)
(120.06789 -0.10016614 -0.37686642)
(120.05825 -0.077881292 -0.40437105)
(120.06483 -0.057180151 -0.33245712)
(120.11324 -0.054346808 -0.30528303)
(120.11774 -0.074419294 -0.3749936)
(120.11179 -0.048351558 -0.39862722)
(120.11049 -0.035105154 -0.31975446)
(120.06036 -0.036907102 -0.34655043)
(120.01305 -0.037805961 -0.36392264)
(120.00962 -0.012156397 -0.37091934)
(119.95873 -0.012059647 -0.37369585)
(119.92905 -0.016698387 -0.45454128)
(119.98794 -0.01647353 -0.45201566)
(119.99261 -0.050600964 -0.44341321)
(120.05011 -0.05032047 -0.42689632)
(120.04584 -0.015707312 -0.43628091)
(120.05762 -0.011394954 -0.35390122)
(120.10871 -0.010822161 -0.32736102)
(120.10878 -0.014756262 -0.40832307)
(120.09783 -0.021255106 -0.50779522)
(120.10327 -0.068381927 -0.49334453)