/*--------------------------------*- C++ -*----------------------------------*\
  =========                 |
  \\      /  F ield         | OpenFOAM: The Open Source CFD Toolbox
   \\    /   O peration     | Website:  https://openfoam.org
    \\  /    A nd           | Version:  7
     \\/     M anipulation  |
\*---------------------------------------------------------------------------*/
FoamFile
{
    version     2.0;
    format      ascii;
    class       volScalarField;
    location    "60";
    object      T;
}
// * * * * * * * * * * * * * * * * * * * * * * * * * * * * * * * * * * * * * //

dimensions      [0 0 0 1 0 0 0];

internalField   nonuniform List<scalar> 
25201
(
299.99632
299.99685
299.99634
299.9969
300.00001
299.99915
299.99785
299.99741
299.99998
300.00274
299.99997
299.99914
299.99963
299.989
299.98746
299.99576
299.99411
299.99248
299.99079
299.98627
299.98934
299.99154
299.9927
299.99039
299.98781
299.98468
299.98857
299.99286
299.99177
299.98545
299.98647
299.98805
299.98055
299.98221
299.98427
299.98745
299.99058
299.98951
299.98601
299.98486
299.9888
299.98832
299.9847
299.97961
299.98424
299.98838
299.99103
299.99575
299.99977
299.99969
300.00171
300.00313
300.00258
300.00239
300.0023
300.00079
299.99811
299.99704
300.00036
299.99872
299.99681
299.9961
299.99971
300.002
300.00442
300.00408
300.00468
300.00439
300.00172
300.0014
299.99799
299.99558
299.99636
300.00022
300.00006
299.99761
299.99478
299.99498
299.99194
299.99276
299.99351
299.99446
299.99254
299.99507
299.99408
299.99596
299.99165
299.98897
299.98632
299.988
299.98813
299.98923
299.98702
299.98511
299.9836
299.98485
299.98342
299.98204
299.9792
299.98064
299.98243
299.98099
299.98289
299.98404
299.98602
299.98478
299.98281
299.98429
299.98422
299.9794
299.97772
299.97984
299.97793
299.97568
299.97158
299.97379
299.97666
299.9745
299.97738
299.98026
299.98182
299.97904
299.98194
299.98027
299.97771
299.97986
299.98043
299.98424
299.98803
299.98599
299.98478
299.98408
299.98814
299.9886
299.98947
299.99046
299.99162
299.99253
299.99608
299.99808
300.00076
299.99969
299.99868
299.99677
299.99698
300.00031
300.00235
300.00228
300.00169
300.00407
300.00441
300.00199
300.00169
300.00438
300.00466
300.00515
300.00308
299.99967
299.99625
300.00014
299.9979
299.9955
299.9959
299.99347
299.99444
299.9927
299.99183
299.99485
299.99246
299.99328
299.99403
299.99504
299.99389
299.99388
299.9983
299.99601
299.99393
299.99075
299.988
299.99186
299.99017
299.98854
299.98612
299.98487
299.98741
299.98543
299.98666
299.98412
299.98293
299.98079
299.98233
299.98544
299.988
299.99075
299.98921
299.98816
299.98641
299.97748
299.97914
299.98193
299.98415
299.98605
299.98482
299.98705
299.98522
299.983
299.98037
299.98285
299.98432
299.98197
299.9803
299.97772
299.97987
299.9766
299.97377
299.97449
299.99691
299.99636
299.99698
299.9929
299.99178
299.98471
299.98223
299.98649
299.98546
299.98882
299.98833
299.98425
299.97961
299.98055
299.98489
299.98605
299.98955
299.99063
299.98808
299.98429
299.9875
299.98904
299.99161
299.99418
300.07014
300.08362
300.08163
300.0767
300.04273
299.99313
299.9673
299.96069
299.9518
299.93969
300.0039
300.00248
300.00324
300.00453
300.00951
300.00327
299.9997
299.99899
299.99874
299.99879
300.00278
300.00191
300.0017
300.00205
300.00407
300.00227
300.00025
299.9999
299.99999
300.00048
300.00063
300.0001
299.99996
300.0002
300.00162
300.00068
299.99942
299.99921
299.9993
299.9997
299.99924
299.99889
299.99881
299.99899
300.00002
299.99941
299.99853
299.99838
299.99845
299.99873
299.9983
299.99806
299.99801
299.99814
299.99892
299.99853
299.99787
299.99775
299.9978
299.998
299.99773
299.99757
299.99754
299.99764
299.99823
299.99805
299.99753
299.99744
299.99748
299.99762
299.99758
299.99744
299.99742
299.99749
299.99797
299.99801
299.99758
299.99752
299.99755
299.99768
299.99784
299.99772
299.99769
299.99775
299.99817
299.99846
299.99804
299.99797
299.998
299.99812
299.99853
299.9984
299.99838
299.99845
299.99891
299.99955
299.99905
299.99898
299.99901
299.99915
299.99998
299.9998
299.99977
299.99985
300.0004
300.00152
300.00093
300.00084
300.0009
300.00112
300.00249
300.00222
300.00215
300.00225
300.00295
300.00471
300.00385
300.00373
300.0038
300.0041
300.00616
300.00577
300.00569
300.00584
300.00688
300.00952
300.00834
300.00818
300.00831
300.00882
300.01196
300.01134
300.01118
300.01136
300.01269
300.01643
300.01488
300.01467
300.01485
300.0155
300.01953
300.01888
300.01873
300.01902
300.02092
300.02648
300.02438
300.02404
300.02422
300.02512
300.03288
300.0313
300.03082
300.03108
300.0332
300.0409
300.03849
300.03821
300.03877
300.04052
300.04068
300.03897
300.03885
300.03966
300.04176
300.03362
300.03181
300.03118
300.03133
300.03294
300.02625
300.02424
300.02392
300.02409
300.02502
300.01854
300.01819
300.0182
300.01856
300.02075
300.01631
300.01461
300.01438
300.01449
300.01491
300.01197
300.01138
300.01121
300.01136
300.01261
300.00946
300.0084
300.00827
300.00843
300.00897
300.00632
300.00587
300.00574
300.00585
300.00684
300.00468
300.00384
300.00374
300.00383
300.00417
300.00266
300.00231
300.0022
300.00227
300.00292
300.00151
300.00097
300.0009
300.00098
300.00123
300.00013
299.99991
299.99985
299.99991
300.0004
299.99955
299.9991
299.99904
299.99907
299.99921
299.99869
299.99853
299.99848
299.99853
299.99891
299.99845
299.99812
299.99807
299.99811
299.99823
299.99803
299.99786
299.9978
299.99783
299.99814
299.99798
299.99761
299.99755
299.99759
299.99772
299.99764
299.99747
299.99742
299.99747
299.99791
299.99796
299.99744
299.99736
299.99739
299.99754
299.99768
299.99748
299.99743
299.99751
299.9981
299.99834
299.99768
299.99758
299.99762
299.99782
299.99814
299.99788
299.9978
299.99792
299.99866
299.99907
299.99821
299.99807
299.99815
299.99843
299.99891
299.99853
299.99841
299.99856
299.99954
300.00003
299.99882
299.99863
299.99875
299.99916
299.99989
299.99931
299.99913
299.99934
300.0007
300.00103
299.99899
299.99868
299.99882
299.99938
300.00078
299.99997
299.99975
300.00006
300.00217
300.00097
299.99718
299.99656
299.99651
299.99709
299.99889
299.9985
299.99898
299.9999
300.00434
299.99316
299.98491
299.98299
299.98098
299.97889
299.95381
299.94307
299.9462
299.95392
300.02021
299.99254
299.56129
299.50181
299.44636
299.3887
299.97318
299.96386
299.96772
299.976
300.04973
300.01117
300.00493
300.0032
300.00145
299.99976
300.00867
300.00873
300.00936
300.0104
300.01509
300.00782
300.00411
300.00346
300.00341
300.00392
300.00474
300.00407
300.00391
300.0043
300.00668
300.0041
300.00193
300.00159
300.00172
300.00223
300.0015
300.00101
300.00087
300.00113
300.00272
300.00146
300.00009
299.99987
299.99997
300.00035
299.99954
299.99921
299.99913
299.99932
300.00046
299.99971
299.99873
299.99858
299.99864
299.9989
299.99831
299.99809
299.99805
299.99818
299.99905
299.99861
299.99786
299.99774
299.99777
299.99795
299.99759
299.99744
299.99742
299.99752
299.99822
299.99801
299.99741
299.99732
299.99734
299.99747
299.99734
299.99722
299.99721
299.99729
299.99787
299.9979
299.9974
299.99733
299.99735
299.99746
299.99761
299.9975
299.99748
299.99754
299.99802
299.99832
299.99789
299.99784
299.99787
299.99799
299.99842
299.99828
299.99825
299.99831
299.99875
299.9994
299.99896
299.99891
299.99895
299.99911
299.99995
299.99975
299.99969
299.99975
300.00025
300.00138
300.00085
300.00079
300.00088
300.00116
300.00247
300.00213
300.00202
300.0021
300.00279
300.00453
300.00367
300.00357
300.00368
300.00404
300.00603
300.0056
300.00549
300.00561
300.00666
300.00928
300.00819
300.00806
300.00822
300.00879
300.01184
300.01121
300.01102
300.01116
300.01239
300.01604
300.01458
300.01439
300.01456
300.01508
300.01868
300.01826
300.01823
300.01853
300.02037
300.02575
300.02405
300.02377
300.02398
300.02493
300.03272
300.03103
300.03044
300.03059
300.0322
300.03962
300.03759
300.03743
300.03815
300.04003
300.04865
300.04659
300.04585
300.04606
300.04801
300.04821
300.04626
300.0456
300.04587
300.04805
300.03963
300.03743
300.03718
300.03778
300.03951
300.03191
300.03052
300.03009
300.03034
300.03223
300.02582
300.02417
300.02393
300.02421
300.02526
300.01921
300.01857
300.01845
300.01873
300.02039
300.01601
300.01447
300.01426
300.01442
300.01504
300.01151
300.0109
300.01074
300.01094
300.01235
300.00925
300.00793
300.00774
300.00784
300.00831
300.00573
300.00536
300.00529
300.00546
300.00664
300.00452
300.00356
300.00342
300.00348
300.00376
300.00232
300.00203
300.00195
300.00205
300.00279
300.0014
300.00083
300.00076
300.00082
300.00106
300
299.99979
299.99973
299.99979
300.00027
299.99943
299.99898
299.99892
299.99895
299.9991
299.99848
299.99832
299.99828
299.99834
299.99877
299.99834
299.99789
299.99781
299.99783
299.99793
299.99763
299.99751
299.99748
299.99756
299.99803
299.99792
299.9974
299.99731
299.99732
299.99741
299.99739
299.99726
299.99724
299.99733
299.99788
299.99803
299.99743
299.99732
299.99733
299.99744
299.99766
299.9975
299.99747
299.99757
299.99823
299.99864
299.99791
299.99778
299.99781
299.99798
299.99842
299.99819
299.99813
299.99827
299.99909
299.99978
299.99883
299.99867
299.99872
299.99898
299.99973
299.99938
299.99929
299.99947
300.00055
300.0016
300.00027
300.00004
300.00012
300.00051
300.00175
300.00123
300.0011
300.00137
300.00294
300.00451
300.00236
300.00199
300.00208
300.00259
300.00573
300.00497
300.00479
300.00517
300.00738
300.00935
300.00637
300.00583
300.00594
300.00637
300.02029
300.01933
300.01851
300.0185
300.01874
300.01971
300.02796
300.03009
300.03421
300.04018
300.04805
300.03617
300.03792
300.04107
300.05028
300.0436
300.1468
300.15955
300.16644
300.15671
299.93674
299.95042
299.95989
299.96664
299.99172
300.01256
300.00749
300.00615
300.00549
300.00732
299.99968
299.99984
300.00017
300.00097
300.00497
300.00556
300.00339
300.00304
300.00326
300.00418
300.00119
300.00076
300.0007
300.00107
300.00322
300.00231
300.0008
300.00055
300.00068
300.00119
300.00008
299.9997
299.99962
299.99985
300.00116
300.00035
299.99929
299.9991
299.99919
299.99952
299.99885
299.99858
299.99852
299.99868
299.99962
299.99905
299.99826
299.99812
299.99817
299.99839
299.99795
299.99778
299.99775
299.99787
299.99859
299.99824
299.99759
299.99748
299.9975
299.99763
299.99744
299.99732
299.99731
299.99741
299.998
299.99789
299.99733
299.99724
299.99725
299.99735
299.99736
299.99726
299.99726
299.99735
299.99789
299.99803
299.99751
299.99743
299.99743
299.99752
299.99779
299.99769
299.99769
299.99777
299.9983
299.99875
299.99821
299.99813
299.99814
299.99824
299.99885
299.99872
299.99871
299.9988
299.99939
300.00024
299.9996
299.9995
299.99952
299.99968
300.00075
300.00055
300.00052
300.00063
300.00135
300.00276
300.00198
300.00187
300.00192
300.00217
300.00394
300.00361
300.00353
300.00365
300.00452
300.00669
300.00575
300.00563
300.00575
300.00618
300.00894
300.00837
300.0082
300.00833
300.00933
300.01249
300.01145
300.01133
300.01156
300.01229
300.01609
300.01526
300.01499
300.01513
300.01626
300.02074
300.01934
300.01916
300.01944
300.02032
300.02514
300.02418
300.02391
300.02418
300.02606
300.03233
300.02994
300.02961
300.02993
300.03111
300.03878
300.03721
300.03676
300.03712
300.03971
300.04828
300.04592
300.04563
300.0463
300.04833
300.04852
300.04654
300.04586
300.04613
300.04829
300.03981
300.03764
300.0374
300.03801
300.03976
300.03205
300.03064
300.03021
300.03046
300.03235
300.02589
300.02422
300.02398
300.02425
300.02528
300.01916
300.01856
300.01845
300.01874
300.02045
300.01605
300.01447
300.01425
300.01439
300.01497
300.01147
300.01089
300.01075
300.01095
300.01239
300.00929
300.00796
300.00777
300.00786
300.00833
300.00574
300.00538
300.00531
300.00548
300.00667
300.00455
300.0036
300.00346
300.00352
300.00381
300.00239
300.00209
300.00201
300.0021
300.00282
300.00144
300.0009
300.00083
300.0009
300.00116
300.00011
299.99988
299.99981
299.99987
300.0003
299.99945
299.99905
299.99899
299.99903
299.99919
299.99855
299.99839
299.99834
299.9984
299.9988
299.99836
299.99793
299.99786
299.99788
299.99799
299.99767
299.99754
299.99752
299.99759
299.99805
299.99793
299.99742
299.99733
299.99733
299.99742
299.99742
299.99729
299.99727
299.99735
299.99789
299.99803
299.99744
299.99733
299.99734
299.99746
299.99767
299.9975
299.99747
299.99758
299.99823
299.99862
299.9979
299.99777
299.9978
299.99797
299.99842
299.99818
299.99812
299.99826
299.99907
299.99974
299.99881
299.99864
299.9987
299.99897
299.99971
299.99935
299.99926
299.99944
300.0005
300.00153
300.00024
300.00001
300.00011
300.00051
300.0018
300.00125
300.0011
300.00135
300.00286
300.00437
300.00227
300.00191
300.00203
300.00257
300.00601
300.00511
300.00485
300.00518
300.00723
300.00903
300.00582
300.00525
300.00534
300.00574
300.02091
300.01977
300.0189
300.01883
300.01865
300.01819
300.02333
300.02495
300.02865
300.03396
300.06129
300.04993
300.05008
300.05122
300.05235
300.0563
300.06597
300.06746
300.06981
300.07675
299.98711
299.99167
299.99453
299.99714
300.00761
300.01536
300.01464
300.01434
300.01466
300.01609
300.00272
300.00251
300.00263
300.0033
300.00705
300.00625
300.00428
300.00397
300.00422
300.00501
300.00187
300.00136
300.00124
300.00158
300.00367
300.00247
300.001
300.00077
300.00091
300.00142
300.00016
299.99977
299.99967
299.99988
300.00121
300.00034
299.99927
299.9991
299.9992
299.99954
299.99882
299.99854
299.99848
299.99863
299.99959
299.99902
299.99819
299.99806
299.99812
299.99835
299.99793
299.99774
299.9977
299.99782
299.99856
299.99823
299.99758
299.99748
299.99751
299.99767
299.9975
299.99736
299.99733
299.99742
299.99802
299.99792
299.9974
299.99732
299.99734
299.99746
299.99753
299.99741
299.99738
299.99745
299.99794
299.99809
299.99766
299.99761
299.99764
299.99776
299.99808
299.99794
299.99791
299.99796
299.99838
299.99884
299.99845
299.9984
299.99844
299.99858
299.99922
299.99906
299.99901
299.99906
299.99948
300.00034
299.99992
299.99986
299.99993
300.00014
300.00126
300.00098
300.00089
300.00095
300.00147
300.00288
300.00222
300.00215
300.00225
300.00257
300.004
300.00367
300.00358
300.00369
300.00461
300.00675
300.00566
300.00552
300.00562
300.00602
300.00866
300.00812
300.00799
300.00814
300.00936
300.01249
300.0112
300.01105
300.01122
300.01183
300.01506
300.01454
300.01439
300.01459
300.01615
300.02056
300.01875
300.01845
300.01851
300.01895
300.02531
300.02435
300.02414
300.0244
300.02601
300.0326
300.03112
300.03099
300.0316
300.0333
300.04092
300.03893
300.03819
300.03834
300.04017
300.04876
300.04677
300.04659
300.04737
300.0495
300.04938
300.04716
300.04688
300.04755
300.0496
300.04034
300.03869
300.03815
300.03843
300.04066
300.03299
300.03121
300.03102
300.03155
300.03308
300.02563
300.02462
300.02437
300.02464
300.02637
300.02085
300.01917
300.01893
300.01915
300.01993
300.01564
300.01488
300.01467
300.01487
300.01637
300.01264
300.01121
300.01102
300.01117
300.01179
300.00858
300.00808
300.00797
300.00816
300.00948
300.00685
300.00567
300.0055
300.00555
300.00589
300.00395
300.00366
300.0036
300.00374
300.00469
300.00294
300.0022
300.00209
300.00214
300.00238
300.00113
300.00089
300.00083
300.00092
300.00152
300.00039
299.99986
299.99978
299.99981
299.99997
299.99921
299.99904
299.99899
299.99906
299.99953
299.99889
299.99844
299.99837
299.99839
299.99851
299.99813
299.99798
299.99794
299.998
299.99843
299.99815
299.99769
299.99762
299.99763
299.99774
299.99762
299.99748
299.99745
299.99753
299.998
299.99798
299.99746
299.99737
299.99739
299.9975
299.99762
299.99746
299.99743
299.99752
299.99807
299.99828
299.99765
299.99754
299.99757
299.99772
299.99805
299.99783
299.99779
299.9979
299.99861
299.99905
299.99823
299.99809
299.99814
299.99836
299.99888
299.99858
299.99851
299.99866
299.9996
300.00031
299.99922
299.99903
299.99911
299.99945
300.00005
299.99964
299.99954
299.99977
300.0011
300.00225
300.0007
300.00045
300.00058
300.00111
300.00124
300.00076
300.00067
300.00103
300.0032
300.00553
300.00335
300.003
300.00325
300.00421
299.99993
300.00005
300.00037
300.00116
300.00527
300.01291
300.00896
300.00809
300.0079
300.01013
299.93984
299.95266
299.96186
299.96868
299.99461
300.04441
300.13862
300.15022
300.15597
300.14545
300.08302
300.09646
300.09471
300.08998
300.05667
300.00141
299.97428
299.96762
299.95842
299.94516
300.0078
300.00698
300.00803
300.00952
300.01465
300.00666
300.00298
300.00227
300.00202
300.00201
300.00477
300.00399
300.00383
300.00423
300.00662
300.00391
300.0017
300.00132
300.00139
300.00182
300.00158
300.00102
300.00089
300.00115
300.00273
300.00147
300.00011
299.99988
299.99996
300.00034
299.99963
299.9993
299.99922
299.99941
300.00054
299.99976
299.9988
299.99864
299.99869
299.99895
299.9984
299.99818
299.99814
299.99829
299.99913
299.99866
299.99793
299.9978
299.99783
299.998
299.99767
299.99752
299.99749
299.99761
299.99828
299.99805
299.99744
299.99733
299.99734
299.99745
299.99734
299.99723
299.99723
299.99732
299.99791
299.99792
299.99738
299.9973
299.9973
299.99739
299.99755
299.99744
299.99743
299.99752
299.99804
299.99833
299.99785
299.99777
299.99779
299.9979
299.99839
299.99824
299.99822
299.99829
299.99877
299.99941
299.99894
299.99888
299.99891
299.99907
299.99991
299.99972
299.99967
299.99975
300.00027
300.0014
300.00082
300.00074
300.00079
300.00102
300.00233
300.00205
300.00199
300.00208
300.00281
300.00455
300.00364
300.00352
300.00358
300.00386
300.00587
300.00549
300.00542
300.00558
300.0067
300.00934
300.00808
300.0079
300.00802
300.00851
300.01173
300.01108
300.01092
300.01111
300.01248
300.01619
300.01472
300.01452
300.01473
300.01546
300.01964
300.01889
300.01868
300.01893
300.0206
300.02601
300.02422
300.02394
300.02417
300.02514
300.03227
300.03078
300.03028
300.03051
300.03245
300.03982
300.03731
300.03701
300.03752
300.03907
300.04832
300.04635
300.04571
300.04601
300.04834
299.99546
299.99517
299.99546
299.99516
300.0016
299.99918
299.99653
299.99461
299.9966
299.99918
300.00385
300.00265
299.9966
299.99938
300.00574
300.00586
300.00485
300.00609
300.00814
300.00936
300.00775
300.00597
300.0068
300.0072
300.00679
300.00371
300.00241
300.01019
300.00843
300.00926
300.00555
300.01106
300.00941
300.01191
300.01455
300.01729
300.01161
300.01332
300.01138
300.00987
300.00901
300.01027
300.01088
300.00747
300.00731
300.00544
300.00256
300.00253
300.00135
300.00436
300.0044
300.00118
299.99746
299.99463
299.99558
299.99994
299.99992
299.99966
299.99686
299.99634
299.99913
299.99961
300.01867
300.00395
300.00086
300.00027
300.01782
300.02452
300.01768
300.01273
300.00993
299.99988
300.00674
300.00804
300.0083
300.00935
300.01064
299.99858
299.99807
299.99795
299.99844
300.00152
300.00253
300.0006
300.00028
300.00049
300.00122
299.99917
299.99872
299.99865
299.99899
300.00103
300.00068
299.9993
299.99906
299.9992
299.99971
299.99903
299.99865
299.99855
299.99876
299.99996
299.99949
299.99855
299.99839
299.99848
299.99881
299.99832
299.99805
299.99799
299.99814
299.99898
299.9986
299.99789
299.99777
299.99782
299.99804
299.99769
299.99752
299.99748
299.9976
299.99825
299.998
299.99741
299.99731
299.99734
299.99748
299.99728
299.99717
299.99716
299.99726
299.99782
299.99775
299.99722
299.99713
299.99714
299.99723
299.99722
299.99715
299.99715
299.99724
299.99778
299.99793
299.9974
299.99731
299.99731
299.99738
299.99763
299.99756
299.99757
299.99766
299.99822
299.99867
299.99809
299.998
299.99799
299.99807
299.99865
299.99855
299.99856
299.99866
299.9993
300.00016
299.99948
299.99938
299.99938
299.99952
300.00061
300.00044
300.00042
300.00053
300.00127
300.00268
300.00192
300.00181
300.00186
300.0021
300.00394
300.00361
300.00353
300.00364
300.00445
300.00662
300.0058
300.00569
300.00583
300.00628
300.00908
300.00848
300.0083
300.0084
300.00926
300.0124
300.0115
300.0114
300.01165
300.01238
300.01608
300.01525
300.01497
300.01509
300.01614
300.02057
300.01924
300.01907
300.01936
300.02027
300.02496
300.02399
300.02371
300.02396
300.0258
300.03197
300.02962
300.02929
300.02961
300.03077
300.03822
300.03669
300.03627
300.03663
300.03924
300.04761
300.04526
300.04497
300.04561
300.04759
300.04116
300.03924
300.03857
300.03879
300.04077
300.03304
300.03102
300.03075
300.0312
300.03264
300.02537
300.02434
300.02409
300.02439
300.02635
300.02082
300.01882
300.01849
300.01854
300.01907
300.01502
300.01449
300.01437
300.01462
300.01631
300.01258
300.01121
300.01102
300.01115
300.01168
300.00867
300.00818
300.00807
300.00824
300.00942
300.0068
300.00574
300.00559
300.00565
300.006
300.00399
300.00368
300.00361
300.00373
300.00462
300.00286
300.00214
300.00204
300.00209
300.00233
300.00111
300.00087
300.0008
300.00088
300.00146
300.0004
299.99985
299.99977
299.9998
299.99997
299.99919
299.99903
299.99899
299.99906
299.99957
299.99893
299.99848
299.99841
299.99843
299.99854
299.9982
299.99806
299.99802
299.99807
299.99844
299.99814
299.9978
299.99774
299.99777
299.99789
299.99776
299.9976
299.99755
299.9976
299.99795
299.9979
299.99749
299.99742
299.99746
299.9976
299.9976
299.99743
299.99738
299.99745
299.99791
299.99805
299.9975
299.99741
299.99744
299.99761
299.99777
299.99755
299.9975
299.9976
299.99823
299.99857
299.99785
299.99773
299.99778
299.99801
299.9983
299.99799
299.99791
299.99805
299.99886
299.9993
299.99838
299.99822
299.99832
299.99868
299.9988
299.99836
299.99825
299.99844
299.99961
300.00019
299.9988
299.99857
299.99872
299.99926
299.9985
299.99796
299.99786
299.99819
300.00021
300.00119
299.99905
299.9987
299.99887
299.9996
299.99625
299.9958
299.99581
299.99639
299.99974
300.00275
300.00177
300.00167
300.00229
300.00318
300.0077
300.00304
300.00001
299.99872
299.99471
300.00713
299.97744
299.97151
299.96862
299.9813
299.63122
299.69266
299.74489
299.78652
299.94952
299.88714
299.95635
299.96552
299.98565
300.02749
300.15308
300.16101
300.15333
300.1398
300.03095
299.98104
299.95663
299.94996
299.94054
299.92686
300.0014
299.9989
299.9991
300.00004
300.00423
299.99937
299.99547
299.99473
299.99438
299.99421
299.99988
299.99908
299.99889
299.99926
300.00139
300.00022
299.99821
299.99786
299.99792
299.99833
299.99891
299.99843
299.99832
299.99856
300.00003
299.99949
299.99827
299.99806
299.99815
299.99853
299.9984
299.99806
299.99798
299.99814
299.99911
299.99885
299.99802
299.99788
299.99794
299.9982
299.99786
299.99765
299.99761
299.99774
299.99848
299.9982
299.99754
299.99743
299.99746
299.99764
299.99741
299.99727
299.99725
299.99735
299.99794
299.99786
299.9973
299.99721
299.99722
299.99733
299.99723
299.99713
299.99713
299.99722
299.99776
299.99783
299.9973
299.99722
299.99722
299.9973
299.99743
299.99735
299.99735
299.99744
299.99797
299.99829
299.99776
299.99768
299.99768
299.99777
299.99821
299.99811
299.9981
299.99819
299.99873
299.9994
299.99882
299.99874
299.99875
299.99888
299.99972
299.99956
299.99954
299.99963
300.00026
300.0014
300.00072
300.00063
300.00067
300.00088
300.00231
300.00204
300.00198
300.00208
300.00282
300.00461
300.00381
300.00371
300.00381
300.00416
300.00638
300.00593
300.0058
300.00591
300.00677
300.00941
300.00847
300.00836
300.00854
300.0091
300.01229
300.0116
300.01139
300.01152
300.01255
300.0163
300.0151
300.01495
300.0152
300.016
300.02018
300.0193
300.01904
300.01924
300.02076
300.02606
300.02411
300.02384
300.02412
300.02512
300.03112
300.02991
300.02958
300.02992
300.03235
300.03984
300.03716
300.03683
300.03729
300.03883
300.04839
300.04647
300.04585
300.04616
300.04851
300.04022
300.03856
300.03806
300.03838
300.04073
300.03303
300.03061
300.03028
300.03062
300.03185
300.02532
300.02433
300.02407
300.02437
300.02645
300.021
300.01941
300.0192
300.01944
300.02027
300.01621
300.01541
300.01515
300.01529
300.01644
300.01265
300.01169
300.01158
300.0118
300.01248
300.00927
300.00869
300.0085
300.0086
300.00946
300.00682
300.006
300.0059
300.00603
300.0065
300.00406
300.00369
300.00362
300.00374
300.00459
300.00275
300.00163
300.00141
300.00127
300.00125
299.99975
299.99983
299.99994
300.00015
300.00135
300.0004
299.99943
299.99928
299.99922
299.9992
299.99949
299.99921
299.99909
299.99912
299.99963
299.99897
299.9987
299.99866
299.99872
299.99894
299.99841
299.99823
299.99817
299.9982
299.99844
299.99813
299.99787
299.99784
299.99788
299.998
299.99782
299.99766
299.99761
299.99765
299.99793
299.99788
299.99751
299.99745
299.99749
299.99764
299.9976
299.99742
299.99737
299.99743
299.99787
299.99799
299.99747
299.99738
299.99742
299.9976
299.99771
299.99749
299.99743
299.99753
299.99813
299.99848
299.99777
299.99764
299.99769
299.99792
299.99812
299.99782
299.99774
299.99787
299.99868
299.99907
299.99815
299.99799
299.99809
299.99844
299.99847
299.99804
299.99792
299.99811
299.99925
299.99974
299.99839
299.99816
299.99831
299.99885
299.99798
299.99742
299.9973
299.99762
299.99957
300.00039
299.99829
299.99794
299.99813
299.9989
299.9955
299.99497
299.99493
299.99547
299.99869
300.0012
300.00009
299.99998
300.00064
300.00171
300.00576
300.00079
299.99768
299.99644
299.99299
300.0039
299.9747
299.96895
299.96573
299.9784
299.63341
299.69548
299.74782
299.78843
299.94692
299.965
299.58931
299.53413
299.48259
299.43028
299.98122
299.93514
299.90849
299.90241
299.96381
299.91482
299.98041
299.9998
300.02734
300.07441
300.04068
300.02524
300.02362
300.02389
300.02432
300.0001
300.00582
300.00767
300.01155
300.01717
300.01184
300.01048
300.00937
300.00912
300.00825
300.0025
299.99945
299.99897
299.99913
299.99974
300.00212
300.00129
300.00104
300.00134
300.0033
300.00165
299.99962
299.99929
299.9994
299.99991
300.00017
299.99964
299.99949
299.99972
300.00112
300.0003
299.99909
299.99889
299.99899
299.99938
299.999
299.99866
299.99857
299.99874
299.99971
299.99916
299.99831
299.99816
299.99823
299.99849
299.9981
299.99788
299.99783
299.99796
299.99871
299.99834
299.99768
299.99757
299.9976
299.99778
299.99747
299.99733
299.99731
299.99742
299.99805
299.99787
299.9973
299.9972
299.99721
299.99732
299.99723
299.99713
299.99713
299.99722
299.99777
299.9978
299.99728
299.9972
299.9972
299.99728
299.99741
299.99733
299.99733
299.99742
299.99795
299.99824
299.99772
299.99763
299.99763
299.99771
299.99814
299.99804
299.99804
299.99812
299.99868
299.99932
299.99873
299.99864
299.99865
299.99876
299.99957
299.99942
299.99941
299.99951
300.00017
300.00128
300.00057
300.00047
300.0005
300.00068
300.00209
300.00184
300.00179
300.0019
300.00268
300.00444
300.00361
300.0035
300.00358
300.0039
300.00614
300.00571
300.00559
300.00571
300.0066
300.00923
300.00831
300.0082
300.00837
300.00893
300.01222
300.01151
300.01129
300.0114
300.01238
300.01612
300.01504
300.01492
300.01519
300.016
300.02016
300.01927
300.01899
300.01917
300.02055
300.02579
300.02395
300.0237
300.02399
300.02497
300.03074
300.02957
300.02925
300.02958
300.03194
300.0392
300.03661
300.03627
300.03672
300.03823
300.04766
300.04569
300.04504
300.04533
300.04757
300.04758
300.04569
300.04549
300.04623
300.04834
300.03877
300.03714
300.03662
300.03689
300.03919
300.03197
300.02977
300.02949
300.02987
300.0311
300.02527
300.02423
300.0239
300.02411
300.02581
300.02055
300.01932
300.01917
300.01949
300.02042
300.01625
300.01537
300.01505
300.01515
300.01611
300.01237
300.01148
300.01139
300.01165
300.01238
300.00913
300.0085
300.00829
300.00838
300.00923
300.00661
300.00579
300.00569
300.00583
300.00628
300.0041
300.00373
300.00362
300.0037
300.00446
300.00272
300.00202
300.00193
300.002
300.00226
300.00091
300.00067
300.00061
300.00068
300.00132
300.00022
299.99963
299.99955
299.99957
299.99973
299.99895
299.99879
299.99875
299.99881
299.99936
299.99872
299.99819
299.99812
299.99813
299.99823
299.99782
299.9977
299.99768
299.99774
299.99827
299.99798
299.99745
299.99736
299.99736
299.99743
299.99733
299.99722
299.9972
299.99727
299.99783
299.99781
299.99722
299.99713
299.99712
299.9972
299.99735
299.99722
299.9972
299.99729
299.9979
299.99811
299.99745
299.99734
299.99736
299.99749
299.99784
299.99764
299.99759
299.9977
299.99841
299.99883
299.99805
299.99792
299.99797
299.99818
299.99865
299.99835
299.99827
299.99841
299.99931
299.99995
299.99892
299.99876
299.99885
299.99918
299.99967
299.99925
299.99914
299.99934
300.00061
300.00159
300.00016
299.99994
300.00009
300.00062
300.00042
299.99991
299.99979
300.00011
300.00223
300.00413
300.00216
300.00186
300.00212
300.00297
299.99966
299.9993
299.9993
299.99987
300.00332
300.00982
300.00798
300.00753
300.00776
300.00925
299.97006
299.97577
299.97927
299.98225
299.99506
300.0402
300.06079
300.06439
300.0692
300.07885
299.9881
299.5846
299.52817
299.47595
299.42
299.95886
299.94755
299.94956
299.95626
300.02275
299.99406
299.99099
299.99004
299.98928
299.98883
300.00036
299.99994
300.00022
300.00097
300.00445
300.00032
299.99688
299.99634
299.99639
299.99706
300.00033
299.99958
299.99936
299.99966
300.00165
300.0005
299.99847
299.99816
299.99828
299.99878
299.99928
299.99877
299.99862
299.99884
300.00022
299.99967
299.99846
299.99827
299.99838
299.99877
299.99853
299.99819
299.9981
299.99825
299.99924
299.99885
299.99799
299.99785
299.99792
299.99818
299.99786
299.99764
299.99758
299.99771
299.99847
299.99819
299.99751
299.9974
299.99744
299.9976
299.99736
299.99722
299.9972
299.99729
299.99793
299.9978
299.99722
299.99713
299.99714
299.99724
299.99716
299.99706
299.99706
299.99714
299.99773
299.99778
299.99723
299.99715
299.99715
299.99723
299.99735
299.99727
299.99727
299.99735
299.99793
299.99824
299.99767
299.99759
299.99759
299.99766
299.99808
299.99799
299.99799
299.99807
299.99868
299.99933
299.9987
299.99862
299.99862
299.99873
299.9996
299.99944
299.99942
299.99951
300.00019
300.00131
300.00062
300.00053
300.00057
300.00077
300.00225
300.00197
300.0019
300.00199
300.00272
300.0045
300.00376
300.00368
300.00378
300.00414
300.00646
300.00597
300.00582
300.0059
300.00666
300.00929
300.00853
300.00846
300.00867
300.00929
300.01254
300.0118
300.01153
300.01161
300.01243
300.01617
300.01523
300.01513
300.01543
300.01627
300.02038
300.01947
300.01916
300.01931
300.02059
300.02583
300.02405
300.02383
300.02415
300.02517
300.03099
300.02976
300.0294
300.02969
300.03199
300.03926
300.03678
300.0365
300.03701
300.03857
300.04814
300.04609
300.04538
300.04561
300.04764
300.04812
300.04617
300.04555
300.04586