/*--------------------------------*- C++ -*----------------------------------*\
  =========                 |
  \\      /  F ield         | OpenFOAM: The Open Source CFD Toolbox
   \\    /   O peration     | Website:  https://openfoam.org
    \\  /    A nd           | Version:  7
     \\/     M anipulation  |
\*---------------------------------------------------------------------------*/
FoamFile
{
    version     2.0;
    format      ascii;
    class       volVectorField;
    location    "60";
    object      U;
}
// * * * * * * * * * * * * * * * * * * * * * * * * * * * * * * * * * * * * * //

dimensions      [0 1 -1 0 0 0 0];

internalField   nonuniform List<vector> 
25201
(
(120.04216 0.0068992915 0.0057957827)
(120.04499 0.013245612 0.0050220992)
(120.04201 0.0059771848 0.0067756064)
(120.04442 0.004935825 0.01306359)
(120.02679 0.0044599993 0.0041086851)
(120.03858 0.0013431394 0.00092010156)
(120.04186 0.0024272418 0.0021585362)
(120.04419 0.0099669492 0.0098630765)
(120.04013 0.0052484993 0.0065528199)
(120.0235 0.0020598556 0.002056031)
(120.04028 0.006657983 0.0052379784)
(120.03889 0.0011535221 0.0010251235)
(120.03333 0.0070346791 0.0039429067)
(120.02742 0.048362368 0.024121655)
(120.0221 0.063743696 0.026183986)
(120.03879 0.0061551012 0.0096842631)
(120.03983 0.0081173238 0.017351375)
(120.03639 0.017241261 0.025195451)
(120.0457 0.01375096 0.028305557)
(120.04074 0.024578078 0.04638821)
(120.04474 0.016453767 0.034651536)
(120.03083 0.016811193 0.037362505)
(120.03241 0.015099672 0.030549177)
(120.02719 0.023327072 0.040733805)
(120.04199 0.022899312 0.040563797)
(120.03692 0.03840215 0.055188052)
(120.02931 0.043930197 0.042931144)
(120.03713 0.010930701 0.031628166)
(120.03417 0.0046324068 0.044393556)
(120.03564 0.011636863 0.07083983)
(120.03812 0.0165483 0.060186822)
(120.04211 0.018262329 0.046035435)
(120.02419 0.017567612 0.098753843)
(120.0294 0.024508324 0.082353054)
(120.03538 0.027335043 0.063945474)
(120.01951 0.025817018 0.062174833)
(120.02759 0.017490622 0.047358033)
(120.02314 0.015430182 0.059361724)
(120.01311 0.022501049 0.076956368)
(120.00761 0.015663696 0.089785114)
(120.02018 0.010558414 0.06785761)
(120.01789 0.0039514991 0.073282392)
(120.03342 0.0045275522 0.077624341)
(120.021 0.0065069108 0.10733815)
(120.00441 0.0056098711 0.096310622)
(119.99243 0.0049244672 0.087229261)
(120.00587 0.0035975968 0.067579559)
(120.01407 0.004071139 0.038767926)
(120.02612 0.0028290078 0.015743217)
(120.03255 0.0040576968 0.0066804425)
(120.03159 0.0049940767 0.0093595176)
(120.02379 0.0021359622 0.014330445)
(120.00156 0.0038753338 0.016206043)
(120.00723 0.0042153974 0.011505407)
(120.01582 0.0033804893 0.0071606084)
(120.01848 0.0053115079 0.00971865)
(120.02671 0.0067805617 0.011844048)
(120.02271 0.0091212649 0.019411072)
(120.01119 0.0069471583 0.016524221)
(119.99795 0.01345452 0.025670099)
(120.01287 0.013572392 0.027197941)
(120.01747 0.014922089 0.022894241)
(120.00597 0.010766636 0.015722714)
(120.00138 0.0053954447 0.0089024728)
(119.99985 0.0010834062 0.003682126)
(120.01552 0.0011657533 0.0042921527)
(120.00612 0.0014177119 0.0071784026)
(119.99083 0.0022369714 0.0070017335)
(119.99229 0.0066778214 0.014111916)
(119.98454 0.0065455175 0.021959202)
(119.98879 0.012630816 0.039391343)
(120.00525 0.014498603 0.042453563)
(120.0182 0.0095955324 0.030343171)
(120.00578 0.0065454266 0.023483925)
(120.00132 0.0027471947 0.028931544)
(119.98221 0.0051344054 0.048212575)
(119.99739 0.0082143963 0.056385937)
(120.00029 0.012408366 0.051069939)
(120.01122 0.014316409 0.056280524)
(120.0159 0.016362644 0.046071499)
(120.01952 0.016343607 0.037297422)
(120.02242 0.014657678 0.029864381)
(120.01561 0.022542085 0.038907668)
(120.00576 0.020634988 0.034141907)
(120.0021 0.021367524 0.04301491)
(120.00885 0.014843116 0.034824222)
(120.01292 0.023352322 0.047199996)
(120.0255 0.024318525 0.04736614)
(120.0253 0.032891018 0.053819204)
(120.02108 0.035699252 0.051757331)
(120.0183 0.032241849 0.053186004)
(120.00354 0.034461277 0.057070753)
(120.01392 0.031916715 0.05928494)
(120.02132 0.032576932 0.059667689)
(120.02916 0.033614508 0.060454218)
(120.03271 0.033893363 0.054511114)
(120.04238 0.034679078 0.054431314)
(120.03889 0.034808018 0.060697943)
(120.03276 0.044938522 0.071726746)
(120.03687 0.045522212 0.065196604)
(120.02651 0.043392161 0.063999729)
(120.02231 0.042628857 0.070304679)
(120.01385 0.040107038 0.068232428)
(120.01807 0.041279655 0.062265361)
(120.01082 0.039426682 0.05993958)
(120.00642 0.038593291 0.066458625)
(119.99814 0.046653564 0.073198195)
(120.00375 0.046752458 0.066495047)
(120.00792 0.056250767 0.067619061)
(120.02536 0.06621138 0.07635281)
(120.03163 0.058970328 0.075191597)
(120.01997 0.054903466 0.072758481)
(120.01416 0.055951856 0.080487103)
(120.0257 0.06017915 0.083317241)
(120.01792 0.075922793 0.097002035)
(120.02453 0.076208637 0.088148605)
(120.01212 0.070055285 0.083892135)
(120.00524 0.069719887 0.092352195)
(119.99559 0.062682533 0.086989916)
(120.00476 0.051084142 0.07696728)
(120.01091 0.051071377 0.069911032)
(120.00233 0.064260184 0.079434385)
(119.99563 0.057673914 0.074166721)
(119.98904 0.056578904 0.081689054)
(119.97936 0.069144141 0.089358031)
(119.98816 0.068910614 0.080161241)
(119.99564 0.078214312 0.078159882)
(120.00843 0.068083326 0.05607679)
(120.022 0.052506136 0.035322558)
(120.01642 0.079408803 0.023484023)
(120.01148 0.093516233 0.01728345)
(120.00868 0.10148256 0.0076391635)
(119.99459 0.093095889 0.0073509297)
(119.99738 0.086445247 0.016021375)
(120.00268 0.074880106 0.022083282)
(120.00823 0.06175697 0.02486671)
(120.01423 0.048427618 0.023923997)
(120.01655 0.039703021 0.022664221)
(120.01798 0.023458561 0.014731127)
(120.02741 0.012372556 0.0064256872)
(120.01887 0.010145449 0.0054255243)
(120.00619 0.016015434 0.011034742)
(119.9983 0.026472238 0.014286182)
(120.01371 0.028050318 0.013915461)
(120.02409 0.020204576 0.0091265865)
(120.01186 0.017301097 0.0074240252)
(120.00751 0.01207318 0.0047831712)
(120.01603 0.0074459272 0.0036351415)
(120.03189 0.009679069 0.0052113846)
(120.01561 0.0044576283 0.0014589818)
(119.99987 0.0036923716 0.0014397933)
(120.00146 0.0090324364 0.0057577018)
(119.99233 0.014572852 0.007471091)
(119.99075 0.0072369287 0.0028836183)
(120.0062 0.0075517688 0.0019260875)
(120.00068 0.010687707 0.0022743471)
(120.02417 0.015131133 0.0026864389)
(120.02754 0.016687508 0.003237631)
(120.0201 0.031808856 0.010148465)
(120.00661 0.024896541 0.0074249723)
(119.98907 0.041310285 0.014173073)
(120.00646 0.044223019 0.015538563)
(120.00989 0.036045497 0.015511519)
(120.0211 0.038404772 0.016593197)
(120.02359 0.030669894 0.014562176)
(120.01784 0.047678948 0.016970413)
(120.01353 0.058664636 0.015347771)
(120.0016 0.053645309 0.01381296)
(119.99112 0.067164158 0.019825057)
(119.997 0.055920331 0.022129686)
(120.00288 0.04424054 0.022309771)
(120.00636 0.03490596 0.021178876)
(120.0006 0.040260968 0.029331145)
(120.00817 0.033119291 0.03286073)
(119.99622 0.020373693 0.020504938)
(119.99484 0.023695377 0.032857552)
(120.00027 0.028707099 0.039713964)
(120.00921 0.03282055 0.046894859)
(119.99753 0.045532599 0.057261681)
(119.99186 0.038226114 0.046339468)
(119.98526 0.038558797 0.057100923)
(119.99515 0.039720901 0.059352894)
(119.99863 0.043432914 0.063659278)
(119.99258 0.043144703 0.070307056)
(119.98955 0.039834766 0.066406746)
(119.98196 0.046166866 0.071271365)
(119.98748 0.046970258 0.063764097)
(119.99073 0.051870191 0.06926699)
(119.98482 0.050278592 0.076243585)
(119.97575 0.060508842 0.081930329)
(119.98371 0.061424391 0.073579886)
(119.98697 0.062226241 0.062527241)
(119.99785 0.057567429 0.045910134)
(120.00982 0.047575229 0.033062771)
(120.00441 0.058197602 0.035381878)
(120.01959 0.054107774 0.03235555)
(120.02682 0.054567116 0.032531391)
(119.99679 0.087508339 0.063315673)
(120.00318 0.079773753 0.064416544)
(120.01196 0.070405392 0.051034033)
(120.01934 0.062864423 0.041104745)
(120.01184 0.060686055 0.039726506)
(120.00766 0.067434601 0.039218124)
(120.01543 0.060400259 0.032355942)
(120.02316 0.060519213 0.032518186)
(120.01542 0.069006929 0.040274867)
(120.00613 0.07762173 0.051460469)
(119.99914 0.074044941 0.047513797)
(120.00453 0.06708339 0.047209126)
(119.99621 0.074542413 0.058306944)
(119.98985 0.082317498 0.05767889)
(119.97996 0.089695662 0.070527946)
(119.98853 0.080282199 0.069687481)
(119.9953 0.087357067 0.077821633)
(120.00563 0.09374125 0.084853167)
(120.01528 0.09301269 0.092206652)
(120.04428 -0.0047542015 0.013063971)
(120.04189 -0.0058940238 0.0067506962)
(120.04282 -0.00039468536 -0.0042634927)
(120.03627 -0.010384547 0.031768568)
(120.0339 -0.0039168476 0.044439322)
(120.03323 -0.0036186275 0.077656334)
(120.02812 -0.023869317 0.082380246)
(120.03708 -0.01583474 0.060390166)
(120.03495 -0.010785857 0.070985837)
(120.0197 -0.010074865 0.067760929)
(120.01774 -0.0034614238 0.073255812)
(120.00423 -0.0052769973 0.096209793)
(120.02071 -0.0057084279 0.1073389)
(120.02337 -0.016810968 0.098752218)
(120.00705 -0.015310758 0.089528165)
(120.01225 -0.022146866 0.076584599)
(120.02239 -0.014993329 0.059222435)
(120.0266 -0.017117854 0.047183403)
(120.04075 -0.017723148 0.046294168)
(120.03379 -0.026861134 0.063987428)
(120.0184 -0.025490449 0.061748316)
(120.02419 -0.02406088 0.046882064)
(120.02969 -0.016545115 0.037162207)
(120.0387 -0.0079097316 0.01748635)
(104.09724 0.16903276 0.16991199)
(110.85908 0.18131509 0.19575385)
(113.10223 0.18760357 0.21559577)
(114.19898 0.18626597 0.23172727)
(118.18795 0.060194968 0.22341463)
(118.70081 -0.18429452 0.11426054)
(115.42644 -0.17490485 0.25594808)
(114.42439 -0.16943908 0.28438929)
(112.24551 -0.16825515 0.31065984)
(105.41358 -0.17986821 0.32923159)
(105.299 -0.059468747 0.092401805)
(112.06076 -0.061536485 0.097635491)
(114.24412 -0.061250978 0.095022123)
(115.27073 -0.061489885 0.091854443)
(118.71321 -0.080744352 0.062562503)
(118.85774 -0.073455011 0.039271088)
(115.44614 -0.065964114 0.071188326)
(114.42389 -0.06573161 0.076931014)
(112.24438 -0.067155887 0.083151191)
(105.47865 -0.070194042 0.090689359)
(105.53642 -0.041679678 0.052091137)
(112.29821 -0.041510442 0.049738331)
(114.47762 -0.041285737 0.046928725)
(115.50085 -0.04189363 0.044180111)
(118.936 -0.053369583 0.024693204)
(119.01508 -0.042105024 0.016968635)
(115.575 -0.032878605 0.033445887)
(114.55245 -0.032307936 0.03596262)
(112.37353 -0.032567109 0.038739002)
(105.60876 -0.033617124 0.041950425)
(105.65774 -0.024263079 0.030104664)
(112.42345 -0.023846414 0.028215554)
(114.6027 -0.023787043 0.02628844)
(115.62528 -0.02432894 0.02449299)
(119.0738 -0.032597256 0.011972474)
(119.12364 -0.025865054 0.0085323584)
(115.67159 -0.018919186 0.018493399)
(114.64877 -0.018404804 0.019960057)
(112.46937 -0.018392842 0.021572496)
(105.70152 -0.018810926 0.023299476)
(105.73781 -0.014443101 0.017804208)
(112.5063 -0.014159126 0.01648645)
(114.68602 -0.014205307 0.015229439)
(115.7089 -0.014655447 0.014084529)
(119.16356 -0.020523086 0.0062139155)
(119.1967 -0.016471686 0.0045395203)
(115.74082 -0.011527027 0.010854751)
(114.71758 -0.011128384 0.011777024)
(112.53773 -0.011062053 0.012792355)
(105.76786 -0.011281111 0.013872225)
(105.79397 -0.0088446732 0.010836522)
(112.56401 -0.0086881846 0.0099669106)
(114.74408 -0.0087657913 0.0091524704)
(115.76729 -0.0091150955 0.0084155685)
(119.2239 -0.013301153 0.0033476926)
(119.2465 -0.01081675 0.0024902463)
(115.78945 -0.0072698406 0.0065729872)
(114.76593 -0.0069624065 0.0071663073)
(112.5858 -0.0068804007 0.0078285628)
(105.81478 -0.0070001397 0.0085479184)
(105.83347 -0.0055948616 0.0068023405)
(112.6043 -0.0054987547 0.0061941452)
(114.78452 -0.0055767147 0.0056485068)
(115.80794 -0.0058442081 0.0051682997)
(119.26517 -0.0088290166 0.0018712792)
(119.28069 -0.0072148876 0.0014392703)
(115.82336 -0.0047363498 0.0041442465)
(114.7997 -0.004509878 0.0045399819)
(112.61949 -0.0044457184 0.0049965519)
(105.84793 -0.0045316132 0.0055173357)
(105.86136 -0.0037367716 0.0045636136)
(112.63256 -0.003654719 0.0041162137)
(114.81283 -0.0036983801 0.003726561)
(115.83631 -0.0038810954 0.0033928815)
(119.29352 -0.0058846656 0.0011316985)
(119.30418 -0.004791199 0.00090044335)
(115.84714 -0.0032268296 0.0028577256)
(114.82347 -0.003087937 0.0031506018)
(112.64327 -0.0030613525 0.0034879093)
(105.87147 -0.0031298889 0.0038559415)
(105.88135 -0.0026007319 0.0032625379)
(112.65268 -0.0025595571 0.0029757074)
(114.83289 -0.0025856299 0.0026894139)
(115.85632 -0.0026909207 0.002426231)
(119.31297 -0.003898629 0.00070399195)
(119.32024 -0.0031708699 0.0005359455)
(115.86406 -0.0021775758 0.0019677809)
(114.84051 -0.0020786328 0.0021940177)
(112.66041 -0.0020195952 0.0024126721)
(105.88861 -0.0020006135 0.002603544)
(105.89604 -0.0012771959 0.0017247679)
(112.6673 -0.0013937027 0.0016770598)
(114.84735 -0.0015054868 0.0015532174)
(115.87063 -0.0016273503 0.0013964826)
(119.32615 -0.0025712994 0.00043095885)
(119.33099 -0.0020640529 0.00045306476)
(115.87615 -0.0010680178 0.00086764549)
(114.85281 -0.0009148687 0.00094433825)
(112.67291 -0.00078710555 0.0010204101)
(105.90122 -0.00070913829 0.001086868)
(105.90676 -0.00041079505 0.00073406709)
(112.67801 -0.00038593905 0.0005824853)
(114.85789 -0.00048946506 0.00051534215)
(115.88093 -0.00065750717 0.0005095524)
(119.33491 -0.0016587854 0.00057821794)
(119.33808 -0.0013352964 0.00064554308)
(115.88496 -0.00041630378 0.00026563213)
(114.8619 -0.00025347514 0.0002260938)
(112.68218 -0.00018265996 0.00030269905)
(105.91044 -0.00027422979 0.00051143847)
(105.91464 -0.00028760196 0.00055057647)
(112.68604 -0.00013723617 0.00024555609)
(114.86575 -0.00016811142 0.00015072275)
(115.88849 -0.00031050002 0.00019913425)
(119.34052 -0.0010460549 0.00069960609)
(119.34251 -0.0006789695 0.00081753014)
(115.89177 -0.00017523758 0.00042711243)
(114.86907 -6.6738181e-05 0.00040471318)
(112.6895 -0.00010173154 0.00056065367)
(105.9174 -0.00038018436 0.00096964634)
(105.92101 -0.00080965362 0.0015561117)
(112.69296 -0.00044916333 0.0011000833)
(114.87254 -0.00032329224 0.00088088026)
(115.89486 -0.00034742892 0.00085091016)
(119.34411 -0.0003930792 0.00092348044)
(119.3454 -0.00018519727 0.00095625393)
(115.89736 -0.00058996439 0.0012722589)
(114.87506 -0.00065548967 0.0013528755)
(112.69556 -0.00081693771 0.0015467903)
(105.92282 -0.0010566872 0.0018347142)
(105.92564 -0.0010653453 0.0017990873)
(112.69817 -0.00098362375 0.0017247746)
(114.87767 -0.00086473705 0.0016145538)
(115.8996 -0.00075616599 0.0015056432)
(119.34644 -0.0001403188 0.00090800874)
(119.34756 -0.00028269357 0.00074874787)
(115.90235 -0.0007509518 0.001459299)
(114.8805 -0.00082332411 0.0015785944)
(112.70119 -0.00085011074 0.0016267894)
(105.92778 -0.0007623608 0.0015621143)
(105.93219 -0.00032516841 0.0010132504)
(112.70598 -0.00044880986 0.001164735)
(114.88522 -0.00053662094 0.0011202906)
(115.90646 -0.00056860872 0.00099337436)
(119.34884 -0.00050568873 0.00041645043)
(119.34947 -0.00086746118 -0.00017570749)
(115.91 -0.00061285104 -0.00034784115)
(114.88907 -0.00049489716 -0.00033226065)
(112.70994 -0.00030351504 -0.00034292023)
(105.93472 -0.00023793305 -0.00052733331)
(105.93315 -0.0019474022 -0.0010735321)
(112.70948 -0.0022516502 -0.00099304798)
(114.88918 -0.0023127252 -0.00094409946)
(115.9099 -0.0022647526 -0.00091997666)
(119.34854 -0.0012656408 -0.00023420068)
(119.34752 0.00025163137 0.00088236466)
(115.90801 -0.00038212556 0.00083071466)
(114.88742 -0.00054177096 0.0007492288)
(112.70644 -0.00064647102 0.00058184935)
(105.9252 -0.0005828485 0.00037439779)
(119.40251 0.00024577153 0.00050762725)
(115.49432 -0.0013436279 -0.00068330781)
(114.47928 -0.0016935765 -0.00092131659)
(112.26993 -0.0019989014 -0.0011946035)
(105.3963 -0.0018155306 -0.0013299512)
(105.4073 -0.0046022883 -0.00072573016)
(112.27543 -0.0048505373 -0.00081359097)
(114.48319 -0.0046460848 -0.00076972679)
(115.49824 -0.0043236152 -0.0006916015)
(119.40369 -0.0014715596 0.00018161146)
(119.40495 -0.00098118667 1.9691563e-05)
(115.50015 -0.0019927006 -0.00052865585)
(114.48512 -0.0020276446 -0.00057073381)
(112.27833 -0.0019662801 -0.00060969428)
(105.41143 -0.0021653205 -0.00082023651)
(105.40845 0.0008183121 0.0007266179)
(112.27374 0.00088134296 0.0010427657)
(114.48068 0.00058266406 0.0010302315)
(115.49609 0.00036508753 0.00089566126)
(119.40452 -0.00036811849 0.0002971092)
(119.4032 -0.00041488753 0.00035431201)
(115.4901 0.00018587897 0.0016493038)
(114.47393 0.00038596707 0.001891734)
(112.26704 0.0005950447 0.002038685)
(105.40242 0.00074261584 0.0019606734)
(105.39879 0.00047817353 0.002235551)
(112.26234 0.00040438643 0.0021901048)
(114.46967 0.00029663496 0.0020252961)
(115.48606 0.00017398569 0.001813768)
(119.40216 -0.00029328222 0.0005230544)
(119.40123 -0.00011579126 0.00076009246)
(115.48404 0.00037065612 0.0017628093)
(114.46737 0.00045385847 0.0019252446)
(112.26011 0.00048426926 0.0021243635)
(105.39619 0.00041911409 0.0022992986)
(105.39444 0.00051339489 0.0021414129)
(112.25777 0.00063687194 0.0018523823)
(114.46529 0.00062886823 0.0016423975)
(115.48193 0.00053562378 0.0015352985)
(119.40003 -0.00012744988 0.00093099943)
(119.39853 -0.00039742286 0.00095242982)
(115.47959 0.00038874381 0.0011309819)
(114.46271 0.00049303262 0.0011765353)
(112.25544 0.00050425738 0.0013521704)
(105.39198 0.00042018199 0.00169822)
(105.38971 -7.2283016e-05 0.0014957382)
(112.25233 -1.5385054e-05 0.0012003216)
(114.45979 -9.6581381e-06 0.0010811176)
(115.47665 -7.9981663e-05 0.0010723575)
(119.39668 -0.00074743227 0.0010429837)
(119.3943 -0.0010381351 0.0011417366)
(115.47366 -0.00036386008 0.0011736469)
(114.45659 -0.00031201126 0.0011701873)
(112.2494 -0.00032867827 0.0012810599)
(105.38663 -0.00042573945 0.0015517474)
(105.38289 -0.00042403108 0.0015141194)
(112.24508 -0.00034970472 0.0012656502)
(114.45254 -0.00035614977 0.0011632342)
(115.46959 -0.00044404091 0.0011721804)
(119.39115 -0.0013788344 0.0011474988)
(119.38727 -0.0019720531 0.0010115034)
(115.46492 -0.00068028898 0.0011326989)
(114.44762 -0.00053166185 0.0011434009)
(112.24032 -0.00044540702 0.0012336168)
(105.37771 -0.00044174712 0.0014184216)
(105.37211 -0.00070994076 0.0018410363)
(112.23428 -0.00079264197 0.0017302182)
(114.4419 -0.00092640125 0.0016521509)
(115.45921 -0.0011048272 0.0015944586)
(119.38256 -0.0026665094 0.001031648)
(119.37679 -0.0034182034 0.0012159588)
(115.45276 -0.0016360077 0.0024045918)
(114.43523 -0.0014505805 0.002539931)
(112.22774 -0.0013042632 0.0026601338)
(105.36507 -0.0011843634 0.0027440301)
(105.35725 -0.0017171518 0.0038311365)
(112.21957 -0.0017988231 0.0036405393)
(114.42741 -0.0019358785 0.0034295574)
(115.4449 -0.0021355193 0.003234264)
(119.36971 -0.0042507022 0.0015390393)
(119.36111 -0.0052274365 0.0019576464)
(115.43612 -0.0026325057 0.0039683311)
(114.41851 -0.0023960895 0.0041971133)
(112.21092 -0.0022489597 0.0044879964)
(105.34831 -0.0021996568 0.0047931389)
(105.33801 -0.0026588224 0.0057372322)
(112.20015 -0.0027131015 0.005343002)
(114.40802 -0.0028920082 0.0049954386)
(115.42552 -0.0031862604 0.0047384579)
(119.35071 -0.006409527 0.0024498924)
(119.33819 -0.0078432567 0.0030569727)
(115.4132 -0.0038928783 0.0057848871)
(114.39562 -0.0035328688 0.0060901788)
(112.18799 -0.0033101041 0.0064937404)
(105.32552 -0.0032311297 0.0069537342)
(105.31092 -0.0039785996 0.0085719833)
(112.17285 -0.0040918204 0.0080504929)
(114.38071 -0.0043640642 0.007571631)
(115.39813 -0.0047968755 0.0071944745)
(119.32309 -0.0095797026 0.0038299455)
(119.30496 -0.011711266 0.0048558871)
(115.38043 -0.0059624952 0.0091346136)
(114.36296 -0.0054536264 0.0096183221)
(112.15535 -0.0051342325 0.010206257)
(105.29316 -0.0049939252 0.010824243)
(105.27251 -0.0062887071 0.013669997)
(112.13391 -0.0064508157 0.01293384)
(114.34169 -0.0068197579 0.012205388)
(115.35893 -0.0074173126 0.011592708)
(119.28308 -0.014338006 0.0061904399)
(119.25682 -0.017645146 0.0079487934)
(115.33372 -0.0092413929 0.014698042)
(114.31651 -0.0085315504 0.015464648)
(112.10907 -0.0081041015 0.016379014)
(105.24776 -0.0079346052 0.017299599)
(105.21862 -0.0099881768 0.0218221)
(112.0787 -0.01015991 0.020678429)
(114.28621 -0.010650595 0.019544556)
(115.30314 -0.011493629 0.01860728)
(119.22496 -0.021802981 0.01028444)
(119.18678 -0.027191511 0.01334881)
(115.26795 -0.014491128 0.023716993)
(114.2511 -0.013468354 0.024891197)
(112.04404 -0.012875859 0.026316793)
(105.18455 -0.012697632 0.027772214)
(105.1429 -0.01601829 0.035133473)
(112.00044 -0.016282521 0.033558022)
(114.20761 -0.016942619 0.031881471)
(115.22434 -0.018127101 0.0304534)
(119.13953 -0.033822008 0.017567484)
(119.08414 -0.042900389 0.023528522)
(115.17731 -0.023886802 0.040422143)
(114.16049 -0.022447099 0.042389665)
(111.95368 -0.021643506 0.044705379)
(105.09721 -0.021452633 0.047126884)
(105.03271 -0.026297242 0.05849146)
(111.88706 -0.027133162 0.056865804)
(114.09458 -0.028003032 0.054475908)
(115.11204 -0.029612969 0.052221256)
(119.0115 -0.052735283 0.031943196)
(118.93721 -0.070075175 0.04551573)
(115.04967 -0.043103543 0.076844797)
(114.0314 -0.040981758 0.080756546)
(111.82272 -0.039782289 0.085216281)
(104.96595 -0.039998713 0.08950856)
(104.84796 -0.029051766 0.081283193)
(111.71371 -0.032280269 0.083642547)
(113.92532 -0.034385471 0.081085683)
(114.94304 -0.03745871 0.077615104)
(118.81853 -0.072542731 0.055936873)
(118.7678 -0.10456639 0.10306729)
(114.83698 -0.044432179 0.15730433)
(113.8132 -0.040214707 0.16348396)
(111.59329 -0.039647544 0.16922709)
(104.72084 -0.045671324 0.17193989)
(105.02974 0.097102137 -0.23050458)
(111.852 0.099569616 -0.19038873)
(114.01627 0.088039045 -0.16203995)
(114.98324 0.07630251 -0.13992069)
(118.58942 0.026649884 0.003794106)
(118.84748 -0.38197845 0.5921507)
(115.69129 0.4870362 2.0197551)
(114.76193 0.62868434 2.2538202)
(112.49222 0.72991524 2.4743037)
(105.14531 0.43035167 2.4856724)
(104.78407 0.86050698 0.36911767)
(111.60895 0.79632158 0.35646151)
(113.76814 0.73601323 0.33389417)
(114.72588 0.68523383 0.31009984)
(118.27358 0.34187601 0.20952366)
(118.54993 0.11473368 0.010950992)
(114.62285 0.12371594 0.079670877)
(113.60175 0.12593696 0.085073753)
(111.38451 0.13056794 0.086936091)
(104.52149 0.1374823 0.084879041)
(104.73882 0.12352998 0.059528374)
(111.6004 0.11425152 0.052838369)
(113.81002 0.10712742 0.049123414)
(114.825 0.10225267 0.044828551)
(118.68605 0.079424695 0.0067733097)
(118.84947 0.0469165 -0.016623572)
(114.96896 0.041070352 0.010506933)
(113.95218 0.041144721 0.013079063)
(111.74461 0.041712962 0.014908264)
(104.89088 0.040851906 0.016784764)
(104.9845 0.030860656 0.012637238)
(111.83668 0.030019762 0.01067794)
(114.04318 0.029266509 0.0093383009)
(115.05934 0.028984748 0.0075960132)
(118.95212 0.033173922 -0.014070602)
(119.04295 0.02374426 -0.014593082)
(115.14116 0.017945784 0.0028730302)
(114.12519 0.017738454 0.0043870786)
(111.91897 0.017756867 0.0055429632)
(105.06387 0.017589687 0.006696154)
(105.12048 0.012310473 0.0046036542)
(111.97686 0.012398725 0.0037111907)
(114.18343 0.012405511 0.0028027866)
(115.19936 0.012601735 0.0016085444)
(119.1102 0.017608137 -0.012529144)
(119.16549 0.013324101 -0.011028123)
(115.25007 0.0087535265 0.00038634141)
(114.23376 0.0084901975 0.0014148786)
(112.02702 0.0083698937 0.0022087132)
(105.16821 0.0082204714 0.0029255653)
(105.20718 0.0057156824 0.0019549246)
(112.06684 0.0058289511 0.00136035)
(114.27404 0.0059577442 0.00070305002)
(115.29047 0.0062173636 -0.00013972229)
(119.20929 0.010208499 -0.0093722091)
(119.24512 0.0079838283 -0.0079834868)
(115.32438 0.0045676751 -0.00044394075)
(114.30745 0.0043226578 0.00026581035)
(112.10009 0.0041903175 0.00082748043)
(105.2388 0.0040904789 0.0013294503)
(105.2661 0.0030027003 0.00093026138)
(112.12762 0.0030861743 0.00050912297)
(114.33528 0.0032083155 3.7895183e-05)
(115.35221 0.0034274418 -0.00055265697)
(119.27427 0.006320777 -0.0067344791)
(119.29825 0.0050446324 -0.005667485)
(115.37534 0.0026001603 -0.00058788437)
(114.35801 0.0024066683 -9.5780516e-05)
(112.15028 0.0022939691 0.00029941896)
(105.28761 0.0022203949 0.00064991083)
(105.30683 0.0016506983 0.00045092074)
(112.16939 0.0017123141 0.0001592317)
(114.37732 0.0018129041 -0.00017130491)
(115.39454 0.001982211 -0.00057985055)
(119.31795 0.0040425791 -0.0047446727)
(119.3342 0.0032546876 -0.003950019)
(115.41046 0.0015479353 -0.00053325294)
(114.39292 0.0014051131 -0.00019335847)
(112.18502 0.0013199009 8.4369508e-05)
(105.32158 0.0012711427 0.00033068968)
(105.33528 0.0009314808 0.00022011229)
(112.19838 0.00097066652 1.6319453e-05)
(114.40641 0.001045193 -0.00021464633)
(115.42376 0.0011690889 -0.00049472764)
(119.34757 0.0026046205 -0.0032777644)
(119.3586 0.0020836341 -0.0027067077)
(115.43479 0.00090673956 -0.00043962085)
(114.41718 0.00080446121 -0.00020819265)
(112.20923 0.00074392218 -1.561429e-05)
(105.34542 0.00071647466 0.00015495699)
(105.3553 0.00051343752 0.00010327211)
(112.21865 0.00053096198 -4.2865679e-05)
(114.42668 0.00058180307 -0.00020507101)
(115.44404 0.00067033607 -0.00039659576)
(119.36765 0.0016555838 -0.0022270037)
(119.37508 0.001318306 -0.0018087625)
(115.45177 0.00053011057 -0.00033470894)
(114.4342 0.0004592917 -0.00017452098)
(112.2263 0.00042385385 -3.4567456e-05)
(105.36237 0.00042174342 9.3192455e-05)
(105.36984 0.00038302838 0.00010668504)
(112.23319 0.00037534147 -2.9439457e-06)
(114.44111 0.00039656058 -0.00012558785)
(115.45838 0.00044946812 -0.00026238658)
(119.38113 0.0010506164 -0.0014407417)
(119.38604 0.00084122841 -0.0010900018)
(115.46395 0.00043318587 -0.0001640656)
(114.44654 0.0003978468 -5.1724624e-05)
(112.23879 0.00038430334 4.8408947e-05)
(105.37491 0.00039664671 0.00013074312)
(105.38056 0.00046875069 0.0001694002)
(112.24385 0.00044710975 0.00010483336)
(114.4516 0.00044205171 2.5789104e-05)
(115.46866 0.00045586247 -6.1445893e-05)
(119.38993 0.00067314182 -0.00074790202)
(119.39295 0.00050651008 -0.00040635356)
(115.47233 0.00049486656 7.8184354e-05)
(114.45514 0.0005036958 0.0001432502)
(112.24755 0.00052840611 0.00019920535)
(105.3837 0.00054606425 0.0002687829)
(105.38719 0.00021069476 0.00059092694)
(112.25075 0.00029394677 0.00054257047)
(114.45848 0.00029937633 0.00051315725)
(115.47538 0.00028959611 0.00044970341)
(119.39525 0.00026006828 -2.5258684e-05)
(119.39718 -3.817389e-05 0.00042337414)
(115.47815 -7.1820105e-05 0.0010439111)
(114.46113 -7.6665401e-05 0.0011198432)
(112.25347 -0.00012793817 0.0011471394)
(105.38905 -0.00027082309 0.0010700346)
(105.39209 -0.0008387739 0.0012515274)
(112.2562 -0.00062727741 0.0014219836)
(114.46397 -0.00051498737 0.0014301139)
(115.48065 -0.00047850375 0.0013623622)
(119.39876 -0.00030992256 0.00076417669)
(119.4 -0.00040396129 0.0007752436)
(115.48234 -0.00075148054 0.0012924205)
(114.46549 -0.0008199536 0.0013479916)
(112.25784 -0.00097771318 0.0013215226)
(105.39317 -0.0012251345 0.0011550227)
(105.39584 -0.0015826022 0.0010578334)
(112.25979 -0.0013867207 0.0011086541)
(114.4674 -0.0012108858 0.0010796704)
(115.48394 -0.0010741279 0.00099363337)
(119.40099 -0.00036428253 0.00053356807)
(119.40208 -0.00024620904 0.0001953943)
(115.48711 -0.0012914833 0.00075237013)
(114.47062 -0.0014960416 0.00091743365)
(112.2634 -0.001695307 0.0010528408)
(105.39879 -0.0018532621 0.0010738356)
(105.40574 -0.0010028204 0.00085326358)
(112.27037 -0.0012852765 0.00095483275)
(114.47734 -0.0011830589 0.00069615428)
(115.49303 -0.0009867252 0.00050001947)
(119.40352 3.2671363e-05 -5.570129e-05)
(119.40422 0.00076923253 -0.00084395651)
(115.49782 0.0014265268 -0.0017676123)
(114.4825 0.0014781488 -0.001742062)
(112.27584 0.0015769936 -0.0015890727)
(105.41027 0.0019216085 -0.0016870648)
(105.41026 0.0022369752 -0.0041068846)
(112.27607 0.0022977605 -0.0044870855)
(114.48306 0.0021905393 -0.0044018166)
(115.49795 0.002061006 -0.0041674042)
(119.40304 0.00095588997 -0.0014810126)
(119.40231 0.00045214369 3.0992628e-05)
(115.49701 0.0020107315 -0.0016351943)
(114.48206 0.0022030091 -0.0017521134)
(112.27484 0.0024135358 -0.0018000726)
(105.40737 0.0024874327 -0.0013629061)
(105.40102 -0.00013550006 0.00011834068)
(112.27363 -0.0002611998 0.00027450014)
(114.48242 -0.00037637368 0.00053019686)
(115.49701 -0.00045493085 0.00078328624)
(119.40276 -0.00063978426 0.0014911902)
(105.87194 0.00014413946 8.1003044e-05)
(112.6584 6.9281298e-05 0.00027263449)
(114.84026 -6.645477e-06 0.00054429156)
(115.8574 -7.2953315e-05 0.00080222005)
(119.34291 -0.00031891977 0.0014300273)
(119.34256 -5.1452541e-05 -0.00038158516)
(115.85763 0.00020519098 -0.0020066008)
(114.8403 0.00024081798 -0.0021499187)
(112.65987 0.00026699744 -0.0022399236)
(105.87778 0.00025545871 -0.002053575)
(105.87829 -0.0012696299 -0.0030017811)
(112.6589 -0.00093644733 -0.0030635244)
(114.83934 -0.00071480131 -0.0031108945)
(115.85688 -0.00059598294 -0.0030821843)
(119.3432 -0.00011698997 -0.0018451111)
(119.34425 4.3126142e-05 -0.0016328249)
(115.85554 0.00046927116 -0.0020956231)
(114.83748 0.00051163029 -0.002035594)
(112.65727 0.0003405111 -0.0019172647)
(105.87706 -4.8648913e-05 -0.0019772977)
(105.87307 0.0011272027 0.00080344842)
(112.65253 0.0015079217 0.00099196561)
(114.83318 0.0015464496 0.00082044416)
(115.85166 0.0013170988 0.00062510222)
(119.34367 -5.3628121e-05 -0.000187178)
(119.34217 -8.2233472e-05 0.00046520928)
(115.84736 0.0015486135 0.0011770643)
(114.82835 0.0018095044 0.0013226556)
(112.64753 0.0019014058 0.0014306171)
(105.86779 0.0017028984 0.0014313397)
(105.86518 0.0016320163 0.0013910315)
(112.64444 0.0016146116 0.0013974088)
(114.82565 0.0014261353 0.0013421586)
(115.84477 0.0012018694 0.0012612147)
(119.34099 -9.1427718e-05 0.00083065514)
(119.33995 -8.946894e-05 0.0009524237)
(115.84327 0.00045894911 0.0012083298)
(114.82399 0.00056551162 0.0012645858)
(112.64291 0.00079221245 0.0013259906)
(105.86324 0.0011567735 0.0013496412)
(105.86135 0.00026779221 0.0011745181)
(112.64043 -0.00014122909 0.0011024129)
(114.82171 -0.00029036733 0.0010357992)
(115.84105 -0.00026728723 0.00097882985)
(119.33868 -7.9158286e-05 0.00078930199)