/*--------------------------------*- C++ -*----------------------------------*\
  =========                 |
  \\      /  F ield         | OpenFOAM: The Open Source CFD Toolbox
   \\    /   O peration     | Website:  https://openfoam.org
    \\  /    A nd           | Version:  7
     \\/     M anipulation  |
\*---------------------------------------------------------------------------*/
FoamFile
{
    version     2.0;
    format      ascii;
    class       volScalarField;
    location    "170";
    object      alphat;
}
// * * * * * * * * * * * * * * * * * * * * * * * * * * * * * * * * * * * * * //

dimensions      [1 -1 -1 0 0 0 0];

internalField   nonuniform List<scalar> 
24789
(
0.001588976
0.0095398209
0.023313685
0.039718755
0.50816156
0.50938185
0.039778601
0.02334967
0.0095549702
0.0015901499
0.0015916055
0.0095745175
0.02339851
0.039860185
0.51074085
0.51211973
0.039927546
0.023437796
0.0095905008
0.0015927919
0.0015941562
0.0096089213
0.023484264
0.040005877
0.51347801
0.51479924
0.040067051
0.023519506
0.0096231498
0.0015952092
0.001596427
0.0096394617
0.023560726
0.040136598
0.51608423
0.51732285
0.040189832
0.023591095
0.0096517042
0.001597339
0.0015984307
0.0096662291
0.023627996
0.040252374
0.51852859
0.51968792
0.040297135
0.023653381
0.0096765517
0.0015992138
0.0016002105
0.0096897805
0.023687072
0.040354374
0.52079545
0.52187277
0.0403925
0.023708715
0.0096987311
0.0016008995
0.0016018443
0.0097112914
0.023740607
0.040446717
0.52291339
0.52393247
0.040481786
0.023760579
0.009719732
0.0016024942
0.0016034381
0.0097323205
0.02379191
0.04053449
0.52492581
0.52592023
0.040570761
0.023812982
0.0097415003
0.001604133
0.0016051751
0.0097555977
0.023847289
0.040627996
0.5269175
0.52795667
0.040672869
0.023873566
0.0097671011
0.0016060142
0.0016072187
0.0097838276
0.023913575
0.040738963
0.52904611
0.53021486
0.040795188
0.023946876
0.0097983797
0.001608258
0.0016096911
0.0098176024
0.023992378
0.040869424
0.53146816
0.53282472
0.040935917
0.024031968
0.0098346053
0.0016110948
0.0016130987
0.0098565787
0.024086152
0.041027456
0.5343035
0.5360221
0.04111406
0.024135204
0.0098762041
0.0016153031
0.0016183928
0.0099005697
0.024199899
0.04122948
0.53807679
0.54061809
0.041345849
0.024261525
0.0099226642
0.0016220682
0.0016270569
0.0099493518
0.024340026
0.041495782
0.54381245
0.54790339
0.041653483
0.024418212
0.0099742549
0.0016331814
0.0016412375
0.010002714
0.024512823
0.041845093
0.55316167
0.55998869
0.042042574
0.024606348
0.010028438
0.0016514142
0.001666218
0.010066594
0.024724346
0.042294169
0.56915381
0.58195389
0.042712363
0.024924335
0.010137019
0.0016891023
0.0017175264
0.010219233
0.02535121
0.043568213
0.6001041
0.63427575
0.045995239
0.026865464
0.010866564
0.0017712914
0.0018007772
0.011143914
0.02734221
0.046468088
0.65784624
0.67577089
0.04919955
0.02891606
0.011754616
0.0018349277
0.0018255192
0.01229717
0.030639611
0.052601858
0.67221471
0.72195223
0.045288692
0.027177321
0.011200819
0.0017896083
0.0017531393
0.010761007
0.026234957
0.044269819
0.71566783
0.69225872
0.040611433
0.0240096
0.0097960044
0.0016879016
0.0016411738
0.0094185835
0.022992031
0.038992503
0.66746247
0.65213435
0.03840954
0.022655925
0.0093176204
0.0016111186
0.0015898363
0.0092590155
0.022518221
0.038146689
0.64005667
0.63063051
0.037981736
0.02244043
0.0092310887
0.0015761811
0.0015665073
0.0092121909
0.022374838
0.03783688
0.62324904
0.61735338
0.037691793
0.022305929
0.0091915596
0.001558972
0.0015531896
0.0091698648
0.022237061
0.037552376
0.61258552
0.60875114
0.037422122
0.022168635
0.0091462492
0.001548526
0.0015449762
0.0091240472
0.022106377
0.037306554
0.60562153
0.60308554
0.037204328
0.022048382
0.0091017272
0.001542094
0.0015399616
0.0090816056
0.021996963
0.037114684
0.6009338
0.59908061
0.037032451
0.021947648
0.0090611085
0.0015381274
0.0015367803
0.0090436233
0.02190579
0.0369631
0.59739461
0.59582999
0.036895528
0.021863896
0.0090254221
0.0015354793
0.001534481
0.0090104
0.02182887
0.036837914
0.59440692
0.593057
0.036780008
0.021793366
0.0089949449
0.0015334024
0.0015325625
0.0089825834
0.021764111
0.036731
0.59178969
0.59060847
0.036687014
0.021736812
0.0089705282
0.0015316619
0.0015309644
0.0089606686
0.021712889
0.036646311
0.58940789
0.58822372
0.036605293
0.021687927
0.0089499819
0.0015301421
0.0015294696
0.0089406761
0.021664545
0.036564746
0.58697386
0.58571389
0.036520799
0.021638214
0.0089297274
0.0015286234
0.0015278993
0.0089198338
0.021613081
0.036477254
0.58439856
0.58307402
0.036430705
0.021585134
0.0089082788
0.0015269987
0.0015262013
0.0088973859
0.021557383
0.036382756
0.58169865
0.58024247
0.036329434
0.021525466
0.0088843223
0.0015252005
0.0015242945
0.0088718689
0.021493867
0.036275213
0.57879686
0.57725773
0.036213601
0.021457055
0.0088568873
0.0015231675
0.0015221285
0.0088425459
0.021420908
0.036152133
0.57567679
0.57405502
0.036083526
0.021379778
0.0088257835
0.0015208778
0.0015197206
0.0088097921
0.021339753
0.036015996
0.57241817
0.5708295
0.035946646
0.021297596
0.0087923797
0.0015184116
0.001517239
0.0087766328
0.021258743
0.035881993
0.56930958
0.5713991
0.03596727
0.021307607
0.0087957752
0.0015185667
0.0015197325
0.0088107335
0.021343434
0.036024123
0.57266808
0.57416955
0.036080828
0.021377207
0.0088246885
0.0015207748
0.0015220115
0.0088414768
0.021419155
0.036150451
0.57572974
0.57727298
0.036205383
0.021451236
0.0088545459
0.0015229779
0.0015241089
0.0088698292
0.021489632
0.036269386
0.57878234
0.58024049
0.036316271
0.021517022
0.0088810857
0.0015249591
0.0015260056
0.0088951581
0.021552503
0.036375605
0.58165854
0.58303395
0.0364174
0.021576751
0.0089051345
0.0015267645
0.0015277279
0.0089180206
0.021609177
0.036471605
0.58437997
0.5856919
0.036510218
0.021631287
0.0089271055
0.0015284147
0.0015293079
0.0089389959
0.021660935
0.036559676
0.58697989
0.58824457
0.036593898
0.021680836
0.0089474796
0.0015299544
0.0015308696
0.0089599602
0.021711577
0.036644923
0.58948486
0.59072269
0.036680408
0.021732591
0.00896919
0.0015315515
0.0015325486
0.0089831744
0.021766141
0.036735424
0.59198024
0.59327705
0.036779031
0.021792268
0.0089947597
0.0015333588
0.0015345069
0.0090115741
0.021832184
0.036844169
0.59465466
0.59613466
0.036899337
0.02186549
0.0090262198
0.0015354941
0.0015368584
0.0090454564
0.021910815
0.036972325
0.59775324
0.59952324
0.037039502
0.021951351
0.0090627781
0.0015382247
0.0015401869
0.0090851064
0.022006247
0.037130878
0.60149642
0.6037785
0.037219947
0.022057635
0.0091056857
0.001542401
0.0015454808
0.0091309239
0.022123957
0.037336061
0.60648702
0.60975124
0.037452183
0.0221869
0.0091539161
0.0015491212
0.0015539301
0.0091802285
0.02226246
0.037594026
0.61372501
0.61858789
0.037731837
0.022330913
0.0092025593
0.001559707
0.0015672364
0.0092251204
0.02240352
0.037882289
0.62454285
0.63186268
0.03801398
0.022462068
0.0092427343
0.0015767612
0.0015903076
0.0092689853
0.022530559
0.038161938
0.64108387
0.65290552
0.038394606
0.02264497
0.0093211424
0.0016115882
0.0016440822
0.0094499641
0.023011879
0.039041722
0.66840456
0.69265608
0.040756886
0.024056316
0.0097885566
0.0016879909
0.0017558484
0.010850336
0.026498254
0.045059908
0.71948123
0.72318401
0.042429105
0.025665059
0.01064887
0.001745994
0.001805114
0.012142117
0.030281931
0.051863198
0.6728221
0.68435964
0.04861481
0.028237305
0.011424744
0.0017894947
0.0018286409
0.011866923
0.029530888
0.051037091
0.66174013
0.63141474
0.045769884
0.026838988
0.010831032
0.0017678082
0.0017194052
0.010312088
0.025319275
0.043244675
0.60285644
0.58506511
0.042156784
0.024702742
0.010099854
0.0016824543
0.0016567799
0.0099874099
0.024434511
0.041666823
0.57211603
0.56244628
0.041370148
0.024273926
0.0099245467
0.0016404573
0.0016293381
0.0098838195
0.024154512
0.041141468
0.55511184
0.54935055
0.040933956
0.0240465
0.0098466048
0.0016208398
0.0016144123
0.0098135016
0.023951522
0.040753114
0.5448228
0.54123018
0.04059097
0.023863727
0.0097814719
0.0016092556
0.0016053504
0.0097537454
0.023789071
0.040454833
0.53836009
0.53607166
0.040336903
0.023721914
0.0097273288
0.001602171
0.0015997992
0.0097042803
0.023664036
0.040236057
0.53415144
0.53250735
0.040143132
0.023608822
0.0096812578
0.0015977329
0.0015962104
0.0096620788
0.023563306
0.040067496
0.53105226
0.52970517
0.039992804
0.023517539
0.009642239
0.0015947363
0.001593595
0.0096258584
0.023479189
0.039929066
0.52847888
0.52732943
0.039865556
0.023440696
0.0096092134
0.0015923846
0.0015914575
0.0095961028
0.023409576
0.039813053
0.52625996
0.5251886
0.039760006
0.023377535
0.0095823597
0.0015904298
0.0015896521
0.0095715934
0.023351478
0.039715695
0.52416713
0.52311027
0.039666626
0.023322319
0.009559391
0.0015887194
0.0015879902
0.0095494737
0.023297658
0.039624083
0.52207604
0.52100122
0.039575192
0.023268841
0.009537617
0.0015870722
0.0015863156
0.0095273504
0.023242849
0.039530015
0.51990699
0.5187607
0.039477072
0.023211752
0.0095147047
0.0015853413
0.0015844944
0.0095031574
0.023182333
0.039425949
0.51758327
0.51640521
0.039371058
0.023149733
0.0094897964
0.001583457
0.0015825115
0.0094767654
0.023116418
0.039313179
0.51515274
0.51385264
0.039247347
0.023077547
0.0094610381
0.0015813248
0.0015802473
0.0094462417
0.023040184
0.039183333
0.512532
0.51118609
0.039112297
0.022997977
0.009429077
0.0015789533
0.0015778117
0.0094136031
0.022959528
0.039047509
0.50991675
0.5088592
0.03899427
0.022926027
0.0093991515
0.0015766411
0.0015905011
0.0095606206
0.02336598
0.039808235
0.50978364
0.51089078
0.039860736
0.023397484
0.0095739253
0.0015915324
0.0015928538
0.0095915601
0.02344138
0.039933768
0.51217215
0.51348519
0.039994492
0.023476785
0.0096060391
0.0015939346
0.0015952207
0.0096233834
0.023520633
0.040068503
0.51479289
0.51606781
0.040123756
0.023552588
0.0096364148
0.0015961973
0.0015973777
0.0096522998
0.02359296
0.040192108
0.51731276
0.51850751
0.040242177
0.023621388
0.0096637577
0.0015982329
0.001599275
0.0096775623
0.023656402
0.040301487
0.51968256
0.52080749
0.040343815
0.023680404
0.0096873685
0.0016000198
0.0016009927
0.0097002916
0.023713213
0.040399436
0.52189307
0.52294875
0.040438504
0.023735093
0.0097092605
0.0016016701
0.001602592
0.0097214009
0.023765345
0.040489188
0.52397359
0.52498307
0.040527131
0.023786786
0.0097304183
0.00160327
0.0016042417
0.0097433237
0.02381815
0.040578971
0.52599375
0.52701522
0.040621245
0.023842536
0.0097538795
0.0016050264
0.0016061618
0.0097693736
0.023879829
0.040683102
0.5280953
0.52923128
0.040734741
0.023910297
0.0097827412
0.0016071232
0.0016084756
0.0098014824
0.023954968
0.040808313
0.53046121
0.53178923
0.040871033
0.023992578
0.0098179439
0.0016097076
0.0016114469
0.0098393478
0.024044063
0.0409559
0.53324402
0.5348518
0.041037081
0.024091266
0.009858998
0.0016132939
0.001615889
0.009883835
0.024154188
0.041145648
0.53673031
0.5389867
0.041255456
0.024214809
0.0099070714
0.001618897
0.0016230115
0.0099353219
0.024291905
0.041395714
0.54177696
0.54526906
0.041547327
0.024371205
0.0099630608
0.0016280281
0.001634675
0.0099960195
0.024468171
0.041732998
0.54972836
0.55539545
0.04193278
0.024568973
0.010028476
0.0016429618
0.0016540312
0.010067178
0.024691134
0.042171219
0.5627028
0.57242828
0.042461636
0.024839244
0.010121035
0.0016697683
0.0016944643
0.010226216
0.025109113
0.042971944
0.58579809
0.6043151
0.043986098
0.025654079
0.010369307
0.0017262848
0.0017786636
0.011000768
0.027236067
0.046620938
0.63671321
0.66153834
0.048364264
0.028311518
0.011497726
0.0018219634
0.0018339184
0.011805179
0.029018631
0.049366846
0.67905965
0.6777885
0.053113143
0.030916423
0.012385349
0.0018309177
0.52158042
0.064719917
0.036449964
0.014309891
0.0020327477
0.001907849
0.012677219
0.031445142
0.054531962
0.66190383
0.7577516
0.045189301
0.027109885
0.011228263
0.001808858
0.00178559
0.011248119
0.027537094
0.04704231
0.69965792
0.68878545
0.049898527
0.028865098
0.01164309
0.001805529
0.0018064574
0.011547746
0.028667634
0.049242023
0.66327984
0.62972009
0.045111055
0.026426057
0.010685017
0.0017560263
0.0017099094
0.010189857
0.025034988
0.042833186
0.59988802
0.58235501
0.041921735
0.024540198
0.010029117
0.0016765856
0.0016530648
0.0099426569
0.024330027
0.041513643
0.56982428
0.56059828
0.041264716
0.024203458
0.0098948377
0.0016380364
0.0016276963
0.0098635064
0.024106216
0.041067304
0.55365432
0.54824985
0.040882814
0.024013698
0.009832863
0.0016197189
0.0016136478
0.0098043091
0.023929346
0.040717645
0.5439842
0.54060321
0.040565274
0.023848043
0.0097750888
0.0016087191
0.0016049845
0.0097494411
0.02377864
0.040437715
0.53789735
0.53570586
0.040321298
0.023712708
0.0097236552
0.0016018846
0.0015995941
0.0097016886
0.02365775
0.040225585
0.53387233
0.53230874
0.040134848
0.02360386
0.0096792069
0.0015975769
0.0015961018
0.0096606277
0.023559987
0.040062144
0.53089167
0.52958459
0.039988509
0.023514829
0.009641052
0.0015946529
0.0015935416
0.0096251328
0.023477683
0.039926806
0.52839949
0.52727582
0.039863411
0.023439284
0.009608573
0.0015923404
0.0015914319
0.0095957523
0.023408927
0.039812145
0.52621525
0.52516054
0.039760786
0.023377746
0.009582333
0.0015904258
0.0015896673
0.0095718073
0.023352159
0.039716959
0.52415651
0.52311615
0.039668556
0.023323289
0.0095597177
0.001588744
0.0015880231
0.0095498834
0.023298726
0.039625865
0.5220748
0.5210246
0.039578713
0.023270715
0.00953829
0.0015871201
0.0015863765
0.0095281945
0.023245028
0.039533721
0.51993454
0.51880739
0.03948138
0.023214177
0.0095156365
0.0015854092
0.0015845752
0.0095042742
0.023185211
0.039430893
0.51762836
0.51640309
0.039370204
0.023149532
0.009489889
0.0015834847
0.0015825275
0.0094768747
0.023116614
0.039313471
0.51514051
0.51384093
0.039246552
0.023077127
0.0094609214
0.0015813236
0.001580245
0.009446209
0.0230401
0.039183195
0.51251411
0.51117818
0.039110797
0.022997134
0.0094287842
0.0015789343
0.0015777897
0.0094133576
0.022958909
0.039046455
0.50988872
0.50886064
0.038992535
0.022924947
0.0093987223
0.0015766054
0.0015185999
0.0087954528
0.02130618
0.035962533
0.57114991
0.57257837
0.036015587
0.021338285
0.008808962
0.0015196302
0.0015209027
0.0088262893
0.021381475
0.036087167
0.57414061
0.57571002
0.036143708
0.021414944
0.008840053
0.0015219263
0.0015231371
0.0088565544
0.021456465
0.036213094
0.57726437
0.57877979
0.036264472
0.021486555
0.0088688723
0.001524057
0.0015251565
0.0088837289
0.02152403
0.0363272
0.58025819
0.58168552
0.036372169
0.021550171
0.0088944322
0.0015259638
0.0015269589
0.0089077986
0.021583916
0.036428688
0.58306806
0.58439537
0.036469082
0.021606947
0.0089171673
0.0015276648
0.0015285573
0.0089289332
0.021636252
0.036517636
0.58567898
0.58692243
0.036553998
0.021656968
0.0089374983
0.0015292044
0.0015300714
0.0089490351
0.02168542
0.036601088
0.58817122
0.58938284
0.036634419
0.021704992
0.0089575271
0.0015307127
0.0015316449
0.0089703404
0.021736077
0.03668551
0.59059903
0.5918213
0.036724216
0.021759156
0.0089805359
0.0015323763
0.0015334297
0.0089955705
0.021795014
0.036782859
0.59308623
0.59440383
0.036833294
0.021824931
0.0090086076
0.0015343052
0.0015354838
0.0090257457
0.021865041
0.036897796
0.59581979
0.59733689
0.036956873
0.021900783
0.0090413233
0.0015365721
0.0015380907
0.0090607621
0.021946974
0.03703101
0.59900307
0.60081809
0.037106859
0.021991309
0.0090789789
0.0015397414
0.0015420463
0.0091007714
0.022046684
0.037201268
0.60291385
0.60538751
0.037297898
0.022099789
0.0091206697
0.0015447432
0.0015483844
0.0091430611
0.022162608
0.03741342
0.60839253
0.61205305
0.037530045
0.022220888
0.0091620368
0.0015527645
0.001558502
0.0091813267
0.022284358
0.037661185
0.61659613
0.62227332
0.037784946
0.022337217
0.0091946744
0.0015656235
0.0015750683
0.0092069094
0.022388168
0.037909756
0.62944571
0.63874348
0.038035638
0.022436791
0.0092216193
0.0015881135
0.0016090356
0.0092683671
0.022546743
0.038267511
0.65105692
0.66738109
0.0388143
0.022851996
0.0093648259
0.0016386922
0.0016845562
0.0097093798
0.023779532
0.040259414
0.69341271
0.71844664
0.043158593
0.025714329
0.010597321
0.0017476717
0.0017921287
0.011252028
0.027262996
0.045328995
0.72539656
0.67496998
0.054736583
0.031688879
0.012726042
0.0018632409
0.0018552744
0.011988349
0.029546915
0.05033903
0.67762211
0.65779581
0.045577255
0.02692045
0.010997835
0.0017977927
0.0017810194
0.010995151
0.027213359
0.046750848
0.63462542
0.60023657
0.043762974
0.025466688
0.01025829
0.001722073
0.0016918777
0.010158101
0.02496891
0.042771799
0.58188371
0.56877119
0.042282191
0.024720184
0.010066634
0.0016672809
0.001651788
0.010023609
0.024593666
0.042020181
0.55950927
0.55267587
0.041815346
0.024494202
0.0099947855
0.0016410609
0.0016330561
0.0099693365
0.02440721
0.041635838
0.54748626
0.54346282
0.041475475
0.02432697
0.0099435781
0.0016267385
0.0016219813
0.0099206103
0.024257461
0.041339057
0.54036016
0.53787918
0.041217961
0.02419258
0.0098972935
0.0016181591
0.0016153201
0.009876262
0.02413591
0.041114452
0.53588777
0.53418941
0.04101974
0.024081461
0.0098545504
0.001612932
0.0016111593
0.0098354161
0.024034131
0.040938196
0.53274788
0.5313987
0.040865567
0.023989721
0.0098163489
0.0016095723
0.0016083615
0.009799656
0.023950136
0.040799358
0.5301863
0.52901597
0.040736154
0.023911551
0.0097828649
0.0016071225
0.0016061486
0.0097688312
0.023877936
0.040678905
0.5279411
0.52687057
0.040622796
0.023844214
0.0097543745
0.0016050697
0.0016042452
0.0097428696
0.023816292
0.040574795
0.5258746
0.52485141
0.040526835
0.023787512
0.0097306273
0.0016033027
0.0016025781
0.0097207004
0.023762908
0.040484247
0.52386951
0.52284219
0.040438698
0.02373589
0.0097094255
0.0016016932
0.0016009786
0.0096997073
0.023711207
0.040395459
0.52182452
0.5207408
0.04034724
0.023682815
0.0096880638
0.0016000671
0.0015992926
0.0096775003
0.023655748
0.040299807
0.51965282
0.51848124
0.040247825
0.023625071
0.0096649597
0.0015983144
0.001597428
0.0096527059
0.023593462
0.040192355
0.51730882
0.5160556
0.040133965
0.02355879
0.0096385367
0.0015963343
0.001595316
0.0096243939
0.023522482
0.040070651
0.51479951
0.51346239
0.040003447
0.023482546
0.0096081261
0.0015940795
0.0015929245
0.0095921105
0.023441791
0.039933076
0.51212805
0.51074015
0.039857982
0.023397102
0.0095739215
0.0015915567
0.0015903411
0.0095574851
0.023356232
0.039788937
0.50945833
0.50978121
0.039803367
0.023362572
0.0095592795
0.0015903593
0.0015916075
0.0095749397
0.023399949
0.039863296
0.51088849
0.51216213
0.03993027
0.023438864
0.009590623
0.0015927616
0.0015940492
0.0096075663
0.023480803
0.040000067
0.51347988
0.51477509
0.040063378
0.023517241
0.0096221508
0.0015951161
0.0015963072
0.0096378116
0.023556249
0.040128648
0.51604288
0.51727904
0.040186007
0.023588982
0.0096508452
0.0015972612
0.0015983408
0.009664944
0.023624177
0.040245071
0.51848052
0.51964616
0.040297169
0.023653408
0.0096764786
0.0015991819
0.0016001485
0.0096889467
0.023684391
0.040348999
0.52077833
0.52186296
0.0403949
0.023710081
0.0096991553
0.0016008957
0.0016017975
0.0097107391
0.023738684
0.040442784
0.5229289
0.52394691
0.040484869
0.023762372
0.0097203427
0.0016025011
0.001603405
0.0097320097
0.023790621
0.040531755
0.52497332
0.52598377
0.040574482
0.023815179
0.00974232
0.0016041564
0.0016051759
0.0097557973
0.023847275
0.040627534
0.52701478
0.52808804
0.040678543
0.023876911
0.009768434
0.0016060756
0.0016072707
0.0097848076
0.023915525
0.040742044
0.52923212
0.53045126
0.040803131
0.023951675
0.0098004
0.0016083692
0.0016098176
0.009819634
0.023996692
0.04087636
0.53176963
0.53318923
0.040949374
0.02403986
0.0098379101
0.001611304
0.001613342
0.0098601283
0.024093831
0.041040129
0.53476868
0.53661019
0.041136475
0.024148424
0.0098819158
0.0016156634
0.0016187989
0.009907257
0.024214072
0.04125255
0.53881762
0.54152115
0.041380211
0.024282674
0.0099325179
0.0016225863
0.0016275865
0.0099612317
0.02436325
0.041531497
0.54489415
0.54915336
0.041698032
0.024448005
0.0099901115
0.0016337784
0.0016419136
0.010022369
0.024544994
0.041889374
0.55457492
0.56156042
0.042099102
0.024650042
0.010056306
0.0016524192
0.0016678686
0.010109373
0.024789735
0.042371352
0.57091781
0.58390713
0.04284384
0.025036537
0.010209787
0.0016922012
0.0017259439
0.010382862
0.025592361
0.043870458
0.60239647
0.63454453
0.046431568
0.027142709
0.01096524
0.0017743807
0.0018242773
0.011590807
0.028551011
0.048986382
0.66206538
0.677444
0.047735016
0.028153827
0.011504198
0.0018050435
1.6017958
2.8044792
2.0344093
0.72734753
0.045404395
0.027254626
0.011222069
0.0017937599
0.0018240461
0.011825849
0.029406554
0.050949426
0.68605324
0.0019940081
0.01386996
0.0351967
0.062274561
0.51805903
0.44995214
0.059007747
0.033337722
0.013142592
0.0019174453
0.001922431
0.013079483
0.033263027
0.058963702
0.44763643
0.59826389
0.05659357
0.03226438
0.012876763
0.001892604
1.0895265
1.3029227
2.5496735
2.0306633
8.1935404
8.2690548
8.2683995
8.1934854
8.2799369
8.2828685
8.2490083
8.2326394
0.0015766848
0.0093996228
0.022927247
0.038996358
0.50882457
0.50989348
0.039041657
0.022955254
0.0094118301
0.0015776629
0.0015789863
0.0094296292
0.022999741
0.039115879
0.51117821
0.51251091
0.039174485
0.023034129
0.0094437864
0.0015800483
0.0015813273
0.0094612049
0.023078341
0.039249227
0.51382174
0.51510346
0.039302771
0.02310934
0.0094738614
0.0015822743
0.0015834181
0.0094893103
0.023148733
0.039369738
0.5163497
0.51754769
0.039414341
0.02317454
0.0094999837
0.0015842355
0.0015852925
0.0095142651
0.023211141
0.039476771
0.51870598
0.51982554
0.039515481
0.023233397
0.0095235502
0.0015860114
0.0015869929
0.0095367407
0.023267077
0.039572824
0.52090573
0.52195569
0.039607826
0.023287214
0.0095452786
0.0015876572
0.0015886169
0.0095581981
0.02331975
0.039662792
0.52298727
0.52400534
0.039698438
0.023340385
0.0095670985
0.0015892955
0.0015902977
0.0095807013
0.023373735
0.039753901
0.52502272
0.52605802
0.039794768
0.023397782
0.0095912825
0.0015910769
0.0015922236
0.0096071053
0.023435877
0.039857858
0.52712489
0.52824386
0.039908478
0.023466129
0.0096205337
0.0015931856
0.0015945455
0.0096397274
0.023511886
0.039983813
0.52944572
0.53073835
0.040045165
0.023549039
0.0096561742
0.0015957543
0.0015974506
0.0096775605
0.023600001
0.040128533
0.53214365
0.5337023
0.040206563
0.023645812
0.0096969496
0.0015992355
0.0016017513
0.0097217585
0.023707951
0.040313311
0.53553017
0.5377447
0.040419227
0.023766695
0.0097447043
0.0016046338
0.0016085703
0.0097727139
0.023841689
0.040555013
0.54048742
0.54393805
0.040697081
0.0239164
0.0097995812
0.0016133334
0.0016197131
0.0098317585
0.024008943
0.040874477
0.54833648
0.55397161
0.041060786
0.024102768
0.0098633523
0.0016277717
0.0016387465
0.0099043181
0.024222228
0.041292544
0.56127785
0.57106779
0.04159257
0.024379716
0.0099635495
0.0016543517
0.0016790376
0.010076947
0.024677365
0.042142485
0.58448449
0.60301878
0.043243268
0.025276952
0.010241848
0.0017103142
0.0017630977
0.010943745
0.026987339
0.046115834
0.63506012
0.65883631
0.046936382
0.027554214
0.011179229
0.0017793404
0.0018186365
0.011784564
0.029330625
0.050826477
0.68160597
0.045699336
0.027381806
0.01136725
0.0018161628
0.0017824446
0.010779162
0.025810348
0.042867876
0.74052618
0.63893603
0.048969678
0.028376222
0.011490508
0.0018420897
0.0018918542
0.012785923
0.032084735
0.056644302
0.5924458
0.69334426
0.048024355
0.027964414
0.011426555
0.0017945341
0.0018192904
0.011793909
0.029352723
0.050862688
0.68217216
0.65931988
0.046962213
0.027569426
0.011185674
0.0017798471
0.0017636053
0.010950077
0.027002603
0.04614186
0.6354285
0.60333362
0.043265601
0.025291264
0.010247818
0.0017107924
0.001679483
0.010082083
0.024689148
0.042160893
0.58479148
0.57136091
0.041616162
0.024394416
0.0099694822
0.0016548363
0.0016391843
0.0099089849
0.024233182
0.041309896
0.56155941
0.55421937
0.041082558
0.024115973
0.0098684991
0.0016282362
0.0016201243
0.0098357545
0.024018334
0.040889707
0.54858308
0.54414721
0.040717714
0.023928732
0.0098043029
0.0016137729
0.0016089638
0.0097764982
0.02385066
0.040569803
0.54071387
0.53794381
0.04043967
0.023778962
0.0097493823
0.0016050621
0.0016021511
0.0097258783
0.023717836
0.04032978
0.53576406
0.53390809
0.040230539
0.023660135
0.0097024039
0.0015996964
0.0015978762
0.0096821948
0.023610839
0.040145958
0.53235522
0.5309152
0.040065025
0.023561855
0.009661353
0.0015961896
0.0015949301
0.0096439462
0.023521287
0.039998144
0.52963036
0.52841651
0.039932178
0.023480774
0.0096262392
0.0015936387
0.0015926406
0.0096118807
0.02344684
0.039874987
0.52733415
0.52625469
0.039820133
0.023413381
0.0095973369
0.0015915587
0.0015907418
0.0095858356
0.023385697
0.039772927
0.52524148
0.52419706
0.039726353
0.023357374
0.0095736713
0.0015898076
0.0015890796
0.0095636005
0.02333225
0.039682446
0.52319824
0.52211665
0.039632849
0.023302838
0.00955145
0.0015881489
0.0015873999
0.0095412725
0.023277097
0.039587861
0.52104384
0.51993372
0.03953739
0.02324716
0.0095289743
0.0015864436
0.0015856468
0.0095182342
0.023219843
0.039489744
0.51882138
0.51765502
0.039436455
0.023188205
0.0095052775
0.0015846403
0.0015837508
0.0094931211
0.023157086
0.039382122
0.51645149
0.51516015
0.039317868
0.023119215
0.00947784
0.0015825974
0.001581564
0.0094637169
0.023083434
0.039256205
0.51385833
0.51249731
0.03918523
0.023041396
0.0094467
0.0015802842
0.0015791233
0.0094308088
0.023001403
0.039116855
0.51112795
0.50972818
0.039041791
0.022956609
0.0094125486
0.0015777489
0.0015764949
0.0093953176
0.02291342
0.038968324
0.50834672
0.50703896
0.038897682
0.02287046
0.0093774648
0.0015751114
0.5095734
0.039786445
0.023353128
0.0095558918
0.0015901674
0.0015915057
0.0095735078
0.023396705
0.039858414
0.51077543
0.51208702
0.039919736
0.023432859
0.0095884301
0.0015926244
0.0015939708
0.0096066979
0.023479079
0.039997821
0.51341579
0.51472516
0.040055853
0.023512789
0.0096204672
0.0015949991
0.0015962288
0.0096371137
0.023555151
0.040127747
0.51600221
0.51723869
0.040178487
0.023584353
0.0096490321
0.0015971254
0.0015982332
0.0096639875
0.023622602
0.040243624
0.51843563
0.51958443
0.040287424
0.023647512
0.0096741379
0.0015989998
0.0015999823
0.0096872186
0.023680885
0.040344265
0.52068481
0.52173115
0.040381517
0.023702061
0.0096959891
0.0016006555
0.0016015832
0.0097082781
0.023733114
0.040434139
0.52276078
0.52378431
0.040469689
0.023753325
0.009716798
0.001602236
0.0016031823
0.0097294888
0.023785009
0.040523117
0.52479027
0.52578248
0.040558355
0.023805614
0.0097385381
0.0016038721
0.0016049288
0.0097528978
0.023840832
0.040617491
0.52678247
0.52780966
0.040661171
0.023866512
0.0097642251
0.0016057647
0.0016069858
0.0097812451
0.023907559
0.040729454
0.52890086
0.53005238
0.040783687
0.023939945
0.009795551
0.0016080179
0.0016094705
0.0098152608
0.023986989
0.04086096
0.53130064
0.53264359
0.040924454
0.024025507
0.0098320144
0.0016108453
0.0016128365
0.0098539456
0.024079803
0.041016463
0.53409675
0.53576235
0.041101625
0.02412787
0.0098730863
0.0016150019
0.001618032
0.0098964953
0.024190312
0.041213431
0.53774716
0.5402025
0.041325907
0.024249307
0.0099174051
0.0016216427
0.0016265711
0.0099425173
0.024324098
0.041470047
0.54330012
0.54728663
0.041621049
0.02439816
0.009965765
0.0016326842
0.0016408521
0.0099932222
0.02449011
0.041808034
0.55246517
0.5592585
0.042004604
0.024584044
0.010019734
0.0016513897
0.0016669989
0.010064177
0.024714296
0.042272315
0.56849374
0.58153523
0.042752708
0.02495695
0.010153075
0.0016913996
0.0017216886
0.010253929
0.025456556
0.043746424
0.5998153
0.63406373
0.046724451
0.027197125
0.010988213
0.0017804222
0.0017972716
0.01099061
0.02690324
0.045548361
0.65707683
0.67675633
0.050304645
0.02952684
0.011979019
0.0018547382
0.0018626193
0.012705515
0.03166157
0.054700652
0.67408995
0.72441513
0.045300677
0.027245101
0.011243439
0.0017915823
0.0018046088
0.011633223
0.028840578
0.049859677
0.68781395
0.68333425
0.04853772
0.028193808
0.011408
0.0017882469
0.0017454695
0.010638254
0.025645311
0.042399461
0.72229835
0.67697631
0.047722828
0.028146104
0.011498693
0.0018048206
0.0018338935
0.011801716
0.029017061
0.049365336
0.67884722
0.72722108
0.045409812
0.027257089
0.011220939
0.0017938328
0.0018242921
0.0118282
0.0294162
0.050967037
0.68626685
0.66190799
0.04620812
0.027173456
0.011033062
0.0017743211
0.0017587918
0.010881739
0.026853487
0.045935261
0.63777435
0.60516259
0.04326277
0.025271704
0.010233156
0.0017089677
0.0016786085
0.010074636
0.024682952
0.042170568
0.58594667
0.57217694
0.041623483
0.024392126
0.0099660643
0.0016544107
0.0016390619
0.0099092402
0.024236316
0.041321053
0.56220255
0.55475006
0.041094646
0.024121547
0.0098704126
0.0016282688
0.001620251
0.0098386177
0.024025641
0.040903391
0.54904115
0.54454459
0.040730177
0.023935893
0.009807272
0.0016139361
0.0016091422
0.0097794647
0.023857824
0.04058207
0.54104469
0.53821864
0.040448732
0.023784469
0.0097517599
0.001605221
0.0016022859
0.0097278043
0.023722422
0.040337552
0.53597446
0.53407384
0.040235889
0.023663339
0.0097037832
0.0015998006
0.0015979594
0.0096832857
0.023613486
0.040150544
0.53248445
0.53103579
0.040070812
0.02356508
0.0096626016
0.0015962771
0.0015950195
0.0096452158
0.023524527
0.040003814
0.52974594
0.52852593
0.039936824
0.023483482
0.0096273399
0.0015937202
0.0015927205
0.00961299
0.023449636
0.039879835
0.52742175
0.52631755
0.039819828
0.023413548
0.0095975852
0.0015915925
0.0015907555
0.0095859199
0.023385802
0.039773092
0.52525639
0.52420181
0.039720449
0.023354356
0.0095726978
0.0015897602
0.0015890135
0.0095626051
0.02332972
0.039678299
0.52315378
0.52208817
0.03962788
0.023299965
0.0095503423
0.0015880722
0.0015873335
0.0095404518
0.023275254
0.039585151
0.5210188
0.51989736
0.039535409
0.023245858
0.0095283942
0.0015863937
0.001585612
0.0095178716
0.02321915
0.039488889
0.51881244
0.51762386
0.039431259
0.023185351
0.0095042452
0.0015845739
0.0015836782
0.0094921234
0.023154659
0.039378203
0.51640426
0.51513924
0.039314346
0.023117078
0.0094769629
0.0015825299
0.0015815056
0.0094630044
0.023081809
0.039253725
0.51383375
0.51251845
0.039185352
0.023041225
0.0094465152
0.0015802567
0.0015791109
0.0094307772
0.023001511
0.039117273
0.51113955
0.50973355
0.039038891
0.022955073
0.0094120166
0.0015777136
0.0015764587