/*--------------------------------*- C++ -*----------------------------------*\
  =========                 |
  \\      /  F ield         | OpenFOAM: The Open Source CFD Toolbox
   \\    /   O peration     | Website:  https://openfoam.org
    \\  /    A nd           | Version:  7
     \\/     M anipulation  |
\*---------------------------------------------------------------------------*/
FoamFile
{
    version     2.0;
    format      ascii;
    class       surfaceScalarField;
    location    "170";
    object      phi;
}
// * * * * * * * * * * * * * * * * * * * * * * * * * * * * * * * * * * * * * //

dimensions      [1 0 -1 0 0 0 0];

internalField   nonuniform List<scalar> 
74673
(
3.5088439e-07
-0.0022995084
-1.9228294e-07
5.5163577e-07
-0.0027431329
-2.1895926e-07
6.9672632e-07
-0.0031130084
-2.3874082e-07
8.2047448e-07
-0.0034924257
-2.58189e-07
-0.056618697
-3.9833571e-06
7.8994163e-07
-9.5833029e-07
-0.056617405
-3.539419e-06
2.2027429e-06
1.0032078e-06
-8.0146312e-07
-0.0034925969
-2.2787104e-07
2.4226784e-07
-6.1631687e-07
-0.0031132048
-2.1134876e-07
2.2273667e-07
-3.7237815e-07
-0.0027433841
-1.9413038e-07
2.0153385e-07
-0.0022998838
-1.6959258e-07
1.7254942e-07
3.758944e-07
-0.002300265
-1.1902812e-07
1.2466502e-07
6.2089149e-07
-0.0027436407
-1.3555518e-07
1.4727574e-07
8.1020571e-07
-0.003113411
-1.4705929e-07
1.6398408e-07
9.6939067e-07
-0.0034927767
-1.5844915e-07
1.7902913e-07
-0.056616353
-2.5034153e-06
1.6568686e-06
7.6360938e-07
-9.9655221e-07
-0.05661544
-1.4358405e-06
1.0385308e-06
4.8152572e-07
-8.2408607e-07
-0.0034929667
-9.4150465e-08
1.1185396e-07
-6.2656532e-07
-0.0031136221
-8.8755044e-08
1.0253165e-07
-3.7395312e-07
-0.0027439015
-8.3326622e-08
9.1971326e-08
-0.0023006416
-7.4576427e-08
7.7261444e-08
3.6728649e-07
-0.0023010098
-3.6419911e-08
3.7832369e-08
6.2162295e-07
-0.0027441629
-3.8637851e-08
4.5920482e-08
8.2599055e-07
-0.003113839
-3.9087794e-08
5.1803702e-08
1.0036591e-06
-0.0034931613
-3.986869e-08
5.6862686e-08
-0.056614639
-5.6051044e-07
5.3742904e-07
2.2517454e-07
-1.0030072e-06
-0.056613916
1.9399544e-08
2.1203147e-07
4.9392522e-08
-8.2226874e-07
-0.0034933595
-4.8672395e-09
2.2554996e-08
-6.1305595e-07
-0.0031140611
-7.3113797e-09
2.0433073e-08
-3.5647658e-07
-0.0027444267
-9.9607673e-09
1.7756161e-08
-0.0023013681
-1.1782786e-08
1.3634543e-08
3.4367962e-07
-0.0023017139
1.850804e-09
9.8224137e-10
5.9980546e-07
-0.0027446911
5.774087e-09
2.7954731e-09
8.1071834e-07
-0.0031142858
1.0169198e-08
3.7922088e-09
9.9736562e-07
-0.0034935646
1.437286e-08
4.0763994e-09
-0.056613219
3.4717591e-07
2.4212878e-08
-7.1308123e-08
-9.8539413e-07
-0.056612538
5.1908004e-07
-5.9576812e-08
-1.543014e-07
-7.9549649e-07
-0.0034937742
2.3769628e-08
-3.7865026e-09
-5.8333355e-07
-0.0031145129
1.8540387e-08
-3.3076557e-09
-3.3178936e-07
-0.0027449519
1.3325647e-08
-3.4680685e-09
-0.0023020498
8.4425703e-09
-4.3218084e-09
3.164777e-07
-0.0023023853
1.3565904e-08
6.1322721e-09
5.6009836e-07
-0.002745222
1.905234e-08
7.6680715e-09
7.7405268e-07
-0.0031147594
2.4834703e-08
7.8875617e-09
9.6059013e-07
-0.0034939987
3.0646507e-08
7.3205167e-09
-0.056612016
6.4760423e-07
-2.7340421e-08
-1.8232313e-07
-9.2302e-07
-0.056611469
7.6291748e-07
-1.4706515e-07
-2.3922989e-07
-7.3815622e-07
-0.0034942092
3.703124e-08
-1.1219589e-08
-5.3286999e-07
-0.0031149851
3.0460085e-08
-9.7959396e-09
-2.9692663e-07
-0.0027454726
2.4387551e-08
-9.1969038e-09
-0.0023026917
1.8662494e-08
-9.1949518e-09
2.7218828e-07
-0.0023029774
2.3863698e-08
-9.7792832e-09
4.9473259e-07
-0.0027457148
2.9727477e-08
-9.8026808e-09
6.9038168e-07
-0.0031152061
3.6030362e-08
-1.0569986e-08
8.6378748e-07
-0.0034944131
4.2886883e-08
-1.2325769e-08
-0.056610941
8.5192764e-07
-1.7301268e-07
-3.4370987e-07
-7.8204349e-07
-0.056610374
9.1135622e-07
-1.9623725e-07
-4.9969536e-07
-6.2077191e-07
-0.0034946084
4.8030952e-08
-1.3900305e-08
-4.4202586e-07
-0.0031154138
4.1130195e-08
-1.1984351e-08
-2.4320483e-07
-0.0027459374
3.5183087e-08
-1.1137778e-08
-0.0023032389
2.9590867e-08
-1.1357332e-08
2.0623393e-07
-0.0023034675
3.5901431e-08
-1.3515779e-08
3.7466386e-07
-0.0027461335
4.1031701e-08
-1.3327749e-08
5.3014905e-07
-0.003115602
4.6834033e-08
-1.4177234e-08
6.6478976e-07
-0.0034947803
5.3564136e-08
-1.6323489e-08
-0.05660979
9.4048723e-07
-2.2305772e-07
-6.3610349e-07
-5.1273876e-07
-0.056609339
9.9155181e-07
-2.4948531e-07
-6.810407e-07
-4.0635739e-07
-0.003494927
6.0264424e-08
-2.0058445e-08
-2.8827559e-07
-0.0031157564
5.3748796e-08
-1.7548524e-08
-1.5909754e-07
-0.0027462945
4.8180198e-08
-1.658248e-08
-0.0023036529
4.3346697e-08
-1.70209e-08
1.0155013e-07
-0.0023037862
5.2932755e-08
-2.1864794e-08
1.7796595e-07
-0.0027464076
5.7715597e-08
-2.138465e-08
2.5096327e-07
-0.0031158705
6.3150702e-08
-2.2269594e-08
3.1432861e-07
-0.0034950351
6.9445122e-08
-2.4780974e-08
-0.056609163
1.0868431e-06
-2.6977152e-07
-6.7861371e-07
-7.2711118e-08
-0.056609395
1.2073119e-06
-2.9999376e-07
-6.0297741e-07
-5.6843453e-08
-0.0034950982
7.719857e-08
-3.029918e-08
-4.4119816e-08
-0.0031159269
7.1062746e-08
-2.7703757e-08
-3.1686591e-08
-0.0027464603
6.6252343e-08
-2.6788037e-08
-0.0023038525
6.1747927e-08
-2.7179745e-08
-4.8045939e-08
-0.0023038416
7.1404422e-08
-3.5752131e-08
-1.1712238e-07
-0.0027464316
7.5064848e-08
-3.5264356e-08
-1.7121212e-07
-0.0031159161
7.8926081e-08
-3.6120474e-08
-2.1520718e-07
-0.0034950997
8.4152983e-08
-3.8735368e-08
-0.056610371
1.3410345e-06
-3.4725495e-07
-2.3316181e-07
5.2684356e-07
-0.056612608
1.5154853e-06
-4.7765771e-07
6.7188354e-07
4.2304337e-07
-0.0034950216
9.2068759e-08
-6.6389235e-08
2.8663056e-07
-0.0031158039
8.7832723e-08
-6.345998e-08
1.3027684e-07
-0.0027462981
8.5508e-08
-6.2490285e-08
-0.0023037331
8.457037e-08
-6.2772683e-08
-1.9678958e-07
-0.0023035732
1.0331189e-07
-6.6632764e-08
-4.3906947e-07
-0.0027460917
9.9060658e-08
-6.3078017e-08
-6.4886432e-07
-0.0031156297
9.768799e-08
-6.2217456e-08
-8.016065e-07
-0.0034949053
1.0037739e-07
-6.3937618e-08
-0.056617075
1.7508763e-06
-4.0455336e-07
2.3189508e-06
9.0564728e-07
-0.056624675
2.152897e-06
-4.05865e-07
4.9467618e-06
7.407773e-07
-0.0034947749
1.1514662e-07
-8.099717e-08
4.9656517e-07
-0.0031154183
1.1317673e-07
-8.0557349e-08
2.0996762e-07
-0.0027458401
1.174413e-07
-8.3150477e-08
-0.0023034001
1.2608466e-07
-8.9229567e-08
-9.5639362e-08
-0.0023033436
1.5454439e-07
-1.1629364e-07
-3.148796e-07
-0.0027456569
1.4501221e-07
-1.0920337e-07
-4.9167669e-07
-0.0031152757
1.3906195e-07
-1.0522037e-07
-5.5089187e-07
-0.0034947529
1.4063928e-07
-1.0353396e-07
-0.056636812
2.8430052e-06
-4.0509734e-07
9.1474299e-06
-6.5420245e-07
-0.056655278
3.9389741e-06
-3.9984392e-07
1.5581118e-05
-3.9900668e-07
-0.003495058
1.7913145e-07
-1.2965175e-07
-2.991892e-07
-0.0031154171
1.7432504e-07
-1.3316926e-07
-2.350216e-07
-0.0027457617
1.7800932e-07
-1.3838979e-07
-0.0023036169
1.8299814e-07
-1.4478756e-07
8.9445927e-07
-0.002304543
2.1603276e-07
-1.8582822e-07
1.5749835e-06
-0.0027464855
2.2303747e-07
-1.8028173e-07
2.2877456e-06
-0.0031161841
2.2724479e-07
-1.7344981e-07
3.1876287e-06
-0.0034960303
2.3982287e-07
-1.6744692e-07
-0.056682293
5.6201407e-06
-3.8408503e-07
2.4966331e-05
-7.5054223e-06
-0.056720501
8.0336394e-06
-3.587843e-07
3.8037542e-05
-5.5202071e-06
-0.0034981282
3.3396699e-07
-2.2204478e-07
-3.7434104e-06
-0.003118037
3.0800647e-07
-2.3258034e-07
-1.9836642e-06
-0.0027482928
2.8848267e-07
-2.4259719e-07
-0.0023065382
2.5961188e-07
-2.480229e-07
3.6075092e-06
-0.0023101334
3.0450254e-07
-3.1938326e-07
7.0077235e-06
-0.0027517486
3.7088778e-07
-3.1649315e-07
1.0424267e-05
-0.0031215674
4.1876768e-07
-3.0572174e-07
1.406307e-05
-0.0035019432
4.6620567e-07
-2.9017402e-07
-0.056773138
1.1411662e-05
-3.7567473e-07
5.5662989e-05
-2.3279732e-05
-0.056844604
1.6263519e-05
-5.5663044e-07
7.9039001e-05
-1.7329224e-05
-0.0035081618
6.3846394e-07
-3.7115239e-07
-1.159137e-05
-0.0031274739
5.5700644e-07
-3.8933849e-07
-5.872792e-06
-0.0027575349
4.6061364e-07
-3.9497577e-07
-0.0023159484
3.2214757e-07
-3.7987505e-07
8.8601499e-06
-0.002324709
3.5299623e-07
-4.5642012e-07
1.7689872e-05
-0.0027664496
5.7691598e-07
-4.9404211e-07
2.6545825e-05
-0.0031365717
7.3831335e-07
-4.9785528e-07
3.5599508e-05
-0.0035176049
8.6923426e-07
-4.8007298e-07
-0.056940914
2.3140561e-05
-1.0950063e-06
0.00010986223
-5.1523e-05
-0.057069731
3.189873e-05
-2.225889e-06
0.00015066679
-3.8426251e-05
-0.0035312681
1.2063774e-06
-6.4210628e-07
-2.5509464e-05
-0.003149852
1.0132034e-06
-6.5216334e-07
-1.2654207e-05
-0.0027794571
7.766527e-07
-6.302271e-07
-0.0023372672
4.6538447e-07
-5.6138456e-07
1.7398407e-05
-0.0023546777
6.0870079e-07
-6.0429808e-07
3.5034904e-05
-0.0027973401
9.8179871e-07
-7.3961062e-07
5.2811773e-05
-0.003168123
1.287026e-06
-7.9554298e-07
7.0775537e-05
-0.0035499737
1.5443179e-06
-8.0287744e-07
-0.057242211
4.1377724e-05
-3.7329236e-06
0.00020560894
-9.528445e-05
-0.057481604
5.2057025e-05
-5.5377653e-06
0.00028815609
-7.0854587e-05
-0.0035752438
1.7130488e-06
-8.7638203e-07
-4.6829595e-05
-0.0031927031
1.3827529e-06
-8.3186749e-07
-2.3217428e-05
-0.0028212859
1.0407058e-06
-7.1656361e-07
-0.0023780493
6.7473597e-07
-5.2061017e-07
3.1981316e-05
-0.0024101526
6.8681478e-07
-5.8044335e-07
6.8753471e-05
-0.0028582901
8.8042898e-07
-6.5639115e-07
0.00010678261
-0.0032310843
1.2237183e-06
-8.7657531e-07
0.00014548795
-0.0036146692
1.7497944e-06
-1.0302061e-06
-0.057811488
7.4755885e-05
-1.0790185e-05
0.00041140593
-0.00022461595
-0.058126966
9.7422194e-05
-1.303236e-05
0.00045570315
-0.00016420072
-0.0036749637
4.525708e-07
-5.7758754e-07
-0.00010288808
-0.0032916065
-4.0670456e-07
-3.887347e-07
-4.5284462e-05
-0.0029147574
-1.022579e-06
-1.2528109e-07
-0.0024536757
-1.2358745e-06
-5.2550988e-07
9.5161362e-05
-0.0025354784
-1.5010168e-05
1.6047293e-06
0.00017500998
-0.0029863086
-9.09351e-06
7.7616439e-07
0.00024912844
-0.0033612066
-5.8248934e-06
1.2949375e-06
0.00032528416
-0.0037477202
-5.226224e-06
1.8268716e-06
-0.058239124
6.8764939e-05
5.8415325e-06
0.00036283813
0.00011098199
-0.059628224
3.7364155e-05
-2.8001773e-05
0.0012687613
7.8420374e-05
-0.0037196954
1.0247182e-05
-5.7001184e-06
5.112806e-05
-0.0033375701
9.1221466e-06
-5.4547846e-06
2.6012289e-05
-0.0029663326
1.1221618e-05
-6.0557013e-06
-0.0025213518
2.0985375e-05
-9.0994873e-06
-2.6866067e-05
-0.002402826
-0.00010221568
1.0609121e-05
-5.6926574e-05
-0.0028264245
-0.00011480294
4.9776052e-06
-9.3520737e-05
-0.0031817039
-0.00012276927
3.5140472e-06
-0.00013702022
-0.0035485295
-0.00013135972
3.6954601e-06
-0.059688025
-0.0018837678
3.1539836e-05
0.0017750149
0.00056235215
-0.056425623
-0.0031063735
6.9867089e-05
-0.00078823978
0.00039086516
-0.0031900949
-0.00020117341
1.4227641e-05
0.00024166266
-0.0028578352
-0.00018822783
1.3563499e-05
0.00011090034
-0.0025374874
-0.00017230689
1.4136471e-05
-0.0021630627
-0.00014550326
1.664028e-05
-2.1251252e-05
0.0020327894
-0.0021318456
-0.0020427541
-5.0791108e-05
0.0024119619
-0.0025152373
-0.0024046724
-8.2151154e-05
0.0027520226
-0.0028515974
-0.002726901
-0.00011395633
0.0031167356
-0.003205308
-0.0030697172
0.071600467
-0.02772929
-0.034743232
-0.065667526
0.00029225572
0.087029465
-0.014439584
-0.0043880415
0.00019251316
0.0038309434
-0.00081563688
0.00010187755
0.0033782579
-0.00072382555
2.9826206e-05
0.0029532427
-0.00064153224
0.0024721314
-0.00055501886
-0.00010052165
0.0024785298
-8.0342946e-06
-0.00020065254
0.0029637802
-2.5187085e-05
-0.00030353362
0.003395158
-3.6769699e-05
-0.00041598476
0.0038587545
-4.6718358e-05
0.085397439
-0.0015904599
0.00092274007
-0.00024261788
0.084987342
-0.00054893016
0.0012390111
-0.00019437287
0.0038652852
-4.4525094e-05
-0.00014802616
0.0033990054
-4.1068317e-05
-9.1210584e-05
0.0029607531
-4.2558754e-05
0.0024592081
-5.0903551e-05
6.091173e-05
0.0023917054
-8.4219551e-06
0.00013341232
0.0028928424
-1.3682731e-05
0.00021299312
0.0033289957
-1.539519e-05
0.00029708644
0.0037911753
-1.5208865e-05
0.084768528
-0.00012046323
0.00070513175
-0.00021864967
0.084324044
-2.6244161e-05
0.00078680144
-0.00015535286
0.0037307829
-2.4513111e-06
-9.5164357e-05
0.0032706653
-2.2643395e-06
-4.1063863e-05
0.002839469
-1.7486713e-06
0.0023498566
-4.5100671e-07
3.0080581e-05
0.0023205417
-8.1062923e-08
6.5251313e-05
0.0028051845
-5.3677926e-09
0.00010308457
0.0032340306
2.5268913e-08
0.00014347259
0.0036921183
2.6571242e-08
0.083894961
1.0669162e-06
0.00064624518
-9.6843514e-05
0.083580157
1.2814801e-05
0.00045088928
-7.0404499e-05
0.0036662647
1.1274958e-06
-4.5516615e-05
0.0032094599
1.0653348e-06
-2.2047185e-05
0.0027817813
9.7388463e-07
0.0022983528
8.1642779e-07
1.6193013e-05
0.0022816234
1.1442602e-06
3.3664288e-05
0.0027640282
1.2640964e-06
5.2224636e-05
0.0031908608
1.3257888e-06
7.1916062e-05
0.0036467598
1.3577697e-06
0.083348081
1.1687557e-05
0.00033368288
-5.1812933e-05
0.083171461
8.0546191e-06
0.00025227649
-3.7482183e-05
0.0036324615
1.1737585e-06
-2.4083207e-05
0.0031773103
1.1645277e-06
-1.1512571e-05
0.0027511017
1.1319777e-06
0.0022695188
1.057409e-06
7.9915375e-06
0.0022610163
8.63213e-07
1.6577384e-05
0.0027422082
8.846558e-07
2.5739873e-05
0.0031680024
8.8360926e-07
3.5642294e-05
0.0036225537
8.7460114e-07
0.083037092
4.8873328e-06
0.00018826426
-2.3475027e-05
0.082936059
2.9847204e-06
0.0001377872
-1.6925724e-05
0.0036160168
6.2591403e-07
-1.0950475e-05
0.0031619422
6.4172325e-07
-5.3436083e-06
0.0027363997
6.6182744e-07
0.0022553176
6.7728941e-07
3.3521826e-06
0.0022517652
5.0425865e-07
6.7257e-06
0.0027329249
4.7205382e-07
1.0313462e-05
0.0031583261
4.4684172e-07
1.4335942e-05
0.003612026
4.3447928e-07
0.082860837
2.180598e-06
9.8788061e-05
-7.6767398e-06
0.082805718
1.9156309e-06
6.8913929e-05
-5.4953354e-06
0.0036098883
2.9000524e-07
-3.6331676e-06
0.0031564761
2.9565013e-07
-1.8758145e-06
0.0027311381
3.1751412e-07
0.0022497979
3.5103689e-07
8.771971e-07
0.0022489145
2.220449e-07
1.5664608e-06
0.002730485
1.8681149e-07
2.3027384e-06
0.0031557955
1.7135732e-07
3.2645154e-06
0.0036089922
1.7408785e-07
0.082766364
1.7657632e-06
4.6471954e-05
-6.8549687e-07
0.082739219
1.6290265e-06
3.0139677e-05
-4.418711e-07
0.0036088296
9.7915138e-08
-3.5174663e-07
0.0031557895
9.0097617e-08
-2.748604e-07
0.0027304902
9.5552794e-08
0.0022487057
1.1699568e-07
-2.5112875e-08
0.0022488355
4.9705695e-08
-2.3000787e-07
0.0027307936
4.6352986e-08
-4.3132486e-07
0.0031560783
5.1341729e-08
-5.3397595e-07
0.0036090102
6.2563556e-08
0.082721232
1.542607e-06
1.8753207e-05
9.0796496e-07
0.082709884
1.4399605e-06
1.1153123e-05
6.9770985e-07
0.0036092743
6.1148869e-08
4.2249519e-07
0.003156417
4.9488913e-08
1.4463297e-07
0.0027311506
3.7926537e-08
0.0022490801
2.6130032e-08
-1.4818168e-07
0.0022492962
3.526772e-08
-3.8498714e-07
0.0027314378
4.8611144e-08
-6.0915451e-07
0.003156679
5.9732435e-08
-7.9402739e-07
0.0036094898
6.9734691e-08
0.08270313
1.3470511e-06
6.3632456e-06
4.6092976e-07
0.082699537
1.230514e-06
3.4171188e-06
3.5781535e-07
0.0036096069
7.7922776e-08
2.2767628e-07
0.0031568277
6.9202508e-08
9.1283083e-08
0.0027316012
5.8344552e-08
0.0022494286
4.3509193e-08
-9.3910362e-09
0.0022494573
5.0483975e-08
-4.9945106e-08
0.0027316522
6.3960066e-08
-7.6888708e-08
0.0031568601
7.2949782e-08
-9.0521869e-08
0.0036096249
7.9753538e-08
0.082697971
1.1017222e-06
1.7145916e-06
-2.2872707e-07
0.082697597
1.0124663e-06
7.9697203e-07
-1.6775388e-07
0.0036095585
8.252846e-08
-1.1335724e-07
0.0031567998
7.6798951e-08
-6.8102481e-08
0.0027316033
6.9612469e-08
0.0022493925
5.8409087e-08
1.2611845e-07
0.0022492533
6.582805e-08
2.3842001e-07
0.0027314749
7.3724679e-08
3.5352191e-07
0.0031566687
7.9059231e-08
4.7203317e-07
0.0036094255
8.3928106e-08
0.082697895
9.4773178e-07
3.1310702e-07
-6.661107e-07
0.082698591
8.7309566e-07
8.8492641e-08
-5.0291518e-07
0.0036092421
8.0320727e-08
-3.4077116e-07
0.003156484
7.6240054e-08
-1.8258302e-07
0.0027312924
7.2299273e-08
0.0022490473
6.6769519e-08
2.2176625e-07
0.0022487949
6.6438164e-08
4.2243634e-07
0.0027310622
7.0455301e-08
6.2257613e-07
0.0031562572
7.3410406e-08
8.1803276e-07
0.0036090232
7.6998137e-08
0.082699466
8.2557687e-07
5.7209911e-08
-9.3789281e-07
0.082700335
7.7528702e-07
2.0519864e-07
-7.1362092e-07
0.0036087741
7.2881136e-08
-4.8917967e-07
0.0031560043
6.9522973e-08
-2.6037791e-07
0.0027308015
6.714722e-08
0.0022484998
6.4342432e-08
2.891488e-07
0.0022481746
5.9935115e-08
5.4138876e-07
0.0027305176
6.1271042e-08
7.8504167e-07
0.003155734
6.2668654e-08
1.0246455e-06
0.003608512
6.5389856e-08
0.082701174
6.8597849e-07
3.5197444e-07
-1.0797625e-06
0.082702048
5.636238e-07
4.0442581e-07
-8.2994843e-07
0.0036082431
5.6073961e-08
-5.7591013e-07
0.0031554563
5.4166941e-08
-3.0969826e-07
0.0027302224
5.341469e-08
0.0022478307
5.2790622e-08
3.3094251e-07
0.0022474661
4.7340812e-08
6.0453718e-07
0.0027299213
4.6590706e-08
8.6404496e-07
0.0031551753
4.6405468e-08
1.1145361e-06
0.0036079756
4.7681118e-08
0.082703028
4.4842583e-07
3.3394766e-07
-1.1357266e-06
0.082704082
3.4619927e-07
2.5465404e-07
-8.8226089e-07
0.0036077057
4.019453e-08
-6.2449703e-07
0.0031548965
3.9549916e-08
-3.4271363e-07
0.0027296127
4.0193147e-08
0.0022470904
4.1503913e-08
3.585683e-07
0.0022466987
3.5065902e-08
6.4121661e-07
0.0027293032
3.2628465e-08
8.9705283e-07
0.0031546197
3.1246057e-08
1.1463012e-06
0.0036074397
3.1143046e-08
0.082705155
2.1985075e-07
2.0116896e-07
-1.1461066e-06
0.082706284
-3.947847e-08
7.60397e-08
-9.0586455e-07
0.0036071826
1.20692e-08
-6.52714e-07
0.0031543456
1.3661586e-08
-3.6940177e-07
0.0027289932
1.6781752e-08
0.0022462959
2.1639271e-08
3.8025529e-07
0.0022458831
-3.8335307e-09
6.6128335e-07
0.0027286865
-1.2968179e-08
9.0888627e-07
0.0031540783
-1.9357115e-08
1.1429128e-06
0.0036069327
-2.4008426e-08
0.082707492
-5.325911e-07
-9.3190466e-08
-1.1419111e-06
0.082708799
-1.2813766e-06
-3.1919119e-07
-9.116928e-07
0.0036066878
-7.9496148e-08
-6.6997485e-07
0.0031538181
-7.0276234e-08
-3.8876162e-07
0.002728381
-5.8965527e-08
0.002245463
-4.3172797e-08
3.9228335e-07
0.0022450429
-9.1174384e-08
6.7188014e-07
0.0027280808
-1.1488562e-07
9.0423284e-07
0.0031535708
-1.3202213e-07
1.1239652e-06
0.0036064566
-1.469631e-07
0.0827102
-2.1880517e-06
-5.9286168e-07
-1.1667786e-06
0.082711714
-2.9694679e-06
-9.1642271e-07
-9.3614235e-07
0.0036062066
-2.0849314e-07
-6.9031495e-07
0.0031533027
-1.8904968e-07
-4.0266869e-07
0.0027277659
-1.6681849e-07
0.0022446066
-1.3599101e-07
3.5932728e-07
-1.4593772e-07
5.8113828e-07
-1.7760536e-07
7.5786479e-07
-2.0095374e-07
9.280932e-07
-2.2169457e-07
-3.1292497e-06
-1.506303e-06
-9.2710209e-07
-0.082708782
-7.6189118e-06
1.0213061e-05
-7.500545e-07
-0.0036063419
-5.4575633e-07
6.2438217e-07
-5.6751692e-07
-0.0031534661
-4.9806735e-07
5.7277195e-07
-3.4279029e-07
-0.0027279917
-4.4695855e-07
5.1996237e-07
-0.0022449736
-3.785081e-07
4.5005751e-07
3.7046928e-07
-0.002245403
-2.5759983e-07
3.1701752e-07
6.3859003e-07
-0.002728317
-3.0669849e-07
3.6410337e-07
8.7072101e-07
-0.0031537538
-3.432284e-07
3.9903128e-07
1.0877178e-06
-0.0036066156
-3.7678984e-07
4.3359139e-07
-0.082707745
-5.3410615e-06
7.0974791e-06
-1.7053371e-06
-1.0860696e-06
-0.082706567
-3.3047248e-06
4.3618854e-06
-1.1491443e-06
-8.6765843e-07
-0.0036068732
-2.2755237e-07
2.6689234e-07
-6.3726821e-07
-0.0031540243
-2.0659948e-07
2.4687026e-07
-3.700698e-07
-0.0027286272
-1.8337779e-07
2.2691529e-07
-0.0022458206
-1.5202873e-07
1.9959981e-07
3.6524531e-07
-0.0022462251
-7.4127129e-08
1.1399763e-07
6.3851043e-07
-0.0027289346
-9.2659318e-08
1.2710302e-07
8.7551759e-07
-0.0031542908
-1.0624986e-07
1.3607395e-07
1.1013413e-06
-0.0036071263
-1.1802196e-07
1.4539023e-07
-0.082705323
-1.8061535e-06
2.3677484e-06
-7.0331645e-07
-1.0999443e-06
-0.082704088
-8.6541125e-07
1.1227099e-06
-3.9266079e-07
-8.69983e-07
-0.0036073776
-4.9446681e-08
7.0936288e-08
-6.2862184e-07
-0.0031545567
-4.3344658e-08
6.8093431e-08
-3.5524016e-07
-0.0027292374
-3.5866707e-08
6.5833672e-08
-0.0022466163
-2.5467124e-08
6.1444704e-08
3.4638492e-07
-0.0022469966
1.8984023e-09
3.2636765e-08
6.1811421e-07
-0.0027295373
-4.0434388e-09
3.2500712e-08
8.6325266e-07
-0.0031548243
-8.3305446e-09
3.1075453e-08
1.1004353e-06
-0.0036076336
-1.1257184e-08
3.0133337e-08
-0.082702875
-3.3521185e-07
4.2923848e-07
-2.0614623e-07
-1.0957455e-06
-0.082701697
-4.8689745e-08
7.1005781e-08
-1.0502319e-07
-8.5462868e-07
-0.0036078937
9.4090236e-09
9.8785349e-09
-6.0608207e-07
-0.003155096
1.0536698e-08
1.2825825e-08
-3.3644236e-07
-0.0027298355
1.2996747e-08
1.6124202e-08
-0.0022473684
1.6770388e-08
1.8615373e-08
3.2186988e-07
-0.0022477258
2.3792499e-08
1.2284784e-08
5.8681214e-07
-0.0027301306
2.1257736e-08
9.1415912e-09
8.3354922e-07
-0.0031553673
1.9699002e-08
5.1356675e-09
1.0727281e-06
-0.0036081536
1.9527627e-08
1.2358244e-09
-0.082700585
1.0759049e-07
-1.0722374e-07
-3.904374e-08
-1.0444042e-06
-0.082699504
1.7698692e-07
-1.9902729e-07
-1.4790351e-08
-8.0635263e-07
-0.0036084128
2.3155165e-08
-1.8733422e-09
-5.6232482e-07
-0.0031556365
2.2894008e-08
2.440663e-09
-3.0444971e-07
-0.0027304188
2.3974465e-08
6.7275711e-09
-0.0022480664
2.6064709e-08
1.0119388e-08
2.8233195e-07
-0.0022483845
2.9941568e-08
6.0489982e-09
5.2638441e-07
-0.0027306935
2.7973527e-08
2.7538669e-09
7.5851257e-07
-0.0031558941
2.7154123e-08
-1.5215367e-09
9.8723115e-07
-0.0036086635
2.8145287e-08
-6.2093697e-09
-0.082698406
2.7061254e-07
-2.9713579e-07
-8.3516386e-08
-8.9480688e-07
-0.082697348
4.320657e-07
-4.3564885e-07
-1.5943956e-07
-6.8588973e-07
-0.0036088968
3.7303018e-08
-1.2942227e-08
-4.7075281e-07
-0.003156137
3.5370441e-08
-7.6564853e-09
-2.516325e-07
-0.0027309445
3.5231558e-08
-3.3480105e-09
-0.0022486715
3.5740172e-08
-3.6869157e-10
2.1570021e-07
-0.0022489217
4.0899954e-08
-6.6860499e-09
4.0518297e-07
-0.0027311662
4.1383808e-08
-9.3578359e-09
5.9403975e-07
-0.0031563551
4.2713122e-08
-1.3609156e-08
7.7917023e-07
-0.0036091085
4.5794878e-08
-1.9234775e-08
-0.08269638
5.8260648e-07
-5.5644437e-07
-2.151162e-07
-6.2016458e-07
-0.082695504
7.0410811e-07
-6.8429402e-07
-2.7597809e-07
-4.7371957e-07
-0.0036092793
5.094185e-08
-2.687229e-08
-3.2433505e-07
-0.0031565308
4.713016e-08
-2.1033864e-08
-1.7394551e-07
-0.002731345
4.5020971e-08
-1.7158119e-08
-0.0022491236
4.3580114e-08
-1.5625906e-08
1.2122444e-07
-0.0022492636
4.888075e-08
-3.1219483e-08
2.2046288e-07
-0.0027314648
5.2277695e-08
-3.2203084e-08
3.2114417e-07
-0.0031566519
5.5937181e-08
-3.5872869e-08
4.2323001e-07
-0.0036094006
6.1244387e-08
-4.2091819e-08
-0.08269489
8.8936673e-07
-9.0034564e-07
-1.8070069e-07
-1.716983e-07
-0.082695002
1.1495947e-06
-1.1960638e-06
3.2996751e-07
-1.2894046e-07
-0.0036094575
7.553469e-08
-6.2049406e-08
-9.128342e-08
-0.0031567032
6.8289571e-08
-5.5301994e-08
-6.0071844e-08
-0.002731508
6.206256e-08
-5.1541277e-08
-0.0022493281
5.438238e-08
-4.9983083e-08
-1.7674829e-08
-0.0022492974
5.4321679e-08
-6.967625e-08
-7.1180645e-08
-0.0027314509
6.6164765e-08
-7.0800559e-08
-1.1527835e-07
-0.0031566609
7.4863881e-08
-7.3924518e-08
-1.4735006e-07
-0.0036094289
8.3743823e-08
-8.0453169e-08
-0.082696315
1.3457918e-06
-1.4775022e-06
1.2972432e-06
5.2164938e-07
-0.082699489
1.4562178e-06
-1.7190585e-06
2.9143694e-06
3.9620235e-07
-0.0036092911
8.3074819e-08
-9.553057e-08
2.5178606e-07
-0.0031564992
7.2716859e-08
-9.0094652e-08
9.7989297e-08
-0.0027312713
6.1828971e-08
-8.7859831e-08
-0.0022491597
4.8352737e-08
-8.8062846e-08
-1.5579502e-07
-0.002248937
3.852061e-08
-1.0549625e-07
-4.0412272e-07
-0.0027309713
5.2518546e-08
-1.0430363e-07
-6.4764086e-07
-0.0031562158
6.483791e-08
-1.0480407e-07
-8.5204938e-07
-0.0036090541
7.6663858e-08
-1.0928348e-07
-0.082705618
1.5874653e-06
-2.0459136e-06
5.7354695e-06
9.7130944e-07
-0.082716329
1.7512805e-06
-2.5309862e-06
1.0518553e-05
7.3910228e-07
-0.0036087693
7.4369712e-08
-1.2648895e-07
4.4320381e-07
-0.0031558588
6.1363312e-08
-1.2181737e-07
1.5111308e-07
-0.0027306055
4.8675933e-08
-1.2093663e-07
-0.0022487005
3.3858288e-08
-1.1928901e-07
-4.3934129e-08
-0.0022485977
6.640862e-08
-1.2533651e-07
-2.6804081e-07
-0.0027303102
6.3016365e-08
-1.3428614e-07
-4.9028828e-07
-0.0031555687
7.0431748e-08
-1.3834818e-07
-6.1738549e-07
-0.0036085821
8.4910654e-08
-1.4499461e-07
-0.082733663
1.9786283e-06
-3.3009716e-06
1.8039004e-05
-5.3419658e-07
-0.08276
2.1849641e-06
-4.4331405e-06
2.9119274e-05
-3.2683486e-07
-0.0036087655
1.3246571e-07
-1.5669095e-07
-2.7348261e-07
-0.003155601
1.2239079e-07
-1.4363788e-07
-2.356706e-07
-0.0027303441
1.2774601e-07
-1.319846e-07
-0.0022488715
1.5037999e-07
-1.1228863e-07
7.8225766e-07
-0.0022498617
2.9043086e-07
-8.3904949e-08
1.3957451e-06
-0.0027310851
2.3887723e-07
-1.1199387e-07
2.0610772e-06
-0.0031563518
2.2057675e-07
-1.3562993e-07
2.9542523e-06
-0.0036097241
2.2593606e-07
-1.6059891e-07
-0.082798311
2.4634215e-06
-6.0527952e-06
4.4853265e-05
-6.9566241e-06
-0.082852109
2.83884e-06
-8.3362969e-06
6.6251218e-05
-4.9274917e-06
-0.0036119751
3.7668774e-07
-1.5583978e-07
-3.2210018e-06
-0.0031583284
3.8084236e-07
-1.1167141e-07
-1.6448898e-06
-0.0027330102
4.1562236e-07
-6.8737502e-08
-0.0022519789
4.8806493e-07
-1.5732146e-08
2.922574e-06
-0.0022556848
7.0216528e-07
7.8158788e-08
5.9363173e-06
-0.0027366558
6.3667442e-07
-6.2801365e-09
9.202559e-06
-0.0031621139
5.9453064e-07
-7.6513448e-08
1.2909725e-05
-0.0036161141
5.7972924e-07
-1.4800064e-07
-0.082925637
3.3387967e-06
-1.1466179e-05
9.4564575e-05
-2.116769e-05
-0.083024304
4.0360384e-06
-1.5724218e-05
0.00013152186
-1.5149633e-05
-0.0036227915
8.193621e-07
-1.6138388e-07
-9.7264916e-06
-0.0031683282
8.4360036e-07
-5.3882631e-08
-4.7089e-06
-0.0027426111
8.8597167e-07
4.8572816e-08
-0.0022614872
9.3092476e-07
1.6253308e-07
7.1267827e-06
-0.0022699762
1.1640493e-06
1.9273356e-07
1.486395e-05
-0.0027515452
1.1515672e-06
4.2627714e-08
2.3203859e-05
-0.00317769
1.1176288e-06
-9.7940263e-08
3.2309027e-05
-0.0036327366
1.0882692e-06
-2.4865449e-07
-0.083155411
5.1173003e-06
-2.137899e-05
0.00017967631
-4.7435011e-05
-0.083328293
6.5953913e-06
-2.7927098e-05
0.00024164626
-3.4169072e-05
-0.0036469143
1.3414139e-06
-4.3167235e-07
-2.1866327e-05
-0.0031911291
1.3710618e-06
-2.3695718e-07
-1.0418113e-05
-0.0027643336
1.3856041e-06
-5.0369768e-08
-0.0022818932
1.3533249e-06
1.4560361e-07
1.4859317e-05
-0.0022982465
1.4431162e-06
4.3620321e-08
3.1053543e-05
-0.0027818392
1.4582141e-06
-1.5040147e-07
4.8371706e-05
-0.0032095394
1.4570659e-06
-3.6789538e-07
6.6856001e-05
-0.0036662383
1.4447058e-06
-6.0531529e-07
-0.083555793
8.5088611e-06
-3.4521159e-05
0.00032036722
-9.0820439e-05
-0.083864679
9.5215911e-06
-4.0415466e-05
0.00043059851
-6.5826224e-05
-0.0036918376
1.1964531e-06
-5.94574e-07
-4.2416058e-05
-0.0032338172
1.1997201e-06
-3.3561101e-07
-2.0523769e-05
-0.0028048321
1.2401621e-06
-1.4751937e-07
-0.0023200352
1.3562856e-06
-9.1402348e-08
2.7887614e-05
-0.0023486278
7.9937013e-07
-1.0904981e-07
6.0321508e-05
-0.0028378174
2.6266244e-07
2.8183021e-07
9.5662347e-05
-0.0032694456
6.180254e-08
2.203851e-07
0.00013361593
-0.0037297189
9.7684129e-09
-8.2307325e-08
-0.084301978
1.7545357e-06
-4.6536821e-05
0.00061569517
-0.00022384171
-0.08477751
-2.1042095e-05
-5.7960386e-05
0.00077837398
-0.00015941774
-0.003792122
-2.5064436e-06
4.8174765e-07
-9.8202664e-05
-0.0033292048
-2.4047188e-06
9.4446333e-07
-4.2506054e-05
-0.0028927165
-1.8724529e-06
1.0652821e-06
-0.0023909509
-2.1245375e-07
2.9445372e-08
6.4776883e-05
-0.0024538716
-3.0865388e-06
1.208741e-06
0.00014233223
-0.0029640581
-7.5132456e-06
1.2903705e-06
0.00022666999
-0.0034046507
-8.6087346e-06
-2.8940421e-07
0.00031366736
-0.0038697606
-8.9179648e-06
-4.4059757e-07
-0.084965513
-6.9745242e-05
-7.1938118e-05
0.00064335512
-0.00022730948
-0.085442091
-0.00035595934
0.00012545318
0.00093439777
-0.00018314378
-0.0038863664
-7.061026e-06
-2.0490425e-05
-0.00014313304
-0.0034183487
-3.9758667e-06
-2.2327793e-05
-9.2372013e-05
-0.0029883815
-1.9071084e-06
-2.4510578e-05
-0.0025125934
-3.6621591e-06
-2.9987775e-05
-0.00016680074
-0.0024087638
-4.3006306e-05
0.00010610498
-0.0003256132
-0.0028918969
-5.4309524e-05
0.00011669176
-0.00049059888
-0.0033157563
-6.3914069e-05
0.00012634605
-0.0006754811
-0.0037631717
-7.4018479e-05
0.00013570777
-0.088057195
-0.0017357573
0.0020341399
0.0016412464
-2.1369548e-05
-0.071752872
-0.014725469
0.0029221273
-0.0044796082
-4.0158985e-05
-0.0031109779
-0.00080493099
0.00017152906
-5.251416e-05
-0.0027468859
-0.00071398214
0.00015746956
-4.6410926e-05
-0.002407768
-0.00063174109
0.00014151477
-0.0020273596
-0.00054246661
0.00011465157
1.5780321e-05
0.0021224463
2.9649176e-05
0.0024984703
4.4267142e-05
0.0028196065
5.6519381e-05
0.0031545198
0.056184004
0.00059279897
0.07037372
-0.00014519931
-0.0084404143
0.0004180567
0.0037700916
-2.30298e-05
0.00026062175
0.0033417102
-2.2979404e-05
0.00012042104
0.0029350906
-2.423834e-05
0.0024691294
-2.8426172e-05
-0.00022077616
0.0025722759
7.4630505e-05
-0.00043915057
0.0030323108
6.6849865e-05
-0.00066313386
0.0034379665
6.3818315e-05
-0.00090209687
0.0038719157
6.3121398e-05
0.06759519
0.00033895308
-0.00019827746
-3.205992e-05
0.066837602
8.1120408e-05
0.00035256857
-3.6094881e-05
0.0038494852
1.9404056e-05
-4.0833606e-05
0.0034182754
2.0453595e-05
-3.540572e-05
0.0030048547
2.0120393e-05
0.0025159977
1.7210338e-05
5.6673722e-05
0.0024450645
1.117129e-05
0.00011453277
0.0029277232
1.1758121e-05
0.00017468539
0.0033381809
1.1332542e-05
0.00023738905
0.0037672139
1.0649838e-05
0.066688712
1.2093993e-05
0.00030443965
-0.00018586756
0.066304813
1.5264246e-05
0.00053346003
-0.00013352075
0.0037043979
7.9623158e-06
-8.2983086e-05
0.0032768574
8.3806016e-06
-3.6232636e-05
0.0028703911
8.7078379e-06
0.0023998804
8.7389204e-06
2.5495172e-05
0.0023693143
5.8695542e-06
5.421808e-05
0.0028361731
5.7569987e-06
8.4853337e-05
0.0032407792
5.50366e-06
0.00011723264
0.003666836
5.1921517e-06
0.065955714
7.5996258e-06
0.00046048641
-8.3938765e-05
0.065716001
4.0728741e-06
0.00032910003
-6.1721971e-05
0.0036424187
3.3967004e-06
-4.0495162e-05
0.0032171364
3.6153439e-06
-2.009812e-05
0.0028132068
3.8085218e-06
0.0023466529
3.9196433e-06
1.5276048e-05
0.0023301426