/*--------------------------------*- C++ -*----------------------------------*\
  =========                 |
  \\      /  F ield         | OpenFOAM: The Open Source CFD Toolbox
   \\    /   O peration     | Website:  https://openfoam.org
    \\  /    A nd           | Version:  7
     \\/     M anipulation  |
\*---------------------------------------------------------------------------*/
FoamFile
{
    version     2.0;
    format      ascii;
    class       surfaceScalarField;
    location    "100";
    object      phi;
}
// * * * * * * * * * * * * * * * * * * * * * * * * * * * * * * * * * * * * * //

dimensions      [1 0 -1 0 0 0 0];

internalField   nonuniform List<scalar> 
76009
(
0.0024536542
1.4793196
-1.4797588
-2.0319028
2.033928
-36.230647
2.0789559
-2.079047
-2.078442
2.0776159
-34.812674
-7.7180173e-05
0.0024071188
2.0339399
1.4793524
-1.4797382
-2.031888
-36.230603
2.0776746
2.078979
-2.0790106
-2.0783606
-1.1118016e-05
-34.81254
-0.003508423
-9.325597
-0.0034748146
-0.38305896
0.374874
0.36815774
-0.39119678
0.36816423
0.37488981
-0.38305569
-0.39119966
-0.013066822
-7.6966816
0.066836325
-7.4073312
0.013099014
-0.012106117
-0.012095314
-10.342627
0.0064195323
-0.054312708
-9.6927826
-0.0064086424
0.38359979
0.37892952
-0.37514032
-0.3799487
0.3835987
-0.37995299
-0.37514566
0.3789245
-9.3276337
7.6967012
-0.054315998
-9.692792
0.066865809
0.37081604
-0.37672452
0.52415961
-0.53744471
-8.2571351
-0.0017031304
-0.00014769315
-0.57886467
-0.020090129
0.023913567
-0.024978937
0.032544389
-0.00035162719
-0.5652083
0.032735882
-0.025224076
-0.025352427
0.032618226
-0.011033489
-0.0077383279
-2.4814092
0.098812269
0.13273543
-0.12923816
-0.096184979
0.0035344296
-2.6373704
0.095013594
-0.092230547
-0.12669781
0.12828104
-0.13048315
-2.3433967
0.0024456888
-0.47578906
0.0020127793
-0.0015994664
-0.0013850983
0.00062843721
-0.57573382
-0.031926192
-0.023513245
0.02377763
0.032340798
-0.52722955
0.0015949418
-0.00064240679
0.00039631877
-0.6546472
-0.0015744167
-0.00045247881
-0.66439452
0.48082388
-0.62391245
0.0097046533
0.0062336352
0.0046950438
-0.13150779
-0.51123846
-0.023280122
0.023564047
0.032698731
-0.032780363
-0.0017894829
-0.13257815
-0.10190595
0.097995043
-0.10190439
-0.1325738
-2.3814505
0.001997818
0.13651324
0.1336178
-0.1311295
-0.13382235
-2.5357769
0.13603451
-0.13348709
-0.12917973
0.13150183
-2.4766358
-5.6470737e-06
-3.8589961e-05
0.0015199835
-0.53378977
-0.00068537372
-0.00077074709
0.0015882267
-0.53517261
0.0015794228
-0.53189099
0.0001272974
-0.54580971
-8.0354838e-05
0.032290895
0.032341734
-0.031980756
-0.03198171
4.1706474e-05
-0.54659573
0.032384488
-0.03196244
-0.031987903
0.032340942
-0.54771912
-0.03212982
0.032548426
0.032385454
-0.031959576
0.0028858185
-0.00034666228
0.00014671002
0.032737755
0.032620878
-0.025347592
-0.025220414
-0.56519562
-0.00059557814
-0.65914278
-0.0030384784
-0.00016252269
-0.66638954
-0.00017374905
0.032621013
0.032575198
-0.025439429
-0.025359569
-0.56420434
0.0031317373
-4.2715659e-05
-0.025438528
0.032575999
0.032529963
-0.025441772
-0.56329815
0.0005456914
-0.66485334
0.52543435
-0.0031680599
-0.65089939
-9.4468557e-07
0.0014657396
-2.1812449e-06
-0.5439804
-1.383894e-06
-0.031962804
0.032277622
0.032249247
-0.031953034
-0.56137033
-2.9806516e-07
-0.025420788
0.032517085
0.032491229
-0.025408068
0.0047882751
5.9102266e-05
-0.5726614
4.074466e-07
0.0064432845
-0.12866627
0.00067195906
-0.51811657
-2.2880163e-07
-0.50019639
0.002481916
-2.0272769
-0.10843429
0.13308249
-0.10495755
-1.4043254e-06
0.0016963484
-7.791268
0.51974586
-0.54578192
-0.52579767
-8.7194981e-06
-8.2570879
-0.37670969
0.37082941
0.52417201
-0.53742121
0.012615542
0.54801872
0.38638739
-0.3753454
-0.5285656
-10.433522
0.55340562
5.5521414e-06
-0.53161314
-0.51372102
0.53663094
-9.901721
-0.0069399697
0.020390467
2.6817916
-2.1403118
-0.0015246791
-0.013466512
2.6568161
-2.1177956
0.015524741
2.626168
0.0066040598
-1.8762514
1.8143836
0.021785322
0.030230487
0.042739992
0.03593782
-2.104079
-0.085010095
-0.0030174346
0.12979568
0.096596024
-0.10474359
0.040413323
-0.0033121001
0.63403097
0.021492386
-2.3272168
-0.00749555
0.6159117
0.53963046
0.62226956
0.077656492
-0.098100986
-0.13424147
0.096476556
0.084358556
0.47538784
-0.0045197567
-0.0062057706
-2.0380751
0.094785533
0.12578132
-0.11884784
0.081413513
-2.1871119
-0.19043707
-1.9495776
0.0028371481
0.1451621
-0.0050642722
0.0011824169
-0.14267477
-2.1781613
-0.0064946278
-2.6301151
0.0052837704
-0.002325665
-2.6558139
2.3146203
0.095965331
0.13063023
-0.12956244
-0.09512621
0.00052569945
-2.3105867
0.0015510127
0.13183901
0.096426425
-0.094783668
-0.12926737
2.2168685
-2.2008171
1.7717386e-05
-0.12994028
0.13280576
0.13216591
-0.12915901
0.62876364
-0.064440341
-0.0018721104
0.63353839
0.54567108
0.54243479
0.098746676
-0.13609755
-0.13529495
0.097923285
0.10545802
-0.0018863934
0.52342963
0.0054792837
-0.0037169019
-2.0664461
-0.10887428
0.13349819
0.13071362
0.0018111121
0.061792919
1.1213722e-06
-2.6130575
0.63265682
0.54176713
0.53942963
0.61797493
3.3077849e-06
0.097918194
-0.13499746
-0.13483121
0.097607513
-2.197608
0.0011022422
-0.0040926274
0.52647989
0.00073302639
0.52788365
-0.0040036968
-0.00028493785
-0.0046000254
-0.00012273134
-0.0008607527
-0.004423709
-0.0023737591
-0.52008964
-0.0032488795
1.1251181e-06
-0.5159413
0.0098686385
0.0079426539
-0.0030969273
-0.020300276
0.0032901556
0.57497852
-0.037917687
-0.0038174541
0.57885457
0.0033452241
-0.00060151398
0.023915346
-0.020087568
-0.024975915
0.03254583
-0.023759147
-0.11768856
0.00056861161
0.16446062
0.00033382437
-0.020343105
0.032751276
-0.029851347
-0.010839291
-0.63305966
-0.15575829
-0.0011157044
-0.001245239
0.1538093
0.15589796
0.13484733
-0.0070318429
-0.02281423
0.018941364
0.023161965
-0.028250223
-0.0031167025
-0.57785799
0.12951637
-0.00066867877
-0.0011300024
0.16280265
-0.00023626069
6.4421201e-05
0.00013200214
0.13085371
-0.00011710552
7.8478358e-06
0.11841262
-0.00061336932
0.00019503983
0.00040549758
-0.0001167546
9.363194e-05
0.00012698137
-0.14573361
-0.00019706236
-6.9270588e-05
-0.13150846
6.5076829e-05
-3.0365455e-05
-0.16414584
-0.00072598006
-0.14548379
-0.00036837531
-2.8916606e-05
-0.00035295903
-0.14395622
-0.0012747598
-0.0001361091
-0.13072313
-0.00069057406
-0.00064720547
-0.0052745473
-0.0094414352
-0.00098334298
0.00012994171
0.14502439
0.00027802986
-0.15432236
-0.00055143615
0.028533008
0.13146374
-1.4785452e-05
-0.16512657
0.49552202
0.033011972
0.03222153
-0.032388448
-0.035217276
-0.57736203
0.032582596
-0.032458364
0.031911258
-0.032324078
0.031385643
-0.13154874
-0.00015463244
-0.00012979396
-5.295487e-05
-0.00056539451
-0.16411473
0.14548948
-0.00045669223
-0.14539448
-5.9634067e-05
-0.00023941773
-0.00010316452
0.00017651328
-0.14485907
-0.00023929417
-0.0001288346
-0.13005653
-0.00010508297
-9.7740199e-05
-0.16222873
-0.00061953226
-0.14498499
-0.00033915845
-8.9347132e-05
0.0011831503
-0.00018278946
-0.14560539
-0.0003338501
-4.6116115e-05
-0.00038069532
-8.1010052e-05
-0.00071028455
-0.13061741
-0.00028286147
0.00011222191
-0.00074206585
-0.1623908
-0.00033033626
-0.1448096
-7.520121e-05
-6.407015e-06
-0.14383725
0.1439926
-5.428908e-05
-0.00042499248
0.032674245
-0.16286744
-0.0004086916
0.12985341
0.035220483
-0.59601653
-0.032675081
0.032536241
0.52709133
0.024222921
-0.024841564
-0.0248406
0.024223465
0.032536299
0.010844331
-0.57736479
0.032221341
0.033012746
-0.028533447
-0.032389605
-0.63306516
-0.020343078
0.023760509
0.032751721
-0.029852222
-0.00018294594
-0.56421993
0.032618052
-0.02536505
-0.025446875
0.032570527
-5.5468489e-05
-0.56331568
0.032571097
-0.025446637
-0.025452535
0.032522437
-0.56138911
0.032509527
-0.0254321
-0.025422367
0.032480484
-1.4796743e-05
7.3421088e-05
0.0064016174
-1.4392183e-05
0.0048214698
-0.57267123
0.00028880423
0.0065518441
0.0047670609
-0.57484997
0.00074669855
0.0046183716
-0.57617919
0.0068829897
0.00060658217
0.0044363327
-0.57684487
0.007340357
-0.0098664942
0.0032574468
-0.57498549
0.0033364467
-0.1257812
4.4279735e-06
-0.51594593
0.0079363938
-0.03592355
-2.0380834
-0.084359477
0.094788692
-0.11885154
0.08139954
-1.8143941
0.042745238
0.030221597
0.021780364
-2.6261763
-0.021505035
-2.1871157
-0.19044074
0.63403712
-0.040393089
-2.3272231
-0.0075236915
0.6222761
0.53963258
0.61591532
0.07765378
-0.098103128
-0.13424752
0.096470611
0.085017239
-0.0062082915
0.47539309
-0.0045243913
-2.104101
-0.0030243632
-0.1047534
0.12979033
0.096590942
-2.65683
-0.0033284201
-0.013458797
-0.54800473
0.015511546
-2.1178
0.0069219797
-0.38638035
-1.8762548
0.0065987114
-0.37535149
-0.52857817
0.012588635
-10.433542
0.0050615614
-0.0065034052
-2.6301174
1.9495789
0.0011705913
-2.1781615
-0.14267209
0.0028235656
0.14516286
-2.3146211
0.0015272254
0.096425709
-0.094784011
-0.12927064
0.13183476
-0.0052758249
-2.3105855
0.00050742495
0.095965521
-0.095125777
-0.1295641
0.13062775
-0.0023416275
-2.6558158
0.53162814
-2.6830454
0.0024792692
2.1403155
0.0062809485
7.7913392
-9.9017428
-0.51374956
0.53659187
0.55338664
-5.0616718e-05
0.51972213
-0.54581681
0.50014879
-0.52585717
-7.1771781e-05
-2.0664737
-0.1054706
0.1307064
0.13348546
-0.10889337
-0.0025010814
0.064400421
-2.6818077
0.0017883739
0.62877376
0.63354717
0.54243516
0.54567518
-2.2168725
-0.0019151481
-0.13610378
0.098739078
0.097907185
-0.1353094
0.0054851572
0.52343853
-0.0018925923
-0.0037279308
0.52009719
-0.0032976192
-0.0023733025
0.00085790419
0.00028021734
-0.52789416
-0.00013149377
-0.0040196646
-0.0011132912
0.00093961294
-0.00088480048
-0.037818509
0.0038248635
-0.037782868
0.00310094
-0.037926601
-0.020305591
0.11758423
0.50197753
0.0071988722
0.0086753347
-0.65574156
-2.2133472
-0.11758244
0.12605731
0.091447431
-0.10256554
0.091446551
0.12605884
-0.10256818
0.10987202
0.09643749
0.10986925
-0.096316528
-0.098053074
0.096440722
-0.098049882
-0.096313044
-2.618112
0.65573922
0.0030012721
-0.47158267
0.00037068729
0.50197459
0.008677637
0.0072042679
-0.0041169471
-0.51571746
-0.020978336
0.027470576
-0.030643701
0.031596179
0.018241198
-0.0050842756
-0.050169079
-0.554352
0.15894387
0.15617832
0.13524719
0.1553075
-0.01194755
-0.0021939096
0.023144154
0.018815905
-0.024707378
-0.033598558
-0.58027383
0.11867227
-0.0013312899
-0.0021896701
-0.00014894577
0.00010657733
-0.13050112
-0.00017933935
-0.00062887732
-0.0022556797
-0.0016486309
0.001233282
0.14327003
-0.0013662096
-0.010145589
0.12972087
-0.0060134547
1.3572207e-05
-0.00098075128
-0.0013646745
-0.00034066368
-5.0187518e-05
-0.14376862
-0.0011907954
-0.00019232172
-0.032536344
-0.13054294
-0.00081908948
-0.018240357
0.032535228
-0.029860902
-0.025308065
0.024190322
-0.56265337
-0.029859319
-0.025306728
0.024191512
0.0041206827
-0.020979716
0.027469978
0.031594943
-0.030645448
-0.51571903
0.0070282818
0.15576085
0.15589974
0.13484869
0.15381203
-0.0031251755
-0.57786276
-0.022815837
0.018940045
-0.028252887
0.023160029
0.11769052
-0.0012468167
-0.0011160673
0.00033214308
0.00056887407
-0.00018190517
0.0011849801
-0.14560717
-0.00033527123
-4.7936307e-05
0.00071157441
-0.13061856
-0.00028403164
0.00069243941
0.00038023399
-0.1314652
-0.13072499
0.0003528667
-0.00064789035
-0.005276392
0.0006707765
0.14395869
-0.0094438838
-0.00098477879
0.12951895
-0.0011311525
-0.000238398
6.4226637e-05
-0.0012768107
-0.00013679228
-0.14502648
-8.2212663e-05
0.00013106435
0.0002762512
-0.00055356523
-0.15432412
-1.5944861e-05
-0.16512803
0.00011072094
-0.00074299112
-0.16239184
-0.00033162872
-7.7663093e-05
-0.14481091
-4.5871877e-06
0.143994
-0.00042548688
-5.7343543e-05
-0.14383821
0.12985421
-0.00040877609
-0.16286809
0.16236884
-3.1712936e-05
-0.00023070822
0.032544302
0.12958435
-0.00021522388
-0.00016567992
0.032266419
0.024128532
-0.02466307
-0.032544836
0.032264555
-0.024663041
0.024127731
-0.0024136421
2.0776833
-2.0783534
-2.0789931
2.0789935
-34.812443
1.4793777
2.033959
-2.0318643
-1.4797181
-36.23037
-0.53043623
-10.423698
-0.36950777
0.37492061
0.058004139
0.0020058864
0.13651426
-0.13381892
-0.13112631
0.13361736
-0.0035405433
-2.5357644
0.13150282
0.136034
-0.13348567
-0.1291786
-2.476632
0.00068184875
-0.52543368
0.0014664229
-0.0015906203
-0.00012416187
-0.54659121
3.8762975e-05
0.032384899
0.032341791
-0.031986308
-0.031961036
4.2779072e-05
-0.5351688
-0.00077364786
-0.53378732
0.0015217782
0.00054721725
-0.0031293286
0.00016046433
-0.66485134
-0.0031671888
-0.65089882
0.5439795
4.1897715e-05
-0.56136982
0.032491425
0.032517522
-0.025420166
-0.025407846
7.7416028e-05
-0.03195271
0.032249543
0.032277806
-0.031962315
-0.54580694
0.032291616
-0.031980617
-0.03197968
0.03234214
0.00017249284
-0.56329649
0.032530756
0.032576855
-0.025437243
-0.025440738
0.0030349763
0.00034512583
-0.56420158
0.03262206
0.032576368
-0.025437796
-0.025357866
0.00059407257
-0.66638635
0.53188585
-0.002881688
-0.00039791219
-0.65913849
0.0015820763
-0.0015975895
-0.54771311
0.032548785
0.032386211
-0.031957747
-0.03212823
-0.00063069963
0.00014523335
-0.56519185
0.03273885
0.032622183
-0.025345612
-0.02521848
0.0015697562
0.03254718
0.57572648
-0.024973742
-0.020085485
0.02391681
-0.57884994
-0.0097058202
0.12923366
0.52722375
-0.65464228
-0.0006432838
-2.6373532
0.13273619
-0.096180258
0.098813704
0.011032731
5.8609411e-05
-0.0022847881
1.3231082e-05
-3.7566115e-05
0.00011799293
-0.0027037585
1.7234676e-05
-4.1545123e-05
0.00018458858
-0.0030584593
2.0297275e-05
-4.5381397e-05
0.00026324732
-0.0034243219
2.311396e-05
-4.9636323e-05
-0.055382149
0.00050826598
-0.00048465227
-0.00017545012
-0.0002435998
-0.055447732
0.0003294625
-0.00021639034
0.00019611254
-0.00017240252
-0.0034906231
2.0091008e-05
-2.4986657e-05
-0.00010728093
-0.00311898
1.8686023e-05
-2.3286526e-05
-4.8824776e-05
-0.0027579155
1.7426906e-05
-2.1725091e-05
-0.0023297868
1.6192743e-05
-2.001879e-05
2.0076237e-05
-0.0023471649
3.6856696e-06
-6.3825768e-06
4.1616695e-05
-0.0027768585
4.4181767e-06
-7.0147939e-06
6.5450949e-05
-0.0031401567
4.8843863e-06
-7.5412841e-06
9.2354573e-05
-0.0035147624
5.3565289e-06
-8.1203204e-06
-0.055724721
0.00012544621
-7.345442e-05
0.00031735459
-3.7614441e-05
-0.056073719
8.3442083e-05
-2.9212155e-05
0.00033238429
-2.6477157e-05
-0.0035261696
3.8816604e-06
-3.6071121e-06
-1.6426427e-05
-0.003150384
3.5957594e-06
-3.4141177e-06
-7.4877805e-06
-0.0027859025
3.3954873e-06
-3.2778214e-06
-0.0023547482
3.3077885e-06
-3.2122538e-06
2.6510802e-06
-0.0023574066
1.8504984e-06
-1.8365607e-06
5.5331022e-06
-0.0027889026
2.0012562e-06
-1.8803184e-06
8.7052084e-06
-0.0031537677
2.1669382e-06
-1.9533095e-06
1.2225279e-05
-0.0035300143
2.3812036e-06
-2.0560357e-06
-0.05637038
5.8067217e-05
-1.625822e-05
0.00026708025
-5.9163358e-06
-0.056575253
4.6056342e-05
-1.3473038e-05
0.00017820739
-4.1886025e-06
-0.0035321484
2.1394448e-06
-1.7323419e-06
-2.5963579e-06
-0.0031556804
1.9686999e-06
-1.6474904e-06
-1.1728077e-06
-0.0027905802
1.8392677e-06
-1.5835319e-06
-0.0023587898
1.7520248e-06
-1.5416886e-06
7.8584556e-07
-0.0023597087
1.4218699e-06
-1.2924701e-06
1.6949131e-06
-0.0027916625
1.5272079e-06
-1.355189e-06
2.699301e-06
-0.0031569026
1.6402031e-06
-1.4230659e-06
3.795994e-06
-0.0035335176
1.7778561e-06
-1.5051622e-06
-0.056697033
3.5466485e-05
-1.2109379e-05
0.00010221982
-3.1431572e-06
-0.05676255
2.7227976e-05
-1.0533276e-05
5.1967291e-05
-2.2276985e-06
-0.0035346298
1.4784225e-06
-1.2789678e-06
-1.3892817e-06
-0.0031579045
1.3710882e-06
-1.2047791e-06
-6.3165584e-07
-0.0027925525
1.2819612e-06
-1.1427254e-06
-0.0023604557
1.2002284e-06
-1.0848785e-06
5.2345223e-07
-0.0023610642
9.6679948e-07
-8.7813375e-07
1.1339279e-06
-0.002793267
1.0349798e-06
-9.2940023e-07
1.8128794e-06
-0.003158705
1.1054377e-06
-9.8277007e-07
2.5527043e-06
-0.0035355121
1.1886917e-06
-1.0461047e-06
-0.056796375
2.0868942e-05
-8.7785745e-06
2.4288749e-05
-2.1108199e-06
-0.056814488
1.6220907e-05
-7.1475245e-06
1.1151368e-05
-1.4942023e-06
-0.003536238
9.5078556e-07
-8.413877e-07
-9.3150211e-07
-0.0031593643
8.8567226e-07
-7.8906673e-07
-4.2972546e-07
-0.0027938539
8.3077765e-07
-7.4555938e-07
-0.0023615674
7.7776567e-07
-7.0433682e-07
3.4904501e-07
-0.0023619756
6.2374054e-07
-5.6343335e-07
7.5900567e-07
-0.0027943325
6.6535259e-07
-5.9603785e-07
1.2155538e-06
-0.003159898
7.0852016e-07
-6.3088704e-07
1.7146595e-06
-0.0035368238
7.6010964e-07
-6.7336757e-07
-0.056825325
1.2797432e-05
-5.7685049e-06
5.5230355e-06
-1.3959427e-06
-0.05683268
1.0213302e-05
-4.6538772e-06
3.1924323e-06
-9.8904541e-07
-0.0035373003
6.1029957e-07
-5.4041703e-07
-6.1787361e-07
-0.0031603322
5.6920471e-07
-5.0592494e-07
-2.8273635e-07
-0.0027947238
5.3498993e-07
-4.7826391e-07
-0.0023623077
5.0234451e-07
-4.5292174e-07
2.3035459e-07
-0.0023625738
4.0336798e-07
-3.6421343e-07
5.0021556e-07
-0.0027950376
4.2923852e-07
-3.8396303e-07
8.0306717e-07
-0.0031606845
4.5636033e-07
-4.0585323e-07
1.1310041e-06
-0.003537684
4.8928857e-07
-4.3336027e-07
-0.05683813
8.1643501e-06
-3.7348381e-06
2.151417e-06
-9.1003914e-07
-0.056842315
6.4427043e-06
-2.9586449e-06
1.6109803e-06
-6.4380098e-07
-0.0035379923
3.8684073e-07
-3.4434404e-07
-4.0038549e-07
-0.0031609659
3.6101166e-07
-3.2261099e-07
-1.8243396e-07
-0.0027952885
3.398577e-07
-3.057531e-07
-0.0023627853
3.1990186e-07
-2.9078129e-07
1.4719813e-07
-0.0023629482
2.3944353e-07
-2.237118e-07
3.2249547e-07
-0.0027954828
2.5311042e-07
-2.3405307e-07
5.1808598e-07
-0.0031611834
2.68405e-07
-2.4642601e-07
7.2866618e-07
-0.0035382277
2.8736564e-07
-2.6258768e-07
-0.056845464
4.8219211e-06
-2.2462096e-06
1.3024247e-06
-5.8545495e-07
-0.056847677
3.089197e-06
-1.5061497e-06
1.2149622e-06
-4.1525522e-07
-0.0035383982
1.7663782e-07
-1.7650069e-07
-2.5839006e-07
-0.00316134
1.6535413e-07
-1.6590388e-07
-1.1542229e-07
-0.0027956251
1.5757139e-07
-1.5876684e-07
-0.0023630621
1.5291544e-07
-1.5437889e-07
9.1761535e-08
-0.002363133
5.6317834e-08
-7.901973e-08
2.0270438e-07
-0.0027957099
4.8229669e-08
-7.5072476e-08
3.2994235e-07
-0.0031614384
4.6457959e-08
-7.5673958e-08
4.6294533e-07
-0.0035385002
4.8671528e-08
-7.9659213e-08
-0.056849024
1.1315929e-06
-6.8471291e-07
1.3632713e-06
-3.6348557e-07
-0.056849355
-1.0352143e-06
1.0746949e-07
1.6228438e-06
-2.5966793e-07
-0.0035385179
-9.2725993e-08
7.405845e-09
-1.6094714e-07
-0.0031614568
-8.4310771e-08
4.8653154e-09
-7.0555833e-08
-0.0027957255
-7.0995373e-08
-1.6892389e-09
-0.0023631406
-4.7949267e-08
-1.5045657e-08
5.5461591e-08
-0.0023631189
-1.435631e-07
6.7682183e-08
1.2376611e-07
-0.0027957037
-1.8135216e-07
9.1705705e-08
1.9443751e-07
-0.0031614275
-2.0577522e-07
1.0610275e-07
2.730161e-07
-0.0035384874
-2.246121e-07
1.1558862e-07
-0.056848868
-3.0881554e-06
9.8585783e-07
1.8886082e-06
-1.8419752e-07
-0.056847655
-4.3528107e-06
1.4139324e-06
1.9097363e-06
-1.3276762e-07
-0.0035383999
-3.0338709e-07
1.6463531e-07
-7.8239505e-08
-0.0031613554
-2.7803987e-07
1.5161779e-07
-3.5478599e-08
-0.0027956328
-2.4645107e-07
1.334013e-07
-0.0023630589
-1.9992608e-07
1.0444762e-07
1.3865314e-08
-0.002362977
-1.8343632e-07
8.7941007e-08
3.630891e-08
-0.0027955407
-2.2776183e-07
1.1334524e-07
6.0531166e-08
-0.0031612504
-2.5821928e-07
1.2915207e-07
8.4809144e-08
-0.0035382813
-2.8283658e-07
1.3997837e-07
-0.05684604
-4.141755e-06
1.1856554e-06
1.4259159e-06
2.4080274e-08
-0.056844466
-2.1627156e-06
1.9793108e-07
3.6719749e-07
1.7704587e-08
-0.0035381588
-1.4907209e-07
3.2892925e-08
1.2229135e-08
-0.0031611411
-1.3465829e-07
3.0820466e-08
6.378042e-09
-0.0027954439
-1.1592959e-07
2.5018621e-08
-0.002362896
-8.8195724e-08
1.3592612e-08
-2.7728463e-08
-0.0023628374
8.1279108e-08
-1.1211515e-07
-5.7647549e-08
-0.0027953726
8.2355888e-08
-1.2368116e-07
-8.867418e-08
-0.0031610603
8.4727816e-08
-1.344738e-07
-1.2522176e-07
-0.0035380646
8.9575546e-08
-1.4720144e-07
-0.056843378
1.4440679e-06
-1.4487249e-06
-1.2086775e-06
1.840208e-07
-0.056842992
5.911004e-06
-3.4010645e-06
-3.0808646e-06
1.2821317e-07
-0.0035380327
3.8502341e-07
-3.6119634e-07
7.8292e-08
-0.0031610357
3.5631543e-07
-3.311474e-07
3.2510446e-08
-0.0027953531
3.2742404e-07
-3.014363e-07
-0.0023628307
2.9037995e-07
-2.6449807e-07
-4.3283596e-08
-0.0023628721
4.8743958e-07
-4.0307722e-07
-1.0240302e-07
-0.0027953878
5.5535685e-07
-4.6160769e-07
-1.6967006e-07
-0.0031610691
6.0778415e-07
-5.0724888e-07
-2.4508566e-07
-0.0035380637
6.5852931e-07
-5.5214659e-07
-0.056843409
1.0026156e-05
-5.1227137e-06
-4.7311185e-06
2.5829523e-07
-0.056844343
1.2474991e-05
-6.0507887e-06
-5.7493893e-06
1.7398968e-07
-0.0035381409
8.1676111e-07
-6.5532978e-07
1.0014361e-07
-0.0031611455
7.526271e-07
-6.0243199e-07
3.889941e-08
-0.0027954643
6.85943e-07
-5.4849792e-07
-0.0023629535
5.9953095e-07
-4.7923666e-07
-2.6540349e-08
-0.002363071
6.0361105e-07
-4.6016187e-07
-7.5748956e-08
-0.0027955806
6.90413e-07
-5.2513833e-07
-1.3916271e-07
-0.0031612639
7.5769784e-07
-5.7606843e-07
-2.1532426e-07
-0.0035382613
8.2300123e-07
-6.2659379e-07
-0.056845445
1.2615804e-05
-5.8046976e-06
-5.92435e-06
1.2570848e-07
-0.056846091
1.0478142e-05
-4.6784513e-06
-5.279759e-06
6.9760789e-08
-0.00353837
6.8614841e-07
-5.2171481e-07
2.8319271e-08
-0.0031613727
6.3211098e-07
-4.8220081e-07
-3.1600086e-11
-0.0027956873
5.7693483e-07
-4.4257975e-07
-0.0023631853
5.0580344e-07
-3.9151292e-07
3.2288166e-08
-0.0023632993
3.2644648e-07
-2.4633423e-07
3.2649768e-08
-0.0027957754
3.646907e-07
-2.7763617e-07
1.8993387e-08
-0.0031614579
3.9902312e-07
-3.0065783e-07
-1.0805512e-08
-0.0035384524
4.3448361e-07
-3.2239255e-07
-0.056845948
6.655735e-06
-2.7561041e-06
-4.0536185e-06
1.3688234e-08
-0.056844814
2.0187934e-06
-6.7749497e-07
-2.4895796e-06
-3.0719301e-08
-0.0035384387
1.2675214e-07
-9.5927651e-08
-5.8524769e-08
-0.0031614529
1.1463954e-07
-9.172694e-08
-5.5118901e-08
-0.0027957937
1.021189e-07
-8.7002915e-08
-0.0023633641
8.8833014e-08
-7.9199022e-08
-7.043047e-08
-0.0023632637
-8.4993587e-08
5.4194076e-08
-1.7062163e-07
-0.0027956738
-8.7343434e-08
6.7249547e-08
-2.8857824e-07
-0.0031613192
-9.3660836e-08
7.7645585e-08
-4.2855452e-07
-0.0035382835
-1.0349963e-07
8.8240145e-08
-0.056843361
-1.7311039e-06
9.9336829e-07
-1.1433486e-06
4.3408702e-07
-3.9382487e-06
2.1006615e-06
-1.0272078e-06
2.9653147e-07
-2.5862157e-07
2.2326963e-07
1.6144601e-07
-2.3798292e-07
2.0424259e-07
4.5205257e-08
-2.2131918e-07
1.8329365e-07
-2.0586818e-07
1.5289771e-07
1.245652e-06
0.083027816
-2.1679511e-06
-3.8530929e-06
8.9700925e-07
0.0036628586
-1.6525202e-07
5.6738845e-07
0.0032112698
-1.5154782e-07
2.5808118e-07
0.0027888194
-1.3632351e-07
0.0023154992
-1.1365243e-07
-3.2165691e-07
0.0023156287
1.0639055e-07
-6.6129872e-07
0.0027889728
9.8587281e-08
-1.0223285e-06
0.003211441
9.5979266e-08
-1.4226277e-06
0.0036630595
9.5848362e-08
0.083026942
6.8278284e-07
-2.9627641e-06
7.5356113e-07
0.083027246
3.871555e-06
-2.9111055e-06
5.0538836e-07
0.0036631214
3.1292713e-07
2.8182259e-07
0.0032114864
2.9272798e-07
9.9675156e-08
0.0027889877
2.6920462e-07
0.0023155841
2.331605e-07
6.6552977e-08
0.0023154388
4.0352621e-07
7.3120609e-08
0.0027888772
4.6804044e-07
5.7339415e-08
0.0032113845
5.1619198e-07
2.725437e-08
0.003663024
5.6191316e-07
0.083029179
7.603836e-06
-2.853567e-06
-1.6638084e-07
0.083030889
1.1030958e-05
-2.0973785e-06
-1.4598219e-07
0.0036628855
8.0416011e-07
-1.1487211e-07
0.003211249
7.3645264e-07
-7.1075871e-08
0.0027887442
6.6598629e-07
0.0023152998
5.7370465e-07
7.0556577e-08
0.0023151742
6.5852283e-07
1.2229159e-07
0.0027886165
7.6626957e-07
1.6025471e-07
0.0032111191
8.4952459e-07
1.8534824e-07
0.0036627539
9.2947448e-07
0.08303227
1.2858392e-05
-1.4381435e-06
-2.1672003e-07
0.08303366
1.226416e-05
-9.6284982e-07
-1.8331607e-07
0.0036626535
8.8374723e-07
-1.3747579e-07
0.0032110185
8.0735506e-07
-7.9983793e-08
0.0027885173
7.2761999e-07
0.0023150699
6.239055e-07
8.2694754e-08
0.0023150126
4.619204e-07
1.5036141e-07
0.0027884663
5.3865918e-07
2.0746743e-07
0.0032109706
5.9850029e-07
2.5685795e-07
0.0036626063
6.5631418e-07
0.08303531
9.2187069e-06
-5.8555783e-07
-2.2467832e-07
0.083037079
4.5726057e-06
-2.0612273e-07
-1.7991056e-07
0.0036626372
3.0925077e-07
-1.2507571e-07
0.0032109917
2.8031422e-07
-6.6527358e-08
0.0027884836
2.5142186e-07
0.0023150207
2.1576472e-07
2.8251785e-08
0.0023150845
-1.0843971e-08
5.0973618e-08
0.00278856
-1.6881295e-08
6.9251803e-08
0.0032110786
-2.0338277e-08
8.4876642e-08
0.0036627337
-2.2618065e-08
0.083038658
-1.6948449e-07
1.193763e-07
-6.9167813e-09
0.083040054
-3.9296919e-06
3.7813261e-07
-5.7670423e-09
0.0036628657
-2.8222779e-07
-1.988975e-09
0.0032111954
-2.5532134e-07
-2.3316175e-09
0.0027886693
-2.249111e-07
0.0023151769
-1.8287102e-07
1.1317541e-08
0.002315265
-2.8285825e-07
2.7098791e-08
0.0027887692
-3.4348298e-07
4.5371517e-08
0.0032113073
-3.8840997e-07
6.8874358e-08
0.0036629881
-4.2870159e-07
0.083041275
-6.0085796e-06
7.1461088e-07
-2.0943398e-07
0.083042045
-6.2232598e-06
1.309835e-06
-1.4643099e-07
0.0036630804
-4.5867686e-07
-8.556581e-08
0.0032113867
-4.1822203e-07
-3.5785721e-08
0.0027888444
-3.713402e-07
0.0023153354
-3.0610489e-07
5.8333015e-08
0.0023153644
-2.3085944e-07
1.3334053e-07
0.002788874
-2.859615e-07
2.1996023e-07
0.0032114183
-3.240271e-07
3.1472419e-07
0.0036631168
-3.5583147e-07
0.083042015
-4.7925407e-06
2.0491779e-06
-4.2036011e-07
0.083041
-2.5242448e-06
2.9249122e-06
-2.9180309e-07
0.0036630815
-1.8583626e-07
-1.7573035e-07
0.0032113856
-1.675851e-07
-7.6312632e-08
0.0027888476
-1.4379161e-07
0.0023153476
-1.0748884e-07
9.6454246e-08
0.0023152854
2.0097487e-08
2.2190776e-07
0.0027887657
3.9085537e-09
3.7012842e-07
0.0032112883
-4.9326729e-09
5.3268846e-07
0.0036629772
-9.5794213e-09
0.083038902
-2.0115596e-07
3.9631639e-06
-6.7341441e-07
0.083035706
1.7944893e-06
5.1641133e-06
-4.6735906e-07
0.0036628033
1.4452067e-07
-2.8436238e-07
0.0032111327
1.3790482e-07
-1.2421447e-07
0.0027886289
1.3423802e-07
0.0023151804
1.3374842e-07
1.6174584e-07
0.0023150269
2.3111415e-07
3.6227828e-07
0.002788438
2.4347033e-07
5.9001206e-07
0.0032109172
2.561579e-07
8.4562622e-07
0.0036625634
2.7164215e-07
0.083031294
3.4287184e-06
6.6513946e-06
-1.055517e-06
0.083025433
4.8320758e-06
8.5268735e-06
-7.3762959e-07
0.0036622523
3.800619e-07
-4.5274713e-07
0.003210636
3.573195e-07
-2.0690211e-07
0.0027881941
3.3792572e-07
0.0023148221
3.1777201e-07
2.5771705e-07
0.0023145664
4.0268522e-07
5.6882898e-07
0.0027878839
4.2877701e-07
9.2073354e-07
0.0032102871
4.5382958e-07
1.3161607e-06
0.0036618629
4.832955e-07
0.083017805
6.1741792e-06
1.0934875e-05
-1.6276e-06
0.083007521
7.6877804e-06
1.4437907e-05
-1.1398258e-06
0.003661385
6.0076867e-07
-7.0524584e-07
0.003209858
5.6395972e-07
-3.2361018e-07
0.0027875053
5.324937e-07
0.0023142453
4.9987136e-07
3.9785226e-07
0.002313854
6.1802389e-07
8.6760704e-07
0.0027870414
6.5983917e-07
1.4030487e-06
0.003209332
6.9950816e-07
2.0025116e-06
0.0036608007
7.45026e-07
0.08299242
9.5181357e-06
2.0383436e-05
-2.4719812e-06
0.082967296
1.176261e-05
3.2055162e-05
-1.7298961e-06
0.0036600853
9.2400439e-07
-1.0708946e-06
0.0032086907
8.6780129e-07
-4.929051e-07
0.0027864755
8.1826937e-07
0.0023133735
7.6532099e-07
6.0196578e-07
0.0023127936
9.4530318e-07
1.3120871e-06
0.0027857891
1.0113454e-06
2.1160492e-06
0.00320792
1.0724873e-06
3.0169654e-06
0.0036592322
1.1410094e-06
0.08292067
1.4441627e-05
5.607107e-05
-3.7970503e-06
0.08283075
1.740992e-05
0.0001035361
-2.6633505e-06
0.0036581886
1.3886928e-06
-1.6507341e-06
0.0032069713
1.3075055e-06
-7.5614386e-07
0.0027849417
1.2356689e-06
0.0023120782
1.1594653e-06
9.5437627e-07
0.0023111755
1.3654079e-06
2.0765282e-06
0.0027838947
1.4501593e-06
3.3401228e-06
0.0032058166
1.530181e-06
4.7552917e-06
0.0036569299
1.6216425e-06
0.082663617
2.0187918e-05
0.00018716844
-7.6261949e-06
0.082382122
2.2194984e-05
0.00031298421
-5.3645419e-06
0.0036549833
1.8247309e-06
-3.327044e-06
0.0032040157
1.7323841e-06
-1.5268842e-06
0.0027822766
1.6578003e-06
0.002309807
1.5936899e-06
3.0573504e-06
0.0023069609
1.6408871e-06
6.606081e-06
0.002779029
1.700674e-06
1.0633697e-05
0.0032003912
1.7647169e-06
1.5225059e-05
0.0036509245
1.8491451e-06
0.081971247
2.2479548e-05
0.00046168918
-4.2374978e-05
0.081484588
2.5205279e-05
0.00058727407
-2.9475351e-05
0.0036396423
2.2666193e-06
-1.8196787e-05
0.0031905134
2.1974423e-06
-8.3748572e-06
0.0027704507
2.1577771e-06
0.0022997458
2.1480082e-06
1.9739465e-05
0.0022819106
1.7826597e-06
4.3273841e-05
0.0027493709
1.9640001e-06
7.0430736e-05
0.0031661972
2.0444887e-06
0.00010179918
0.0036115059
2.1250171e-06
0.081069492
3.0576338e-05
0.00061176656
-0.00020328888
0.080944605
9.2883687e-05
0.00056475703
-0.00014022956
0.003561839
6.6992502e-06
-8.5950327e-05
0.0031243674
6.2373154e-06
-3.9286064e-05
0.002714489
5.6461776e-06
0.0022540652
4.7521452e-06
5.4561789e-05
0.0022121754
5.7556971e-07
0.00011806847
0.0026663142
1.9094899e-06
0.00019153264
0.0030682288
2.9771196e-06
0.00027703711
0.0034953801
4.0691721e-06
0.080997581
0.00012605212
0.00060627835
-0.0010674325
0.00040835868
0.0017946323
-0.00077818897
4.6123532e-05
-0.00050866184
4.5622194e-05
-0.00025286881
4.2030974e-05
3.186684e-05
5.3552035e-05
-0.002246921
-7.1129926e-06
4.7644989e-06
0.00011730579
-0.0027062923
-4.2357213e-06
7.0737379e-07
0.00019164633
-0.0031150233
-2.2273668e-06
-2.2476797e-06
0.00027849289
-0.0035511896
-4.7557927e-07
-5.0005996e-06
-0.080748971
0.00013808016
-0.00032614766
0.00053889353
-0.00019684604
-0.080950233
3.9184214e-05
-0.00016546389
0.00052439105
-0.0001354796
-0.0036052746
-3.9416948e-07
-6.8851491e-06
-8.3091416e-05
-0.0031607108
-7.9656636e-07
-5.9016478e-06
-3.8199977e-05
-0.0027445905
-1.4843852e-06
-5.102939e-06
-0.0022779203
-2.709193e-06
-4.4915092e-06
1.8526923e-05
-0.0022976907
-4.8901625e-06
6.1352375e-06
4.0732732e-05
-0.0027680193
-5.0255932e-06
6.2499823e-06
6.6582282e-05
-0.0031877184
-5.1711009e-06
6.330738e-06
9.6709065e-05
-0.0036364352
-5.3330901e-06
6.3675831e-06
-0.08141292
-4.4834262e-05
3.2834756e-05
0.00057139851
-3.9119211e-05
-0.08192471
-4.9340288e-05
4.1770824e-05
0.00055848036
-2.7032847e-05
-0.0036489224
-4.2516656e-06
4.6523353e-06
-1.6581329e-05
-0.003198637
-3.9782295e-06
4.4450186e-06
-7.5769667e-06