/*--------------------------------*- C++ -*----------------------------------*\
  =========                 |
  \\      /  F ield         | OpenFOAM: The Open Source CFD Toolbox
   \\    /   O peration     | Website:  https://openfoam.org
    \\  /    A nd           | Version:  7
     \\/     M anipulation  |
\*---------------------------------------------------------------------------*/
FoamFile
{
    version     2.0;
    format      ascii;
    class       volScalarField;
    location    "440";
    object      k;
}
// * * * * * * * * * * * * * * * * * * * * * * * * * * * * * * * * * * * * * //

dimensions      [0 2 -2 0 0 0 0];

internalField   nonuniform List<scalar> 
24789
(
115.99474
185.2104
253.08482
318.32731
686.8315
693.54833
321.4378
255.5043
186.80075
116.53095
117.08344
188.43865
257.99404
324.63799
700.45538
707.56143
327.93395
260.55942
190.12802
117.65406
118.24375
191.87106
263.20385
331.33042
714.87744
722.41473
334.83417
265.93305
193.67185
118.85403
119.48603
195.53317
268.75128
338.45094
730.1862
738.20529
342.1883
271.66466
197.45926
120.14138
120.82159
199.45372
274.67851
346.05318
746.48724
755.04809
350.05377
277.79942
201.52115
121.52854
122.26415
203.66617
281.03433
354.199
763.90596
773.08023
358.49871
284.39092
205.89399
123.03066
123.83052
208.21013
287.87745
362.96357
782.5925
792.4665
367.60479
291.50254
210.62043
124.66647
125.54174
213.13163
295.27623
372.43511
802.72876
813.40878
377.4689
299.2093
215.75081
126.45994
127.42532
218.48609
303.31421
382.72236
824.53971
836.15876
388.21204
307.6031
221.34528
128.4426
129.51765
224.33807
312.0911
393.95782
848.30819
861.03619
399.98145
316.79364
227.47384
130.65714
131.86953
230.76386
321.72935
406.30849
874.3982
888.4584
412.9663
326.917
234.21893
133.1647
134.55516
237.85164
332.37919
419.98754
903.29148
918.98543
427.40859
338.13955
241.67427
136.05624
137.68795
245.70091
344.22685
435.27391
935.64424
953.392
443.63455
350.67199
249.94479
139.47524
141.45017
254.42368
357.51455
452.55487
972.3785
992.78067
462.12135
364.80843
259.16181
143.66139
146.18452
264.1852
372.64954
472.47653
1014.7944
1038.6704
483.91731
381.27534
269.52989
149.11112
152.75656
276.10806
391.44011
497.14465
1064.71
1092.3181
513.32888
404.4369
285.63881
158.11458
166.02147
295.40255
420.75175
533.54305
1119.4572
1150.5798
561.80657
445.67773
314.35825
174.52642
180.53621
331.8861
467.24285
583.98005
1181.6642
1212.8427
628.22475
508.17891
363.6843
192.56678
200.01875
394.88438
552.93365
680.9023
1238.8709
1222.8753
593.72834
482.37808
346.75928
186.50193
177.75972
321.0515
449.85594
561.73142
1193.9009
1162.588
517.06566
409.65514
289.57555
166.70514
157.09507
271.36221
384.52271
488.9749
1133.0776
1106.6566
469.69924
368.54918
260.94853
149.51962
144.56373
252.46303
356.76116
454.99162
1079.5297
1053.8132
443.12913
347.69228
246.50215
141.16447
138.41564
241.60592
340.00798
432.87493
1030.0804
1008.0549
423.56574
333.03027
237.14298
136.07225
134.02402
232.92677
326.50188
414.91566
987.54508
968.39865
406.79651
320.32708
228.90646
132.1876
130.51705
225.06802
314.47115
399.14557
950.46378
933.60634
391.92246
308.91566
221.40818
128.98629
127.57594
217.92597
303.64685
385.09509
917.7116
902.68076
378.6321
298.64764
214.61575
126.27006
125.05563
211.46963
293.90099
372.50476
888.42865
874.88179
366.68478
289.38775
208.4771
123.92121
122.85744
205.62846
285.0914
361.14777
861.97662
849.65774
355.87021
280.99479
202.91329
121.85627
120.91101
200.3223
277.08335
350.83162
837.87652
826.59034
346.01309
273.34258
197.84618
120.01577
119.16586
195.47745
269.76103
341.39897
815.7616
805.35657
336.97366
266.32662
193.20807
118.3569
117.58536
191.03159
263.0294
332.72379
795.34529
785.70073
328.63712
259.85971
188.94141
116.84799
116.14207
186.93219
256.80967
324.70332
776.39895
767.41784
320.91222
253.87142
184.9988
115.46524
114.81526
183.13622
251.0378
317.25466
758.73758
750.34016
313.72227
248.30241
181.34035
114.19033
113.58857
179.60675
245.65911
310.30746
742.20885
734.32854
307.00363
243.10294
177.93223
113.00857
112.44883
176.31299
240.62849
303.80415
726.68535
719.26637
300.70354
238.23181
174.74651
111.90831
111.38558
173.22901
235.90761
297.69566
712.05993
705.05459
294.77529
233.65223
171.75817
110.87947
110.38795
170.33152
231.4622
291.93844
698.24194
705.23385
294.85883
233.71807
171.80139
110.89263
111.39942
173.27502
235.97767
297.78441
712.2469
719.46348
300.79838
238.30667
174.79573
111.92295
112.46436
176.36558
240.70836
303.9053
726.89365
734.54909
307.11195
243.18861
177.98872
113.02514
113.60629
179.66755
245.75115
310.42361
742.44281
750.58924
313.84754
248.40182
181.4061
114.20938
114.83585
183.20761
251.14542
317.38997
759.00341
767.70204
321.05908
253.98842
185.07652
115.48755
116.16637
187.0172
256.93731
324.86321
776.70332
786.02718
328.81163
259.99932
189.03459
116.87455
117.6145
191.13388
263.18215
332.91416
795.69547
805.73255
337.18216
266.49451
193.32098
118.38903
119.20135
195.60241
269.94621
341.6282
816.16543
827.02387
346.26534
273.54703
197.98472
120.05504
120.95439
200.47581
277.30883
351.10872
838.34125
850.15513
356.17496
281.24388
203.08371
121.90423
122.91043
205.818
285.3669
361.48334
862.50777
875.44704
367.05364
289.69205
208.68761
123.97951
125.11953
211.70317
294.23636
372.90891
889.02734
903.31111
379.07334
299.01601
214.87395
126.33951
127.65065
218.21008
304.04934
385.57411
918.37009
934.28715
392.43848
309.35214
221.71843
129.0655
130.59916
225.40312
314.93918
399.6951
951.15857
969.09571
407.37197
320.82027
229.26197
132.26963
134.10109
233.29355
327.00812
415.50377
988.2288
1008.7055
424.14721
333.53172
237.50818
136.13647
138.45876
241.9591
340.48566
433.42973
1030.6744
1054.3089
443.65073
348.1422
246.84722
141.19195
144.58506
252.86828
357.22426
455.50817
1079.8772
1106.9764
470.34802
369.20859
261.63125
149.50589
157.42319
274.22455
386.11681
490.27693
1133.2108
1161.6125
518.55411
410.7162
289.98497
167.56939
176.22576
321.80617
450.94812
565.07961
1192.8097
1219.3575
570.81631
463.6549
333.44483
179.535
198.60678
392.51866
549.44338
675.83189
1235.0697
1208.4103
610.8555
487.15327
344.97371
181.76299
186.16554
350.38887
491.22529
612.5422
1178.5063
1146.0071
564.95741
451.3636
319.88275
177.87428
167.07926
301.22089
423.34746
533.35126
1116.0543
1088.7067
509.94689
403.05173
285.92038
158.06469
152.19539
274.63988
388.17436
492.12622
1060.7619
1034.5675
478.02509
377.03533
267.17008
148.22321
145.10957
261.22055
367.87508
466.11769
1010.5483
988.36955
455.5188
359.76602
255.9416
142.52039
140.29062
251.07179
352.32313
445.81424
967.80949
948.68012
436.80469
345.38256
246.50654
138.31193
136.5251
242.19806
338.86589
428.38129
930.80726
914.04226
420.47291
332.72641
238.12239
134.89439
133.39423
234.26457
326.93085
413.02605
898.26008
883.35506
405.99527
321.44949
230.60979
132.00518
130.71243
227.14451
316.25687
399.34213
869.23751
855.83103
393.03199
311.32817
223.8542
129.50348
128.36852
220.72656
306.64258
387.03521
843.06992
830.89746
381.32453
302.17955
217.74852
127.29901
126.28813
214.90941
297.92226
375.87692
819.26415
808.12657
370.67065
293.85385
212.1982
125.32992
124.41937
209.60587
289.96067
365.68751
797.44635
787.18954
360.91042
286.22926
207.12345
123.55203
122.72426
204.74353
282.64865
356.32491
777.3259
767.8282
351.91706
279.20786
202.45879
121.93276
121.17467
200.26301
275.89777
347.67504
758.672
749.83538
343.58807
272.70988
198.15048
120.44753
119.7491
196.11585
269.63642
339.64618
741.29847
733.04272
335.84019
266.67019
194.15433
119.07743
118.4306
192.2612
263.80444
332.1616
725.05153
717.30981
328.60341
261.03378
190.43287
117.80715
117.20551
188.66511
258.35212
325.15817
709.80361
702.52005
321.81955
255.75469
186.95471
116.62439
116.06219
185.29762
253.23587
318.58094
695.44748
688.57617
315.43758
250.7922
183.69174
115.51788
116.54992
186.86281
255.5974
321.5548
693.75678
700.67504
324.75826
258.08987
188.5025
117.10281
117.67399
190.19389
260.65854
328.05866
707.79365
715.12286
331.46223
263.30882
191.94093
118.26487
118.87642
193.74591
266.04432
334.97394
722.67483
730.4622
338.60075
268.87078
195.6129
119.51016
120.16738
197.54492
271.79287
342.34888
738.49896
746.80021
346.22637
274.81712
199.54659
120.84992
121.55944
201.62207
277.94971
350.24116
755.38245
764.26366
354.40267
281.19799
203.77639
122.29801
123.06784
206.01454
284.56947
358.72044
773.46381
783.00449
363.2052
288.07251
208.3423
123.87147
124.71177
210.76622
291.7169
367.86936
792.90978
803.20639
372.72604
295.51254
213.29289
125.59197
126.51583
215.93012
299.47101
377.78993
813.92402
825.09607
383.07656
303.60393
218.68544
127.48754
128.5123
221.56874
307.92612
388.60501
836.76002
848.95833
394.39496
312.45179
224.58873
129.59565
130.7449
227.75674
317.19847
400.46953
861.73941
875.15889
406.85406
322.18418
231.08361
131.96832
133.27669
234.58305
327.43145
413.57935
889.28109
904.18102
420.67931
332.96364
238.26848
134.68283
136.20332
242.15624
338.80939
428.19476
919.9467
936.6823
436.17348
345.00052
246.26339
137.85913
139.67753
250.61062
351.57662
444.67432
954.51168
973.58437
453.77143
358.58718
255.22451
141.69359
143.9621
260.14828
366.10727
463.57076
994.07718
1016.1876
474.24816
374.27027
265.4452
146.57204
149.64268
271.22195
383.38211
486.15974
1040.1645
1066.2929
500.09186
394.29681
278.46924
153.51077
159.14502
289.05441
408.47742
517.34594
1093.9804
1120.8919
539.20122
426.66997
300.65799
167.53883
177.34258
321.10949
454.08093
570.2372
1151.1962
1182.323
599.30036
480.75577
342.29658
183.62876
192.6786
366.4087
510.99459
630.70362
1212.1683
1238.5215
684.12249
556.25747
397.62324
200.98637
1232.4955
781.73459
640.76739
461.812
228.09553
206.27643
412.68473
576.15641
711.58971
1267.9983
1279.1956
631.49564
514.76102
371.20693
195.50767
185.34696
352.58785
496.31257
620.57544
1240.4938
1212.2602
622.93529
496.92534
351.81472
184.37856
182.80096
341.35038
481.36466
601.52889
1180.5153
1146.693
559.16098
445.13237
314.65772
174.73856
165.09349
297.13954
418.86084
529.25729
1115.9447
1088.3576
507.25369
400.20673
283.43282
156.81062
151.38823
273.14938
386.3294
490.2909
1060.2875
1034.055
476.7209
375.77289
266.1893
147.68719
144.73285
260.50327
366.95774
465.14729
1010.0459
987.89818
454.77218
359.07515
255.40933
142.24767
140.08857
250.66691
351.78913
445.22616
967.37583
948.28546
436.33372
344.96201
246.19242
138.15958
136.40794
241.9495
338.52883
427.99833
930.45012
913.71962
420.15694
332.45167
237.92198
134.80244
133.32106
234.10065
326.70388
412.76215
897.96872
883.09177
405.77206
321.25934
230.4737
131.94622
130.66425
227.03017
316.09582
399.15156
868.99941
855.61552
392.868
311.19062
223.75731
129.46374
128.33541
220.64367
306.52418
386.89317
842.8747
830.72039
381.20071
302.07691
217.67709
127.27124
126.26465
214.84721
297.83239
375.76792
819.10318
807.97995
370.57414
293.77459
212.14359
125.30978
124.402
209.55782
289.89068
365.60205
797.31271
787.0675
360.8343
286.16712
207.08092
123.53699
122.71116
204.70572
282.5932
356.25676
777.21425
767.72583
351.85571
279.15812
202.425
121.92125
121.16456
200.23276
275.8531
347.6198
758.57813
749.74896
343.538
272.66949
198.12321
120.43859
119.7411
196.09114
269.59974
339.60062
741.21856
732.96873
335.79853
266.63672
194.13184
119.07023
118.42405
192.24062
263.77377
332.12339
724.98299
717.24618
328.56813
261.00548
190.41392
117.80114
117.19987
188.64747
258.32581
325.12538
709.74453
702.46521
321.78901
255.73017
186.93828
116.61903
116.05707
185.28228
253.21298
318.55244
695.39679
688.52948
315.41083
250.77069
183.67725
115.51294
110.88238
171.76915
233.66857
294.79567
705.09643
712.10156
297.71641
235.92444
173.24033
111.3885
111.91091
174.75719
238.24796
300.72396
719.30879
726.72861
303.82501
240.64504
176.32386
112.45132
113.01078
177.94269
243.11913
307.02441
734.37292
742.25445
310.32877
245.67576
179.6175
113.59067
114.19219
181.35093
248.31902
313.74373
750.38705
758.78587
317.27665
251.05482
183.14708
114.81702
115.46677
185.00956
253.88854
320.93449
767.46741
776.44973
324.72598
256.82701
186.94305
116.14343
116.84913
188.95218
259.87715
328.65999
785.75255
795.39792
332.7466
263.04662
191.04211
117.58627
118.3576
193.21841
266.34369
336.9963
805.40969
815.81472
341.42088
269.77726
195.48706
119.16621
120.01576
197.85492
273.35778
346.03382
826.64274
837.92716
350.84977
277.09603
200.32908
120.91034
121.85484
202.91767
281.00445
355.88491
849.70531
862.01952
361.1565
285.09552
205.62866
122.85475
123.91681
208.47165
289.38456
366.68528
874.91804
888.45593
372.49282
293.88631
211.45533
125.04864
126.25965
214.58957
298.6177
378.60341
902.69651
917.71295
385.04223
303.59425
217.88201
127.56042
128.9637
221.33965
308.83222
391.83687
933.5905
950.4286
399.0144
314.34356
224.96383
130.48408
132.13974
228.752
320.13869
406.60383
968.34335
987.47184
414.64073
326.22944
232.70117
133.95474
135.97334
236.82216
332.64725
423.18554
1007.9713
1030.0029
432.36535
339.4836
241.16281
138.27661
140.97757
245.90559
346.99362
442.46677
1053.7645
1079.5341
454.13801
355.83698
251.66153
144.31071
149.14526
259.96458
367.33981
468.59264
1106.8437
1133.5483
487.39579
382.85265
270.6919
156.64516
165.80058
286.5144
405.83932
513.46229
1162.9973
1194.2226
553.48178
443.35576
316.44883
175.92954
187.43014
350.40223
486.54796
597.26183
1223.4852
1239.8882
699.67327
570.02378
409.92136
204.98509
196.7499
373.04116
519.88414
640.35347
1213.831
1181.7973
580.55524
465.29272
330.88209
180.58814
176.21835
318.88329
451.69557
569.09548
1150.832
1119.6448
536.52474
423.60619
297.68943
167.1399
158.75315
287.06812
406.05508
514.8571
1092.512
1064.8341
497.82751
392.15418
276.72648
153.10015
149.27379
269.72115
381.52315
484.16769
1038.7271
1014.8027
472.53004
372.6975
264.21988
146.25898
143.69445
259.13233
364.77805
462.09426
992.76198
972.34958
452.50169
357.46062
254.37644
141.46389
139.4801
249.89899
350.61821
443.57995
953.36224
935.61848
435.22653
344.18067
245.66216
137.6888
136.0556
241.64424
338.10364
427.37149
918.96583
903.27862
419.95982
332.35217
237.82902
134.55395
133.16359
234.20305
326.89832
412.94729
888.45192
874.39732
406.29603
321.71662
230.75275
131.86854
130.65651
227.46704
316.78634
399.97471
861.03997
848.31574
393.95504
312.08732
224.33411
129.51723
128.44256
221.34389
307.6026
388.21262
836.16927
824.55237
382.72472
303.31519
218.4859
127.42541
126.46019
215.75189
299.21195
377.47298
813.42293
802.74386
372.43994
295.27944
213.13318
125.54198
124.66674
210.62252
291.50648
367.61035
792.48214
782.60841
362.96945
287.8816
208.2124
123.83076
123.03092
205.89654
284.39546
358.50494
773.09622
763.92191
354.20543
281.03907
203.66895
122.26445
121.5289
201.52409
277.80435
350.06036
755.0639
746.50282
346.06009
274.68377
199.45699
120.82206
120.14189
197.46261
271.67005
342.19536
738.2206
730.20116
338.45842
268.75713
195.53695
119.48674
118.85481
193.6756
265.93883
334.84158
722.42929
714.89149
331.3385
263.2104
191.87548
118.24483
117.65528
190.13256
260.5661
327.94224
707.57474
700.46744
324.64745
258.00202
188.44426
117.08509
116.5328
186.80649
255.51242
321.4476
693.55898
693.75507
321.5426
255.58681
186.85503
116.54677
117.1005
188.49697
258.08228
324.74957
700.67049
707.78725
328.05297
260.65386
190.19062
117.67236
118.26337
191.93834
263.30503
331.45762
715.11557
722.66731
334.97049
266.04169
193.74422
118.87504
119.50854
195.61115
268.86812
338.59733
730.45472
738.49172
342.34602
271.79077
197.54362
120.1656
120.84771
199.54537
274.81515
346.2237
746.79329
755.37583
350.23877
277.94802
201.62107
121.55682
122.2949
203.77561
281.1966
354.40052
764.25734
773.45775
358.71886
284.56865
206.01425
123.0641
123.86693
208.34255
288.07234
363.20417
782.99854
792.90379
367.86868
291.71713
210.76691
124.70624
125.58521
213.29441
295.51362
372.72592
803.20009
813.91691
377.78972
299.47228
215.93206
126.50738
127.47693
218.68829
303.60588
383.07643
825.08742
836.74873
388.60356
307.92733
221.57144
128.49853
129.57794
224.5916
312.45231
394.39166
848.94289
861.71774
400.46224
317.19627
227.75837
130.72155
131.93758
231.08338
322.1781
406.84084
875.12814
889.2375
413.55577
327.41743
234.57813
133.2356
134.6277
238.25604
332.93758
420.64015
904.11948
919.86062
428.13082
338.76278
242.1299
136.12853
137.75753
246.21521
344.923
436.0731
936.56347
954.3505
444.52097
351.45241
250.52831
139.53949
141.50807
255.09427
358.39876
453.54642
973.37019
993.79975
463.2569
365.83844
259.95848
143.71799
146.26452
265.20776
373.92168
473.84186
1015.8386
1039.7407
485.6835
382.99037
271.03868
149.28625
153.09788
278.31859
393.89642
499.58619
1065.823
1093.6511
516.91188
408.20316
289.08511
158.68407
167.30918
302.88167
426.98137
539.0064
1120.5251
1150.395
569.06516
453.17613
320.43465
176.95682
183.0362
344.07203
482.33425
602.15456
1181.6435
1210.168
618.22758
499.77444
357.88289
187.85707
1329.1823
1381.6616
1355.8323
1223.3617
595.20951
483.88649
347.86783
187.33327
187.80764
358.27855
505.6187
632.63965
1214.1217
220.95531
447.5341
623.8963
764.53292
1229.6022
1185.5491
737.65431
597.74622
425.50359
210.63938
213.35758
431.22743
604.62467
744.15435
1185.8381
1232.1069
714.33357
576.50736
411.17241
203.17239
1313.5579
1354.1349
1412.6411
1395.5258
1257.3437
1344.4725
1328.904
1257.3351
1242.435
1285.3311
1286.9416
1242.0866
115.5199
183.69876
250.8039
315.45365
688.6076
695.47486
318.59143
253.24338
185.30206
116.06308
116.62418
186.95602
255.75766
321.82458
702.54266
709.82061
325.15892
258.35189
188.66436
117.2046
117.80537
190.42945
261.02964
328.59947
717.32083
725.05597
332.15327
263.79685
192.2555
118.42808
119.07395
194.14564
266.65826
335.82659
733.03995
741.28787
339.62731
269.62022
196.10432
119.74474
120.44208
198.13561
272.68881
343.56324
749.8166
758.6442
347.64373
275.87136
200.24454
121.16793
121.92448
202.43615
279.17538
351.87839
767.7906
777.27775
356.27775
282.60906
204.71602
122.71419
123.53982
207.09072
286.18211
360.85404
787.13005
797.37464
365.62041
289.90445
209.56685
124.40442
125.31172
212.15228
293.78778
370.59176
808.04177
819.16541
375.78392
297.84408
214.85491
126.26583
127.27177
217.6847
302.08833
381.21612
830.78404
842.94123
386.90872
306.5355
220.65125
128.33507
129.46261
223.76625
311.20376
392.88557
855.68668
869.07748
399.17225
316.11143
227.04096
130.6621
131.94334
230.48881
321.28073
405.79928
883.1798
898.0708
412.79991
326.73425
234.12249
133.31766
134.79938
237.95597
332.49812
420.2128
913.84088
930.59716
428.08195
338.59996
242.00233
136.40648
138.16302
246.27733
345.07425
436.46206
948.46663
967.60124
445.42515
351.96783
250.80503
140.10259
142.28325
255.63681
359.36354
455.08397
988.17869
1010.3906
465.63363
367.42093
260.87275
144.80643
147.81435
266.79073
376.50943
477.46905
1034.481
1060.8239
491.41051
387.46974
274.13699
151.60337
157.22849
284.71295
401.82092
508.85032
1088.783
1116.1511
531.21977
420.40479
296.74272
165.51218
174.13976
317.87242
448.36027
563.07439
1148.0005
1180.3935
585.92747
468.87454
332.86937
179.13251
186.88077
355.76911
502.72818
629.64235
1213.5483
639.90858
523.17063
380.40367
198.49967
191.07779
363.39892
501.01013
614.69988
1278.088
1261.4355
671.18075
538.74764
382.75362
195.92628
200.0883
402.09466
566.73157
706.7705
1232.0531
1243.4191
626.39156
500.27513
355.70839
184.28889
186.88113
355.7388
502.66872
629.55164
1213.2086
1180.0819
585.85326
468.82595
332.84602
179.13655
174.14234
317.84319
448.30579
562.99432
1147.7138
1115.8871
531.13334
420.34444
296.70947
165.51293
157.22554
284.67195
401.75351
508.75909
1088.5328
1060.588
491.31947
387.40101
274.09399
151.5994
147.81025
266.74911
376.44251
477.38045
1034.2546
1010.1717
465.54553
367.35396
260.83062
144.80174
142.27758
255.5936
359.29577
454.99566
987.96611
967.39426
445.33704
351.8998
250.76123
140.09611
138.15577
246.23306
345.00608
436.37429
948.26477
930.39997
427.99498
338.5322
241.9581
136.39856
134.79104
237.91226
332.43127
420.12707
913.64796
897.88188
412.71587
326.6687
234.07962
133.30906
131.93463
230.44699
321.21667
405.71704
882.99485
868.89635
399.09169
316.04876
227.0001
130.65335
129.45388
223.72641
311.14249
392.80665
855.50922
842.76741
386.83176
306.47581
220.61251
128.32644
127.26335
217.64711
302.03026
381.14116
830.61378
818.99841
375.71027
297.78709
214.81808
126.25752
125.30347
212.11609
293.73177
370.51937
807.87784
797.21375
365.54949
289.8495
209.53137
124.39625
123.5317
207.05583
286.12811
360.78433
786.97195
777.12212
356.20873
282.55564
204.68157
122.70615
121.91648
202.40186
279.12225
351.8098
767.63714
758.49276
347.57578
275.81861
200.21043
121.15989
120.43402
198.10183
272.63658
343.49602
749.66704
741.13981
339.56046
269.56821
196.07063
119.73661
119.06573
194.11196
266.60627
335.7598
732.89284
724.90971
332.08618
263.74455
192.22153
118.41963
117.79668
190.39523
260.97702
328.53204
717.17528
709.67563
325.09075
258.29862
188.62966
117.19557
116.61474
186.92069
255.70352
321.75535
702.39787
695.33015
318.52042
253.18782
185.26576
116.05309
115.50902
183.66093
250.74587
315.3794
688.46163
681.78325
312.3298
248.37652
182.10558
114.98135
693.68957
321.511
255.56246
186.83968
116.5418
117.09278
188.47462
258.04875
324.70749
700.59609
707.70209
328.00132
260.6123
190.16263
117.6625
118.25137
191.90447
263.25522
331.39608
715.0178
722.55485
334.89856
265.98328
193.70435
118.86096
119.49232
195.56476
268.80037
338.51408
730.326
738.34503
342.25048
271.71286
197.49011
120.14712
120.82683
199.48386
274.72583
346.11443
746.62693
755.18803
350.11419
277.84595
201.55061
121.53333
122.26857
203.69497
281.08014
354.25867
764.04616
773.2208
358.55789
284.43617
205.92233
123.03482
123.83445
208.23798
287.9221
363.02208
782.73364
792.60836
367.66271
291.54669
210.64787
124.67029
125.54559
213.15903
295.32044
372.4932
802.87144
813.55219
377.52682
299.25318
215.77785
126.46379
127.42921
218.51258
303.35733
382.77939
824.6835
836.30256
388.26806
307.64538
221.37117
128.44657
129.52169
224.36303
312.13232
394.01281
848.45137
861.17803
400.03442
316.83291
227.49724
130.66122
131.87366
230.7849
321.76558
406.3581
874.53781
888.59481
413.01112
326.94899
234.23671
133.16891
134.55952
237.86517
332.40581
420.02652
903.42378
919.11311
427.44013
338.15914
241.68198
136.061
137.69399
245.70212
344.23871
435.29746
935.76771
953.51326
443.65235
350.67789
249.94057
139.48465
141.46772
254.42031
357.52265
452.57585
972.50212
992.91581
462.1696
364.84184
259.1781
143.69714
146.26053
264.26905
372.76431
472.60733
1014.9578
1038.8861
484.2481
381.59453
269.77723
149.27426
153.09897
276.7888
392.23165
497.91281
1065.0001
1092.6903
514.94924
406.14041
287.13613
158.74936
167.13151
297.76689
423.69654
536.62255
1119.8282
1151.0308
569.21844
451.79967
318.96307
176.20466
180.55337
330.93063
465.356
580.63108
1182.033
1214.1049
640.45127
519.96619
373.08871
196.70416
204.9695
410.04208
570.26983
699.95773
1240.2204
1223.7257
597.50704
486.76025
350.55568
187.40925
184.34996
352.11782
497.26272
623.27456
1212.3904
1208.4169
610.70223
487.00512
344.86332
181.63121
179.48394
333.36491
463.55284
570.69733
1219.2452
1209.9976
618.08937
499.66637
357.80407
187.82636
192.66981
366.16538
510.70582
630.3815
1211.8918
1223.0345
594.93066
483.64291
347.67269
187.35096
187.79058
358.01189
505.32485
632.3263
1213.7472
1180.3494
580.73276
464.33991
329.26431
178.15278
173.31114
315.45491
445.8249
560.91993
1148.0613
1116.3103
530.72482
419.63384
295.95368
165.24347
157.08352
284.39756
401.55122
508.70843
1088.9186
1060.9306
491.40279
387.38807
274.01489
151.53659
147.78818
266.75786
376.51479
477.5241
1034.5779
1010.481
465.71568
367.46731
260.88644
144.80017
142.2891
255.67412
359.43002
455.17757
988.26153
967.67506
445.52207
352.04354
250.85454
140.11656
138.18165
246.3316
345.15173
436.55635
948.53013
930.64902
428.16952
338.67414
242.05617
136.42697
134.81982
238.00606
332.56576
420.29099
913.88017
898.09714
412.86755
326.79371
234.16716
133.3369
131.96075
230.52727
321.33127
405.85586
883.19345
869.07887
399.21771
316.15282
227.07294
130.6774
129.47572
223.792
311.2364
392.92051
855.67655
842.92049
386.93421
306.56019
220.6713
128.34614
127.2809
217.69962
302.10591
381.23321
830.75367
819.1263
375.79321
297.85517
214.86523
126.27325
125.31759
212.15834
293.79292
370.59399
807.9947
797.32051
365.61661
289.90441
209.56917
124.40883
123.54294
207.08968
286.17736
360.84463
787.06949
777.21133
356.26301
282.59986
204.71184
122.71616
121.92537
202.42899
279.16203
351.85879
767.7188
758.56772
347.62027
275.85465
200.23496
121.16784
120.44111
198.12395
272.66919
343.53633
749.73575
741.20295
339.59694
269.59773
196.09065
119.74301
119.07148
194.12998
266.63299
335.79292
732.95108
724.96351
332.11626
263.76878
192.23785
118.42478
117.80126
190.40998
260.99901
328.55946
717.22533
709.72222
325.11572
258.31858
188.643
117.19963
116.61832
186.93278
255.72169
321.77812
702.44145
695.37113
318.54119
253.20437
185.27676
116.05628
115.51213
183.67104
250.76125
315.39869
688.50035
681.8192
312.34621
248.38918
182.11354
114.98493
688.63359
315.46657
250.81411
183.70544
115.52167
116.0654
185.30968
253.25491
318.60612
695.50294
702.57341
321.84222
255.77188
186.9656
116.62734
117.20835
188.67515
258.36785
325.17883
709.85477
717.35903
328.62267
261.04848
190.4423
117.80993
118.43324
192.26991
263.81798
332.17935
725.09872
733.08769
335.85638
266.68254
194.16231
119.07992
119.75139
196.1231
269.64757
339.66088
741.3414
749.87618
343.60104
272.71962
198.15679
120.4495
121.17629
200.2683
275.9059
347.68604
758.71058
767.86442
351.92585
279.2142
202.46294
121.93391
122.72471
204.74634
282.6529
356.33118
777.35969
787.22089
360.91377
286.23108
207.12466
123.5515
124.41758
209.6052
289.9596
365.68742
797.47526
808.15325
370.66668
293.84946
212.19526
125.3264
126.28222
214.9035
297.91361
375.86802
819.28869
830.92022
381.30993
302.1658
217.73893
127.28984
128.35507
220.71232
306.62257
387.01381
843.09141
855.85196
393.00234
311.30037
223.83406
129.48439
130.68591
227.11678
316.21926
399.30228
869.25897
883.37853
405.94276
321.39952
230.57238
131.96879
133.34451
234.21433
326.86483
412.95763
898.28749
914.07618
420.38412
332.63934
238.05497
134.82667
136.43294
242.10752
338.75112
428.26645
930.85115
948.73873
436.65677
345.23154
246.38494
138.18629
140.1197
250.91068
352.12718
445.62679
967.89085
988.48533
455.2868
359.51735
255.73281
142.29018
144.79909
260.9491
367.56015
465.83125
1010.7144
1034.823
477.64937
376.61641
266.82761
147.78555
151.53434
274.10294
387.50628
491.54479
1061.191
1089.2026
508.87446
401.69176
284.49856
157.0814
165.24779
296.09621
419.81639
530.92471
1116.6026
1148.3712
561.142
446.02172
315.61355
173.31214
178.15641
329.47137
464.58846
581.00997
1180.6858
1194.3938
542.21436
433.91227
309.53587
173.54196
164.78974
285.19709
403.6983
511.07025
1163.986
1134.2819
487.21263
382.18873
269.00129
156.60131
149.46874
260.48166
368.27014
469.79467
1107.9351
1080.8061
455.77734
357.28283
252.68288
144.73608
141.43654
247.01613
348.47727
444.11756
1055.0432
1031.2511
433.85587
340.81495
242.16354
138.69432
136.32519
237.66476
333.77806
424.4683
1009.1565
988.57512
415.72421
327.17078
233.39324
134.24427
132.37704
229.31871
320.9198
407.51517
969.35792
951.35497
399.7837
314.99535
225.43133
130.67963
129.12632
221.72953
309.38104
392.49079
934.43291
918.4778
385.6025
304.06088
218.21093
127.69704
126.37551
214.86991
299.01813
379.08727
903.3908
889.08681
372.91372
294.23272
211.69649
125.1477
124.00209
208.68076
289.68654
367.05397
875.49219
862.54312
361.48111
285.36038
205.81129
122.92864
121.91928
203.07825
281.2382
356.17235
850.18392
838.36596
351.10607
277.3037
200.47114
120.96684
120.06558
197.98151
273.54357
346.26387
827.04627
816.18675
341.62783
269.94394
195.60022
119.21028
118.39671
193.3201
266.49402
337.18343
805.75372
795.717
332.9168
263.18294
191.13397
117.62112
116.88032
189.03575
260.00161
328.81578
786.04954
776.72673
324.86871
256.94079
187.01919
116.1714
115.49193
185.0792
253.99297
321.06579
767.72661
759.02934
317.39789
251.15104
183.21105
114.83975
114.21281
181.41002
248.40824
313.85641
750.61637
742.47105
310.43387
245.75882
179.67235
113.60947
113.02807
177.99401
243.197
307.12309
734.57809
726.92346
303.91818
240.71846
176.37217
112.46741
111.92609
174.80321
238.31802
300.8129
719.49423
712.27852
297.80243
235.99224
173.28493
111.40318
110.89731
171.81371
233.73629
294.88141
705.26652
705.20859
294.84606
233.70736
171.79389
110.88957
111.3946
173.26297
235.96002
297.76299
712.21224
719.41853
300.76923
238.28286
174.77949
111.9167
112.45671
176.34518
240.67845
303.8685
726.83725
734.48052
307.06717
243.15219
177.96388
113.01603
113.59565
179.63789
245.7077
310.37025
742.36103
750.49267
313.7845
248.35051
181.37107
114.1971
114.82182
183.1667
251.08554
317.31648
758.89063
767.57163
320.97389
253.91895
185.02905
115.4716
116.14831
186.96239
256.85717
324.76503
776.55369
785.85692
328.69906
259.90729
188.97156
116.85413
117.59147
191.06174
263.07697
332.78575
795.50303
805.51627
337.03602
266.37454
193.23849
118.36308
119.17217
195.50829
269.80968
341.46231
815.92349
826.7546
346.07744
273.39199
197.87757
120.02223
120.91759
200.3541
277.13327
350.89656
838.04306
849.82675
355.93607
281.04554
202.94571
121.86305
122.86446
205.66182
285.14341
361.21519
862.14834
875.05622
366.75348
289.44082
208.5112
123.92836
125.06286
211.50438
293.95486
372.57434
888.60575
902.86047
378.70239
298.70214
214.65096
126.27727
127.5831
217.96165
303.70192
385.16603
917.89393
933.79112
391.99404
308.97131
221.44428
128.99336
130.52396
225.10452
314.52716
399.21746
950.65109
968.58831
406.86851
320.38326
228.94306
132.19419
134.0303
232.96345
326.55822
414.98769
987.73746
1008.2507
423.63704
333.08631
237.17963
136.0782
138.42121
241.64209
340.0631
432.94516
1030.2811
1054.0203
443.19704
347.74507
246.53647
141.16889
144.56574
252.49229
356.8085
455.05474
1079.7466
1106.8865
469.75786
368.59019
260.97048
149.51831
157.09107
271.38108
384.56129
489.03336
1133.3277
1162.8657
517.1304
409.69785
289.59727
166.70039
177.75134
321.06495
449.89321
561.79337
1194.2078
1223.2146
593.80251
482.42473
346.76556
186.48773
200.01305
394.8981
553.06516
681.08012
1239.2548