/*--------------------------------*- C++ -*----------------------------------*\
  =========                 |
  \\      /  F ield         | OpenFOAM: The Open Source CFD Toolbox
   \\    /   O peration     | Website:  https://openfoam.org
    \\  /    A nd           | Version:  7
     \\/     M anipulation  |
\*---------------------------------------------------------------------------*/
FoamFile
{
    version     2.0;
    format      ascii;
    class       volScalarField;
    location    "450";
    object      alphat;
}
// * * * * * * * * * * * * * * * * * * * * * * * * * * * * * * * * * * * * * //

dimensions      [1 -1 -1 0 0 0 0];

internalField   nonuniform List<scalar> 
25201
(
7.9980992
7.9828839
7.9981221
7.982934
7.834303
7.9446042
7.9704155
8.0149808
7.9955901
7.9098229
7.9955724
7.9445822
7.8928509
7.1592604
7.0246114
7.7256335
7.6092617
7.4972756
7.4412743
7.1252353
7.3511717
7.3627858
7.4543051
7.2916308
7.2698165
7.0618417
7.2110898
7.5081181
7.4350843
7.1313121
7.1880651
7.2659986
6.7897285
6.8763169
6.9895481
7.0249915
7.2746571
7.1953238
6.9152202
6.8279453
7.1365357
7.103605
7.0985967
6.7440195
6.7834832
6.8456029
7.1336132
7.5094559
7.8261475
7.8929007
7.9543754
7.8971348
7.692997
7.771424
7.8542772
7.8103691
7.7733014
7.6693376
7.7174983
7.4195422
7.4595761
7.5665479
7.6123418
7.6819128
7.7232969
7.8905442
7.810215
7.5456055
7.4819403
7.2726581
7.2068619
7.2717416
7.5758953
7.6341125
7.5710508
7.0675633
7.1294825
7.2100014
7.2272301
7.2991764
7.3940014
7.4788159
7.33294
7.3538038
7.2593366
7.3916645
7.210404
7.1595484
7.002352
7.0918035
6.9908355
6.9390045
6.9190232
6.9177979
6.8973735
6.9864215
6.9771347
6.888607
6.7256025
6.8350824
6.8467011
6.7439833
6.7680537
6.8698818
6.8834411
6.7989598
6.6117728
6.7307943
6.8063138
6.7826085
6.6810232
6.6967217
6.5682489
6.5482625
6.3558097
6.505711
6.5185442
6.3765026
6.3992402
6.5895903
6.7164708
6.5442527
6.5576983
6.4209178
6.2127446
6.3861022
6.5196458
6.8060887
7.0915512
6.9147957
6.827478
6.782966
6.845328
6.8859876
6.9748079
7.0748969
7.2102572
7.3327776
7.5664885
7.7732504
7.8103383
7.6123112
7.4194618
7.4594856
7.6692394
7.7174323
7.7713614
7.8542447
7.9543332
7.8905138
7.7232696
7.681876
7.4818733
7.5455186
7.8101465
7.7360299
7.897065
7.8260559
7.5757585
7.6340201
7.2067384
7.2715786
7.3915614
7.3938039
7.4786578
7.2989273
7.2269535
7.2098273
7.0297708
7.1141387
7.2592267
7.3537232
7.174648
7.2908129
7.3618684
7.2115782
7.1746756
7.1423771
6.8650391
6.8988855
6.6484729
6.7238307
6.7431018
6.6229068
6.6241077
6.4823981
6.5977819
6.5861744
6.4472327
6.2381414
6.4138714
6.5707276
6.8649157
7.1422549
6.9388504
6.9905366
7.0018392
6.3986885
6.543784
6.7160224
6.8694129
6.8832095
6.7986962
6.9187283
6.9172815
6.7674893
6.5891069
6.6114764
6.7305429
6.5574956
6.4206491
6.2125375
6.3859422
6.3688212
6.3432265
6.4841353
7.9828081
7.9979108
7.8250923
7.5080302
7.4350597
7.0986165
6.8762251
7.1879656
7.1312467
7.1365178
7.1035788
6.7834628
6.7439394
6.789631
6.8278763
6.9151156
7.1952331
7.2745542
7.2658423
6.9893904
7.024823
7.1593939
7.3626312
7.6091162
0.0012790347
0.0057665416
0.01380007
0.02382312
0.31863205
0.32600961
0.024767689
0.014324519
0.0059765788
0.0013153808
0.0013330043
0.0061541629
0.014773674
0.02551802
0.33398138
0.3388582
0.025830853
0.014967364
0.0062348762
0.0013422907
0.0013460615
0.0062727722
0.015058054
0.025967235
0.34210141
0.34440149
0.026055977
0.015118336
0.0062977905
0.0013484285
0.0013503897
0.0063219558
0.015178896
0.026150199
0.34626825
0.34793151
0.026260883
0.015246901
0.006348237
0.0013523806
0.0013543908
0.0063761267
0.015319501
0.026381681
0.34950369
0.35104434
0.026509901
0.015395805
0.0064051114
0.0013564319
0.0013584874
0.0064347412
0.015473378
0.02664067
0.35258011
0.35412721
0.026774815
0.015552887
0.0064649476
0.001360563
0.0013626569
0.0064956027
0.015633018
0.026909975
0.35568959
0.3572726
0.027047981
0.015714869
0.0065267834
0.0013647766
0.0013669225
0.0065584292
0.01579738
0.027187024
0.35887599
0.36050323
0.027329001
0.015881679
0.0065906415
0.0013691009
0.0013713116
0.0066233472
0.01596675
0.027472213
0.362154
0.3638317
0.027618436
0.016053664
0.0066566581
0.001373562
0.0013758521
0.0066905224
0.016141512
0.027766178
0.36553588
0.36726902
0.027917138
0.016231351
0.0067250615
0.0013781899
0.0013805722
0.0067602204
0.016322297
0.028069891
0.36903085
0.37082457
0.028225941
0.016415278
0.0067960806
0.0013830023
0.0013854769
0.0068325837
0.016509443
0.028383924
0.37265116
0.37451274
0.028545199
0.016605611
0.0068697802
0.0013879994
0.0013905712
0.0069076699
0.016703129
0.028708703
0.37640956
0.37834267
0.028875624
0.016802736
0.0069463034
0.0013931963
0.0013958793
0.0069856752
0.016903823
0.029045012
0.3803126
0.38232294
0.029218201
0.017007217
0.0070258893
0.0013986305
0.0014014552
0.0070669476
0.017112443
0.029394489
0.38437646
0.38647863
0.029575075
0.017220314
0.0071089953
0.0014043546
0.0014073212
0.0071521222
0.017330376
0.029759069
0.38863124
0.39082293
0.029946059
0.017442111
0.0071958037
0.001410361
0.43819582
0.027021901
0.015890356
0.0066312838
0.0013516919
0.001348919
0.0065917808
0.0157893
0.026854046
0.43575707
0.43335459
0.026687796
0.01568892
0.0065523694
0.0013462059
0.0013435312
0.0065134738
0.015589233
0.026522517
0.43098883
0.4286792
0.02636115
0.015492155
0.006475656
0.0013409155
0.0013383648
0.0064386374
0.015396842
0.026202678
0.42642225
0.42421545
0.026047897
0.015303748
0.006402414
0.0013358759
0.0013334381
0.006366914
0.015212113
0.025895506
0.42205459
0.4199401
0.025746743
0.015122696
0.0063322153
0.0013310532
0.0013287191
0.0062983032
0.015034894
0.025600572
0.41787007
0.41583923
0.025458008
0.014949305
0.0062651724
0.0013264381
0.0013241999
0.0062325867
0.014864702
0.025317026
0.41384057
0.41187501
0.025178889
0.014781832
0.0062005894
0.0013220048
0.0013198485
0.0061691316
0.014699878
0.025042161
0.40994179
0.40804274
0.024908432
0.014619751
0.0061382849
0.0013177331
0.0013156543
0.0061079587
0.014540475
0.024775985
0.40617351
0.40433387
0.024646448
0.01446296
0.0060782005
0.0013136127
0.0013116011
0.0060489047
0.014386129
0.0245179
0.40252004
0.40073307
0.024392109
0.014310944
0.006020113
0.0013096186
0.0013076597
0.0059917521
0.014236327
0.024267123
0.39896863
0.39722715
0.024144838
0.014163303
0.0059638544
0.0013057235
0.0013038025
0.0059363721
0.014090804
0.024023314
0.39550225
0.39379017
0.023904935
0.014020071
0.0059093932
0.0013018989
0.0013000054
0.0058829894
0.013950414
0.023788629
0.39207523
0.39033378
0.023679017
0.013884063
0.0058575257
0.0012981344
0.0012962725
0.0058335302
0.013821808
0.023578253
0.38851219
0.38650342
0.023491772
0.013765797
0.0058111389
0.0012944011
0.0012921232
0.0057880959
0.013709956
0.023409885
0.38408157
0.3807486
0.023286826
0.013626903
0.0057527705
0.0012883332
0.0012799146
0.0056816302
0.013454258
0.023011304
0.37576751
0.36860204
0.022455377
0.013123057
0.0055466384
0.0012631864
0.0012394002
0.005338955
0.01262638
0.021616274
0.36004915
0.33632661
0.019261833
0.011121825
0.0047243431
0.0011930414
0.0012375133
0.005348296
0.012649834
0.021650435
0.36067562
0.36929098
0.022488504
0.013144155
0.0055548217
0.001262219
0.0012795107
0.0056899669
0.013474711
0.023043261
0.37633285
0.38118696
0.023312035
0.013642999
0.005759353
0.0012881154
0.0012920263
0.0057933836
0.013723012
0.023430602
0.38445048
0.38681895
0.023508629
0.013776378
0.005815397
0.0012943597
0.0012962639
0.0058370071
0.013830529
0.023592325
0.38878421
0.39056846
0.023690914
0.013891431
0.0058604466
0.0012981463
0.0013000315
0.005885488
0.013956755
0.023798983
0.39227968
0.39396946
0.023913995
0.014025635
0.0059115782
0.001301934
0.0013038439
0.0059382998
0.014095735
0.024031435
0.39566122
0.39736916
0.024152138
0.014167761
0.0059655958
0.0013057693
0.0013077087
0.0059933235
0.014240371
0.024273822
0.39909676
0.40084919
0.024398264
0.014314692
0.0060215736
0.0013096709
0.0013116557
0.006050267
0.014389631
0.024523702
0.40262637
0.40443167
0.024651934
0.014466315
0.0060795082
0.00131367
0.0013157128
0.0061092267
0.014543718
0.024781335
0.40626458
0.40812819
0.024913596
0.014622909
0.0061395203
0.0013177904
0.001319902
0.0061703276
0.014702937
0.025047222
0.41002222
0.41194944
0.025183791
0.01478481
0.0062017474
0.0013220523
0.0013242401
0.0062337067
0.014867604
0.025321866
0.41390978
0.41590586
0.025462918
0.014952274
0.0062663129
0.0013264704
0.0013287428
0.0062994727
0.015037936
0.025605626
0.41793762
0.42001058
0.025751599
0.015125611
0.0063333244
0.0013310661
0.0013334409
0.0063678857
0.015214706
0.02589992
0.42212783
0.42429207
0.026051833
0.015306053
0.0064032667
0.0013358718
0.0013383588
0.0064393739
0.015398856
0.026206183
0.42650258
0.42876221
0.026364312
0.015493989
0.006476326
0.0013409132
0.0013435377
0.0065141306
0.015591011
0.026525579
0.43107295
0.43343779
0.026691168
0.015690961
0.0065531445
0.0013462289
0.0013489591
0.0065927565
0.015791782
0.02685807
0.43584441
0.43829036
0.027026686
0.015893365
0.0066325136
0.0013517482
0.001354643
0.0066732292
0.015997499
0.027199767
0.44080969
0.0014028625
0.0071267616
0.017235442
0.029531968
0.39257184
0.39033339
0.029344685
0.017123396
0.0070828697
0.001399781
0.0013967878
0.0070396558
0.017013121
0.029160648
0.38814459
0.38600369
0.028980548
0.016905252
0.0069973959
0.0013938759
0.0013910106
0.0069557129
0.016798504
0.028802328
0.38389945
0.38184544
0.028628146
0.016694333
0.0069150693
0.0013882064
0.0013854687
0.0068752985
0.016592101
0.02845716
0.37983704
0.37787141
0.028290157
0.016492272
0.0068364141
0.0013827991
0.0013801906
0.0067983392
0.016394113
0.028125854
0.37594456
0.37405642
0.027965339
0.016298268
0.0067611179
0.0013776452
0.0013751578
0.006724626
0.016203897
0.027807191
0.37220332
0.37038537
0.027652557
0.016111644
0.0066888887
0.0013727278
0.0013703461
0.006653771
0.016020558
0.027499777
0.36859791
0.3668424
0.027350186
0.015931394
0.0066193242
0.0013680121
0.0013657196
0.006585461
0.015843281
0.027202227
0.36511573
0.36341935
0.027057428
0.015757057
0.0065522338
0.0013634692
0.0013612558
0.0065195605
0.015671787
0.026914087
0.36174963
0.36010832
0.026773842
0.015588365
0.0064874953
0.0013590794
0.0013569347
0.0064559505
0.015505789
0.026634867
0.35849118
0.35690005
0.026498929
0.015425014
0.0064249839
0.0013548223
0.0013527353
0.0063945094
0.015344987
0.026364063
0.35533031
0.35378359
0.026232206
0.015266725
0.0063645867
0.0013506741
0.0013486301
0.0063351508
0.015189198
0.026101444
0.35225358
0.35073814
0.025974312
0.015113704
0.0063063368
0.0013466052
0.0013445948
0.0062782585
0.015039725
0.025850022
0.34922175
0.34768334
0.025733808
0.014969754
0.0062513917
0.0013426134
0.0013406535
0.0062264098
0.014905085
0.025628817
0.3460705
0.34428105
0.025541539
0.014848365
0.0062036696
0.0013386975
0.0013362975
0.0061805267
0.014792722
0.025460953
0.3420951
0.33901735
0.025330717
0.014705223
0.0061436136
0.001332102
0.0013223503
0.0060679745
0.01451888
0.02502729
0.33443982
0.32807679
0.024408113
0.014158853
0.005924998
0.0013026136
0.0012714343
0.0057270948
0.013660894
0.023522873
0.32088966
0.31986381
0.023893771
0.013865541
0.0058044189
0.0012743688
0.0013157037
0.0059694486
0.014300055
0.024733213
0.32586889
0.33423234
0.02554318
0.01478947
0.0061601178
0.0013330457
0.001342467
0.0062385054
0.014975707
0.025844502
0.33900829
0.34226461
0.025981736
0.015066975
0.0062762042
0.0013461638
0.0013485088
0.0063005192
0.015124958
0.026066702
0.34454784
0.34640706
0.026160868
0.015185433
0.0063244081
0.0013504605
0.0013524498
0.0063504248
0.01525225
0.026269569
0.34805978
0.3496249
0.026390825
0.015325081
0.0063781958
0.0013544639
0.0013565044
0.0064070032
0.015400437
0.026517466
0.35115644
0.35268688
0.026648821
0.015478331
0.0064365638
0.0013585629
0.0013606379
0.0064666332
0.015557022
0.026781603
0.35422717
0.35578592
0.026917397
0.01563751
0.0064972505
0.0013627345
0.0013648531
0.0065283381
0.015718672
0.027054242
0.35736375
0.35896474
0.027193996
0.015801599
0.0065599784
0.0013670017
0.0013691793
0.0065921193
0.015885289
0.027334952
0.36058824
0.36223749
0.027478936
0.01597083
0.0066248568
0.0013713928
0.0013736412
0.0066581378
0.016057266
0.027624362
0.36391184
0.36561427
0.027772922
0.016145617
0.0066920483
0.0013759309
0.0013782623
0.0067265468
0.016234992
0.027923153
0.36734435
0.36910493
0.02807668
0.016326383
0.0067617281
0.001380641
0.0013830685
0.0067975539
0.016418961
0.028232164
0.3708953
0.37271815
0.028391109
0.016513672
0.0068341296
0.0013855511
0.0013880882
0.0068713948
0.016609705
0.028552237
0.3745728
0.37646246
0.028716886
0.016707897
0.0069094278
0.0013906846
0.0013933399
0.0069481931
0.016807543
0.028883942
0.37838831
0.38035547
0.029054677
0.016909464
0.0069877936
0.0013960575
0.0013988332
0.0070281657
0.017012961
0.029228026
0.38236602
0.38442427
0.029404999
0.017118676
0.0070693547
0.0014016693
0.0014045649
0.0071113617
0.017226124
0.02958486
0.38653235
0.3886931
0.029768886
0.01733614
0.0071543407
0.0014075299
0.0014105733
0.0071983868
0.017448456
0.029956629
0.39090748
0.39317338
0.030148394
0.017563179
0.0072433247
0.0014137
0.0014028198
0.0071263077
0.017234306
0.029530088
0.39255444
0.39032084
0.029342912
0.017122331
0.0070824457
0.0013997356
0.0013967394
0.0070392214
0.017012044
0.029158855
0.38813509
0.38599508
0.028978679
0.01690413
0.0069969401
0.0013938259
0.0013909608
0.0069552374
0.016797327
0.02880036
0.38389073
0.38183424
0.028626105
0.016693116
0.0069145801
0.0013881599
0.001385427
0.0068748016
0.016590854
0.028455053
0.37982212
0.37785264
0.028288011
0.016491013
0.0068359219
0.0013827632
0.0013801602
0.0067978434
0.016392835
0.028123675
0.37592226
0.37403202
0.027963183
0.016296997
0.0067606245
0.0013776187
0.0013751346
0.006724157
0.016202681
0.027805139
0.37217839
0.37036093
0.027650641
0.016110499
0.0066884427
0.0013727072
0.0013703273
0.0066533577
0.0160195
0.027498019
0.36857485
0.3668209
0.027348579
0.015930419
0.006618939
0.0013679945
0.0013657028
0.0065851065
0.01584239
0.027200766
0.36509578
0.36340046
0.027056067
0.015756225
0.0065519044
0.0013634536
0.0013612415
0.0065192489
0.015671001
0.026912801
0.36173145
0.36009015
0.026772575
0.015587584
0.0064871827
0.0013590657
0.0013569219
0.0064556512
0.01550503
0.026633633
0.35847285
0.35688109
0.026497669
0.015424242
0.0064246793
0.0013548104
0.0013527239
0.0063941949
0.015344188
0.026362762
0.3553107
0.35376302
0.026230858
0.015265896
0.0063642592
0.0013506629
0.0013486191
0.0063348123
0.015188339
0.026100044
0.35223206
0.35071565
0.025972839
0.015112797
0.0063059825
0.001346595
0.0013445844
0.0062778814
0.015038765
0.025848471
0.3491987
0.34765969
0.025732165
0.014968742
0.0062509966
0.0013426026
0.0013406415
0.0062260203
0.014904063
0.025627131
0.34604726
0.34425946
0.025539761
0.014847295
0.0062032601
0.0013386814
0.0013362708
0.0061802074
0.014791793
0.025459255
0.34207864
0.3390117
0.025328883
0.014704232
0.0061432509
0.0013320602
0.001322212
0.0060671153
0.014516821
0.025023632
0.33444185
0.32811101
0.024402901
0.014156036
0.0059239059
0.0013024666
0.0012705123
0.0057238015
0.013655105
0.023512495
0.3210518
0.36160562
0.021707458
0.012707773
0.0053794797
0.00123288
0.0012621036
0.0055494626
0.013123402
0.022455297
0.36899513
0.37634102
0.023045863
0.013476485
0.0056904396
0.0012794736
0.0012882694
0.0057594467
0.013642194
0.02331065
0.38116878
0.38440443
0.023428485
0.013721667
0.00579279
0.0012920753
0.0012943726
0.0058145078
0.013773731
0.023504303
0.38675032
0.3887073
0.023588768
0.013828357
0.0058360651
0.0012962547
0.0012981263
0.0058594914
0.013888689
0.023686383
0.39049015
0.39220585
0.023795653
0.013954744
0.0058846147
0.0013000078
0.0013019054
0.0059107124
0.014023132
0.023909859
0.39389884
0.39559638
0.024028455
0.014093944
0.0059375188
0.001303815
0.0013057372
0.0059648063
0.014165473
0.024148364
0.39730759
0.39904032
0.024271109
0.014238746
0.0059926152
0.0013076775
0.0013096364
0.0060208529
0.01431259
0.024394795
0.40079544
0.40257691
0.024521193
0.014388128
0.0060496109
0.001311621
0.0013136309
0.0060788169
0.014464304
0.024648627
0.40438412
0.40622031
0.024778834
0.014542214
0.0061085711
0.0013156727
0.0013177441
0.0061388034
0.014620855
0.024910234
0.40808466
0.40998015
0.025044462
0.014701267
0.0061696042
0.0013198521
0.0013219965
0.0062009342
0.014782538
0.02518009
0.41190638
0.41386667
0.025318651
0.014865651
0.0062328758
0.0013241827
0.0013264121
0.0062653997
0.014949767
0.025458851
0.41586063
0.41789175
0.025602142
0.015035809
0.0062985815
0.001328691
0.0013310255
0.0063324161
0.01512313
0.025747592
0.41996285
0.42208021
0.025896834
0.01521282
0.0063671026
0.0013334219
0.0013358747
0.0064025777
0.0153041
0.02604868
0.42424406
0.42645554
0.026204159
0.015397645
0.0064388814
0.0013383866
0.0013409579
0.0064759578
0.015492797
0.026362339
0.42871524
0.43102615
0.026524347
0.015590323
0.0065138736
0.0013435904
0.0013462728
0.0065528122
0.01568987
0.026689358
0.43338989
0.43579251
0.026856298
0.015790743
0.0065923557
0.0013489876
0.0013517548
0.0066319844
0.015891809
0.027024098
0.4382324
0.44074178
0.02719671
0.015995678
0.0066725505
0.0013546279
0.39307544
0.030139968
0.017558159
0.007241357
0.0014135668
0.0014104265
0.007196378
0.017443308
0.029947906
0.39081885
0.3886258
0.029761315
0.017331768
0.0071526621
0.0014073967
0.0014044293
0.0071094645
0.017221376
0.029576856
0.38647073
0.38436857
0.029396443
0.01711361
0.00706737
0.0014015216
0.0013986759
0.0070261503
0.017007775
0.02921918
0.38231648
0.38031111
0.029045881
0.016904315
0.0069857978
0.0013958976
0.0013931834
0.0069462589
0.016802555
0.028875363
0.37834675
0.37642167
0.028708593
0.016703056
0.006907556
0.0013905342
0.0013879449
0.006869599
0.016605075
0.028544279
0.37453115
0.37267615
0.028383732
0.016509361
0.0068324667
0.0013854196
0.0013829511
0.0067960177
0.016414987
0.028225347
0.37085148
0.36905911
0.028070414
0.016322684
0.0067603002
0.001380537
0.0013781691
0.0067252063
0.016231532
0.02791728
0.36729515
0.36556164
0.02776736
0.016142296
0.0066907641
0.0013758458
0.0013735619
0.0066568965
0.016054059
0.027618949
0.36385518
0.36217805
0.027473651
0.015967661
0.0066236319
0.0013713167
0.0013691054
0.0065909105
0.015882153
0.027329664
0.36052606
0.35890121
0.02718872
0.015798438
0.0065587624
0.001366929
0.0013647804
0.006527116
0.015715493
0.027048884
0.35729836
0.35571996
0.026912036
0.015634302
0.0064960205
0.0013626615
0.0013605643
0.0064653956
0.015553784
0.026776138
0.3541602
0.35262019
0.026643355
0.015475054
0.0064353139
0.0013584892
0.0013564304
0.0064057551
0.01539716
0.026511929
0.35108942
0.34955857
0.026385305
0.015321769
0.0063769389
0.0013543892
0.0013523743
0.0063491933
0.015248994
0.02626405
0.34799379
0.346343
0.026155547
0.015182266
0.0063232227
0.001350385
0.0013484342
0.0062995237
0.015122217
0.026061902
0.34448619
0.34220804
0.025977592
0.01506455
0.006275336
0.0013460883
0.0013423704
0.0062384537
0.014975271
0.025843386
0.3389745
0.3341934
0.025538627
0.01478582
0.0061585455
0.0013328413
0.0013149383
0.005972805
0.014307517
0.024743101
0.32592175
0.31962698
0.023883954
0.013860792
0.0058028745
0.0012734543
0.0012791098
0.0057818273
0.013834819
0.023874901
0.31919195
0.32637817
0.024788023
0.014337915
0.0059823958
0.0013150067
0.0013327069
0.0061585595
0.014784059
0.025534098
0.33429247
0.33912141
0.025845563
0.014976476
0.0062385295
0.0013421532
0.0013460237
0.0062763633
0.015067061
0.025981802
0.34233456
0.34459946
0.026069015
0.015126357
0.0063009494
0.0013484437
0.0013504324
0.0063248329
0.015186203
0.026162038
0.34644202
0.34808556
0.026271474
0.015253422
0.0063507935
0.0013524372
0.0013544548
0.0063784362
0.01532541
0.026391294
0.34964214
0.35116976
0.026518653
0.015401175
0.0064072094
0.0013564991
0.0013585553
0.0064366556
0.015478302
0.02664872
0.35269506
0.35423378
0.026782279
0.015557444
0.0064667144
0.0013606322
0.0013627275
0.0064972579
0.015637288
0.026916991
0.35578928
0.35736683
0.027054621
0.015718903
0.0065283453
0.0013648479
0.0013669946
0.006559914
0.015801228
0.027193377
0.35896593
0.36059012
0.027335124
0.015885387
0.0065920757
0.0013691747
0.0013713864
0.0066247545
0.015970377
0.027478207
0.36223863
0.36391492
0.027624359
0.016057247
0.0066580511
0.0013736365
0.0013759238
0.0066919073
0.016145077
0.02777207
0.3656185
0.36735247
0.02792294
0.016234847
0.0067264179
0.0013782536
0.0013806238
0.0067615177
0.016325672
0.02807554
0.36911675
0.37091388
0.028231343
0.016418471
0.0067972991
0.0013830398
0.0013855007
0.006833708
0.016512423
0.028389025
0.37274327
0.37460727
0.028550006
0.0166084
0.0068708267
0.0013880127
0.0013905769
0.0069086577
0.016705783
0.028713286
0.37650628
0.37844125
0.028880109
0.016805354
0.0069472813
0.0013931994
0.0013958852
0.0069866848
0.016906523
0.029049595
0.38041469
0.38243047
0.029223128
0.017010157
0.0070270016
0.0013986437
0.0014014776
0.0070682024
0.017115741
0.029399981
0.38449036
0.38659945
0.029581165
0.017223993
0.0071104074
0.0014043888
0.0014073709
0.0071536829
0.017334335
0.029765558
0.38875241
0.39093894
0.029952671
0.017446148
0.0071974207
0.0014104249
0.0014135941
0.0072425007
0.017561182
0.030145087
0.39319039
8.0820368
8.0774122
8.0820148
8.0773674
8.0156344
8.0451552
8.0569438
8.1018563
8.095011
8.0451715
7.9820443
8.0510448
8.0949959
8.07432
8.0098093
7.9695376
7.9330823
7.7893128
7.8337226
7.6822405
7.9042403
7.8634896
7.6143085
7.4233162
7.7965374
7.9733519
8.0424088
7.9009509
7.9551318
7.9967584
8.0456874
7.9430358
7.8971445
7.7528845
7.8215638
7.6704785
7.9485288
7.909244
7.8587613
7.7937731
7.8425953
7.5035698
7.3826283
7.2961355
7.746194
7.6792923
7.6359233
7.6928951
7.2725168
7.3448374
7.212248
7.1359436
7.0673747
7.1292873
7.5092766
7.5709245
7.5709356
7.8260299
7.9827693
7.9978801
7.9443949
7.8926855
0.32176384
0.023506951
0.013654749
0.0057237777
0.0012762651
0.0013042766
0.005916051
0.014134778
0.024364807
0.32813001
0.33421879
0.02498822
0.014495271
0.0060583918
0.0013228351
0.0013323271
0.0061363816
0.014687177
0.025301882
0.3387624
0.34188567
0.02544307
0.014781134
0.0061756416
0.0013364257
0.0013387869
0.0062001846
0.014839699
0.025528278
0.34411665
0.34594837
0.025620581
0.014899526
0.0062239901
0.0013407205
0.0013426645
0.0062496138
0.014965228
0.025727
0.34758996
0.34915387
0.025846205
0.015037039
0.0062770294
0.0013446397
0.0013466435
0.0063054467
0.015111347
0.025970847
0.35068701
0.35221797
0.026100093
0.015188121
0.006334586
0.0013486672
0.0013507078
0.0063642026
0.015265628
0.026230689
0.35375749
0.35531389
0.026364161
0.01534486
0.006394339
0.0013527704
0.0013548548
0.006424903
0.015424675
0.026498582
0.35688827
0.35848474
0.026635805
0.015506215
0.0064560065
0.0013569688
0.0013591118
0.0064875883
0.015588471
0.026774182
0.36010303
0.36174624
0.026915491
0.015672535
0.0065197527
0.0013612904
0.0013635039
0.0065524436
0.015757462
0.027058211
0.36341418
0.3651096
0.027204002
0.015844285
0.0065857657
0.0013657592
0.0013680542
0.0066196696
0.015932128
0.027351466
0.36683264
0.36858598
0.027502135
0.016021943
0.0066542391
0.0013703949
0.0013727811
0.0066894342
0.016112904
0.027654698
0.37036952
0.37218568
0.027810588
0.016205912
0.0067253429
0.0013752188
0.0013777067
0.0067619221
0.016300204
0.027968597
0.3740345
0.37591925
0.028130043
0.016396609
0.0067992541
0.0013802507
0.0013828505
0.0068373074
0.016494438
0.028293846
0.37784086
0.37980334
0.028461204
0.016594466
0.0068761592
0.001385511
0.0013882322
0.0069157839
0.016696074
0.02863119
0.38180821
0.38385876
0.028804864
0.016799963
0.0069562587
0.001391019
0.001393872
0.0069975583
0.016905588
0.028981409
0.38595693
0.38810503
0.029161948
0.017013687
0.0070398072
0.0013967987
0.0013998018
0.0070829704
0.0171238
0.029345849
0.39030432
0.3925572
0.029533968
0.017236484
0.0071271067
0.0014028885
0.0013997272
0.0070819624
0.017121191
0.029341137
0.39026612
0.38808116
0.029158139
0.01701161
0.0070390244
0.0013967401
0.0013938274
0.0069967978
0.016903638
0.028977869
0.38594262
0.38384067
0.02879966
0.016796853
0.006954995
0.0013909573
0.0013881458
0.006914185
0.016692039
0.028624412
0.38178716
0.37978106
0.028453267
0.016589731
0.0068743034
0.0013854026
0.0013827241
0.006835238
0.016489168
0.028284989
0.37781586
0.37588961
0.028120559
0.016390935
0.0067970361
0.0013801103
0.0013775606
0.006759688
0.016294457
0.027958934
0.37399976
0.37214795
0.027801507
0.016200534
0.0067232785
0.0013750778
0.0013726521
0.0066876299
0.016108179
0.02764664
0.37033156
0.36854579
0.027494977
0.016017704
0.0066526167
0.0013702776
0.0013679468
0.0066181068
0.01592811
0.027344723
0.36678606
0.36505629
0.027197622
0.015840438
0.0065842722
0.0013656609
0.0013634139
0.0065510094
0.015753745
0.02705199
0.36335313
0.36167838
0.026909342
0.015668834
0.0065183293
0.001361205
0.0013590283
0.006486147
0.015584715
0.026767874
0.36002817
0.35840454
0.02662933
0.015502327
0.0064545162
0.001356885
0.0013547694
0.0064233554
0.015420643
0.026491804
0.35680254
0.35522377
0.026357165
0.015340652
0.0063927227
0.001352683
0.0013506188
0.0063625224
0.015261255
0.026223363
0.35366231
0.35211861
0.026092523
0.015183561
0.006332837
0.0013485766
0.0013465516
0.0063036136
0.015106569
0.025962861
0.35058215
0.34904431
0.025837834
0.015031975
0.0062750853
0.0013445463
0.00134257
0.0062475475
0.014959854
0.025718057
0.34747375
0.34582474
0.025611134
0.014893794
0.0062217853
0.0013406286
0.0013386999
0.0061978481
0.014833675
0.025518315
0.34398187
0.3417294
0.025433092
0.01477492
0.0061731911
0.0013363693
0.0013323115
0.0061339007
0.014681484
0.025293565
0.33855875
0.3338422
0.024980507
0.014488003
0.0060546997
0.0013229334
0.0013043139
0.005911677
0.014129255
0.024365888
0.32741282
0.32003988
0.023475446
0.013617944
0.0057051663
0.0012758789
0.0012328962
0.0053369972
0.012686064
0.021912871
0.30677117
0.32091794
0.02524377
0.014533609
0.0060116967
0.0013017002
0.0012782692
0.0058306808
0.013923773
0.023982776
0.32149657
0.32613405
0.024738382
0.0143062
0.0059730225
0.001317238
0.0013334778
0.006157396
0.014781655
0.025528715
0.33423115
0.33888296
0.025829222
0.014966373
0.0062347424
0.001342723
0.0013463279
0.0062732051
0.015059228
0.025969266
0.34213065
0.34442071
0.026057437
0.015118984
0.0062979643
0.0013486306
0.0013505458
0.0063223147
0.015180014
0.026152357
0.3462943
0.34796282
0.026263449
0.015248273
0.0063486978
0.0013525128
0.0013545075
0.0063767219
0.015321197
0.02638474
0.34954096
0.35108613
0.026513341
0.015397747
0.0064058137
0.0013565385
0.0013585858
0.0064355302
0.01547553
0.026644426
0.35262564
0.35417555
0.026778815
0.015555197
0.0064657998
0.0013606563
0.0013627465
0.0064965109
0.015635453
0.026914159
0.35573985
0.35732426
0.027052354
0.015717427
0.0065277439
0.001364864
0.0013670084
0.0065594356
0.015800052
0.027191567
0.35892862
0.36055683
0.02733368
0.015884446
0.0065916914
0.0013691862
0.0013713968
0.0066244502
0.015969637
0.027477064
0.36220797
0.36388559
0.027623526
0.016056704
0.0066578262
0.0013736466
0.0013759331
0.0066917553
0.016144709
0.027771502
0.36558909
0.36732158
0.02792264
0.016234635
0.0067263219
0.0013782621
0.0013806341
0.0067614821
0.01632562
0.0280755
0.36908254
0.3708752
0.028231638
0.016418612
0.0067973336
0.0013830551
0.0013855245
0.0068338286
0.016512799
0.028389743
0.37269905
0.37455755
0.028551256
0.01660908
0.0068710573
0.0013880483
0.0013906278
0.0069089766
0.016706703
0.028714992
0.37645143
0.37838348
0.028882306
0.016806533
0.0069476998
0.0013932689
0.0013959707
0.0069871989
0.016907936
0.029052195
0.38035379
0.3823662
0.029225882
0.017011682
0.0070275621
0.0013987396
0.0014015774
0.0070687969
0.017117253
0.029402563
0.38442189
0.38652433
0.029583497
0.017225475
0.0071110407
0.0014044905
0.0014074861
0.0071544203
0.017336127
0.029768276
0.38867529
0.39087683
0.0299581
0.017450379
0.0071994928
0.0014105757
0.001413745
0.0072477068
0.017568666
0.030151284
0.39313048
0.0013997216
0.0070815981
0.017120486
0.029340241
0.39027547
0.38807463
0.029155179
0.017009694
0.0070382358
0.0013967042
0.0013937691
0.0069959131
0.016901313
0.028974043
0.38592922
0.38383869
0.028797668
0.016795847
0.0069547117
0.0013909159
0.0013881367
0.0069143838
0.016692337
0.028624572
0.38179517
0.37979559
0.028455357
0.016591157
0.0068749212
0.0013854292
0.0013827857
0.0068362458
0.016491603
0.028288794
0.37783518
0.37591433
0.028125953
0.016394308
0.0067983983
0.0013802048
0.0013776817
0.0067611748
0.016298285
0.027965237
0.37402676
0.3721623
0.027806192
0.016203166
0.00672421
0.0013751879
0.0013727305
0.0066880059
0.016109342
0.027648975
0.37033043
0.36853487
0.027495317
0.016017711
0.0066525809
0.0013703163
0.0013679683
0.0066181906
0.015928257
0.027345034
0.36678037
0.3650553
0.027198097
0.015840698
0.0065843802
0.0013656757
0.0013634257
0.0065511179
0.015754041
0.027052531
0.36335462
0.36168036
0.026909856
0.015669123
0.0065184371
0.0013612159
0.0013590403
0.0064862478
0.015584985
0.026768332
0.36002921
0.3584035
0.02662967
0.015502537
0.0064545963
0.0013568986
0.0013547849
0.0064234061
0.015420771
0.026492009
0.35679928
0.3552179
0.026357186
0.015340669
0.0063927276
0.0013526999
0.001350637
0.0063624855
0.015261166
0.026223217
0.35365377
0.35210662
0.026092137
0.015183315
0.0063327308
0.0013485964
0.001346574
0.0063034435
0.015106175
0.025962248
0.35056636
0.34902402
0.025836974
0.015031419
0.0062748453
0.0013445724
0.0013426019
0.0062472507
0.014959159
0.025716976
0.34744889
0.34579543
0.025609762
0.014892913
0.0062214088
0.0013406675
0.0013387484
0.0061974362
0.01483269
0.025516744
0.34395046
0.34170039
0.025431108
0.014773662
0.0061726482
0.001336425
0.0013323808
0.0061335112
0.014680527
0.025291959
0.33855253
0.33389381
0.024981175
0.01448853
0.0060549469
0.00132304
0.0013045322
0.0059135141
0.014133841
0.024373397
0.32757997
0.32033133
0.023492062
0.013626777
0.005708633
0.0012763511
0.0012341808
0.0053681548
0.012765491
0.022040324
0.30806969
0.34096559
0.019739275
0.011424453
0.0048434004
0.0012039924
0.001274039
0.0056697791
0.013543153
0.023324037
0.31461354
0.31902838
0.023472934
0.013640036
0.0057095596
0.0012716304
0.0012748788
0.0057181791
0.013641098
0.023487353
0.32154683
0.32811908
0.024368162
0.014136924
0.005917094
0.001303927
0.0013225568
0.0060580414
0.014494576
0.02498756
0.33424296