/*--------------------------------*- C++ -*----------------------------------*\
  =========                 |
  \\      /  F ield         | OpenFOAM: The Open Source CFD Toolbox
   \\    /   O peration     | Website:  https://openfoam.org
    \\  /    A nd           | Version:  7
     \\/     M anipulation  |
\*---------------------------------------------------------------------------*/
FoamFile
{
    version     2.0;
    format      ascii;
    class       volScalarField;
    location    "450";
    object      k;
}
// * * * * * * * * * * * * * * * * * * * * * * * * * * * * * * * * * * * * * //

dimensions      [0 2 -2 0 0 0 0];

internalField   nonuniform List<scalar> 
25201
(
1109.742
1109.0506
1109.745
1109.0572
1090.7494
1094.8492
1096.3416
1132.3799
1130.6145
1126.0654
1130.6124
1094.847
1093.1988
1048.3512
1043.9791
1065.3444
1061.0465
1055.8872
1050.3006
1039.1172
1047.2793
1056.1174
1059.2641
1052.9176
1043.7335
1036.1276
1045.1775
1057.4144
1054.7882
1039.7454
1041.6812
1044.4079
1027.8035
1030.7431
1034.6076
1043.9788
1053.2392
1050.4914
1040.2136
1037.2843
1048.5409
1047.3667
1038.5946
1026.2167
1035.73
1045.937
1056.2088
1072.2799
1090.2761
1093.2029
1129.6735
1127.203
1110.9057
1113.7578
1116.7288
1099.9738
1081.4921
1077.9237
1096.434
1084.3702
1076.0611
1073.5615
1091.4215
1109.8845
1128.7257
1135.9224
1132.8022
1122.5574
1103.1538
1096.161
1077.1843
1070.0573
1074.6512
1093.568
1091.3029
1072.5716
1065.3238
1067.7799
1059.3328
1061.8828
1064.8797
1067.6104
1062.0218
1071.5412
1067.9495
1073.7207
1058.136
1048.3507
1040.5637
1045.5011
1044.7445
1048.0852
1042.2674
1037.7529
1033.1561
1036.1555
1031.5286
1028.5837
1022.794
1026.3549
1030.9868
1027.4401
1032.3082
1035.6482
1040.5236
1037.4689
1030.8067
1034.9211
1035.1289
1026.076
1020.7997
1025.5456
1021.0609
1016.3736
1009.3467
1014.3796
1019.0271
1014.0444
1018.8459
1025.8575
1030.0878
1023.7141
1028.4455
1023.6394
1016.025
1022.2196
1024.8812
1035.1313
1045.503
1040.213
1037.2834
1035.7291
1045.935
1047.3839
1050.3114
1053.8178
1058.1348
1062.0219
1073.5609
1081.4904
1099.9718
1091.4206
1084.3685
1076.0594
1077.9209
1096.4312
1113.7552
1116.727
1129.6697
1135.9206
1128.725
1109.8839
1103.1523
1122.5565
1132.7999
1130.1578
1127.1983
1090.2707
1074.6474
1093.5644
1077.1822
1070.055
1073.7186
1064.8786
1067.6097
1061.8813
1059.3308
1067.7773
1060.2143
1063.3016
1067.948
1071.54
1064.3075
1063.3424
1082.6219
1072.9166
1064.3086
1054.7564
1044.8718
1054.2301
1045.5185
1043.0868
1039.129
1035.1447
1039.5964
1033.8868
1038.111
1033.2541
1028.591
1020.974
1027.0076
1034.5025
1044.8725
1054.7565
1048.0846
1044.7459
1040.568
1018.8524
1023.7201
1030.0928
1035.6526
1040.5249
1037.4699
1042.2686
1037.7568
1032.3133
1025.8626
1030.8087
1034.9231
1028.4472
1023.6413
1016.0265
1022.2212
1017.3981
1012.7101
1015.3988
1108.9266
1109.3775
1061.653
1057.3025
1054.751
1038.5747
1030.6428
1041.5853
1039.6878
1048.4814
1047.3472
1035.709
1026.1969
1027.7439
1037.2237
1040.1117
1050.3941
1053.1024
1044.2743
1034.4685
1043.8381
1048.168
1055.9428
1060.8628
102.14339
146.76784
194.79019
243.46691
529.83344
534.9672
248.38505
198.63667
149.62611
103.85749
104.38814
151.89913
202.14579
252.68781
540.29539
544.77552
254.78332
203.83103
153.09307
104.86203
105.15316
153.83793
204.95515
256.20698
548.89653
552.84973
257.52948
205.99044
154.52717
105.45013
105.74807
155.27667
207.13731
259.00426
556.76806
560.69954
260.63639
208.4034
156.10199
106.06261
106.3835
156.9757
209.74926
262.3765
564.67088
568.69504
264.1862
211.14789
157.88234
106.70974
107.03844
158.80934
212.5793
266.04026
572.78159
576.93639
267.9332
214.04126
159.75591
107.37049
107.70556
160.71871
215.52837
269.85949
581.16398
585.4677
271.82272
217.04488
161.70077
108.04498
108.38875
162.70044
218.58812
273.82098
589.85093
594.31663
275.859
220.16307
163.72114
108.7381
109.09291
164.76119
221.76725
277.93514
598.86823
603.50905
280.05401
223.40551
165.82405
109.45436
109.82242
166.90861
225.07629
282.21506
608.24299
613.07353
284.42325
226.78485
168.01868
110.19836
110.58214
169.15319
228.52969
286.6781
618.00487
623.04139
288.98408
230.31542
170.31526
110.97458
111.37537
171.50382
232.14046
291.34068
628.18818
633.44939
293.752
234.00887
172.72156
111.78552
112.20526
173.96817
235.92027
296.21865
638.82971
644.33358
298.74464
237.87871
175.24638
112.63519
113.07563
176.55627
239.8841
301.33085
649.96608
655.73256
303.98249
241.94138
177.90137
113.52795
113.99283
179.28142
244.05082
306.70112
661.63916
667.69326
309.49186
246.21726
180.69928
114.4704
114.95883
182.15747
248.44207
312.35584
673.90294
680.27165
315.29394
250.72499
183.65523
115.46185
691.59174
289.18206
229.33536
168.94243
109.90055
109.44455
167.60651
227.27956
286.51469
685.13705
678.84255
283.91036
225.27177
166.30227
109.00065
108.56239
165.02697
223.30724
281.36233
672.70228
666.7113
278.87654
221.392
163.78429
108.13373
107.7167
162.57184
219.52259
276.45047
660.86245
655.14975
274.0839
217.7001
161.39115
107.31051
106.91378
160.23968
215.92095
271.77328
649.56771
644.11111
269.51923
214.18674
159.11843
106.5268
106.14964
158.02605
212.49529
267.31996
638.77543
633.5551
265.17527
210.84781
156.96362
105.78255
105.42338
155.92558
209.23691
263.07791
628.44524
623.44135
261.02621
207.66214
154.91152
105.0718
104.72703
153.91853
206.11915
259.01614
618.53962
613.73631
257.0484
204.60982
152.94801
104.38909
104.05711
151.99706
203.12996
255.11917
609.02766
604.40945
253.22936
201.68162
151.06702
103.73125
103.41036
150.15439
200.25967
251.37426
599.8783
595.43079
249.55505
198.86625
149.26046
103.09443
102.78235
148.38219
197.49682
247.76774
591.0639
586.77428
246.01388
196.15394
147.52104
102.47407
102.16848
146.67438
194.83368
244.29044
582.55842
578.41191
242.60235
193.54104
145.84512
101.86578
101.56525
145.03415
192.27831
240.95552
574.3298
570.30497
239.37434
191.06452
144.25298
101.26945
100.98003
143.5174
189.92662
237.89797
566.32898
562.3814
236.57532
188.90204
142.85084
100.70503
100.43704
142.25035
187.9909
235.40868
558.42468
554.345
234.18637
187.02621
141.60399
100.16377
99.800776
140.63454
185.57771
232.35992
549.97836
545.04858
229.17674
183.06612
138.9231
99.275585
98.978576
136.07039
178.94704
224.12386
539.51719
530.61593
211.42437
167.96653
128.61334
96.797371
98.716427
136.18146
179.08589
224.27635
539.9772
545.41479
229.39743
183.243
139.01253
99.12395
99.729677
140.75597
185.76761
232.58384
550.27744
554.58239
234.3696
187.18112
141.70327
100.12182
100.41453
142.33427
188.11999
235.56208
558.62911
562.56267
236.70331
189.00861
142.92004
100.69226
100.9736
143.57591
190.01695
238.00742
566.49329
570.45609
239.47047
191.14325
144.30401
101.26725
101.56605
145.07972
192.34854
241.04166
574.47032
578.54395
242.68095
193.60482
145.8866
101.86871
102.17287
146.71254
194.89231
244.36294
582.68391
586.89479
246.0818
196.20866
147.55673
102.47958
102.78862
148.41579
197.54836
247.8319
591.18066
595.54492
249.61664
198.9156
149.29273
103.10143
103.41803
150.18579
200.30757
251.43406
599.99075
604.5212
253.28854
201.72908
151.09828
103.73964
104.06617
152.02864
203.17771
255.17861
609.13955
613.8491
257.10858
204.65809
152.98004
104.39871
104.73717
153.95116
206.16824
259.07742
618.6535
623.55635
261.08933
207.71263
154.94507
105.08251
105.43458
155.96042
209.28937
263.14337
628.56166
633.67345
265.24392
210.90311
157.00056
105.79426
106.16167
158.06452
212.55249
267.39071
638.89606
644.23458
269.58918
214.24284
159.15602
106.53841
106.9245
160.27469
215.97385
271.84004
649.69415
655.2798
274.1472
217.74956
161.42347
107.32032
107.72575
162.60153
219.56871
276.5103
660.99663
666.8499
278.93415
221.43598
163.81232
108.14247
108.57145
165.0549
223.35119
281.41986
672.84544
678.99021
283.97161
225.31942
166.33303
109.01086
109.45581
167.64105
227.33219
286.58133
685.29111
691.75396
289.25486
229.39317
168.98075
109.91263
110.38886
170.36246
231.51717
292.0095
698.39127
114.97904
182.1249
248.41235
312.37615
681.87227
675.37035
309.41375
246.11227
180.61642
114.46768
113.97312
179.14861
243.87355
306.5308
669.03733
662.865
303.72404
241.69531
177.72273
113.49355
113.02316
176.33116
239.56846
300.98372
656.84647
650.97699
298.31224
237.49619
174.97603
112.56304
112.11546
173.65522
235.47557
295.70727
645.24855
639.65467
293.16797
233.50732
172.37023
111.68007
111.25558
171.1181
231.58729
290.69002
634.18979
628.84805
288.27249
229.71567
169.8989
110.84201
110.4385
168.70901
227.88752
285.91064
623.62437
618.51389
283.60363
226.10316
167.5488
110.04501
109.66004
166.41447
224.35725
281.34622
613.51204
608.61462
279.138
222.65054
165.3065
109.28324
108.91368
164.22167
220.97856
276.97486
603.81775
599.11755
274.85742
219.34299
163.16118
108.55144
108.19559
162.12206
217.73952
272.78169
594.51046
589.99293
270.74849
216.17007
161.10567
107.84625
107.50237
160.10893
214.63021
268.75387
585.56174
581.21365
266.79895
213.12214
159.13328
107.16395
106.82984
158.17547
211.64114
264.87947
576.94559
572.75448
262.99712
210.18982
157.23713
106.49996
106.17296
156.31543
208.76428
261.14888
568.63691
564.58864
259.34031
207.37006
155.41383
105.84901
105.5273
154.53384
206.01055
257.57853
560.60506
556.67996
255.89064
204.70716
153.68875
105.21038
104.89978
152.89711
203.49098
254.32048
552.80693
548.96885
252.92254
202.40462
152.18647
104.60275
104.30735
151.55204
201.44678
251.6973
545.13219
541.18169
250.39645
200.41963
150.86315
103.98414
103.51302
149.83724
198.8875
248.45801
536.97878
532.32105
245.11024
196.25807
148.08017
102.80516
102.02758
145.76277
192.57147
240.34123
527.26413
530.86989
244.32368
195.68624
147.39586
101.30175
103.78503
149.58008
198.46191
248.2011
535.11672
540.51005
252.84888
202.27809
151.96554
104.33559
104.85666
153.15332
203.91632
254.88748
544.93765
549.05805
256.318
205.04727
153.89802
105.15326
105.45504
154.57997
206.06979
257.62637
553.00487
556.91925
259.09754
207.21415
155.32753
105.75539
106.07111
156.14883
208.4739
260.72302
560.84683
564.81493
262.46151
209.81887
157.02195
106.39326
106.71973
157.92543
211.21272
264.26642
568.83656
572.92111
266.11987
212.64407
158.85234
107.04915
107.38113
159.79635
214.10223
268.00916
577.07444
581.30114
269.9356
215.5899
160.75953
107.7168
108.05617
161.73982
217.10375
271.89639
585.60457
589.98811
273.89585
218.64845
162.74051
108.40051
108.74989
163.76013
220.2217
275.9325
594.45479
599.00786
278.01103
221.82843
164.80206
109.10543
109.46703
165.86491
223.46653
280.13027
603.65064
608.38653
282.2946
225.14061
166.9518
109.8357
110.21143
168.06159
226.84891
284.50321
613.21918
618.15257
286.76081
228.59625
169.19761
110.59525
110.98715
170.35891
230.38124
289.06693
623.19051
628.3372
291.42617
232.20859
171.54884
111.38817
111.79833
172.76649
234.07712
293.83837
633.59703
638.97521
296.30822
235.99149
174.01503
112.21863
112.64916
175.29419
237.9513
298.83634
644.47728
650.10971
301.42763
239.9614
176.60744
113.09096
113.54408
177.95416
242.02108
304.08247
655.87883
661.79116
306.8049
244.13416
179.33679
114.0093
114.4865
180.75561
246.30116
309.59651
667.85349
674.07264
312.46394
248.5286
182.21561
114.97726
115.483
183.71824
250.81792
315.40956
680.45511
687.00713
318.43591
253.1708
185.26362
116.0041
114.97418
182.11117
248.39207
312.35102
681.82954
675.33155
309.39044
246.09349
180.60371
114.4631
113.96879
179.13642
243.85562
306.50858
669.00164
662.8314
303.70257
241.67802
177.71097
113.48956
113.01946
176.3197
239.5515
300.96261
656.8143
650.94524
298.29154
237.47965
174.96496
112.5597
112.11244
173.64441
235.45926
295.68673
645.21654
639.62203
293.1473
233.49098
172.35952
111.67736
111.25299
171.10719
231.57061
290.66898
634.15639
628.81441
288.25127
229.69871
169.88773
110.83938
110.43587
168.69784
227.87066
285.88967
623.59103
618.48119
283.58324
226.08664
167.53776
110.04235
109.6574
166.40382
224.34139
281.3267
613.48032
608.58408
279.11957
222.63552
165.29637
109.28065
108.91122
164.21222
220.96456
276.95766
603.78851
599.08938
274.84128
219.3299
163.15238
108.54918
108.19354
162.11383
217.72718
272.76641
594.48318
589.96634
270.73381
216.1582
161.09775
107.84429
107.50052
160.10137
214.61879
268.73971
585.53577
581.18801
266.78495
213.11085
159.12582
107.16223
106.82821
158.168
211.6298
264.86541
576.92011
572.72902
262.98292
210.17833
157.22956
106.49842
106.1715
156.30776
208.75259
261.13444
568.61129
564.5628
259.32548
207.358
155.40594
105.84763
105.52596
154.52565
205.99804
257.56321
560.579
556.65369
255.87475
204.69416
153.6803
105.20905
104.89855
152.88873
203.47786
254.30431
552.78061
548.94308
252.906
202.39134
152.17812
104.60165
104.30642
151.54461
201.43447
251.68129
545.10826
541.16244
250.38013
200.40759
150.85684
103.98446
103.50661
149.82355
198.8699
248.43623
536.96985
532.32623
245.07487
196.23554
148.0807
102.81013
101.92664
145.70378
192.55533
240.33015
527.44567
540.683
225.09437
179.96727
136.77292
98.173007
99.107711
139.02463
183.11112
229.21464
545.34146
550.23349
232.58018
185.7662
140.74383
99.697893
100.12179
141.69299
187.15411
234.33499
554.5183
558.55716
235.52463
188.0897
142.31461
100.41131
100.69062
142.89855
188.97426
236.66109
562.48647
566.41545
237.96764
189.98557
143.55579
100.97174
101.2647
144.28334
191.11097
239.43014
570.37855
574.39386
241.00439
192.31944
145.06099
101.56318
101.86499
145.86712
193.57462
242.6431
578.46885
582.6098
244.32776
194.86496
146.69486
102.16907
102.47511
147.53815
196.18
246.0458
586.82134
591.10758
247.79813
197.52221
148.39888
102.78421
103.09645
149.27489
198.88805
249.58189
595.47187
599.91737
251.40092
200.28197
150.16924
103.41305
103.73398
151.0803
201.70141
253.25359
604.44711
609.06444
255.14419
203.15099
152.01126
104.06036
104.39207
152.9606
204.62842
257.07131
613.77251
618.57498
259.03922
206.13825
153.93141
104.73016
105.07458
154.9226
207.67873
261.04712
623.47544
628.47812
263.09939
209.25445
155.93718
105.42628
105.78512
156.97452
210.86425
265.1959
633.58715
638.80694
267.34142
212.51301
158.038
106.15231
106.52856
159.12759
214.20077
269.5373
644.14243
649.599
271.78911
215.93311
160.24725
106.91502
107.31103
161.39605
217.70877
274.09641
655.18173
660.89554
276.46244
219.53113
162.57659
107.7173
108.13442
163.78829
221.39928
278.88733
666.74572
672.73784
281.37446
223.31625
165.0323
108.5638
109.00249
166.30849
225.28183
283.92366
678.87918
685.17536
286.53171
227.29358
167.61589
109.44708
109.90342
168.95353
229.35129
289.20144
691.63247
698.26223
291.95192
231.47221
170.33332
110.37936
686.81842
318.32956
253.08629
185.2075
115.98661
115.46454
183.66251
250.73452
315.30477
680.27672
673.90512
312.36637
248.4515
182.16445
114.96154
114.47238
180.70429
246.22434
309.50028
667.69327
661.63848
306.70825
244.057
179.2857
113.99436
113.52842
177.90309
241.94422
303.98633
655.73319
649.96973
301.33321
239.88582
176.557
113.07537
112.63404
175.24528
237.87797
298.74471
644.34158
638.84255
296.21946
235.92054
173.9678
112.20401
111.78411
172.72109
234.00892
293.75303
633.46684
628.2091
291.34499
232.14385
171.50585
111.37462
110.97442
170.3184
230.32012
288.99023
623.06413
618.02782
286.68823
228.53849
169.1594
110.58318
110.19982
168.02529
226.79402
284.43424
613.09582
608.26421
282.22812
225.08773
166.91681
109.82439
109.45597
165.83091
223.41515
280.06568
603.52924
598.88753
277.94766
221.77803
164.76872
109.09453
108.73912
163.72729
220.17197
275.87
594.33555
589.87004
273.83365
218.59896
162.70782
108.38977
108.04541
161.70724
217.05441
271.83453
585.48762
581.18524
269.87378
215.54063
160.72698
107.70602
107.37035
159.76382
214.05296
267.94752
576.95968
572.80756
266.05827
212.59481
158.81982
107.03831
106.70885
157.89309
211.16371
264.20525
568.72451
564.70474
262.40059
209.77005
156.98975
106.38231
106.06017
156.11727
208.42593
260.66314
560.73891
556.81419
259.0392
207.16766
155.29718
105.74459
105.44479
154.55299
206.02772
257.57277
552.90436
548.96466
256.27067
205.01069
153.87546
105.14362
104.84712
153.14422
203.8997
254.86311
544.86068
540.44986
252.81957
202.25068
151.95032
104.32174
103.74466
149.64456
198.55425
248.29701
535.11524
530.86113
244.38709
195.76329
147.48698
101.3706
102.03144
146.9474
195.08066
243.79947
530.31789
535.30908
248.55268
198.77768
149.70902
103.76864
104.3376
151.96636
202.25624
252.82314
540.56932
545.00147
254.90745
203.93184
153.15612
104.83766
105.14356
153.90129
205.05323
256.32655
549.09465
553.02609
257.63933
206.08081
154.58617
105.44864
105.75141
155.33233
207.2215
259.10625
556.93008
560.85111
260.73069
208.48111
156.15357
106.06866
106.39119
157.02397
209.82178
262.46474
564.81494
568.83354
264.26921
211.21587
157.92765
106.7184
107.04772
158.85215
212.64362
266.11915
572.91596
577.06772
268.00874
214.10261
159.7967
107.38021
107.71562
160.75806
215.58759
269.93273
581.29337
585.59603
271.89426
217.10254
161.73906
108.05537
108.39951
162.73807
218.64485
273.89162
589.97922
594.44584
275.92941
220.21952
163.75863
108.74927
109.10459
164.79918
221.82433
278.00641
598.99924
603.64274
280.12698
223.46395
165.86303
109.46659
109.83516
166.9489
225.1366
282.29034
608.37997
613.21452
284.5006
226.84668
168.05993
110.21133
110.59494
169.19487
228.59256
286.75717
618.15066
623.19217
289.06405
230.37854
170.35682
110.98694
111.38729
171.54496
232.20338
291.42097
628.34327
633.60807
293.83231
234.07153
172.76235
111.79723
112.21689
174.00878
235.98281
296.29895
638.99163
644.49825
298.8252
237.94161
175.28733
112.647
113.08786
176.59824
239.94831
301.41271
650.13416
655.90466
304.06673
242.00793
177.9452
113.54081
114.00625
179.32742
244.12028
306.78859
661.81603
667.87572
309.58209
246.28903
180.74706
114.48414
114.97322
182.20687
248.51577
312.44842
674.09032
680.46395
315.38866
250.79999
183.70517
115.47647
115.99921
185.25191
253.15483
318.41768
687.00937
1179.2512
1179.3595
1179.2478
1179.3521
1163.94
1164.2435
1164.727
1204.7416
1203.9129
1164.2458
1162.9385
1201.7866
1203.9106
1204.3074
1192.3583
1173.7248
1153.3471
1148.126
1168.1258
1163.1918
1171.3736
1151.0093
1142.6267
1136.5975
1148.6655
1162.1641
1203.0798
1189.0329
1190.7778
1212.1432
1213.7504
1209.5336
1188.4214
1184.3334
1205.9485
1201.7588
1210.7026
1209.5234
1187.7205
1167.7038
1169.3183
1157.7483
1154.1859
1132.7102
1146.9538
1128.171
1108.8908
1110.9028
1096.1598
1116.0294
1111.8422
1091.7367
1072.5702
1065.3212
1072.2758
1091.2996
1091.2601
1090.194
1108.9175
1109.3664
1094.4976
1092.9898
527.29118
239.8619
192.17442
145.45889
102.3918
102.97472
147.8908
195.95559
244.74104
532.27204
536.91555
248.20869
198.67236
149.69171
103.58752
104.03002
150.7667
200.27844
250.23949
541.13484
545.11053
251.60633
201.36207
151.49254
104.33699
104.62346
152.14622
202.34807
252.86481
548.96784
552.82236
254.28717
203.45676
152.87202
104.9152
105.22199
153.67146
204.68414
255.87038
556.70799
560.64259
257.57105
205.99966
154.52485
105.53704
105.85702
155.40872
207.36464
259.33943
564.63337
568.68721
261.15593
208.76656
156.31559
106.18035
106.50641
157.23901
210.19453
263.00738
572.80904
577.0032
264.89489
211.65104
158.18094
106.83618
107.16968
159.13925
213.13271
266.81564
581.27345
585.62278
268.77401
214.64441
160.1174
107.50821
107.85173
161.11396
216.18395
270.76872
590.05474
594.57241
272.80442
217.75622
162.13234
108.20138
108.55709
163.17125
219.35932
274.88014
599.17918
603.87847
277.00036
220.99797
164.23401
108.91992
109.28977
165.31951
222.67058
279.16447
608.67429
613.57027
281.37673
224.38155
166.43073
109.66755
110.05321
167.56674
226.12947
283.63667
618.57043
623.67903
285.94872
227.91885
168.73067
110.44775
110.85118
169.92176
229.74863
288.31272
628.90041
634.2397
290.73312
231.62318
171.14305
111.26443
111.68757
172.39405
233.54183
293.21012
639.70196
645.29319
295.74812
235.50889
173.67774
112.12158
112.5666
174.99389
237.52409
298.34788
651.01932
656.88663
301.0137
239.59157
176.34535
113.02352
113.49258
177.73223
241.71155
303.74678
662.90188
669.0721
306.5532
243.88967
179.15856
113.97509
114.47156
180.62492
246.12706
309.43525
675.40449
681.90675
312.39827
248.42858
182.13476
114.98321
114.46021
180.59033
246.07285
309.36402
675.26457
668.93682
306.48772
243.84031
179.12737
113.96678
113.48727
177.70288
241.66423
303.68389
662.76989
656.75596
300.94371
239.53728
176.31058
113.01654
112.55581
174.95277
237.46168
298.26914
650.88999
645.16455
295.66128
235.43881
173.63032
112.10781
111.67153
172.34164
233.46545
293.11657
639.57277
634.10867
290.63466
231.54233
171.08729
111.24654
110.83238
169.86505
229.6663
288.21255
628.76706
623.5435
285.85113
227.83917
168.67635
110.42949
110.03624
167.517
226.05552
283.54534
618.43443
613.43408
281.29193
224.31335
166.38521
109.65172
109.27481
165.27661
222.60642
279.08457
608.53734
603.7404
276.92421
220.93705
164.19343
108.90599
108.54401
163.13247
219.3007
274.80654
599.03963
594.4315
272.73191
217.69867
162.09438
108.1888
107.83935
161.07592
216.12621
270.69599
589.91236
585.47884
268.70001
214.58561
160.0786
107.49578
107.15709
159.09939
213.07241
266.73998
581.12777
576.85592
264.81736
211.58908
158.13987
106.82334
106.49334
157.19674
210.13087
262.92801
572.6601
568.53645
261.07447
208.70112
156.27209
106.16709
105.84364
155.36378
207.29713
259.25569
564.48048
560.48708
257.48439
205.92961
154.47817
105.52363
105.20871
153.62278
204.61124
255.78053
556.54931
552.65934
254.1936
203.38067
152.82122
104.90275
104.61283
152.0935
202.26951
252.76858
548.79811
544.92759
251.50987
201.28272
151.43932
104.33229
104.03511
150.71704
200.2085
250.15798
540.92713
536.63479
248.14974
198.60998
149.64147
103.618
103.04298
147.87271
195.96238
244.79219
531.86692
526.50727
239.96049
192.1377
145.35818
102.52553
101.11647
141.03282
185.42791
231.81384
519.49984
526.54414
250.04851
200.2436
151.1164
107.15545
101.53676
147.72963
196.10439
244.74911
531.36108
535.1476
248.14855
198.45234
149.62437
103.93132
104.40066
151.93284
202.20807
252.75628
540.49954
544.89762
254.80114
203.84502
153.11538
104.90733
105.18952
153.86685
204.99316
256.25538
549.0215
552.97373
257.57746
206.02663
154.55382
105.48194
105.77471
155.30446
207.17712
259.05675
556.89599
560.83047
260.691
208.44484
156.13025
106.08559
106.40368
157.0049
209.79275
262.43359
564.80458
568.83108
264.24518
211.19295
157.91232
106.72786
107.05502
158.84001
212.62576
266.1009
572.91957
577.07614
267.99521
214.08885
159.78713
107.38593
107.72022
160.75054
215.57704
269.92279
581.30549
585.61117
271.88758
217.09485
161.7334
108.05918
108.40273
162.73397
218.63952
273.88755
589.99636
594.46421
275.92739
220.21606
163.75579
108.7521
109.1072
164.79751
221.82254
278.00614
599.01837
603.66215
280.12859
223.46392
165.86261
109.46914
109.8377
166.94963
225.13808
282.29348
608.39891
613.23223
284.50527
226.84961
168.06169
110.21387
110.59757
169.19759
228.59669
286.76298
618.1658
623.20352
289.07102
230.38387
170.36048
110.98973
111.39027
171.54934
232.20972
291.42892
628.34947
633.60817
293.84111
234.07876
172.76729
111.80016
112.21943
174.01365
235.99005
296.30772
638.98492
644.48481
298.83377
237.94866
175.29206
112.64933
113.09003
176.60251
239.95464
301.42031
650.11341
655.877
304.07239
242.01285
177.94839
113.54265
114.00768
179.33036
244.12398
306.79161
661.78186
667.83458
309.58349
246.2935
180.7526
114.48657
114.98044
182.2174
248.52313
312.45023
674.04227
680.412
315.39563
250.81761
183.73145
115.49124
116.01684
185.29731
253.17353
318.41563
686.95184
114.46106
180.58952
246.07443
309.36866
675.29501
668.961
306.47843
243.82971
179.11779
113.96279
113.47918
177.68828
241.64661
303.66609
662.78963
656.77464
300.93153
239.5258
176.30148
113.00999
112.55376
174.95217
237.46083
298.26827
650.90813
645.1829
295.67348
235.45007
173.63941
112.11016
111.67785
172.3599
233.48854
293.14177
639.59212
634.13004
290.67212
231.57628
171.11349
111.2567
110.84617
169.89538
229.70657
288.25782
628.78994
623.56536
285.89076
227.87305
168.70089
110.44222
110.04428
167.53237
226.07766
283.57253
618.4543
613.45222
281.30609
224.32363
166.39122
109.65422
109.27532
165.27985
222.6128
279.09392
608.55526
603.75817
276.93195
220.94213
164.19576
108.90659
108.54489
163.13516
219.30573
274.81384
599.05689
594.44778
272.73899
217.70387
162.09757
108.19003
107.84104
161.07951
216.1316
270.70289
589.92728
585.49218
268.70637
214.59075
160.08222
107.4979
107.15956
159.10272
213.07691
266.74548
581.13954
576.86611
264.82166
211.59259
158.14258
106.82611
106.4965
157.19881
210.13332
262.93104
572.6687
568.54327
261.07597
208.70224
156.27326
106.17068
105.84777
155.36414
207.29695
259.25568
564.48544
560.49001
257.48288
205.92816
154.47776
105.52849
105.21465
153.62185
204.60867
255.77763
556.55023
552.65806
254.189
203.37675
152.81965
104.91011
104.62224
152.09183
202.26465
252.76254
548.79496
544.92371
251.50146
201.27591
151.43667
104.344
104.05067
150.71594
200.20213
250.1496
540.92767
536.64964
248.15006
198.6118
149.64807
103.63918
103.07102
147.89758
195.98904
244.82241
531.91417
526.6297
240.03349
192.18918
145.39613
102.54481
101.18168
141.4584
186.02095
232.48162
519.86092
531.29798
213.6914
169.97356
130.11846
97.723871
104.59476
145.20985
191.3372
238.93386
524.33963
525.79008
239.92265
192.29749
146.05384
104.57625
102.22123
145.41672
192.16435
239.87627
527.4265
532.29263
244.77295
195.98438
147.91855
102.94797
103.5567
149.68389
198.67661
248.22022
536.94089
541.16529
250.25906
200.29385
150.77368
104.01159
104.32174
151.49393
201.36886
251.61656
545.13289
548.98365
252.87582
202.35711
152.15058
104.61325
104.9075
152.8745
203.46219
254.29432
552.83303
556.71539
255.87818
204.69093
153.67517
105.21672
105.53283
154.52684
206.00348
257.57592
560.64775
564.63686
259.34503
207.36975
155.41172
105.85412
106.17775
156.31683
208.76884
261.15883
568.68934
572.81009
263.01094
210.19791
157.24104
106.50456
106.83432
158.18117
211.65175
264.89601
577.00356
581.27323
266.81762
213.13469
159.14035
107.16841
107.50682
160.117
214.64414
268.77396
585.62225
590.05375
270.76957
216.18492
161.11444
107.85078
108.20026
162.13137
217.7551
272.80344
594.57123
599.17796
274.88009
219.35946
163.17119
108.55639
108.91904
164.23263
220.9962
276.99867
603.87749
608.67349
279.1636
222.66993
165.31889
109.28921
109.66677
166.42885
224.37906
281.37428
613.5701
618.57112
283.63522
226.12824
167.56575
110.05277
110.44719
168.72883
227.91636
285.94627
623.68096
628.90406
288.31175
229.74779
169.92111
110.85097
111.26412
171.1419
231.62165
290.73175
634.24528
639.71006
293.21071
233.54232
172.39427
111.6876
112.12148
173.67782
235.50926
295.74902
645.30377
651.03264
298.35095
237.52652
174.9953
112.56669
113.0234
176.34643
239.59381
301.01716
656.90281
662.92089
303.75257
241.71584
177.7346
113.49267
113.97522
179.16109
243.89432
306.55984
669.09326
675.42733
309.44453
246.1343
180.62945
114.47232
114.98434
182.14005
248.43687
312.40894
681.93099
698.42374
292.03726
231.53959
170.37751
110.39591
109.9192
168.99179
229.41087
289.27859
691.78299
685.31467
286.59399
227.34011
167.64476
109.45635
109.00631
166.33417
225.32358
283.97939
679.01146
672.86631
281.43275
223.36064
165.0597
108.56823
108.14177
163.81908
221.44806
278.95059
666.87125
661.01924
276.53075
219.58494
162.61182
107.72682
107.32225
161.43463
217.76654
274.16864
655.30466
649.72141
271.86341
215.99308
160.28764
106.92777
106.54238
159.16794
214.26051
269.61121
644.26413
638.92746
267.41179
212.56967
158.07614
106.166
105.79781
157.00955
210.91661
265.26135
633.70643
628.59625
263.15992
209.30249
155.96904
105.43785
105.08523
154.95163
207.72299
261.10343
623.59248
618.69082
259.09205
206.17946
153.95823
104.74002
104.4013
152.98583
204.66743
257.12165
613.88719
609.17805
255.1926
203.18834
152.03528
104.06909
103.74242
151.10358
201.73765
253.30074
604.55961
600.02872
251.44692
200.31726
150.19183
103.42127
103.10457
149.29693
198.92256
249.62701
595.58194
591.21602
247.84211
197.5558
148.42032
102.79231
102.48331
147.5589
196.21251
246.08851
586.92794
582.71408
244.3686
194.89592
146.71456
102.17744
101.87375
145.88548
193.60358
242.68162
578.5703
574.49149
241.03957
192.34563
145.07751
101.57256
101.27535
144.29753
191.13353
239.46101
570.47061
566.4993
237.99226
190.00313
143.56666
100.9845
100.70795
142.90535
188.98472
236.67641
562.55811
558.61288
235.52345
188.08716
142.31246
100.43418
100.15713
141.67218
187.11939
234.29446
554.55296
550.2678
232.47981
185.67725
140.67742
99.730855
99.220425
138.93062
182.94973
229.02496
545.35729
540.71067
224.86391
179.75431
136.59262
98.248796
532.28138
211.57125
168.17939
128.58601
96.288957
98.945187
136.04906
178.80178
223.90882
540.25022
545.45566
229.12892
183.03925
138.90338
99.251329
99.808695
140.65732
185.60044
232.37766
550.21942
554.52495
234.23391
187.06551
141.631
100.17678
100.45274
142.28532
188.04368
235.47554
558.59046
562.54272
236.64493
188.95554
142.88542
100.71995
100.9938
143.55119
189.97967
237.96757
566.48918
570.46445
239.44329
191.11696
144.2863
101.28247
101.57771
145.06731
192.33054
241.02406
574.48857
578.56997
242.67069
193.59322
145.87832
101.87795
102.18044
146.70762
194.88587
244.35859
582.71585
586.93123
246.08204
196.20624
147.55442
102.48596
102.79422
148.41574
197.54927
247.83587
591.22037
595.58699
249.62362
198.91918
149.29448
103.10645
103.4226
150.18899
200.31328
251.4434
600.0342
604.56544
253.29963
201.73641
151.10261
103.74387
104.07018
152.03398
203.1865
255.19128
609.18397
613.8931
257.12268
204.6682
152.9863
104.40257
104.74094
153.95836
206.17962
259.09288
618.69632
623.59749
261.10625
207.7254
154.95331
105.0863
105.43856
155.97007
209.30388
263.16212
628.60036
633.70922
265.26479
210.91956
157.01171
105.79863
106.16643
158.07732
212.5711
267.41392
638.92845
644.26264
269.61334
214.2625
159.16961
106.54283
106.92763
160.28751
215.99234
271.8627
649.71679
655.296
274.16606
217.76479
161.43392
107.32177
107.72533
162.60834
219.57922
276.52384
661.00622
666.8531
278.94044
221.44003
163.81387
108.13941
108.5644
165.05087
223.34764
281.41727
672.84289
678.9823
283.95971
225.30729
166.32306
109.00141
109.45051
167.63022
227.31895
286.56899
685.2788
691.73998
289.25005
229.38708
168.97529
109.91273
110.38862
170.35899
231.51284
292.00505
698.37367
115.99646
185.24195