/*--------------------------------*- C++ -*----------------------------------*\
  =========                 |
  \\      /  F ield         | OpenFOAM: The Open Source CFD Toolbox
   \\    /   O peration     | Website:  https://openfoam.org
    \\  /    A nd           | Version:  7
     \\/     M anipulation  |
\*---------------------------------------------------------------------------*/
FoamFile
{
    version     2.0;
    format      ascii;
    class       volScalarField;
    location    "450";
    object      p;
}
// * * * * * * * * * * * * * * * * * * * * * * * * * * * * * * * * * * * * * //

dimensions      [1 -1 -2 0 0 0 0];

internalField   nonuniform List<scalar> 
25201
(
101314.78
101313.98
101314.82
101314.11
101312.85
101313.2
101313.5
101313.5
101313.14
101312.41
101313.11
101313.12
101312.55
101314.66
101315.32
101311.86
101312.41
101312.3
101310.71
101314.02
101312.14
101312.53
101311.41
101314.19
101314.17
101313
101312.08
101312.2
101312.64
101312.58
101312.82
101311.66
101316.5
101315.74
101314.79
101315.85
101312.08
101312.9
101316.8
101317.44
101312.7
101313.01
101313.1
101316.96
101317.84
101318
101315.71
101314.64
101312.62
101312.73
101312.46
101312.28
101313.2
101313.1
101312.71
101312.45
101312.84
101313.83
101312.99
101314.25
101310.97
101314.17
101312.92
101313.27
101311.16
101311.53
101311.52
101311.52
101312.87
101313.07
101314.77
101311.29
101314.04
101313.02
101313.28
101315.19
101311.8
101312.42
101315.43
101314.28
101314.64
101313.35
101316.02
101314.35
101316.74
101312.53
101315.93
101315.05
101313.54
101313.66
101310.53
101317.73
101313.95
101316.74
101314.07
101310.53
101311.89
101315.6
101316.1
101316.75
101315.5
101316.7
101318.34
101318.1
101316.16
101320.15
101318.31
101314.87
101316.38
101317.2
101314.77
101313.91
101317.47
101316.92
101319.26
101320.51
101318.28
101319.82
101320.71
101318.36
101316.48
101321.52
101318.53
101320.65
101321.82
101317.82
101317.58
101316.28
101313.53
101316.17
101316.72
101317.1
101317.64
101317.2
101316.88
101315.88
101315.64
101315.77
101314.04
101312.67
101312.38
101312.87
101314.16
101310.82
101313.57
101312.87
101313.05
101312.65
101312.38
101311.5
101311.14
101313.23
101312.84
101311.51
101311.49
101311.34
101312.17
101312.28
101313.67
101312.84
101314.68
101311.03
101312.34
101314.31
101313.04
101313.83
101314.96
101312.19
101317.8
101315.96
101316.61
101314.27
101314
101314.25
101313.46
101315.59
101314.06
101315.84
101319.16
101316.07
101318.61
101312.69
101317.58
101320.03
101316.12
101322.12
101317.68
101321.66
101321.49
101321.93
101320.53
101319.02
101319.03
101315.62
101317.52
101310.31
101313.05
101320.37
101321.15
101315.98
101317.66
101316.06
101319.87
101313.59
101316.25
101317.9
101317.94
101318.03
101314.69
101318.41
101320.42
101321.66
101317.77
101319.66
101316.66
101317.07
101314.05
101314.71
101312.21
101311.96
101312.61
101313.11
101315.3
101312.59
101312.32
101312.51
101313.03
101317.75
101316.86
101316.2
101317.19
101316.42
101312.73
101311.75
101311.24
101314.24
101315.35
101314.51
101312.21
101312.15
101342.42
101342.87
101343.24
101344.05
101356.11
101383.98
101383.1
101382.49
101381.87
101381.33
101359.1
101359.17
101359.12
101359.19
101360.54
101356.36
101356.07
101356
101355.95
101355.91
101346.53
101346.56
101346.57
101346.61
101347.03
101341.58
101341.36
101341.33
101341.31
101341.28
101336.19
101336.22
101336.24
101336.27
101336.38
101332.48
101332.49
101332.46
101332.45
101332.42
101329.15
101329.18
101329.2
101329.21
101329.14
101326.41
101326.53
101326.52
101326.5
101326.48
101324.19
101324.21
101324.22
101324.24
101324.09
101322.11
101322.28
101322.27
101322.25
101322.23
101320.54
101320.55
101320.57
101320.58
101320.39
101318.89
101319.08
101319.08
101319.06
101319.05
101317.72
101317.74
101317.75
101317.76
101317.55
101316.35
101316.56
101316.55
101316.54
101316.53
101315.44
101315.45
101315.46
101315.47
101315.25
101314.23
101314.45
101314.45
101314.44
101314.42
101313.48
101313.5
101313.51
101313.51
101313.29
101312.39
101312.61
101312.61
101312.6
101312.58
101311.7
101311.72
101311.73
101311.74
101311.51
101310.67
101310.9
101310.89
101310.88
101310.86
101310.06
101310.08
101310.09
101310.09
101309.86
101309.03
101309.25
101309.25
101309.24
101309.22
101308.39
101308.4
101308.41
101308.42
101308.2
101307.38
101307.59
101307.59
101307.58
101307.56
101306.73
101306.75
101306.76
101306.77
101306.55
101305.66
101305.89
101305.88
101305.87
101305.85
101304.78
101304.81
101304.82
101304.83
101304.64
101303.74
101303.83
101303.81
101303.79
101303.75
101303.39
101303.41
101303.41
101303.41
101303.13
101302.03
101302.27
101302.26
101302.25
101302.24
101302.17
101302.58
101302.59
101302.59
101302.59
101303.56
101303.57
101303.57
101303.57
101303.22
101303.8
101303.88
101303.86
101303.83
101303.79
101304.59
101304.63
101304.65
101304.67
101304.57
101305.62
101305.89
101305.88
101305.87
101305.85
101306.75
101306.76
101306.77
101306.78
101306.52
101307.35
101307.61
101307.6
101307.59
101307.57
101308.4
101308.42
101308.43
101308.44
101308.18
101309.02
101309.3
101309.3
101309.29
101309.27
101310.1
101310.11
101310.12
101310.12
101309.84
101310.65
101310.92
101310.92
101310.91
101310.89
101311.72
101311.74
101311.75
101311.75
101311.5
101312.38
101312.64
101312.64
101312.63
101312.62
101313.5
101313.52
101313.52
101313.53
101313.27
101314.2
101314.45
101314.45
101314.44
101314.42
101315.41
101315.43
101315.44
101315.44
101315.2
101316.28
101316.51
101316.5
101316.5
101316.48
101317.65
101317.66
101317.67
101317.68
101317.46
101318.77
101318.97
101318.97
101318.95
101318.94
101320.39
101320.4
101320.41
101320.42
101320.25
101321.92
101322.07
101322.06
101322.05
101322.03
101323.91
101323.93
101323.94
101323.95
101323.84
101326.09
101326.15
101326.14
101326.12
101326.1
101328.64
101328.67
101328.68
101328.7
101328.71
101331.91
101331.79
101331.77
101331.75
101331.72
101335.24
101335.27
101335.29
101335.32
101335.62
101340.5
101340.01
101339.98
101339.96
101339.93
101344.79
101344.82
101344.83
101344.87
101345.6
101353.92
101353.07
101353.01
101353
101352.96
101357.75
101357.8
101357.83
101357.9
101358.83
101375.47
101371.5
101371.14
101370.89
101370.66
101360.02
101360.94
101361.65
101362.28
101367.06
101379.13
101274.14
101261.44
101249.7
101236.04
101392.76
101393.73
101394.84
101395.71
101399.64
101395.56
101392.23
101391.95
101391.77
101391.65
101371.83
101371.8
101371.78
101371.79
101371.68
101362.74
101362.43
101362.42
101362.43
101362.43
101351.38
101351.38
101351.37
101351.38
101351.7
101344.91
101344.71
101344.7
101344.7
101344.69
101338.78
101338.8
101338.8
101338.81
101338.9
101334.41
101334.46
101334.45
101334.44
101334.43
101330.75
101330.77
101330.77
101330.78
101330.66
101327.63
101327.8
101327.8
101327.79
101327.77
101325.26
101325.27
101325.28
101325.28
101325.08
101322.93
101323.15
101323.15
101323.14
101323.13
101321.29
101321.31
101321.31
101321.32
101321.08
101319.47
101319.72
101319.71
101319.71
101319.69
101318.28
101318.29
101318.3
101318.3
101318.04
101316.77
101317.04
101317.03
101317.03
101317.01
101315.87
101315.88
101315.89
101315.89
101315.62
101314.55
101314.83
101314.83
101314.82
101314.81
101313.83
101313.84
101313.85
101313.85
101313.57
101312.63
101312.92
101312.92
101312.91
101312.89
101312.01
101312.02
101312.03
101312.03
101311.75
101310.91
101311.21
101311.2
101311.2
101311.18
101310.36
101310.38
101310.38
101310.38
101310.07
101309.2
101309.5
101309.5
101309.49
101309.48
101308.57
101308.59
101308.6
101308.6
101308.33
101307.48
101307.73
101307.73
101307.72
101307.7
101306.85
101306.86
101306.87
101306.88
101306.62
101305.69
101305.96
101305.96
101305.95
101305.93
101304.65
101304.69
101304.71
101304.74
101304.64
101303.88
101303.97
101303.94
101303.92
101303.88
101303.65
101303.65
101303.65
101303.65
101303.29
101302.25
101302.69
101302.7
101302.71
101302.71
101301.24
101301.26
101301.27
101301.27
101300.98
101301.13
101301.15
101301.16
101301.17
101300.95
101302.23
101302.53
101302.53
101302.53
101302.52
101303.32
101303.34
101303.36
101303.37
101303.15
101303.86
101304.01
101303.99
101303.98
101303.95
101304.62
101304.66
101304.68
101304.7
101304.6
101305.67
101305.9
101305.89
101305.88
101305.86
101306.8
101306.82
101306.83
101306.83
101306.61
101307.46
101307.68
101307.67
101307.66
101307.64
101308.51
101308.53
101308.54
101308.55
101308.32
101309.19
101309.43
101309.43
101309.42
101309.4
101310.26
101310.28
101310.29
101310.29
101310.04
101310.88
101311.12
101311.12
101311.11
101311.09
101311.91
101311.93
101311.94
101311.94
101311.72
101312.6
101312.83
101312.82
101312.82
101312.8
101313.73
101313.75
101313.76
101313.76
101313.53
101314.52
101314.75
101314.74
101314.73
101314.72
101315.78
101315.79
101315.8
101315.81
101315.59
101316.74
101316.96
101316.96
101316.95
101316.93
101318.19
101318.21
101318.22
101318.22
101318.01
101319.44
101319.64
101319.64
101319.63
101319.61
101321.21
101321.23
101321.24
101321.24
101321.05
101322.91
101323.08
101323.08
101323.07
101323.05
101325.19
101325.21
101325.22
101325.22
101325.06
101327.63
101327.76
101327.75
101327.74
101327.72
101330.73
101330.74
101330.75
101330.76
101330.68
101334.48
101334.48
101334.47
101334.46
101334.44
101338.89
101338.9
101338.91
101338.92
101339.06
101345.25
101345
101344.98
101344.98
101344.96
101352.13
101352.13
101352.12
101352.12
101352.5
101364.54
101364.45
101364.47
101364.49
101364.52
101378.23
101378.05
101377.88
101377.73
101376.8
101408.34
101411.48
101411.89
101412.29
101412.78
101440.99
101439.99
101439.09
101438.15
101431.73
101357.87
101354.58
101355.67
101357.35
101359.59
101396.48
101397.12
101397.74
101398.35
101397.87
101365.35
101364.11
101364.08
101364.11
101364.1
101359.87
101359.91
101359.96
101360.02
101360.2
101349.62
101349.2
101349.17
101349.16
101349.14
101343.34
101343.36
101343.38
101343.41
101343.61
101337.95
101337.85
101337.83
101337.81
101337.79
101333.72
101333.74
101333.76
101333.78
101333.75
101330.18
101330.27
101330.26
101330.24
101330.22
101327.37
101327.39
101327.41
101327.42
101327.28
101324.82
101324.99
101324.98
101324.97
101324.95
101322.88
101322.9
101322.91
101322.92
101322.73
101320.92
101321.12
101321.12
101321.11
101321.09
101319.53
101319.55
101319.56
101319.56
101319.35
101317.96
101318.17
101318.17
101318.16
101318.14
101316.89
101316.91
101316.92
101316.92
101316.7
101315.56
101315.79
101315.78
101315.78
101315.76
101314.71
101314.73
101314.74
101314.74
101314.51
101313.53
101313.76
101313.76
101313.75
101313.74
101312.81
101312.83
101312.84
101312.84
101312.61
101311.72
101311.96
101311.96
101311.95
101311.93
101311.08
101311.1
101311.11
101311.11
101310.87
101310.04
101310.28
101310.28
101310.27
101310.25
101309.42
101309.43
101309.44
101309.44
101309.21
101308.37
101308.61
101308.6
101308.59
101308.58
101307.73
101307.75
101307.76
101307.76
101307.53
101306.68
101306.9
101306.9
101306.89
101306.87
101305.98
101305.99
101306.01
101306.01
101305.79
101304.85
101305.06
101305.05
101305.04
101305.02
101304.11
101304.13
101304.14
101304.15
101303.94
101303.06
101303.28
101303.28
101303.26
101303.24
101302.21
101302.23
101302.25
101302.26
101302.03
101300.92
101301.11
101301.1
101301.09
101301.07
101301.14
101301.16
101301.17
101301.18
101300.96
101302.24
101302.55
101302.55
101302.55
101302.54
101303.32
101303.35
101303.36
101303.37
101303.16
101303.85
101303.98
101303.97
101303.95
101303.92
101304.58
101304.61
101304.64
101304.66
101304.57
101305.63
101305.84
101305.84
101305.83
101305.8
101306.73
101306.75
101306.77
101306.77
101306.56
101307.42
101307.63
101307.62
101307.61
101307.59
101308.45
101308.47
101308.48
101308.49
101308.27
101309.14
101309.38
101309.38
101309.37
101309.35
101310.22
101310.23
101310.24
101310.25
101310
101310.84
101311.08
101311.08
101311.07
101311.05
101311.87
101311.89
101311.9
101311.91
101311.68
101312.56
101312.79
101312.78
101312.78
101312.76
101313.69
101313.7
101313.71
101313.72
101313.49
101314.48
101314.7
101314.69
101314.68
101314.67
101315.72
101315.73
101315.74
101315.75
101315.53
101316.68
101316.89
101316.88
101316.87
101316.86
101318.12
101318.14
101318.15
101318.15
101317.95
101319.36
101319.56
101319.55
101319.54
101319.53
101321.11
101321.13
101321.14
101321.15
101320.96
101322.8
101322.97
101322.96
101322.96
101322.94
101325.06
101325.07
101325.08
101325.09
101324.94
101327.48
101327.6
101327.6
101327.59
101327.57
101330.55
101330.56
101330.57
101330.58
101330.51
101334.28
101334.28
101334.27
101334.26
101334.24
101338.66
101338.68
101338.69
101338.7
101338.83
101345.01
101344.77
101344.75
101344.75
101344.73
101351.87
101351.87
101351.86
101351.86
101352.22
101364.33
101364.25
101364.28
101364.31
101364.34
101377.91
101377.72
101377.56
101377.41
101376.47
101409.47
101412.28
101412.68
101413.06
101413.57
101441.58
101440.72
101439.9
101438.96
101431.45
101394.62
101402.02
101403.12
101404.24
101405.56
101397.99
101398.08
101398.36
101398.66
101400.16
101370.63
101371
101371.06
101371.12
101371.18
101361.73
101361.71
101361.7
101361.7
101361.8
101350.62
101350.34
101350.34
101350.35
101350.35
101343.83
101343.83
101343.84
101343.85
101344.01
101338.13
101338.07
101338.06
101338.05
101338.04
101333.81
101333.83
101333.84
101333.84
101333.78
101330.13
101330.27
101330.26
101330.25
101330.24
101327.34
101327.35
101327.36
101327.37
101327.19
101324.7
101324.91
101324.91
101324.9
101324.89
101322.81
101322.82
101322.83
101322.84
101322.61
101320.8
101321.04
101321.04
101321.03
101321.02
101319.46
101319.47
101319.48
101319.48
101319.23
101317.84
101318.1
101318.09
101318.09
101318.07
101316.83
101316.84
101316.85
101316.86
101316.59
101315.46
101315.73
101315.72
101315.72
101315.7
101314.66
101314.68
101314.69
101314.69
101314.41
101313.44
101313.72
101313.72
101313.71
101313.7
101312.78
101312.79
101312.8
101312.8
101312.52
101311.64
101311.92
101311.92
101311.91
101311.9
101311.09
101311.1
101311.11
101311.11
101310.81
101309.98
101310.29
101310.29
101310.29
101310.28
101309.39
101309.41
101309.41
101309.42
101309.12
101308.26
101308.52
101308.52
101308.51
101308.49
101307.63
101307.65
101307.66
101307.67
101307.41
101306.56
101306.82
101306.81
101306.8
101306.79
101305.86
101305.88
101305.89
101305.9
101305.63
101304.57
101304.66
101304.63
101304.61
101304.57
101303.81
101303.84
101303.87
101303.89
101303.82
101303.26
101303.62
101303.62
101303.62
101303.62
101302.66
101302.67
101302.66
101302.65
101302.23
101300.95
101301.23
101301.22
101301.21
101301.2
101300.87
101301.06
101301.05
101301.04
101301.01
101302.26
101302.28
101302.29
101302.29
101302.05
101303.15
101303.42
101303.42
101303.41
101303.4
101303.75
101303.78
101303.81
101303.83
101303.74
101304.64
101304.82
101304.81
101304.8
101304.78
101305.86
101305.87
101305.88
101305.89
101305.66
101306.56
101306.77
101306.77
101306.76
101306.74
101307.58
101307.6
101307.61
101307.62
101307.4
101308.23
101308.45
101308.44
101308.43
101308.41
101309.26
101309.28
101309.29
101309.29
101309.07
101309.91
101310.14
101310.14
101310.13
101310.11
101310.92
101310.93
101310.94
101310.95
101310.73
101311.57
101311.79
101311.78
101311.77
101311.76
101312.64
101312.66
101312.67
101312.67
101312.45
101313.37
101313.58
101313.58
101313.57
101313.56
101314.52
101314.53
101314.54
101314.55
101314.34
101315.37
101315.57
101315.57
101315.56
101315.54
101316.65
101316.67
101316.68
101316.68
101316.49
101317.72
101317.91
101317.9
101317.89
101317.88
101319.23
101319.25
101319.26
101319.26
101319.09
101320.64
101320.8
101320.79
101320.78
101320.76
101322.52
101322.53
101322.54
101322.55
101322.41
101324.46
101324.57
101324.56
101324.55
101324.54
101326.92
101326.94
101326.95
101326.96
101326.88
101329.74
101329.75
101329.74
101329.73
101329.72
101333.16
101333.17
101333.18
101333.2
101333.27
101337.45
101337.22
101337.2
101337.19
101337.18
101342.66
101342.67
101342.68
101342.7
101343.07
101349.18
101348.55
101348.54
101348.54
101348.54
101359.25
101359.26
101359.27
101359.3
101359.81
101365.85
101364.34
101364.36
101364.4
101364.42
101396.04
101396.64
101397.22
101397.73
101398.04
101366.33
101365.21
101366.67
101368.84
101371.53
101361.3
101361.63
101362
101362.7
101374.27
101396.16
101395.19
101394.72
101394.31
101393.72
101366.7
101366.66
101366.61
101366.63
101368.07
101361.71
101361.27
101361.23
101361.2
101361.18
101350.27
101350.27
101350.27
101350.28
101350.82
101344.43
101344.14
101344.13
101344.12
101344.11
101338.35
101338.36
101338.37
101338.39
101338.54
101334.18
101334.16
101334.15
101334.14
101334.12
101330.52
101330.53
101330.54
101330.55
101330.49
101327.51
101327.63
101327.62
101327.61
101327.59
101325.11
101325.12
101325.13
101325.14
101324.98
101322.86
101323.03
101323.03
101323.02
101323
101321.19
101321.2
101321.21
101321.22
101321.02
101319.42
101319.62
101319.62
101319.61
101319.59
101318.19
101318.21
101318.21
101318.22
101318.01
101316.74
101316.96
101316.96
101316.95
101316.93
101315.79
101315.8
101315.81
101315.81
101315.59
101314.53
101314.76
101314.76
101314.75
101314.73
101313.75
101313.77
101313.77
101313.78
101313.54
101312.61
101312.85
101312.85
101312.84
101312.82
101311.94
101311.95
101311.96
101311.96
101311.73
101310.88
101311.12
101311.12
101311.11
101311.09
101310.28
101310.29
101310.3
101310.3
101310.05
101309.2
101309.45
101309.44
101309.43
101309.42
101308.56
101308.58
101308.59
101308.6
101308.36
101307.51
101307.75
101307.74
101307.73
101307.71
101306.86
101306.88
101306.89
101306.89
101306.66
101305.75
101305.99
101305.99
101305.98
101305.96
101304.89
101304.91
101304.93
101304.94
101304.74
101303.84
101303.94
101303.92
101303.9
101303.86
101303.45
101303.46
101303.46
101303.46
101303.18
101302.07
101302.31
101302.3
101302.3
101302.28
101301.06
101301.08
101301.09
101301.1
101300.91
101313.78
101312.47
101313.76
101312.41
101310.86
101311.84
101312.14
101311.87
101311.34
101311.86
101310.95
101309.34
101311.33
101309.78
101308.44
101309.63
101310.89
101310.75
101308.71
101308.42
101309.35
101310.96
101310.02
101309.79
101310.87
101310.59
101309.22
101307.89
101308.26
101307.01
101307.47
101306.2
101307.89
101306.81
101305.12
101304.16
101306.24
101306.18
101307.97
101308.91
101308.96
101307.97
101307.88
101309.8
101311.03
101311.41
101313.47
101313.12
101313.06
101311.52
101311.65
101313.34
101315.17
101311.47
101314.23
101313.15
101313.1
101312.19
101313.87
101314.58
101312.78
101312.25
101387.49
101391.46
101391.96
101392.44
101392.99
101389.28
101388.91
101388.59
101388.29
101385.58
101362.18
101362.86
101362.95
101363.08
101363.22
101355.25
101355.25
101355.24
101355.26
101355.46
101346.24
101345.76
101345.73
101345.72
101345.7
101340.53
101340.55
101340.57
101340.6
101340.94
101335.94
101335.74
101335.71
101335.69
101335.67
101332.1
101332.12
101332.14
101332.16
101332.21
101328.99
101329.03
101329.01
101328.99
101328.97
101326.4
101326.42
101326.44
101326.45
101326.36
101324.1
101324.23
101324.22
101324.21
101324.19
101322.28
101322.3
101322.31
101322.32
101322.17
101320.49
101320.66
101320.65
101320.64
101320.62
101319.15
101319.17
101319.18
101319.19
101319
101317.67
101317.87
101317.87
101317.86
101317.84
101316.65
101316.67
101316.68
101316.68
101316.48
101315.38
101315.6
101315.59
101315.58
101315.56
101314.56
101314.57
101314.58
101314.59
101314.37
101313.42
101313.64
101313.64
101313.63
101313.61
101312.72
101312.74
101312.74
101312.75
101312.52
101311.66
101311.89
101311.89
101311.88
101311.86
101311.03
101311.05
101311.06
101311.06
101310.83
101310.01
101310.24
101310.24
101310.23
101310.21
101309.4
101309.42
101309.43
101309.43
101309.2
101308.38
101308.62
101308.61
101308.6
101308.59
101307.76
101307.78
101307.79
101307.8
101307.56
101306.71
101306.95
101306.94
101306.93
101306.91
101306.04
101306.05
101306.07
101306.07
101305.84
101304.94
101305.16
101305.15
101305.14
101305.12
101304.17
101304.19
101304.21
101304.21
101304
101303.03
101303.24
101303.23
101303.22
101303.19
101302.14
101302.16
101302.18
101302.19
101302
101300.9
101301.08
101301.07
101301.05
101301.03
101302.42
101302.43
101302.43
101302.43
101302.13
101303.09
101303.3
101303.29
101303.28
101303.26
101303.96
101303.99
101304
101304.02
101303.86
101304.62
101304.73
101304.71
101304.69
101304.65
101305.81
101305.83
101305.84
101305.85
101305.63
101306.52
101306.74
101306.74
101306.72
101306.7
101307.51
101307.53
101307.55
101307.55
101307.34
101308.15
101308.36
101308.35
101308.34
101308.32
101309.15
101309.17
101309.18
101309.19
101308.96
101309.75
101309.98
101309.97
101309.96
101309.94
101310.76
101310.78
101310.79
101310.79
101310.58
101311.44
101311.66
101311.65
101311.64
101311.62
101312.5
101312.52
101312.53
101312.54
101312.32
101313.18
101313.39
101313.38
101313.37
101313.35
101314.27
101314.29
101314.3
101314.3
101314.1
101315.09
101315.29
101315.28
101315.27
101315.26
101316.31
101316.33
101316.34
101316.34
101316.15
101317.31
101317.49
101317.49
101317.48
101317.46
101318.72
101318.74
101318.75
101318.76
101318.59
101320.02
101320.17
101320.16
101320.15
101320.13
101321.73
101321.75
101321.76
101321.77
101321.64
101323.49
101323.6
101323.58
101323.57
101323.55
101325.66
101325.68
101325.7
101325.71
101325.64
101328.14
101328.15
101328.13
101328.12
101328.1
101331.03
101331.06
101331.07
101331.1
101331.17
101334.67
101334.44
101334.41
101334.39
101334.37
101338.8
101338.82
101338.84
101338.87
101339.25
101344.03
101343.47
101343.44
101343.43
101343.41
101351.49
101351.5
101351.51
101351.54
101351.95
101357.4
101357.56
101357.6
101357.67
101357.74
101377.33
101377.07
101376.86
101376.69
101375.43
101376.25
101376.82
101377.02
101377.23
101377.43
101346.68
101350.63
101354.39
101358.89
101394.21
101676.13
101771.63
101780.47
101786.32
101791.39
101335.26
101333.08
101331.42
101330.44
101336.12
101384.9
101385.49
101384.9
101384.29
101383.63
101352.99
101352.99
101352.97
101352.99
101354.23
101352.16
101351.96
101351.91
101351.86
101351.82
101342.79
101342.82
101342.82
101342.86
101343.35
101338.87
101338.61
101338.58
101338.56
101338.53
101334.04
101334.07
101334.08
101334.11
101334.26
101330.88
101330.87
101330.85
101330.83
101330.8
101327.92
101327.94
101327.96
101327.97
101327.91
101325.48
101325.6
101325.58
101325.57
101325.55
101323.48
101323.5
101323.51
101323.53
101323.38
101321.57
101321.74
101321.73
101321.72
101321.7
101320.14
101320.16
101320.17
101320.18
101319.99
101318.59
101318.79
101318.78
101318.77
101318.75
101317.5
101317.52
101317.53
101317.54
101317.33
101316.19
101316.41
101316.4
101316.39
101316.37
101315.33
101315.35
101315.36
101315.36
101315.14
101314.16
101314.39
101314.38
101314.37
101314.36
101313.45
101313.47
101313.48
101313.48
101313.25
101312.37
101312.61
101312.61
101312.6
101312.58
101311.74
101311.76
101311.77
101311.77
101311.53
101310.71
101310.95
101310.95
101310.94
101310.92
101310.12
101310.13
101310.14
101310.15
101309.9
101309.1
101309.34
101309.34
101309.33
101309.31
101308.5
101308.52
101308.53
101308.53
101308.29
101307.47
101307.7
101307.7
101307.69
101307.67
101306.83
101306.85
101306.86
101306.87
101306.64
101305.78
101306
101306
101305.99
101305.97
101305.07
101305.09
101305.11
101305.11
101304.89
101303.97
101304.18
101304.17
101304.16
101304.14
101303.16
101303.18
101303.19
101303.2
101303
101301.97
101302.17
101302.16
101302.15
101302.12
101301.02
101301.04
101301.05
101301.07
101300.88
101302.1
101302.12
101302.14
101302.15
101301.96
101302.96
101303.16
101303.15
101303.14
101303.11
101304.05
101304.07
101304.08
101304.09
101303.89
101304.79
101305.01
101305.01
101305
101304.98
101305.92
101305.94
101305.95
101305.95
101305.72
101306.58
101306.8
101306.79
101306.78
101306.77
101307.59
101307.61
101307.61
101307.62
101307.39
101308.2
101308.42
101308.42
101308.41
101308.39
101309.12
101309.14
101309.15
101309.16
101308.96
101309.58
101309.68
101309.66
101309.64
101309.61
101310.57
101310.6
101310.61
101310.62
101310.43
101311.39
101311.63
101311.62
101311.61
101311.6
101312.66
101312.67
101312.67
101312.66
101312.37
101313.17
101313.38
101313.37
101313.36
101313.34
101314.21
101314.23
101314.24
101314.25
101314.05
101315.02
101315.22
101315.21
101315.2
101315.18
101316.21
101316.23
101316.24
101316.25
101316.06
101317.2
101317.37
101317.37
101317.36
101317.34
101318.57
101318.59
101318.6
101318.61
101318.45
101319.85
101319.99
101319.98
101319.97
101319.95
101321.51
101321.53
101321.54
101321.55
101321.42
101323.21
101323.31
101323.3
101323.28
101323.26
101325.31
101325.33
101325.34
101325.36
101325.3
101327.71
101327.71
101327.69
101327.67
101327.65
101330.47
101330.5
101330.52
101330.54
101330.63
101333.96
101333.73
101333.7
101333.68
101333.66
101337.89
101337.91
101337.93
101337.97
101338.34
101342.86
101342.33
101342.29
101342.28
101342.26
101349.95
101349.97
101349.97
101350
101350.4
101355.44
101355.64
101355.68
101355.75
101355.83
101374.98
101374.71
101374.49
101374.3
101372.99
101374.12
101374.99
101375.08
101375.11
101375.08
101347.17
101350.78
101354.34
101358.47
101393.23
101379.84
101287.79
101276.61
101265.99
101253.32
101530.68
101530.75
101531.58
101531.3
101504.35
101581.54
101646.69
101652.2
101656.07
101660.01
101400.58
101400.09
101399.57
101398.94
101392.69
101389.71
101391.77
101392.05
101392.36
101392.74
101365.65
101365.51
101365.38
101365.28
101364.51
101357.23
101357.04
101357.04
101357.06
101357.07
101347.1
101347.11
101347.11
101347.12
101347.55
101341.91
101341.62
101341.6
101341.59
101341.57
101336.45
101336.47
101336.49
101336.51
101336.68
101332.77
101332.74
101332.72
101332.71
101332.69
101329.43
101329.45
101329.46
101329.48
101329.43
101326.7
101326.81
101326.79
101326.78
101326.76
101324.47
101324.49
101324.5
101324.51
101324.37
101322.39
101322.55
101322.54
101322.53
101322.52
101320.8
101320.82
101320.83
101320.84
101320.66
101319.14
101319.34
101319.33
101319.32
101319.3
101317.96
101317.98
101317.99
101317.99
101317.79
101316.57
101316.79
101316.78
101316.77
101316.75
101315.65
101315.67
101315.68
101315.68
101315.46
101314.43
101314.66
101314.65
101314.64
101314.63
101313.67
101313.69
101313.7
101313.7
101313.47
101312.56
101312.79
101312.79
101312.78
101312.76
101311.89
101311.91
101311.92
101311.93
101311.69
101310.85
101311.08
101311.08
101311.07
101311.05
101310.23
101310.24
101310.25
101310.26
101310.02
101309.2
101309.44
101309.43
101309.42
101309.4
101308.58
101308.59
101308.6
101308.61
101308.38
101307.55
101307.77
101307.77
101307.76
101307.74
101306.89
101306.91
101306.92
101306.93
101306.7
101305.83
101306.05
101306.04
101306.03
101306.01
101305.1
101305.12
101305.13
101305.14
101304.92
101304
101304.21
101304.2
101304.19
101304.17
101303.21
101303.23
101303.24
101303.25
101303.05
101302.02
101302.22
101302.21
101302.2
101302.18
101301.07
101301.09
101301.1
101301.11
101300.92
101300.94
101301.18
101301.17
101301.16
101301.14
101302.26
101302.28
101302.29
101302.29
101302.04
101303.08
101303.34
101303.34
101303.33
101303.31
101304.22
101304.24
101304.25
101304.26
101304
101304.91
101305.18
101305.17
101305.16
101305.14
101306.08
101306.1
101306.1
101306.11
101305.83
101306.71
101307
101306.99
101306.99
101306.97
101307.83
101307.84
101307.85
101307.86
101307.56
101308.4
101308.69
101308.69
101308.68
101308.67
101309.5
101309.51
101309.52
101309.52
101309.23
101310.06
101310.35
101310.35
101310.34
101310.33
101311.15
101311.17
101311.18
101311.18
101310.89
101311.73
101312.02
101312.02
101312.01
101311.99
101312.87
101312.88
101312.89
101312.89
101312.61
101313.53
101313.8
101313.8
101313.79
101313.78
101314.74
101314.76
101314.77
101314.77
101314.5
101315.54
101315.8
101315.8
101315.79
101315.78
101316.89
101316.91
101316.92
101316.92
101316.66
101317.9
101318.15
101318.14
101318.14
101318.12
101319.48
101319.5
101319.51
101319.51
101319.28
101320.83
101321.05
101321.04
101321.03
101321.01
101322.76
101322.78
101322.79
101322.79
101322.6
101324.65
101324.8
101324.8
101324.79
101324.77
101327.12
101327.14
101327.15
101327.16
101327.05
101329.87
101329.92
101329.9
101329.89
101329.87
101333.23
101333.25
101333.26
101333.28
101333.34
101337.39
101337.16
101337.14
101337.12
101337.1
101342.35
101342.38
101342.39
101342.42
101342.82
101348.59
101347.96
101347.93
101347.92
101347.9
101357.94
101357.97
101357.98
101358.02
101358.57
101364.5
101363.88
101363.87
101363.91
101363.94
101387.67
101387.94
101388.27
101388.65
101391.15
101372.14
101372.35
101372.81
101373.35
101373.9
101379.26
101285.08
101273.73
101263.31
101251.05
101362.36
101363.34
101364.39
101365.22
101369.1
101375.86
101373.29
101373.05
101372.92
101372.81
101357.89
101357.88
101357.9
101357.94
101357.94
101353.35
101353
101352.97
101352.96
101352.95
101344.49
101344.5
101344.51
101344.53
101344.91
101340.01
101339.77
101339.75
101339.73
101339.71
101335.08
101335.09
101335.11
101335.13
101335.24
101331.67
101331.7
101331.68
101331.67
101331.65
101328.63
101328.65
101328.66
101328.67
101328.57
101326.02
101326.18
101326.17
101326.16
101326.14
101323.99
101324
101324.01
101324.02
101323.83
101321.95
101322.16
101322.16
101322.15
101322.13
101320.51
101320.52
101320.53
101320.54
101320.3
101318.85
101319.1
101319.09
101319.09
101319.07
101317.78
101317.8
101317.81
101317.81
101317.56
101316.38
101316.65
101316.64
101316.63
101316.62
101315.55
101315.56
101315.57
101315.58
101315.31
101314.31
101314.58
101314.58
101314.57
101314.56
101313.63
101313.64
101313.65
101313.65
101313.37
101312.48
101312.77
101312.76
101312.75
101312.74
101311.89
101311.9
101311.91
101311.91
101311.63
101310.8
101311.09
101311.08
101311.08
101311.06
101310.25
101310.26
101310.27
101310.27
101309.98
101309.17
101309.46
101309.46
101309.45
101309.44
101308.62
101308.64
101308.65
101308.65
101308.36
101307.54
101307.83
101307.82
101307.81
101307.8
101306.96
101306.97
101306.98
101306.98
101306.7
101305.84
101306.12
101306.11
101306.1
101306.09
101305.19
101305.2
101305.21
101305.22
101304.95
101304.02
101304.29
101304.28
101304.27
101304.26
101303.28
101303.29
101303.31
101303.31
101303.05
101302.02
101302.27
101302.27
101302.26
101302.24
101301.13
101301.15
101301.16
101301.17
101300.93
101301.02
101301.05