/*--------------------------------*- C++ -*----------------------------------*\
  =========                 |
  \\      /  F ield         | OpenFOAM: The Open Source CFD Toolbox
   \\    /   O peration     | Website:  https://openfoam.org
    \\  /    A nd           | Version:  7
     \\/     M anipulation  |
\*---------------------------------------------------------------------------*/
FoamFile
{
    version     2.0;
    format      ascii;
    class       volScalarField;
    location    "100";
    object      k;
}
// * * * * * * * * * * * * * * * * * * * * * * * * * * * * * * * * * * * * * //

dimensions      [0 2 -2 0 0 0 0];

internalField   nonuniform List<scalar> 
24789
(
191.25905
405.09461
580.1708
735.08558
1589.1501
1592.0975
736.38074
581.17402
405.77503
191.48441
191.91105
407.04032
583.00598
738.66895
1596.621
1602.0104
741.02595
584.82706
408.26531
192.3113
192.86202
409.90605
587.21621
744.02786
1608.009
1614.5931
747.01446
589.53116
411.46474
193.37327
194.02229
413.39472
592.34019
750.54034
1621.7254
1629.4171
754.09655
595.10924
415.26471
194.63899
195.39187
417.50158
598.36811
758.18885
1637.6748
1646.4644
762.27189
601.56275
419.6665
196.11007
196.96839
422.21253
605.27373
766.9317
1655.7018
1665.4713
771.52989
608.88834
424.66981
197.78798
198.75152
427.52206
613.04563
776.74766
1675.6736
1686.3392
781.8516
617.06893
430.26196
199.66918
200.72813
433.38635
621.61662
787.54818
1697.3571
1708.7887
793.12053
626.02208
436.39274
201.73899
202.88978
439.77857
630.94096
799.26705
1720.5269
1732.622
805.27937
635.70659
443.03742
203.98794
205.22052
446.65914
640.95314
811.81502
1744.9383
1757.5081
818.21005
646.03305
450.14182
206.39238
207.68725
453.95734
651.53296
825.032
1770.2138
1783.0892
831.68731
656.84933
457.62907
208.91332
210.26443
461.66831
662.63105
838.82625
1796.0074
1809.076
845.70824
668.15819
465.51706
211.52117
212.8882
469.70934
674.15246
853.11074
1822.2427
1835.6627
860.02616
679.666
473.50351
214.10471
215.44149
477.4871
685.54432
867.42168
1849.3404
1863.6081
874.3783
690.89004
480.92935
216.69169
218.22532
484.52669
696.68776
882.00619
1878.7234
1895.2564
889.70431
702.30509
487.75723
219.93629
222.38502
492.02305
709.43509
899.29175
1913.7632
1934.2641
911.76443
719.1796
498.80042
226.44034
233.75342
507.80249
734.15471
930.33361
1953.3618
1976.2126
957.79728
758.94799
527.47827
242.74431
247.38755
539.76468
772.2464
969.27385
1997.6067
2017.7972
1015.3631
818.09052
577.48793
263.042
275.93837
624.36966
883.78344
1091.5303
2024.6263
2040.6765
964.20397
779.57053
552.24711
254.18143
243.14148
522.09087
743.71637
932.12652
2022.1141
1999.9021
879.86952
695.27637
482.79322
228.1704
217.77329
462.85407
668.22588
850.52869
1978.1558
1959.5716
832.83903
653.46653
452.55877
210.67579
207.00102
446.60537
644.73719
821.54026
1939.9494
1921.9646
813.36972
638.78492
443.06013
204.86652
203.36656
440.26914
633.84143
806.43102
1905.6543
1890.778
799.94622
629.00165
437.30593
202.0848
200.98696
434.2262
624.06908
793.41925
1876.4499
1862.7151
786.9549
618.96901
430.8208
199.853
198.74924
427.31271
613.73927
780.32084
1849.0994
1835.9265
773.64186
608.34248
423.55407
197.53321
196.35007
419.87701
603.00111
766.93972
1822.6699
1809.5986
760.41831
597.72902
416.17873
195.12028
193.97326
412.71122
592.66222
754.03676
1796.5003
1783.5232
747.75143
587.61902
409.20884
192.78889
191.70126
405.9591
582.8389
741.70583
1770.7872
1758.2418
735.78178
578.10423
402.6873
190.58902
189.57123
399.64828
573.61227
730.07621
1745.9774
1734.2658
724.6402
569.26997
396.64934
188.5503
187.61651
393.85055
565.11513
719.33904
1722.7097
1711.6587
714.28544
561.08984
391.07641
186.67545
185.82321
388.51069
557.27102
709.39871
1700.7694
1690.44
704.74639
553.57319
385.96515
184.96286
184.19805
383.65314
550.12533
700.32454
1680.4473
1671.1217
696.19661
546.84363
381.39118
183.43458
182.76801
379.36518
543.81149
692.29246
1662.2348
1653.7843
688.64719
540.91625
377.36918
182.09642
181.52507
375.6228
538.29305
685.25599
1646.066
1638.7561
682.0787
535.77441
373.88618
180.94235
180.46366
372.4148
533.55655
679.203
1631.9695
1625.7912
676.54321
531.44665
370.9556
179.97413
179.59299
369.77607
529.6587
674.21352
1620.2176
1615.6711
672.25179
528.08717
368.67478
179.22046
178.98344
367.94353
526.96617
670.781
1612.186
1618.6062
673.19978
528.77805
369.1314
179.36115
179.65626
369.98573
529.98987
674.67314
1621.4994
1626.3405
676.6265
531.49338
370.99573
179.98536
180.46594
372.43471
533.59624
679.27506
1632.2036
1638.7773
681.95263
535.65941
373.81848
180.91796
181.50048
375.56271
538.21445
685.17743
1645.9532
1653.6825
688.36987
540.69237
377.23266
182.05024
182.73591
379.28255
543.69706
692.16455
1661.9763
1670.8195
695.90893
546.61415
381.25205
183.38725
184.17001
383.58581
550.03205
700.22061
1680.2097
1690.1177
704.50582
553.37504
385.84363
184.91893
185.78814
388.42644
557.15473
709.26885
1700.5015
1711.3377
713.97734
560.84656
390.92984
186.62366
187.5889
393.79297
565.03672
719.25549
1722.5331
1734.0987
724.39265
569.07452
396.53596
188.50765
189.55358
399.62899
573.59134
730.06778
1745.9983
1758.1938
735.59044
577.94844
402.59821
190.55088
191.6776
405.92803
582.79677
741.66461
1770.66
1783.3536
747.58301
587.47556
409.12506
192.74854
193.93767
412.6524
592.58019
753.94668
1796.2492
1809.2933
760.17926
597.53307
416.06334
195.06845
196.31778
419.83291
602.93938
766.87468
1822.454
1835.7366
773.42129
608.1747
423.46536
197.49141
198.75154
427.3743
613.83287
780.44745
1849.1813
1862.8657
786.94572
618.97146
430.84706
199.85116
201.03944
434.39995
624.33189
793.75242
1876.8833
1891.4275
800.20998
629.23111
437.48779
202.1724
203.57394
440.70123
634.46579
807.2017
1906.7508
1923.2036
814.14603
639.44989
443.58202
205.16825
207.45783
447.40948
645.8382
822.81612
1941.1836
1960.7898
834.31683
654.83163
453.73058
211.1801
218.56926
465.72949
670.82806
853.03176
1979.1251
1998.6988
883.07843
698.04842
484.66495
229.69467
242.15579
523.67416
746.39108
937.68179
2019.3889
2034.3514
926.84798
748.28735
530.16769
243.53688
273.0833
618.82357
876.2401
1081.481
2016.2553
1999.0013
996.79909
793.94633
554.99172
249.96036
260.53609
574.5773
815.81687
1017.424
1983.3985
1962.7441
960.01001
765.90153
535.46891
247.7393
234.67851
510.68842
732.11819
923.83096
1941.7331
1922.1387
900.02404
710.93796
494.30404
225.36765
220.37057
484.90007
698.25451
884.73915
1901.07
1882.0667
873.97593
689.87256
479.47616
217.43622
215.52637
475.72182
683.5785
865.5182
1865.101
1849.476
857.8471
677.74472
472.05811
213.97994
212.71874
468.52979
672.17745
850.57698
1834.8302
1820.7814
843.41905
666.48858
464.67274
211.43567
210.17952
460.70964
660.69659
836.13982
1806.973
1793.739
828.84162
654.75948
456.51705
208.80873
207.49772
452.49944
648.95736
821.60858
1780.3937
1767.2673
814.54195
643.2204
448.4624
206.14295
204.89455
444.71719
637.77425
807.72599
1754.2818
1741.4718
801.00681
632.35744
440.9402
203.61069
202.43348
437.43461
627.22249
794.54643
1728.8354
1716.4876
788.21963
622.1411
433.90763
201.23054
200.13153
430.635
617.32643
782.13779
1704.4022
1692.5807
776.19608
612.56859
427.34142
199.00962
197.99459
424.31124
608.0985
770.53262
1681.16
1670.0513
765.02177
603.69595
421.26824
196.96054
196.03738
418.50276
599.60721
759.82813
1659.4079
1649.2089
754.81946
595.61167
415.74209
195.1014
194.27616
413.25829
591.92872
750.12585
1639.4268
1630.1491
745.62948
588.34625
410.78301
193.43898
192.71277
408.58626
585.07829
741.44944
1621.3193
1613.2925
737.59271
581.99985
406.45225
191.9904
191.37296
404.57163
579.18718
733.97521
1605.5732
1598.4704
730.58897
576.491
402.7039
190.74313
190.23242
401.14215
574.15005
727.57239
1591.9277
1586.1061
724.82672
571.95912
399.61711
189.71704
189.34436
398.47335
570.23886
722.60511
1581.3322
1578.5797
721.23594
569.09399
397.63615
189.04795
191.6969
406.4239
582.13026
737.58686
1594.4413
1597.653
739.02192
583.2383
407.17292
191.94421
192.39369
408.50203
585.15887
741.41565
1602.4753
1608.2488
743.967
587.13658
409.83584
192.83124
193.42567
411.6067
589.71712
747.2107
1614.7294
1621.8274
750.41932
592.21762
413.29801
193.98334
194.69205
415.40807
595.29417
754.28599
1629.5069
1637.703
758.12376
598.28766
417.43171
195.36086
196.16422
419.8156
601.75878
762.47882
1646.4872
1655.7594
766.83944
605.1789
422.13675
196.93593
197.84801
424.83926
609.11516
771.77663
1665.4822
1675.6872
776.68728
612.97017
427.45631
198.72071
199.72216
430.41234
617.2674
782.06201
1686.2666
1697.2595
787.44568
621.50534
433.29495
200.68743
201.77997
436.51017
626.17274
793.27132
1708.6064
1720.3045
799.0795
630.76361
439.6426
202.83327
204.01827
443.12485
635.81292
805.37376
1732.3631
1744.6729
811.5626
640.72535
446.48931
205.15207
206.42214
450.22472
646.1271
818.2796
1757.232
1769.9611
824.82385
651.3404
453.81153
207.62696
208.96326
457.76756
657.02352
831.85515
1782.8572
1795.8737
838.69292
662.5069
461.57412
210.2244
211.61537
465.77579
668.50365
846.08327
1809.0314
1822.354
853.21646
674.2121
469.73543
212.89005
214.24082
473.87562
680.18193
860.61148
1835.9303
1849.7986
867.7725
685.78212
477.61673
215.48429
216.89626
481.45076
691.64655
875.27808
1864.3475
1879.7448
882.75532
697.26607
484.90158
218.3808
220.37712
488.85836
703.79145
891.4067
1896.5043
1915.2071
901.35858
711.30063
493.49874
222.96242
227.59245
501.94297
722.94726
915.66186
1935.7731
1954.6398
936.31544
740.31862
513.35321
235.59384
246.57643
536.39392
769.72372
968.54647
1975.6926
1995.0892
989.56733
790.67452
555.18927
252.67824
262.88744
578.85252
818.93587
1015.3348
2012.1315
2018.6406
1091.3341
884.16516
624.66888
276.13414
1938.8961
1210.3384
989.15843
705.62886
311.71138
278.74075
630.22815
892.53142
1107.2709
2015.2765
2043.4385
974.84422
788.15218
559.75028
257.61745
250.08662
551.49427
788.13381
989.11299
2013.1315
2003.8019
1016.4625
810.65346
567.50933
255.18151
255.38157
561.94835
801.35099
1001.4883
1985.7015
1962.6601
950.82999
756.28119
527.29903
243.56433
232.22094
505.19973
726.01365
918.06983
1940.6542
1920.8669
896.6452
707.51951
491.35882
224.01178
219.6328
483.33402
696.3243
882.72546
1900.0243
1881.2973
872.83805
688.83418
478.68413
217.06403
215.33427
475.2859
682.98078
864.82839
1864.4781
1849.1777
857.46145
677.41321
471.82318
213.88542
212.67382
468.39644
671.98147
850.33984
1834.5967
1820.6092
843.21272
666.3197
464.55614
211.40315
210.15946
460.63551
660.59682
836.02562
1806.8999
1793.5425
828.62674
654.58866
456.40063
208.77486
207.47147
452.41449
648.84128
821.47282
1780.2209
1767.1737
814.4117
643.11202
448.38528
206.11948
204.87835
444.66362
637.70154
807.64127
1754.1789
1741.405
800.93821
632.29712
440.89605
203.59771
202.42829
437.41562
627.20011
794.52539
1728.8651
1716.5425
788.19654
622.11821
433.88999
201.22621
200.13116
430.63013
617.32278
782.13779
1704.4538
1692.6602
776.23461
612.59125
427.35308
199.01415
198.00168
424.32997
608.12846
770.57389
1681.2895
1670.2187
765.07527
603.73268
421.2909
196.9687
196.04562
418.52502
599.64105
759.87262
1659.5298
1649.4077
754.9009
595.66911
415.77806
195.1134
194.29005
413.2989
591.99003
750.20597
1639.6356
1630.4235
745.71904
588.41261
410.8265
193.45373
192.73063
408.63969
585.15958
741.55677
1621.6031
1613.3479
737.55881
581.97798
406.44167
191.98922
191.36964
404.56038
579.17286
733.96087
1605.5822
1598.4552
730.53987
576.45113
402.67688
190.73475
190.22431
401.11808
574.11673
727.53338
1591.8806
1586.0783
724.73903
571.89034
399.57136
189.70234
189.329
398.42775
570.17341
722.52511
1581.1963
1578.5696
721.13584
569.01246
397.58005
189.02934
179.33132
369.00926
528.55664
672.84978
1617.2488
1620.9678
674.31008
529.68193
369.76788
179.58093
180.00635
371.04099
531.54041
676.64983
1626.1109
1632.0735
679.01966
533.37003
372.27056
180.40828
180.95194
373.90122
535.76133
682.04383
1638.6994
1645.9312
685.00617
538.05582
375.44506
181.45876
182.09869
377.36008
540.86334
688.55436
1653.7404
1662.0995
692.05222
543.58418
379.19513
182.7042
183.44049
381.39331
546.80515
696.11912
1670.9775
1680.3503
700.16181
549.95036
383.51337
184.14183
184.9609
385.94738
553.50856
704.64021
1690.1805
1700.4822
709.16206
557.03814
388.33207
185.75376
186.66398
391.03015
560.98246
714.125
1711.3102
1722.4962
719.0483
564.8485
393.6541
187.54198
188.549
396.63384
569.2039
724.52713
1734.0681
1745.9657
729.88524
573.42204
399.50217
189.5115
190.59847
402.71103
578.09904
735.75012
1758.1734
1770.6029
741.52734
582.64919
405.80801
191.63676
192.78277
409.1899
587.55146
747.64207
1783.2489
1796.0529
753.73623
592.37394
412.49195
193.88477
195.0966
416.10321
597.57132
760.18605
1809.042
1822.1304
766.59529
602.67808
419.63377
196.25425
197.51694
423.48544
608.18562
773.3967
1835.3331
1848.6783
780.07842
613.49545
427.12359
198.67574
199.86246
430.8037
618.8847
786.80019
1862.2546
1876.0453
793.08228
623.75207
433.98588
200.90677
202.07215
437.16578
628.75773
799.60216
1890.2444
1905.2322
805.81117
633.23261
439.77031
203.22771
204.71962
442.39882
637.95231
812.46895
1921.4662
1939.3048
819.74726
642.95488
445.06804
206.56547
210.06288
450.62631
651.15661
830.55446
1959.0128
1977.9365
846.89035
664.49685
460.17672
216.69764
226.16658
476.89285
688.16029
873.04799
1999.606
2021.8503
915.74298
729.78669
511.70054
238.9156
254.38779
554.00509
781.30596
964.97427
2040.75
2025.5322
1114.087
904.0295
641.40077
282.43898
268.24891
588.79762
832.3405
1030.3474
2018.5731
1996.9105
959.98144
764.75001
534.19991
245.70182
244.41006
531.27157
764.01709
964.07722
1975.3453
1952.4369
931.688
735.32642
508.6888
234.39091
226.67821
499.1719
719.54992
912.02872
1933.3385
1912.7542
898.77762
708.96011
491.6171
222.29591
219.90686
487.52846
702.03263
889.36976
1894.3421
1877.953
881.54782
696.24622
484.12961
218.1007
216.70489
480.89826
690.8449
874.27776
1862.9446
1848.7299
867.17274
685.31216
477.27743
215.36707
214.13937
473.56881
679.73201
860.04347
1835.0916
1821.7143
852.94513
673.99686
469.56461
212.82978
211.55988
465.60771
668.25651
845.76489
1808.556
1795.4732
838.67189
662.49088
461.54118
210.21123
208.94501
457.70123
656.91747
831.70398
1782.5694
1769.7721
824.95364
651.44557
453.86345
207.64416
206.42817
450.22741
646.12203
818.25553
1757.1853
1744.6725
811.77761
640.89798
446.58799
205.18557
204.0325
443.15134
635.8415
805.38969
1732.3596
1720.1879
799.18713
630.86075
439.69592
202.85326
201.77604
436.48316
626.12353
793.19019
1708.3996
1696.901
787.41793
621.49852
433.27928
200.68426
199.69899
430.33113
617.14103
781.88678
1685.8724
1675.225
776.61174
612.92135
427.40989
198.70589
197.81968
424.74572
608.97222
771.58239
1665.0561
1655.3045
766.8155
605.16463
422.11051
196.9263
196.14162
419.73984
601.64023
762.31214
1646.0813
1637.2906
758.12267
598.29287
417.41942
195.35579
194.67176
415.3392
595.18478
754.12929
1629.1127
1621.4221
750.5175
592.29431
413.32966
193.9913
193.41284
411.55906
589.63515
747.08241
1614.356
1607.7595
744.00532
587.17302
409.84393
192.83255
192.36147
408.39315
584.98309
741.16333
1601.8205
1596.4597
738.66366
582.98131
406.99299
191.88738
191.5618
405.99066
581.46218
736.68978
1592.3309
1594.2326
737.5044
582.02378
406.32639
191.65543
191.97657
407.24353
583.30727
739.05343
1597.3947
1602.2179
741.33209
585.0593
408.41399
192.35644
192.87023
409.93157
587.24873
744.062
1607.9832
1614.4428
747.08709
589.59008
411.50217
193.38335
194.01727
413.37932
592.30963
750.49039
1621.4931
1629.1747
754.13728
595.14723
415.28966
194.64517
195.38957
417.49304
598.34297
758.13872
1637.3859
1646.1805
762.39188
601.65832
419.7281
196.12714
196.9715
422.2221
605.27427
766.91242
1655.4588
1665.2132
771.68576
609.0116
424.74919
197.80961
198.75232
427.52861
613.04298
776.72631
1675.433
1686.0204
781.97386
617.16754
430.32542
199.68464
200.72229
433.37698
621.59095
787.49819
1697.0568
1708.4468
793.19488
626.08522
436.43356
201.74587
202.87744
439.75449
630.89368
799.18982
1720.1697
1732.2515
805.31817
635.74316
443.06149
203.98791
205.20509
446.632
640.90319
811.73719
1744.5943
1757.1672
818.22704
646.05723
450.15967
206.38932
207.67757
453.94954
651.50913
824.98385
1769.8857
1782.7435
831.78619
656.9384
457.69116
208.92447
210.27194
461.70893
662.66955
838.84481
1795.7056
1808.8705
845.97949
668.38416
465.67211
211.56211
212.91431
469.81905
674.29632
853.2655
1822.1663
1835.7292
860.41774
679.97246
473.69973
214.14927
215.45641
477.60036
685.73142
867.66735
1849.5837
1864.0539
874.90124
691.26713
481.14466
216.73173
218.27456
484.77563
697.08238
882.53319
1879.4193
1896.1216
890.82194
703.21682
488.41648
220.11163
222.77927
493.36026
711.03251
901.01482
1914.7895
1935.4771
915.14722
722.50458
501.72754
227.26108
235.63372
515.45331
740.90839
936.4302
1954.6715
1975.7947
968.34606
769.64931
536.21194
246.40721
252.79316
557.61339
794.83263
995.66717
1996.1872
2012.4755
998.72144
803.65307
566.84151
256.39197
2260.0339
2403.6224
2325.2969
2037.1701
963.20032
778.92105
551.68901
254.33671
259.24266
574.57138
820.45067
1027.2161
2000.1903
302.18323
686.75591
966.68049
1187.2118
1936.1315
1897.5015
1170.8102
946.56151
666.63646
290.3562
293.06071
671.87504
953.26888
1177.3582
1897.6348
1988.4168
1136.557
915.13631
644.59595
280.84258
2159.4352
2193.8291
2349.3158
2301.792
1281.0758
1353.4805
1374.1014
1281.0614
1387.6713
1395.6664
1356.612
1334.8669
189.11309
397.80753
569.29928
721.46519
1579.2255
1582.0695
722.70814
570.27594
398.47928
189.33859
189.78852
399.81481
572.21411
725.13424
1586.8406
1592.6204
727.60738
574.13562
401.11473
190.21614
190.80525
402.87374
576.70549
730.84491
1599.0538
1606.1034
733.96851
579.13886
404.51982
191.34814
192.03761
406.57506
582.14251
737.75411
1613.7328
1621.8866
741.40685
585.00436
408.51887
192.68295
193.48253
410.89919
588.48456
745.79195
1630.5763
1639.7811
749.99982
591.79042
413.14788
194.232
195.1327
415.82161
595.69548
754.91206
1649.4651
1659.6122
759.64826
599.42684
418.36376
195.9834
196.98296
421.32166
603.7405
765.06316
1670.2123
1681.2167
770.31271
607.88325
424.1466
197.93096
199.0196
427.35748
612.5558
776.16192
1692.5936
1704.3324
781.86825
617.06776
430.43899
200.0565
201.22968
433.89146
622.08091
788.12701
1716.3897
1728.7091
794.19769
626.9044
437.19941
202.34529
203.60386
440.90707
632.27327
800.88565
1741.2773
1754.0027
807.31599
637.40031
444.43914
204.79076
206.11543
448.36495
643.04179
814.30186
1766.8731
1779.9068
821.05376
648.46688
452.14024
207.36745
208.76436
456.36021
654.48863
828.47721
1793.1181
1806.5335
835.60146
660.19767
460.33063
210.04345
211.38651
464.47622
666.17107
843.01013
1820.1754
1834.1489
849.87258
671.55504
468.07567
212.56764
213.9164
471.82598
677.35319
857.34529
1848.6645
1864.0073
864.50006
682.69806
475.09816
215.28504
217.17615
478.94206
689.06065
872.99405
1880.7148
1899.3507
882.91027
696.6246
483.69664
219.7453
224.65698
492.90346
709.19643
898.11556
1919.9188
1938.9249
920.42119
728.14138
505.6931
233.09634
243.93597
531.52677
760.6759
955.90183
1960.9698
1981.4798
975.47133
779.5131
546.02843
248.81893
258.92305
573.34762
818.8197
1025.597
1999.5096
983.62795
796.71744
567.78802
260.91228
250.34864
543.20841
765.09083
948.07515
2042.6726
2007.2242
1050.3153
839.01588
586.57432
262.27992
277.92155
635.44467
905.26318
1128.8226
1987.6267
2016.6913
998.74934
795.33245
556.72254
250.35775
259.6963
575.42695
821.64621
1028.934
2005.1137
1986.2863
977.33772
781.03539
547.10468
249.22516
244.28058
532.44126
762.01221
957.58334
1964.5379
1941.6972
921.933
729.33428
506.47561
233.38959
224.87103
493.45736
710.02488
899.167
1922.2154
1901.4485
884.13721
697.55471
484.27073
219.95287
217.31728
479.31277
689.64216
873.75207
1882.5501
1865.6489
865.48471
683.43359
475.53953
215.4374
214.03674
472.15709
677.86219
858.00126
1850.2631
1835.6085
850.80156
672.26358
468.51643
212.71864
211.51975
464.84144
666.70627
843.67855
1821.7427
1808.0145
836.50929
660.91082
460.79148
210.20748
208.91644
456.76398
655.0754
829.20752
1794.735
1781.3985
822.00024
649.20938
452.62236
207.54176
206.26152
448.74521
643.58894
814.97321
1768.2781
1755.1391
808.0324
637.97465
444.81509
204.9315
203.71245
441.18059
632.66558
801.36381
1742.2787
1729.6121
794.88119
627.44021
437.54194
202.46983
201.32851
434.14627
622.4469
788.57265
1717.3165
1705.1889
782.47386
617.54625
430.74518
200.16672
199.10556
427.58215
612.87852
776.55487
1693.4347
1681.9524
770.90329
608.34395
424.43851
198.03317
197.05988
421.52569
604.03126
765.41306
1670.9396
1660.1395
760.10702
599.79114
418.59464
196.06469
195.18148
415.94347
595.86234
755.10062
1649.8118
1640.0177
750.34535
592.06346
413.31505
194.2901
193.51378
410.97441
588.58469
745.89799
1630.7507
1622.0433
741.726
585.25352
408.66755
192.73269
192.06128
406.63035
582.21202
737.81877
1613.797
1605.9779
734.0954
579.24698
404.57933
191.36972
190.79751
402.8361
576.63873
730.73752
1598.7543
1592.0868
727.58106
574.12374
401.09181
190.20926
189.74316
399.66318
571.97537
724.80225
1586.0199
1580.6332
722.2992
569.9727
398.26479
189.26979
188.92007
397.18208
568.32888
720.15402
1575.9524
1572.5122
718.57765
567.04075
396.26044
188.59986
1593.6457
737.02813
581.66554
406.0986
191.58515
191.95807
407.19303
583.24009
738.97812
1597.3251
1602.3479
741.14555
584.92218
408.33029
192.33094
192.87422
409.95102
587.28574
744.11967
1608.2069
1614.7364
747.01878
589.54054
411.47467
193.37523
194.0284
413.42262
592.38367
750.59777
1621.8477
1629.5271
754.08315
595.10531
415.266
194.63747
195.39596
417.52521
598.40308
758.23203
1637.7452
1646.4664
762.27558
601.56979
419.6724
196.10797
196.96155
422.20689
605.26557
766.91955
1655.6496
1665.273
771.4815
608.85164
424.64426
197.77372
198.72816
427.4696
612.96627
776.64192
1675.3961
1686.0485
781.74048
616.98325
430.2045
199.64298
200.69765
433.32073
621.52041
787.42525
1697.0841
1708.4767
792.94791
625.89058
436.30579
201.70077
202.85025
439.69514
630.8197
799.1141
1720.209
1732.2319
805.06305
635.53835
442.9247
203.93792
205.16758
446.54515
640.78937
811.61195
1744.5452
1757.0274
817.91153
645.80395
449.98984
206.32768
207.62931
453.83081
651.34809
824.79779
1769.7135
1782.5246
831.4166
656.64192
457.491
208.85314
210.21422
461.55698
662.46441
838.60758
1795.4759
1808.5438
845.52188
668.01763
465.42284
211.47966
212.85494
469.62505
674.02287
852.93253
1821.7188
1835.1603
859.88114
679.56074
473.43649
214.08011
215.4099
477.38359
685.39299
867.22105
1848.8644
1863.0776
874.08724
690.65878
480.76149
216.64289
218.14567
484.25869
696.34894
881.61514
1878.1263
1894.4784
889.1502
701.81765
487.36971
219.82661
222.31088
491.68626
708.98288
898.75472
1912.8305
1933.129
911.58806
719.14676
498.87403
226.54489
234.3433
508.58232
735.08172
931.32202
1951.8101
1973.9069
963.27766
763.30755
530.74601
244.19158
245.53606
533.7258
763.95287
958.87274
1994.304
2014.4827
1029.59
831.6878
588.23571
268.00615
281.75158
639.4704
901.58068
1111.1631
2020.7368
2037.336
964.10215
780.55418
553.39426
254.14072
254.83239
566.52653
809.24797
1014.6875
1999.9339
1994.5616
994.59409
792.09726
553.64311
249.47
243.30016
529.48448
747.35882
925.83766
2035.4694
2015.7539
999.49918
804.09023
567.03412
256.43655
263.27568
579.91789
820.51158
1017.3899
2017.3694
2042.062
965.45985
780.68826
552.91471
254.7827
259.95346
576.60287
823.34719
1030.7893
2007.0602
1987.8889
968.95727
773.39257
540.88454
246.81265
243.05495
529.85011
759.46972
955.70653
1966.1752
1943.177
922.00509
729.05348
506.0322
233.09535
224.78789
493.49093
710.26072
899.62921
1923.4753
1902.4518
884.59686
697.91049
484.50097
219.97828
217.39644
479.63768
690.09552
874.31001
1883.4188
1866.335
865.93011
683.81121
475.81773
215.51657
214.1092
472.39448
678.19238
858.40228
1850.8841
1836.1211
851.05862
672.48364
468.67948
212.772
211.5624
464.96831
666.88611
843.90017
1822.0976
1808.2655
836.59764
660.99132
460.85313
210.23036
208.93129
456.80536
655.13609
829.28443
1794.8619
1781.4692
822.0243
649.23194
452.63987
207.54895
206.2666
448.75903
643.61054
815.00215
1768.3293
1755.26
808.10971
638.03132
444.85141
204.94314
203.72682
441.22436
632.73196
801.45071
1742.4789
1729.8372
794.93933
627.48694
437.57479
202.48117
201.34097
434.18451
622.50545
788.65041
1717.5087
1705.2898
782.41325
617.5091
430.72636
200.16232
199.09884
427.56173
612.85008
776.52155
1693.3767
1681.8504
770.70456
608.20186
424.35014
198.00619
197.03263
421.44429
603.91446
765.26966
1670.6568
1659.9239
759.94212
599.66467
418.51032
196.0369
195.16072
415.88387
595.77925
755.00169
1649.636
1639.8024
750.26487
591.99854
413.27019
194.27462
193.50392
410.94707
588.54762
745.85535
1630.6849
1621.8769
741.57634
585.14343
408.59775
192.71092
192.03989
406.5664
582.12011
737.70559
1613.5669
1605.8561
733.99026
579.16538
404.52432
191.35127
190.78304
402.79419
576.57934
730.6655
1598.6119
1592.1518
727.56874
574.11187
401.08219
190.20501
189.74379
399.66696
571.98275
724.81427
1586.0602
1580.6334
722.21238
569.91261
398.22927
189.25939
188.91202
397.15823
568.2964
720.11745
1575.8983
1572.4428
718.44436
566.94312
396.19802
188.5818
1579.2206
721.42697
569.23668
397.74737
189.08626
189.39487
398.62856
570.4711
722.91246
1582.0181
1586.7683
725.0665
572.13014
399.74191
189.75824
190.27188
401.26308
574.3321
727.81622
1592.4961
1598.9504
730.75521
576.60809
402.79313
190.77316
191.40315
404.66377
579.32749
734.16698
1606.0412
1613.6685
737.68974
582.0689
406.51239
192.01228
192.74668
408.68924
585.2337
741.6587
1621.8158
1630.571
745.75815
588.43648
410.85508
193.46406
194.30566
413.34638
592.05989
750.30007
1639.8088
1649.5298
754.95423
595.70228
415.81168
195.125
196.05803
418.56478
599.70093
759.95575
1659.6922
1670.2747
765.09582
603.73564
421.30138
196.97144
197.99607
424.31619
608.10958
770.55708
1681.2279
1692.5632
776.15002
612.51157
427.30846
198.99864
200.11089
430.57405
617.24443
782.04991
1704.2767
1716.2618
788.00313
621.95683
433.79264
201.19419
202.40139
437.33745
627.08812
794.39308
1728.5754
1741.1209
800.72631
632.12443
440.79251
203.56454
204.85449
444.59135
637.59698
807.5159
1753.8662
1766.8077
814.24538
642.97124
448.30142
206.09317
207.45053
452.3496
648.74961
821.36421
1779.9026
1793.1748
828.50704
654.47216
456.32577
208.74962
210.12929
460.54271
660.4758
835.89171
1806.6132
1820.2911
843.06675
666.18573
464.46858
211.38167
212.69667
468.41388
672.00899
850.3801
1834.3513
1848.9525
857.59839
677.53776
471.94854
213.95322
215.45796
475.59027
683.35174
865.23651
1864.421
1881.2764
873.3699
689.35724
479.15441
217.22342
219.88024
484.20176
697.34231
883.76734
1899.9447
1920.631
898.30598
709.20149
492.77524
224.51658
232.87177
505.41669
728.04146
920.62454
1939.6953
1961.9546
953.75197
757.82028
528.66047
242.6017
246.30576
539.44209
771.29751
966.3395
1982.9252
2019.92
899.95648
716.41667
501.77363
235.13476
225.2667
476.19642
686.37381
870.66853
1999.7079
1978.5484
848.89495
665.91172
459.89917
217.02259
210.8728
452.75572
653.96649
833.60392
1960.2676
1940.6399
822.77964
645.73568
447.22555
207.33504
205.26789
443.8625
639.81874
814.49582
1922.536
1906.0685
807.30194
634.5627
440.76247
203.60567
202.29516
437.72769
629.50712
800.45095
1890.7499
1876.1999
793.75109
624.32047
434.37049
201.05404
199.92598
430.95758
619.09631
787.02996
1862.2632
1848.5603
780.29341
613.68879
427.24225
198.71943
197.53164
423.51453
608.2215
773.41878
1835.0888
1821.87
766.71515
602.79156
419.69646
196.27712
195.09678
416.08914
597.54203
760.12258
1808.6348
1795.5853
753.72523
592.38834
412.49154
193.88642
192.76488
409.12605
587.44896
747.48782
1782.6796
1769.9966
741.4588
582.61539
405.77464
191.62583
190.5757
402.63678
577.98238
735.58099
1757.6161
1745.5031
729.94672
573.47818
399.52373
189.51612
188.54523
396.6179
569.17155
724.46276
1733.7327
1722.3889
719.25465
565.01627
393.75034
187.57079
186.68335
391.08321
561.05094
714.18798
1711.2902
1700.6552
709.39975
557.23782
388.45448
185.79282
184.98978
386.02921
553.62121
704.7628
1690.3483
1680.5076
700.38416
550.14189
383.63305
184.18102
183.46384
381.45669
546.88889
696.20306
1671.0465
1662.1418
692.34782
543.82182
379.33988
182.74996
182.13032
377.44919
540.98457
688.68472
1653.9059
1646.0232
685.25999
538.26883
375.57741
181.50178
180.97813
373.97274
535.85605
682.14036
1638.782
1632.157
679.28626
533.59045
372.40594
180.45178
180.04135
371.14155
531.68127
676.80941
1626.3664
1621.5988
674.76371
530.04149
369.99212
179.65171
179.43051
369.3154
529.01682
673.43861
1618.6872
1618.6831
673.32123
528.87786
369.2
179.38393
179.67826
370.05015
530.08002
674.77989
1621.6614
1626.5116
676.80682
531.63221
371.08656
180.01422
180.48577
372.49245
533.67787
679.37321
1632.3858
1638.9455
682.09227
535.77534
373.89801
180.9444
181.52603
375.63668
538.31615
685.29455
1646.1198
1653.8584
688.5904
540.86092
377.34165
182.08412
182.75137
379.32911
543.76124
692.23772
1662.0701
1670.8619
696.04392
546.71124
381.31129
183.40395
184.16539
383.57523
550.01754
700.20277
1680.1803
1689.9685
704.4593
553.33974
385.81914
184.90968
185.77464
388.38737
557.0935
709.18429
1700.2553
1710.9947
713.94383
560.81717
390.90628
186.61333
187.56712
393.72968
564.93844
719.12164
1722.1651
1733.6829
724.33579
569.02606
396.49819
188.49159
189.52199
399.53829
573.45363
729.88536
1745.5448
1757.7248
735.47497
577.85502
402.53104
190.52487
191.63988
405.82135
582.63716
741.45625
1770.1695
1782.8184
747.43191
587.34913
409.033
192.71354
193.88621
412.5031
592.35836
753.65935
1795.5853
1808.5052
759.94638
597.34303
415.92728
195.01991
196.25091
419.62978
602.63847
766.48503
1821.5466
1834.728
773.10713
607.91449
423.2771
197.42859
198.66316
427.09081
613.41615
779.91625
1848.0262
1861.5161
786.43605
618.55961
430.56241
199.76003
200.90758
434.0179
623.7537
793.01493
1875.3691
1889.6498
799.44644
628.60805
437.06429
201.99462
203.28249
440.06812
633.53417
806.03828
1904.6515
1920.7987
812.83896
638.35608
442.78964
204.75433
206.86973
446.30139
644.2816
820.96686
1938.6324
1958.068
832.07186
652.84191
452.14565
210.50576
217.57726
462.37367
667.54068
849.68204
1976.3825
1997.492
878.75825
694.35565
482.16935
227.92283
242.85229
521.32257
742.57022
930.64253
2018.6572
2036.3199
963.10094
778.68722
551.5657
253.90591
275.18561
622.36838
881.40997
1088.9649
2021.3452