/*--------------------------------*- C++ -*----------------------------------*\
  =========                 |
  \\      /  F ield         | OpenFOAM: The Open Source CFD Toolbox
   \\    /   O peration     | Website:  https://openfoam.org
    \\  /    A nd           | Version:  7
     \\/     M anipulation  |
\*---------------------------------------------------------------------------*/
FoamFile
{
    version     2.0;
    format      ascii;
    class       volScalarField;
    location    "340";
    object      omega;
}
// * * * * * * * * * * * * * * * * * * * * * * * * * * * * * * * * * * * * * //

dimensions      [0 0 -1 0 0 0 0];

internalField   nonuniform List<scalar> 
24789
(
96461.348
30046.566
16926.015
12400.303
2050.0809
2057.9116
12439.236
16972.503
30109.106
96671.406
96887.936
30174.047
17020.706
12479.534
2065.9131
2074.0808
12520.993
17070.46
30241.511
97111.147
97341.762
30311.583
17122.034
12563.888
2082.4224
2090.9385
12608.074
17175.318
30384.415
97579.955
97826.5
30460.173
17230.601
12653.819
2099.6419
2108.534
12701.022
17287.823
30539.07
98081.747
98346.48
30621.285
17347.257
12749.937
2117.6231
2126.9103
12800.509
17408.894
30707.058
98621.329
98907.409
30796.674
17473.023
12852.987
2136.4053
2146.1115
12907.359
17539.682
30890.422
99205.357
99516.316
30988.632
17609.168
12963.869
2156.0382
2166.1884
13022.559
17681.579
31091.626
99841.25
100181.51
31199.821
17757.231
13083.686
2176.5705
2187.192
13147.342
17836.287
31313.622
100538.34
100913.33
31433.558
17919.1
13213.799
2198.0638
2209.1923
13283.235
18005.936
31560.15
101308.06
101724.58
31694.049
18097.205
13355.965
2220.5868
2232.2511
13432.247
18193.297
31836.007
102165.24
102633.09
31986.961
18294.738
13512.46
2244.1839
2256.3678
13596.986
18402.089
32147.939
103131.57
103665.12
32320.3
18516.07
13686.329
2268.7702
2281.3257
13781.072
18637.538
32505.62
104239.24
104860.91
32705.996
18767.593
13881.971
2293.9241
2306.3818
13990.086
18907.722
32923.916
105538.63
106283.29
33163.164
19060.253
14107.122
2318.4203
2329.5857
14235.868
19228.906
33429.485
107111.69
108050.14
33729.704
19419.35
14380.878
2339.1263
2346.0579
14551.45
19644.036
34071.959
109129.64
110457.71
34542.775
19936.656
14762.314
2348.5559
2338.4395
14986.172
20285.287
35237.488
112380.99
115164.65
35756.405
20517.367
15108.059
2302.0056
2232.2905
15053.42
20473.11
35722.936
117832.75
119815.88
36564.031
20966.281
15401.981
2203.2962
2193.3536
15557.221
21446.519
37800.719
125510.99
131407.14
39225.58
22026.6
15782.305
2245.5446
2073.1074
15965.011
21634.771
37763.32
124291.83
121231.2
36650.369
21052.234
15558.998
2050.6718
2070.6303
15658.571
21014.316
36424.96
117603.09
114047.75
35665.117
20703.123
15495.317
2099.7775
2117.1
15255.9
20339.993
35000.489
111241.99
109379.61
34336.263
19962.797
14989.868
2119.9962
2115.8722
14762.531
19660.311
33863.907
108082.79
107022.8
33504.806
19426.434
14581.668
2109.3037
2101.0939
14431.211
19232.999
33204.787
106110.99
105308.09
32944.131
19064.918
14300.057
2091.762
2081.8219
14182.41
18914.893
32712.875
104583.75
103921.44
32503.183
18777.885
14074.46
2071.5596
2061.1436
13973.945
18650.941
32310.596
103312.05
102748.74
32132.595
18532.386
13879.579
2050.6921
2040.2899
13790.578
18421.153
31967.275
102225.64
101737.75
31813.145
18316.427
13706.368
2029.9931
2019.836
13626.467
18217.526
31668.905
101280.87
100851.6
31533.574
18123.919
13550.505
2009.84
2000.0152
13478.109
18035.091
31406.21
100446.95
100064.45
31286.111
17950.665
13409.025
1990.367
1980.8955
13342.943
17870.241
31172.615
99702.089
99358.063
31065.167
17793.545
13279.684
1971.6013
1962.4813
13218.98
17720.247
30963.32
99030.79
98718.916
30866.566
17650.155
13160.73
1953.5345
1944.7575
13104.671
17582.964
30774.568
98421.036
98136.199
30686.949
17518.575
13050.769
1936.1508
1927.7099
12998.763
17456.684
30603.369
97863.194
97601.2
30523.553
17397.263
12948.68
1919.4355
1911.323
12900.26
17340.018
30447.202
97349.16
97106.301
30374.095
17284.968
12853.572
1903.3729
1895.5775
12808.331
17231.813
30303.996
96871.976
96645.692
30236.705
17180.622
12764.66
1887.9376
1880.4467
12722.267
17131.107
30172.08
96426.824
96214.971
30109.941
17083.382
12681.324
1873.1059
1865.9107
12641.55
17037.206
30050.299
96009.515
95809.903
29992.717
16992.627
12603.104
1858.8508
1865.9088
12642.56
17038.431
30051.874
96015.659
96221.019
30111.564
17084.634
12682.343
1873.0925
1880.4191
12723.307
17132.373
30173.683
96432.845
96652.012
30238.385
17181.95
12765.74
1887.8949
1895.5174
12809.474
17233.218
30305.78
96878.696
97113.564
30376.027
17286.471
12854.782
1903.2928
1911.2185
12901.549
17341.624
30449.292
97356.93
97609.674
30525.792
17398.978
12950.045
1919.2999
1927.5384
13000.221
17458.526
30605.805
97872.383
98146.158
30689.585
17520.553
13052.318
1935.9362
1944.492
13106.327
17585.092
30777.429
98431.822
98730.518
30869.687
17652.456
13162.505
1953.209
1962.0848
13220.887
17722.732
30966.689
99043.309
99371.583
31068.857
17796.24
13281.726
1971.1216
1980.3162
13345.122
17873.143
31176.588
99716.598
100080.08
31290.399
17953.793
13411.349
1989.6689
1999.1758
13480.565
18038.431
31410.805
100463.78
100869.89
31538.449
18127.451
13553.064
2008.8342
2018.6348
13629.091
18221.212
31674.024
101300.74
101759.38
31818.415
18320.198
13709.002
2028.5662
2038.6085
13793.151
18424.936
31972.635
102249.23
102774.33
32137.872
18536.056
13881.988
2048.7299
2058.8827
13976.067
18654.341
32315.573
103339.38
103949.94
32507.561
18780.834
14076.167
2068.9953
2078.9663
14183.58
18917.196
32716.26
104612.42
105335.08
32946.071
19066.491
14300.715
2088.6568
2097.8323
14431.855
19234.292
33205.215
106133.08
107036.7
33505.878
19429.382
14583.881
2106.0431
2112.7757
14769.293
19668.888
33871.087
108090.53
109384.16
34366.192
19986.474
15007.068
2117.4056
2116.0041
15293.069
20400.706
35101.095
111231.61
114155.92
35934.426
20785.104
15526.989
2097.4819
2063.7045
15589.478
20947.753
36367.778
117755.57
120686.97
36618.142
20996.75
15443.347
2044.1198
2061.211
16367.623
21987.855
38128.72
122447.65
131850.14
39446.797
22125.063
15875.072
2235.5189
2158.1021
15322.305
21069.897
36901.984
121356.86
122429.97
36409.515
20487.108
14748.829
2191.2268
2229.4798
15104.664
20607.851
36227.463
119573.83
115902.24
36094.848
20654.995
15208.403
2285.6201
2318.3187
15065.448
20363.374
35327.526
112719.28
110603.99
34572.947
19977.123
14817.453
2327.0603
2325.6647
14595.762
19670.522
34080.692
109149.42
107993.7
33707.522
19432.13
14416.222
2319.9714
2311.4826
14265.411
19233.926
33395.794
107023.72
106181.96
33126.023
19061.713
14133.585
2301.2558
2290.0567
14014.946
18907.575
32886.028
105429.98
104747.18
32667.91
18766.508
13905.827
2278.3386
2266.3806
13804.136
18635.727
32467.428
104121.33
103543.49
32281.948
18513.599
13708.675
2254.3697
2242.4223
13618.642
18398.986
32109.41
103006.82
102506.03
31948.293
18291.05
13533.458
2230.6113
2218.9808
13452.643
18189.11
31797.335
102036.65
101595.08
31655.442
18092.593
13375.815
2207.5568
2196.3507
13302.606
18000.991
31521.729
101178.2
100783.66
31395.438
17913.905
13232.748
2185.3693
2174.6111
13165.935
17830.931
31275.921
100409.34
100053.44
31162.629
17751.796
13101.993
2164.0775
2153.7627
13040.64
17676.144
31055.034
99714.26
99390.572
30952.704
17603.785
12981.768
2143.6663
2133.7805
12925.123
17534.41
30855.234
99081.027
98784.539
30762.268
17467.906
12870.658
2124.1056
2114.6329
12818.116
17403.966
30673.458
98500.086
98226.823
30588.543
17342.558
12767.517
2105.3645
2096.2933
12718.611
17283.403
30507.245
97963.703
97710.075
30429.288
17226.484
12671.446
2087.4175
2078.7259
12625.747
17171.517
30354.468
97465.188
97228.596
30282.568
17118.556
12581.627
2070.2195
2061.8852
12538.797
17067.314
30213.434
96999.582
96777.847
30146.903
17017.898
12497.421
2053.7264
2045.7295
12457.191
16970.011
30082.828
96562.756
96676.261
30110.085
16973.442
12440.032
2057.9687
2065.9717
12480.431
17021.823
30175.501
96893.558
97117.737
30243.255
17071.866
12522.146
2074.1267
2082.4496
12565.052
17123.496
30313.566
97348.936
97587.895
30386.61
17177.012
12609.437
2090.9509
2099.6305
12655.187
17232.341
30462.57
97834.957
98090.982
30541.68
17289.785
12702.576
2108.4979
2117.5522
12751.521
17349.298
30624.129
98356.475
98632.346
30710.152
17411.161
12802.271
2126.801
2136.2464
12854.798
17475.396
30800.028
98919.318
99218.539
30894.104
17542.308
12909.355
2145.8947
2155.7473
12965.959
17611.959
30992.641
99530.757
99857.264
31096.036
17684.655
13024.851
2165.8118
2176.0896
13086.103
17760.534
31204.669
100199.19
100558.04
31318.96
17839.91
13149.967
2186.5862
2197.3024
13216.591
17923.021
31439.446
100935.21
101332.62
31566.623
18010.219
13286.25
2208.2445
2219.4129
13359.171
18101.857
31701.219
101752.17
102196.48
31843.971
18198.389
13435.693
2230.803
2242.3994
13516.131
18300.287
31995.781
102668.49
103171.99
32157.753
18408.15
13600.906
2254.1757
2266.0802
13690.483
18522.674
32331.199
103711.57
104293.09
32517.796
18644.736
13785.462
2278.0297
2289.8876
13886.594
18775.449
32719.594
104923.86
105613.17
32939.223
18916.327
13994.961
2301.4459
2312.4006
14112.35
19069.825
33180.559
106372.86
107221.63
33450.075
19239.969
14241.721
2322.2814
2330.3135
14387.715
19432.74
33755.657
108190.55
109320.37
34105.958
19659.952
14559.027
2335.465
2335.9864
14769.09
19952.873
34581.468
110725.93
112742.97
35273.734
20300.951
14991.639
2324.4771
2287.9509
15109.541
20537.385
35826.808
115690.02
118951.02
35907.231
20496.608
15019.118
2222.7913
2195.5661
15195.152
20854.392
36593.908
120858.38
125417.94
37804.584
21424.389
15518.411
2178.5341
2226.4726
15691.014
21940.876
39175.572
131644.47
2868.46
14676.204
21397.436
39327.885
135098.15
130058.57
39711.886
22333.9
15882.443
2328.9746
2055.7964
16913.551
22997.273
40071.646
129209.84
124139.23
38203.06
21957.544
16053.856
2162.1781
2151.4364
15256.225
21074.273
37015.803
122327.25
121327.37
36382.146
20645.526
14994.556
2185.6754
2237.2522
15204.957
20695.674
36215.599
118521.32
115214.28
36072.239
20692.64
15251.848
2297.2994
2329.0789
15082.626
20373.749
35299.124
112273.02
110311.39
34563.014
19984.068
14827.455
2336.3481
2333.2712
14602.594
19675.657
34075.931
108951.68
107853.85
33702.189
19434.975
14420.683
2326.0408
2316.2788
14268.191
19235.229
33390.835
106922
106106.33
33121.318
19061.932
14135.145
2305.0241
2293.0044
14015.62
18907.041
32881.574
105372.97
104703.45
32663.881
18765.558
13905.928
2280.6442
2268.189
13803.885
18634.577
32463.831
104087.11
103516.44
32278.691
18512.332
13708.191
2255.7896
2243.5388
13618.024
18397.694
32106.511
102985.22
102488.52
31945.702
18289.777
13532.766
2231.4914
2219.6749
13451.911
18187.866
31794.979
102022.27
101583.19
31653.323
18091.405
13375.073
2208.104
2196.7825
13301.877
17999.875
31519.837
101168.38
100775.48
31393.765
17912.877
13232.055
2185.7098
2174.8803
13165.285
17829.99
31274.435
100402.32
100047.37
31161.281
17750.924
13101.376
2164.2899
2153.9297
13040.059
17675.341
31053.826
99709.053
99386.068
30951.618
17603.044
12981.224
2143.7958
2133.8795
12924.615
17533.726
30854.251
99077.105
98781.185
30761.369
17467.271
12870.182
2124.1788
2114.6858
12817.674
17403.387
30672.658
98497.188
98224.279
30587.826
17342.027
12767.107
2105.4014
2096.3167
12718.227
17282.91
30506.585
97961.457
97708.071
30428.692
17226.033
12671.089
2087.4301
2078.7295
12625.417
17171.101
30353.921
97463.362
97226.909
30282.06
17118.171
12581.321
2070.2146
2061.8713
12538.512
17066.956
30212.953
96998.026
96776.441
30146.447
17017.563
12497.158
2053.7018
2045.6931
12456.953
16969.709
30082.424
96561.599
96009.882
30050.058
17037.23
12641.624
1865.8467
1873.0525
12681.366
17083.436
30109.986
96215.777
96428.125
30172.249
17131.346
12722.483
1880.4016
1887.8934
12764.799
17180.816
30237.001
96647.18
96873.688
30304.338
17232.134
12808.596
1895.5352
1903.3278
12853.747
17285.211
30374.463
97108.017
97350.934
30447.582
17340.351
12900.53
1911.279
1919.39
12948.866
17397.513
30523.924
97602.916
97864.956
30603.75
17457.01
12999.024
1927.6669
1936.1097
13050.957
17518.827
30687.317
98137.808
98422.557
30774.925
17583.267
13104.915
1944.7223
1953.5057
13160.915
17650.396
30866.903
98720.109
99031.699
30963.606
17720.518
13219.204
1962.4637
1971.597
13279.855
17793.755
31065.402
99358.522
99702.073
31172.779
17870.45
13343.129
1980.9101
1990.4046
13409.151
17950.799
31286.172
100063.75
100445.42
31406.138
18035.169
13478.209
2000.084
2009.9488
13550.517
18123.871
31533.289
100849.09
101277.33
31668.4
18217.352
13626.403
2019.9988
2030.2279
13706.166
18316.053
31812.319
101732.88
102219.16
31966.057
18420.534
13790.221
2040.6224
2051.1584
13879.03
18531.463
32130.869
102740.14
103300.52
32308.292
18649.681
13973.203
2061.7926
2072.4548
14073.582
18776.322
32500.219
103905.78
104562.24
32709.451
18913.224
14181.577
2083.0414
2093.3883
14299.658
19063.62
32940.714
105278.12
106069.14
33202.232
19232.858
14431.887
2103.1994
2111.9176
14584.577
19429.03
33505.113
106964.87
108005.85
33869.916
19667.687
14769.095
2118.8751
2123.049
15002.082
19978.352
34352.82
109277.21
111095.5
35044.538
20370.108
15276.055
2119.6115
2099.437
15514.387
20737.36
35768.244
113880.72
117098.66
36330.935
21007.058
15677.871
2066.1478
2044.0989
15736.19
21177.58
36694.775
120393.44
124662.15
37943.186
21730.92
16031.764
2064.3892
2239.1884
15618.56
22020.068
39476.289
132606.89
126810.16
37983.117
21452.557
15485.339
2189.0673
2202.2898
15585.835
21168.007
36870.087
119853.66
118446.98
35801.378
20472.749
14987.592
2232.1361
2300.3963
15100.261
20524.374
35824.957
115541.95
112598.7
35278.55
20299.249
14991.857
2336.8746
2348.269
14771.689
19951.935
34573.588
110574.62
109184.2
34086.362
19653.091
14558.021
2346.4297
2339.7159
14384.302
19423.557
33736.029
108074.66
107122.24
33431.139
19230.139
14237.148
2330.1841
2318.957
14107.302
19060.094
33162.81
106287.23
105539.33
32922.887
18907.039
13989.802
2306.8376
2294.2979
13881.552
18766.81
32704.811
104860.05
104237.79
32504.559
18636.824
13780.66
2281.6255
2269.0079
13685.986
18515.492
32319.413
103663.46
103129.91
32147.26
18401.658
13596.734
2256.5556
2244.3315
13512.281
18294.431
31986.449
102631.53
102163.88
31835.648
18193.104
13432.149
2232.3675
2220.6775
13355.905
18097.082
31693.793
101723.32
101307.1
31559.999
18005.893
13283.238
2209.262
2198.1139
13213.81
17919.088
31433.489
100912.68
100538.01
31313.61
17836.328
13147.398
2187.2272
2176.5916
13083.717
17757.257
31199.833
100181.36
99841.341
31091.683
17681.659
13022.639
2166.2006
2156.0412
12963.907
17609.215
30988.712
99516.531
99205.771
30890.528
17539.787
12907.455
2146.1103
2136.3983
12853.028
17473.078
30796.786
98907.863
98621.92
30707.18
17409.016
12800.619
2126.9026
2117.6126
12749.974
17347.31
30621.405
98346.954
98082.229
30539.182
17287.946
12701.137
2108.5265
2099.6327
12653.844
17230.641
30460.282
97826.936
97580.459
30384.496
17175.43
12608.185
2090.9332
2082.415
12563.882
17122.031
30311.631
97342.097
97111.365
30241.459
17070.507
12521.065
2074.08
2065.9141
12479.435
17020.581
30173.887
96887.684
96670.787
30108.692
16972.35
12439.167
2057.9207
2057.9249
12440.371
16973.906
30110.995
96678.187
96894.684
30175.992
17022.155
12480.697
2065.9323
2074.0954
12522.194
17071.953
30243.503
97118.09
97349.051
30313.675
17123.608
12565.145
2082.4269
2090.9274
12609.409
17176.998
30386.663
97587.765
97834.845
30462.611
17232.408
12655.242
2099.6089
2108.4738
12702.547
17289.769
30541.71
98090.712
98356.183
30624.152
17349.362
12751.571
2117.5297
2126.777
12802.267
17411.177
30710.205
98631.892
98918.829
30800.103
17475.495
12854.87
2136.2244
2145.8737
12909.385
17542.363
30894.156
99217.664
99529.542
30992.713
17612.096
12966.063
2155.7315
2165.7996
13024.948
17684.789
31096.112
99855.549
100196.91
31204.76
17760.756
13086.279
2176.0849
2186.5895
13150.166
17840.163
31319.055
100554.95
100931.14
31439.507
17923.354
13216.872
2197.3194
2208.2792
13286.581
18010.609
31566.671
101327.13
101745.02
31701.194
18102.333
13359.594
2219.4741
2230.9019
13436.179
18198.918
31843.798
102187.01
102656.04
31995.411
18300.883
13516.712
2242.5551
2254.416
13601.582
18408.802
32157.083
103155.47
103689.6
32330.119
18523.396
13691.298
2266.4483
2278.5874
13786.481
18645.57
32516.166
104263.66
104884.38
32717.325
18776.505
13887.964
2290.7232
2302.677
13996.982
18917.903
32936.321
105560.34
106302.99
33177.52
19072.559
14115.597
2314.177
2324.7767
14247.237
19245.169
33448.265
107131.22
108078.31
33758.84
19442.841
14397.194
2333.7049
2339.8799
14574.594
19678.761
34124.859
109191.86
110578.07
34611.558
19981.302
14792.028
2341.4917
2331.4604
15027.705
20350.917
35334.63
112577.66
115601.56
36043.838
20614.04
15151.734
2294.2188
2226.4321
15029.173
20499.181
35911.836
118748.43
120649.68
36596.267
20808.987
15112.261
2195.7965
2178.6814
15727.611
21588.646
37867.321
124036.34
1018.07
607.89853
820.53917
2057.9616
15952.12
21624.756
37782.948
124560.02
123426.05
37115.676
21051.169
15176.785
2163.4878
133008.6
39227.584
21528.216
14887.122
2877.878
3194.1972
15201.366
21828.762
39447.316
131672.7
132466.6
40000.188
22038.342
15286.409
3205.1065
2503.0822
15350.677
21762.083
38912.169
128628.47
1471.8574
1267.6055
677.47894
840.71098
180.65613
191.0166
189.48466
180.65583
179.70335
184.549
184.60344
179.35021
96563.49
30082.81
16970.072
12457.253
2045.8787
2053.8689
12497.369
17017.841
30146.864
96778.035
96999.583
30213.301
17067.311
12538.839
2062.0313
2070.3695
12581.529
17118.4
30282.355
97228.174
97464.497
30354.158
17171.401
12625.72
2078.8917
2087.5986
12671.291
17226.223
30428.879
97708.909
97962.192
30506.756
17283.172
12718.512
2096.4992
2105.5954
12767.312
17342.205
30587.966
98224.789
98497.65
30672.786
17403.626
12817.952
2114.8967
2124.4049
12870.402
17467.448
30761.474
98781.426
99077.316
30854.36
17533.965
12924.903
2134.1248
2144.0579
12981.483
17603.254
30951.744
99386.193
99709.254
31053.981
17675.61
13040.385
2154.2123
2164.5927
13101.692
17751.186
31161.468
100047.51
100402.53
31274.682
17830.329
13165.672
2175.2062
2186.0567
13232.478
17913.264
31394.108
100775.75
101168.9
31520.335
18000.384
13302.407
2197.1518
2208.4945
13375.691
18092.034
31654.016
101583.96
102023.29
31795.926
18188.689
13452.684
2220.0854
2231.9166
13533.728
18290.843
31946.959
102489.66
102986.58
32108.238
18399.125
13619.267
2243.9688
2256.2029
13709.798
18514.247
32281.021
103518.04
104089.18
32467.004
18637.153
13805.985
2268.5514
2280.8983
13908.703
18769.074
32668.265
104706.41
105378.05
32887.73
18911.812
14019.263
2293.0554
2304.7224
14139.83
19068.338
33130.007
106115.64
106939.37
33402.868
19243.416
14273.83
2315.3971
2324.2547
14426.459
19444.351
33717.666
107885.04
109001.81
34094.637
19684.218
14606.082
2330.2071
2331.4007
14820.981
19984.344
34584.75
110392.3
112424.88
35265.223
20325.328
15038.572
2319.9277
2283.7786
15139.997
20538.927
35797.906
115361.79
118313.76
35862.106
20501.431
15044.675
2223.9093
2192.9589
15272.25
20840.173
36483.34
120081.01
123106.99
36988.494
20988.303
15145.073
2176.6034
16926.456
23118.107
40518.76
130525.4
127755.25
40788.593
23482.363
17343.518
2096.69
2390.0758
16610.508
23024.209
40405.714
126979.87
127693.7
38629.725
21676.96
15279.034
2536.5988
2193.0933
15959.845
21921.447
38156.078
123477.34
123107.51
36987.191
20986.676
15143.405
2175.5511
2192.1112
15270.534
20838.719
36482.398
120081.73
118313.58
35861.129
20500.122
15043.208
2223.2001
2283.1617
15138.698
20537.586
35796.547
115360.57
112422.41
35264.13
20324.182
15037.437
2319.3938
2330.9295
14819.879
19983.171
34583.44
110389.37
108998.56
34093.177
19683.003
14604.984
2329.7852
2323.8729
14425.386
19443.149
33716.211
107881.6
106935.77
33401.417
19242.233
14272.782
2315.0463
2304.3937
14138.796
19067.158
33128.545
106112.01
105374.49
32886.283
18910.642
14018.24
2292.7416
2280.5941
13907.687
18767.907
32666.833
104703.02
104086
32465.59
18635.993
13804.976
2268.2536
2255.9102
13708.798
18513.103
32279.656
103515.07
102983.83
32106.913
18398
13618.281
2243.6809
2231.6343
13532.766
18289.752
31945.708
102487.14
102020.88
31794.721
18187.631
13451.751
2219.8105
2208.2285
13374.788
18091.016
31652.881
101581.63
101166.65
31519.261
17999.407
13301.535
2196.8967
2185.8138
13231.648
17912.34
31393.114
100773.43
100400.14
31273.729
17829.443
13164.878
2174.9772
2164.3788
13100.925
17750.337
31160.545
100045
99706.541
31053.087
17674.789
13039.648
2154.0142
2143.8736
12980.772
17602.456
30950.857
99383.354
99074.31
30853.491
17533.193
12924.22
2133.9544
2124.2484
12869.738
17466.701
30760.64
98778.28
98494.287
30671.924
17402.883
12817.301
2114.7535
2105.4634
12766.668
17341.474
30587.118
98221.297
97958.537
30505.875
17282.437
12717.876
2096.3778
2087.4853
12670.658
17225.495
30428.017
97705.125
97460.586
30353.26
17170.663
12625.093
2078.7855
2070.2661
12580.9
17117.662
30281.45
97224.16
96995.482
30212.375
17066.564
12538.215
2061.9299
2053.7622
12496.737
17017.077
30145.899
96773.852
96558.986
30081.923
16969.359
12456.674
2045.7716
2037.9272
12417.635
16923
30020.08
96350.254
2058.0357
12439.63
16972.917
30109.463
96674.751
96891.18
30174.695
17021.266
12480.026
2066.0361
2074.1973
12521.499
17071.03
30242.173
97114.504
97345.128
30312.27
17122.611
12564.401
2082.5383
2091.0577
12608.576
17175.877
30385.07
97583.211
97829.568
30460.812
17231.148
12654.314
2099.767
2108.6683
12701.506
17288.348
30539.662
98084.521
98348.977
30621.829
17347.768
12750.414
2117.7699
2127.072
12800.978
17409.382
30707.542
98623.519
98909.149
30797.117
17473.493
12853.45
2136.5857
2146.3149
12907.813
17540.127
30890.78
99206.632
99517.081
30988.912
17609.594
12964.322
2156.2672
2166.4468
13023.02
17681.995
31091.848
99841.408
100181.07
31199.969
17757.628
13084.145
2176.8634
2187.5214
13147.801
17836.671
31313.714
100537.28
100911.61
31433.567
17919.464
13214.261
2198.4313
2209.601
13283.688
18006.26
31560.059
101305.77
101721.84
31693.88
18097.481
13356.392
2221.041
2232.7528
13432.633
18193.5
31835.717
102162.15
102629.73
31986.538
18294.851
13512.795
2244.736
2256.9763
13597.255
18402.079
32147.339
103128.05
103661.7
32319.501
18515.916
13686.516
2269.4444
2282.0751
13781.195
18637.256
32504.67
104236.2
104858.68
32704.946
18767.235
13882.086
2294.7595
2307.3118
13990.335
18907.461
32923.012
105538.19
106286.44
33162.914
19060.475
14107.812
2319.4461
2330.6947
14237.636
19230.482
33431.188
107121.69
108074.25
33735.958
19423.819
14384.746
2340.2602
2347.0336
14558.449
19653.304
34086.218
109183.77
110573.94
34573.271
19952.038
14772.071
2348.9657
2337.7082
14992.183
20299.177
35277.725
112597.27
115539.21
35823.911
20524.15
15100.572
2301.4235
2233.468
14988.101
20473.242
35801.574
118443.8
119842.59
36869.416
21168.86
15587.21
2203.8192
2190.9432
15488.224
21455.723
37987.235
126786.64
132584.34
39502.957
22024.32
15619.087
2241.3554
2066.2279
16032.46
21732.944
37947.666
124649.22
122318.89
37020.163
21075.358
15255.121
2153.4183
2159.6722
15323.873
21069.951
36896.98
121313.27
122423.28
38128.565
21985.522
16366.005
2062.6669
2179.9533
15725.423
21585.003
37865.523
124015.04
125407.44
37798.848
21417.732
15514.356
2179.2614
2058.5584
15947.397
21617.918
37777.108
124561.41
123416.87
37108.724
21046.6
15174.066
2163.4706
2184.5752
15396.493
20957.589
36616.941
119759.58
118033.84
35836.865
20513.253
15064.471
2215.778
2275.7304
15121.784
20509.696
35742.312
115266.46
112372.84
35258.823
20318.75
15031.297
2314.9123
2327.9446
14819.095
19984.541
34587.728
110367.89
108991.54
34098.183
19685.916
14606.076
2327.6179
2322.2066
14427.024
19446.256
33720.98
107881.5
106940
33405.45
19244.953
14274.349
2313.6812
2303.2259
14140.125
19069.417
33131.971
106119.29
105383.61
32889.296
18912.547
14019.365
2291.7274
2279.7137
13908.677
18769.579
32669.563
104712.9
104095.94
32468.103
18637.503
13805.882
2267.4935
2255.2592
13709.644
18514.485
32281.955
103524.61
102992.71
32109.027
18399.275
13619.08
2243.1274
2231.167
13533.519
18290.928
31947.63
102495.28
102028.27
31796.473
18188.713
13452.459
2219.4179
2207.9
13375.446
18092.004
31654.457
101588.29
101172.58
31520.689
18000.311
13302.147
2196.6236
2185.5869
13232.206
17913.147
31394.361
100778.78
100404.93
31274.852
17830.177
13165.392
2174.7896
2164.2249
13101.402
17751.009
31161.571
100049.24
99710.311
31053.995
17675.398
13040.088
2153.8888
2143.7732
12981.179
17603.015
30951.684
99386.684
99077.215
30854.247
17533.71
12924.6
2133.876
2124.1886
12870.086
17467.167
30761.299
98780.768
98496.472
30672.524
17403.308
12817.622
2114.7091
2105.4307
12766.964
17341.857
30587.637
98223.276
97960.34
30506.381
17282.798
12718.154
2096.3545
2087.4694
12670.917
17225.826
30428.47
97706.761
97462.04
30353.671
17170.968
12625.333
2078.7748
2070.2593
12581.126
17117.943
30281.821
97225.466
96996.678
30212.707
17066.819
12538.425
2061.9232
2053.7528
12496.928
17017.304
30146.18
96775.012
96560.302
30082.109
16969.525
12456.825
2045.7526
2037.907
12417.779
16923.17
30020.348
96351.861
2045.829
12457.349
16970.204
30083.041
96564.432
96779.137
30147.13
17018.105
12497.597
2053.8312
2061.9962
12538.975
17067.501
30213.629
97000.651
97229.54
30282.736
17118.722
12581.79
2070.3371
2078.8533
12625.908
17171.665
30354.607
97466.021
97710.773
30429.407
17226.617
12671.594
2087.5551
2096.4442
12718.758
17283.518
30507.327
97964.232
98227.22
30588.599
17342.665
12767.657
2105.5295
2114.8145
12818.264
17404.072
30673.51
98500.298
98784.576
30762.316
17468.016
12870.812
2124.3047
2134.0001
12925.287
17534.519
30855.266
99080.86
99390.19
30952.736
17603.906
12981.944
2143.9082
2154.0314
13040.843
17676.285
31055.081
99713.611
100052.56
31162.705
17751.972
13102.228
2164.3763
2174.9468
13166.216
17831.148
31276.036
100408.21
100782.1
31395.607
17914.188
13233.094
2185.7502
2196.7902
13303.049
18001.375
31521.976
101175.94
101591.75
31655.829
18093.134
13376.401
2208.0699
2219.5873
13453.435
18189.884
31797.916
102031.78
102498.93
31949.159
18292.16
13534.546
2231.3337
2243.2891
13620.139
18400.555
32110.62
102996.46
103528.5
32283.655
18515.829
13710.751
2255.4152
2267.6435
13807.029
18638.904
32469.863
104099.88
104716.79
32671.412
18771.043
13909.872
2279.8586
2291.8687
14020.622
18914.093
32891.205
105387.24
106122.53
33133.943
19071.042
14141.452
2303.3656
2313.8225
14275.791
19246.717
33407.492
106942.57
107883.23
33723.211
19448.232
14428.637
2322.3517
2327.763
14607.937
19688.239
34100.827
108992.52
110368.78
34591.123
19987.226
14821.188
2328.0748
2315.023
15033.597
20321.692
35262.099
112373.48
115268.91
35746.435
20513.069
15124.163
2275.7676
2215.883
15066.984
20517.028
35842.507
118035.41
119761.72
36623.137
20961.648
15399.015
2184.6401
2036.2285
15843.168
21215.559
36655.18
119633.49
116782.36
35890.348
20792.478
15559.737
2040.5589
2079.3614
15415.012
20600.202
35527.984
113864.94
111222.02
34974.413
20299.981
15215.366
2102.7986
2109.0761
14969.581
19944.417
34324.549
109442.8
108185.42
33868.213
19654.523
14753.661
2107.1862
2102.3399
14579.428
19427.833
33516.781
107129.67
106209.31
33218.81
19237.536
14432.248
2095.464
2087.1887
14302.555
19070.534
32957.811
105394.54
104658.42
32725.383
18920.63
14185.457
2078.0972
2068.521
14077.655
18783.385
32514.333
103985.51
103367.06
32320.509
18656.082
13977.107
2058.6633
2048.6692
13882.645
18537.162
32141.386
102796.03
102266.36
31975.119
18425.581
13793.525
2038.644
2028.657
13709.175
18320.523
31820.129
101772.93
101311.41
31675.174
18221.329
13629.144
2018.7558
2008.9691
13553.027
18127.423
31539.17
100878.16
100470.15
31411.225
18038.346
13480.511
1999.3167
1989.8094
13411.266
17953.659
31290.629
100084.82
99720.121
31176.692
17873.034
13345.077
1980.4548
1971.2554
13281.664
17796.116
31068.879
99374.049
99045.106
30966.684
17722.669
13220.887
1962.2143
1953.3312
13162.478
17652.371
30869.657
98731.768
98432.746
30777.385
17585.075
13106.37
1944.6084
1936.0441
13052.315
17520.498
30689.545
98146.77
97872.927
30605.778
17458.553
13000.296
1927.6399
1919.3927
12950.055
17398.944
30525.772
97610.082
97357.383
30449.281
17341.679
12901.649
1911.3062
1903.3735
12854.795
17286.449
30376.031
97113.941
96879.149
30305.769
17233.283
12809.582
1895.5962
1887.9668
12765.72
17181.886
30238.322
96652.287
96432.935
30173.469
17132.338
12723.347
1880.4871
1873.1493
12682.156
17084.345
30111.087
96220.449
96014.546
30050.92
17037.988
12642.306
1865.952
1866.0177
12642.129
17037.852
30050.98
96013.656
96218.798
30110.766
17084.104
12681.95
1873.2151
1880.5543
12722.892
17131.807
30172.856
96430.487
96649.281
30237.471
17181.31
12765.272
1888.0468
1895.6906
12808.942
17232.487
30304.728
96875.429
97109.633
30374.808
17285.632
12854.173
1903.492
1911.4507
12900.862
17340.669
30447.889
97352.252
97604.129
30524.195
17397.896
12949.269
1919.5731
1927.8595
12999.354
17457.308
30603.985
97865.896
98138.655
30687.528
17519.192
13051.357
1936.3145
1944.937
13105.27
17583.583
30775.128
98423.221
98720.807
30867.113
17650.784
13161.342
1953.7304
1962.6944
13219.612
17720.884
30963.844
99032.44
99359.47
31065.72
17794.199
13280.33
1971.8327
1981.1451
13343.608
17870.908
31173.15
99703.239
100065.43
31286.66
17951.356
13409.714
1990.6345
2000.3
13478.824
18035.806
31406.782
100447.76
100852.36
31534.172
18124.653
13551.236
2010.1414
2020.1527
13627.217
18218.282
31669.54
101281.6
101738.53
31813.797
18317.195
13707.133
2030.3245
2040.6361
13791.36
18421.941
31967.974
102226.58
102749.91
32133.334
18533.185
13880.371
2051.0531
2061.5214
13974.742
18651.747
32311.378
103313.4
103923.02
32503.969
18778.688
14075.261
2071.9567
2082.2431
14183.212
18915.694
32713.686
104585.54
105310.03
32944.942
19065.711
14300.862
2092.2137
2101.5849
14432.017
19233.775
33205.581
106113.03
107024.92
33505.56
19427.192
14582.478
2109.8451
2116.4768
14763.341
19661.029
33864.569
108084.84
109381.23
34336.789
19963.512
14990.718
2120.6818
2117.8857
15256.832
20340.786
35001.134
111243.01
114047.58
35665.68
20703.964
15496.338
2100.6777
2071.6537
15659.76
21015.23
36425.268
117601.39
121227.11
36651.194
21053.663
15560.739
2051.8405
2074.4748
15967.2
21637.179
37767.119
124282.1
131389.28
39250.472
22030.466
15783.067
2247.2197