/*--------------------------------*- C++ -*----------------------------------*\
  =========                 |
  \\      /  F ield         | OpenFOAM: The Open Source CFD Toolbox
   \\    /   O peration     | Website:  https://openfoam.org
    \\  /    A nd           | Version:  7
     \\/     M anipulation  |
\*---------------------------------------------------------------------------*/
FoamFile
{
    version     2.0;
    format      ascii;
    class       volScalarField;
    location    "340";
    object      rho;
}
// * * * * * * * * * * * * * * * * * * * * * * * * * * * * * * * * * * * * * //

dimensions      [1 -3 0 0 0 0 0];

internalField   nonuniform List<scalar> 
24789
(
1.1735485
1.1735687
1.1735816
1.1735905
1.173631
1.1736041
1.1735607
1.1735512
1.1735376
1.1735163
1.1734823
1.1735046
1.1735191
1.1735292
1.1735761
1.1735465
1.1734957
1.1734848
1.1734694
1.1734459
1.1734071
1.173432
1.1734483
1.1734601
1.1735153
1.173482
1.1734219
1.1734092
1.1733917
1.1733654
1.1733205
1.1733485
1.1733672
1.173381
1.1734467
1.173409
1.1733369
1.1733219
1.1733018
1.1732719
1.1732194
1.1732514
1.1732731
1.1732894
1.1733687
1.1733255
1.1732378
1.17322
1.1731965
1.1731621
1.1730996
1.1731368
1.1731623
1.1731819
1.1732792
1.1732293
1.173121
1.1730993
1.1730714
1.1730311
1.1729559
1.1729998
1.1730304
1.1730545
1.1731755
1.1731172
1.1729816
1.1729547
1.172921
1.1728729
1.1727813
1.1728341
1.1728715
1.1729014
1.1730541
1.1729854
1.1728131
1.1727795
1.1727379
1.1726795
1.1725665
1.1726312
1.1726776
1.1727155
1.1729104
1.1728284
1.1726071
1.1725643
1.1725122
1.1724401
1.1722989
1.1723795
1.1724381
1.1724867
1.1727382
1.1726388
1.1723521
1.1722969
1.1722308
1.1721403
1.1719621
1.1720639
1.1721387
1.1722015
1.1725285
1.1724057
1.1720325
1.1719608
1.1718761
1.1717613
1.1715354
1.1716647
1.1717607
1.1718423
1.1722679
1.1721124
1.1716282
1.1715355
1.1714269
1.1712816
1.1709969
1.1711594
1.1712815
1.1713864
1.1719345
1.1717293
1.1711135
1.1709956
1.1708593
1.1706791
1.170334
1.1705312
1.1706817
1.1708127
1.1714962
1.171221
1.1704786
1.1703354
1.1701721
1.1699605
1.169527
1.169744
1.169915
1.1700671
1.1708499
1.170481
1.16966
1.1695032
1.1693362
1.1691417
1.1691929
1.1693152
1.1694639
1.169622
1.170476
1.1696052
1.1689486
1.1688232
1.168719
1.1686739
1.1632386
1.1635306
1.1637513
1.1639985
1.1661088
1.1702919
1.1697873
1.16966
1.1695283
1.1693319
1.1712585
1.1714753
1.1715792
1.1716934
1.172178
1.1741481
1.1737509
1.1736459
1.1735234
1.1733151
1.1774689
1.1778289
1.1780776
1.1782741
1.1783278
1.1734489
1.1712791
1.1710434
1.17084
1.1704547
1.1718514
1.1720037
1.1720428
1.1720574
1.1722623
1.1692927
1.1667935
1.166459
1.1661257
1.1656798
1.164806
1.1649702
1.1650909
1.1652466
1.1667604
1.1696871
1.1688557
1.1687274
1.168614
1.1685428
1.169053
1.1691872
1.1693371
1.1694922
1.1704658
1.170494
1.1695608
1.1694064
1.1692427
1.1690537
1.1694347
1.1696434
1.1698114
1.1699627
1.1708688
1.171241
1.1703707
1.1702271
1.1700653
1.1698611
1.170229
1.1704195
1.1705698
1.1707026
1.1715144
1.1717437
1.1710014
1.1708801
1.1707413
1.1705615
1.1708726
1.1710382
1.1711647
1.1712746
1.1719454
1.1721207
1.1715189
1.1714203
1.1713059
1.1711553
1.1714102
1.1715464
1.1716493
1.1717374
1.1722743
1.1724109
1.1719334
1.1718548
1.1717626
1.1716398
1.1718462
1.1719567
1.1720393
1.1721091
1.1725329
1.1726425
1.1722668
1.1722047
1.1721308
1.1720314
1.1721977
1.1722872
1.1723533
1.1724085
1.1727415
1.1728314
1.1725361
1.1724871
1.1724278
1.1723471
1.1724816
1.1725544
1.1726076
1.1726512
1.1729132
1.1729879
1.1727553
1.1727163
1.1726685
1.1726026
1.1727119
1.1727717
1.1728148
1.1728495
1.1730565
1.1731195
1.1729351
1.172904
1.172865
1.1728106
1.1729
1.1729497
1.172985
1.1730129
1.1731776
1.1732313
1.1730839
1.1730587
1.1730266
1.1729811
1.1730548
1.1730966
1.1731259
1.1731486
1.173281
1.1733272
1.173208
1.1731873
1.1731605
1.1731219
1.1731833
1.173219
1.1732436
1.1732624
1.1733703
1.1734104
1.1733125
1.1732953
1.1732725
1.1732393
1.1732909
1.1733219
1.173343
1.1733588
1.173448
1.1734832
1.1734017
1.1733871
1.1733674
1.1733384
1.1733824
1.1734097
1.1734281
1.1734415
1.1735163
1.1735474
1.1734786
1.1734661
1.1734489
1.1734232
1.1734612
1.1734855
1.1735017
1.1735133
1.1735769
1.1736048
1.173546
1.1735352
1.1735199
1.1734969
1.1735305
1.1735523
1.1735666
1.1735767
1.1736316
1.1736081
1.1735499
1.1735393
1.1735242
1.1735016
1.1734665
1.1734904
1.1735063
1.1735176
1.1735798
1.1735504
1.1734831
1.1734709
1.173454
1.1734287
1.1733885
1.1734152
1.1734333
1.1734464
1.1735195
1.1734867
1.173407
1.1733928
1.1733734
1.173345
1.1732981
1.1733285
1.1733492
1.1733646
1.1734517
1.1734144
1.1733189
1.1733021
1.1732797
1.1732471
1.1731918
1.1732268
1.173251
1.1732694
1.1733746
1.173332
1.1732157
1.1731955
1.1731692
1.1731314
1.1730653
1.1731062
1.1731349
1.1731571
1.1732862
1.173237
1.1730932
1.1730686
1.1730372
1.1729926
1.1729128
1.1729614
1.1729959
1.1730232
1.1731838
1.1731263
1.1729465
1.1729161
1.172878
1.1728247
1.1727275
1.1727861
1.1728282
1.1728621
1.1730639
1.172996
1.1727691
1.1727311
1.1726844
1.1726199
1.1725006
1.1725719
1.1726239
1.1726665
1.172922
1.172841
1.1725528
1.172505
1.1724471
1.1723681
1.1722208
1.1723085
1.172373
1.1724268
1.1727519
1.1726538
1.1722869
1.1722263
1.1721542
1.1720568
1.1718742
1.1719824
1.172063
1.1721311
1.1725449
1.1724239
1.1719575
1.1718809
1.1717909
1.1716707
1.1714444
1.1715776
1.171678
1.1717639
1.1722883
1.1721357
1.171548
1.1714519
1.1713403
1.1711931
1.1709148
1.1710765
1.1711998
1.1713067
1.1719617
1.1717613
1.1710367
1.1709187
1.1707838
1.1706089
1.1702809
1.1704655
1.1706114
1.1707404
1.1715324
1.1712629
1.1704142
1.170275
1.1701184
1.1699208
1.169511
1.1697102
1.1698719
1.1700179
1.1708992
1.1704916
1.169594
1.1694464
1.169291
1.1691129
1.169076
1.1691947
1.1693321
1.1694792
1.1704245
1.169965
1.1691495
1.1690217
1.1689137
1.1688711
1.1656945
1.1658299
1.165916
1.1660283
1.1670007
1.1673707
1.1630379
1.1625505
1.1620882
1.1614468
1.1789883
1.1789122
1.1787931
1.1785993
1.1763154
1.1726202
1.1705807
1.1703184
1.1701005
1.1697
1.1769978
1.1774165
1.1776751
1.1778777
1.1776489
1.1740654
1.1740261
1.1739747
1.1738901
1.1736785
1.1776818
1.1776945
1.1776142
1.1774537
1.1759471
1.1672547
1.1637811
1.163299
1.1628178
1.1621902
1.165116
1.1652676
1.1653525
1.1654699
1.1665231
1.1697029
1.1689861
1.1688584
1.1687526
1.1687078
1.1690147
1.1691506
1.1692986
1.1694525
1.1703045
1.1704207
1.1696062
1.1694514
1.169283
1.1690793
1.1695187
1.1697431
1.169915
1.1700654
1.1708461
1.1712169
1.1704841
1.1703447
1.1701843
1.1699752
1.1703591
1.1705518
1.1706976
1.1708238
1.1714921
1.1717273
1.1711284
1.1710157
1.1708848
1.1707104
1.1710286
1.1711846
1.1713011
1.171401
1.1719323
1.1721102
1.1716411
1.1715531
1.1714498
1.1713111
1.1715615
1.1716845
1.1717758
1.1718532
1.172266
1.1724045
1.1720416
1.1719735
1.1718928
1.1717836
1.1719806
1.1720777
1.172149
1.172209
1.172528
1.1726389
1.1723581
1.1723052
1.1722419
1.1721553
1.1723109
1.1723883
1.1724446
1.1724913
1.1727388
1.1728294
1.1726108
1.1725694
1.1725191
1.1724496
1.1725739
1.1726366
1.1726816
1.1727183
1.1729117
1.1729869
1.1728153
1.1727826
1.1727421
1.1726853
1.1727857
1.1728372
1.1728738
1.172903
1.1730557
1.1731189
1.1729828
1.1729565
1.1729234
1.1728763
1.1729584
1.1730016
1.1730317
1.1730554
1.1731771
1.173231
1.1731217
1.1731003
1.1730728
1.173033
1.1731009
1.1731377
1.173163
1.1731823
1.1732808
1.1733271
1.1732382
1.1732205
1.1731972
1.1731631
1.17322
1.1732519
1.1732734
1.1732895
1.1733701
1.1734103
1.173337
1.1733221
1.1733021
1.1732724
1.1733207
1.1733487
1.1733673
1.1733809
1.1734479
1.1734831
1.1734218
1.1734092
1.1733917
1.1733654
1.173407
1.1734319
1.1734482
1.1734599
1.1735162
1.1735474
1.1734954
1.1734846
1.1734692
1.1734456
1.173482
1.1735043
1.1735188
1.1735289
1.1735769
1.1736055
1.1735604
1.1735509
1.1735372
1.173516
1.1735208
1.1735417
1.1735552
1.1735645
1.1736073
1.1735791
1.1735332
1.1735233
1.173509
1.1734869
1.1734509
1.1734741
1.1734893
1.1735
1.1735497
1.1735186
1.1734646
1.1734531
1.173437
1.1734124
1.1733712
1.1733972
1.1734144
1.1734269
1.1734857
1.1734506
1.1733863
1.1733728
1.1733544
1.1733267
1.1732788
1.1733083
1.1733281
1.1733427
1.1734132
1.1733732
1.1732955
1.1732795
1.1732582
1.1732265
1.17317
1.173204
1.1732271
1.1732446
1.1733304
1.1732844
1.1731892
1.1731699
1.1731448
1.1731081
1.1730403
1.1730801
1.1731075
1.1731288
1.1732348
1.1731814
1.173063
1.1730393
1.1730092
1.1729658
1.1728838
1.1729312
1.1729644
1.1729908
1.1731235
1.1730608
1.1729114
1.1728819
1.1728451
1.172793
1.1726925
1.17275
1.1727909
1.172824
1.1729926
1.1729181
1.1727272
1.17269
1.1726442
1.1725804
1.1724557
1.1725267
1.172578
1.1726201
1.1728366
1.1727469
1.1725007
1.172453
1.1723953
1.1723159
1.1721591
1.1722483
1.1723133
1.1723676
1.1726481
1.1725384
1.1722184
1.1721567
1.1720831
1.1719828
1.1717843
1.1718974
1.1719807
1.172051
1.172416
1.1722787
1.1718626
1.1717825
1.1716882
1.1715609
1.17131
1.171453
1.1715595
1.1716504
1.1721236
1.1719461
1.1714105
1.1713078
1.1711881
1.1710284
1.1707142
1.170891
1.1710244
1.1711396
1.1717409
1.1715069
1.1708404
1.1707127
1.1705658
1.1703725
1.1700041
1.1702109
1.1703698
1.170509
1.1712313
1.1708608
1.1701022
1.1699551
1.1697891
1.1695775
1.1691816
1.1693714
1.1695325
1.169683
1.170475
1.1704383
1.1696074
1.1694583
1.1693176
1.1692005
1.1688644
1.1688987
1.1689819
1.1690863
1.1696538
1.1662363
1.1644813
1.1642781
1.1641113
1.1638771
1.1666759
1.1670496
1.1672979
1.1675504
1.1693733
1.1744149
1.1754042
1.1754291
1.1754144
1.1753239
1.1714272
1.1716779
1.1717998
1.1719236
1.1729708
1.1786283
1.1786556
1.1784676
1.1782242
1.1778267
1.1816769
1.1836462
1.1839582
1.1841969
1.1843187
1.1841495
1.1841381
1.1841355
1.1839828
1.1809259
1.1789312
1.1791048
1.1789976
1.1788863
1.178676
1.1769246
1.1770948
1.1772114
1.1772889
1.1770239
1.1750562
1.1755551
1.1755801
1.1755502
1.1754534
1.1736843
1.1739146
1.1740538
1.1741239
1.1742157
1.1677745
1.1655747
1.1652606
1.1649661
1.1644859
1.1651534
1.1652822
1.1653732
1.1655079
1.1666529
1.1696954
1.1690423
1.1689238
1.1688256
1.1687918
1.1691405
1.1692582
1.1693954
1.1695404
1.1703283
1.1704303
1.1696663
1.1695201
1.1693636
1.1691803
1.1696025
1.1698047
1.1699647
1.1701067
1.1708448
1.1712143
1.1705158
1.170383
1.1702315
1.1700354
1.1704059
1.1705877
1.1707265
1.1708474
1.1714892
1.1717234
1.171145
1.1710365
1.1709112
1.1707458
1.1710551
1.171204
1.1713161
1.1714126
1.1719284
1.1721064
1.1716492
1.1715637
1.1714639
1.1713307
1.1715757
1.1716946
1.1717832
1.1718588
1.1722625
1.1724011
1.1720449
1.1719782
1.1718995
1.1717934
1.1719871
1.1720818
1.1721517
1.1722106
1.1725247
1.1726358
1.1723585
1.1723065
1.1722442
1.1721594
1.1723131
1.1723893
1.1724448
1.1724909
1.172736
1.1728268
1.1726098
1.1725689
1.1725191
1.1724506
1.1725737
1.1726357
1.1726804
1.1727168
1.1729093
1.1729846
1.1728136
1.172781
1.1727407
1.1726844
1.1727844
1.1728357
1.1728721
1.1729013
1.1730536
1.173117
1.1729809
1.1729547
1.1729216
1.1728747
1.1729566
1.1729998
1.1730298
1.1730535
1.1731754
1.1732294
1.1731198
1.1730984
1.1730709
1.1730311
1.1730992
1.173136
1.1731612
1.1731807
1.1732794
1.1733258
1.1732365
1.1732188
1.1731954
1.1731612
1.1732183
1.1732502
1.1732717
1.1732879
1.1733689
1.1734092
1.1733354
1.1733206
1.1733005
1.1732706
1.1733191
1.1733471
1.1733658
1.1733795
1.1734469
1.1734822
1.1734205
1.1734078
1.1733903
1.1733639
1.1734056
1.1734305
1.1734469
1.1734587
1.1735154
1.1735467
1.1734944
1.1734835
1.173468
1.1734444
1.173481
1.1735033
1.1735179
1.173528
1.1735763
1.173605
1.1735597
1.1735502
1.1735364
1.1735151
1.1734979
1.1735208
1.173536
1.1735467
1.1736058
1.1735776
1.1735143
1.1735028
1.1734866
1.1734625
1.1734245
1.17345
1.1734672
1.1734796
1.1735481
1.173517
1.1734425
1.1734291
1.1734108
1.1733837
1.1733399
1.1733687
1.1733883
1.1734028
1.173484
1.1734488
1.17336
1.1733443
1.1733232
1.1732924
1.173241
1.173274
1.1732967
1.1733138
1.1734113
1.1733712
1.1732638
1.173245
1.1732204
1.1731849
1.1731237
1.1731621
1.1731889
1.1732095
1.1733283
1.1732822
1.1731502
1.1731275
1.1730982
1.1730566
1.172983
1.1730283
1.1730603
1.1730855
1.1732325
1.1731789
1.1730146
1.1729867
1.1729515
1.1729019
1.1728126
1.1728669
1.1729058
1.1729369
1.1731209
1.173058
1.1728514
1.1728166
1.1727735
1.1727138
1.1726045
1.1726704
1.1727182
1.1727571
1.1729896
1.172915
1.172653
1.1726093
1.1725562
1.1724833
1.1723488
1.1724295
1.1724887
1.1725378
1.1728333
1.1727436
1.1724101
1.1723549
1.1722887
1.1721991
1.1720326
1.1721321
1.1722061
1.1722682
1.1726446
1.1725351
1.1721104
1.1720405
1.1719578
1.1718471
1.1716407
1.1717636
1.171856
1.1719347
1.1724132
1.172277
1.1717388
1.1716505
1.1715474
1.1714112
1.1711568
1.1713072
1.1714217
1.1715205
1.1721234
1.1719486
1.1712767
1.1711668
1.1710403
1.1708751
1.1705666
1.170745
1.1708834
1.1710047
1.1717473
1.1715186
1.1707076
1.170575
1.1704255
1.1702375
1.1698757
1.1700767
1.170237
1.1703801
1.1712466
1.1708788
1.1699826
1.1698327
1.1696675
1.1694658
1.1690863
1.1692657
1.169425
1.1695768
1.1704877
1.1704377
1.1694947
1.1693425
1.1691994
1.1690781
1.1687496
1.1688018
1.1689065
1.1690351
1.1698002
1.1669441
1.1655308
1.1653793
1.16525
1.1650802
1.1651388
1.1655823
1.1658763
1.1661925
1.168784
1.1729503
1.17316
1.1731252
1.1730626
1.1728416
1.1699827
1.170441
1.170789
1.1711077
1.1737138
1.1787406
1.182476
1.1828889
1.1832235
1.1835134
1.1730343
1.1732534
1.1734127
1.173538
1.1742587
1.1714809
1.1705664
1.1704043
1.170269
1.1699579
1.170727
1.1708095
1.1708394
1.1708572
1.1707097
1.1661763
1.1636705
1.1633585
1.1630798
1.1627408
1.1687477
1.1687874
1.1688837
1.1689976
1.1695903
1.1704545
1.1696078
1.1694505
1.1693032
1.1691831
1.1691304
1.1693242
1.1694912
1.1696483
1.1704721
1.1708495
1.170062
1.1699091
1.1697372
1.1695198
1.1699495
1.1701627
1.1703274
1.1704719
1.1712209
1.1714964
1.1708062
1.1706738
1.1705216
1.1703223
1.1706687
1.170851
1.1709889
1.1711081
1.1717301
1.1719354
1.171382
1.171276
1.1711524
1.170988
1.1712744
1.1714214
1.1715311
1.1716247
1.1721132
1.1722687
1.1718397
1.1717573
1.1716604
1.1715297
1.171757
1.1718728
1.1719583
1.1720305
1.1724064
1.1725293
1.1722002
1.1721369
1.1720615
1.1719589
1.1721381
1.1722293
1.1722958
1.1723513
1.1726395
1.1727389
1.1724863
1.1724375
1.1723785
1.1722974
1.1724394
1.1725119
1.1725641
1.1726072
1.1728291
1.1729111
1.1727157
1.1726776
1.172631
1.1725661
1.1726796
1.1727381
1.1727797
1.1728135
1.172986
1.1730546
1.1729019
1.1728719
1.1728344
1.1727814
1.1728733
1.1729215
1.1729553
1.1729821
1.1731177
1.1731759
1.173055
1.1730309
1.1730003
1.1729563
1.1730316
1.173072
1.1730999
1.1731215
1.1732297
1.1732796
1.1731825
1.1731628
1.1731373
1.1731001
1.1731626
1.1731971
1.1732205
1.1732383
1.1733259
1.173369
1.1732898
1.1732735
1.1732519
1.1732198
1.1732725
1.1733024
1.1733225
1.1733374
1.1734093
1.173447
1.1733814
1.1733677
1.173349
1.1733209
1.1733659
1.1733923
1.1734097
1.1734223
1.1734823
1.1735155
1.1734605
1.1734488
1.1734324
1.1734075
1.1734464
1.1734699
1.1734853
1.1734961
1.1735468
1.1735763
1.1735297
1.1735196
1.1735051
1.1734827
1.1735166
1.1735379
1.1735515
1.1735609
1.1736044
1.1736072
1.1735647
1.1735555
1.1735421
1.1735212
1.1734877
1.1735096
1.1735238
1.1735336
1.1735791
1.1735497
1.1735005
1.1734899
1.1734748
1.1734517
1.1734135
1.1734379
1.1734539
1.1734653
1.1735187
1.1734857
1.1734276
1.1734153
1.1733983
1.1733724
1.1733284
1.1733558
1.173374
1.1733873
1.1734507
1.1734134
1.1733439
1.1733295
1.1733099
1.1732807
1.1732293
1.1732604
1.1732814
1.1732971
1.1733735
1.1733307
1.1732465
1.1732293
1.1732066
1.1731731
1.1731121
1.1731481
1.1731727
1.1731916
1.1732848
1.1732354
1.1731319
1.1731111
1.1730843
1.1730454
1.1729721
1.1730144
1.1730437
1.1730667
1.1731821
1.1731245
1.1729954
1.1729699
1.1729376
1.1728915
1.1728027
1.1728531
1.1728887
1.1729171
1.173062
1.1729939
1.172831
1.1727991
1.1727596
1.1727042
1.172595
1.1726563
1.1727001
1.1727359
1.1729198
1.1728385
1.1726305
1.1725901
1.1725411
1.1724732
1.1723372
1.1724129
1.1724678
1.1725133
1.1727493
1.1726508
1.1723827
1.1723311
1.1722693
1.1721848
1.1720135
1.1721083
1.172178
1.1722365
1.1725416
1.1724198
1.1720725
1.1720059
1.1719272
1.1718207
1.1716036
1.1717233
1.1718122
1.1718878
1.1722831
1.1721288
1.1716797
1.1715939
1.1714936
1.1713594
1.1710848
1.1712346
1.1713472
1.1714442
1.1719521
1.171748
1.1711774
1.1710685
1.1709429
1.1707771
1.1704401
1.1706216
1.1707602
1.1708811
1.1715149
1.1712407
1.1705511
1.1704188
1.1702683
1.1700732
1.1696448
1.1698469
1.1700053
1.170146
1.1708735
1.1704745
1.1697139
1.1695688
1.169413
1.1692264
1.1691959
1.16932
1.16946
1.169608
1.1704257
1.1697931
1.1692053
1.1690946
1.1690035
1.168967
1.1644703
1.1646759
1.1648128
1.1649772
1.1663944
1.1681292
1.1653508
1.1649727
1.1646299
1.1641345
1.1781702
1.1781149
1.178031
1.1778851
1.1761038
1.1719178
1.170267
1.1700711
1.1699279
1.1696666
1.1742872
1.1730573
1.1740802
1.1735066
1.1716696
1.1714504
1.1712339
1.1708792
1.175898
1.1760135
1.176034
1.1759969
1.1755582
1.1804512
1.1805681
1.180601
1.180532
1.1801198
1.1770617
1.1778293
1.1777911
1.1777218
1.1774843
1.1725993
1.1729381
1.1731255
1.1733517
1.1744791
1.177075
1.1771876
1.1771256
1.1769784
1.1767296
1.1773357
1.1806193
1.1765864
1.1775697
1.1738336
1.173855
1.1737997
1.1738334
1.1738018
1.1737955
1.1738071
1.1738013
1.1735152
1.1735364
1.1735502
1.1735598
1.1736052
1.1735768
1.1735283
1.1735181
1.1735035
1.1734812
1.1734449
1.1734685
1.1734839
1.1734949
1.1735473
1.1735162
1.1734592
1.1734475
1.173431
1.1734061
1.1733646
1.173391
1.1734085
1.1734211
1.173483
1.1734477
1.1733802
1.1733665
1.1733478
1.1733198
1.1732715
1.1733013
1.1733213
1.1733362
1.17341
1.1733697
1.1732886
1.1732724
1.1732508
1.173219
1.1731622
1.1731962
1.1732195
1.1732372
1.1733265
1.1732801
1.1731814
1.173162
1.1731368
1.1731001
1.1730323
1.1730719
1.1730993
1.1731207
1.17323
1.173176
1.1730543
1.1730308
1.1730008
1.1729578
1.1728763
1.1729229
1.1729558
1.1729819
1.1731175
1.1730541
1.1729025
1.1728734
1.1728373
1.1727863
1.172687
1.1727428
1.1727827
1.1728151
1.172985
1.1729096
1.1727187
1.1726826
1.1726383
1.172577
1.1724549
1.1725226
1.1725717
1.1726123
1.1728269
1.1727362
1.1724941
1.1724485
1.1723937
1.1723187
1.172167
1.1722503
1.1723115
1.1723627
1.1726359
1.1725249
1.1722161
1.1721583
1.1720897
1.1719969
1.1718063
1.1719098
1.1719867
1.172052
1.1724011
1.1722626
1.171868
1.1717942
1.1717079
1.1715922
1.1713519
1.171481
1.1715779
1.1716611
1.1721064
1.1719283
1.1714276
1.1713339
1.1712254
1.1710817
1.1707789
1.1709379
1.1710587
1.1711635
1.1717231
1.1714893
1.1708706
1.1707543
1.1706211
1.170447
1.1700837
1.1702707
1.1704153
1.1705424
1.1712117
1.1708337
1.1701301
1.1699951
1.1698436
1.1696525
1.1692703
1.1694379
1.1695843
1.1697229
1.1704518
1.1704193
1.169686
1.1695483
1.1694207
1.1693238
1.168644
1.1686718
1.1687584
1.1688654
1.1694211
1.1661864
1.1640778
1.1638451
1.1636535
1.1634129
1.1704433
1.1705831
1.170622
1.1706663
1.1706697
1.1705562
1.1687486
1.1685033
1.1682703
1.167818
1.1747526
1.1750146
1.175183
1.1752628
1.1756805
1.17773
1.1777046
1.177708
1.1776459
1.1749699
1.1752085
1.175349
1.1755499
1.1758787
1.1761007
1.1764297
1.176251
1.1761084
1.1757818
1.1859693
1.1856622
1.1853959
1.1849987
1.1814934
1.1803944
1.1824105
1.1825281
1.18258
1.1826194
1.1747376
1.175
1.1751698
1.1752512
1.1756765
1.1705517
1.1687433
1.1684984
1.1682657
1.1678136
1.1704409
1.1705806
1.1706191
1.1706629
1.170665
1.1661804
1.1640734
1.163841
1.1636501
1.1634101
1.1686418
1.1686689
1.1687551
1.1688618
1.1694154
1.1704133
1.1696819
1.1695446
1.1694175
1.1693212
1.1692668
1.169434
1.1695802
1.1697186
1.1704462
1.1708282
1.1701255
1.1699906
1.1698394
1.1696486
1.1700794
1.1702662
1.1704107
1.1705376
1.1712065
1.1714843
1.1708659
1.1707496
1.1706165
1.1704426
1.1707742
1.1709332
1.1710539
1.1711587
1.1717183
1.1719238
1.1714228
1.1713291
1.1712206
1.1710769
1.171347
1.1714762
1.1715731
1.1716564
1.172102
1.1722584
1.1718634
1.1717895
1.1717031
1.1715873
1.1718014
1.171905
1.1719821
1.1720475
1.1723971
1.1725211
1.1722116
1.1721536
1.172085
1.171992
1.172162
1.1722455
1.1723069
1.1723583
1.1726323
1.1727326
1.1724898
1.1724441
1.1723891
1.1723139
1.1724501
1.172518
1.1725673
1.172608
1.1728236
1.1729063
1.1727146
1.1726782
1.1726338
1.1725721
1.1726824
1.1727385
1.1727786
1.1728111
1.1729819
1.1730511
1.1728986
1.1728694
1.172833
1.1727818
1.1728719
1.1729189
1.1729519
1.1729782
1.1731147
1.1731733
1.1730508
1.1730271
1.1729969
1.1729537
1.1730283
1.1730681
1.1730958
1.1731172
1.1732274
1.1732775
1.1731781
1.1731585
1.1731331
1.1730962
1.1731585
1.1731928
1.1732163
1.1732341
1.173324
1.1733674
1.1732856
1.1732693
1.1732476
1.1732155
1.1732682
1.1732982
1.1733184
1.1733334
1.1734078
1.1734456
1.1733776
1.1733637
1.1733449
1.1733167
1.1733617
1.1733882
1.1734059
1.1734186
1.173481
1.1735142
1.1734569
1.173445
1.1734285
1.1734034
1.1734424
1.1734661
1.1734817
1.1734927
1.1735455
1.1735751
1.1735263
1.173516
1.1735013
1.1734787
1.1735132
1.1735346
1.1735484
1.173558
1.1736032
1.17363
1.1735879
1.173579
1.1735659
1.1735455
1.1736064
1.1735633
1.1735539
1.1735404
1.1735193
1.1734858
1.1735079
1.1735223
1.1735323
1.1735785
1.1735492
1.173499
1.1734882
1.173473
1.1734497
1.1734112
1.1734359
1.1734521
1.1734637
1.1735181
1.1734852
1.1734258
1.1734133
1.173396
1.1733699
1.1733254
1.1733532
1.1733717
1.1733852
1.1734501
1.1734126
1.1733415
1.1733267
1.1733068
1.1732771
1.1732249
1.1732567
1.1732781
1.1732942
1.1733726
1.1733296
1.173243
1.1732254
1.1732021
1.173168
1.1731058
1.1731426
1.1731679
1.1731874
1.1732835
1.1732338
1.1731267
1.1731052
1.1730776
1.1730376
1.1729626
1.1730062
1.1730366
1.1730605
1.1731802
1.1731223
1.1729878
1.1729612
1.1729276
1.1728799
1.1727884
1.1728409
1.1728781
1.1729079
1.1730593
1.1729909
1.1728196
1.1727861
1.1727448
1.1726866
1.1725735
1.172638
1.1726843
1.1727221
1.1729162
1.1728344
1.1726137
1.172571
1.172519
1.1724469
1.1723053
1.172386
1.1724446
1.1724931
1.1727444
1.1726453
1.1723585
1.1723032
1.1722369
1.1721462
1.1719671
1.1720694
1.1721445
1.1722075
1.1725352
1.1724128
1.1720381
1.1719662
1.171881
1.1717655
1.1715386
1.1716688
1.1717655
1.1718475
1.1722753
1.1721203
1.1716329
1.1715395
1.1714301
1.1712835
1.1709977
1.1711617
1.1712848
1.1713906
1.1719428
1.171738
1.1711171
1.1709983
1.1708607
1.1706789
1.1703334
1.1705321
1.1706838
1.1708158
1.1715046
1.1712295
1.1704821
1.1703381
1.1701739
1.1699616
1.1695337
1.16975
1.1699211
1.1700735
1.1708584
1.1704817
1.169661
1.1695047
1.1693388
1.1691463
1.1692017
1.1693202
1.1694663
1.1696225
1.1704646
1.1696005
1.1690144
1.1689022
1.1688077
1.1687699
1.1627745
1.1631091
1.1633846
1.1636941
1.1661886
1.1707254
1.1708864
1.1708716
1.1708459
1.1707698
1.1699985
1.1703037
1.1704344
1.1705933
1.1714934
1.1742725
1.1735693
1.1734469
1.1732913
1.1730861
1.1835809
1.1832791
1.1829367
1.1825171
1.1787552
1.1737269
1.1711616
1.1708498
1.1705103
1.1700648
1.1755204
1.1756041
1.1756244
1.1755916
1.175072
1.1740932
1.174078
1.1740344
1.1739574
1.1737572
1.1697383
1.1701331
1.1703487
1.1706099
1.1726434
1.1719175
1.1702566
1.1700605
1.1699182
1.1696596
1.1713572
1.1716201
1.1717504
1.1718819
1.1729655
1.1734973
1.1716121
1.1713849
1.1711604
1.1707962
1.1758212
1.1759497
1.1759805
1.1759519
1.1755495
1.1707705
1.1690288
1.1687421
1.1684305
1.1679271
1.1701907
1.1703542
1.1704232
1.1704911
1.1706855
1.1660713
1.16391
1.163671
1.1634712
1.1631897
1.1686285
1.1686706
1.1687681
1.1688789
1.1694279
1.170419
1.1696705
1.1695284
1.1693961
1.1692923
1.1692416
1.1694142
1.1695642
1.1697055
1.1704426
1.170829
1.1701207
1.1699841
1.1698304
1.1696363
1.1700731
1.1702619
1.1704078
1.170536
1.1712082
1.1714854
1.1708649
1.1707479
1.1706138
1.1704386
1.1707718
1.1709315
1.1710528
1.1711581
1.1717191
1.1719246
1.1714226
1.1713286
1.1712197
1.1710755
1.1713463
1.1714758
1.171573
1.1716565
1.1721029
1.1722595
1.1718637
1.1717897
1.171703
1.171587
1.1718014
1.1719053
1.1719825
1.172048
1.1723983
1.1725224
1.1722123
1.1721543
1.1720854
1.1719923
1.1721625
1.1722462
1.1723076
1.1723591
1.1726336
1.1727341
1.1724908
1.172445
1.1723899
1.1723146
1.1724508
1.1725189
1.1725683
1.172609
1.172825
1.1729078
1.1727158
1.1726794
1.1726349
1.1725732
1.1726833
1.1727395
1.1727796
1.1728122
1.1729832
1.1730524
1.1728997
1.1728705
1.1728341
1.1727828
1.172873
1.17292
1.172953
1.1729793
1.1731159
1.1731744
1.1730519
1.1730282
1.172998
1.1729547
1.1730292
1.1730691
1.1730968
1.1731183
1.1732285
1.1732786
1.1731792
1.1731596
1.1731342
1.1730973
1.1731596
1.1731939
1.1732173
1.1732351
1.1733251
1.1733684
1.1732868
1.1732704
1.1732487
1.1732167
1.1732692
1.1732992
1.1733193
1.1733343
1.1734087
1.1734465
1.1733785
1.1733647
1.1733459
1.1733177
1.1733627
1.1733892
1.1734068
1.1734195
1.1734818
1.1735151
1.1734578
1.173446
1.1734295
1.1734044
1.1734434
1.1734671
1.1734826
1.1734936
1.1735463
1.1735758
1.1735272
1.1735169
1.1735023
1.1734798
1.1735141
1.1735355
1.1735493
1.1735588
1.1736038
1.1736303
1.1735882
1.1735792
1.1735662
1.1735458
1.1736057
1.1735605
1.1735509
1.1735372
1.1735159
1.1734819
1.1735042
1.1735187
1.1735289
1.1735772
1.1735476
1.1734953
1.1734844
1.1734689
1.1734454
1.1734066
1.1734315
1.1734479
1.1734597
1.1735164
1.1734833
1.1734215
1.1734088
1.1733913
1.1733649
1.1733202
1.1733482
1.1733668
1.1733806
1.173448
1.1734103
1.1733365
1.1733216
1.1733015
1.1732717
1.1732194
1.1732512
1.1732728
1.173289
1.17337
1.1733268
1.1732376
1.1732199
1.1731966
1.1731625
1.1731004
1.1731371
1.1731623
1.1731817
1.1732804
1.1732304
1.173121
1.1730996
1.1730722
1.1730325
1.1729583
1.1730012
1.1730312
1.1730548
1.1731764
1.173118
1.1729824
1.1729562
1.1729234
1.1728767
1.1727868
1.1728377
1.1728739
1.1729029
1.1730545
1.1729855
1.1728157
1.1727833
1.1727434
1.1726876
1.1725778
1.1726391
1.1726833
1.1727194
1.1729101
1.1728275
1.1726131
1.1725726
1.1725235
1.1724559
1.1723203
1.1723951
1.1724497
1.1724952
1.1727367
1.1726365
1.172364
1.1723129
1.1722519
1.1721688
1.1719994
1.1720918
1.1721601
1.1722177
1.1725254
1.1724017
1.1720541
1.1719891
1.1719125
1.1718094
1.1715962
1.1717111
1.171797
1.1718704
1.172263
1.1721069
1.1716643
1.1715815
1.1714852
1.1713569
1.1710879
1.1712306
1.1713384
1.1714315
1.1719287
1.1717238
1.1711683
1.1710641
1.1709441
1.1707862
1.1704556
1.1706286
1.170761
1.1708766
1.1714903
1.1712139
1.1705497
1.1704232
1.1702792
1.1700931
1.16966
1.1698508
1.170002
1.1701366
1.1708348
1.1704491
1.1697238
1.1695849
1.169438
1.1692697
1.1693256
1.1694244
1.1695534
1.1696926
1.1704264
1.1694359
1.168904
1.1687966
1.1687037
1.1686682
1.1632352
1.1635083
1.1637029
1.1639377
1.1660787
1.1706956
1.1705251
1.1704624
1.1703996
1.1702434
1.1679951
1.1684858
1.1687887
1.1690685
1.1707789
1.1721453
1.1712228
1.1710996
1.1709647
1.1707205
1.1678738
1.1681659
1.1683407
1.1685321
1.169841
1.1667031
1.1647881
1.1645888
1.1644224
1.1642002
1.1686095
1.1686717
1.1687805
1.1689067
1.1697001
1.170476
1.1695352
1.1693834
1.1692385
1.1691197
1.1690725
1.169254
1.1694151
1.1695679
1.1704888
1.1708711
1.1699671
1.1698161
1.1696486
1.1694422
1.1698585
1.1700644
1.1702273
1.1703718
1.1712458
1.1715199
1.170701
1.1705669
1.1704149
1.1702226
1.1705532
1.1707355
1.1708762
1.170999
1.1717495
1.1719516
1.171272
1.1711606
1.1710319
1.1708632
1.1711464
1.1713
1.1714164
1.1715166
1.1721269
1.1722806
1.1717357
1.1716461
1.1715412
1.1714022
1.1716332
1.1717585
1.1718525
1.1719324
1.1724171
1.172539
1.1721089
1.1720379
1.1719538
1.171841
1.1720277
1.1721291
1.1722043
1.1722674
1.1726486
1.1727475
1.1724099
1.1723538
1.1722866
1.1721954
1.1723461
1.1724282
1.1724884
1.1725381
1.1728371
1.1729187
1.1726538
1.1726096
1.1725556
1.1724816
1.1726037
1.1726705
1.1727189
1.1727583
1.1729932
1.1730616
1.172853
1.1728178
1.1727742
1.1727137
1.1728131
1.1728681
1.1729074
1.1729388
1.1731243
1.1731822
1.1730168
1.1729886
1.1729531
1.172903
1.1729845
1.1730303
1.1730625
1.1730878
1.1732357
1.1732852
1.1731527
1.1731299
1.1731005
1.1730584
1.1731258
1.1731645
1.1731914
1.173212
1.1733312
1.173374
1.1732664
1.1732476
1.1732229
1.1731871
1.1732434
1.1732766
1.1732993
1.1733165
1.173414
1.1734513
1.1733626
1.1733469
1.1733258
1.1732948
1.1733423
1.1733713
1.1733909
1.1734053
1.1734863
1.1735192
1.173445
1.1734316
1.1734133
1.1733861
1.1734267
1.1734523
1.1734695
1.1734818
1.1735501
1.1735795
1.1735165
1.173505
1.1734889
1.1734647
1.1735
1.1735229
1.1735381
1.1735488
1.1736078
1.1736071
1.1735482
1.1735375
1.1735223
1.1734995
1.1734643
1.1734884
1.1735044
1.1735159
1.1735789
1.1735495
1.1734813
1.1734689
1.1734518
1.1734263
1.1733858
1.1734129
1.1734311
1.1734445
1.1735186
1.1734856
1.1734048
1.1733904
1.1733709
1.1733421
1.1732948
1.1733256
1.1733465
1.1733622
1.1734506
1.1734131
1.1733161
1.173299
1.1732764
1.1732434
1.1731876
1.173223
1.1732475
1.1732662
1.1733731
1.1733302
1.1732119
1.1731914
1.1731647
1.1731264
1.1730595
1.173101
1.1731301
1.1731527
1.1732841
1.1732345
1.1730881
1.1730631
1.1730312
1.172986
1.1729051
1.1729545
1.1729896
1.1730174
1.173181
1.173123
1.1729397
1.1729087
1.1728699
1.1728158
1.1727171
1.1727767
1.1728196
1.1728543
1.1730602
1.1729918
1.1727601
1.1727212
1.1726736
1.1726079
1.1724867
1.1725594
1.1726124
1.172656
1.1729172
1.1728355
1.1725409
1.1724919
1.1724327
1.1723521
1.1722026
1.172292
1.1723581
1.1724132
1.1727458
1.1726469
1.1722713
1.1722093
1.1721354
1.1720359
1.1718503
1.171961
1.1720436
1.1721134
1.1725373
1.1724155
1.1719375
1.1718589
1.1717665
1.1716435
1.1714134
1.1715499
1.171653
1.1717413
1.172279
1.1721255
1.1715224
1.1714236
1.1713089
1.1711579
1.1708744
1.1710406
1.1711675
1.1712777
1.1719503
1.1717488
1.1710041
1.1708823
1.170743
1.1705625
1.170229
1.1704203
1.1705713
1.1707047
1.1715197
1.1712464
1.1703721
1.1702277
1.1700652
1.1698601
1.1694324
1.1696423
1.1698113
1.1699633
1.1708743
1.1704996
1.1695606
1.1694053
1.1692405
1.1690502
1.1690479
1.1691836
1.1693347
1.1694908
1.1704706
1.169691
1.1688526
1.1687231
1.1686082
1.168535
1.1647994
1.1649655
1.1650883
1.1652453
1.1667658
1.1692969
1.1667939
1.166459
1.166126
1.1656805
1.1718345
1.1719922
1.1720339
1.1720504
1.1722645
1.173451
1.1712749
1.1710374
1.1708316
1.1704438
1.1774569
1.1778227
1.1780737
1.1782718
1.1783316