/*--------------------------------*- C++ -*----------------------------------*\
  =========                 |
  \\      /  F ield         | OpenFOAM: The Open Source CFD Toolbox
   \\    /   O peration     | Website:  https://openfoam.org
    \\  /    A nd           | Version:  7
     \\/     M anipulation  |
\*---------------------------------------------------------------------------*/
FoamFile
{
    version     2.0;
    format      ascii;
    class       volVectorField;
    location    "340";
    object      U;
}
// * * * * * * * * * * * * * * * * * * * * * * * * * * * * * * * * * * * * * //

dimensions      [0 1 -1 0 0 0 0];

internalField   nonuniform List<vector> 
24789
(
(96.874764 -0.00092501247 -0.0014426123)
(105.794 -0.0017465 -0.0016986798)
(109.10262 -0.0027326286 -0.002185127)
(110.92943 -0.0033998131 -0.0024934229)
(117.81659 -0.0040695167 -0.0020796881)
(117.81871 -0.0042459066 -0.0022766979)
(110.94883 -0.0034871511 -0.0025698838)
(109.12787 -0.0028070107 -0.002245121)
(105.83128 -0.0018089458 -0.0017545562)
(96.938007 -0.00097761172 -0.0014898503)
(97.001988 -0.001022684 -0.0015524968)
(105.86889 -0.0018762605 -0.0018281159)
(109.15342 -0.0028887545 -0.002324673)
(110.96856 -0.0035838873 -0.0026590852)
(117.82145 -0.00452281 -0.0025076124)
(117.82512 -0.0048912212 -0.0028229988)
(110.98933 -0.0036558158 -0.002783299)
(109.18002 -0.002926483 -0.0024338613)
(105.90769 -0.0018823249 -0.0019279731)
(97.067376 -0.0009953503 -0.0016463445)
(97.134463 -0.00098510186 -0.0017254684)
(105.94777 -0.0019061959 -0.0020150106)
(109.20785 -0.0029845832 -0.0025394497)
(111.01128 -0.003751281 -0.0029126826)
(117.82993 -0.005339824 -0.0031874746)
(117.83609 -0.0058860294 -0.0036177117)
(111.03469 -0.0038641858 -0.0030812118)
(109.23715 -0.0030515952 -0.0026745414)
(105.98948 -0.0019343768 -0.0021234042)
(97.203468 -0.00097255419 -0.0018202808)
(97.274801 -0.00095053266 -0.0019354774)
(106.03311 -0.0019690905 -0.0022490087)
(109.26828 -0.0031445199 -0.0028235337)
(111.05989 -0.0040187524 -0.0032651867)
(117.84388 -0.0065584905 -0.0041318126)
(117.85353 -0.0073611777 -0.0047405216)
(111.08726 -0.0042066539 -0.0035005679)
(109.30163 -0.0032552946 -0.0030146934)
(106.07912 -0.0020088754 -0.0024111898)
(97.348815 -0.00092551897 -0.0020788625)
(97.42601 -0.00092132 -0.0022347065)
(106.12791 -0.0020780783 -0.0026022914)
(109.33762 -0.0034064802 -0.0032502094)
(111.11718 -0.0044483911 -0.0037903251)
(117.86532 -0.0083142244 -0.0054612447)
(117.87959 -0.009416501 -0.0062948239)
(111.15024 -0.0047346999 -0.0040694061)
(109.37684 -0.0035881615 -0.0034554705)
(106.18014 -0.0021660173 -0.0027451314)
(97.506958 -0.00093336601 -0.0023390232)
(97.592386 -0.00091273182 -0.0025345382)
(106.23649 -0.0022526101 -0.0029760411)
(109.42 -0.0037932903 -0.0037475975)
(111.18707 -0.0050650284 -0.0044419111)
(117.89672 -0.010690205 -0.0072620787)
(117.91708 -0.012153693 -0.008379954)
(111.22829 -0.0054289133 -0.0049110681)
(109.46773 -0.0040038184 -0.0041263987)
(106.29766 -0.0023181436 -0.0032880334)
(97.682902 -0.00084619026 -0.0028090688)
(97.779334 -0.00073875252 -0.0031642355)
(106.36444 -0.0023699002 -0.0036877541)
(109.52083 -0.0042287535 -0.0045999049)
(111.27463 -0.0058365929 -0.0054840108)
(117.94109 -0.013843313 -0.0096642943)
(117.96924 -0.015795373 -0.011141192)
(111.32693 -0.0062916199 -0.0061759396)
(109.58018 -0.0044654068 -0.0051804321)
(106.43776 -0.0024032028 -0.0041852843)
(97.882555 -0.00058572069 -0.0036043167)
(97.993596 -0.00039326354 -0.0041394837)
(106.51865 -0.0024178406 -0.0047922478)
(109.64678 -0.0047194664 -0.0058839222)
(111.38612 -0.0068019992 -0.0070033034)
(118.0021 -0.018047352 -0.012837819)
(118.04032 -0.020656773 -0.014792841)
(111.45325 -0.0073830799 -0.0079826364)
(109.72174 -0.0049982989 -0.0067239939)
(106.60828 -0.0024133062 -0.0055198669)
(98.113599 -0.00015637963 -0.0047893773)
(98.243976 0.00014787532 -0.0055752897)
(106.70802 -0.002401343 -0.0063866411)
(109.8064 -0.0053233457 -0.0077178863)
(111.52958 -0.0080648115 -0.0091346046)
(118.08469 -0.023708121 -0.017058203)
(118.13615 -0.02730643 -0.019704809)
(111.61666 -0.0088748064 -0.010492223)
(109.90241 -0.0057042854 -0.0088898077)
(106.81964 -0.0023774514 -0.0074108945)
(98.386501 0.00051617093 -0.006508957)
(98.54348 0.00094532371 -0.0076765424)
(106.94535 -0.0023831748 -0.0086927336)
(110.01186 -0.006205555 -0.01034077)
(111.71643 -0.0098993726 -0.012156328)
(118.19584 -0.031645444 -0.022840504)
(118.26514 -0.036926658 -0.026570518)
(111.83146 -0.011198478 -0.014117941)
(110.1375 -0.00685971 -0.012040146)
(107.08809 -0.0024234131 -0.010182022)
(98.717923 0.0014372883 -0.0090360269)
(98.913869 0.0019863424 -0.010660073)
(107.25178 -0.0025377431 -0.011968975)
(110.283 -0.007740671 -0.014091467)
(111.96512 -0.012878338 -0.016495308)
(118.34583 -0.043408795 -0.031072662)
(118.44009 -0.051455629 -0.036552306)
(112.1218 -0.015088896 -0.019380151)
(110.4531 -0.0089514797 -0.016561175)
(107.44153 -0.0027836363 -0.014096916)
(99.136648 0.0025707511 -0.012575012)
(99.39334 0.0031389493 -0.01479704)
(107.66423 -0.0032484918 -0.016629159)
(110.65419 -0.010636095 -0.019551106)
(112.30733 -0.018033498 -0.022909314)
(118.55069 -0.061564014 -0.043290828)
(118.6812 -0.074352257 -0.051703814)
(112.52948 -0.021961072 -0.02727096)
(110.89475 -0.012970755 -0.023189242)
(107.92901 -0.0040462043 -0.019626846)
(99.693398 0.0035983041 -0.017295852)
(100.04963 0.0038238201 -0.02003238)
(108.24825 -0.0053503689 -0.023153394)
(111.18627 -0.016180837 -0.027645759)
(112.79874 -0.027160276 -0.032738444)
(118.8365 -0.090506194 -0.062511875)
(119.02282 -0.11076219 -0.076639138)
(113.12842 -0.034163008 -0.039390708)
(111.54326 -0.020777107 -0.032808035)
(108.6377 -0.0076670838 -0.026900793)
(100.47885 0.003425437 -0.022611784)
(101.00122 0.001353769 -0.023915665)
(109.11679 -0.011958605 -0.030059273)
(111.98361 -0.027751201 -0.038292798)
(113.53471 -0.04398289 -0.047190436)
(119.24678 -0.13568025 -0.095080958)
(119.52087 -0.16517984 -0.11805753)
(114.04365 -0.057895874 -0.056371299)
(112.53579 -0.038245141 -0.043966345)
(109.71637 -0.019175637 -0.03192375)
(101.64709 -0.0043380083 -0.022581464)
(102.47121 -0.012020026 -0.019436672)
(110.4837 -0.029128362 -0.034084242)
(113.24236 -0.051650922 -0.050850672)
(114.69505 -0.07550816 -0.067980154)
(119.87285 -0.19924836 -0.14544523)
(120.30753 -0.25067168 -0.18543462)
(115.50015 -0.099697464 -0.083105416)
(114.11522 -0.069415618 -0.059183385)
(111.43063 -0.042966102 -0.037073761)
(103.50658 -0.01998526 -0.013361296)
(104.69434 -0.02494166 -0.0062957357)
(112.57324 -0.067702204 -0.0430837)
(115.18671 -0.10661649 -0.0751984)
(116.48676 -0.15496617 -0.11023091)
(120.79187 -0.37980993 -0.2616888)
(121.76599 -0.61658754 -0.34622975)
(118.20823 -0.24279731 -0.16037407)
(117.04435 -0.15660657 -0.11907533)
(114.53219 -0.080670162 -0.065944888)
(106.40443 -0.019104767 -0.066225573)
(110.2263 -0.18555065 -0.43326425)
(118.2118 0.014046081 -0.075326531)
(120.49371 -0.16015073 -0.096562844)
(121.39235 -0.27449084 -0.13440799)
(123.49392 -1.0633529 -0.52679429)
(124.2294 -2.9187568 -1.9173769)
(122.53281 -3.3883649 -2.1008212)
(121.74625 -3.4224366 -2.0908529)
(119.70689 -3.3739372 -2.0148397)
(112.34316 -3.4179698 -2.0772553)
(111.92633 -3.7479682 -4.4575354)
(119.17825 -3.6744294 -4.4614213)
(121.21 -3.8735715 -4.4534136)
(122.02508 -3.9414499 -4.3147491)
(124.01348 -3.9577325 -3.1989203)
(123.91029 -5.3318136 -4.2641491)
(122.38391 -6.0382573 -5.0840358)
(121.6603 -6.0697993 -5.1555978)
(119.74395 -5.9522725 -5.107249)
(112.61485 -5.903381 -5.0806072)
(112.31612 -7.8216768 -5.8970049)
(118.90887 -8.0299187 -5.8389375)
(120.7553 -8.1363789 -5.8533705)
(121.48582 -8.0946072 -5.785547)
(123.07563 -7.083652 -4.8333709)
(124.04988 -5.7856559 -3.2463194)
(121.84755 -6.4020886 -4.0416411)
(121.05778 -6.4248862 -4.155968)
(119.09732 -6.2607993 -4.2140349)
(112.07819 -6.4385045 -4.4264641)
(111.55829 -5.6439996 -2.2780013)
(118.73663 -5.7717011 -2.2539833)
(120.77089 -5.7952335 -2.2643553)
(121.61348 -5.6647444 -2.2306131)
(124.03031 -4.5693488 -2.0590259)
(124.11495 -2.7208115 -1.262579)
(121.94687 -2.5695608 -1.0424857)
(121.09891 -2.5068505 -0.99712992)
(118.92895 -2.3551227 -0.92818403)
(111.22505 -2.8178372 -1.1448593)
(108.20724 -0.057887861 -0.14334479)
(116.47172 0.041909139 -0.075527823)
(118.95246 -0.095646118 -0.13642886)
(120.00567 -0.18736919 -0.18907033)
(123.23188 -1.0471055 -0.64554602)
(121.65281 -0.62827048 -0.37853948)
(117.12062 -0.21623401 -0.14564389)
(115.86604 -0.13880788 -0.10183503)
(113.22624 -0.079693119 -0.059382722)
(104.99155 -0.029014282 0.002791882)
(103.36048 -0.023351747 -0.014600478)
(111.41476 -0.059287244 -0.04644503)
(114.1294 -0.098222624 -0.072080526)
(115.49237 -0.14770493 -0.097604642)
(120.74947 -0.40406218 -0.21864219)
(120.31094 -0.27171182 -0.13720086)
(114.51164 -0.10368722 -0.066273255)
(113.07028 -0.070736605 -0.051559895)
(110.28883 -0.040665715 -0.036391087)
(102.19439 -0.017065825 -0.020573601)
(101.17129 -0.013403403 -0.016618422)
(109.33893 -0.032260428 -0.026075184)
(112.18845 -0.056709601 -0.036781522)
(113.69444 -0.082258105 -0.047696636)
(119.90815 -0.2200476 -0.10777362)
(119.57485 -0.18285373 -0.091311165)
(113.02374 -0.064721974 -0.036766153)
(111.46547 -0.044565745 -0.027935488)
(108.56113 -0.025384054 -0.019761304)
(100.34816 -0.010194321 -0.012908212)
(99.696804 -0.0077838809 -0.010627198)
(107.94745 -0.019767705 -0.01594394)
(110.89547 -0.034582017 -0.022414852)
(112.49523 -0.050336932 -0.029497895)
(119.31426 -0.14885793 -0.076071729)
(119.09982 -0.12150763 -0.062892594)
(112.07015 -0.039951501 -0.024402228)
(110.43709 -0.027370905 -0.018759398)
(107.45223 -0.015648545 -0.013585288)
(99.163594 -0.0061680739 -0.0092759974)
(98.719184 -0.0050112772 -0.0081758502)
(107.04468 -0.012620022 -0.011698458)
(110.06138 -0.022123043 -0.015874387)
(111.72169 -0.032344081 -0.020406622)
(118.91958 -0.099814313 -0.052103066)
(118.76836 -0.082644123 -0.043302838)
(111.43404 -0.026617679 -0.017096481)
(109.75106 -0.018227082 -0.013419743)
(106.70643 -0.010410744 -0.0100135)
(98.345354 -0.0041968672 -0.0071159657)
(98.026899 -0.0036383924 -0.0061065193)
(106.4228 -0.0087946828 -0.0085111714)
(109.49236 -0.015306984 -0.011326036)
(111.19451 -0.022262929 -0.014345541)
(118.64076 -0.069007781 -0.036152612)
(118.53234 -0.058183718 -0.030367734)
(110.99292 -0.018952983 -0.012079767)
(109.27429 -0.01311714 -0.0095634012)
(106.18209 -0.0076105951 -0.0072030688)
(97.751989 -0.0032648409 -0.005193083)
(97.511681 -0.0030137261 -0.0043758912)
(105.97538 -0.0067336046 -0.0060674473)
(109.08844 -0.011456883 -0.0080759983)
(110.8215 -0.016408564 -0.010205646)
(118.43972 -0.049503327 -0.025671663)
(118.36029 -0.042450511 -0.021840325)
(110.67439 -0.014415941 -0.0086512351)
(108.92848 -0.010172605 -0.0068212773)
(105.79597 -0.006070748 -0.0050855274)
(97.299214 -0.0028417241 -0.0036485822)
(97.109371 -0.0027293911 -0.002998626)
(105.63871 -0.0055643222 -0.0042362727)
(108.78959 -0.009163478 -0.0057593247)
(110.54711 -0.012830632 -0.007352655)
(118.29197 -0.036651048 -0.018677955)
(118.23307 -0.031811086 -0.016039965)
(110.43623 -0.011514888 -0.0063029906)
(108.66809 -0.0083208316 -0.0049063057)
(105.49971 -0.0051336742 -0.0035576025)
(96.938186 -0.0026200236 -0.0024821556)
(96.782618 -0.0025487098 -0.0019899676)
(105.37597 -0.0047914772 -0.0029465968)
(108.56116 -0.0076309402 -0.0041586784)
(110.33911 -0.010426148 -0.0053952448)
(118.18224 -0.027725738 -0.013797491)
(118.13838 -0.024232093 -0.011893505)
(110.25373 -0.0094812056 -0.0046733723)
(108.46663 -0.007023601 -0.0035794211)
(105.26521 -0.0044796122 -0.0024889768)
(96.640322 -0.0024664928 -0.0016371029)
(96.509467 -0.0023847723 -0.0013536583)
(105.16561 -0.0041977784 -0.0021198167)
(108.38278 -0.0064877453 -0.0031056363)
(110.17845 -0.0086548763 -0.0040750195)
(118.10057 -0.021212222 -0.010261247)
(118.06806 -0.018582867 -0.0088560324)
(110.11195 -0.0079282853 -0.0035794795)
(108.30819 -0.0060124152 -0.0027192589)
(105.07571 -0.003942989 -0.0018246928)
(96.38854 -0.0023040538 -0.0011307969)
(96.276316 -0.0022238152 -0.00095318951)
(104.99421 -0.0037109924 -0.001583598)
(108.24165 -0.0055897798 -0.0023973144)
(110.05308 -0.0072878263 -0.0031612288)
(118.04021 -0.016280998 -0.007634712)
(118.01646 -0.014265747 -0.0065715495)
(110.00084 -0.006721239 -0.0028215962)
(108.18209 -0.0052094791 -0.0021453404)
(104.92006 -0.0034938527 -0.0014085764)
(96.171694 -0.0021342142 -0.00084252755)
(96.073688 -0.0020630347 -0.00071877499)
(104.85218 -0.0033148989 -0.001233488)
(108.12853 -0.0048902524 -0.0019073217)
(109.95429 -0.0062407991 -0.0025114831)
(117.99634 -0.012504429 -0.0056505828)
(117.97942 -0.010950466 -0.0048547674)
(109.91267 -0.0058111865 -0.0022741243)
(108.08012 -0.004598441 -0.0017317061)
(104.78975 -0.0031403476 -0.0011166749)
(95.981429 -0.0019778337 -0.00065760695)
(95.894207 -0.0019287271 -0.00054022119)
(104.73195 -0.0030217729 -0.00094606537)
(108.03611 -0.0043812669 -0.0015159857)
(109.87524 -0.0054709035 -0.0020184534)
(117.96533 -0.0095870719 -0.0041702)
(117.95369 -0.0085048246 -0.0036071918)
(109.84124 -0.00521438 -0.0017874434)
(107.99565 -0.0042180053 -0.0013210052)
(104.67798 -0.0029372758 -0.00078642036)
(95.811173 -0.0018993501 -0.00042490624)
(95.73161 -0.0018971999 -0.00028509659)
(104.62702 -0.0028789141 -0.00063687327)
(107.95806 -0.0040905702 -0.0011553582)
(109.80999 -0.0050106674 -0.0015924996)
(117.94418 -0.0075763171 -0.0031354562)
(117.93656 -0.0067442663 -0.0027347584)
(109.7811 -0.0048246077 -0.0014549574)
(107.92288 -0.00396985 -0.0010404957)
(104.57868 -0.0028168977 -0.00053204606)
(95.654994 -0.0018859946 -0.00017802251)
(95.580948 -0.0018687848 -9.9779568e-05)
(104.53244 -0.0027575526 -0.00045576804)
(107.88969 -0.0038636292 -0.00095499245)
(109.75412 -0.0046649709 -0.0013504369)
(117.93054 -0.0060564207 -0.0023990055)
(117.92589 -0.0054956416 -0.0021126769)
(109.72873 -0.0045319779 -0.0012655244)
(107.85811 -0.0037724139 -0.00088767058)
(104.488 -0.0027038343 -0.00039759075)
(95.509042 -0.0018489916 -4.0915835e-05)
(95.438977 -0.0018270462 2.136305e-05)
(104.44493 -0.0026518431 -0.00033494798)
(107.82781 -0.003689207 -0.00081753722)
(109.70457 -0.004414801 -0.0011804612)
(117.92237 -0.0050341217 -0.0018610491)
(117.91976 -0.0046919609 -0.0016883631)
(109.68154 -0.0042817544 -0.0011464067)
(107.79864 -0.0035641448 -0.00079046958)
(104.40312 -0.0025307954 -0.00031229768)
(95.370356 -0.0017239694 3.7954868e-05)
(95.301921 -0.0017611891 2.0965755e-05)
(104.36094 -0.0026436444 -0.00033718362)
(107.7691 -0.0036553946 -0.00079638322)
(109.6582 -0.0043417804 -0.0011369718)
(117.91763 -0.0045523868 -0.0015888191)
(117.91778 0.001533778 -0.0043976908)
(109.6803 0.0011499654 -0.0041960389)
(107.79759 0.00081889461 -0.0035118235)
(104.40254 0.00034742493 -0.0025180161)
(95.370888 -2.1249194e-05 -0.0017390851)
(95.439687 -0.00013269764 -0.0019021637)
(104.44459 0.00025303273 -0.0027129167)
(107.827 0.00074368596 -0.0037279739)
(109.70353 0.0010939665 -0.0044366262)
(117.92028 0.0016514768 -0.0048629891)
(117.92366 0.0018308401 -0.00533742)
(109.72753 0.0010636294 -0.0045721354)
(107.85713 0.00069505994 -0.0038347342)
(104.48752 0.00019501027 -0.0027933274)
(95.509702 -0.00019125909 -0.0019575267)
(95.581622 -0.00023559793 -0.0020051706)
(104.53193 0.00015351199 -0.0028733888)
(107.88865 0.00066923989 -0.0039524669)
(109.75283 0.0010621975 -0.0047309112)
(117.92813 0.0020670085 -0.0059111578)
(117.93393 0.0023573626 -0.0065976059)
(109.7797 0.0010879838 -0.0049110378)
(107.92174 0.00066990193 -0.0040815865)
(104.5781 0.00013938009 -0.0029582089)
(95.655675 -0.00025075975 -0.0020514178)
(95.73232 -0.0002278678 -0.0020941592)
(104.62639 0.00016339898 -0.0030478921)
(107.95683 0.00070850118 -0.0042263075)
(109.80847 0.0011530022 -0.005117846)
(117.9413 0.0027134849 -0.0074180627)
(117.95052 0.0031482579 -0.0083540874)
(109.83959 0.0012771455 -0.0053457294)
(107.99431 0.00080101395 -0.0043808902)
(104.67729 0.00023708384 -0.0031379587)
(95.81193 -0.00016510249 -0.0021309983)
(95.89503 -0.0001101155 -0.0021779096)
(104.73122 0.00033286984 -0.0032358522)
(108.03468 0.00093323795 -0.0045519586)
(109.87347 0.001449042 -0.005603392)
(117.96186 0.0036722478 -0.0093992449)
(117.97559 0.0043062158 -0.010707897)
(109.91071 0.0016296667 -0.0059508463)
(108.07852 0.0010693073 -0.0047862246)
(104.7889 0.00041866469 -0.0033818157)
(95.982231 -8.4709414e-05 -0.0022578031)
(96.074406 -0.00014288664 -0.0023831018)
(104.85114 0.00042347839 -0.0035871428)
(108.12671 0.0011390383 -0.0050985612)
(109.95207 0.0017652161 -0.0063916873)
(117.99209 0.0050386219 -0.012221651)
(118.01173 0.0058956429 -0.013935033)
(109.99828 0.0019899581 -0.0068780396)
(108.17995 0.0012900018 -0.0054331518)
(104.91874 0.00050826415 -0.0037922183)
(96.17225 -0.00011439972 -0.0024914891)
(96.276598 -7.9508831e-05 -0.0026115385)
(104.9925 0.00061005082 -0.0040307062)
(108.23908 0.0014695862 -0.0058245268)
(110.05007 0.0022556413 -0.0074456908)
(118.03493 0.0068893405 -0.015897819)
(118.06215 0.0080206533 -0.01814734)
(110.10834 0.0025539835 -0.0080971961)
(108.30502 0.0016689812 -0.0062702202)
(105.07343 0.00072215139 -0.0042981572)
(96.388393 -3.986304e-05 -0.0027431774)
(96.508715 2.8279816e-05 -0.0028868433)
(105.16259 0.00087104954 -0.0045992166)
(108.37884 0.0019146755 -0.0067784965)
(110.17407 0.0029088443 -0.0088437938)
(118.09393 0.0093056513 -0.02072398)
(118.13091 0.010777801 -0.023685331)
(110.24835 0.0033274299 -0.0096971607)
(108.46166 0.0022091643 -0.0073559072)
(105.26118 0.0010563022 -0.0049371724)
(96.638768 0.00012312066 -0.0030424748)
(96.780057 0.00018874038 -0.0032421968)
(105.37068 0.0012339326 -0.0053440395)
(108.55491 0.0025180428 -0.0080391592)
(110.3325 0.0037832332 -0.010698219)
(118.17381 0.012463792 -0.027113755)
(118.22355 0.014436283 -0.031096312)
(110.42814 0.004397587 -0.011827064)
(108.66031 0.0029704292 -0.0087907953)
(105.49293 0.0015452647 -0.0057679042)
(96.934447 0.00037832295 -0.00341286)
(97.104325 0.00065499419 -0.0036054708)
(105.63025 0.001963837 -0.0062566888)
(108.78007 0.0035533062 -0.0096683622)
(110.53734 0.0051684037 -0.013150239)
(118.2812 0.01676717 -0.035785004)
(118.34808 0.01954607 -0.041371491)
(110.66273 0.0061758609 -0.014714684)
(108.91699 0.0043446473 -0.010691207)
(105.78562 0.0025659415 -0.00680559)
(97.292727 0.0010938036 -0.0037838455)
(97.503605 0.0017249032 -0.0039557388)
(105.96295 0.0033887259 -0.0074427857)
(109.07476 0.0053920222 -0.011914928)
(110.80771 0.0074807559 -0.016606149)
(118.42585 0.022910281 -0.048125117)
(118.51655 0.027020519 -0.056404674)
(110.97674 0.009143731 -0.018962609)
(109.25815 0.0067389443 -0.013433502)
(106.16729 0.0044571392 -0.0082213267)
(97.742089 0.0025509543 -0.0041410515)
(98.014844 0.0036688117 -0.0043419556)
(106.40528 0.005875885 -0.0091910277)
(109.47339 0.0085069409 -0.015352642)
(111.17557 0.011304952 -0.02194789)
(118.62276 0.032105999 -0.06668788)
(118.74774 0.038442355 -0.079635512)
(111.41181 0.014091904 -0.025822108)
(109.72869 0.010793572 -0.017851586)
(106.6856 0.0077184702 -0.010454871)
(98.330568 0.005138711 -0.0045951391)
(98.700863 0.0068864008 -0.0049876378)
(107.01981 0.0099435161 -0.012189055)
(110.03494 0.013599553 -0.021201345)
(111.69553 0.017547118 -0.030949099)
(118.89591 0.046296308 -0.096042368)
(119.07272 0.056101057 -0.11681507)
(112.03941 0.021782829 -0.037798623)
(110.40586 0.016980681 -0.0257549)
(107.42251 0.012558399 -0.014612279)
(99.140793 0.0089121639 -0.0055918254)
(99.668376 0.011477551 -0.0064197704)
(107.91184 0.01582007 -0.018004302)
(110.85851 0.021279743 -0.032089082)
(112.45906 0.027226221 -0.047217631)
(119.28344 0.06828198 -0.14314327)
(119.53903 0.082246994 -0.17620952)
(112.98021 0.035338097 -0.060375817)
(111.42066 0.027789384 -0.040932049)
(108.51717 0.020997941 -0.022612245)
(100.31123 0.015618402 -0.0075240805)
(101.12069 0.021758752 -0.0090502775)
(109.28469 0.0306627 -0.02778328)
(112.13475 0.039628624 -0.051446524)
(113.64272 0.048654188 -0.076460678)
(119.86521 0.0974304 -0.21315896)
(120.26933 0.12348725 -0.26139658)
(114.46177 0.072999132 -0.094053485)
(113.01728 0.061311656 -0.06164589)
(110.23281 0.047906155 -0.032657032)
(102.13585 0.028923565 -0.010499327)
(103.30196 0.032499116 -0.01058322)
(111.34763 0.079246909 -0.040466622)
(114.0714 0.10427769 -0.076687279)
(115.44134 0.12436712 -0.12536189)
(120.70985 0.20420341 -0.38263273)
(121.55025 0.37208571 -0.61764794)
(116.98491 0.21890563 -0.19744079)
(115.71182 0.18252329 -0.11429435)
(113.03264 0.13517014 -0.052936979)
(104.81745 0.04111761 -0.014810108)
(107.8038 0.12076765 -0.097374089)
(116.29543 0.16748758 0.03738639)
(118.81178 0.22746463 -0.11197567)
(119.87937 0.27883687 -0.21065828)
(123.17475 0.57736933 -1.0069421)
(124.48362 1.1764367 -2.5398247)
(122.67367 0.36546839 -2.5039807)
(121.89197 0.24663531 -2.4779644)
(119.80486 0.094529453 -2.3434057)
(112.16226 0.49262453 -3.0504825)
(110.27875 4.0420215 -7.1566724)
(117.25002 4.2276253 -7.7318399)
(119.35373 4.1428668 -7.7077472)
(120.29599 3.9921413 -7.542661)
(123.42215 2.8382247 -5.7173973)
(123.16428 3.1017525 -5.6104757)
(120.1463 3.2747901 -5.5512877)
(119.21594 3.2678216 -5.5048812)
(117.03091 3.1774757 -5.2666052)
(109.58255 3.2497168 -5.4601358)
(112.20038 3.6198897 -8.25502)
(119.10961 3.741166 -8.311707)
(121.00308 3.9892993 -8.3895954)
(121.75201 4.132717 -8.334392)
(123.3675 4.1493641 -7.0810461)
(122.76014 1.4434949 -6.7335135)
(119.70692 2.2554321 -7.6709357)
(118.6851 2.3971511 -7.7732486)
(116.48078 2.5153439 -7.6838344)
(109.26472 2.6174591 -7.4396343)
(111.49748 0.54682741 -8.4340524)
(118.19953 0.73285571 -8.8094686)
(120.16062 0.78792838 -8.69359)
(121.01151 0.80144999 -8.4150444)
(123.45752 0.81462193 -6.4147495)
(124.54838 0.36099724 -2.7037799)
(123.25564 0.51810105 -2.7939582)
(122.56427 0.53677288 -2.7779319)
(120.63119 0.53577032 -2.6593483)
(113.26213 0.65989205 -3.3867073)
(109.15241 0.19303962 -0.23026048)
(117.32958 0.14168292 -0.020562077)
(119.67917 0.13769122 -0.15582243)
(120.64716 0.12891047 -0.24029586)
(123.19258 0.12661524 -0.9239275)
(121.46333 0.056359042 -0.56345834)
(117.65578 -0.010783206 -0.23568592)
(116.45411 -0.020269994 -0.15977822)
(113.90725 -0.026438139 -0.088371425)
(105.94025 -0.025626211 -0.051023477)
(104.32105 -0.072495871 -0.034513779)
(112.14155 -0.065634485 -0.074084815)
(114.76047 -0.055645655 -0.11182618)
(116.07779 -0.043116909 -0.15730548)
(120.57817 0.027522535 -0.35930766)
(120.14168 0.019071056 -0.2496503)
(115.12516 -0.046712409 -0.11725558)
(113.72288 -0.059054644 -0.087039729)
(111.02715 -0.070902631 -0.059511678)
(103.12024 -0.079883865 -0.03576514)
(102.09924 -0.074997097 -0.031666065)
(110.10246 -0.065470801 -0.048387931)
(112.87704 -0.05381544 -0.071277074)
(114.34888 -0.042387227 -0.094871375)
(119.7456 0.018030247 -0.20608785)
(119.42392 0.015755982 -0.17257387)
(113.7313 -0.038029299 -0.076562329)
(112.20524 -0.048186131 -0.057756196)
(109.36942 -0.058779725 -0.039539114)
(101.3035 -0.067803462 -0.026356941)
(100.68388 -0.060149826 -0.022039981)
(108.80087 -0.052083277 -0.032619828)
(111.68364 -0.042768936 -0.046954306)
(113.25112 -0.033988751 -0.06190069)
(119.17004 0.012746529 -0.14255447)
(118.95949 0.010243432 -0.11756619)
(112.86735 -0.029389074 -0.050634356)
(111.2677 -0.03678832 -0.03856558)
(108.34702 -0.044741968 -0.027047039)
(100.18391 -0.052034029 -0.018446019)
(99.773351 -0.044395677 -0.015509962)
(107.97788 -0.038016855 -0.022574197)
(110.93008 -0.031256799 -0.032002066)
(112.55533 -0.025015934 -0.041895496)
(118.78271 0.0082519902 -0.097547509)
(118.63416 0.0067093013 -0.081619784)
(112.29941 -0.021236776 -0.035063189)
(110.65335 -0.026483961 -0.026870626)
(107.67425 -0.03219632 -0.01905102)
(99.431538 -0.037637543 -0.013177429)
(99.142071 -0.031734117 -0.011228513)
(107.42102 -0.027144641 -0.016171646)
(110.42371 -0.022332072 -0.022758244)
(112.08707 -0.01792329 -0.029628232)
(118.5085 0.0055759997 -0.068876086)
(118.40151 0.0047221538 -0.05862063)
(111.90871 -0.015085759 -0.025372311)
(110.23063 -0.01880123 -0.019549081)
(107.20677 -0.022864467 -0.013924321)
(98.893017 -0.026733778 -0.0096845083)
(98.67574 -0.022532739 -0.0084395022)
(107.02322 -0.019267669 -0.0121191)
(110.06646 -0.015826011 -0.016979844)
(111.75734 -0.012683353 -0.021965103)
(118.31002 0.0040541203 -0.050258811)
(118.23149 0.0035192819 -0.043347274)
(111.62761 -0.010647235 -0.019153088)
(109.92536 -0.013313256 -0.014844691)
(106.86408 -0.016236299 -0.010596332)
(98.483664 -0.018996206 -0.0073795355)
(98.311877 -0.01607092 -0.0065158352)
(106.72461 -0.013730641 -0.0093612944)
(109.8029 -0.011237007 -0.013108405)
(111.51545 -0.0089647584 -0.016858487)
(118.16389 0.0030684263 -0.037596736)
(118.10556 0.0026700139 -0.032742151)
(111.41774 -0.0075865845 -0.01492825)
(109.69575 -0.0095317096 -0.011644044)
(106.60121 -0.011670017 -0.0083161437)
(98.156674 -0.013665222 -0.005786812)
(98.01525 -0.01172873 -0.0052194071)
(106.49118 -0.010010276 -0.0074898576)
(109.60137 -0.0081606934 -0.010460704)
(111.33213 -0.0064846248 -0.013345951)
(118.05518 0.0023085217 -0.028634015)
(118.01168 0.0019857292 -0.025102155)
(111.25682 -0.0055858973 -0.012000572)
(109.51782 -0.0070377852 -0.0094594662)
(106.3925 -0.0086504473 -0.0067984133)
(97.885513 -0.010144919 -0.0047577545)
(97.765735 -0.008805247 -0.0043257462)
(106.30349 -0.0074919822 -0.006155013)
(109.44356 -0.0060777524 -0.0085503151)
(111.19032 -0.0048185262 -0.010796457)
(117.97415 0.0017001389 -0.022022481)
(117.94183 0.0014454126 -0.019345248)
(111.13145 -0.0041615257 -0.0097676534)
(109.37729 -0.0052551632 -0.007779094)
(106.22282 -0.0065038322 -0.0056160123)
(97.65457 -0.0076758404 -0.0039630519)
(97.550963 -0.0067023303 -0.0036515612)
(106.14943 -0.0056461462 -0.0051485532)
(109.318 -0.0045394185 -0.0071077351)
(111.07922 -0.00359058 -0.0088708648)
(117.91412 0.0012132144 -0.016995399)
(117.89048 0.0010009961 -0.014929958)
(111.03282 -0.0030896495 -0.0080863975)
(109.2648 -0.0039109603 -0.0065180463)
(106.08241 -0.0048924406 -0.0047346755)
(97.453987 -0.0058471131 -0.0033747366)
(97.362753 -0.0050823663 -0.003111311)
(106.02082 -0.0042149433 -0.0043481452)
(109.2168 -0.0033441215 -0.0059815024)
(110.99139 -0.0026367754 -0.007382324)
(117.87044 0.00081565705 -0.013109147)
(117.85357 0.0006471589 -0.011505466)
(110.95432 -0.0022496682 -0.0068097167)
(109.17334 -0.0028614312 -0.0055591962)
(105.96401 -0.0036372968 -0.0040560711)
(97.27658 -0.0044292444 -0.0029148403)
(97.194843 -0.0038688975 -0.0027367403)
(105.91126 -0.0031486606 -0.0037923562)
(109.13375 -0.0024564488 -0.005192016)
(110.92097 -0.0019263775 -0.0063221928)
(117.8395 0.00050481078 -0.0101584)
(117.82785 0.00038560006 -0.0090520092)
(110.89066 -0.0016649693 -0.0059274883)
(109.0973 -0.0021274454 -0.0048926987)
(105.86185 -0.0027445368 -0.0035759595)
(97.116766 -0.0033934644 -0.0025854668)
(97.041817 -0.0030181789 -0.0024567796)
(105.81517 -0.0024320728 -0.0033925555)
(109.06346 -0.0018751013 -0.0046403208)
(110.86287 -0.0014653552 -0.0055937754)
(117.81834 0.00028863334 -0.0080661443)
(117.81071 0.00021174715 -0.0071992196)
(110.83728 -0.0013116794 -0.0053141752)
(109.03185 -0.0016827636 -0.004430685)
(105.77089 -0.0021907164 -0.0032403452)
(96.969569 -0.0027208747 -0.0023503845)
(96.899684 -0.0024923144 -0.0022631041)
(105.72854 -0.0020131161 -0.0031157099)
(109.00207 -0.0015440882 -0.0042600189)
(110.81346 -0.0012014039 -0.0050859712)
(117.80467 0.00014975861 -0.0064813946)
(117.79998 0.000102973 -0.0058973742)
(110.79113 -0.001114026 -0.0048957096)
(108.97379 -0.0014351638 -0.004116287)
(105.68784 -0.0018734605 -0.0030098869)
(96.831745 -0.0023094953 -0.0021887164)
(96.765521 -0.002153739 -0.0021208267)
(105.64847 -0.0017499709 -0.0029176456)
(108.94676 -0.0013337693 -0.0039980513)
(110.77 -0.0010308637 -0.0047439695)
(117.79638 6.9183118e-05 -0.0054224395)
(117.79367 4.8682127e-05 -0.0049794202)
(110.74964 -0.00093122662 -0.0045473838)
(108.92046 -0.0012134935 -0.0038354335)
(105.60995 -0.0016040817 -0.0027837763)
(96.700443 -0.0019801075 -0.0020163868)
(96.939156 0.00034921212 -0.0023135619)
(105.8311 0.0011993313 -0.0025574594)
(109.12714 0.0021879748 -0.0029833002)
(110.94784 0.0028548174 -0.0032490384)
(117.8166 0.0035582285 -0.0026284476)
(117.81918 0.0038828172 -0.0029282097)
(110.96748 0.0028942915 -0.0034239972)
(109.15262 0.0021803375 -0.0031440296)
(105.86866 0.0011488192 -0.002704908)
(97.002911 0.0002694578 -0.0024484723)
(97.068125 0.00020682924 -0.0025931987)
(105.90714 0.0011115088 -0.0028586017)
(109.17894 0.0021718765 -0.003301859)
(110.98796 0.0029205827 -0.0035889931)
(117.82267 0.0042318067 -0.0032265051)
(117.82725 0.004684703 -0.003584502)
(111.00971 0.0029913235 -0.0037648139)
(109.20655 0.0021974867 -0.0034628524)
(105.94707 0.0010988929 -0.0030096009)
(97.13506 0.00015866524 -0.0027328883)
(97.204008 0.00012989129 -0.0028533181)
(105.9886 0.0011129473 -0.0031416604)
(109.23568 0.0022578272 -0.003609283)
(111.03292 0.0031044995 -0.0039305994)
(117.83318 0.005250222 -0.0039933416)
(117.84069 0.0059363547 -0.0044592448)
(111.05792 0.0032580519 -0.0041131111)
(109.26662 0.0023470508 -0.0037626968)
(106.0321 0.0011478766 -0.0032714824)
(97.275249 0.00011636859 -0.0029635332)
(97.349251 0.00011780502 -0.003071288)
(106.07794 0.0012032337 -0.0034114228)
(109.29978 0.0024652072 -0.0039411586)
(111.08507 0.0034509146 -0.0043340542)
(117.85006 0.0067550393 -0.0049997176)
(117.86154 0.0077252906 -0.0056278517)
(111.11484 0.0036952587 -0.0045495371)
(109.33563 0.0026165764 -0.0041050054)
(106.12667 0.0012769077 -0.003529154)
(97.426466 0.00013659494 -0.0031505719)
(97.507474 0.00021564081 -0.0032413345)
(106.17878 0.0014337257 -0.0036694281)
(109.3747 0.0028608409 -0.004304893)
(111.1477 0.004039458 -0.0048132447)
(117.87546 0.0088562871 -0.0063748046)
(117.8922 0.010153089 -0.0071979105)
(111.1843 0.0044340892 -0.0050278457)
(109.41764 0.0031383416 -0.004436985)
(106.235 0.0016039943 -0.0037315085)
(97.592884 0.00029609257 -0.0032668464)