/*--------------------------------*- C++ -*----------------------------------*\
  =========                 |
  \\      /  F ield         | OpenFOAM: The Open Source CFD Toolbox
   \\    /   O peration     | Website:  https://openfoam.org
    \\  /    A nd           | Version:  7
     \\/     M anipulation  |
\*---------------------------------------------------------------------------*/
FoamFile
{
    version     2.0;
    format      ascii;
    class       volScalarField;
    location    "190";
    object      k;
}
// * * * * * * * * * * * * * * * * * * * * * * * * * * * * * * * * * * * * * //

dimensions      [0 2 -2 0 0 0 0];

internalField   nonuniform List<scalar> 
25201
(
1113.2395
1119.4971
1113.2423
1119.5034
1143.9668
1113.81
1103.9608
1138.2178
1146.0403
1169.8558
1146.0325
1113.8043
1127.9207
1256.788
1272.9944
1141.8039
1163.9342
1187.4623
1196.7782
1257.7473
1213.1009
1216.429
1201.19
1233.8471
1232.0148
1271.1176
1240.5607
1178.0118
1185.7903
1238.3798
1233.3225
1224.6239
1293.806
1287.3337
1276.0088
1271.8128
1227.1871
1235.3383
1281.9252
1287.7895
1240.0615
1242.6173
1241.1171
1296.6313
1290.371
1283.668
1242.3665
1189.2536
1139.3065
1127.9123
1158.4572
1168.8643
1201.8423
1190.9831
1174.7034
1164.1529
1150.0954
1169.845
1181.5687
1234.2149
1213.8234
1192.2193
1203.3768
1211.4921
1225.9507
1189.9495
1206.004
1256.1354
1244.5553
1266.8078
1256.4008
1236.9201
1182.4695
1192.8493
1199.2207
1265.7763
1248.4484
1243.2876
1235.3648
1228.1007
1217.5451
1203.701
1233.4705
1237.0194
1251.6174
1225.1634
1252.3895
1255.6324
1286.8923
1269.8954
1287.0962
1297.1327
1298.9505
1301.0121
1304.7171
1289.1119
1290.989
1307.2853
1336.9916
1318.2017
1315.5723
1332.861
1328.0194
1311.877
1308.456
1322.0956
1350.7121
1333.528
1316.1017
1317.8992
1343.2979
1339.9358
1360.1206
1364.6679
1390.4665
1368.9132
1365.945
1386.0557
1381.7818
1355.5258
1336.5152
1362.2243
1360.0639
1378.0347
1403.0935
1383.2187
1359.2037
1316.7093
1270.788
1283.1923
1289.1724
1291.864
1284.4615
1282.1057
1276.4972
1267.6133
1252.8716
1234.0716
1192.402
1150.2252
1164.1796
1203.3859
1234.2976
1213.9499
1170.0744
1181.6326
1191.009
1174.7063
1158.4494
1189.9511
1225.9466
1211.4658
1244.6303
1256.1473
1206.0142
1216.5377
1168.8706
1139.3425
1182.769
1192.9533
1256.5472
1237.1788
1225.3388
1218.1412
1204.2113
1228.7978
1236.1183
1243.5875
1273.8806
1266.3643
1251.8011
1237.1778
1269.1704
1242.0031
1250.1686
1271.9142
1269.0464
1266.9439
1311.6422
1312.0713
1345.2114
1332.0537
1331.3372
1347.7108
1345.7715
1369.196
1354.2563
1356.5493
1374.048
1400.0987
1380.3956
1355.4945
1311.8803
1267.3499
1297.607
1287.9785
1288.2938
1383.4317
1363.6507
1337.9568
1313.3001
1309.3219
1323.038
1299.8969
1302.5011
1329.5136
1357.1231
1351.6636
1334.3375
1360.7898
1378.9473
1403.7986
1383.6909
1386.2549
1390.2907
1363.2273
1119.3869
1112.8878
1105.3382
1177.9976
1185.7736
1241.1205
1287.4217
1233.3311
1238.4117
1240.0655
1242.6215
1290.375
1296.6386
1293.8058
1287.8389
1281.9909
1235.3381
1227.1726
1224.6606
1276.0688
1271.8797
1255.6567
1216.4298
1163.8678
128.38991
220.75728
307.69053
388.9296
850.50778
854.86959
395.1237
312.57751
224.35905
130.36305
131.12652
227.45215
317.00851
400.3772
859.88777
863.68878
402.14479
318.48131
228.57844
131.58756
131.80432
229.11251
319.21275
403.01857
867.00643
870.09117
403.62989
319.70389
229.47173
131.98814
132.21575
230.03374
320.51442
404.63567
873.11047
876.14159
405.7698
321.40493
230.63847
132.44521
132.71666
231.39894
322.52491
407.17763
879.18308
882.26648
408.55926
323.60487
232.12337
132.96768
133.24923
232.94881
324.8293
410.10494
885.35471
888.47129
411.54525
325.95568
233.7023
133.50189
133.78368
234.54632
327.21128
413.13263
891.59291
894.71571
414.58657
328.34861
235.3061
134.03422
134.31393
236.15251
329.60779
416.17662
897.81578
900.9073
417.63091
330.74663
236.91325
134.56252
134.84048
237.75909
332.00414
419.21609
903.97466
907.03213
420.66652
333.13942
238.51652
135.0864
135.35931
239.34938
334.37687
422.22412
910.03802
912.99433
423.64374
335.48569
240.08764
135.59807
135.86117
240.88869
336.67277
425.13279
915.86607
918.65908
426.48588
337.73196
241.59505
136.0899
136.34301
242.36554
338.87247
427.91393
921.37172
923.99827
429.19106
339.87216
243.03226
136.55882
136.7984
243.76015
340.94876
430.53671
926.51497
928.92858
431.71395
341.87002
244.37414
136.99715
137.21842
245.04564
342.86237
432.95184
931.20092
933.32271
434.01013
343.68808
245.59425
137.39591
137.59342
246.18788
344.56122
435.09083
935.26335
937.01286
436.03574
345.28803
246.65962
137.74432
137.88764
247.09491
345.92987
436.82493
938.5226
939.69872
437.47981
346.41555
247.40514
137.98295
954.34074
400.40932
315.8006
226.14707
130.69813
130.61945
225.88886
315.38976
399.84829
953.20194
951.55007
399.06958
314.77825
225.4802
130.48805
130.34241
225.02818
314.0765
398.15775
949.66933
947.63415
397.16546
313.28052
224.48392
130.15882
129.98732
223.95854
312.47684
396.13119
945.47898
943.19504
395.02672
311.59383
223.35666
129.78628
129.598
222.77915
310.71148
393.89237
940.7753
938.24951
392.69788
309.75966
222.13279
129.38262
129.18206
221.51546
308.81607
391.48334
935.61604
932.89197
390.22388
307.81602
220.83889
128.95799
128.74735
220.18791
306.81984
388.93877
930.05535
927.13539
387.60625
305.76427
219.47522
128.51213
128.29111
218.79184
304.72017
386.26016
924.14297
921.08133
384.88088
303.62844
218.0553
128.04812
127.8202
217.35163
302.55299
383.49245
917.97749
914.96231
382.13897
301.47719
216.62301
127.57791
127.34965
215.92084
300.40193
380.74627
911.85801
908.73606
379.35523
299.30215
215.1789
127.10272
126.86975
214.46818
298.21508
377.9474
905.5301
902.3309
376.53194
297.09825
213.71523
126.6169
126.38056
213.00772
296.02021
375.13934
899.14813
895.98902
373.75656
294.92816
212.26933
126.12698
125.89286
211.59221
293.90075
372.43194
892.86379
889.7733
371.18362
292.90908
210.91552
125.64899
125.43549
210.35128
292.06277
370.0989
886.68616
883.72657
369.2898
291.39836
209.87788
125.23665
125.07392
209.55933
290.94858
368.72906
880.67983
877.51155
368.11419
290.41263
209.14111
124.88475
124.55056
208.23155
289.14937
366.57427
873.9088
869.5865
362.87248
286.13286
206.07646
123.90962
123.31893
202.2943
280.82664
356.41868
864.51586
854.68882
338.3443
264.69633
190.39759
119.94233
123.08188
202.51734
281.11339
356.73255
865.36777
870.09713
363.11233
286.32878
206.188
123.73636
124.47475
208.37856
289.36758
366.83186
874.24932
877.6816
368.23483
290.52113
209.22143
124.82727
125.03928
209.62982
291.05208
368.85193
880.80802
883.79286
369.30783
291.42192
209.90368
125.205
125.41558
210.38677
292.11684
370.16766
886.77936
889.79396
371.17177
292.89997
210.91557
125.62582
125.87258
211.58816
293.89704
372.43175
892.84979
895.93716
373.67574
294.86362
212.23254
126.10111
126.35727
212.97379
295.97272
375.086
899.04236
902.17969
376.39901
296.99225
213.65082
126.58747
126.84386
214.41218
298.13393
377.85123
905.33333
908.50504
379.18907
299.17339
215.10158
127.07334
127.32912
215.87186
300.32952
380.65917
911.67131
914.83038
382.00266
301.37398
216.56415
127.55694
127.81082
217.33393
302.52904
383.46966
917.96627
921.07428
384.80219
303.56599
218.02135
128.03578
128.2864
218.78364
304.70925
386.25229
924.14222
927.16204
387.55769
305.72528
219.457
128.50611
128.74966
220.19834
306.83634
388.96473
930.10652
932.96822
390.22169
307.81104
220.8425
128.95921
129.18952
221.54099
308.85505
391.53875
935.73745
938.38951
392.7046
309.76331
222.14351
129.38699
129.60865
222.81239
310.76259
393.96426
940.93791
943.37845
395.05182
311.61041
223.37506
129.79353
130.00057
223.99864
312.53953
396.21934
945.68654
947.86196
397.21503
313.31375
224.51194
130.16955
130.36078
225.07857
314.15225
398.26033
949.88643
951.7574
399.15099
314.84958
225.54263
130.51366
130.68123
226.05606
315.60208
400.0741
953.42385
954.8834
400.91549
316.24303
226.45997
130.80581
130.87474
226.66882
316.55634
401.32628
956.13341
136.76285
243.30708
340.24373
429.66737
933.9544
932.63121
429.12669
339.84977
243.0543
136.68399
136.54678
242.61724
339.17815
428.26347
930.98649
929.1719
427.30488
338.40148
242.07993
136.3698
136.20149
241.55943
337.60955
426.29381
927.24749
925.20526
425.20865
336.7328
240.95478
135.99757
135.80909
240.37627
335.85434
424.08634
923.02268
920.7181
422.8948
334.89617
239.7187
135.58955
135.38413
239.08599
333.93423
421.66318
918.27908
915.85261
420.42109
332.93403
238.3993
135.15451
134.93732
237.72704
331.90977
419.10515
913.22139
910.50077
417.7389
330.81806
236.98301
134.69153
134.46059
236.2673
329.73092
416.34543
907.67242
904.7625
414.90278
328.5809
235.4851
134.20257
133.96086
234.73782
327.44738
413.45066
901.8058
898.81897
411.97741
326.27311
233.93896
133.69663
133.44939
233.17659
325.11636
410.49364
895.77327
892.6963
408.99054
323.92083
232.36453
133.18026
132.92937
231.59544
322.75464
407.49418
889.60495
886.49451
405.98539
321.55614
230.78167
132.6578
132.40496
230.01499
320.39415
404.49336
883.38965
880.28042
402.99698
319.20649
229.20823
132.1322
131.87857
228.45409
318.06477
401.53022
877.20541
874.15699
400.08342
316.91563
227.67136
131.60704
131.35622
226.95379
315.83175
398.69051
871.12791
868.14183
397.3865
314.79186
226.23988
131.09427
130.86548
225.65309
313.91416
396.26202
865.15637
862.30153
395.43947
313.24105
225.17194
130.65073
130.47053
224.86609
312.80822
394.89104
859.36767
856.30673
394.23629
312.24559
224.4286
130.2322
129.79245
223.49922
310.95031
392.64563
852.9308
849.00382
388.78622
307.81577
221.28766
128.94535
127.96254
218.26127
303.21474
382.90624
844.71438
851.58015
389.68002
308.50912
221.39182
127.52409
130.22235
224.08941
312.14153
394.65522
854.67457
859.69465
400.29162
316.94147
227.38946
131.02574
131.56396
228.57992
318.46973
402.11146
863.40307
866.73275
402.89014
319.10802
229.04006
131.75846
131.97614
229.4716
319.69498
403.60118
869.82521
872.87049
404.49675
320.39805
229.95315
132.17762
132.43647
230.63137
321.38594
405.72949
875.90709
878.94709
407.03079
322.40334
231.31553
132.6817
132.96163
232.11707
323.58822
408.52301
882.02379
885.11099
409.95757
324.70494
232.86232
133.21494
133.49494
233.68887
325.92966
411.49925
888.19894
891.31328
412.96631
327.07194
234.4499
133.74763
134.02671
235.28743
328.31528
414.53233
894.43716
897.54046
415.99781
329.45978
236.05076
134.27727
134.55636
236.89581
330.71498
417.5786
900.64186
903.71415
419.04573
331.86201
237.66081
134.80565
135.08285
238.50382
333.11331
420.61915
906.78206
909.80685
422.07751
334.25154
239.26177
135.32853
135.59956
240.08674
335.47405
423.61037
912.78952
915.70565
425.01999
336.57688
240.82202
135.83754
136.10029
241.62326
337.76476
426.50979
918.55505
921.3003
427.85262
338.81282
242.32072
136.3256
136.5729
243.07219
339.92401
429.24072
923.93527
926.45594
430.48223
340.89377
243.71799
136.78208
137.01437
244.42098
341.93149
431.77511
928.85985
931.15196
432.90645
342.81909
245.01418
137.20733
137.42564
245.67441
343.79324
434.11901
933.33295
935.37173
435.14169
344.59383
246.20811
137.59896
137.7932
246.79586
345.45943
436.21342
937.26379
938.94361
437.12328
346.15738
247.24796
137.93608
138.07087
247.65272
346.75466
437.8583
940.36395
941.43107
438.44048
347.178
247.91873
138.1527
136.75494
243.28079
340.20205
429.61088
933.81133
932.62175
429.11828
339.83878
243.04441
136.67984
136.54575
242.61692
339.18027
428.26973
931.02932
929.25537
427.32075
338.41149
242.08533
136.37096
136.2039
241.56737
337.62244
426.31175
927.30862
925.25616
425.20986
336.73339
240.95544
135.99832
135.80965
240.37663
335.85568
424.08942
923.05338
920.76117
422.88651
334.88889
239.71379
135.5887
135.38483
239.08739
333.93867
421.67261
918.34317
915.83563
420.37963
332.90362
238.38068
135.14997
134.93259
237.71071
331.8871
419.07918
913.19747
910.48638
417.70735
330.79201
236.96506
134.68623
134.45677
236.25544
329.71525
416.32849
907.66479
904.78788
414.89705
328.57344
235.47869
134.20035
133.96131
234.74027
327.45322
413.46112
901.85337
898.92753
412.00808
326.29356
233.95085
133.70003
133.45583
233.19757
325.14973
410.53899
895.89496
892.84439
409.04507
323.96072
232.38994
133.18833
132.93956
231.62728
322.80372
407.55891
889.76195
886.70465
406.07318
321.62098
230.82307
132.67094
132.41973
230.05998
320.46238
404.58156
883.59262
880.49054
403.09744
319.28163
229.25691
132.14824
131.89533
228.50387
318.14008
401.6274
877.42925
874.35935
400.16852
316.98095
227.71478
131.62228
131.3704
226.99328
315.89098
398.76644
871.30165
868.28209
397.44287
314.83542
226.26925
131.10562
130.87676
225.68343
313.96066
396.32357
865.31629
862.43563
395.48191
313.27362
225.19405
130.65981
130.48031
224.89226
312.8477
394.94295
859.5124
856.4758
394.29097
312.2876
224.45768
130.24402
129.79575
223.51516
310.97879
392.68465
853.08669
849.15103
388.79
307.82469
221.3073
128.95713
127.85896
218.2041
303.20068
382.90584
845.12066
866.5841
357.79532
282.23629
203.36298
122.60569
123.74567
206.21667
286.25618
363.0131
870.25916
874.51033
366.92735
289.43386
208.40765
124.45295
124.86766
209.32421
290.66022
368.39923
877.95341
881.08177
368.92485
291.0963
209.65405
125.0492
125.24072
209.99344
291.55368
369.46901
884.05139
887.03092
370.22289
292.14735
210.40233
125.42454
125.65928
210.99964
293.02182
371.31757
890.05855
893.11072
372.48691
293.93328
211.61034
125.8832
126.13957
212.33745
295.01706
373.86126
896.21068
899.34131
375.18011
296.03676
213.01292
126.37144
126.62634
213.76121
297.15481
376.59739
902.48827
905.64032
377.94608
298.1975
214.45042
126.85654
127.10939
215.2062
299.3276
379.37713
908.78117
911.92301
380.73632
300.37814
215.89956
127.33743
127.58744
216.65372
301.50568
382.1622
915.04639
918.15285
383.51075
302.54925
217.3426
127.81235
128.05932
218.09124
303.66874
384.92558
921.21397
924.24099
386.24713
304.6922
218.767
128.27927
128.52114
219.50125
305.79051
387.63516
927.23206
930.1477
388.89776
306.77332
220.15253
128.73359
128.96997
220.87201
307.85128
390.26225
932.99435
935.75287
391.46418
308.78726
221.49249
129.17238
129.39906
222.17949
309.81528
392.76295
938.41305
940.96764
393.88881
310.69386
222.76293
129.59066
129.80566
223.41258
311.66441
395.11236
943.40522
945.71058
396.14473
312.46958
223.9474
129.98118
130.17866
224.54093
313.35256
397.25276
947.86469
949.84688
398.16787
314.06562
225.01406
130.33558
130.50943
225.53539
314.83763
399.12698
951.63623
953.20121
399.93816
315.45478
225.93104
130.63224
130.7452
226.26647
315.94881
400.54416
954.50563
955.56726
401.11186
316.36437
226.52916
130.82963
941.38539
438.24986
347.0288
247.81948
138.12305
138.0395
247.56076
346.62594
437.71117
940.25636
938.97679
437.05051
346.09318
247.19486
137.91668
137.77927
246.75335
345.40123
436.14277
937.2512
935.34381
435.17138
344.61314
246.2092
137.59729
137.42221
245.66528
343.77852
434.09421
933.34253
931.16469
432.97264
342.87127
245.03939
137.21358
137.01597
244.42423
341.93217
431.76543
928.85768
926.42514
430.5302
340.93624
243.73965
136.78865
136.57359
243.0711
339.91814
429.22317
923.9069
921.28643
427.91374
338.86357
242.34708
136.33345
136.106
241.63846
337.78444
426.52651
918.58679
915.78529
425.14339
336.67337
240.8776
135.85438
135.61582
240.13522
335.54359
423.6905
912.93219
909.98159
422.23766
334.38065
239.34109
135.35363
135.10568
238.57074
333.2094
420.73179
906.97584
903.90498
419.22084
332.0036
237.74933
134.83453
134.58057
236.96467
330.8129
417.69201
900.81964
897.70835
416.16954
329.59922
236.13807
134.30625
134.05016
235.35297
328.40843
414.63985
894.60282
891.47819
413.12195
327.19996
234.53008
133.77463
133.51718
233.75088
326.01859
411.60303
888.37199
885.25753
410.10249
324.82481
232.93731
133.24038
132.98243
232.17484
323.6708
408.61869
882.17965
879.11359
407.20905
322.54453
231.40231
132.70994
132.46182
230.70509
321.49248
405.8555
876.12495
873.10478
404.68182
320.54878
230.04862
132.20875
132.00513
229.55921
319.82069
403.75021
870.08728
867.00641
403.09877
319.27966
229.15195
131.79389
131.59792
228.70081
318.64085
402.31248
863.7065
859.99545
400.54657
317.1415
227.51844
131.0602
130.239
224.32043
312.45735
395.0027
854.96383
851.75034
390.00011
308.80817
221.64239
127.66055
128.27576
220.95277
307.9677
389.22701
850.86822
854.9957
395.21491
312.65973
224.406
130.25764
131.05117
227.4493
317.00459
400.36012
859.82397
863.51432
402.16168
318.49951
228.58838
131.54289
131.76912
229.10021
319.18634
402.96879
866.77903
869.83805
403.62926
319.7085
229.47471
131.96546
132.19195
230.00999
320.47087
404.56675
872.8614
875.88335
405.73032
321.3803
230.62365
132.42718
132.69686
231.36678
322.46915
407.09438
878.91222
881.96212
408.51451
323.57273
232.10141
132.95151
133.22745
232.89975
324.74944
409.99295
885.03682
888.11165
411.47439
325.90139
233.66468
133.48343
133.75983
234.48307
327.11003
412.99347
891.2197
894.34252
414.49847
328.28215
235.26135
134.01569
134.29317
236.09397
329.51356
416.04629
897.46257
900.57856
417.56183
330.69445
236.87772
134.54819
134.82421
237.71128
331.92631
419.10719
903.67338
906.74495
420.62086
333.1049
238.49237
135.07664
135.34736
239.31153
334.31379
422.13452
909.78262
912.771
423.6093
335.46484
240.07554
135.59376
135.85869
240.8796
336.65202
425.09538
915.69784
918.55027
426.51888
337.75983
241.61268
136.09414
136.34367
242.3679
338.87165
427.90574
921.28587
923.91852
429.23327
339.90556
243.0523
136.56382
136.79889
243.76045
340.94629
430.52858
926.44759
928.86609
431.74811
341.89836
244.39185
137.00266
137.22348
245.05575
342.87279
432.95843
931.16395
933.34519
434.07189
343.74381
245.63443
137.4107
137.61672
246.2499
344.64387
435.18503
935.39235
937.30804
436.19782
345.43572
246.77477
137.78625
137.96905
247.32964
346.24168
437.18276
939.07322
940.60016
438.11069
346.94682
247.7742
138.10626
138.17374
247.97615
347.24247
438.48989
941.66911
1180.9417
1184.8862
1180.9386
1184.8761
1185.6022
1175.3702
1168.7937
1207.4866
1211.9333
1175.3779
1197.517
1227.3989
1211.9338
1220.3027
1229.2226
1216.829
1200.9149
1235.2362
1249.6209
1277.8079
1231.3409
1215.9674
1266.7814
1288.3856
1225.9499
1194.0506
1227.3936
1251.3292
1242.5183
1258.0188
1245.7966
1273.3886
1259.2807
1287.93
1298.3939
1317.1037
1266.1591
1270.8508
1256.322
1246.3107
1240.8907
1298.6486
1307.4071
1297.4021
1231.4714
1222.5029
1207.8398
1201.8975
1266.8675
1278.016
1287.2034
1276.1302
1265.9464
1248.8119
1189.6098
1199.3615
1199.338
1139.3004
1119.382
1112.8787
1113.5278
1127.7958
844.12322
381.6387
302.16684
217.52565
128.20861
129.04381
220.77991
307.03431
387.8248
848.24663
852.22836
391.83173
310.26126
223.02137
129.77753
130.22979
224.13158
311.80499
393.70924
855.69066
858.86112
394.41563
312.39711
224.57664
130.43502
130.63872
224.99748
312.97646
395.11841
861.87789
864.89102
395.95553
313.64541
225.46295
130.83234
131.08734
226.14487
314.64368
397.20673
867.92327
870.98667
398.48994
315.64804
226.82112
131.32759
131.60325
227.61661
316.82618
399.97492
874.06615
877.16585
401.37829
317.92292
228.35052
131.85216
132.12952
229.17421
319.14871
402.92903
880.27452
883.36863
404.34961
320.26085
229.91797
132.37691
132.65367
230.75174
321.50355
405.9224
886.48242
889.59059
407.34855
322.62169
231.49971
132.89982
133.17641
232.34014
323.87534
408.93442
892.6829
895.75122
410.36009
324.99127
233.08501
133.41963
133.69079
233.91022
326.22026
411.91114
898.78139
901.76
413.30234
327.31279
234.64113
133.92916
134.19679
235.45798
328.52949
414.83688
904.70196
907.57245
416.19466
329.59261
236.1674
134.4273
134.6832
236.94684
330.75051
417.64909
910.34794
913.04903
418.9386
331.75875
237.61896
134.90142
135.14354
238.35438
332.84931
420.30442
915.62837
918.10495
421.4973
333.78393
238.97858
135.34682
135.57562
239.67188
334.81109
422.7817
920.48856
922.75607
423.87015
335.66808
240.24617
135.76346
135.97884
240.89769
336.63285
425.07565
924.90586
926.92422
426.07536
337.41556
241.41991
136.14935
136.34331
242.00271
338.27235
427.13399
928.79521
930.50438
428.04827
338.97928
242.46445
136.49145
136.63614
242.89971
339.62409
428.84512
932.02713
933.34561
429.49275
340.09826
243.198
136.72709
136.57713
242.73028
339.37184
428.54725
931.63804
930.44287
428.01176
338.96068
242.45345
136.4883
136.34512
242.0008
338.26508
427.11834
928.80845
926.96167
426.1357
337.46609
241.4464
136.15952
135.98551
240.91479
336.6576
425.10204
925.00693
922.91297
424.02176
335.78012
240.30751
135.78134
135.59143
239.72146
334.88718
422.8751
920.74502
918.39918
421.66824
333.9152
239.05456
135.36955
135.1621
238.4125
332.93718
420.41199
915.91088
913.35671
419.12665
331.9046
237.70617
134.92806
134.70802
237.02256
330.86137
417.78306
910.65162
907.84084
416.39471
329.75114
236.26593
134.45842
134.2232
235.53612
328.64218
414.97011
904.95226
901.99776
413.51929
327.48264
234.74611
133.96276
133.71927
233.99233
326.33787
412.04885
899.0081
895.97109
410.584
325.16577
233.19304
133.45473
133.20828
232.43303
324.01129
409.09871
892.9868
889.87864
407.58015
322.80381
231.61346
132.93725
132.68505
230.84029
321.63127
406.07336
886.73629
883.59885
404.55564
320.42396
230.01978
132.41134
132.15628
229.24658
319.25209
403.0487
880.45743
877.38599
401.57335
318.07533
228.44381
131.88377
131.62986
227.68906
316.93212
400.10127
874.2906
871.1854
398.65474
315.78022
226.90253
131.35661
131.11181
226.20711
314.73539
397.31687
868.12784
865.10443
396.14335
313.79001
225.54989
130.86436
130.66956
225.06992
313.08472
395.25066
862.12145
859.11444
394.62822
312.56089
224.67667
130.47935
130.28302
224.23221
311.95982
393.9048
855.94989
852.39578
392.16943
310.50782
223.16448
129.8681
129.18366
220.98848
307.38513
388.30264
848.22483
843.31465
382.22392
302.4718
217.60329
128.39798
126.41808
211.01808
293.00596
371.04142
835.94952
847.3101
398.62554
316.25033
227.47155
134.67667
127.75477
221.65174
308.74719
389.81718
851.2761
853.98879
394.14192
311.76995
223.89956
130.31842
131.07426
227.24063
316.68779
399.95273
859.16572
862.96387
401.71325
318.14046
228.36419
131.57082
131.78669
228.94487
318.95392
402.69033
866.3891
869.54224
403.34145
319.47363
229.3208
131.96991
132.19448
229.89803
320.30952
404.37921
872.63316
875.68254
405.53651
321.21504
230.51038
132.42082
132.68725
231.26687
322.32706
406.92902
878.70183
881.74933
408.33405
323.42023
231.99693
132.93626
133.21268
232.81122
324.62461
409.84831
884.85996
887.99322
411.29843
325.75829
233.56924
133.46504
133.74708
234.41785
327.0201
412.89173
891.12004
894.24612
414.3624
328.16994
235.1853
133.99895
134.27932
236.03508
329.43297
415.95559
897.37784
900.52627
417.42837
330.58592
236.8052
134.5304
134.811
237.66085
331.85908
419.03428
903.63088
906.70379
420.48938
332.99986
238.4233
135.05874
135.33562
239.26937
334.25774
422.0738
909.7459
912.73936
423.49612
335.37391
240.01564
135.57752
135.8474
240.84155
336.60193
425.04199
915.66981
918.50704
426.40491
337.67023
241.55467
136.07811
136.33353
242.33427
338.82704
427.85764
921.24726
923.87444
429.12687
339.82322
243
136.54924
136.79044
243.73454
340.91105
430.48821
926.37435
928.77785
431.67018
341.83559
244.35096
136.98998
137.21258
245.02599
342.83272
432.91327
931.07093
933.21875
433.96248
343.65792
245.57821
137.3922
137.59788
246.1994
344.5731
435.09992
935.19683
936.99496
436.04473
345.31404
246.6935
137.75863
137.94224
247.23717
346.09582
436.9879
938.55383
939.82269
437.93121
346.81306
247.69631
138.08794
138.15819
247.89784
347.04708
438.19068
940.76424
136.56483
242.68694
339.31008
428.46968
931.45876
930.30916
427.93086
338.8908
242.40199
136.47093
136.32418
241.94621
338.19097
427.03217
928.70624
926.89431
426.08476
337.41975
241.41153
136.14412
135.97864
240.90099
336.63879
425.08096
924.9996
922.94115
424.02239
335.78247
240.31121
135.78167
135.59895
239.74454
334.9166
422.90836
920.77337
918.40854
421.69655
333.94656
239.08247
135.38053
135.17768
238.44868
332.98333
420.4627
915.91626
913.31244
419.12542
331.91257
237.71725
134.93738
134.71051
237.02017
330.85748
417.77806
910.59315
907.7847
416.34593
329.71466
236.24177
134.45175
134.21528
235.51364
328.61181
414.93546
904.89035
901.92515
413.4912
327.45842
234.72826
133.95671
133.71566
233.98181
326.32481
412.03573
898.99866
896.00987
410.57016
325.1549
233.18564
133.45262
133.20684
232.42642
324.0017
409.0872
892.96878
889.84274
407.54856
322.78132
231.59983
132.93436
132.68097
230.82219
321.60368
406.03822
886.66452
883.50456
404.49422
320.37827
229.99091
132.40456
132.14931
229.21697
319.20823
402.99444
880.35697
877.26892
401.49415
318.01566
228.40555
131.87513
131.62182
227.65152
316.87629
400.032
874.16186
871.07489
398.57903
315.7214
226.86397
131.34933
131.1065
226.17142
314.68201
397.25079
868.00654
865.02649
396.08375
313.74284
225.51901
130.86221
130.67045
225.04133
313.04004
395.19448
862.0209
859.01053
394.55929
312.50808
224.64404
130.48207
130.29034
224.20232
311.90918
393.83933
855.83633
852.26564
392.12338
310.47419
223.14954
129.88417
129.20817
220.99893
307.38394
388.29401
848.18078
843.35973
382.29392
302.52934
217.65168
128.42351
126.5686
211.68502
293.86736
371.98239
836.28809
855.10499
341.70472
267.80538
192.86886
121.18076
130.84282
218.52557
303.3849
383.24996
844.63344
846.81023
384.51548
304.66756
219.82904
131.08055
128.03845
217.54202
302.26492
381.7984
844.40434
848.34563
387.87717
307.07387
220.81331
129.01529
129.76822
223.08335
310.36769
391.9663
852.30155
855.74817
393.7136
311.80048
224.12313
130.20426
130.43983
224.63853
312.48831
394.52176
858.9015
861.88839
395.10688
312.96075
224.98285
130.62029
130.84359
225.52273
313.73121
396.0531
864.88038
867.89616
397.18701
314.61984
226.12427
131.07199
131.33849
226.86589
315.70836
398.55056
870.94302
874.02072
399.93932
316.79158
227.59029
131.58924
131.8661
228.39867
317.98855
401.44771
877.12339
880.23398
402.89425
319.11665
229.15065
132.11799
132.39423
229.97415
320.339
404.43583
883.34441
886.4501
405.90197
321.48025
230.73237
132.6437
132.91537
231.54919
322.69157
407.42679
889.53981
892.62552
408.88269
323.82749
232.30483
133.16221
133.43334
233.12539
325.04479
410.41348
895.66487
898.69424
411.86412
326.17579
233.87659
133.67726
133.94293
234.68117
327.36765
413.36044
901.67852
904.63495
414.77003
328.47063
235.41579
134.18143
134.44345
236.21194
329.65127
416.25279
907.51385
910.3239
417.61537
330.7157
236.91965
134.67262
134.92218
237.67649
331.83562
419.01749
913.04295
915.65374
420.30376
332.83794
238.3416
135.13735
135.37091
239.04635
333.8767
421.59692
918.13634
920.52037
422.79096
334.80624
239.66283
135.57057
135.7887
240.31842
335.7706
423.98811
922.81567
924.98336
425.06367
336.61347
240.88036
135.9718
136.17826
241.49991
337.52396
426.19261
927.03003
928.93633
427.18406
338.29983
242.01625
136.34619
136.53481
242.5802
339.11936
428.18343
930.70894
932.29081
429.13918
339.85214
243.04741
136.68163
136.75821
243.28767
340.21247
429.60958
933.61496
956.62616
401.41795
316.59162
226.67166
130.87203
130.79755
226.42698
316.19339
400.86319
955.27039
953.58122
400.08586
315.58434
226.02068
130.66424
130.52102
225.57396
314.89056
399.18405
951.73763
949.74449
398.22494
314.11834
225.04419
130.34308
130.17552
224.52963
313.32878
397.20684
947.65054
945.44153
396.15415
312.48358
223.95128
129.98141
129.79875
223.38859
311.62046
395.04027
943.11036
940.74573
393.9176
310.72011
222.77368
129.59296
129.39666
222.16669
309.78813
392.71227
938.16677
935.47328
391.46385
308.7944
221.49287
129.17334
128.96178
220.83902
307.79407
390.17363
932.6772
929.80176
388.85476
306.74601
220.12937
128.72676
128.50513
219.44506
305.69983
387.5055
926.84679
923.86015
386.15313
304.62564
218.71807
128.26417
128.03786
218.02008
303.5581
384.77459
920.82623
917.715
383.41505
302.47755
217.28854
127.79482
127.56609
216.58468
301.39957
382.01901
914.69397
911.57366
380.64701
300.31106
215.84859
127.3208
127.08957
215.14134
299.22787
379.24251
908.4537
905.27549
377.83799
298.11891
214.39362
126.83919
126.60322
213.68101
297.0301
376.42858
902.0639
898.89592
375.0379
295.931
212.9381
126.35001
126.11311
212.24075
294.86864
373.66427
895.74008
892.61899
372.36173
293.83422
211.53659
125.86383
125.63626
210.90107
292.87016
371.11601
889.57627
886.50773
370.04185
292.00934
210.30556
125.40523
125.21865
209.86273
291.35239
369.20456
883.46087
880.40652
368.64953
290.88476
209.5093
125.03133
124.85259
209.12139
290.34923
368.00037
877.21509
873.77402
366.46497
289.06182
208.14659
124.43263
123.7985
205.87023
285.72086
362.35914
869.50815
865.91741
357.14802
281.68346
202.93566
122.59749
856.18868
337.83
264.41678
190.13308
119.3399
123.21668
201.97836
280.23362
355.63299
864.70701
869.26442
362.2848
285.68337
205.79
123.80674
124.5024
208.05148
288.85885
366.19466
873.43032
876.97233
367.77712
290.14941
208.97588
124.843
125.04539
209.44278
290.77075
368.50612
880.22932
883.32008
369.072
291.22221
209.76656
125.20836
125.41171
210.26365
291.93418
369.94547
886.40354
889.48878
370.99974
292.75857
210.81981
125.62198
125.86905
211.51264
293.78402
372.29194
892.59308
895.72196
373.59238
294.79208
212.18215
126.10016
126.35499
212.92825
295.90431
375.00039
898.87725
902.0402
376.3656
296.95809
213.62379
126.58723
126.83964
214.37534
298.07856
377.78109
905.18844
908.35597
379.1625
299.14521
215.07861
127.07081
127.32232
215.83561
300.27518
380.59033
911.52763
914.68098
381.96193
301.33846
216.53802
127.55165
127.80291
217.30006
302.47796
383.40375
917.81299
920.89527
384.766
303.53167
217.9945
128.02831
128.27301
218.73608
304.6374
386.15944
923.91524
926.90605
387.48955
305.66593
219.41388
128.4926
128.73055
220.1354
306.74193
388.84469
929.82886
932.65287
390.10249
307.71876
220.781
128.94026
129.16989
221.47708
308.75669
391.40962
935.38587
938.01143
392.59935
309.67943
222.08611
129.36779
129.58345
222.73631
310.64616
393.81254
940.53453
942.96166
394.91011
311.4994
223.30077
129.76758
129.97175
223.91549
312.41348
396.05626
945.26891
947.45909
397.06278
313.19552
224.43268
130.14099
130.33102
225.00055
314.03561
398.1095
949.5157
951.43171
399.03268
314.75347
225.47536
130.4866
130.66074
225.99375
315.51186
399.96216
953.19357
954.75419
400.84977
316.18889
226.42215
130.7963
130.86702
226.64053
316.51538
401.27687
956.04931
138.14679
247.8875