/*--------------------------------*- C++ -*----------------------------------*\
  =========                 |
  \\      /  F ield         | OpenFOAM: The Open Source CFD Toolbox
   \\    /   O peration     | Website:  https://openfoam.org
    \\  /    A nd           | Version:  7
     \\/     M anipulation  |
\*---------------------------------------------------------------------------*/
FoamFile
{
    version     2.0;
    format      ascii;
    class       volScalarField;
    location    "190";
    object      omega;
}
// * * * * * * * * * * * * * * * * * * * * * * * * * * * * * * * * * * * * * //

dimensions      [0 0 -1 0 0 0 0];

internalField   nonuniform List<scalar> 
25201
(
162.93378
163.37505
162.93382
163.37526
165.79764
162.29513
161.60074
165.93398
166.35875
168.80367
166.35852
162.29498
163.88212
188.3797
193.53272
165.73613
169.75401
174.04053
175.5706
188.71426
179.03515
179.81426
176.39061
182.98491
182.65272
191.66047
185.5114
173.09107
175.39501
186.78036
184.85795
182.12113
201.50328
198.35241
194.08735
193.44449
182.94722
185.68725
197.47418
200.56969
187.64838
188.75089
187.89227
203.14318
202.13586
200.36048
188.64008
175.15709
165.76837
163.88183
167.64557
169.22273
174.41558
172.01029
169.32043
168.2048
166.57478
170.11668
171.23774
182.02529
178.80372
174.0124
175.091
175.30406
176.75663
171.09854
173.64005
183.00317
182.47704
189.6444
189.40573
185.44687
173.12087
173.86016
175.7467
193.99848
190.18126
187.54051
185.5571
183.1115
179.80016
176.66843
182.5004
182.9737
186.5466
181.28036
187.30135
188.29516
195.25766
191.48885
196.14041
199.0351
199.23739
198.95694
199.53297
195.54709
195.5361
199.57576
207.41727
202.28524
202.13853
206.86192
206.04434
201.44672
201.14854
204.90123
213.81169
208.35682
204.29707
204.31752
209.53545
209.18111
215.26355
215.92204
225.21
217.89359
217.68225
224.52426
223.76792
214.5515
208.62941
216.85644
216.66399
223.08165
233.28202
224.96981
217.80738
204.34563
191.55626
197.57069
200.6764
202.25073
200.41186
199.00774
195.92858
192.34096
187.32645
182.53866
174.02257
166.5813
168.2057
175.09012
182.03102
178.80508
170.12908
171.24124
172.01203
169.32038
167.6452
171.0985
176.75602
175.3016
182.48411
183.00457
173.64091
175.89565
169.22339
165.7704
173.13874
173.86673
189.41636
185.4617
181.28472
179.83711
176.69933
183.15865
185.60963
187.55904
194.76348
191.79423
186.55281
182.97794
190.42587
184.76615
184.79404
190.14863
190.42056
190.44729
202.74234
202.47552
213.53065
209.38769
208.15171
213.5844
213.85834
220.82463
215.52582
215.71846
222.16926
232.47742
224.09759
216.50114
202.75942
190.47252
199.06653
196.20276
195.37411
223.91312
216.983
208.7527
201.56558
201.20913
204.96683
199.30155
199.07823
206.16927
214.6876
213.88243
208.41718
216.72084
223.15188
233.33559
225.00491
225.37059
226.24342
218.47146
163.35906
162.88432
161.10649
173.08392
175.39215
187.89217
198.36193
184.85607
186.78211
187.64781
188.75192
202.13834
203.14549
201.50672
200.5778
197.48257
185.68568
182.94094
182.12034
194.09275
193.45098
188.29171
179.80588
169.73801
105203.58
32987.797
18825.247
13902.727
2367.6011
2339.175
13665.64
18534.852
32513.639
104014.02
103176.49
32106.192
18304.456
13494.903
2305.1033
2287.5446
13437.052
18218.297
31947.472
102874.53
102803.04
31903.267
18199.692
13430.596
2278.6454
2275.3306
13443.633
18208.982
31908.055
102833.78
102912.66
31932.166
18227.363
13461.121
2274.764
2275.6548
13478.885
18247.782
31960.099
102999.15
103103.82
31992.307
18269.266
13496.228
2277.2145
2279.088
13513.47
18290.774
32023.369
103200.95
103310.17
32056.952
18312.846
13530.663
2281.0313
2282.9782
13547.898
18334.676
32088.53
103408.16
103517.55
32122.389
18356.971
13565.175
2284.8714
2286.6949
13582.409
18378.87
32153.978
103614.78
103723.34
32187.786
18401.166
13599.638
2288.428
2290.0719
13616.772
18423
32219.251
103819.82
103927.69
32252.866
18445.114
13633.787
2291.6068
2293.0315
13650.596
18466.609
32283.908
104023.07
104128.82
32316.749
18488.121
13667.046
2294.3116
2295.4584
13683.175
18508.825
32346.724
104221.23
104323.08
32378.236
18529.337
13698.734
2296.4441
2297.2961
13714.024
18549.082
32406.917
104411.86
104510.29
32437.14
18568.591
13728.708
2297.9673
2298.486
13743.01
18587.203
32464.334
104594.74
104688.73
32492.896
18605.418
13756.575
2298.8356
2299.0497
13769.621
18622.538
32518.057
104767.37
104854.74
32544.374
18639.064
13781.764
2299.0947
2298.979
13793.157
18654.156
32566.746
104925.17
105002.89
32589.612
18668.164
13803.205
2298.651
2298.1253
13812.318
18680.196
32607.282
105062.47
105119.1
32622.768
18690.199
13819.439
2297.3605
2296.4557
13824.598
18697.362
32633.924
105157.05
2079.7112
14008.767
18697.243
32418.891
104172.65
104139.74
32407.992
18689.814
14003.117
2080.7789
2081.5312
13995.72
18680.045
32393.698
104085.48
104025.14
32377.639
18668.584
13986.552
2082.1331
2082.6108
13976.864
18655.22
32356.174
103949.51
103878.46
32334.504
18640.187
13965.072
2082.9034
2083.0775
13953.232
18624.226
32309.684
103795.47
103717.8
32285.584
18607.258
13939.787
2083.0681
2082.9385
13926.493
18589.624
32258.644
103629.5
103547.59
32232.492
18571.061
13911.673
2082.6205
2082.1964
13897.178
18552.103
32204.032
103456.62
103371.33
32176.876
18532.615
13881.469
2081.6112
2080.9249
13866.184
18512.835
32147.455
103276.21
103186.86
32119.046
18492.429
13849.671
2080.068
2079.0975
13833.582
18471.728
32088.421
103088.55
102996.22
32058.941
18450.522
13816.359
2077.9617
2076.8277
13799.977
18429.528
32028.057
102897.99
102805.4
31998.531
18408.23
13782.599
2075.5371
2074.1751
13765.938
18386.993
31967.323
102705.26
102610.75
31937.38
18365.46
13748.34
2072.6575
2071.0848
13731.392
18343.939
31905.697
102508.17
102412.41
31875.535
18322.305
13713.666
2069.4314
2067.7892
13696.729
18300.926
31844.013
102309.7
102215.27
31814.5
18279.71
13679.111
2066.1856
2064.8267
13662.316
18259.219
31784.73
102117.66
102035.06
31758.963
18239.683
13644.788
2063.9291
2064.2395
13629.411
18224.01
31739.568
101967.47
101949.98
31740.239
18217.997
13618.726
2066.6592
2073.5688
13629.867
18242.702
31794.622
102042.26
102394.08
31962.768
18332.625
13689.898
2087.6111
2111.157
13838.485
18532.921
32316.988
103222.6
104790.95
32826.147
18810.085
14053.634
2138.8088
2241.537
14765.653
19821.697
34616.214
106044.96
104737.03
32799.527
18792.385
14043.89
2137.4232
2109.1461
13834.01
18525.249
32298.469
103165.6
102369.54
31950.414
18326.717
13686.128
2086.0255
2072.3436
13626.35
18237.661
31784.564
102021.74
101937.08
31732.618
18213.989
13615.982
2065.6574
2063.3749
13626.546
18220.175
31732.879
101954.96
102027.09
31753.667
18236.612
13642.641
2063.2303
2064.1944
13659.823
18255.956
31779.59
102108.24
102206.98
31809.787
18276.703
13676.922
2065.6365
2067.2943
13694.11
18297.617
31839.158
102299.18
102402.95
31871.001
18319.268
13711.415
2068.9961
2070.6901
13728.742
18340.612
31900.925
102496.22
102600.25
31933.076
18362.557
13746.199
2072.3278
2073.8985
13763.615
18384.076
31963.135
102693.34
102797.16
31995.328
18406.087
13781.08
2075.3763
2076.7604
13798.394
18427.54
32025.272
102889.64
102992.77
32057.254
18449.368
13815.64
2078.028
2079.1805
13832.641
18470.524
32086.84
103084.23
103186.13
32118.334
18491.91
13849.444
2080.1953
2081.0794
13865.861
18512.439
32147.153
103275.68
103374.97
32177.636
18532.996
13881.906
2081.811
2082.402
13897.456
18552.515
32205.112
103460.73
103555.03
32234.174
18571.94
13912.452
2082.8339
2083.116
13927.004
18590.396
32260.383
103636.28
103727.43
32288.021
18608.617
13940.94
2083.2243
2083.1768
13954.17
18625.517
32312.154
103803.82
103888.99
32337.616
18642.085
13966.678
2082.9525
2082.5646
13978.389
18657.207
32359.463
103958.58
104036.73
32382.096
18671.544
13988.968
2081.9865
2081.2587
13998.646
18684.035
32399.939
104099.27
104167.23
32418.485
18695.929
14007.324
2080.4063
2079.467
14015.055
18706.227
32433.195
104217.74
104245.87
32440.963
18710.592
14017.807
2078.339
105027.47
32582.067
18681.815
13835.523
2280.0626
2281.0747
13832.433
18677.136
32573.818
104995.47
104940.77
32559.217
18667.447
13825.38
2281.771
2282.3272
13817.043
18655.405
32539.063
104870.69
104804.07
32519.383
18641.99
13806.765
2282.7209
2283.0317
13796.426
18627.445
32495.661
104723.82
104649.57
32472.401
18611.586
13784.238
2283.1017
2283.0767
13772.216
18595.042
32446.116
104563.31
104482.56
32420.62
18577.481
13758.58
2282.8168
2282.5477
13745.419
18559.605
32392.653
104392.41
104307.02
32365.488
18540.789
13730.695
2281.999
2281.3499
13716.239
18521.428
32335.517
104210.52
104119.8
32306.541
18501.283
13700.397
2280.4762
2279.5098
13684.924
18480.748
32275.016
104018.54
103923.66
32244.605
18459.563
13668.191
2278.3361
2277.091
13652.001
18438.229
32212.083
103820.04
103723.07
32180.89
18416.431
13634.704
2275.6437
2274.1257
13618.019
18394.582
32147.733
103617.63
103519.37
32116.077
18372.425
13600.369
2272.4372
2270.7045
13583.427
18350.345
32082.64
103413.02
103314.07
32050.813
18328.081
13565.642
2268.8246
2266.9202
13548.648
18306.002
32017.334
103207.28
103108.08
31985.584
18283.857
13530.899
2264.9154
2262.9577
13514.008
18262.038
31952.421
103001.89
102903.96
31921.186
18240.238
13496.283
2261.0175
2259.3993
13479.176
18218.954
31889.285
102802.08
102715.03
31861.01
18198.178
13460.852
2258.3138
2258.7137
13444
18180.623
31838.176
102641.16
102616.2
31835.484
18172.419
13431.319
2261.6304
2270.0305
13441.804
18196.697
31888.532
102697.85
103056.88
32060.946
18290.423
13505.125
2286.4617
2312.7408
13666.141
18504.496
32432.054
103949.47
105711.88
32984.446
18805.942
13903.367
2341.3976
2362.7343
13903.924
18816.63
32923.147
104792.3
103908.63
32530.964
18545.148
13671.994
2340.8307
2304.3037
13489.424
18296.247
32088.813
103110.49
102852.32
31941.006
18214.293
13433.958
2287.1653
2278.2114
13427.97
18195.872
31895.771
102779.16
102826.94
31904.571
18206.445
13441.586
2274.9489
2274.4217
13459.361
18224.799
31927.217
102897.07
102995.62
31957.672
18245.748
13477.166
2275.3271
2276.9208
13494.696
18267.043
31988.033
103090.13
103198.64
32021.372
18288.971
13511.932
2278.8022
2280.7717
13529.204
18310.71
32052.86
103296.82
103405.46
32086.546
18332.854
13546.352
2282.7058
2284.6326
13563.7
18354.815
32118.26
103503.51
103611.89
32152.047
18377.09
13580.905
2286.4814
2288.2579
13598.236
18399.106
32183.773
103709.12
103817.52
32217.646
18421.44
13615.448
2289.9344
2291.5179
13632.639
18443.348
32249.245
103914.37
104022.09
32282.822
18465.4
13649.542
2292.9759
2294.3105
13666.286
18486.836
32313.852
104117.61
104222.86
32346.532
18508.164
13682.502
2295.4842
2296.5222
13698.466
18528.741
32376.439
104315.32
104417.16
32407.766
18549.019
13713.774
2297.3891
2298.099
13728.605
18568.243
32435.784
104504.38
104599.87
32465.002
18586.996
13742.607
2298.6142
2299.0135
13756.223
18604.773
32490.972
104680.58
104770.09
32518.282
18622.124
13769.036
2299.2385
2299.3095
13781.408
18638.447
32542.265
104844.61
104929.22
32567.65
18654.292
13792.957
2299.1747
2298.8329
13803.777
18668.736
32589.121
104997.08
105073.5
32611.288
18682.209
13813.365
2298.2545
2297.48
13821.889
18693.562
32628.161
105130.7
105184.97
32642.444
18702.523
13828.107
2296.4638
2295.3156
13832.074
18708.124
32651.29
105218.86
105025.3
32581.411
18681.406
13835.205
2279.9162
2280.9458
13832.197
18676.829
32573.399
104995.1
104941.94
32559.226
18667.386
13825.322
2281.6911
2282.2968
13817.171
18655.6
32539.504
104872.96
104806.93
32520.111
18642.396
13807.079
2282.7226
2283.0467
13796.727
18627.846
32496.356
104725.95
104651.41
32473.107
18612.016
13784.585
2283.1452
2283.1403
13772.468
18595.364
32446.637
104564.3
104483.79
32421.187
18577.843
13758.888
2282.9222
2282.5917
13745.441
18559.648
32392.705
104391.3
104305.58
32365.276
18540.68
13730.638
2282.0386
2281.3789
13716.053
18521.179
32335.119
104208.65
104118.38
32306.171
18501.049
13700.238
2280.5088
2279.5438
13684.794
18480.571
32274.766
104017.69
103923.86
32244.611
18459.546
13668.187
2278.3807
2277.1811
13652.147
18438.416
32212.415
103821.37
103725.59
32181.596
18416.869
13635.053
2275.7591
2274.2596
13618.501
18395.201
32148.717
103620.79
103523.36
32117.304
18373.231
13601.009
2272.5953
2270.9198
13584.258
18351.379
32084.209
103418.15
103319.84
32052.645
18329.312
13566.632
2269.0686
2267.1861
13549.773
18307.379
32019.368
103213.57
103114.67
31987.761
18285.346
13532.113
2265.2268
2263.2726
13515.188
18263.484
31954.503
103007.86
102909.53
31923.174
18241.631
13497.43
2261.3266
2259.6819
13480.174
18220.159
31890.983
102806.56
102719.6
31862.599
18199.31
13461.803
2258.5982
2258.9542
13444.823
18181.622
31839.62
102645.26
102621.46
31836.802
18173.373
13432.151
2261.8535
2270.2135
13442.725
18197.792
31890.322
102705.84
103065.36
32064.251
18292.505
13506.808
2286.6303
2312.7312
13668.081
18506.914
32437.801
103969.66
105690.98
32993.47
18813.823
13910.026
2341.2051
2134.6264
14059.138
18804.432
32782.335
104628.15
103179.18
32327.09
18539.952
13843.872
2110.6916
2086.1153
13686.328
18326.305
31947.086
102345.67
102025.86
31784.889
18237.792
13626.48
2072.4471
2065.8848
13616.942
18214.746
31732.578
101934.77
101967.13
31736.193
18222.064
13627.973
2063.6798
2063.6036
13644.326
18238.405
31755.52
102029.92
102121.74
31783.704
18258.337
13661.585
2064.5796
2066.0345
13678.911
18278.919
31812.241
102211.3
102314.91
31843.873
18300.424
13696.241
2067.6806
2069.3756
13713.557
18321.646
31873.7
102408.76
102512.09
31905.531
18343.31
13730.766
2071.0206
2072.6247
13748.111
18364.674
31935.423
102605.4
102708.01
31967.219
18386.38
13765.305
2074.1294
2075.5674
13782.58
18407.706
31996.991
102800.56
102902.09
32028.548
18429.244
13799.577
2076.8838
2078.1124
13816.596
18450.332
32057.998
102993.46
103093.93
32089.15
18471.538
13833.261
2079.1972
2080.193
13849.83
18492.155
32118.021
103183.52
103282.03
32148.464
18512.774
13865.943
2081.0514
2081.7841
13881.834
18532.683
32176.421
103368.71
103464.94
32206.001
18552.599
13897.331
2082.3724
2082.8239
13912.339
18571.531
32232.696
103547.38
103639.29
32260.958
18590.305
13926.78
2083.1018
2083.214
13940.473
18607.746
32285.746
103716.85
103803.73
32311.708
18624.774
13953.422
2083.1391
2082.901
13965.526
18640.336
32333.983
103874.71
103954.63
32357.375
18655.327
13976.707
2082.4736
2081.8821
13986.847
18668.506
32376.556
104018.59
104089.89
32395.437
18680.495
13995.703
2081.1172
2080.2794
14004
18690.994
32409.788
104140.96
104188.24
32424.479
18700.84
14011.202
2079.3171
2078.2653
14016.38
18707.907
32435.421
104224.09
2296.1107
13831.688
18707.201
32649.354
105208.99
105175.1
32640.144
18701.337
13827.597
2297.11
2297.9711
13821.256
18692.353
32625.826
105125.85
105071.18
32610.216
18681.552
13812.882
2298.5042
2298.9304
13804.393
18669.272
32589.691
105000.1
104932.08
32568.702
18655.076
13793.53
2299.1271
2299.203
13782.77
18639.969
32544.224
104851.4
104775.06
32520.126
18623.469
13770.026
2299.0348
2298.7884
13757.637
18606.424
32493.089
104687.23
104603.92
32466.669
18588.223
13743.467
2298.3241
2297.7852
13729.797
18569.668
32437.608
104510.66
104421.92
32409.309
18550.103
13714.46
2297.036
2296.2125
13699.739
18530.335
32378.64
104323.68
104230.42
32348.838
18509.692
13683.485
2295.2152
2294.1176
13667.863
18488.901
32316.801
104128.12
104031.41
32285.759
18467.358
13650.843
2292.7987
2291.4013
13634.458
18445.723
32252.621
103925.87
103827.09
32220.772
18423.572
13616.901
2289.8146
2288.1818
13600.137
18401.55
32187.179
103720.48
103621.06
32155.113
18379.215
13582.373
2286.3921
2284.5779
13565.506
18357.14
32121.458
103514.08
103414.21
32089.416
18334.861
13547.736
2282.633
2280.6959
13530.897
18312.896
32055.845
103306.8
103206.79
32023.982
18290.804
13513.182
2278.6925
2276.8348
13496.473
18269.28
31991.091
103101.2
103005.59
31960.596
18247.78
13478.584
2275.251
2274.3686
13461.192
18227.149
31930.471
102909.38
102838.58
31907.474
18208.473
13443.002
2274.8588
2278.143
13429.817
18198.305
31899.265
102793.83
102868.02
31943.405
18215.984
13435.068
2286.9848
2304.3288
13492.53
18300.867
32096.716
103133.8
103955.81
32532.924
18546.984
13673.428
2340.3274
2364.2438
13916.714
18835.493
32961.848
104974.03
105108.07
32953.414
18810.307
13893.366
2365.8803
2337.8971
13663.748
18531.435
32503.681
103966.52
103150.61
32098.617
18301.298
13492.967
2303.8955
2286.4871
13435.277
18215.667
31942.181
102859.69
102790.3
31897.642
18196.568
13428.286
2277.6719
2274.5036
13441.759
18206.402
31903.581
102825.21
102903.37
31927.692
18224.647
13459.024
2274.0145
2274.9826
13477.142
18245.483
31956.369
102992.06
103096.01
31988.649
18266.949
13494.411
2276.5884
2278.5026
13511.935
18288.721
32020.114
103194.61
103301.73
32053.434
18310.574
13528.874
2280.4703
2282.4421
13546.402
18332.662
32085.373
103401.03
103508.29
32118.986
18354.794
13563.469
2284.3702
2286.2604
13581.116
18377.115
32151.175
103607.63
103715.38
32185.04
18399.431
13598.293
2288.0448
2289.7571
13615.877
18421.736
32217.18
103814.4
103921.66
32250.869
18443.887
13632.848
2291.3343
2292.8086
13650.123
18465.881
32282.638
104019.83
104125.16
32315.656
18487.475
13666.542
2294.112
2295.2863
13683.221
18508.85
32346.659
104221.22
104324.63
32378.772
18529.693
13698.968
2296.2723
2297.1141
13714.727
18549.984
32408.317
104416.86
104514.75
32438.638
18569.505
13729.331
2297.7526
2298.2548
13744.02
18588.538
32466.456
104601.56
104694.34
32494.951
18606.697
13757.476
2298.6012
2298.8419
13770.962
18624.29
32520.75
104775.17
104862.33
32547.355
18641.041
13783.245
2298.9156
2298.8636
13795.316
18656.954
32570.861
104936.22
105016.77
32594.896
18671.742
13805.942
2298.6077
2298.1797
13816.009
18685.176
32614.944
105082.76
105153.63
32634.441
18696.919
13824.218
2297.5695
2296.8131
13831.235
18706.654
32649.1
105206.72
105232.65
32655.154
18709.87
13832.999
2295.5853
171.29871
171.50374
171.29865
171.5034
171.04866
170.09467
169.74479
174.57819
174.70872
170.09485
172.15438
175.90583
174.70878
175.44034
175.82962
174.29633
172.36142
177.28408
178.77661
183.94834
176.32134
174.58171
183.41708
189.75837
176.59039
172.19151
176.29177
179.14252
177.55124
179.41409
177.93303
181.16692
179.56722
184.47404
185.1747
189.89829
180.81836
181.90041
180.32093
179.53582
178.15991
189.77409
193.49579
193.7506
178.03445
177.54594
176.10253
174.42004
189.6488
189.77376
194.01219
194.08489
194.01214
190.20674
175.18011
175.75605
175.75055
165.76138
163.35831
162.88313
162.24923
163.85797
2334.0025
13876.139
18763.832
32913.885
105562.94
103924.58
32422.346
18496.395
13661.512
2311.2822
2287.1937
13506.493
18291.288
32063.958
103038.33
102695.12
31894.791
18198.672
13443.088
2271.2286
2262.8422
13432.215
18173.396
31837.888
102601.84
102636.31
31841.407
18181.323
13444.213
2259.79
2259.3459
13461.31
18198.502
31861.617
102701.82
102799.32
31891.341
18219.284
13479.224
2260.2867
2261.8506
13496.622
18240.274
31920.952
102892.62
103000.38
31953.741
18262.049
13513.852
2263.6849
2265.608
13531.007
18283.58
31984.717
103097.67
103206.21
32018.001
18305.641
13548.219
2267.5207
2269.3762
13565.413
18327.367
32049.177
103302.99
103411.38
32082.694
18349.621
13582.721
2271.1866
2272.9124
13599.911
18371.425
32113.964
103507.76
103616.11
32147.493
18393.664
13617.162
2274.5472
2276.0683
13634.093
18415.2
32178.411
103711.44
103817.73
32211.35
18436.965
13650.863
2277.4623
2278.7223
13667.328
18458.036
32241.694
103911.21
104016.19
32273.972
18479.231
13683.568
2279.8531
2280.8279
13699.252
18499.4
32303.148
104106.72
104207.12
32333.894
18519.426
13714.448
2281.6297
2282.2846
13729.104
18538.394
32361.423
104292.86
104387.89
32390.383
18557.099
13743.159
2282.7632
2283.1129
13756.701
18574.752
32416.082
104467.85
104557.71
32443.314
18592.165
13769.652
2283.3056
2283.3423
13782.014
18608.434
32467.113
104631.73
104716.48
32492.458
18624.402
13793.769
2283.2066
2282.8873
13804.703
18638.887
32513.798
104783.91
104860.47
32536.104
18652.634
13814.597
2282.3679
2281.6669
13823.572
18664.491
32553.537
104919.37
104976.89
32569.053
18674.298
13830.483
2280.7677
2279.7356
13834.74
18680.302
32578.577
105013.55
104954.41
32560.028
18668.056
13825.591
2280.5814
2281.5289
13821.222
18661.874
32550.065
104918.53
104861.69
32534.272
18651.161
13813.269
2282.1448
2282.6556
13804.789
18639.045
32514.263
104788.62
104720.15
32493.74
18625.168
13794.181
2282.9245
2283.1021
13783.678
18610.382
32469.757
104640.04
104565.47
32446.534
18594.444
13771.354
2283.0971
2282.9773
13759.236
18577.8
32420.171
104478.48
104396.92
32394.415
18560.047
13745.42
2282.6121
2282.1919
13731.827
18541.632
32365.662
104304.88
104218.15
32337.639
18522.19
13716.578
2281.4951
2280.7201
13701.748
18502.417
32307.184
104119.9
104027.22
32277.849
18481.969
13685.584
2279.7343
2278.669
13669.849
18461.148
32245.975
103924.82
103829.12
32215.311
18439.746
13652.881
2277.4007
2276.0674
13636.633
18418.344
32182.745
103725.31
103628.67
32151.711
18396.604
13619.306
2274.5988
2273.0281
13602.571
18374.739
32118.559
103522.47
103423.74
32086.97
18352.627
13584.934
2271.2806
2269.5035
13568.002
18330.575
32053.558
103316.57
103216.75
32021.835
18308.387
13550.237
2267.5802
2265.7275
13533.423
18286.551
31988.716
103110.11
103010.83
31957.463
18264.712
13515.809
2263.774
2261.9408
13498.874
18243.09
31924.733
102904.05
102808.97
31894.816
18221.765
13481.022
2260.332
2259.4264
13463.628
18201.379
31865.557
102714.55
102648.76
31845.39
18184.054
13446.176
2259.8586
2263.0302
13434.673
18176.609
31842.641
102619.87
102717.18
31900.131
18201.766
13444.951
2271.6065
2288.5785
13509.861
18297.365
32075.619
103078.33
104002.8
32442.581
18505.16
13664.632
2314.5421
2343.5648
13901.66
18811.688
32997.087
105731.23
107788.11
34045.752
19406.015
14348.662
2408.5462
2349.9781
13654.397
18610.489
32943.873
109035.94
104667.08
32854.002
18779.462
13875.512
2352.965
2338.6668
13663.726
18532.961
32513.91
103890.14
103119.46
32088.666
18294.215
13487.949
2303.8015
2287.5673
13434.49
18215.03
31943.85
102854.02
102790.49
31900.039
18196.892
13428.36
2278.7398
2275.523
13442.028
18207.094
31906.337
102824.59
102903.7
31930.218
18225.488
13459.551
2274.9294
2275.7654
13477.28
18245.801
31957.84
102989.46
103092.28
31989.467
18267.014
13494.41
2277.2342
2279.0504
13511.619
18288.378
32020.156
103188.66
103295.92
32053.22
18310.175
13528.56
2280.989
2282.9375
13545.841
18332.03
32084.753
103393.8
103503.31
32118.624
18354.401
13563.196
2284.8384
2286.6839
13580.559
18376.42
32150.324
103601.1
103710
32184.239
18398.809
13597.851
2288.4461
2290.1371
13615.149
18420.849
32215.995
103807.58
103916.67
32249.931
18443.189
13632.345
2291.6977
2293.1429
13649.31
18464.909
32281.309
104013.09
104120.93
32314.722
18486.786
13666.038
2294.4497
2295.6213
13682.411
18507.884
32345.356
104215.36
104320.62
32377.756
18528.923
13698.38
2296.6336
2297.488
13713.783
18548.88
32406.842
104410.74
104510.35
32437.354
18568.535
13728.555
2298.1622
2298.6705
13742.779
18587.097
32464.492
104594.59
104688.42
32493.043
18605.304
13756.336
2298.9924
2299.157
13769.248
18622.259
32517.92
104766.15
104852.73
32543.976
18638.654
13781.267
2299.1374
2298.9375
13792.677
18653.819
32566.359
104922.8
105002.9
32590.014
18668.415
13803.221
2298.5371
2297.9513
13812.912
18681.403
32609.429
105065.91
105137.74
32628.974
18692.931
13820.903
2297.1389
2296.1534
13827.217
18701.174
32640.823
105195.01
105223.37
32635.811
18701.4
13828.075
2294.9595
104950.25
32559.917
18667.876
13825.384
2280.4424
2281.4361
13821.284
18661.962
32550.136
104912.6
104854.36
32533.982
18651.184
13813.358
2282.0759
2282.5445
13804.492
18638.44
32512.868
104783.1
104717.4
32492.2
18624.292
13793.615
2282.8094
2282.9778
13782.924
18609.413
32468.369
104639.39
104566.84
32445.393
18593.544
13770.606
2282.9726
2282.8378
13758.304
18576.773
32418.948
104480.5
104400.36
32393.455
18559.1
13744.522
2282.4934
2282.1065
13731.153
18541.155
32365.586
104305.91
104216.84
32338.063
18522.206
13716.366
2281.4974
2280.7596
13701.601
18502.451
32307.33
104115.52
104022.91
32276.996
18481.544
13685.255
2279.7476
2278.6439
13669.438
18460.6
32245.04
103921.65
103827.22
32214.689
18439.332
13652.564
2277.4276
2276.1377
13636.377
18418.064
32182.404
103724.21
103627.95
32151.569
18396.463
13619.192
2274.6687
2273.0925
13602.418
18374.58
32118.394
103521.25
103422.06
32086.709
18352.425
13584.775
2271.3388
2269.5396
13567.679
18330.204
32053.073
103313.83
103213.99
32021.249
18307.944
13549.882
2267.6145
2265.7586
13532.93
18285.984
31988.011
103106.71
103007.67
31956.787
18264.138
13515.334
2263.8132
2261.9929
13498.372
18242.533
31924.177
102901.17
102806.87
31894.443
18221.299
13480.604
2260.3938
2259.5419
13463.317
18201.087
31865.554
102713.72
102649.25
31845.637
18183.895
13445.984
2259.9831
2263.1293
13434.535
18176.575
31843.264
102621.47
102721.14
31900.385
18201.473
13444.669
2271.5805
2288.2056
13508.973
18296.205
32074.68
103085.38
104007.6
32438.094
18501.754
13662.026
2313.6451
2341.8757
13895.273
18803.678
32984.452
105710.69
107773.53
33970.371
19357.526
14312.496
2400.8599
2216.7003
14594.818
19581.992
34243.524
106156.89
108178.48
33291.59
18933.836
14003.786
2380.1319
2356.8547
13998.783
18934.665
33343.453
108604.69
105523.04
32937.457
18780.976
13888.306
2336.0428
2311.5042
13662.7
18497.721
32423.61
103930.68
103043.03
32067.258
18293.418
13507.925
2287.1038
2270.7646
13442.779
18197.813
31891.757
102688.83
102605.39
31837.718
18173.269
13432.081
2262.4257
2259.4243
13444.075
18180.801
31839.267
102629.57
102706.45
31861.889
18198.449
13461.188
2259.0255
2259.9966
13479.115
18218.856
31889.606
102793.25
102896.91
31921.348
18240.187
13496.405
2261.5709
2263.4386
13513.826
18261.772
31952.345
102994.79
103103.14
31985.559
18283.736
13530.981
2265.3744
2267.3148
13548.363
18305.607
32017.031
103201.69
103309.87
32050.462
18327.754
13565.567
2269.1914
2271.0082
13582.919
18349.635
32081.854
103407.51
103513.88
32114.991
18371.621
13599.925
2272.7226
2274.3633
13617.157
18393.439
32146.274
103610.6
103716.85
32179.37
18415.35
13634.055
2275.8844
2277.3068
13650.98
18436.849
32210.258
103812.49
103916.68
32242.703
18458.226
13667.343
2278.583
2279.7431
13683.731
18479.194
32272.948
104010.3
104113.16
32304.694
18499.959
13699.541
2280.7375
2281.585
13715.06
18519.919
32333.613
104203.29
104301.39
32363.705
18539.424
13729.757
2282.2515
2282.7679
13744.156
18558.048
32390.785
104386.24
104478.26
32418.896
18576.094
13757.597
2283.0965
2283.3125
13770.832
18593.313
32444.011
104557.12
104643.1
32470.11
18609.889
13783.028
2283.3622
2283.2684
13795.029
18625.669
32493.217
104715.53
104796.91
32517.544
18640.877
13806.101
2282.9908
2282.5459
13816.64
18654.852
32538.223
104863.28
104937.55
32559.231
18667.539
13825.561
2281.9012
2281.0633
13832.908
18677.594
32574.266
104995.61
105026.42
32581.56
18681.6
13835.325
2279.9442
2079.0349
14018.048
18709.956
32438.791
104240.13
104208.04
32430.629
18704.71
14014.309
2080.2055
2081.0811
14007.47
18695.443
32416.165
104152.32
104092.78
32399.057
18683.532
13998.083
2081.7421
2082.2944
13988.414
18670.167
32377.715
104019.66
103951.13
32356.663
18655.409
13976.773
2082.6786
2082.9806
13965.441
18640.076
32332.859
103872.32
103798.42
32309.766
18623.708
13952.432
2083.0951
2083.1761
13939.92
18607.005
32284.264
103715.36
103636.02
32259.361
18589.288
13925.769
2083.0229
2082.7498
13911.873
18570.981
32231.669
103545.71
103460.03
32204.644
18551.723
13896.425
2082.2784
2081.6936
13881.329
18532.038
32175.161
103364.77
103274.77
32146.574
18511.599
13864.845
2080.9163
2080.0567
13848.938
18491.031
32116.04
103176.93
103084.96
32086.677
18469.94
13831.836
2079.0278
2077.9004
13815.56
18448.989
32055.745
102986.24
102893.35
32026.088
18427.617
13798.121
2076.6862
2075.3841
13781.552
18406.422
31994.904
102793.73
102699.92
31965.062
18384.911
13763.959
2073.9582
2072.4546
13747.095
18363.455
31933.484
102598.35
102502.64
31903.233
18341.73
13729.315
2070.8229
2069.184
13712.357
18320.216
31871.499
102399.96
102304.05
31841.397
18298.652
13694.614
2067.4931
2065.8997
13677.891
18277.67
31810.439
102203.36
102112.25
31782.037
18256.997
13660.276
2064.5335
2063.6725
13643.484
18237.5
31754.48
102021.9
101957.85
31735.421
18221.069
13626.881
2063.8716
2066.2193
13616.4
18214.3
31732.751
101926.73
102017.03
31786.198
18237.625
13625.998
2072.9152
2086.1787
13685.091
18324.549
31945.112
102325.22
103147.82
32317.296
18532.425
13838.32
2110.1975
2131.9901
14037.772
18773.911
32727.973
104440.31
2216.7172
14701.604
19715.923
34386.755
105350.46
104596.12
32757.435
18770.948
14029.034
2129.7317
2107.3135
13830.104
18518.781
32291.235
103145.71
102372.02
31956.115
18328.224
13687.346
2086.483
2073.294
13628.237
18240.516
31792.067
102027.13
101939.42
31738.388
18216.251
13617.387
2066.6088
2064.2415
13627.745
18222.009
31737.354
101956.24
102025.39
31756.799
18237.868
13643.403
2063.9857
2064.8577
13660.59
18257.116
31782.195
102106.61
102205.5
31812.029
18277.788
13677.679
2066.2157
2067.8047
13694.956
18298.711
31841.211
102298.73
102401.99
31872.616
18320.137
13712.063
2069.4385
2071.0695
13729.42
18341.422
31902.359
102496.1
102598.49
31933.916
18363.001
13746.532
2072.6203
2074.1403
13763.972
18384.462
31963.84
102692.28
102794.37
31995.488
18406.105
13781.073
2075.5615
2076.9081
13798.398
18427.523
32025.356
102887.47
102989.54
32056.921
18449.047
13815.361
2078.1316
2079.2394
13832.271
18470.025
32086.249
103081.15
103180.56
32117.001
18490.894
13848.59
2080.189
2081.0429
13864.882
18511.208
32145.507
103269.89
103366.72
32175.281
18531.263
13880.45
2081.7381
2082.3024
13895.864
18550.624
32202.564
103452.25
103545.91
32231.129
18569.708
13910.583
2082.7101
2082.9899
13924.972
18587.872
32256.828
103626.97
103715.27
32283.696
18605.644
13938.529
2083.1141
2083.1115
13951.824
18622.563
32307.729
103790.95
103874.67
32332.983
18639.09
13964.324
2082.9476
2082.6498
13976.379
18654.538
32355.038
103944.28
104022.03
32378.241
18669.472
13987.497
2082.183
2081.5733
13998.043
18683.117
32397.945
104085.78
104156.8
32417.917
18695.559
14007.005
2080.7711
2079.7922
14014.353
18705.41
32432.186
104212.16
104241.37
32439.224
18709.429
14016.924
2078.5785
105220.12