/*--------------------------------*- C++ -*----------------------------------*\
  =========                 |
  \\      /  F ield         | OpenFOAM: The Open Source CFD Toolbox
   \\    /   O peration     | Website:  https://openfoam.org
    \\  /    A nd           | Version:  7
     \\/     M anipulation  |
\*---------------------------------------------------------------------------*/
FoamFile
{
    version     2.0;
    format      ascii;
    class       volScalarField;
    location    "190";
    object      rho;
}
// * * * * * * * * * * * * * * * * * * * * * * * * * * * * * * * * * * * * * //

dimensions      [1 -3 0 0 0 0 0];

internalField   nonuniform List<scalar> 
25201
(
1.1738932
1.1738876
1.1738934
1.1738884
1.173873
1.1738768
1.1738805
1.1738849
1.17388
1.1738724
1.1738798
1.1738763
1.1738718
1.1739049
1.1739166
1.1738639
1.1738736
1.1738775
1.173847
1.1739008
1.1738715
1.1738796
1.1738579
1.1739024
1.1739021
1.1738865
1.1738761
1.1738721
1.1738817
1.1738854
1.1738888
1.1738663
1.1739451
1.1739311
1.1739148
1.1739196
1.1738731
1.1738897
1.1739337
1.1739448
1.1738856
1.1738933
1.173897
1.1739538
1.1739516
1.1739446
1.1739112
1.1738942
1.1738732
1.1738729
1.1738747
1.1738732
1.1738774
1.1738771
1.1738745
1.1738686
1.1738711
1.1738832
1.173875
1.1738877
1.1738588
1.1738897
1.1738776
1.1738794
1.1738583
1.1738636
1.1738608
1.1738609
1.173876
1.1738784
1.1738944
1.1738677
1.1738851
1.1738752
1.1738793
1.1739
1.1738752
1.1738813
1.1739058
1.1738885
1.1738935
1.1738737
1.1739125
1.1738948
1.1739167
1.1738787
1.1739113
1.1739073
1.1738814
1.1738907
1.1738652
1.1739295
1.1739089
1.17393
1.1739155
1.1738578
1.1738636
1.1739248
1.1739529
1.1739475
1.1739361
1.1739521
1.1739552
1.1739492
1.1739263
1.1739645
1.1739604
1.1739092
1.1739412
1.1739572
1.1739302
1.1739187
1.1739753
1.1739786
1.1740221
1.1740186
1.173991
1.1740152
1.1740082
1.1739712
1.1739341
1.1740085
1.1739708
1.1739954
1.1740194
1.1739595
1.1739547
1.1739407
1.17389
1.1739307
1.173942
1.1739496
1.173946
1.1739389
1.1739312
1.1739175
1.17391
1.1739108
1.1738888
1.1738699
1.1738682
1.1738774
1.1738878
1.173858
1.1738817
1.1738748
1.1738773
1.1738742
1.1738743
1.1738635
1.1738584
1.1738793
1.1738765
1.1738613
1.173861
1.1738598
1.1738731
1.1738713
1.1738829
1.1738745
1.1738952
1.1738665
1.1738781
1.1738917
1.1738712
1.1738858
1.1739039
1.1738811
1.1739331
1.1739119
1.1739169
1.1738948
1.1738872
1.1738898
1.1738834
1.1738971
1.1738872
1.1739064
1.173955
1.1739226
1.1739433
1.1738894
1.1739289
1.1739709
1.1739314
1.1739855
1.173944
1.1739892
1.17399
1.1740065
1.1739745
1.1739527
1.1739541
1.1739049
1.1739291
1.1738642
1.1738776
1.1740073
1.1740064
1.1739307
1.1739463
1.1739267
1.1739637
1.1739072
1.1739274
1.1739531
1.1739696
1.1739597
1.1739084
1.1739707
1.1739952
1.1740199
1.1739597
1.1739886
1.1739736
1.1739626
1.1738885
1.1738934
1.1738688
1.1738722
1.1738818
1.1738971
1.1739308
1.1738892
1.1738856
1.1738853
1.1738934
1.1739514
1.1739536
1.1739448
1.1739444
1.1739332
1.1738897
1.1738729
1.1738669
1.1739147
1.173919
1.1739067
1.1738795
1.1738739
1.1733347
1.1734332
1.1735874
1.1736976
1.1740292
1.1746824
1.1746879
1.1746587
1.1746122
1.1745827
1.1743064
1.1743149
1.174322
1.1743272
1.1743486
1.1743391
1.1743331
1.1743319
1.1743307
1.1743311
1.174201
1.1742021
1.174203
1.1742042
1.1742176
1.1741577
1.1741468
1.1741457
1.1741446
1.1741437
1.1740778
1.1740793
1.1740806
1.174082
1.1740934
1.1740466
1.1740362
1.1740349
1.1740334
1.1740318
1.1739905
1.1739923
1.1739938
1.1739953
1.1740052
1.1739714
1.1739619
1.1739604
1.1739588
1.1739569
1.1739278
1.1739298
1.1739315
1.173933
1.1739424
1.1739177
1.1739083
1.1739067
1.173905
1.173903
1.1738816
1.1738837
1.1738853
1.173887
1.1738964
1.1738779
1.1738683
1.1738666
1.1738649
1.1738628
1.1738466
1.1738486
1.1738503
1.1738521
1.1738618
1.1738477
1.1738378
1.1738359
1.1738342
1.1738323
1.1738199
1.1738217
1.1738234
1.1738253
1.1738353
1.1738245
1.1738142
1.1738122
1.1738105
1.1738088
1.1737995
1.1738011
1.1738027
1.1738047
1.173815
1.1738067
1.1737963
1.1737942
1.1737926
1.1737912
1.1737841
1.1737853
1.1737869
1.1737889
1.1737993
1.173793
1.1737826
1.1737806
1.1737792
1.1737782
1.1737737
1.1737743
1.1737755
1.1737775
1.1737877
1.1737827
1.1737727
1.1737707
1.1737695
1.1737691
1.173766
1.1737661
1.1737671
1.1737691
1.1737786
1.1737754
1.1737662
1.1737644
1.1737636
1.1737639
1.1737626
1.1737619
1.1737625
1.1737642
1.1737727
1.17377
1.1737622
1.1737606
1.1737602
1.1737614
1.1737595
1.1737582
1.1737584
1.17376
1.1737672
1.1737675
1.1737598
1.1737586
1.1737589
1.1737608
1.17377
1.1737667
1.1737649
1.1737651
1.1737702
1.1737642
1.1737589
1.1737583
1.1737594
1.1737623
1.1737643
1.1737593
1.1737596
1.1737621
1.1737659
1.1737727
1.1737684
1.1737651
1.1737644
1.1737698
1.1737671
1.1737585
1.1737578
1.1737591
1.1737618
1.1737541
1.1737531
1.1737539
1.1737559
1.1737649
1.1737681
1.1737594
1.1737574
1.1737564
1.1737571
1.1737577
1.1737577
1.173759
1.1737611
1.173771
1.1737737
1.173763
1.1737607
1.1737592
1.1737589
1.1737607
1.1737615
1.1737633
1.1737657
1.1737771
1.1737815
1.1737697
1.1737674
1.1737657
1.1737648
1.1737695
1.1737705
1.1737721
1.1737743
1.1737865
1.1737919
1.1737795
1.1737774
1.1737759
1.1737748
1.1737803
1.1737818
1.1737835
1.1737856
1.1737982
1.1738057
1.1737932
1.1737911
1.1737894
1.1737879
1.1737958
1.1737976
1.1737994
1.1738015
1.173814
1.1738234
1.1738109
1.1738089
1.1738071
1.1738053
1.1738158
1.1738179
1.1738197
1.1738217
1.1738342
1.1738464
1.173834
1.1738321
1.1738304
1.1738283
1.1738422
1.1738444
1.1738462
1.1738481
1.1738603
1.1738762
1.1738641
1.1738623
1.1738605
1.1738584
1.1738764
1.1738787
1.1738805
1.1738822
1.1738943
1.1739153
1.1739031
1.1739014
1.1738996
1.1738974
1.1739212
1.1739235
1.1739253
1.1739269
1.1739393
1.1739677
1.1739548
1.1739532
1.1739515
1.1739494
1.1739814
1.1739835
1.1739851
1.1739867
1.1740004
1.1740404
1.1740258
1.1740243
1.1740228
1.174021
1.1740642
1.1740659
1.1740674
1.1740689
1.1740854
1.1741466
1.1741296
1.1741284
1.1741272
1.1741259
1.1741809
1.1741819
1.174183
1.1741842
1.1742039
1.1743135
1.1742964
1.1742953
1.1742944
1.1742938
1.1743192
1.1743211
1.1743246
1.1743275
1.1743438
1.1745884
1.1745175
1.1745014
1.1744792
1.1744618
1.1743334
1.1743856
1.1744094
1.1744156
1.1743322
1.1746805
1.1722888
1.1722312
1.1721378
1.1720219
1.1747219
1.1747639
1.1747878
1.1747934
1.1746783
1.1747921
1.1747247
1.1747098
1.1746899
1.1746756
1.1744722
1.1744711
1.1744736
1.1744751
1.1744782
1.1744052
1.1743957
1.1743954
1.1743951
1.1743957
1.1742532
1.1742532
1.1742537
1.1742543
1.1742676
1.1741931
1.1741809
1.1741801
1.1741792
1.1741785
1.174104
1.1741052
1.1741064
1.1741075
1.17412
1.1740672
1.1740556
1.1740544
1.174053
1.1740516
1.1740055
1.1740072
1.1740087
1.17401
1.1740212
1.1739844
1.1739734
1.173972
1.1739704
1.1739685
1.1739368
1.1739389
1.1739405
1.173942
1.1739528
1.1739264
1.1739154
1.1739138
1.1739121
1.17391
1.173887
1.1738891
1.1738909
1.1738925
1.1739036
1.1738841
1.1738727
1.173871
1.1738692
1.1738671
1.1738499
1.173852
1.1738537
1.1738555
1.173867
1.1738523
1.1738405
1.1738386
1.1738369
1.1738348
1.1738218
1.1738238
1.1738255
1.1738274
1.1738393
1.1738281
1.173816
1.173814
1.1738122
1.1738104
1.1738006
1.1738023
1.173804
1.173806
1.1738182
1.1738097
1.1737973
1.1737952
1.1737936
1.1737921
1.1737849
1.1737863
1.1737878
1.1737899
1.1738022
1.1737959
1.1737836
1.1737816
1.1737801
1.173779
1.1737735
1.1737745
1.1737761
1.1737782
1.17379
1.1737845
1.1737729
1.1737706
1.1737688
1.1737679
1.1737635
1.1737644
1.1737662
1.1737686
1.1737798
1.1737763
1.1737657
1.1737633
1.1737617
1.1737612
1.1737601
1.1737601
1.1737615
1.1737637
1.1737733
1.1737703
1.1737619
1.1737598
1.1737586
1.1737591
1.1737565
1.1737556
1.1737565
1.1737584
1.1737672
1.1737693
1.173761
1.1737603
1.1737615
1.1737639
1.1737766
1.1737722
1.1737688
1.173768
1.1737728
1.173769
1.1737661
1.1737665
1.1737691
1.1737733
1.1737626
1.1737594
1.1737582
1.1737587
1.1737622
1.1737623
1.1737591
1.1737579
1.1737583
1.1737617
1.1737686
1.1737653
1.1737654
1.1737678
1.1737717
1.1737701
1.1737668
1.1737648
1.1737649
1.1737708
1.1737695
1.1737622
1.1737615
1.1737628
1.1737654
1.1737575
1.1737565
1.1737571
1.173759
1.1737672
1.17377
1.1737623
1.1737604
1.1737596
1.1737604
1.1737613
1.1737611
1.1737623
1.1737643
1.1737729
1.1737758
1.1737666
1.1737644
1.1737631
1.173763
1.1737653
1.1737658
1.1737674
1.1737697
1.1737793
1.173784
1.173774
1.1737719
1.1737704
1.1737698
1.1737747
1.1737756
1.173777
1.1737791
1.1737893
1.1737952
1.1737847
1.1737828
1.1737815
1.1737806
1.1737863
1.1737875
1.173789
1.173791
1.1738015
1.173809
1.1737985
1.1737965
1.173795
1.1737937
1.173802
1.1738036
1.1738052
1.1738072
1.1738175
1.1738275
1.1738172
1.1738153
1.1738137
1.1738121
1.1738232
1.1738251
1.1738268
1.1738286
1.1738387
1.1738518
1.1738418
1.1738401
1.1738384
1.1738366
1.1738513
1.1738533
1.173855
1.1738568
1.1738665
1.1738836
1.1738741
1.1738724
1.1738708
1.1738688
1.1738885
1.1738906
1.1738922
1.1738938
1.1739032
1.1739262
1.1739169
1.1739154
1.1739138
1.1739118
1.1739384
1.1739404
1.173942
1.1739434
1.1739527
1.1739846
1.1739752
1.1739738
1.1739723
1.1739705
1.1740075
1.1740093
1.1740107
1.174012
1.1740217
1.1740683
1.1740581
1.174057
1.1740557
1.1740543
1.1741072
1.1741085
1.1741097
1.1741108
1.1741221
1.1741971
1.174186
1.1741851
1.1741842
1.1741836
1.1742622
1.1742622
1.1742628
1.1742635
1.1742762
1.1744238
1.1744169
1.174417
1.1744175
1.1744194
1.1745479
1.1745387
1.1745331
1.17453
1.1745358
1.1749404
1.1749535
1.1749704
1.1749987
1.1750277
1.1753635
1.1753031
1.1752198
1.1751655
1.1750848
1.1739222
1.1734922
1.1733681
1.1731944
1.1730906
1.1747691
1.1747928
1.1748388
1.1748689
1.1748419
1.1743846
1.1743603
1.1743554
1.1743478
1.1743382
1.1743705
1.1743697
1.1743709
1.1743718
1.1743763
1.1742403
1.1742265
1.1742254
1.1742244
1.1742233
1.1741627
1.1741634
1.1741645
1.1741655
1.174176
1.1741073
1.174096
1.1740947
1.1740934
1.174092
1.1740437
1.1740453
1.1740467
1.1740479
1.1740578
1.1740143
1.1740047
1.1740033
1.1740018
1.1740001
1.1739651
1.173967
1.1739685
1.1739699
1.1739791
1.1739489
1.1739398
1.1739383
1.1739367
1.1739348
1.1739091
1.1739111
1.1739127
1.1739143
1.1739233
1.1739012
1.173892
1.1738904
1.1738887
1.1738867
1.1738677
1.1738697
1.1738713
1.173873
1.1738823
1.1738657
1.1738562
1.1738544
1.1738527
1.1738508
1.1738363
1.1738382
1.1738398
1.1738416
1.1738513
1.1738387
1.1738288
1.1738269
1.1738253
1.1738236
1.1738126
1.1738142
1.1738158
1.1738177
1.1738277
1.1738181
1.1738079
1.173806
1.1738045
1.173803
1.1737949
1.1737962
1.1737976
1.1737996
1.1738098
1.1738025
1.1737922
1.1737903
1.1737889
1.1737879
1.1737821
1.1737829
1.1737842
1.1737861
1.1737962
1.1737908
1.1737807
1.1737788
1.1737777
1.1737771
1.1737731
1.1737734
1.1737744
1.1737763
1.1737861
1.173782
1.1737724
1.1737705
1.1737697
1.1737697
1.1737672
1.1737669
1.1737676
1.1737694
1.1737786
1.1737758
1.173767
1.1737653
1.1737648
1.1737654
1.1737644
1.1737634
1.1737637
1.1737653
1.1737733
1.173771
1.1737635
1.1737621
1.173762
1.1737635
1.1737643
1.1737624
1.1737621
1.1737633
1.1737698
1.1737695
1.1737642
1.1737632
1.1737638
1.1737663
1.1737665
1.1737637
1.1737629
1.1737636
1.1737674
1.1737634
1.1737596
1.173759
1.1737601
1.1737632
1.1737622
1.1737589
1.1737575
1.1737579
1.1737614
1.1737685
1.173765
1.1737653
1.1737678
1.1737719
1.1737704
1.1737669
1.1737647
1.1737647
1.1737706
1.1737691
1.1737618
1.1737612
1.1737626
1.1737653
1.173757
1.1737559
1.1737565
1.1737583
1.1737665
1.1737693
1.1737615
1.1737596
1.1737586
1.1737594
1.17376
1.1737599
1.1737612
1.1737634
1.173772
1.1737749
1.1737656
1.1737634
1.1737619
1.1737616
1.1737637
1.1737645
1.1737662
1.1737686
1.1737784
1.1737831
1.1737731
1.1737708
1.1737692
1.1737684
1.1737734
1.1737744
1.173776
1.1737782
1.1737886
1.1737945
1.1737839
1.1737819
1.1737804
1.1737794
1.1737852
1.1737866
1.1737881
1.1737902
1.1738009
1.1738084
1.1737978
1.1737958
1.1737942
1.1737929
1.1738013
1.1738029
1.1738045
1.1738065
1.173817
1.1738269
1.1738166
1.1738147
1.1738131
1.1738114
1.1738226
1.1738245
1.1738261
1.173828
1.1738381
1.1738511
1.1738411
1.1738393
1.1738377
1.1738358
1.1738507
1.1738527
1.1738544
1.1738561
1.1738658
1.1738829
1.1738733
1.1738717
1.17387
1.1738681
1.1738876
1.1738897
1.1738914
1.1738929
1.1739023
1.1739252
1.1739159
1.1739144
1.1739128
1.1739108
1.1739373
1.1739392
1.1739408
1.1739423
1.1739515
1.1739832
1.1739738
1.1739724
1.1739709
1.1739691
1.1740059
1.1740076
1.1740091
1.1740104
1.1740201
1.1740665
1.1740562
1.174055
1.1740538
1.1740524
1.1741054
1.1741066
1.1741077
1.1741087
1.1741201
1.174195
1.174184
1.1741833
1.1741827
1.1741823
1.1742613
1.1742609
1.1742609
1.1742612
1.1742739
1.1744224
1.1744157
1.1744165
1.1744181
1.1744209
1.1745434
1.1745337
1.174527
1.1745233
1.1745301
1.1749519
1.1749628
1.1749808
1.1750109
1.1750426
1.1753403
1.1752675
1.1751748
1.1751173
1.1750484
1.1745149
1.1745577
1.1745585
1.1745541
1.1745506
1.1748125
1.1748141
1.1748277
1.1748376
1.1748589
1.1744626
1.1744543
1.1744532
1.1744513
1.1744515
1.1743934
1.1743916
1.1743912
1.1743911
1.1743974
1.1742575
1.1742437
1.1742431
1.1742426
1.1742424
1.1741707
1.1741713
1.1741721
1.174173
1.1741847
1.1741132
1.1741005
1.1740993
1.1740981
1.1740968
1.1740458
1.1740473
1.1740487
1.1740499
1.1740613
1.1740166
1.1740053
1.1740039
1.1740024
1.1740006
1.1739646
1.1739665
1.1739681
1.1739695
1.1739803
1.1739495
1.1739386
1.1739371
1.1739355
1.1739334
1.1739072
1.1739094
1.173911
1.1739126
1.1739234
1.1739011
1.17389
1.1738883
1.1738866
1.1738845
1.173865
1.1738671
1.1738689
1.1738706
1.1738817
1.173865
1.1738535
1.1738517
1.1738499
1.1738479
1.1738331
1.1738351
1.1738369
1.1738388
1.1738504
1.1738376
1.1738257
1.1738237
1.173822
1.1738201
1.1738088
1.1738106
1.1738124
1.1738144
1.1738264
1.1738166
1.1738044
1.1738023
1.1738006
1.1737989
1.1737904
1.173792
1.1737937
1.1737958
1.173808
1.1738006
1.1737882
1.1737861
1.1737845
1.1737831
1.1737774
1.1737786
1.1737801
1.1737822
1.1737943
1.1737885
1.1737766
1.1737745
1.1737729
1.1737719
1.1737664
1.1737674
1.1737692
1.1737715
1.1737829
1.1737783
1.1737672
1.1737648
1.1737629
1.1737621
1.1737599
1.1737604
1.173762
1.1737643
1.1737747
1.1737718
1.1737622
1.1737601
1.1737587
1.1737588
1.1737577
1.1737572
1.1737583
1.1737604
1.1737688
1.1737657
1.1737567
1.1737548
1.1737539
1.1737549
1.1737624
1.1737599
1.1737587
1.1737594
1.173768
1.1737716
1.173766
1.1737668
1.1737702
1.1737746
1.1737705
1.1737665
1.173764
1.1737638
1.1737674
1.1737605
1.173756
1.1737555
1.1737566
1.1737595
1.1737604
1.1737558
1.173755
1.1737558
1.1737586
1.1737638
1.1737609
1.1737599
1.1737607
1.1737656
1.1737708
1.173765
1.1737648
1.1737667
1.1737701
1.1737602
1.1737585
1.1737583
1.1737596
1.1737676
1.1737674
1.1737598
1.1737583
1.1737581
1.1737595
1.1737613
1.1737603
1.1737607
1.1737624
1.1737702
1.1737729
1.1737643
1.1737626
1.173762
1.1737627
1.1737641
1.1737639
1.1737648
1.1737666
1.1737757
1.1737791
1.1737695
1.1737676
1.1737666
1.1737666
1.1737697
1.1737701
1.1737714
1.1737734
1.1737833
1.1737885
1.1737783
1.1737764
1.1737752
1.1737747
1.1737792
1.1737802
1.1737816
1.1737836
1.173794
1.1738003
1.1737898
1.1737878
1.1737864
1.1737853
1.1737923
1.1737937
1.1737953
1.1737973
1.1738077
1.1738162
1.1738058
1.1738039
1.1738023
1.1738009
1.1738104
1.1738121
1.1738137
1.1738157
1.1738259
1.1738369
1.1738267
1.1738249
1.1738233
1.1738215
1.1738341
1.173836
1.1738377
1.1738395
1.1738495
1.1738639
1.173854
1.1738523
1.1738507
1.1738488
1.1738653
1.1738673
1.173869
1.1738707
1.1738805
1.1738995
1.1738897
1.1738881
1.1738865
1.1738846
1.1739066
1.1739086
1.1739102
1.1739118
1.1739215
1.173947
1.1739372
1.1739357
1.1739342
1.1739323
1.1739624
1.1739642
1.1739658
1.1739672
1.1739772
1.1740126
1.1740019
1.1740006
1.1739992
1.1739975
1.1740409
1.1740423
1.1740437
1.1740449
1.1740561
1.1741061
1.1740932
1.1740921
1.1740909
1.1740897
1.1741602
1.1741607
1.1741615
1.1741624
1.1741753
1.1742422
1.1742256
1.1742249
1.1742242
1.1742237
1.1743699
1.1743683
1.1743686
1.174369
1.1743784
1.1744037
1.1743754
1.1743711
1.1743641
1.1743554
1.1747746
1.1747958
1.1748405
1.1748684
1.1748454
1.1740395
1.1736543
1.1735436
1.1733888
1.1732983
1.1735312
1.1736313
1.173788
1.1738981
1.1742254
1.1748201
1.1748239
1.1747956
1.174751
1.1747218
1.1743811
1.1743876
1.1743951
1.1744004
1.1744282
1.1743963
1.1743879
1.1743872
1.1743862
1.1743871
1.1742394
1.1742401
1.1742408
1.1742416
1.1742571
1.1741875
1.1741756
1.1741748
1.1741739
1.1741734
1.1741002
1.1741015
1.1741026
1.1741037
1.1741159
1.1740643
1.1740536
1.1740524
1.1740511
1.1740498
1.1740048
1.1740064
1.1740078
1.1740091
1.1740192
1.1739828
1.1739732
1.1739719
1.1739704
1.1739686
1.1739374
1.1739394
1.1739409
1.1739423
1.1739518
1.1739256
1.1739162
1.1739147
1.1739131
1.1739111
1.1738885
1.1738905
1.1738922
1.1738937
1.1739031
1.1738837
1.1738741
1.1738724
1.1738707
1.1738688
1.1738518
1.1738538
1.1738555
1.1738572
1.1738669
1.1738522
1.1738423
1.1738405
1.1738389
1.173837
1.1738242
1.1738259
1.1738276
1.1738294
1.1738394
1.1738283
1.1738181
1.1738162
1.1738146
1.1738129
1.1738033
1.1738048
1.1738064
1.1738083
1.1738186
1.1738101
1.1737997
1.1737977
1.1737962
1.1737949
1.1737879
1.173789
1.1737904
1.1737924
1.1738027
1.1737964
1.173786
1.1737841
1.1737828
1.173782
1.1737772
1.1737778
1.1737789
1.1737809
1.1737909
1.1737857
1.1737758
1.1737739
1.1737727
1.1737723
1.1737688
1.1737689
1.17377
1.173772
1.1737815
1.173778
1.1737689
1.173767
1.1737661
1.1737663
1.1737647
1.1737642
1.1737649
1.1737667
1.1737751
1.1737724
1.1737647
1.1737631
1.1737625
1.1737635
1.1737618
1.1737607
1.173761
1.1737626
1.1737697
1.1737698
1.1737623
1.1737611
1.1737614
1.1737631
1.173773
1.1737696
1.1737676
1.1737678
1.1737725
1.173768
1.1737639
1.1737634
1.1737645
1.1737677
1.1737628
1.1737598
1.1737588
1.1737594
1.1737632
1.1738857
1.1738757
1.1738856
1.1738755
1.1738642
1.1738711
1.1738736
1.1738733
1.1738705
1.1738711
1.173862
1.1738524
1.1738705
1.1738584
1.1738452
1.1738511
1.1738623
1.173855
1.1738348
1.1738321
1.1738437
1.1738592
1.1738467
1.1738433
1.1738578
1.1738624
1.1738545
1.173835
1.1738388
1.1738292
1.1738381
1.1738139
1.1738303
1.1738181
1.1738052
1.1737951
1.1738226
1.1738213
1.173834
1.1738386
1.1738405
1.1738265
1.1738247
1.1738426
1.1738579
1.1738599
1.1738815
1.1738776
1.1738795
1.1738611
1.1738621
1.173883
1.1739022
1.1738742
1.1738925
1.1738798
1.1738799
1.1738713
1.1738877
1.1738932
1.1738767
1.1738722
1.1746167
1.174675
1.1747411
1.1748481
1.1749194
1.1747889
1.1747581
1.1747252
1.1747066
1.1747017
1.1743671
1.1743539
1.174357
1.1743634
1.1743721
1.1743085
1.1743074
1.174307
1.1743072
1.1743172
1.1741994
1.1741833
1.1741821
1.174181
1.1741803
1.1741255
1.1741266
1.1741279
1.1741291
1.1741423
1.1740815
1.1740681
1.1740667
1.1740652
1.1740636
1.1740214
1.1740231
1.1740246
1.174026
1.1740376
1.1739984
1.1739873
1.1739859
1.1739843
1.1739824
1.173951
1.1739529
1.1739545
1.173956
1.1739663
1.1739387
1.1739285
1.173927
1.1739253
1.1739233
1.1738998
1.1739018
1.1739034
1.173905
1.1739149
1.1738945
1.1738845
1.1738828
1.1738812
1.1738791
1.1738612
1.1738632
1.1738649
1.1738666
1.1738765
1.1738609
1.1738508
1.173849
1.1738473
1.1738454
1.1738318
1.1738336
1.1738353
1.1738371
1.1738472
1.1738353
1.1738249
1.173823
1.1738214
1.1738196
1.1738093
1.1738109
1.1738125
1.1738143
1.1738247
1.1738155
1.173805
1.1738031
1.1738016
1.1738001
1.1737925
1.1737937
1.1737951
1.173797
1.1738075
1.1738005
1.17379
1.1737881
1.1737868
1.1737858
1.1737803
1.1737811
1.1737822
1.1737841
1.1737945
1.1737894
1.173779
1.1737771
1.1737761
1.1737757
1.1737719
1.1737721
1.173773
1.1737748
1.1737849
1.1737811
1.1737712
1.1737694
1.1737687
1.1737688
1.1737666
1.1737662
1.1737667
1.1737684
1.1737779
1.173775
1.173766
1.1737644
1.1737639
1.1737646
1.1737635
1.1737625
1.1737628
1.1737643
1.1737726
1.1737705
1.1737629
1.1737615
1.1737613
1.1737627
1.1737626
1.1737609
1.1737608
1.1737622
1.1737687
1.1737675
1.1737621
1.173761
1.1737613
1.1737635
1.1737638
1.1737612
1.1737606
1.1737616
1.1737654
1.1737616
1.173758
1.1737574
1.1737583
1.1737614
1.1737646
1.1737611
1.173759
1.173759
1.1737639
1.1737677
1.1737617
1.1737616
1.1737636
1.1737669
1.1737638
1.1737613
1.17376
1.1737607
1.1737677
1.1737658
1.1737574
1.1737557
1.1737554
1.1737567
1.1737587
1.1737578
1.1737585
1.1737603
1.1737683
1.173771
1.1737621
1.1737603
1.1737595
1.1737602
1.173761
1.1737609
1.1737621
1.1737641
1.1737736
1.1737767
1.1737667
1.1737646
1.1737633
1.1737631
1.1737662
1.1737668
1.1737683
1.1737705
1.1737807
1.1737851
1.1737747
1.1737726
1.1737712
1.1737705
1.1737751
1.1737762
1.1737778
1.1737799
1.1737903
1.1737968
1.1737864
1.1737843
1.1737826
1.1737814
1.1737884
1.1737899
1.1737917
1.1737938
1.1738044
1.1738124
1.1738016
1.1737996
1.1737978
1.1737962
1.1738053
1.1738071
1.1738089
1.1738109
1.1738216
1.1738322
1.1738216
1.1738197
1.173818
1.1738161
1.1738281
1.1738301
1.1738319
1.1738338
1.1738442
1.1738578
1.1738476
1.1738458
1.173844
1.173842
1.1738574
1.1738596
1.1738613
1.1738631
1.1738732
1.1738909
1.1738808
1.1738791
1.1738774
1.1738753
1.1738953
1.1738975
1.1738992
1.1739009
1.173911
1.1739345
1.1739242
1.1739226
1.173921
1.173919
1.1739459
1.173948
1.1739496
1.1739511
1.1739616
1.1739931
1.1739819
1.1739805
1.1739789
1.1739771
1.1740145
1.1740163
1.1740178
1.1740192
1.174031
1.1740737
1.1740603
1.1740589
1.1740576
1.174056
1.1741141
1.1741154
1.1741165
1.1741177
1.174131
1.1741849
1.1741692
1.174168
1.174167
1.1741661
1.174276
1.174276
1.1742768
1.1742775
1.1742884
1.1743306
1.1743196
1.1743204
1.1743229
1.1743275
1.1746278
1.1746111
1.1745922
1.1745822
1.1745903
1.1745047
1.1745754
1.1746251
1.1746978
1.1747427
1.1735291
1.1734798
1.1737603
1.1742025
1.1746013
1.1789641
1.1823194
1.1824027
1.1824894
1.1825263
1.1727858
1.1728909
1.1730615
1.1731852
1.1736587
1.1746968
1.1747282
1.1747009
1.1746601
1.1746391
1.1742011
1.1742101
1.1742163
1.1742206
1.1742482
1.1742798
1.1742731
1.1742719
1.1742706
1.174271
1.1741428
1.1741443
1.1741456
1.1741469
1.1741624
1.1741174
1.1741052
1.1741039
1.1741027
1.1741015
1.1740433
1.174045
1.1740464
1.1740479
1.1740604
1.1740212
1.17401
1.1740086
1.1740071
1.1740053
1.1739694
1.1739713
1.1739728
1.1739743
1.1739849
1.1739558
1.1739455
1.173944
1.1739424
1.1739404
1.1739146
1.1739166
1.1739183
1.1739198
1.1739297
1.1739078
1.1738979
1.1738962
1.1738946
1.1738925
1.1738732
1.1738753
1.173877
1.1738787
1.1738884
1.1738717
1.1738618
1.17386
1.1738583
1.1738563
1.1738415
1.1738435
1.1738452
1.1738469
1.1738569
1.173844
1.1738339
1.173832
1.1738304
1.1738285
1.1738171
1.1738189
1.1738205
1.1738224
1.1738326
1.1738227
1.1738123
1.1738104
1.1738088
1.1738072
1.1737987
1.1738002
1.1738016
1.1738035
1.1738139
1.1738063
1.1737958
1.1737939
1.1737925
1.1737912
1.173785
1.173786
1.1737873
1.1737892
1.1737995
1.1737937
1.1737833
1.1737814
1.1737802
1.1737795
1.173775
1.1737755
1.1737766
1.1737785
1.1737886
1.1737842
1.1737742
1.1737723
1.1737714
1.1737711
1.1737682
1.1737682
1.173769
1.1737708
1.1737805
1.1737773
1.1737679
1.1737662
1.1737655
1.1737658
1.1737644
1.1737638
1.1737643
1.1737659
1.1737746
1.1737723
1.1737643
1.1737627
1.1737624
1.1737634
1.1737631
1.1737617
1.1737618
1.1737633
1.1737704
1.1737689
1.1737626
1.1737614
1.1737615
1.1737632
1.1737641
1.1737619
1.1737615
1.1737626
1.1737677
1.1737654
1.1737611
1.1737603
1.1737611
1.1737639
1.1737612
1.1737581
1.1737571
1.1737578
1.1737619
1.1737577
1.1737553
1.1737546
1.1737554
1.1737612
1.1737649
1.173759
1.173758
1.1737585
1.1737608
1.1737604
1.1737585
1.1737583
1.1737595
1.1737666
1.1737675
1.1737597
1.1737585
1.1737588
1.1737606
1.1737619
1.1737605
1.1737603
1.1737616
1.17377
1.1737724
1.1737634
1.173762
1.1737621
1.1737634
1.1737648
1.173764
1.1737642
1.1737656
1.173775
1.1737782
1.1737684
1.173767
1.1737668
1.1737675
1.1737697
1.1737697
1.1737702
1.1737717
1.1737817
1.1737832
1.1737721
1.1737695
1.1737674
1.1737662
1.17377
1.1737718
1.1737745
1.1737773
1.1737876
1.1737949
1.1737845
1.1737819
1.1737793
1.1737774
1.1737894
1.1737908
1.1737924
1.1737944
1.1738045
1.1738121
1.1738011
1.1737991
1.1737976
1.173796
1.1738046
1.1738064
1.1738081
1.1738101
1.1738209
1.1738312
1.1738206
1.1738187
1.1738171
1.1738153
1.1738269
1.1738289
1.1738306
1.1738324
1.1738429
1.1738562
1.1738459
1.1738441
1.1738424
1.1738404
1.1738553
1.1738574
1.1738592
1.173861
1.1738712
1.1738885
1.1738782
1.1738765
1.1738748
1.1738727
1.1738922
1.1738944
1.1738961
1.1738978
1.1739081
1.173931
1.1739203
1.1739187
1.173917
1.1739149
1.1739409
1.173943
1.1739447
1.1739463
1.1739571
1.1739874
1.1739759
1.1739744
1.1739727
1.1739708
1.1740069
1.1740088
1.1740103
1.1740118
1.1740238
1.1740648
1.1740511
1.1740497
1.1740483
1.1740467
1.1741026
1.1741038
1.1741049
1.1741061
1.1741196
1.1741707
1.1741549
1.1741539
1.174153
1.1741523
1.1742589
1.1742585
1.1742587
1.1742592
1.1742702
1.1743078
1.1742968
1.1742982
1.1743016
1.1743068
1.1746052
1.1745863
1.1745657
1.1745545
1.1745591
1.1744856
1.1745543
1.1746048
1.1746813
1.1747279
1.1734833
1.1734222
1.1737897
1.1741855
1.1745692
1.17467
1.1729548
1.1726644
1.1726326
1.1725229
1.1781847
1.178348
1.1779432
1.1774597
1.1767669
1.1775946
1.1797852
1.1801399
1.1800832
1.1800491
1.1749377
1.1748655
1.1747655
1.1747047
1.1746424
1.1747521
1.1747501
1.1747679
1.1747994
1.1748298
1.1744018
1.1743931
1.174386
1.1743824
1.1743927
1.1743397
1.1743303
1.1743309
1.1743323
1.1743344
1.1742002
1.1742003
1.1742005
1.174201
1.1742158
1.174155
1.1741425
1.1741416
1.1741408
1.1741401
1.1740747
1.174076
1.1740772
1.1740784
1.174091
1.1740451
1.1740338
1.1740325
1.1740311
1.1740296
1.1739889
1.1739907
1.1739922
1.1739936
1.1740042
1.173971
1.1739609
1.1739594
1.1739579
1.173956
1.1739275
1.1739295
1.1739311
1.1739325
1.1739423
1.173918
1.1739083
1.1739067
1.1739051
1.1739031
1.1738818
1.1738839
1.1738855
1.1738871
1.1738968
1.1738786
1.1738687
1.1738671
1.1738654
1.1738634
1.1738473
1.1738493
1.1738509
1.1738527
1.1738626
1.1738486
1.1738385
1.1738367
1.173835
1.1738332
1.1738209
1.1738227
1.1738243
1.1738262
1.1738364
1.1738257
1.1738152
1.1738133
1.1738117
1.1738101
1.1738008
1.1738023
1.1738039
1.1738058
1.1738163
1.1738081
1.1737975
1.1737955
1.1737941
1.1737928
1.173786
1.1737871
1.1737885
1.1737904
1.173801
1.1737948
1.1737842
1.1737823
1.173781
1.1737802
1.1737754
1.173776
1.1737772
1.1737791
1.1737895
1.1737849
1.1737746
1.1737727
1.1737717
1.1737714
1.1737683
1.1737683
1.1737692
1.1737711
1.173781
1.1737777
1.1737681
1.1737663
1.1737656
1.1737659
1.1737643
1.1737637
1.1737642
1.1737659
1.1737749
1.1737725
1.1737641
1.1737625
1.1737622
1.1737632
1.1737628
1.1737615
1.1737615
1.173763
1.1737705
1.1737689
1.1737623
1.1737611
1.1737613
1.1737631
1.1737643
1.1737621
1.1737616
1.1737626
1.1737679
1.1737659
1.173762
1.1737613
1.1737622
1.1737651
1.1737623
1.1737592
1.1737581
1.1737586
1.173762
1.1737617
1.1737581
1.1737575
1.1737587
1.1737617
1.1737647
1.173762
1.1737612
1.1737619
1.1737657
1.1737681
1.1737626
1.1737617
1.1737623
1.1737647
1.1737626
1.1737609
1.1737607
1.173762
1.1737691
1.1737705
1.1737622
1.1737608
1.1737608
1.1737622
1.1737624
1.1737615
1.1737619
1.1737635
1.1737726
1.1737751
1.1737651
1.1737634
1.1737629
1.1737635
1.1737649
1.1737647
1.1737655
1.1737673
1.173778
1.1737814
1.1737702
1.1737683
1.1737675
1.1737675
1.1737703
1.1737708
1.1737719
1.1737738
1.1737854
1.1737902
1.1737782
1.1737763
1.1737751
1.1737745
1.173779
1.17378
1.1737814
1.1737834
1.1737956
1.1738019
1.1737895
1.1737875
1.1737861
1.1737849
1.1737915
1.1737931
1.1737947
1.1737967
1.1738091
1.1738175
1.173805
1.1738031
1.1738014
1.1737999
1.1738091
1.1738109
1.1738127
1.1738147
1.173827
1.1738379
1.1738257
1.1738238
1.1738221
1.1738203
1.1738326
1.1738347
1.1738365
1.1738384
1.1738504
1.1738647
1.1738528
1.173851
1.1738493
1.1738473
1.1738636
1.1738658
1.1738676
1.1738693
1.173881
1.1738998
1.1738882
1.1738865
1.1738848
1.1738827
1.1739042
1.1739064
1.1739082
1.1739098
1.1739214
1.1739466
1.1739347
1.1739331
1.1739315
1.1739294
1.1739586
1.1739607
1.1739624
1.1739639
1.1739761
1.1740107
1.1739976
1.1739962
1.1739946
1.1739927
1.1740345
1.1740363
1.1740378
1.1740392
1.1740529
1.174101
1.1740853
1.1740839
1.1740825
1.1740809
1.174148
1.1741491
1.1741503
1.1741515
1.1741673
1.17423
1.1742103
1.1742092
1.1742082
1.1742073
1.1743442
1.1743437
1.174344
1.1743446
1.1743583
1.174388
1.1743654
1.1743635
1.1743618
1.1743604
1.174708
1.17471
1.1747231
1.174734
1.1747743
1.1742701
1.1741864
1.1741732
1.1741557
1.1741348
1.1745922
1.1721719
1.1721163
1.1720267
1.1719213
1.1744377
1.1744658
1.1744688
1.1744629
1.1743497
1.1745775
1.174513
1.1745023
1.1744892
1.174479
1.1743085
1.1743072
1.1743079
1.1743089
1.1743172
1.1742941
1.1742818
1.1742813
1.1742811
1.1742812
1.1741658
1.1741665
1.1741673
1.1741683
1.1741841
1.1741317
1.1741177
1.1741165
1.1741153
1.1741142
1.1740545
1.1740561
1.1740576
1.174059
1.1740731
1.1740312
1.1740184
1.174017
1.1740154
1.1740136
1.1739759
1.1739779
1.1739795
1.173981
1.1739932
1.1739623
1.1739506
1.173949
1.1739474
1.1739453
1.1739185
1.1739206
1.1739223
1.1739239
1.1739353
1.1739124
1.1739009
1.1738993
1.1738975
1.1738954
1.1738752
1.1738774
1.1738792
1.1738809
1.1738923
1.1738749
1.1738633
1.1738615
1.1738598
1.1738577
1.1738422
1.1738444
1.1738461
1.1738479
1.1738596
1.1738462
1.1738344
1.1738325
1.1738307
1.1738288
1.173817
1.1738189
1.1738206
1.1738225
1.1738344
1.1738241
1.173812
1.17381
1.1738084
1.1738067
1.1737978
1.1737994
1.1738009
1.1738029
1.173815
1.1738071
1.1737949
1.1737929
1.1737914
1.1737901
1.1737835
1.1737847
1.1737861
1.1737881
1.1738002
1.1737943
1.1737821
1.1737801
1.1737789
1.173778
1.1737735
1.1737741
1.1737753
1.1737772
1.1737891
1.1737846
1.1737729
1.173771
1.17377
1.1737697
1.1737668
1.1737669
1.1737677
1.1737696
1.1737808
1.1737775
1.1737668
1.173765
1.1737643
1.1737646
1.1737631
1.1737626
1.1737631
1.1737648
1.1737747
1.1737724
1.1737632
1.1737616
1.1737613
1.1737622
1.1737619
1.1737607
1.1737608
1.1737622
1.1737703
1.1737686
1.1737616
1.1737604
1.1737605
1.1737622
1.1737633
1.1737612
1.1737608
1.1737619
1.1737672
1.173765
1.1737612
1.1737604
1.1737612
1.1737639
1.1737611
1.1737582
1.1737571