/*--------------------------------*- C++ -*----------------------------------*\
  =========                 |
  \\      /  F ield         | OpenFOAM: The Open Source CFD Toolbox
   \\    /   O peration     | Website:  https://openfoam.org
    \\  /    A nd           | Version:  7
     \\/     M anipulation  |
\*---------------------------------------------------------------------------*/
FoamFile
{
    version     2.0;
    format      ascii;
    class       volScalarField;
    location    "360";
    object      omega;
}
// * * * * * * * * * * * * * * * * * * * * * * * * * * * * * * * * * * * * * //

dimensions      [0 0 -1 0 0 0 0];

internalField   nonuniform List<scalar> 
24789
(
96384.05
30029.325
16918.776
12395.623
2049.9354
2057.8234
12434.968
16965.806
30092.872
96598.298
96818.811
30158.811
17014.52
12475.633
2065.8759
2074.0924
12517.464
17064.777
30227.264
97046.045
97280.605
30298.32
17116.826
12560.69
2082.4774
2091.0331
12605.207
17170.578
30372.138
97522.867
97773.456
30448.871
17226.292
12651.239
2099.7686
2108.6869
12698.723
17283.929
30528.728
98032.879
98301.81
30611.904
17343.748
12747.878
2117.7947
2127.0956
12798.692
17405.768
30698.647
98580.965
98871.27
30789.225
17470.252
12851.377
2136.5976
2146.3063
12905.956
17537.259
30883.914
99173.438
99488.47
30983.031
17607.058
12962.638
2156.2302
2166.375
13021.503
17679.777
31086.892
99817.356
100161.3
31195.897
17755.7
13082.773
2176.7493
2187.3631
13146.578
17835.024
31310.451
100521.59
100899.73
31431.08
17918.071
13213.16
2198.227
2209.3488
13282.73
18005.14
31558.307
101297.36
101716.49
31692.791
18096.616
13355.573
2220.7365
2232.3941
13431.977
18192.916
31835.297
102159.58
102629.67
31986.755
18294.536
13512.287
2244.3178
2256.4903
13596.911
18402.06
32148.196
103130.22
103665.66
32320.975
18516.182
13686.326
2268.8779
2281.416
13781.138
18637.781
32506.661
104241.47
104864.55
32707.332
18767.93
13882.08
2293.9949
2306.4324
13990.234
18908.137
32925.48
105543.4
106288.92
33164.881
19060.71
14107.284
2318.4501
2329.5944
14236.033
19229.38
33431.274
107117.94
108056.72
33731.432
19419.792
14381.025
2339.114
2346.0247
14551.585
19644.425
34073.395
109136.23
110464.8
34544.393
19937.12
14762.483
2348.4993
2338.3529
14986.303
20285.745
35239.325
112388.79
115172.6
35757.686
20517.576
15108.035
2301.9059
2232.2144
15053.269
20473.245
35724.125
117840.24
119822.19
36564.882
20966.24
15401.715
2203.2133
2193.2647
15556.788
21446.284
37801.181
125515.91
131410.13
39225.694
22026.372
15781.962
2245.4505
2073.0208
15964.649
21634.596
37763.811
124296.64
121237.66
36651.199
21052.186
15558.725
2050.5943
2070.5471
15658.505
21014.491
36426.233
117611.04
114055.91
35666.719
20703.514
15495.42
2099.6937
2117.0275
15256.111
20340.559
35002.524
111250.11
109387.31
34338.005
19963.301
14990.062
2119.938
2115.8263
14762.72
19660.835
33865.852
108090.45
107030.36
33506.817
19426.97
14581.854
2109.271
2101.0762
14431.397
19233.533
33206.784
106118.26
105314.79
32946.03
19065.417
14300.224
2091.7601
2081.8391
14182.565
18915.359
32714.639
104589.58
103926.02
32504.727
18778.285
14074.585
2071.5972
2061.2032
13974.041
18651.263
32311.838
103315.01
102749.73
32133.442
18532.583
13879.612
2050.7723
2040.3862
13790.533
18421.192
31967.635
102224.46
101734.27
31812.976
18316.273
13706.213
2030.101
2019.9529
13626.208
18217.179
31668.176
101274.94
100843.02
31532.254
18123.356
13550.119
2009.9639
2000.1457
13477.604
18034.309
31404.243
100435.53
100049.9
31283.44
17949.633
13408.377
1990.5036
1981.0393
13342.161
17868.954
31169.17
99684.114
99336.324
31060.878
17791.97
13278.741
1971.7523
1962.6402
13217.884
17718.377
30958.116
99004.993
98688.768
30860.387
17647.957
13159.451
1953.6999
1944.9277
13103.215
17580.432
30767.365
98386.357
98096.84
30678.692
17515.676
13049.1
1936.3218
1927.8783
12996.888
17453.418
30594.039
97819.101
97552.327
30513.156
17393.604
12946.562
1919.5953
1911.4664
12897.89
17335.947
30435.722
97295.704
97048.391
30361.547
17280.456
12850.909
1903.4938
1895.6731
12805.389
17226.872
30290.411
96809.701
96579.02
30222.109
17175.237
12761.405
1888.0035
1880.479
12718.702
17125.271
30156.477
96355.861
96139.718
30093.339
17077.068
12677.406
1873.0997
1865.8635
12637.279
17030.399
30032.681
95930.017
95726.08
29974.089
16985.299
12598.433
1858.7581
1865.8622
12638.291
17031.623
30034.262
95936.223
96145.891
30094.965
17078.322
12678.432
1873.0881
1880.4523
12719.751
17126.544
30158.096
96362.067
96585.526
30223.809
17176.576
12762.497
1887.9612
1895.6136
12806.545
17228.29
30292.221
96816.646
97055.903
30363.497
17281.968
12852.13
1903.4139
1911.3616
12899.189
17337.559
30437.827
97303.731
97560.984
30515.422
17395.336
12947.946
1919.4599
1927.7083
12998.373
17455.29
30596.517
97828.418
98106.862
30681.373
17517.694
13050.685
1936.109
1944.6637
13104.914
17582.61
30770.279
98397.157
98700.332
30863.561
17650.318
13161.279
1953.375
1962.2421
13219.847
17720.927
30961.536
99017.461
99349.805
31064.61
17794.73
13280.841
1971.2671
1980.4489
13344.393
17871.915
31173.178
99698.667
100065.7
31287.755
17952.81
13410.746
1989.7876
1999.2808
13480.095
18037.689
31408.87
100452.73
100861.91
31537.17
18126.92
13552.702
2008.9246
2018.7099
13628.842
18220.888
31673.356
101295.66
101756.99
31818.318
18320.053
13708.843
2028.6243
2038.6479
13793.085
18424.968
31973.07
102249.35
102776.73
32138.791
18536.232
13881.987
2048.748
2058.878
13976.121
18654.639
32316.9
103343.79
103955.99
32509.169
18781.194
14076.237
2068.9671
2078.9185
14183.666
18917.599
32718.042
104619.62
105342.98
32947.961
19066.921
14300.809
2088.5948
2097.7605
14431.97
19234.755
33207.18
106141.35
107045.01
33507.834
19429.849
14584.004
2105.9633
2112.6907
14769.438
19669.363
33872.973
108098.68
109392.19
34367.97
19986.983
15007.253
2117.3159
2115.9023
15293.28
20401.308
35103.27
111240.19
114164.73
35936.187
20785.452
15527.029
2097.365
2063.605
15589.348
20947.853
36368.966
117763.63
120693.46
36619.057
20996.677
15443.034
2044.0358
2061.1107
16367.251
21987.535
38128.9
122452.46
131853.09
39447.058
22124.817
15874.743
2235.4464
2158.0349
15321.896
21069.671
36902.442
121361.86
122435.78
36410.307
20487.004
14748.522
2191.1486
2229.3685
15104.436
20607.778
36228.248
119581.35
115910.87
36096.183
20655.102
15208.276
2285.4691
2318.171
15065.486
20363.748
35329.341
112727.95
110612.18
34574.51
19977.485
14817.518
2326.929
2325.5414
14595.776
19670.792
34082.073
109157.49
108002.12
33709.243
19432.461
14416.245
2319.8569
2311.3815
14265.462
19234.307
33397.627
107032.08
106189.86
33127.834
19062.1
14133.645
2301.1713
2289.9922
14015.007
18907.942
32887.721
105437.09
104753.11
32669.402
18766.82
13905.868
2278.297
2266.3643
13804.156
18635.967
32468.634
104125.69
103545.94
32282.791
18513.73
13708.648
2254.3786
2242.4557
13618.564
18398.997
32109.828
103007.1
102503.93
31948.238
18290.907
13533.303
2230.6666
2219.0564
13452.413
18188.809
31796.768
102032
101587.7
31654.326
18092.105
13375.485
2207.6503
2196.4615
13302.18
18000.312
31520.019
101167.92
100770.25
31393.084
17913.004
13232.2
2185.4959
2174.7536
13165.272
17829.803
31272.869
100392.6
100033.1
31158.822
17750.409
13101.187
2164.2347
2153.9339
13039.697
17674.49
31050.413
99690.116
99362.394
30947.217
17601.83
12980.656
2143.8483
2133.9704
12923.844
17532.145
30848.835
99048.69
98747.922
30754.923
17465.295
12869.176
2124.298
2114.8232
12816.435
17401.007
30665.149
98459.158
98181.594
30579.243
17339.206
12765.587
2105.5424
2096.4517
12716.429
17279.646
30496.945
97914.339
97656.604
30418.011
17222.304
12668.978
2087.5509
2078.8317
12623.004
17166.917
30342.218
97407.651
97166.968
30269.349
17113.506
12578.566
2070.2913
2061.9193
12535.421
17061.806
30199.239
96933.955
96708.159
30131.725
17011.899
12493.685
2053.7169
2045.6715
12453.095
16963.509
30066.652
96488.974
96603.221
30093.881
16966.761
12435.772
2057.8887
2065.9301
12476.559
17015.665
30160.3
96824.715
97052.884
30229.046
17066.201
12518.624
2074.1309
2082.4977
12561.882
17118.316
30300.341
97288.126
97531.077
30374.37
17172.288
12606.577
2091.0367
2099.7484
12652.635
17228.062
30451.311
97782.27
98042.429
30531.384
17285.91
12700.285
2108.64
2117.7124
12749.489
17345.821
30614.797
98312.193
98592.324
30701.791
17408.055
12800.463
2126.9731
2136.4256
12853.218
17472.663
30792.636
98883.582
99186.983
30887.655
17539.911
12907.966
2146.0746
2155.9238
12964.762
17609.895
30987.109
99503.336
99833.785
31091.376
17682.889
13023.815
2165.9803
2176.2484
13085.227
17759.056
31200.828
100179.48
100541.81
31315.878
17838.688
13149.226
2186.7336
2197.4387
13215.989
17922.047
31437.065
100922.22
101322.58
31564.881
18009.462
13285.763
2208.3691
2219.5262
13358.805
18101.314
31700.064
101744.86
102191.64
31843.35
18198.03
13435.424
2230.9038
2242.4869
13515.965
18300.112
31995.659
102665.95
103171.54
32158.079
18408.123
13600.814
2254.2471
2266.1337
13690.463
18522.786
32331.921
103713.02
104296.19
32518.854
18644.95
13785.488
2278.0638
2289.9025
13886.663
18775.752
32720.922
104928.32
105618.64
32940.746
18916.686
13995.052
2301.4425
2312.3807
14112.459
19070.226
33182.209
106379.04
107228.26
33451.767
19240.371
14241.824
2322.2458
2330.2635
14387.803
19433.111
33757.274
108197.33
109326.99
34107.294
19660.268
14559.101
2335.4027
2335.9119
14769.204
19953.263
34582.96
110732.79
112750.34
35275.389
20301.324
14991.715
2324.3832
2287.8598
15109.499
20537.552
35827.946
115697.31
118957.73
35908.241
20496.68
15018.946
2222.7275
2195.5009
15194.895
20854.305
36594.558
120863.71
125422.39
37804.933
21424.11
15517.956
2178.4636
2226.407
15690.673
21940.608
39175.726
131647.09
2868.3838
14675.666
21396.878
39327.447
135099.26
130060.46
39711.944
22333.551
15882.024
2328.9201
2055.7529
16912.986
22996.817
40071.548
129213.13
124143.43
38203.422
21957.279
16053.422
2162.1261
2151.3716
15255.842
21074.034
37016.165
122331.85
121332.71
36382.568
20645.333
14994.25
2185.5989
2237.1452
15204.732
20695.59
36216.343
118528.28
115222.47
36073.558
20692.745
15251.721
2297.1539
2328.934
15082.644
20374.087
35300.86
112281.46
110319.46
34564.534
19984.406
14827.504
2336.2195
2333.1525
14602.652
19676.025
34077.649
108959.87
107862.12
33704.004
19435.369
14420.75
2325.9336
2316.1876
14268.276
19235.648
33392.685
106930.05
106113.82
33123.114
19062.346
14135.234
2304.9522
2292.9544
14015.71
18907.43
32883.236
105379.58
104708.84
32665.339
18765.892
13905.997
2280.618
2268.1884
13803.933
18634.839
32465.004
104090.93
103518.35
32279.509
18512.489
13708.192
2255.8147
2243.5882
13617.974
18397.73
32106.913
102985
102485.95
31945.638
18289.658
13532.637
2231.562
2219.7648
13451.703
18187.587
31794.408
102017.21
101575.44
31652.206
18090.936
13374.761
2208.2107
2196.9052
13301.465
17999.21
31518.124
101157.79
100761.79
31391.408
17911.986
13231.517
2185.8472
2175.0326
13164.629
17828.868
31271.376
100385.33
100026.8
31157.464
17749.54
13100.574
2164.456
2154.1094
13039.12
17673.689
31049.195
99684.684
99357.662
30946.123
17601.092
12980.116
2143.9863
2134.0777
12923.341
17531.465
30847.843
99044.539
98744.343
30754.016
17464.664
12868.703
2124.3792
2114.8837
12815.995
17400.43
30664.341
98456.045
98178.841
30578.52
17338.678
12765.18
2105.5873
2096.483
12716.048
17279.157
30496.283
97911.905
97654.442
30417.408
17221.852
12668.621
2087.5703
2078.8406
12622.67
17166.495
30341.659
97405.707
97165.182
30268.825
17113.112
12578.254
2070.2909
2061.9094
12535.131
17061.439
30198.744
96932.315
96706.676
30131.255
17011.555
12493.416
2053.6958
2045.6378
12452.851
16963.198
30066.235
96487.747
95930.289
30032.434
17030.408
12637.336
1865.8074
1873.0554
12677.453
17077.111
30093.365
96140.527
96357.1
30156.636
17125.496
12718.904
1880.4425
1887.9693
12761.553
17175.428
30222.396
96580.494
96811.312
30290.748
17227.184
12805.644
1895.6413
1903.4613
12851.1
17280.705
30361.915
97050.031
97297.312
30436.105
17336.278
12898.159
1911.4359
1919.565
12946.771
17393.869
30513.531
97553.876
97820.595
30594.431
17453.755
12997.159
1927.8515
1936.2985
13049.325
17515.961
30679.075
98098.17
98387.524
30767.745
17580.763
13103.484
1944.9105
1953.6893
13159.686
17648.249
30860.753
98689.619
99005.54
30958.433
17718.689
13218.145
1962.6387
1971.7614
13278.966
17792.237
31061.146
99336.49
99683.854
31169.37
17869.205
13342.382
1981.0625
1990.5451
13408.55
17949.819
31283.539
100049.09
100434
31404.214
18034.419
13477.729
2000.2121
2010.0645
13550.161
18123.344
31532.01
100840.7
101271.72
31667.718
18217.019
13626.149
2020.1013
2030.3161
13706.022
18315.916
31812.197
101729.88
102218.59
31966.465
18420.569
13790.163
2040.694
2051.2109
13879.057
18531.66
32131.763
102741.82
103304.21
32309.583
18649.987
13973.274
2061.8224
2072.4616
14073.687
18776.71
32501.805
103911.14
104568.85
32711.246
18913.662
14181.698
2083.0275
2093.3573
14299.796
19064.095
32942.635
105285.57
106077.08
33204.24
19233.356
14432.033
2103.1542
2111.8598
14584.723
19429.526
33507.115
106973.01
108013.93
33871.832
19668.156
14769.23
2118.807
2122.9711
15002.202
19978.774
34354.491
109285.14
111103.7
35046.326
20370.487
15276.128
2119.5199
2099.3363
15514.285
20737.351
35768.678
113888.32
117106.09
36332.141
21007.217
15677.806
2066.0653
2044.0286
15735.98
21177.547
36695.554
120399.5
124666.84
37943.595
21730.704
16031.406
2064.3145
2239.105
15618.144
22019.752
39476.518
132609.98
126814.55
37983.379
21452.272
15484.931
2188.9837
2202.2008
15585.622
21167.938
36870.795
119859.29
118453.72
35802.424
20472.841
14987.437
2232.0575
2300.3
15100.21
20524.516
35826.148
115549.42
112606.25
35280.361
20299.675
14991.961
2336.7876
2348.2092
14771.842
19952.383
34575.196
110581.63
109190.84
34087.794
19653.465
14558.14
2346.3904
2339.695
14384.434
19423.985
33737.752
108081.37
107128.7
33432.915
19230.588
14237.289
2330.1812
2318.9728
14107.443
19060.528
33164.513
106293.16
105544.45
32924.437
18907.42
13989.917
2306.8719
2294.3518
13881.639
18767.125
32706.144
104864.09
104240.42
32505.605
18637.04
13780.696
2281.6986
2269.0994
13685.968
18515.592
32320.1
103664.41
103128.95
32147.536
18401.611
13596.635
2256.6628
2244.4526
13512.101
18294.227
31986.266
102628.47
102158.54
31834.964
18192.714
13431.863
2232.4996
2220.8195
13355.518
18096.501
31692.562
101715.51
101296.58
31558.182
18005.098
13282.726
2209.4132
2198.2758
13213.187
17918.081
31431.042
100899.21
100521.29
31310.473
17835.079
13146.639
2187.3997
2176.7751
13082.83
17755.758
31195.94
100161.13
99817.336
31086.973
17679.874
13021.591
2166.3928
2156.24
12962.701
17607.133
30983.131
99488.585
99173.715
30884.035
17537.374
12906.055
2146.3108
2136.5964
12851.437
17470.326
30789.349
98871.639
98581.444
30698.779
17405.893
12798.799
2127.0916
2117.7873
12747.928
17343.813
30612.029
98302.239
98033.293
30528.839
17284.048
12698.827
2108.6801
2099.76
12651.273
17226.338
30448.978
97773.884
97523.305
30372.226
17170.687
12605.307
2091.0268
2082.4692
12560.694
17116.832
30298.376
97280.951
97046.226
30227.219
17064.82
12517.521
2074.0884
2065.8743
12475.543
17014.401
30158.657
96818.601
96597.63
30092.476
16965.654
12434.886
2057.8282
2057.8302
12436.115
16967.227
30094.794
96605.222
96825.801
30160.787
17015.987
12476.81
2065.8875
2074.0978
12518.679
17066.292
30229.292
97053.259
97288.186
30300.452
17118.422
12561.963
2082.4727
2091.0118
12606.558
17172.281
30374.425
97530.962
97782.098
30451.352
17228.125
12652.681
2099.7251
2108.6154
12700.267
17285.904
30531.416
98042.133
98311.791
30614.819
17345.884
12749.534
2117.6896
2126.9505
12800.476
17408.087
30701.846
98591.767
98882.899
30792.713
17472.769
12853.294
2136.4058
2146.0574
12908.024
17539.995
30887.713
99185.909
99501.845
30987.183
17610.05
12964.881
2155.9118
2165.9724
13023.944
17683.058
31091.451
99831.805
100176.91
31200.911
17759.297
13085.421
2176.2465
2186.7385
13149.452
17838.967
31315.958
100538.48
100917.95
31437.1
17922.386
13216.277
2197.4542
2208.3999
13286.107
18009.861
31564.893
101316.98
101737.64
31699.993
18101.776
13359.219
2219.5805
2230.9945
13435.911
18198.555
31843.138
102182.19
102653.57
31995.253
18300.686
13516.53
2242.6324
2254.4763
13601.484
18408.765
32157.384
103155.19
103691.27
32330.827
18523.485
13691.258
2266.4896
2278.6091
13786.497
18645.774
32517.22
104267.03
104889.13
32718.657
18776.79
13888.014
2290.7254
2302.6616
13997.063
18918.255
32937.857
105566.11
106309.47
33179.188
19072.947
14115.689
2314.1458
2324.7315
14247.335
19245.571
33449.985
107138.12
108085.3
33760.486
19443.214
14397.279
2333.6473
2339.8125
14574.684
19679.1
34126.231
109198.64
110585.11
34613.143
19981.747
14792.177
2341.4131
2331.3575
15027.828
20351.377
35336.473
112585.4
115609.6
36045.273
20614.252
15151.686
2294.1065
2226.3577
15028.973
20499.237
35912.806
118755.66
120655.51
36597.134
20808.92
15111.956
2195.7212
2178.6006
15727.199
21588.424
37867.772
124040.85
1018.0254
607.86698
820.50143
2057.8959
15951.752
21624.56
37783.388
124564.48
123429.39
37116.032
21051.066
15176.586
2163.4245
133009.53
39227.155
21527.678
14886.603
2877.7962
3194.0501
15200.892
21828.236
39446.976
131674.89
132468.92
39999.806
22037.774
15285.901
3204.9595
2503.0146
15350.321
21761.827
38912.427
128631.15
1471.7998
1267.5603
677.44991
840.67459
180.65603
191.01655
189.48454
180.65573
179.70271
184.54864
184.60322
179.34983
96489.78
30066.653
16963.574
12453.156
2045.8253
2053.866
12493.654
17011.854
30131.696
96708.462
96933.956
30199.118
17061.807
12535.464
2062.0724
2070.4514
12578.497
17113.371
30269.151
97166.576
97406.898
30341.929
17166.815
12622.987
2079.0079
2087.7442
12668.858
17222.074
30417.627
97655.427
97912.763
30496.486
17279.436
12716.346
2096.669
2105.7855
12765.42
17338.889
30578.698
98179.544
98456.674
30664.516
17400.692
12816.289
2115.0974
2124.6072
12868.957
17464.876
30754.174
98744.845
99045.015
30848.005
17531.721
12923.638
2134.322
2144.2466
12980.399
17601.329
30946.302
99358.125
99685.209
31049.402
17673.967
13039.447
2154.3886
2164.7556
13100.904
17749.82
31157.701
100027.3
100385.86
31271.666
17829.205
13165.008
2175.3551
2186.1929
13231.947
17912.381
31391.786
100762.34
101158.45
31518.647
17999.713
13301.986
2197.2759
2208.6074
13375.389
18091.574
31652.912
101576.22
102018.03
31795.357
18188.411
13452.479
2220.1862
2232.0038
13533.621
18290.741
31946.88
102486.7
102985.75
32108.601
18399.166
13619.231
2244.0396
2256.2548
13709.829
18514.42
32281.776
103519.17
104092.05
32468.085
18637.417
13806.053
2268.5822
2280.9079
13908.803
18769.414
32669.607
104710.74
105383.49
32889.267
18912.2
14019.377
2293.045
2304.6941
14139.958
19068.763
33131.679
106121.88
106946.11
33404.604
19243.85
14273.954
2315.3535
2324.1987
14426.58
19444.778
33719.387
107892
109008.73
34096.305
19684.632
14606.201
2330.1425
2331.3267
14821.087
19984.72
34586.222
110399.2
112432.11
35266.833
20325.689
15038.648
2319.8408
2283.6915
15139.971
20539.113
35799.159
115368.87
118320.51
35863.129
20501.498
15044.485
2223.8354
2192.8738
15271.992
20840.08
36483.956
120086.2
123110.54
36988.851
20988.183
15144.853
2176.5236
16925.841
23117.766
40519.225
130529.95
127759.57
40788.601
23481.845
17342.971
2096.5878
2389.9541
16610.015
23023.71
40405.557
126982.57
127696.65
38630.017
21676.706
15278.679
2536.496
2193.01
15959.548
21921.33
38156.727
123481.47
123111.32
36987.559
20986.543
15143.166
2175.4638
2192.0185
15270.25
20838.611
36483.033
120087.25
118320.78
35862.192
20500.178
15042.99
2223.1209
2283.0668
15138.646
20537.741
35797.777
115368.12
112430.1
35265.829
20324.555
15037.508
2319.2987
2330.8487
14819.984
19983.559
34584.973
110396.73
109005.96
34094.927
19683.434
14605.105
2329.7171
2323.8178
14425.519
19443.605
33718.031
107888.97
106942.82
33403.244
19242.701
14272.926
2315.0079
2304.3749
14138.947
19067.617
33130.29
106118.41
105379.95
32887.876
18911.063
14018.378
2292.743
2280.6177
13907.811
18768.276
32668.209
104707.22
104088.62
32466.679
18636.276
13805.061
2268.2994
2255.9777
13708.842
18513.285
32280.392
103515.86
102982.59
32107.235
18398.04
13618.25
2243.7662
2231.7341
13532.656
18289.637
31945.567
102483.75
102015.2
31794.074
18187.328
13451.533
2219.9205
2208.3471
13374.465
18090.52
31651.689
101573.5
101155.86
31517.482
17998.694
13301.086
2197.0225
2185.9479
13231.082
17911.408
31390.696
100759.74
100383.25
31270.62
17828.267
13164.174
2175.1201
2164.5324
13100.094
17748.915
31156.687
100024.63
99682.399
31048.424
17673.09
13038.664
2154.1781
2144.0476
12979.642
17600.476
30945.336
99355.234
99042.013
30847.068
17530.896
12922.91
2134.135
2124.4328
12868.249
17464.081
30753.28
98741.731
98453.375
30663.608
17399.908
12815.598
2114.9356
2105.6361
12764.745
17338.126
30577.815
98176.082
97909.114
30495.579
17278.676
12715.682
2096.5316
2087.6157
12668.2
17221.321
30416.737
97651.636
97402.989
30341.006
17166.054
12622.336
2078.8874
2070.3362
12577.85
17112.616
30268.22
97162.514
96929.771
30198.173
17061.049
12534.827
2061.9615
2053.7525
12493.016
17011.088
30130.721
96704.151
96485.195
30065.755
16962.861
12452.573
2045.7147
2037.8216
12413.162
16915.987
30002.918
96272.375
2057.9503
12435.376
16966.237
30093.266
96601.888
96822.278
30159.487
17015.096
12476.14
2066.0043
2074.2174
12517.989
17065.367
30227.955
97049.574
97284.052
30299.035
17117.427
12561.226
2082.6056
2091.1685
12605.742
17171.169
30372.825
97526.111
97776.443
30449.547
17226.881
12651.775
2099.9132
2108.843
12699.255
17284.505
30529.363
98035.53
98304.147
30612.492
17344.313
12748.407
2117.9648
2127.2817
12799.219
17406.319
30699.185
98582.971
98872.822
30789.734
17470.795
12851.906
2136.8033
2146.5354
12906.486
17537.791
30884.356
99174.541
99489.116
30983.419
17607.584
12963.176
2156.4836
2166.6546
13022.054
17680.304
31087.245
99817.493
100160.98
31196.195
17756.212
13083.323
2177.0577
2187.7004
13147.126
17835.521
31310.708
100520.84
100898.5
31431.265
17918.546
13213.705
2198.5935
2209.7467
13283.258
18005.572
31558.405
101295.76
101714.65
31692.825
18096.994
13356.066
2221.1694
2232.8631
13432.416
18193.211
31835.212
102157.58
102627.55
31986.533
18294.726
13512.66
2244.826
2257.0443
13597.202
18402.111
32147.785
103128.06
103663.68
32320.342
18516.069
13686.518
2269.4881
2282.0941
13781.249
18637.518
32505.843
104239.87
104863.7
32706.377
18767.57
13882.167
2294.7542
2307.2846
13990.442
18907.856
32924.624
105544.19
106293.08
33164.64
19060.902
14107.93
2319.3998
2330.6319
14237.762
19230.925
33432.957
107128.68
108081.29
33737.67
19424.243
14384.863
2340.1827
2346.9432
14558.564
19653.696
34087.702
109190.6
110580.98
34574.896
19952.48
14772.202
2348.8605
2337.582
14992.229
20299.527
35279.365
112604.76
115546.56
35824.88
20524.172
15100.437
2301.2961
2233.3822
14987.917
20473.35
35802.664
118450.26
119847.68
36870.076
21168.796
15587.004
2203.722
2190.8617
15487.822
21455.475
37987.546
126790.61
132587.01
39503.183
22024.034
15618.687
2241.2721
2066.147
16032.082
21732.751
37948.115
124653.51
122323.55
37020.557
21075.072
15254.637
2153.3503
2159.6025
15323.433
21069.77
36897.574
121318.23
122427.78
38128.761
21985.236
16365.658
2062.5524
2179.8698
15725.02
21584.838
37866.095
124019.53
125412.44
37799.349
21417.486
15513.872
2179.1844
2058.4929
15946.98
21617.74
37777.681
124566.46
123420.93
37109.191
21046.497
15173.821
2163.4075
2184.4998
15396.247
20957.535
36617.676
119764.95
118040.82
35837.938
20513.34
15064.292
2215.7093
2275.6377
15121.722
20509.828
35743.467
115273.91
112380.51
35260.454
20319.085
15031.344
2314.8121
2327.8548
14819.173
19984.891
34589.199
110375.24
108998.95
34099.878
19686.31
14606.168
2327.5365
2322.1344
14427.125
19446.669
33722.736
107888.96
106947.22
33407.228
19245.379
14274.457
2313.6225
2303.1846
14140.241
19069.839
33133.683
106125.92
105389.37
32890.868
18912.934
14019.471
2291.7057
2279.7146
13908.772
18769.919
32670.929
104717.44
104098.93
32469.19
18637.762
13805.943
2267.5174
2255.3055
13709.665
18514.645
32282.689
103525.78
102991.84
32109.349
18399.298
13619.03
2243.193
2231.249
13533.396
18290.8
31947.492
102492.23
102022.88
31795.834
18188.404
13452.231
2219.5124
2208.005
13375.119
18091.507
31653.275
101580.42
101162
31518.919
17999.598
13301.696
2196.7375
2185.7105
13231.64
17912.219
31391.955
100765.29
100388.22
31271.756
17829.006
13164.691
2174.9231
2164.37
13100.575
17749.594
31157.728
100029.06
99686.353
31049.348
17673.707
13039.109
2154.0448
2143.9396
12980.053
17601.042
30946.178
99358.747
99045.099
30847.837
17531.418
12923.292
2134.0493
2124.3656
12868.599
17464.551
30753.949
98744.397
98455.728
30664.219
17400.337
12815.922
2114.8845
2105.597
12765.043
17338.513
30578.343
98178.227
97911.077
30496.095
17279.042
12715.964
2096.5026
2087.5953
12668.467
17221.662
30417.204
97653.41
97404.559
30341.434
17166.372
12622.585
2078.8729
2070.326
12578.084
17112.908
30268.607
97163.915
96931.047
30198.518
17061.314
12535.044
2061.952
2053.741
12493.216
17011.324
30131.014
96705.388
96486.571
30065.958
16963.04
12452.735
2045.6951
2037.8015
12413.317
16916.17
30003.201
96274.025
2045.7715
12453.26
16963.708
30066.882
96490.77
96709.543
30131.96
17012.111
12493.868
2053.8226
2062.0315
12535.608
17062
30199.448
96935.106
97167.964
30269.532
17113.685
12578.744
2070.4113
2078.9616
12623.18
17167.081
30342.379
97408.531
97657.338
30418.157
17222.459
12669.146
2087.6914
2096.6047
12716.595
17279.785
30497.059
97914.916
98182.04
30579.326
17339.334
12765.747
2105.7084
2115.0041
12816.599
17401.134
30665.232
98459.447
98748.072
30754.999
17465.422
12869.343
2124.4948
2134.1857
12924.015
17532.265
30848.894
99048.682
99362.197
30947.272
17601.956
12980.836
2144.085
2154.1968
13039.898
17674.632
31050.48
99689.669
100032.4
31158.913
17750.582
13101.418
2164.5286
2175.0862
13165.547
17830.016
31272.996
100391.61
100768.73
31393.258
17913.282
13232.542
2185.8772
2196.9061
13302.623
18000.695
31520.263
101165.54
101584.04
31654.697
18092.652
13376.08
2208.1748
2219.6811
13453.225
18189.597
31797.321
102026.56
102496
31949.053
18292.038
13534.421
2231.4144
2243.3548
13620.1
18400.59
32110.961
102995.67
103529.65
32284.392
18515.987
13710.769
2255.463
2267.6718
13807.099
18639.17
32470.939
104102.75
104721.1
32672.753
18771.38
13909.969
2279.8668
2291.8584
14020.743
18914.487
32892.74
105392.65
106128.7
33135.609
19071.468
14141.581
2303.3389
2313.7819
14275.927
19247.161
33409.226
106949.22
107890.06
33724.935
19448.669
14428.767
2322.2996
2327.7024
14608.072
19688.671
34102.498
108999.31
110375.55
34592.622
19987.622
14821.306
2328.0032
2314.9344
15033.662
20322.046
35263.714
112380.6
115275.94
35747.526
20513.154
15124.073
2275.6753
2215.8156
15066.81
20517.084
35843.474
118041.9
119766.85
36623.634
20961.493
15398.712
2184.5655
2036.167
15842.949
21215.546
36655.987
119639.67
116789.57
35891.551
20792.673
15559.712
2040.4929
2079.292
15415.116
20600.569
35529.476
113872.29
111229.37
34976.216
20300.452
15215.523
2102.7254
2109.0132
14969.74
19944.867
34326.168
109449.81
108192.49
33869.983
19654.98
14753.807
2107.1303
2102.2909
14579.571
19428.301
33518.617
107136.83
106216.38
33220.662
19238.003
14432.386
2095.4237
2087.1584
14302.683
19070.979
32959.594
105401.25
104664.46
32727.064
18921.043
14185.568
2078.0803
2068.5221
14077.758
18783.765
32515.853
103990.48
103370.53
32321.773
18656.392
13977.181
2058.6852
2048.7109
13882.673
18537.363
32142.27
102797.68
102265.95
31975.554
18425.627
13793.469
2038.7026
2028.7303
13709.033
18320.403
31820.065
101770.28
101306.31
31674.568
18221.013
13628.89
2018.8411
2009.0651
13552.665
18126.903
31537.966
100870.42
100459.51
31409.373
18037.594
13480.015
1999.4224
1989.9252
13410.645
17952.67
31288.065
100071.02
99702.818
31173.349
17871.778
13344.307
1980.5808
1971.3924
13280.752
17794.583
31064.682
99352.935
99019.854
30961.565
17720.827
13219.803
1962.3614
1953.4875
13161.23
17650.212
30863.553
98702.134
98398.507
30770.249
17582.564
13104.923
1944.7705
1936.2091
13050.674
17517.631
30681.345
98107.838
97829.191
30596.501
17455.304
12998.428
1927.8028
1919.5472
12947.96
17395.306
30515.412
97561.59
97304.28
30437.831
17337.612
12899.277
1911.444
1903.4903
12852.153
17281.955
30363.512
97056.397
96817.145
30292.222
17228.356
12806.644
1895.6879
1888.03
12762.491
17176.524
30223.76
96585.913
96362.213
30157.903
17126.515
12719.784
1880.5167
1873.1419
12678.259
17078.046
30094.506
96145.46
95935.18
30033.332
17031.186
12638.029
1865.9017
1865.9734
12637.862
17031.048
30033.388
95934.316
96143.71
30094.177
17077.794
12678.04
1873.2156
1880.5951
12719.34
17125.982
30157.278
96359.668
96582.69
30222.9
17175.943
12762.038
1888.1238
1895.7994
12806.023
17227.568
30291.172
96813.207
97051.762
30362.28
17281.141
12851.535
1903.6275
1911.6098
12898.516
17336.617
30436.425
97298.817
97555.208
30513.828
17394.269
12947.187
1919.7504
1928.0472
12997.523
17454.088
30594.704
97821.723
98099.224
30679.33
17516.347
13049.739
1936.5054
1945.126
13103.868
17581.111
30767.999
98388.514
98690.676
30861.019
17648.651
13160.12
1953.9129
1962.8676
13218.572
17719.082
30958.736
99006.732
99337.889
31061.537
17792.694
13279.444
1971.9947
1981.2957
13342.879
17869.691
31169.822
99685.512
100051.21
31284.111
17950.391
13409.117
1990.7735
2000.4281
13478.363
18035.086
31404.941
100436.76
100844.29
31532.976
18124.148
13550.889
2010.2583
2020.2582
13626.988
18217.985
31668.934
101276.24
101735.67
31813.741
18317.083
13707.002
2030.4168
2040.7134
13791.329
18422.011
31968.433
102226.05
102751.51
32134.261
18533.402
13880.411
2051.1121
2061.5591
13974.838
18652.08
32312.682
103316.91
103928.08
32505.543
18779.088
14075.379
2071.9724
2082.2401
14183.355
18916.148
32715.45
104591.73
105316.97
32946.816
19066.193
14301.014
2092.1953
2101.554
14432.185
19234.285
33207.529
106120.42
107032.48
33507.481
19427.69
14582.641
2109.8026
2116.4248
14763.505
19661.506
33866.387
108092.35
109388.6
34338.413
19963.979
14990.898
2120.6213
2117.816
15257.061
20341.36
35003.111
111250.57
114055.15
35667.359
20704.412
15496.479
2100.5963
2071.5714
15659.699
21015.407
36426.508
117608.96
121233.32
36652.035
21053.631
15560.47
2051.7658
2074.3927
15966.842
21637.025
37767.634
124286.73
131392.13
39250.63
22030.266
15782.731
2247.1292
2194.7707