/*--------------------------------*- C++ -*----------------------------------*\
  =========                 |
  \\      /  F ield         | OpenFOAM: The Open Source CFD Toolbox
   \\    /   O peration     | Website:  https://openfoam.org
    \\  /    A nd           | Version:  7
     \\/     M anipulation  |
\*---------------------------------------------------------------------------*/
FoamFile
{
    version     2.0;
    format      ascii;
    class       volScalarField;
    location    "360";
    object      rho;
}
// * * * * * * * * * * * * * * * * * * * * * * * * * * * * * * * * * * * * * //

dimensions      [1 -3 0 0 0 0 0];

internalField   nonuniform List<scalar> 
24789
(
1.1734701
1.1734932
1.1735086
1.1735197
1.1735716
1.1735445
1.1734895
1.1734778
1.1734616
1.1734373
1.1734027
1.1734281
1.1734451
1.1734576
1.1735165
1.173487
1.1734237
1.1734104
1.1733925
1.1733658
1.1733264
1.1733545
1.1733735
1.1733877
1.1734557
1.1734227
1.1733492
1.173334
1.1733138
1.1732842
1.1732388
1.1732702
1.1732917
1.173308
1.1733875
1.1733502
1.1732638
1.1732461
1.1732231
1.1731897
1.1731368
1.1731723
1.173197
1.1732161
1.1733103
1.1732675
1.1731645
1.1731437
1.1731171
1.1730791
1.1730163
1.1730572
1.1730859
1.1731086
1.1732217
1.1731725
1.1730477
1.1730229
1.1729918
1.1729476
1.1728724
1.1729202
1.1729542
1.1729815
1.1731194
1.173062
1.1729089
1.1728788
1.1728416
1.1727895
1.1726981
1.172755
1.1727959
1.1728293
1.1729998
1.1729321
1.1727416
1.1727044
1.1726592
1.1725968
1.1724843
1.1725531
1.1726032
1.1726447
1.1728583
1.1727774
1.1725372
1.1724907
1.172435
1.1723587
1.1722184
1.1723032
1.1723655
1.1724178
1.1726885
1.1725903
1.1722844
1.1722255
1.1721556
1.1720609
1.171884
1.17199
1.1720686
1.1721351
1.1724813
1.1723598
1.1719676
1.1718923
1.1718038
1.171685
1.1714613
1.1715944
1.171694
1.1717792
1.1722233
1.172069
1.1715671
1.171471
1.171359
1.1712101
1.1709286
1.1710944
1.1712196
1.1713277
1.1718923
1.1716883
1.1710577
1.170937
1.1707978
1.170615
1.1702749
1.1704741
1.170627
1.1707604
1.1714564
1.1711817
1.1704297
1.1702845
1.1701195
1.1699068
1.1694796
1.1696963
1.1698683
1.1700217
1.1708107
1.170443
1.1696192
1.1694619
1.169295
1.1691021
1.1691614
1.1692805
1.1694279
1.1695855
1.1704382
1.1695602
1.1689114
1.1687877
1.1686864
1.1686455
1.1632099
1.1634953
1.163711
1.1639548
1.1660531
1.1702252
1.1697157
1.1695917
1.1694634
1.1692709
1.1712055
1.1714201
1.1715213
1.171633
1.1721027
1.1740868
1.1736984
1.1735956
1.173475
1.1732684
1.1774323
1.1777899
1.1780364
1.1782316
1.1782741
1.1733855
1.171228
1.1709942
1.1707929
1.1704096
1.1718012
1.1719521
1.1719885
1.172
1.1721858
1.1692261
1.1667197
1.1663888
1.1660588
1.1656168
1.1647748
1.1649327
1.1650488
1.1652015
1.1667046
1.1696418
1.1688182
1.1686915
1.1685805
1.1685131
1.1690202
1.1691516
1.1693004
1.1694551
1.1704271
1.1704555
1.1695193
1.1693643
1.1692006
1.169013
1.1693865
1.1695946
1.1697635
1.1699159
1.1708292
1.1712015
1.17032
1.1701744
1.1700108
1.169805
1.1701684
1.1703603
1.1705128
1.1706482
1.1714745
1.1717026
1.170943
1.1708187
1.1706773
1.1704952
1.1708012
1.1709699
1.1710996
1.1712127
1.1719031
1.1720772
1.1714541
1.171352
1.1712341
1.17108
1.1713316
1.1714717
1.1715783
1.1716701
1.1722296
1.1723648
1.1718639
1.1717815
1.1716854
1.1715585
1.1717626
1.1718774
1.1719639
1.1720377
1.1724855
1.1725938
1.1721938
1.1721277
1.1720498
1.1719459
1.1721108
1.1722048
1.172275
1.1723341
1.1726916
1.1727802
1.1724606
1.1724076
1.1723442
1.172259
1.1723926
1.17247
1.1725271
1.1725748
1.1728609
1.1729346
1.172678
1.1726352
1.1725834
1.1725129
1.1726218
1.172686
1.1727331
1.1727717
1.1730021
1.1730642
1.1728568
1.1728219
1.1727791
1.1727203
1.1728097
1.1728637
1.1729028
1.1729344
1.1731215
1.1731744
1.1730052
1.1729765
1.1729406
1.1728909
1.172965
1.173011
1.1730439
1.1730701
1.1732235
1.1732692
1.1731296
1.1731056
1.1730752
1.1730326
1.1730946
1.1731343
1.1731624
1.1731844
1.1733118
1.1733516
1.1732349
1.1732146
1.1731885
1.1731514
1.1732038
1.1732385
1.1732628
1.1732816
1.1733889
1.1734239
1.1733249
1.1733075
1.1732847
1.1732521
1.1732968
1.1733277
1.173349
1.1733652
1.1734568
1.173488
1.1734029
1.1733878
1.1733676
1.1733384
1.1733772
1.1734049
1.173424
1.1734381
1.1735174
1.1735454
1.1734715
1.1734581
1.17344
1.1734137
1.1734481
1.1734732
1.1734903
1.1735028
1.1735723
1.1735487
1.1734755
1.1734624
1.1734446
1.1734186
1.1733828
1.17341
1.1734287
1.1734427
1.1735204
1.1734911
1.1734077
1.1733928
1.173373
1.1733442
1.1733032
1.1733335
1.1733545
1.1733704
1.1734602
1.1734275
1.1733305
1.1733134
1.173291
1.1732589
1.1732112
1.1732454
1.1732693
1.1732877
1.1733927
1.1733558
1.1732415
1.1732216
1.173196
1.1731596
1.1731035
1.1731425
1.1731701
1.1731917
1.1733163
1.1732741
1.1731376
1.1731141
1.1730843
1.1730424
1.1729758
1.1730209
1.1730532
1.1730789
1.1732289
1.1731802
1.1730149
1.1729867
1.1729516
1.1729028
1.1728228
1.1728757
1.172914
1.172945
1.1731278
1.1730711
1.1728684
1.1728343
1.1727924
1.1727347
1.1726376
1.1727007
1.1727467
1.1727844
1.1730096
1.1729427
1.172692
1.1726501
1.1725994
1.1725304
1.1724117
1.1724876
1.1725435
1.1725901
1.1728697
1.1727898
1.1724773
1.1724255
1.1723636
1.17228
1.1721338
1.172226
1.1722946
1.1723524
1.1727019
1.172605
1.1722138
1.1721492
1.172073
1.1719713
1.1717904
1.1719029
1.1719875
1.1720595
1.1724974
1.1723776
1.1718878
1.1718074
1.1717134
1.1715891
1.1713655
1.1715026
1.1716067
1.1716963
1.1722433
1.172092
1.1714829
1.1713833
1.1712683
1.1711175
1.1708431
1.1710079
1.1711343
1.1712445
1.1719191
1.1717197
1.1709778
1.1708569
1.1707193
1.1705423
1.1702197
1.1704058
1.1705539
1.1706854
1.171492
1.1712228
1.1703629
1.1702217
1.1700633
1.169864
1.1694617
1.1696605
1.169823
1.1699703
1.1708589
1.1704524
1.1695514
1.1694032
1.1692478
1.1690709
1.1690413
1.1691578
1.1692942
1.169441
1.1703858
1.1699182
1.1691109
1.1689845
1.1688787
1.168839
1.1656588
1.1657882
1.1658708
1.1659808
1.1669412
1.1673029
1.1629584
1.1624743
1.1620148
1.1613763
1.1789391
1.1788607
1.1787397
1.1785437
1.1762376
1.1725556
1.1705281
1.1702678
1.1700526
1.1696553
1.1769538
1.1773711
1.1776282
1.1778294
1.1775927
1.1739985
1.1739731
1.173924
1.1738417
1.1736331
1.1776245
1.177636
1.1775542
1.1773918
1.1758693
1.1671854
1.1636981
1.1632187
1.1627394
1.1621142
1.1650778
1.1652232
1.1653045
1.1654196
1.1664634
1.1696536
1.1689439
1.1688178
1.1687144
1.1686731
1.1689769
1.1691106
1.1692575
1.1694112
1.1702638
1.1703805
1.1695616
1.1694059
1.1692373
1.1690345
1.1694653
1.1696908
1.1698642
1.1700162
1.1708048
1.1711759
1.1704321
1.1702904
1.1701279
1.1699175
1.1702966
1.1704915
1.1706399
1.1707688
1.1714508
1.1716848
1.1710703
1.1709546
1.1708206
1.1706433
1.1709578
1.1711172
1.1712371
1.1713402
1.1718887
1.1720654
1.1715781
1.1714866
1.1713798
1.1712373
1.1714852
1.1716123
1.1717072
1.1717882
1.17222
1.1723572
1.1719749
1.1719031
1.1718187
1.1717054
1.1719007
1.172002
1.1720772
1.1721408
1.1724794
1.172589
1.1722886
1.172232
1.172165
1.1720742
1.1722287
1.1723103
1.1723704
1.1724207
1.1726877
1.1727771
1.1725392
1.1724943
1.1724403
1.1723666
1.1724902
1.172557
1.1726057
1.1726459
1.1728584
1.1729326
1.1727423
1.172706
1.172662
1.1726011
1.1727011
1.1727567
1.1727967
1.1728294
1.1730004
1.1730628
1.1729087
1.1728791
1.1728426
1.1727915
1.1728736
1.1729206
1.1729541
1.172981
1.1731202
1.1731734
1.1730471
1.1730226
1.1729918
1.1729482
1.1730164
1.1730569
1.1730853
1.1731077
1.1732226
1.1732684
1.1731636
1.173143
1.1731166
1.1730788
1.1731362
1.1731716
1.1731961
1.1732151
1.173311
1.1733509
1.1732627
1.1732452
1.1732222
1.173189
1.1732379
1.1732692
1.1732906
1.1733069
1.1733882
1.1734233
1.1733481
1.1733329
1.1733127
1.1732831
1.1733252
1.1733533
1.1733723
1.1733865
1.1734562
1.1734874
1.1734225
1.1734092
1.1733912
1.1733645
1.1734014
1.1734268
1.1734439
1.1734564
1.1735169
1.1735454
1.1734884
1.1734765
1.1734603
1.173436
1.173442
1.173466
1.1734819
1.1734935
1.1735478
1.1735196
1.1734618
1.1734495
1.1734327
1.1734076
1.173371
1.1733974
1.1734151
1.1734282
1.1734903
1.1734593
1.1733925
1.1733786
1.1733598
1.173332
1.1732902
1.1733195
1.1733395
1.1733544
1.1734264
1.1733916
1.1733136
1.1732975
1.1732763
1.1732452
1.1731968
1.1732298
1.1732524
1.1732698
1.1733545
1.1733149
1.1732225
1.1732037
1.1731793
1.1731442
1.1730872
1.1731248
1.173151
1.1731714
1.1732725
1.173227
1.173116
1.1730937
1.1730654
1.173025
1.172957
1.1730006
1.1730314
1.1730558
1.1731781
1.1731254
1.1729901
1.1729633
1.1729298
1.1728826
1.1728006
1.172852
1.1728886
1.1729183
1.1730684
1.1730066
1.1728394
1.1728065
1.1727662
1.1727101
1.17261
1.1726716
1.1727161
1.1727526
1.1729394
1.1728659
1.1726566
1.1726158
1.1725664
1.1724985
1.1723745
1.1724497
1.1725046
1.1725503
1.1727856
1.1726972
1.172432
1.1723807
1.1723193
1.1722356
1.17208
1.1721734
1.1722421
1.1723
1.1725995
1.1724911
1.1721522
1.1720869
1.1720096
1.171905
1.1717083
1.1718254
1.1719124
1.1719863
1.1723701
1.1722341
1.1717997
1.1717161
1.1716183
1.1714871
1.1712388
1.1713854
1.1714953
1.1715895
1.1720802
1.1719038
1.171352
1.1712462
1.1711234
1.1709605
1.1706503
1.1708298
1.1709659
1.1710839
1.1716997
1.1714668
1.1707881
1.170658
1.1705088
1.1703136
1.1699504
1.1701583
1.1703189
1.1704599
1.1711917
1.1708209
1.1700563
1.1699079
1.1697412
1.1695296
1.1691414
1.1693297
1.1694906
1.1696415
1.1704363
1.1703994
1.1695693
1.1694207
1.1692815
1.1691672
1.1688358
1.1688654
1.1689456
1.1690479
1.1696059
1.1661798
1.1644332
1.1642327
1.1640701
1.1638418
1.1666156
1.1669861
1.167231
1.1674799
1.1693058
1.1743384
1.1753474
1.1753751
1.1753632
1.1752752
1.1713802
1.1716284
1.171748
1.1718697
1.1729084
1.1785783
1.1786128
1.1784262
1.1781857
1.1777922
1.1816305
1.1836112
1.1839259
1.1841674
1.1842917
1.1841184
1.1841019
1.1840974
1.1839434
1.1808743
1.1788776
1.1790656
1.1789598
1.1788505
1.1786432
1.1768893
1.1770574
1.1771722
1.1772478
1.1769668
1.174992
1.1755059
1.1755331
1.1755053
1.1754107
1.1736282
1.173857
1.1739945
1.1740625
1.1741387
1.1677065
1.1654987
1.1651883
1.1648976
1.1644217
1.1651202
1.165243
1.1653299
1.165462
1.1665957
1.1696483
1.1690029
1.1688859
1.16879
1.1687601
1.1691057
1.1692208
1.1693569
1.1695017
1.1702889
1.1703909
1.169624
1.1694771
1.1693205
1.1691383
1.1695529
1.1697551
1.1699161
1.1700595
1.1708041
1.1711737
1.1704655
1.1703308
1.1701776
1.1699804
1.1703458
1.1705297
1.1706707
1.1707941
1.1714482
1.1716812
1.1710884
1.170977
1.170849
1.170681
1.1709864
1.1711383
1.1712535
1.1713531
1.171885
1.1720617
1.1715873
1.1714985
1.1713954
1.1712587
1.1715012
1.1716237
1.1717158
1.1717947
1.1722166
1.1723539
1.171979
1.1719088
1.1718266
1.1717167
1.1719085
1.1720072
1.1720806
1.1721431
1.1724762
1.172586
1.1722897
1.172234
1.1721682
1.1720794
1.1722318
1.172312
1.1723711
1.1724208
1.1726849
1.1727746
1.1725387
1.1724942
1.1724409
1.1723683
1.1724906
1.1725566
1.1726048
1.1726448
1.172856
1.1729303
1.1727408
1.1727047
1.172661
1.1726007
1.1727002
1.1727554
1.1727953
1.1728278
1.1729983
1.1730609
1.172907
1.1728774
1.172841
1.1727902
1.172872
1.1729189
1.1729524
1.1729792
1.1731185
1.1731718
1.1730453
1.1730208
1.17299
1.1729465
1.1730147
1.1730552
1.1730836
1.1731061
1.1732212
1.173267
1.1731619
1.1731412
1.1731148
1.173077
1.1731345
1.1731699
1.1731945
1.1732135
1.1733098
1.1733497
1.1732612
1.1732436
1.1732206
1.1731873
1.1732362
1.1732676
1.1732891
1.1733055
1.1733871
1.1734223
1.1733468
1.1733315
1.1733112
1.1732815
1.1733238
1.173352
1.1733711
1.1733853
1.1734554
1.1734866
1.1734214
1.1734081
1.17339
1.1733632
1.1734003
1.1734258
1.1734429
1.1734554
1.1735162
1.1735449
1.1734876
1.1734757
1.1734595
1.1734351
1.1734148
1.173441
1.1734589
1.1734722
1.1735463
1.1735181
1.1734392
1.1734251
1.1734061
1.1733785
1.1733398
1.1733688
1.1733889
1.1734039
1.1734887
1.1734576
1.1733664
1.1733502
1.1733289
1.1732982
1.1732536
1.1732861
1.1733088
1.1733261
1.1734247
1.1733897
1.1732829
1.1732642
1.1732399
1.1732053
1.1731531
1.17319
1.173216
1.1732363
1.1733525
1.1733128
1.1731858
1.1731639
1.1731359
1.1730963
1.1730345
1.173077
1.1731072
1.1731311
1.1732703
1.1732247
1.1730717
1.1730455
1.1730127
1.1729668
1.1728928
1.1729425
1.1729782
1.1730069
1.1731757
1.1731228
1.1729361
1.1729045
1.1728655
1.1728116
1.1727222
1.172781
1.1728237
1.1728586
1.1730656
1.1730036
1.1727735
1.1727349
1.1726879
1.1726236
1.1725148
1.1725852
1.172637
1.1726798
1.1729362
1.1728627
1.1725765
1.1725288
1.1724716
1.1723942
1.1722605
1.1723458
1.1724091
1.1724622
1.1727821
1.1726936
1.1723356
1.1722764
1.1722061
1.172112
1.171947
1.172051
1.172129
1.1721951
1.1725959
1.1724877
1.1720389
1.171965
1.1718784
1.1717634
1.1715593
1.1716863
1.1717825
1.1718651
1.1723671
1.1722321
1.1716714
1.1715794
1.1714727
1.1713326
1.1710815
1.1712355
1.1713534
1.1714557
1.1720799
1.1719062
1.1712149
1.1711017
1.1709721
1.1708039
1.1705007
1.1706812
1.1708221
1.1709463
1.171706
1.1714784
1.1706533
1.1705182
1.1703665
1.1701773
1.1698201
1.1700225
1.1701846
1.1703296
1.1712068
1.1708387
1.1699361
1.169785
1.1696191
1.1694182
1.1690464
1.1692242
1.1693834
1.1695357
1.1704489
1.1703982
1.1694577
1.1693058
1.1691639
1.1690452
1.1687193
1.1687681
1.1688703
1.1689974
1.1697532
1.16689
1.1654873
1.1653389
1.1652139
1.1650496
1.1650812
1.1655199
1.1658097
1.1661219
1.1687183
1.1728714
1.1730997
1.1730676
1.1730074
1.172788
1.1699366
1.1703943
1.1707408
1.1710575
1.1736495
1.1786825
1.1824345
1.1828501
1.1831878
1.1834803
1.1729893
1.1732053
1.1733628
1.173486
1.1741958
1.1714035
1.1705075
1.1703485
1.1702167
1.1699087
1.1706705
1.1707482
1.1707739
1.1707876
1.1706414
1.1661236
1.1636284
1.1633197
1.163046
1.1627133
1.1687188
1.1687538
1.1688471
1.1689588
1.1695435
1.1704154
1.1695694
1.1694127
1.1692666
1.1691497
1.1690897
1.169282
1.1694489
1.1696066
1.1704334
1.1708098
1.1700159
1.1698616
1.1696887
1.1694715
1.169895
1.1701094
1.1702759
1.1704224
1.1711813
1.1714564
1.1707533
1.1706184
1.1704639
1.1702624
1.1706038
1.170789
1.1709297
1.1710518
1.1716889
1.1718931
1.1713229
1.1712136
1.1710869
1.1709191
1.1712023
1.171353
1.1714661
1.1715633
1.1720698
1.172224
1.1717762
1.1716902
1.1715896
1.171455
1.1716802
1.1718002
1.1718894
1.1719653
1.1723605
1.172482
1.1721335
1.1720665
1.1719873
1.1718804
1.1720583
1.1721537
1.1722241
1.1722833
1.1725909
1.1726891
1.1724171
1.1723646
1.1723019
1.1722165
1.1723577
1.1724343
1.1724904
1.172537
1.172778
1.1728589
1.1726447
1.1726031
1.1725528
1.1724836
1.1725966
1.1726592
1.1727045
1.1727417
1.1729327
1.1730003
1.1728296
1.1727961
1.1727552
1.1726981
1.1727898
1.1728419
1.1728792
1.1729093
1.1730625
1.1731199
1.1729819
1.1729546
1.1729206
1.1728727
1.1729481
1.1729923
1.1730234
1.1730482
1.173173
1.1732222
1.1731091
1.1730864
1.1730577
1.1730168
1.1730796
1.1731177
1.1731442
1.173165
1.1732679
1.1733106
1.1732165
1.1731974
1.1731728
1.1731372
1.1731903
1.1732237
1.1732466
1.1732643
1.1733505
1.1733879
1.1733085
1.1732922
1.1732707
1.1732392
1.1732847
1.1733143
1.1733345
1.1733497
1.173423
1.173456
1.1733882
1.173374
1.173355
1.1733268
1.1733663
1.173393
1.1734109
1.1734242
1.1734872
1.1735168
1.1734581
1.1734456
1.1734286
1.1734032
1.1734377
1.1734619
1.1734781
1.1734898
1.1735449
1.1735478
1.1734938
1.1734823
1.1734664
1.1734425
1.1734084
1.1734334
1.1734501
1.1734623
1.1735196
1.1734903
1.1734288
1.1734158
1.1733982
1.173372
1.1733332
1.1733608
1.1733794
1.1733932
1.1734593
1.1734265
1.1733553
1.1733405
1.1733207
1.1732917
1.1732471
1.1732778
1.1732988
1.1733147
1.1733917
1.1733547
1.1732711
1.173254
1.1732316
1.173199
1.1731472
1.1731818
1.1732058
1.1732243
1.1733152
1.1732728
1.1731735
1.1731535
1.1731277
1.1730907
1.1730295
1.1730691
1.1730968
1.1731187
1.1732275
1.1731788
1.1730591
1.1730353
1.1730053
1.1729626
1.1728894
1.1729354
1.172968
1.1729942
1.1731262
1.1730694
1.1729233
1.1728945
1.1728589
1.172809
1.1727204
1.1727747
1.1728137
1.1728455
1.1730078
1.1729408
1.17276
1.1727247
1.1726818
1.1726224
1.1725138
1.1725791
1.1726265
1.1726657
1.1728677
1.1727876
1.1725611
1.1725173
1.1724647
1.1723927
1.1722577
1.1723374
1.172396
1.172445
1.1726995
1.1726023
1.1723156
1.1722604
1.172195
1.1721063
1.1719364
1.1720353
1.1721086
1.1721707
1.1724944
1.1723738
1.1720081
1.1719381
1.1718558
1.1717453
1.1715303
1.1716538
1.1717461
1.1718252
1.1722385
1.1720853
1.171619
1.1715299
1.1714263
1.1712886
1.171017
1.17117
1.1712857
1.1713857
1.1719098
1.1717067
1.1711216
1.1710099
1.1708816
1.170713
1.1703806
1.1705642
1.1707051
1.1708285
1.1714747
1.1712009
1.1705014
1.1703671
1.1702148
1.1700184
1.1695954
1.1697977
1.1699571
1.1700992
1.1708334
1.1704355
1.1696712
1.1695255
1.1693696
1.1691838
1.1691599
1.1692817
1.1694208
1.1695686
1.170387
1.1697453
1.1691657
1.1690567
1.1689681
1.1689358
1.1644325
1.164632
1.1647643
1.1649259
1.166336
1.1680618
1.1652739
1.1648986
1.1645582
1.1640653
1.1781218
1.178064
1.1779777
1.1778293
1.1760282
1.1718534
1.1702126
1.1700188
1.1698777
1.169619
1.1742041
1.172988
1.1740027
1.173444
1.1716201
1.1714026
1.1711873
1.1708334
1.1758571
1.1759704
1.1759884
1.1759486
1.1754946
1.1804181
1.1805331
1.1805643
1.1804932
1.1800717
1.1770078
1.177785
1.177749
1.1776829
1.17745
1.1725632
1.1728966
1.17308
1.1733033
1.1744227
1.1770192
1.1771426
1.1770823
1.1769363
1.1766881
1.1772534
1.1805496
1.1765102
1.1774858
1.1738325
1.1738539
1.1737993
1.1738323
1.1738002
1.1737949
1.1738064
1.1737998
1.1734353
1.1734596
1.1734759
1.1734878
1.1735453
1.1735169
1.1734559
1.1734433
1.1734262
1.1734007
1.1733638
1.1733906
1.1734086
1.173422
1.1734874
1.1734562
1.173386
1.1733717
1.1733526
1.1733245
1.1732824
1.1733121
1.1733323
1.1733476
1.1734232
1.1733881
1.1733063
1.1732899
1.1732684
1.1732371
1.1731883
1.1732215
1.1732445
1.1732621
1.1733507
1.1733106
1.1732143
1.1731952
1.1731707
1.1731353
1.1730781
1.1731158
1.1731421
1.1731628
1.1732679
1.1732219
1.1731069
1.1730845
1.1730561
1.1730158
1.1729478
1.1729911
1.1730218
1.1730463
1.1731724
1.1731191
1.1729802
1.1729534
1.1729201
1.1728734
1.172792
1.1728425
1.1728788
1.1729082
1.1730614
1.1729989
1.1728293
1.1727969
1.1727573
1.1727025
1.1726037
1.1726634
1.1727068
1.1727426
1.1729307
1.1728563
1.172647
1.1726074
1.1725597
1.1724944
1.1723732
1.1724449
1.1724975
1.1725415
1.1727748
1.1726852
1.1724245
1.1723755
1.1723172
1.1722383
1.1720878
1.172175
1.1722397
1.1722944
1.1725862
1.1724764
1.1721493
1.172088
1.172016
1.1719194
1.1717307
1.1718379
1.1719182
1.1719869
1.172354
1.1722168
1.1718048
1.1717277
1.1716381
1.1715189
1.1712812
1.1714136
1.1715137
1.1716
1.1720619
1.1718851
1.1713689
1.1712723
1.1711609
1.1710142
1.1707153
1.1708768
1.1710001
1.1711076
1.171681
1.1714484
1.1708179
1.1706993
1.1705639
1.1703879
1.1700293
1.1702174
1.1703637
1.1704926
1.1711712
1.170793
1.1700832
1.1699469
1.1697945
1.1696033
1.1692284
1.169395
1.1695415
1.1696807
1.1704125
1.1703797
1.1696468
1.1695094
1.1693829
1.1692886
1.168612
1.1686353
1.1687198
1.1688255
1.1693741
1.1661313
1.1640338
1.1638035
1.1636159
1.1633806
1.1703825
1.1705179
1.1705531
1.1705938
1.1706015
1.1704772
1.1686817
1.1684393
1.1682089
1.1677593
1.1747012
1.1749654
1.1751332
1.1752115
1.1756177
1.1776925
1.1776697
1.1776761
1.1776176
1.1749364
1.1751634
1.1752991
1.1754986
1.1758151
1.1760449
1.1763907
1.1762142
1.1760743
1.1757506
1.1859399
1.1856293
1.185361
1.1849618
1.1814383
1.1803349
1.1823734
1.182493
1.1825464
1.1825881
1.1746875
1.1749519
1.175121
1.1752005
1.1756135
1.1704725
1.1686762
1.1684341
1.1682042
1.167755
1.17038
1.1705151
1.1705498
1.1705902
1.1705967
1.1661256
1.1640293
1.1637993
1.1636122
1.1633774
1.1686095
1.1686323
1.1687165
1.1688218
1.1693688
1.170374
1.1696425
1.1695054
1.1693793
1.1692855
1.1692246
1.1693908
1.1695372
1.1696763
1.1704071
1.1707877
1.1700785
1.1699423
1.1697901
1.1695991
1.1700248
1.1702128
1.1703589
1.1704878
1.1711661
1.1714435
1.1708131
1.1706945
1.1705592
1.1703834
1.1707104
1.1708719
1.1709952
1.1711028
1.1716764
1.1718807
1.1713641
1.1712675
1.171156
1.1710093
1.1712763
1.1714088
1.1715089
1.1715953
1.1720576
1.1722127
1.1718002
1.171723
1.1716333
1.171514
1.1717258
1.1718332
1.1719136
1.1719824
1.1723501
1.1724727
1.1721449
1.1720835
1.1720113
1.1719146
1.172083
1.1721704
1.1722352
1.1722901
1.1725826
1.1726817
1.1724203
1.1723711
1.1723126
1.1722335
1.1723686
1.1724404
1.1724932
1.1725374
1.1727715
1.1728531
1.1726429
1.1726031
1.1725553
1.1724897
1.1725992
1.1726591
1.1727027
1.1727386
1.1729276
1.1729958
1.1728254
1.1727928
1.1727531
1.172698
1.1727877
1.1728385
1.1728749
1.1729044
1.1730585
1.1731163
1.1729767
1.1729497
1.1729162
1.1728693
1.1729438
1.1729874
1.1730182
1.1730428
1.1731698
1.1732193
1.1731035
1.173081
1.1730524
1.1730118
1.1730743
1.1731123
1.1731388
1.1731595
1.1732653
1.1733082
1.1732112
1.173192
1.1731673
1.1731317
1.1731849
1.1732183
1.1732414
1.1732591
1.1733483
1.1733859
1.1733035
1.173287
1.1732654
1.1732338
1.1732793
1.1733092
1.1733295
1.1733449
1.1734211
1.1734542
1.1733835
1.1733691
1.1733499
1.1733216
1.1733612
1.1733881
1.1734063
1.1734197
1.1734855
1.1735151
1.1734537
1.173441
1.1734238
1.1733981
1.1734331
1.1734576
1.173474
1.1734859
1.1735432
1.1735702
1.1735163
1.1735051
1.1734895
1.1734661
1.1735472
1.1734925
1.1734809
1.1734649
1.1734408
1.1734066
1.1734318
1.1734487
1.173461
1.1735192
1.1734899
1.1734274
1.1734143
1.1733965
1.17337
1.173331
1.1733589
1.1733777
1.1733918
1.1734589
1.1734261
1.1733536
1.1733385
1.1733185
1.1732891
1.1732441
1.1732752
1.1732965
1.1733127
1.1733912
1.1733541
1.1732687
1.1732512
1.1732285
1.1731954
1.1731427
1.1731779
1.1732024
1.1732213
1.1733144
1.1732719
1.1731699
1.1731494
1.1731231
1.1730853
1.1730227
1.1730633
1.1730918
1.1731142
1.1732263
1.1731773
1.1730537
1.1730291
1.1729981
1.1729543
1.1728792
1.1729268
1.1729605
1.1729876
1.1731244
1.1730672
1.1729152
1.1728853
1.1728483
1.1727965
1.1727051
1.1727618
1.1728025
1.1728357
1.1730052
1.1729377
1.172748
1.172711
1.172666
1.1726037
1.1724911
1.1725598
1.1726098
1.1726512
1.1728641
1.1727834
1.1725436
1.1724972
1.1724415
1.1723652
1.1722244
1.1723094
1.1723718
1.172424
1.1726947
1.1725968
1.1722905
1.1722315
1.1721615
1.1720665
1.1718888
1.1719953
1.1720741
1.1721409
1.172488
1.1723668
1.1719731
1.1718975
1.1718085
1.171689
1.1714642
1.1715984
1.1716987
1.1717843
1.1722307
1.1720768
1.1715718
1.171475
1.1713622
1.171212
1.1709295
1.1710967
1.171223
1.171332
1.1719005
1.1716968
1.1710615
1.1709398
1.1707995
1.1706151
1.1702749
1.1704754
1.1706294
1.1707638
1.1714647
1.1711901
1.1704336
1.1702878
1.170122
1.1699088
1.1694873
1.1697032
1.1698751
1.1700285
1.1708189
1.1704432
1.1696208
1.1694642
1.1692986
1.169108
1.169171
1.1692859
1.1694305
1.1695859
1.1704258
1.1695537
1.1689777
1.1688679
1.1687769
1.1687443
1.1627508
1.1630783
1.1633484
1.1636545
1.1661365
1.1706591
1.1708206
1.1708104
1.1707892
1.1707181
1.1699533
1.1702549
1.1703818
1.1705373
1.1714175
1.1742114
1.1735204
1.1734003
1.1732469
1.1730453
1.1835535
1.1832483
1.1829022
1.1824795
1.1786989
1.173664
1.1711154
1.1708061
1.1704687
1.1700245
1.1754832
1.1755644
1.175582
1.1755465
1.1750093
1.1740281
1.1740291
1.1739882
1.1739141
1.173718
1.1696983
1.1700892
1.1703016
1.1705606
1.17258
1.1718546
1.1702064
1.1700127
1.1698728
1.1696165
1.1713119
1.1715724
1.1717005
1.17183
1.1729045
1.1734357
1.1715626
1.1713372
1.1711138
1.1707505
1.1757796
1.1759062
1.1759346
1.1759035
1.1754859
1.1706916
1.1689647
1.1686811
1.1683725
1.1678723
1.1701325
1.1702912
1.1703564
1.1704206
1.1706176
1.1660159
1.1638648
1.1636284
1.1634326
1.1631565
1.168598
1.1686354
1.1687307
1.16884
1.169381
1.1703798
1.1696317
1.1694899
1.1693588
1.1692577
1.1692001
1.1693716
1.1695217
1.1696637
1.1704037
1.1707886
1.1700741
1.1699361
1.1697815
1.1695872
1.1700188
1.1702087
1.1703564
1.1704864
1.171168
1.1714447
1.1708123
1.1706929
1.1705566
1.1703795
1.170708
1.1708703
1.1709942
1.1711022
1.1716772
1.1718814
1.1713639
1.171267
1.1711551
1.1710079
1.1712755
1.1714083
1.1715087
1.1715954
1.1720585
1.1722137
1.1718004
1.1717231
1.1716332
1.1715136
1.1717257
1.1718333
1.1719139
1.1719829
1.1723512
1.172474
1.1721455
1.172084
1.1720117
1.1719147
1.1720834
1.1721709
1.1722359
1.1722909
1.1725839
1.1726831
1.1724212
1.1723719
1.1723134
1.1722341
1.1723692
1.1724412
1.1724941
1.1725383
1.1727729
1.1728546
1.1726441
1.1726043
1.1725563
1.1724907
1.1726001
1.1726601
1.1727037
1.1727397
1.172929
1.1729972
1.1728265
1.172794
1.1727541
1.172699
1.1727887
1.1728396
1.172876
1.1729056
1.1730598
1.1731176
1.1729778
1.1729508
1.1729173
1.1728703
1.1729448
1.1729884
1.1730193
1.1730439
1.1731709
1.1732204
1.1731047
1.1730821
1.1730535
1.1730129
1.1730754
1.1731134
1.1731399
1.1731606
1.1732664
1.1733093
1.1732124
1.1731932
1.1731685
1.1731329
1.1731859
1.1732193
1.1732424
1.1732601
1.1733493
1.1733868
1.1733045
1.1732881
1.1732664
1.1732349
1.1732804
1.1733102
1.1733305
1.1733459
1.173422
1.1734551
1.1733845
1.1733701
1.1733509
1.1733227
1.1733623
1.1733891
1.1734073
1.1734207
1.1734863
1.1735159
1.1734547
1.173442
1.1734248
1.1733992
1.1734341
1.1734586
1.1734749
1.1734868
1.1735439
1.1735706
1.1735167
1.1735054
1.1734899
1.1734665
1.1735457
1.1734884
1.1734766
1.1734603
1.173436
1.1734013
1.1734268
1.1734439
1.1734564
1.1735172
1.1734877
1.1734225
1.1734091
1.173391
1.1733643
1.1733249
1.173353
1.1733721
1.1733864
1.1734565
1.1734235
1.1733479
1.1733326
1.1733124
1.1732827
1.1732374
1.1732688
1.1732903
1.1733067
1.1733883
1.1733509
1.1732624
1.1732447
1.1732217
1.1731885
1.1731358
1.1731711
1.1731957
1.1732147
1.173311
1.1732682
1.1731632
1.1731425
1.1731161
1.1730784
1.1730161
1.1730564
1.1730848
1.1731073
1.1732222
1.1731729
1.1730467
1.1730222
1.1729915
1.1729481
1.172874
1.1729207
1.172954
1.1729807
1.1731196
1.1730619
1.1729087
1.1728793
1.1728431
1.1727926
1.1727031
1.1727579
1.1727974
1.1728298
1.1729993
1.1729312
1.1727432
1.1727075
1.1726642
1.1726045
1.1724955
1.1725607
1.1726083
1.1726479
1.1728569
1.1727754
1.1725425
1.1724986
1.172446
1.1723745
1.1722401
1.1723188
1.1723769
1.1724258
1.1726858
1.1725868
1.172296
1.1722414
1.1721769
1.17209
1.1719222
1.1720184
1.1720901
1.1721512
1.172477
1.1723546
1.1719892
1.1719209
1.1718409
1.1717343
1.1715233
1.1716418
1.1717309
1.1718075
1.1722173
1.1720625
1.1716036
1.1715177
1.1714183
1.1712868
1.171021
1.1711666
1.1712772
1.1713732
1.1718856
1.1716819
1.1711129
1.1710061
1.1708836
1.1707233
1.1703974
1.1705721
1.1707066
1.1708245
1.1714496
1.1711735
1.1705006
1.1703723
1.1702268
1.1700397
1.1696119
1.1698026
1.1699547
1.1700905
1.1707943
1.17041
1.1696825
1.1695431
1.1693962
1.1692291
1.1692921
1.1693881
1.1695158
1.1696547
1.1703874
1.1693889
1.1688653
1.1687595
1.1686689
1.1686384
1.1632025
1.1634699
1.1636602
1.1638923
1.1660229
1.1706272
1.1704549
1.1703961
1.1703372
1.1701858
1.1679407
1.1684281
1.168728
1.1690046
1.1706998
1.1720692
1.1711652
1.1710452
1.1709133
1.1706709
1.1678214
1.1681089
1.1682792
1.1684662
1.1697731
1.1666472
1.1647441
1.1645473
1.1643849
1.1641683
1.1685823
1.16864
1.168746
1.1688704
1.1696537
1.1704374
1.1694989
1.1693477
1.1692041
1.1690884
1.1690333
1.1692131
1.169374
1.1695272
1.1704503
1.1708313
1.1699211
1.169769
1.1696009
1.1693953
1.1698035
1.170011
1.1701754
1.1703218
1.1712062
1.1714799
1.1706471
1.1705106
1.1703566
1.170163
1.1704879
1.1706722
1.1708154
1.1709411
1.1717084
1.1719093
1.1712105
1.1710959
1.1709642
1.1707925
1.1710715
1.1712286
1.1713485
1.1714522
1.1720834
1.1722359
1.1716686
1.1715753
1.1714668
1.171324
1.171552
1.1716815
1.1717793
1.171863
1.172371
1.1724916
1.1720375
1.1719626
1.1718745
1.1717574
1.1719422
1.172048
1.1721273
1.1721943
1.1725999
1.1726975
1.1723354
1.1722754
1.172204
1.1721083
1.1722578
1.1723444
1.1724087
1.1724625
1.172786
1.1728664
1.1725772
1.1725289
1.1724709
1.1723924
1.1725137
1.1725851
1.1726376
1.1726809
1.1729399
1.1730072
1.172775
1.1727359
1.1726884
1.1726233
1.1727225
1.172782
1.1728252
1.1728604
1.1730691
1.1731262
1.1729382
1.1729063
1.1728669
1.1728124
1.1728941
1.1729442
1.1729802
1.1730091
1.1731789
1.1732279
1.1730741
1.1730478
1.1730147
1.1729685
1.1730364
1.1730792
1.1731096
1.1731336
1.1732733
1.1733157
1.1731884
1.1731664
1.1731382
1.1730984
1.1731554
1.1731925
1.1732186
1.1732389
1.1733553
1.1733923
1.1732855
1.1732668
1.1732424
1.1732077
1.173256
1.1732886
1.1733113
1.1733287
1.1734271
1.1734599
1.1733689
1.1733527
1.1733314
1.1733006
1.1733421
1.1733712
1.1733912
1.1734063
1.1734908
1.1735201
1.1734415
1.1734274
1.1734084
1.1733808
1.173417
1.1734432
1.1734611
1.1734744
1.1735484
1.1735478
1.1734739
1.1734606
1.1734427
1.1734165
1.1733805
1.173408
1.1734269
1.173441
1.1735196
1.1734902
1.1734059
1.1733908
1.1733708
1.1733418
1.1733005
1.1733311
1.1733524
1.1733685
1.1734593
1.1734265
1.1733283
1.173311
1.1732884
1.1732559
1.1732079
1.1732424
1.1732666
1.1732852
1.1733916
1.1733545
1.1732387
1.1732185
1.1731925
1.1731557
1.173099
1.1731385
1.1731664
1.1731883
1.1733148
1.1732724
1.1731337
1.1731098
1.1730796
1.1730372
1.1729697
1.1730155
1.1730482
1.1730743
1.1732268
1.1731778
1.1730096
1.172981
1.1729453
1.1728958
1.1728146
1.1728684
1.1729074
1.1729388
1.1731249
1.1730678
1.1728614
1.1728266
1.1727839
1.1727253
1.1726268
1.1726909
1.1727378
1.1727763
1.1730059
1.1729385
1.1726827
1.1726399
1.1725882
1.172518
1.1723975
1.1724747
1.1725318
1.1725794
1.1728649
1.1727843
1.1724652
1.1724122
1.1723489
1.1722638
1.1721154
1.1722094
1.1722795
1.1723386
1.1726958
1.1725982
1.1721981
1.1721321
1.1720542
1.1719502
1.1717665
1.1718815
1.1719681
1.1720419
1.1724899
1.1723693
1.1718678
1.1717854
1.1716892
1.171562
1.1713348
1.1714751
1.1715819
1.1716739
1.1722342
1.1720819
1.1714576
1.1713553
1.1712371
1.1710826
1.1708032
1.1709724
1.1711025
1.1712158
1.1719079
1.1717076
1.1709457
1.1708211
1.1706792
1.1704964
1.1701687
1.1703614
1.1705145
1.1706504
1.1714796
1.1712066
1.1703216
1.1701754
1.1700112
1.1698044
1.1693848
1.1695941
1.1697637
1.1699169
1.1708345
1.1704608
1.1695195
1.1693637
1.169199
1.1690101
1.1690158
1.1691486
1.1692986
1.1694542
1.1704318
1.1696458
1.168816
1.1686882
1.1685757
1.1685063
1.1647691
1.1649288
1.1650469
1.165201
1.1667099
1.1692306
1.1667207
1.1663896
1.1660604
1.1656193
1.1717854
1.1719414
1.1719806
1.1719939
1.1721886
1.1733883
1.171225
1.1709896
1.1707859
1.1704003
1.1774234
1.1777862
1.178035