/*--------------------------------*- C++ -*----------------------------------*\
  =========                 |
  \\      /  F ield         | OpenFOAM: The Open Source CFD Toolbox
   \\    /   O peration     | Website:  https://openfoam.org
    \\  /    A nd           | Version:  7
     \\/     M anipulation  |
\*---------------------------------------------------------------------------*/
FoamFile
{
    version     2.0;
    format      ascii;
    class       volScalarField;
    location    "20";
    object      nut;
}
// * * * * * * * * * * * * * * * * * * * * * * * * * * * * * * * * * * * * * //

dimensions      [0 2 -1 0 0 0 0];

internalField   nonuniform List<scalar> 
24789
(
0.0020140996
0.015414552
0.037413153
0.062757254
0.76455591
0.76336751
0.062668671
0.037362552
0.015395767
0.0020125127
0.0020122195
0.015391143
0.037350508
0.062644222
0.76283505
0.76256382
0.062618069
0.037334142
0.015385034
0.0020116736
0.002011832
0.015385924
0.037336614
0.062619435
0.7623969
0.76227657
0.062606255
0.037327392
0.015382433
0.0020114815
0.0020116442
0.015383299
0.037329659
0.062607173
0.76217747
0.76207398
0.062595018
0.03732101
0.015380034
0.0020113134
0.0020114875
0.015381089
0.037323978
0.062597379
0.76199128
0.76188792
0.062582698
0.037313837
0.015377263
0.0020111237
0.0020113006
0.015378279
0.037316775
0.062585108
0.76174989
0.76162227
0.062567155
0.037305027
0.015373975
0.0020109251
0.0020111792
0.015375793
0.037310126
0.062573538
0.76147427
0.76133764
0.0625567
0.037298986
0.015371762
0.0020108459
0.0020111582
0.0153739
0.037304592
0.062563831
0.76117353
0.76104059
0.062550162
0.037295379
0.015370758
0.0020109403
0.0020114271
0.015374235
0.037303997
0.062562456
0.7609202
0.76088071
0.062558727
0.037300492
0.015373483
0.0020114942
0.0020123652
0.015380381
0.037317006
0.062584283
0.76092603
0.76111592
0.062602
0.037325984
0.015384779
0.002012955
0.0020143889
0.015396716
0.037353986
0.062646819
0.76145878
0.76203244
0.062690852
0.037378819
0.015408075
0.0020157489
0.0020181706
0.01542926
0.037427986
0.062770942
0.76287636
0.76411081
0.062856201
0.037478162
0.015451907
0.002020739
0.0020246335
0.015487246
0.037559633
0.06298982
0.76579308
0.76805476
0.063136547
0.037647298
0.015526449
0.0020289412
0.0020349192
0.015582291
0.0377746
0.063344333
0.77098652
0.77469765
0.063586429
0.037922276
0.015648176
0.0020417615
0.0020505065
0.015737565
0.038127024
0.063926536
0.77905608
0.78409015
0.064292141
0.038340822
0.015831857
0.0020589314
0.0020659115
0.015897571
0.038466752
0.064484189
0.78979914
0.79578157
0.064615992
0.038508022
0.01591847
0.0020759826
0.0021005592
0.016009593
0.038883988
0.065402079
0.80840558
0.83458123
0.067566018
0.040189254
0.016560967
0.0021458501
0.0021657982
0.01660146
0.04003543
0.066972862
0.85395114
0.86264626
0.068452105
0.041033732
0.017042142
0.0022106122
0.0022300563
0.017845031
0.043556162
0.073482186
0.83154265
0.92970615
0.063280165
0.038601173
0.016240585
0.0021437256
0.0020856336
0.015809203
0.037860492
0.062783222
0.93371835
0.91893063
0.060027913
0.036140085
0.015027085
0.0020164944
0.0019830008
0.014821802
0.035599481
0.059160281
0.90203535
0.89143927
0.058757038
0.035406167
0.014760776
0.0019629872
0.0019543007
0.014718053
0.035333344
0.058639353
0.88392421
0.87716828
0.058346076
0.035151309
0.014631645
0.0019460303
0.0019370142
0.014533491
0.034927287
0.057969854
0.87135738
0.8663663
0.057686374
0.034751731
0.014454418
0.0019289733
0.0019226191
0.014392343
0.034613535
0.057462698
0.86215389
0.85880814
0.057283223
0.034502094
0.014342115
0.001917218
0.0019130871
0.014303151
0.034413949
0.057138047
0.85619646
0.85429722
0.057026827
0.03434489
0.014271916
0.0019095934
0.0019070685
0.014248441
0.034291321
0.056937406
0.85287104
0.85188952
0.056869488
0.034249227
0.014229417
0.0019048597
0.0019034637
0.014216921
0.034220489
0.056820532
0.85121164
0.85079097
0.056781483
0.034196304
0.014205989
0.0019021269
0.001901512
0.014201077
0.034185226
0.056761979
0.85061225
0.85054037
0.056745518
0.034174729
0.014196098
0.0019008027
0.0019006524
0.014195353
0.034173038
0.056741401
0.85061228
0.85082024
0.056744721
0.034173962
0.01419501
0.0019003997
0.0019005099
0.014196222
0.03417637
0.056747153
0.85099758
0.85122436
0.056752161
0.034178358
0.014196483
0.0019003738
0.0019005417
0.014197953
0.034181209
0.056755344
0.85133896
0.85149616
0.05675798
0.034181854
0.014197776
0.0019003967
0.0019005898
0.014199517
0.0341856
0.05676308
0.8516114
0.85178706
0.056770744
0.034189029
0.01420037
0.0019005309
0.0019007591
0.014202248
0.034192832
0.056775602
0.85192194
0.85198071
0.05677973
0.034194269
0.014202401
0.0019006627
0.0019008772
0.014204082
0.034197687
0.056784086
0.85213871
0.8521981
0.056783503
0.034196484
0.014203252
0.0019007104
0.0019009173
0.014205023
0.034200407
0.056789097
0.85227712
0.85240591
0.056791753
0.034201082
0.014204905
0.0019008029
0.0019011603
0.014208573
0.034209921
0.056805929
0.85265443
0.8532183
0.056832305
0.034224085
0.014213599
0.0019014582
0.0019025938
0.01422663
0.03425744
0.056890235
0.85420925
0.85571329
0.056962141
0.034298399
0.014243095
0.001903928
0.0019025486
0.014225097
0.034250964
0.056874771
0.85400815
0.85316163
0.05682632
0.034221664
0.014213807
0.0019015793
0.0019014698
0.014211569
0.034216215
0.0568143
0.85275185
0.85251872
0.056795861
0.034203747
0.014206672
0.0019010125
0.0019011077
0.014206998
0.034204861
0.056795179
0.85234429
0.85218791
0.056778467
0.034193662
0.014202749
0.0019007244
0.0019009122
0.014204068
0.034197171
0.05678182
0.85203909
0.85189725
0.05676702
0.034187278
0.014200421
0.0019005924
0.0019008409
0.014202321
0.034192093
0.056772518
0.85178292
0.85167411
0.056762343
0.034184638
0.014199519
0.0019005827
0.0019008078
0.014200981
0.034188387
0.056766348
0.85157079
0.85145458
0.056752347
0.034179004
0.014197645
0.0019005496
0.0019009183
0.014200648
0.034186701
0.056763159
0.85132988
0.85121666
0.056753883
0.0341799
0.014198316
0.0019007725
0.0019012722
0.014202135
0.034189232
0.056767392
0.85113007
0.85110412
0.056764722
0.03418663
0.014201773
0.0019013817
0.0019022824
0.014209321
0.034204473
0.056792235
0.85119222
0.85142549
0.056810661
0.034214336
0.014214175
0.0019029079
0.0019043361
0.014226407
0.034242354
0.056854634
0.85186541
0.85255146
0.056898195
0.034267605
0.014238116
0.0019056948
0.0019080196
0.01425887
0.034314682
0.056973078
0.85355916
0.85499492
0.057053476
0.034362898
0.014280921
0.0019104666
0.001914115
0.014314641
0.034439436
0.057176644
0.85694242
0.85952222
0.057311429
0.034521196
0.014351565
0.0019180979
0.0019235577
0.014403201
0.034637807
0.057499478
0.86284874
0.86700159
0.057712309
0.034769179
0.014462891
0.0019297177
0.0019378098
0.014543054
0.034948965
0.058001645
0.87192688
0.87746438
0.058375498
0.035170171
0.014640095
0.0019467615
0.0019551172
0.014728919
0.035361099
0.058690097
0.88375895
0.89064824
0.058734218
0.035392178
0.014757428
0.0019630312
0.0019843604
0.014815234
0.035553272
0.05908345
0.89995693
0.91862816
0.060380232
0.036342973
0.015093213
0.0020286391
0.0020966059
0.015989648
0.038432186
0.06409268
0.93405563
0.93143753
0.06043465
0.037027334
0.015641567
0.0020910662
0.0021966832
0.017534458
0.042770384
0.071911329
0.83179829
0.87245001
0.068911066
0.040864332
0.016838873
0.0021641412
0.0022002882
0.017189109
0.041853192
0.070625163
0.85287151
0.82966557
0.066166191
0.039494021
0.016288192
0.0021354523
0.0020820394
0.0157916
0.038190129
0.064059936
0.80527035
0.79472784
0.063471771
0.037910628
0.015701388
0.0020558384
0.0020459635
0.015671233
0.037860874
0.063364788
0.78851857
0.78279816
0.063093467
0.037694622
0.01559037
0.0020377637
0.0020287763
0.015492181
0.037469666
0.062711296
0.77784246
0.77342896
0.062392424
0.037276451
0.015407166
0.0020202335
0.0020134552
0.01534068
0.037126397
0.062147394
0.769737
0.76679187
0.061948756
0.037004963
0.01528687
0.0020076708
0.0020032932
0.015245907
0.036911359
0.061793035
0.76450819
0.76285811
0.061671676
0.036837011
0.015212692
0.0019995632
0.0019968532
0.015187549
0.036779277
0.061574802
0.76158499
0.76070357
0.061498591
0.036732504
0.015166633
0.0019944369
0.0019929337
0.015153335
0.03670222
0.061447451
0.76013409
0.75977064
0.061405208
0.03667621
0.015141603
0.0019914913
0.0019907974
0.015135902
0.036663279
0.061382747
0.75958804
0.75952093
0.061364474
0.03665168
0.015130421
0.0019900186
0.0019898206
0.015129121
0.036648697
0.061358455
0.75956222
0.75960882
0.061351016
0.036643592
0.01512652
0.0019893834
0.0019894426
0.015127417
0.036645706
0.061353657
0.75973783
0.75982279
0.06135124
0.036643601
0.015126162
0.001989173
0.0019893648
0.015128231
0.036648552
0.061358866
0.75997876
0.76009779
0.061360356
0.036648697
0.015127905
0.0019892004
0.0019894351
0.015130122
0.036653809
0.061368101
0.76021378
0.76030702
0.061369502
0.036653862
0.015129774
0.0019892861
0.0019895252
0.015131937
0.0366588
0.061376921
0.76040758
0.76059343
0.061386373
0.036663299
0.015133221
0.0019895048
0.0019897838
0.015135477
0.036667954
0.061392746
0.76069046
0.76082221
0.061396512
0.036669399
0.015135745
0.0019897041
0.0019900905
0.015139535
0.036678305
0.061410699
0.76101964
0.76136978
0.06142963
0.036688453
0.015143176
0.0019902831
0.0019912646
0.015154166
0.03671637
0.061477778
0.76215611
0.76374811
0.061586935
0.036776209
0.015176272
0.0019929596
0.0020151123
0.015425653
0.037439275
0.06279985
0.76517762
0.763794
0.062701169
0.037381866
0.015403627
0.0020132026
0.0020125922
0.015395328
0.037360618
0.062661004
0.76307769
0.762685
0.06262706
0.037339506
0.015387254
0.0020118795
0.0020119435
0.015387037
0.037339384
0.062624255
0.76247499
0.76233133
0.062605176
0.037326994
0.015382468
0.0020115346
0.0020117955
0.015384527
0.037332513
0.062611755
0.76223732
0.76213199
0.062601752
0.037324985
0.015381641
0.0020115019
0.0020116928
0.015382634
0.037327548
0.062603273
0.76206933
0.76198105
0.062589915
0.037318464
0.015379373
0.0020114029
0.0020117009
0.015381565
0.037324078
0.062596564
0.76189382
0.76180792
0.062588582
0.037317615
0.015379137
0.0020114673
0.0020117143
0.015380383
0.037320449
0.062590088
0.7616886
0.76156944
0.062582739
0.037314284
0.015378125
0.0020115259
0.0020118747
0.015380049
0.03731857
0.062586745
0.76145326
0.76136925
0.062584326
0.037315465
0.015379197
0.0020118783
0.0020125579
0.015384136
0.037327077
0.062601169
0.76138829
0.76148864
0.062611198
0.037331689
0.01538677
0.0020129695
0.0020142317
0.015397304
0.037356453
0.062650186
0.76173557
0.76214505
0.062684991
0.03737586
0.01540631
0.0020153182
0.0020173537
0.015423856
0.037416235
0.062749603
0.76278677
0.7637138
0.062816928
0.037455883
0.015442025
0.0020194357
0.0020227091
0.015471535
0.037523453
0.062926287
0.76501493
0.76675931
0.063047509
0.037595418
0.01550369
0.0020262236
0.0020310717
0.015547913
0.037695939
0.063210862
0.76906322
0.77201765
0.063404824
0.037812261
0.015599603
0.0020365767
0.0020438
0.0156689
0.037969036
0.063658432
0.77577495
0.78020076
0.063977944
0.038159727
0.01575281
0.0020520591
0.0020611766
0.015854391
0.038395176
0.064378826
0.7852276
0.79091572
0.06458966
0.038524133
0.015918981
0.0020676146
0.0020767064
0.015926524
0.038538909
0.064677148
0.79683842
0.80922057
0.065341803
0.038836491
0.015992686
0.0020995866
0.0021459291
0.016531982
0.040139016
0.067460155
0.83733105
0.85483479
0.068011357
0.040543435
0.016781171
0.0021804783
0.0022052657
0.016974934
0.040837723
0.068091936
0.86360814
0.83313659
0.073638358
0.043624606
0.017844697
0.002230745
0.63652932
0.084816598
0.049009361
0.019758382
0.002444873
0.0022727835
0.017787366
0.043288162
0.073570661
0.81459145
0.94834877
0.061702042
0.03747486
0.01580366
0.002119475
0.0021397899
0.016534249
0.039936074
0.067119076
0.88191292
0.87196614
0.070620527
0.041768111
0.017164084
0.0021914339
0.0021848466
0.016985475
0.041256527
0.069360258
0.8528658
0.82916489
0.065855006
0.039310237
0.016229609
0.0021267865
0.002081462
0.01581268
0.038239853
0.064129827
0.80646256
0.79576014
0.063558816
0.037969433
0.015726307
0.0020570924
0.0020463913
0.015673731
0.037867861
0.063374266
0.78903429
0.78301888
0.063080198
0.037686612
0.015586921
0.0020375355
0.0020285092
0.015489669
0.037464693
0.06270498
0.77786309
0.77341981
0.062388398
0.037272792
0.015404934
0.0020200122
0.0020132237
0.015338366
0.03712207
0.062141669
0.76965601
0.76667271
0.061938223
0.036997626
0.01528334
0.00200735
0.002002974
0.015242609
0.036904971
0.061784372
0.76437315
0.76267453
0.061656101
0.036826764
0.01520803
0.0019991426
0.0019964695
0.015183659
0.036771303
0.061563264
0.76139885
0.76054616
0.061486249
0.036724194
0.01516272
0.0019940575
0.0019926057
0.015150089
0.036695567
0.061437683
0.75996439
0.75962494
0.061397061
0.036670468
0.015138768
0.0019912021
0.0019905778
0.015133888
0.036659612
0.061377972
0.75949038
0.75944179
0.061359657
0.036647955
0.015128445
0.0019898132
0.001989649
0.015127521
0.036645898
0.061354973
0.75948091
0.75954879
0.061350144
0.036642161
0.015125444
0.0019892565
0.0019893392
0.015126502
0.036644475
0.061352668
0.75968844
0.75980311
0.061351649
0.036642996
0.015125475
0.0019890889
0.0019892915
0.015127587
0.036647888
0.061358723
0.75994507
0.76010515
0.061363383
0.036649596
0.015127811
0.0019891679
0.0019894214
0.015130146
0.036654821
0.061370891
0.7602287
0.76034862
0.061372595
0.036654899
0.015129804
0.0019892748
0.0019895326
0.015132182
0.036660377
0.061380746
0.76043663
0.76053472
0.061379583
0.03665889
0.015131299
0.0019893523
0.0019896384
0.015134062
0.036665439
0.061389688
0.76062148
0.76074939
0.061391089
0.036665556
0.015133861
0.001989521
0.0019899175
0.015137886
0.036675221
0.061406553
0.76093105
0.76128958
0.061420333
0.036682395
0.015140438
0.0019900288
0.001990997
0.015151467
0.036710761
0.061469461
0.76201204
0.76371976
0.061578466
0.036770168
0.015173322
0.0019926625
0.0019031191
0.014232719
0.034272887
0.056915914
0.85466205
0.85342394
0.056839654
0.034228312
0.014215751
0.0019016909
0.001901399
0.014211488
0.03421766
0.056818745
0.85283361
0.8524996
0.056791678
0.034200651
0.014205007
0.0019008381
0.0019009729
0.014205881
0.034203348
0.056794075
0.85230158
0.85215965
0.056778221
0.034192705
0.014201848
0.001900607
0.0019008048
0.014203382
0.034196901
0.056783036
0.85204976
0.85194023
0.056768412
0.034187143
0.014199781
0.0019004868
0.001900732
0.0142018
0.034192421
0.05677486
0.85183086
0.85169848
0.056765131
0.034185023
0.014198898
0.0019004467
0.0019005861
0.014199383
0.03418609
0.056763997
0.85153812
0.85134353
0.056753033
0.034177944
0.014196203
0.001900295
0.0019004677
0.01419689
0.03417968
0.056753527
0.85119658
0.85102259
0.056739206
0.034170058
0.014193442
0.0019002162
0.0019006077
0.014196389
0.034177432
0.056749463
0.85088389
0.85077171
0.056742348
0.034172113
0.014194781
0.0019005603
0.0019012088
0.014199917
0.034184277
0.056760313
0.85073948
0.8507806
0.056770508
0.034188724
0.014202178
0.0019015374
0.0019025057
0.014209671
0.034205447
0.056795432
0.85096685
0.8513247
0.056824612
0.034221585
0.014217165
0.001903413
0.0019051498
0.014231923
0.034254819
0.056876707
0.85197813
0.85295992
0.056939504
0.034291596
0.014248526
0.0019070115
0.0019098859
0.014274279
0.034349586
0.057031882
0.85438594
0.85634467
0.057145024
0.034417135
0.014304375
0.0019131172
0.0019175341
0.014345157
0.034508969
0.057292503
0.85897705
0.86235036
0.057469808
0.034616707
0.014393401
0.0019226003
0.0019291704
0.014456945
0.034758369
0.057696242
0.86655877
0.87159064
0.057970337
0.034925905
0.014532154
0.0019367048
0.001945725
0.014627616
0.035142055
0.058327743
0.87744769
0.88424137
0.058619489
0.03532202
0.014712885
0.0019539365
0.0019635121
0.014771335
0.035437865
0.058811083
0.89193895
0.90269457
0.05921515
0.035629695
0.0148315
0.001981813
0.0020154599
0.015020268
0.03612682
0.060013141
0.9203176
0.93339492
0.061831403
0.037376352
0.015638458
0.0020749551
0.0021393366
0.016210605
0.038522575
0.063094084
0.92929021
0.83010155
0.074392553
0.043942822
0.017997777
0.0022461786
0.0022250888
0.01718979
0.041470692
0.069287234
0.86224513
0.85395495
0.065615742
0.039325793
0.016336368
0.0021489892
0.0021506347
0.016636636
0.040423529
0.068098844
0.83466979
0.80827993
0.065489528
0.038931985
0.016022919
0.0021030805
0.0020764622
0.015912128
0.038491157
0.064589984
0.79523705
0.78940366
0.064414795
0.038421239
0.015877575
0.0020648021
0.0020584009
0.015826556
0.038328385
0.064269739
0.78393871
0.77899091
0.063923695
0.03812414
0.015735942
0.0020501352
0.0020419997
0.015651054
0.037929524
0.063596409
0.77468842
0.77096818
0.063343262
0.03777379
0.015582012
0.0020348078
0.002029232
0.01552906
0.037653299
0.06314369
0.7680405
0.76576986
0.062987079
0.03755781
0.01548663
0.002024521
0.0020210385
0.015454463
0.037483878
0.062862713
0.764088
0.76282695
0.062766271
0.037425076
0.015428259
0.0020180289
0.0020160099
0.015410115
0.037383176
0.062694887
0.76200076
0.76143592
0.062646315
0.037353134
0.015396341
0.0020142801
0.0020132617
0.015387315
0.037331709
0.062608465
0.76113638
0.76094329
0.062585964
0.037317323
0.015380431
0.0020122922
0.0020118676
0.015376793
0.03730826
0.062568732
0.76090267
0.76087604
0.06255821
0.037301135
0.015373197
0.0020112881
0.0020112235
0.01537294
0.037300338
0.06255548
0.76098679
0.76107448
0.062555477
0.037299327
0.015371897
0.0020109287
0.00201108
0.015373557
0.037303069
0.06256057
0.7612589
0.76139897
0.062566559
0.037305591
0.015374028
0.0020109535
0.0020111986
0.015376317
0.03731056
0.06257354
0.76158154
0.7616983
0.062579774
0.037313239
0.015376928
0.0020111128
0.0020113782
0.015379232
0.037318201
0.062586818
0.76185907
0.7619287
0.062594839
0.037321885
0.015380218
0.0020113331
0.0020115573
0.015381752
0.037324564
0.062597578
0.76205874
0.76213696
0.062608722
0.037329746
0.015383197
0.0020115439
0.0020117844
0.015384802
0.037332463
0.062611315
0.76229753
0.7623985
0.062621102
0.037336969
0.01538605
0.0020117637
0.0020121142
0.015389125
0.037343647
0.062630817
0.76262832
0.76292826
0.062650539
0.037353888
0.015392642
0.0020122899
0.0020133504
0.015404678
0.037384968
0.062704917
0.76375494
0.76522039
0.062800955
0.037438946
0.015425818
0.0020150336
0.0020134749
0.015405492
0.03738496
0.062701543
0.76380698
0.76306538
0.062659193
0.037358985
0.015395227
0.0020125386
0.0020122629
0.015390514
0.037346456
0.062634325
0.76268781
0.7624616
0.062621464
0.037337267
0.015386753
0.0020118701
0.0020118797
0.015385434
0.037333388
0.062611606
0.76229772
0.7621881
0.06260543
0.037328259
0.015383354
0.0020116419
0.0020117646
0.015383289
0.037327464
0.062600894
0.76208563
0.76200103
0.062599868
0.037325018
0.015382166
0.0020116006
0.0020117128
0.015381811
0.03732326
0.062593343
0.76191757
0.76182278
0.062592334
0.037320951
0.015380776
0.0020115653
0.0020116924
0.015380548
0.037319775
0.062587472
0.76174918
0.76160102
0.062582712
0.037315564
0.015378939
0.0020115301
0.0020117414
0.015379431
0.037316162
0.062581097
0.76150857
0.76138845
0.062578674
0.037313357
0.015378515
0.0020116862
0.0020121081
0.015380745
0.037318008
0.062583953
0.76131671
0.76131843
0.062592352
0.037321538
0.015382523
0.0020123693
0.0020132276
0.015388868
0.037335934
0.062614101
0.76143591
0.76167717
0.062641153
0.037350684
0.015395511
0.0020140087
0.002015496
0.015407669
0.037378347
0.062685064
0.76208286
0.76268564
0.062738396
0.037409119
0.015421447
0.0020170625
0.0020195285
0.015442663
0.037456933
0.062814996
0.76357842
0.76486151
0.062913045
0.037514809
0.015468281
0.0020223213
0.002026168
0.015502655
0.037592551
0.063039308
0.76658799
0.76886143
0.063195316
0.037685707
0.015543853
0.0020306079
0.0020364498
0.015597836
0.037807723
0.063393931
0.77180773
0.77549649
0.063641427
0.03795842
0.015664814
0.0020433272
0.0020519842
0.015751804
0.038157165
0.063969715
0.77985917
0.7847343
0.064365524
0.038387529
0.01585157
0.0020608144
0.0020676992
0.015923492
0.038535588
0.064606661
0.79020394
0.79579947
0.064641991
0.038524279
0.01592095
0.0020752482
0.0020992172
0.01597459
0.038749197
0.06518769
0.80704304
0.83567546
0.06733248
0.040108925
0.016530423
0.0021495012
0.0021953858
0.017005891
0.041185766
0.069290014
0.85535506
0.86512445
0.067225041
0.040359038
0.016800432
0.0021831207
1.8983674
3.1924649
2.3927669
0.93172373
0.063058002
0.038493062
0.016192282
0.0021405068
0.0022064731
0.017296848
0.042192552
0.071452093
0.87010109
0.0024266311
0.019528706
0.048298531
0.083369427
0.63458771
0.55865058
0.082322487
0.047425128
0.019080645
0.0023535161
0.002347523
0.018866057
0.046963944
0.081606602
0.55774522
0.74650999
0.078055893
0.045484844
0.018477614
0.0023002081
1.3105938
1.5244609
2.8635204
2.3655672
7.863855
7.5638996
8.6246737
7.8619772
9.2249151
9.1642052
8.8581596
8.9646768
0.0019924844
0.015170876
0.036765902
0.061572028
0.76340984
0.76192886
0.061459869
0.036701796
0.015146758
0.0019904498
0.0019899193
0.015139668
0.036683941
0.06142598
0.76119719
0.760824
0.061389091
0.036661325
0.015131116
0.0019891856
0.0019892832
0.015131569
0.036663217
0.061390035
0.7605882
0.76044455
0.061369635
0.036650049
0.015126642
0.0019888367
0.0019890183
0.015128172
0.036654836
0.06137605
0.76034161
0.76021451
0.0613538
0.036640846
0.015123087
0.0019885828
0.0019888496
0.015125522
0.036647928
0.061364032
0.76009937
0.75999431
0.061344612
0.036635421
0.015120981
0.0019884691
0.0019887741
0.015123627
0.036642835
0.061355228
0.75987592
0.75976778
0.061337931
0.036631625
0.015119654
0.0019884611
0.0019888485
0.01512289
0.036640183
0.061350279
0.75966217
0.75957677
0.061339213
0.036632474
0.015120309
0.001988676
0.0019891793
0.015124291
0.036642372
0.061353492
0.75950131
0.75948082
0.061350742
0.036639461
0.015123733
0.0019892354
0.001990035
0.015130257
0.036655107
0.061374515
0.75952671
0.75968806
0.061384898
0.036660451
0.015133403
0.0019905117
0.001991887
0.015145526
0.036689274
0.061430937
0.75998515
0.76043551
0.06146507
0.036708899
0.015154842
0.0019930127
0.0019951115
0.015173326
0.036751459
0.061533146
0.76108621
0.76204232
0.061599127
0.036791074
0.01519174
0.001997224
0.0020005627
0.015222493
0.03686178
0.061713452
0.76338494
0.76518482
0.061834788
0.036934124
0.015254782
0.0020040565
0.0020088396
0.015299089
0.037035271
0.061999109
0.76750516
0.77050637
0.06218641
0.03714851
0.015349633
0.0020141804
0.0020212364
0.015418937
0.037306901
0.062443881
0.77425303
0.77863844
0.062742025
0.037484607
0.015497525
0.002028941
0.0020374652
0.015589388
0.037694065
0.063098316
0.78367757
0.78950614
0.063247837
0.037792386
0.015644412
0.0020445639
0.0020586661
0.015705668
0.037919783
0.06350315
0.79614478
0.80989997
0.064525994
0.038470686
0.015880828
0.0020887054
0.0021353754
0.016467298
0.039915231
0.067010849
0.8333588
0.85472942
0.067047748
0.040090812
0.016580507
0.0021522231
0.0022081581
0.017304423
0.042237756
0.071513819
0.86952655
0.061545115
0.037355057
0.015758202
0.0021117118
0.0020744447
0.015172975
0.035880012
0.059029283
0.94422017
0.80600638
0.069622313
0.041101056
0.016932627
0.0022156416
0.0023196125
0.018738385
0.046245884
0.07972025
0.74621809
0.8819793
0.068713339
0.040701033
0.016809676
0.0021594913
0.0022082688
0.017298391
0.042204214
0.071431986
0.87077863
0.85549855
0.066946652
0.040041516
0.016566879
0.0021511485
0.0021350012
0.01646406
0.039896991
0.066970781
0.83374875
0.80974603
0.064509402
0.038462178
0.015879303
0.0020887572
0.0020586992
0.015705311
0.037912773
0.063486963
0.79583126
0.7890521
0.063245668
0.037794551
0.015646845
0.0020447853
0.0020372722
0.015584554
0.03767961
0.063074305
0.78301345
0.77779889
0.062714066
0.037466665
0.015489807
0.002028426
0.0020201517
0.015404908
0.037273262
0.062390154
0.77334996
0.76952658
0.062140618
0.037119071
0.01533631
0.0020129863
0.0020074077
0.015283104
0.03699794
0.061940148
0.76657963
0.76423658
0.06178438
0.036902384
0.015240482
0.0020026972
0.0019991841
0.015207739
0.036827188
0.061658263
0.76256931
0.76126661
0.061560392
0.036767116
0.015180904
0.0019961332
0.0019940612
0.015162071
0.036723603
0.061486425
0.76041034
0.75978056
0.061427828
0.036687705
0.015146065
0.0019921619
0.0019911395
0.015137466
0.036668047
0.06139381
0.75948461
0.75931289
0.061371439
0.036653809
0.015130678
0.0019901794
0.0019898216
0.015127885
0.036646921
0.061358007
0.75933452
0.75936346
0.061352234
0.036642473
0.015125354
0.0019893446
0.0019893297
0.015125448
0.036642178
0.061349859
0.75950578
0.75961918
0.061356053
0.036644532
0.015125675
0.0019891436
0.001989278
0.015126735
0.036646112
0.061356509
0.75980504
0.75986869
0.061354777
0.036644088
0.015125485
0.0019890267
0.001989196
0.015127072
0.036647587
0.061359482
0.75999329
0.76011949
0.061364486
0.036649299
0.015127183
0.0019890567
0.0019893157
0.015129622
0.03665487
0.061372726
0.760289
0.7603961
0.061378895
0.03665736
0.015130107
0.0019892332
0.0019894646
0.015131894
0.036660979
0.061383467
0.7605026
0.7605177
0.061381014
0.036658586
0.015130563
0.0019892487
0.0019894507
0.015132276
0.036662443
0.061386507
0.76059565
0.76065688
0.061387028
0.036661734
0.015131566
0.0019892771
0.0019895679
0.015134326
0.03666827
0.0613972
0.7608043
0.7610365
0.061411105
0.036675217
0.015136564
0.0019896343
0.0019902405
0.015142825
0.036690357
0.061435861
0.76146803
0.76230378
0.061496697
0.036723204
0.015154758
0.0019910992
0.76389325
0.062705982
0.03738
0.015400454
0.0020127056
0.0020116789
0.015387097
0.037345223
0.062641037
0.76279886
0.76224654
0.062595391
0.037317748
0.015376654
0.0020107754
0.002010783
0.015375878
0.037316387
0.062590698
0.76195638
0.76178664
0.062569876
0.037302975
0.015370853
0.0020103247
0.0020105184
0.015372251
0.037307078
0.06257461
0.76166719
0.761574
0.062558442
0.037296326
0.015368295
0.0020101581
0.0020104176
0.015370432
0.037302258
0.062566197
0.76149104
0.76141348
0.062551965
0.037292608
0.015366864
0.0020100852
0.0020103136
0.015368551
0.037297374
0.062557954
0.7613127
0.76116465
0.062540977
0.037286354
0.015364567
0.0020099653
0.0020102291
0.015366321
0.03729099
0.062546553
0.76103169
0.7609347
0.062534534
0.037282576
0.015363346
0.0020099945
0.0020103951
0.015366343
0.037290329
0.062545608
0.76086039
0.76080794
0.062535864
0.037283567
0.015364287
0.0020103045
0.0020109953
0.015370007
0.03729783
0.062558005
0.7608043
0.76086652
0.062561078
0.037298565
0.015371088
0.0020112439
0.002012327
0.015380261
0.037320613
0.062596054
0.76104675
0.76134054
0.062617601
0.037332532
0.015386241
0.0020131081
0.0020148416
0.015401372
0.037367881
0.06267428
0.76181458
0.7625086
0.062724829
0.037397543
0.015415188
0.0020164555
0.0020191632
0.015439499
0.037453429
0.062814933
0.76349715
0.76485462
0.062907983
0.037508993
0.015464676
0.0020219554
0.0020259935
0.015501674
0.037593638
0.063045596
0.76664159
0.76898125
0.063197624
0.037684786
0.015542357
0.0020303818
0.0020362933
0.015598305
0.037812565
0.063405915
0.77197289
0.7756854
0.063645396
0.03795818
0.015662857
0.0020428926
0.0020511453
0.015748093
0.038154562
0.063973365
0.78001074
0.78489803
0.064303382
0.038346551
0.015832869
0.0020587847
0.002065545
0.015886736
0.038449039
0.064465394
0.79032319
0.79611742
0.064639369
0.038517059
0.015920088
0.0020767881
0.0021033625
0.016033344
0.038965219
0.065548014
0.80890572
0.83446889
0.068136985
0.040433657
0.016634107
0.0021496967
0.0021469134
0.016316285
0.03928915
0.065567655
0.85328434
0.86113748
0.069198077
0.041414738
0.017162699
0.0022226573
0.0022442964
0.017960334
0.043897548
0.074346273
0.82890267
0.92810747
0.063103734
0.03851666
0.016201429
0.0021384073
0.0021903455
0.017159066
0.041771167
0.070647452
0.87080385
0.87114386
0.068873841
0.040832371
0.016821656
0.0021614821
0.0020920551
0.015657994
0.037086744
0.060541953
0.93096131
0.86521096
0.067420159
0.040459141
0.016831893
0.0021860166
0.0022081191
0.017003857
0.040924614
0.068256094
0.86452044
0.93261592
0.062930391
0.03842866
0.016168668
0.0021389229
0.0022000071
0.017220047
0.041983463
0.071064373
0.87157337
0.85622673
0.066370016
0.039703032
0.01642324
0.0021408818
0.0021336513
0.016471788
0.039945354
0.067103144
0.83504696
0.81085102
0.064600405
0.038515595
0.015900919
0.0020896933
0.0020591212
0.015709468
0.037924177
0.063510928
0.79639394
0.78948874
0.063244445
0.037790168
0.015644803
0.0020447876
0.0020373713
0.01558586
0.037683463
0.063083224
0.78340383
0.7781147
0.062725617
0.037472848
0.015492223
0.0020286421
0.0020204336
0.015407898
0.037280803
0.062403589
0.77361405
0.76973515
0.062148111
0.037123496
0.015338249
0.0020131993
0.0020075896
0.015284816
0.037002169
0.061947687
0.76671449
0.76433447
0.061785919
0.036903246
0.015240905
0.0020027756
0.001999236
0.01520819
0.036828716
0.061661505
0.76261604
0.7613035
0.061561535
0.036767433
0.015180852
0.001996136
0.0019940525
0.015162078
0.036724475
0.061488849
0.76043538
0.75984284
0.061433557
0.036690296
0.015146644
0.0019921898
0.0019911735
0.015138052
0.036670621
0.06139934
0.75955641
0.75940071
0.061374846
0.036655076
0.015130775
0.0019901793
0.0019898291
0.015128168
0.036648836
0.061362625
0.75940297
0.75939977
0.061345678
0.036638277
0.015123474
0.0019891956
0.0019891791
0.015123983
0.036639727
0.061347084
0.75947062
0.75957796
0.061339313
0.036634526
0.015121536
0.0019887964
0.0019889634
0.015123652
0.036639866
0.061347534
0.75968219
0.75979921
0.061344407
0.036637314
0.015122301
0.0019887109
0.0019889523
0.015124925
0.036643877
0.061354888
0.75993295
0.76003418
0.061359432
0.036645511
0.015125105
0.0019888349
0.0019891148
0.015127775
0.036651836
0.061369159
0.76023589
0.7603094
0.061365671
0.036648934
0.015126308
0.0019888919
0.0019891317
0.015128638
0.036654737
0.061374891
0.76038534
0.76046678
0.061372749
0.036652625
0.015127451
0.0019889265
0.0019891689
0.015129738
0.036658146
0.061381341
0.76053206
0.76067557
0.061384005
0.036658753
0.015129594
0.0019890485
0.0019893631
0.015132553
0.036665677
0.061394691
0.76078386
0.7609982
0.061398669
0.0366672
0.015132901
0.0019892977
0.0019899325
0.015139945
0.03668506
0.061429023
0.76140226
0.76227209
0.061482763
0.036714263
0.015150656
0.0019907067
0.76361783
0.061581302
0.036770648
0.015173293
0.0019926644
0.0019910563
0.015152589
0.036715663
0.06147965
0.76209925
0.76133327
0.061431496
0.036686432
0.0151412
0.0019900363
0.001989788
0.015136932
0.036675244
0.061408872
0.76091929
0.7606876
0.061393168