/*--------------------------------*- C++ -*----------------------------------*\
  =========                 |
  \\      /  F ield         | OpenFOAM: The Open Source CFD Toolbox
   \\    /   O peration     | Website:  https://openfoam.org
    \\  /    A nd           | Version:  7
     \\/     M anipulation  |
\*---------------------------------------------------------------------------*/
FoamFile
{
    version     2.0;
    format      ascii;
    class       volScalarField;
    location    "20";
    object      p;
}
// * * * * * * * * * * * * * * * * * * * * * * * * * * * * * * * * * * * * * //

dimensions      [1 -1 -2 0 0 0 0];

internalField   nonuniform List<scalar> 
24789
(
101282.77
101282.76
101282.75
101282.76
101283.25
101280.93
101280.65
101280.64
101280.63
101280.63
101278.11
101278.12
101278.12
101278.13
101278.42
101275.76
101275.45
101275.44
101275.44
101275.43
101272.59
101272.59
101272.6
101272.61
101272.95
101269.97
101269.59
101269.57
101269.56
101269.56
101266.33
101266.33
101266.34
101266.36
101266.79
101263.36
101262.86
101262.83
101262.82
101262.82
101259.01
101259.01
101259.02
101259.05
101259.62
101255.55
101254.9
101254.86
101254.85
101254.85
101250.39
101250.4
101250.41
101250.44
101251.18
101246.55
101245.73
101245.69
101245.67
101245.66
101240.69
101240.7
101240.72
101240.76
101241.68
101236.55
101235.54
101235.49
101235.47
101235.46
101229.89
101229.9
101229.92
101229.98
101231.08
101225.23
101223.98
101223.91
101223.89
101223.88
101217.37
101217.39
101217.41
101217.48
101218.91
101212.11
101210.56
101210.48
101210.45
101210.43
101202.88
101202.9
101202.93
101203.02
101204.77
101196.85
101194.85
101194.74
101194.71
101194.69
101185.83
101185.85
101185.89
101186
101188.29
101178.97
101176.38
101176.25
101176.21
101176.19
101165.6
101165.63
101165.67
101165.82
101168.74
101157.36
101154.05
101153.89
101153.84
101153.81
101140.49
101140.53
101140.58
101140.77
101144.5
101129.68
101125.6
101125.39
101125.32
101125.28
101107.96
101107.99
101108.07
101108.31
101112.56
101093.08
101088.54
101088.3
101088.26
101088.27
101060.94
101060.79
101060.61
101060.73
101067.22
101030.08
101017.81
101017.83
101018.4
101018.75
100990.52
100990.33
100990.08
100990.89
101015.1
100957.26
100936.5
100935.02
100935.02
100934.6
100324.67
100349.42
100367.56
100388.34
100590.65
101057.18
101033.61
101026.57
101019.04
101007.07
101277.25
101290.75
101295.57
101300.03
101280.36
101450.52
101530.72
101527.58
101520.68
101504.68
101861.17
101886.1
101902.27
101912.06
101826.99
101378.03
101277
101258.23
101241
101212.64
101350.58
101352.68
101350.41
101346.66
101300.71
100933.14
100694.77
100667.14
100640.32
100603.58
100476.04
100484.6
100487.92
100495.82
100650.59
100950.27
100915.74
100915.3
100916.2
100916.54
100981.7
100981.52
100981.21
100981.77
101007.31
101027.24
101017.68
101017.67
101018.02
101018.24
101061.06
101061
101060.94
101061.07
101065.74
101092.32
101088.28
101088.08
101088.02
101088.01
101107.69
101107.73
101107.79
101107.98
101112.26
101129.55
101125.3
101125.12
101125.07
101125.03
101140.29
101140.32
101140.37
101140.53
101144.44
101157.3
101153.83
101153.68
101153.63
101153.6
101165.42
101165.46
101165.5
101165.63
101168.7
101178.94
101176.21
101176.1
101176.06
101176.03
101185.69
101185.71
101185.75
101185.85
101188.26
101196.82
101194.69
101194.59
101194.56
101194.54
101202.74
101202.76
101202.78
101202.87
101204.74
101212.07
101210.41
101210.34
101210.31
101210.29
101217.27
101217.29
101217.31
101217.37
101218.87
101225.21
101223.9
101223.84
101223.82
101223.8
101229.88
101229.9
101229.91
101229.97
101231.1
101236.6
101235.58
101235.54
101235.52
101235.51
101240.77
101240.78
101240.79
101240.83
101241.76
101246.63
101245.8
101245.76
101245.75
101245.74
101250.44
101250.45
101250.46
101250.49
101251.24
101255.59
101254.9
101254.88
101254.87
101254.86
101258.99
101259
101259
101259.03
101259.64
101263.38
101262.82
101262.8
101262.79
101262.79
101266.31
101266.31
101266.32
101266.34
101266.83
101270.03
101269.6
101269.58
101269.57
101269.57
101272.62
101272.63
101272.63
101272.65
101273.04
101275.85
101275.5
101275.49
101275.48
101275.48
101278.15
101278.16
101278.16
101278.17
101278.5
101281
101280.67
101280.66
101280.66
101280.65
101282.71
101282.7
101282.67
101282.67
101283.28
101280.89
101280.31
101280.3
101280.32
101280.33
101278.13
101278.14
101278.14
101278.15
101278.47
101275.8
101275.44
101275.43
101275.43
101275.42
101272.61
101272.61
101272.62
101272.63
101273.01
101270
101269.57
101269.56
101269.55
101269.55
101266.3
101266.31
101266.31
101266.33
101266.81
101263.37
101262.84
101262.81
101262.81
101262.8
101259.02
101259.02
101259.03
101259.05
101259.65
101255.61
101254.94
101254.92
101254.91
101254.9
101250.48
101250.48
101250.49
101250.52
101251.26
101246.63
101245.78
101245.74
101245.73
101245.73
101240.73
101240.74
101240.75
101240.79
101241.73
101236.55
101235.51
101235.46
101235.44
101235.43
101229.77
101229.79
101229.81
101229.86
101231.03
101225.12
101223.79
101223.73
101223.71
101223.7
101217.21
101217.23
101217.25
101217.32
101218.8
101212
101210.38
101210.3
101210.28
101210.26
101202.71
101202.73
101202.76
101202.84
101204.67
101196.73
101194.65
101194.56
101194.53
101194.51
101185.62
101185.65
101185.68
101185.78
101188.16
101178.81
101176.1
101175.98
101175.94
101175.92
101165.28
101165.32
101165.36
101165.49
101168.57
101157.14
101153.63
101153.48
101153.44
101153.4
101140.08
101140.11
101140.16
101140.33
101144.3
101129.44
101125.12
101124.93
101124.87
101124.83
101107.62
101107.66
101107.73
101107.93
101112.19
101092.16
101088.45
101088.25
101088.18
101088.16
101062.5
101062.43
101062.42
101062.57
101066.3
101027.73
101020.08
101020.12
101020.47
101020.7
100979.55
100979.31
100978.83
100979.16
101002.48
100965.48
100921.54
100920.45
100920.95
100921.07
100603.41
100608.38
100608.96
100613.02
100705.27
100704.36
100273.41
100227.18
100184.74
100128.95
102130.05
102107.1
102084.08
102055.09
101732.35
101323.21
101218.63
101201.94
101188.35
101161.65
101782.83
101814.76
101837.09
101854.28
101774.43
101508.6
101596.15
101605.34
101612.27
101610.87
102031.31
102014.83
101998.07
101974.02
101718.78
100722.93
100403.63
100359.61
100316.44
100263.14
100568.99
100578.88
100584.42
100592.64
100681.44
100956.56
100938.51
100937.89
100938.6
100938.85
100989.61
100989.19
100988.73
100988.84
101001.13
101027.87
101022.22
101022.4
101022.84
101023.16
101063.47
101063.37
101063.31
101063.41
101066.34
101092.01
101089.13
101088.92
101088.84
101088.85
101108.06
101108.11
101108.21
101108.43
101111.95
101129.12
101125.47
101125.26
101125.18
101125.14
101140.32
101140.36
101140.43
101140.61
101144.03
101156.93
101153.87
101153.7
101153.64
101153.61
101165.42
101165.46
101165.51
101165.66
101168.38
101178.65
101176.23
101176.1
101176.05
101176.02
101185.7
101185.73
101185.77
101185.89
101188.02
101196.59
101194.7
101194.6
101194.56
101194.53
101202.73
101202.75
101202.78
101202.88
101204.54
101211.87
101210.4
101210.32
101210.29
101210.27
101217.25
101217.27
101217.29
101217.37
101218.69
101225
101223.79
101223.73
101223.71
101223.69
101229.72
101229.73
101229.76
101229.82
101230.92
101236.45
101235.44
101235.39
101235.37
101235.36
101240.67
101240.69
101240.7
101240.75
101241.66
101246.58
101245.78
101245.73
101245.72
101245.71
101250.46
101250.47
101250.49
101250.53
101251.23
101255.57
101254.96
101254.93
101254.92
101254.91
101259.02
101259.03
101259.04
101259.07
101259.6
101263.32
101262.85
101262.83
101262.82
101262.81
101266.33
101266.33
101266.34
101266.36
101266.77
101269.97
101269.61
101269.59
101269.58
101269.58
101272.62
101272.62
101272.63
101272.65
101272.97
101275.75
101275.43
101275.42
101275.41
101275.41
101278.09
101278.09
101278.09
101278.11
101278.4
101280.82
101280.33
101280.33
101280.35
101280.36
101280.3
101280.29
101280.27
101280.27
101280.8
101278.37
101278.05
101278.04
101278.03
101278.03
101275.33
101275.33
101275.34
101275.35
101275.69
101272.9
101272.55
101272.53
101272.52
101272.52
101269.49
101269.5
101269.51
101269.53
101269.92
101266.75
101266.31
101266.28
101266.28
101266.27
101262.79
101262.8
101262.81
101262.83
101263.33
101259.6
101259.02
101258.99
101258.98
101258.97
101254.85
101254.86
101254.87
101254.9
101255.55
101251.18
101250.44
101250.41
101250.39
101250.39
101245.64
101245.65
101245.66
101245.7
101246.53
101241.64
101240.72
101240.67
101240.66
101240.65
101235.39
101235.4
101235.41
101235.47
101236.49
101231
101229.87
101229.81
101229.79
101229.78
101223.78
101223.8
101223.82
101223.89
101225.13
101218.8
101217.41
101217.34
101217.31
101217.29
101210.32
101210.34
101210.37
101210.45
101211.98
101204.63
101202.89
101202.8
101202.77
101202.75
101194.58
101194.6
101194.64
101194.74
101196.72
101188.16
101185.9
101185.78
101185.75
101185.72
101176.1
101176.12
101176.17
101176.3
101178.84
101168.6
101165.71
101165.56
101165.51
101165.49
101153.67
101153.7
101153.75
101153.92
101157.22
101144.37
101140.61
101140.42
101140.37
101140.33
101125.13
101125.17
101125.23
101125.44
101129.6
101112.46
101108.15
101107.91
101107.83
101107.79
101088.25
101088.25
101088.32
101088.57
101092.98
101067.63
101061.7
101061.55
101061.68
101061.81
101019.21
101018.87
101018.32
101018.34
101030.39
101011.57
100988.55
100988.12
100988.61
100988.97
100936.33
100936.54
100936.18
100937.44
100960.94
100627.52
100478.06
100461.36
100447.83
100429.08
100718.62
100748.17
100769.6
100792.11
100949.25
101532.34
101727.78
101737.22
101741.18
101741.37
101341.44
101359.89
101368.08
101373.6
101350.43
101853.42
101935.56
101923.46
101905.72
101877.51
102280.76
102530.44
102561.55
102582.91
102591.53
102664.28
102657.08
102649.75
102625.3
102207.85
101981.23
102074.08
102069.39
102060.55
102037.48
101842.46
101850.1
101851.16
101848.37
101779.75
101603.02
101744.29
101759.94
101770.21
101778.37
101558.84
101567.62
101572.62
101572.61
101504.98
100771.56
100562.09
100535.32
100510.99
100471.85
100535.1
100545.41
100552.07
100561.78
100673.26
100952.94
100935.97
100935.83
100936.99
100937.69
100989.76
100989.35
100989.04
100989.3
101002.01
101027.7
101021.77
101021.88
101022.25
101022.53
101062.7
101062.61
101062.52
101062.61
101066.06
101091.96
101088.79
101088.6
101088.54
101088.54
101107.99
101108.03
101108.12
101108.34
101111.91
101129.13
101125.48
101125.28
101125.2
101125.15
101140.31
101140.36
101140.42
101140.61
101144.05
101156.95
101153.85
101153.69
101153.63
101153.59
101165.41
101165.45
101165.5
101165.65
101168.4
101178.66
101176.22
101176.08
101176.03
101176
101185.64
101185.67
101185.72
101185.84
101188.01
101196.6
101194.68
101194.57
101194.54
101194.51
101202.72
101202.74
101202.77
101202.87
101204.55
101211.9
101210.44
101210.36
101210.33
101210.31
101217.27
101217.29
101217.32
101217.39
101218.71
101225.02
101223.81
101223.74
101223.72
101223.7
101229.73
101229.75
101229.77
101229.83
101230.93
101236.46
101235.45
101235.4
101235.38
101235.36
101240.68
101240.69
101240.71
101240.75
101241.67
101246.59
101245.78
101245.74
101245.72
101245.71
101250.47
101250.48
101250.5
101250.53
101251.24
101255.57
101254.96
101254.92
101254.91
101254.9
101259.02
101259.03
101259.04
101259.07
101259.6
101263.33
101262.86
101262.84
101262.83
101262.82
101266.33
101266.34
101266.35
101266.37
101266.78
101269.99
101269.62
101269.6
101269.59
101269.59
101272.64
101272.64
101272.65
101272.67
101272.99
101275.78
101275.47
101275.46
101275.45
101275.45
101278.13
101278.13
101278.14
101278.15
101278.43
101280.84
101280.36
101280.36
101280.38
101280.39
101280.3
101280.29
101280.28
101280.28
101280.87
101278.49
101278.17
101278.15
101278.15
101278.15
101275.44
101275.44
101275.45
101275.46
101275.83
101273.03
101272.64
101272.62
101272.61
101272.61
101269.57
101269.57
101269.58
101269.6
101270.03
101266.83
101266.35
101266.33
101266.32
101266.32
101262.81
101262.82
101262.83
101262.85
101263.39
101259.65
101259.05
101259.02
101259.02
101259.01
101254.89
101254.9
101254.91
101254.93
101255.61
101251.26
101250.51
101250.48
101250.47
101250.46
101245.75
101245.76
101245.77
101245.8
101246.65
101241.76
101240.82
101240.78
101240.76
101240.75
101235.5
101235.51
101235.53
101235.57
101236.61
101231.11
101229.97
101229.92
101229.9
101229.88
101223.84
101223.86
101223.88
101223.94
101225.22
101218.89
101217.44
101217.37
101217.35
101217.33
101210.32
101210.34
101210.36
101210.43
101212.08
101204.73
101202.85
101202.77
101202.74
101202.72
101194.52
101194.55
101194.58
101194.67
101196.82
101188.25
101185.81
101185.71
101185.67
101185.65
101176.01
101176.04
101176.08
101176.2
101178.94
101168.7
101165.59
101165.45
101165.41
101165.38
101153.59
101153.62
101153.67
101153.81
101157.32
101144.46
101140.53
101140.36
101140.32
101140.28
101125.13
101125.16
101125.22
101125.4
101129.62
101112.32
101108.1
101107.91
101107.85
101107.82
101088.1
101088.11
101088.16
101088.35
101092.49
101066.34
101061.65
101061.53
101061.57
101061.63
101019.63
101019.45
101019.16
101019.2
101027.98
101006.41
100982.35
100981.73
100981.95
100982.07
100920.69
100920.89
100920.6
100921.74
100960.1
100671.97
100533.96
100526.78
100523.68
100515.1
100497.26
100532.68
100558.36
100586.79
100867.68
101363.82
101456.54
101459.83
101461.34
101454.02
101161.4
101195.18
101223.46
101249.5
101411.15
101958.11
102428.88
102479.2
102519.37
102559.83
101419.98
101442.41
101455.49
101464.92
101451.75
101205.08
101168.8
101157.64
101147.7
101124.32
101164.09
101164.88
101163.14
101160.05
101114.81
100595.22
100362.52
100336.26
100312.87
100284.09
100948.13
100948.77
100948.93
100950.29
100963.31
101015.72
100991.75
100990.8
100990.88
100991.11
101018.8
101018.48
101017.92
101017.88
101030.47
101067.46
101060.72
101060.6
101060.79
101060.92
101088.27
101088.25
101088.28
101088.52
101093.04
101112.45
101108.27
101108.03
101107.95
101107.91
101125.19
101125.24
101125.31
101125.52
101129.57
101144.38
101140.66
101140.47
101140.41
101140.37
101153.69
101153.72
101153.77
101153.94
101157.25
101168.64
101165.72
101165.57
101165.53
101165.5
101176.1
101176.13
101176.17
101176.31
101178.89
101188.22
101185.93
101185.81
101185.78
101185.75
101194.62
101194.65
101194.68
101194.79
101196.79
101204.71
101202.96
101202.87
101202.83
101202.81
101210.39
101210.41
101210.44
101210.52
101212.06
101218.88
101217.5
101217.42
101217.4
101217.38
101223.86
101223.88
101223.9
101223.97
101225.2
101231.05
101229.93
101229.87
101229.85
101229.84
101235.42
101235.43
101235.45
101235.5
101236.53
101241.67
101240.74
101240.69
101240.68
101240.67
101245.65
101245.66
101245.67
101245.72
101246.55
101251.18
101250.44
101250.4
101250.39
101250.38
101254.85
101254.86
101254.87
101254.9
101255.55
101259.61
101259.04
101259.01
101259
101258.99
101262.82
101262.82
101262.83
101262.86
101263.36
101266.79
101266.36
101266.34
101266.33
101266.32
101269.55
101269.56
101269.57
101269.58
101269.97
101272.95
101272.6
101272.59
101272.58
101272.58
101275.41
101275.41
101275.42
101275.43
101275.75
101278.42
101278.13
101278.12
101278.11
101278.11
101280.33
101280.33
101280.32
101280.32
101280.82
101280.82
101280.3
101280.3
101280.31
101280.32
101278.06
101278.06
101278.07
101278.08
101278.39
101275.71
101275.38
101275.37
101275.36
101275.36
101272.55
101272.55
101272.56
101272.57
101272.92
101269.93
101269.54
101269.53
101269.52
101269.51
101266.29
101266.3
101266.31
101266.33
101266.76
101263.35
101262.85
101262.83
101262.82
101262.81
101259.02
101259.02
101259.03
101259.06
101259.62
101255.56
101254.91
101254.88
101254.87
101254.86
101250.4
101250.4
101250.42
101250.45
101251.19
101246.54
101245.71
101245.67
101245.65
101245.64
101240.64
101240.65
101240.66
101240.71
101241.65
101236.48
101235.43
101235.38
101235.36
101235.35
101229.75
101229.76
101229.78
101229.84
101230.98
101225.12
101223.86
101223.79
101223.77
101223.75
101217.31
101217.33
101217.35
101217.43
101218.81
101212
101210.46
101210.37
101210.34
101210.32
101202.79
101202.81
101202.84
101202.94
101204.67
101196.75
101194.78
101194.67
101194.64
101194.62
101185.75
101185.77
101185.81
101185.93
101188.18
101178.85
101176.3
101176.16
101176.12
101176.09
101165.47
101165.5
101165.54
101165.69
101168.61
101157.2
101153.87
101153.7
101153.66
101153.62
101140.26
101140.3
101140.35
101140.54
101144.33
101129.51
101125.34
101125.12
101125.05
101125
101107.65
101107.69
101107.78
101108.03
101112.35
101092.75
101088.44
101088.19
101088.12
101088.12
101061.97
101061.87
101061.76
101061.91
101067.53
101030.18
101019.37
101019.39
101019.93
101020.31
100988.54
100988.19
100987.68
100988.04
101010.09
100967.62
100938.64
100937.34
100937.48
100937.01
100490.51
100504.78
100515.48
100528.54
100651.19
100800.19
100569.24
100535.51
100505.62
100463.63
102047.18
102032.23
102016.71
101993.31
101717.12
101232.26
101173.12
101165.48
101162.43
101142.02
101447.16
101282.12
101407.18
101406.38
101333.2
101314.19
101294
101265.27
101809.33
101802.53
101793.66
101779.72
101629.64
102200.64
102207.25
102205.92
102194.6
102111.48
101743.83
101861.96
101873.37
101879.31
101862.77
101352
101384.8
101392.87
101402.53
101478.28
101821.85
101950.59
101960.01
101962.25
101962.34
101824.94
102157.28
101660.14
101783.21
101307.45
101312.92
101304.06
101307.46
101303.67
101301.94
101304.05
101304.54
101280.2
101280.19
101280.17
101280.17
101280.7
101278.3
101277.97
101277.96
101277.95
101277.95
101275.32
101275.32
101275.33
101275.34
101275.67
101272.91
101272.57
101272.55
101272.55
101272.54
101269.51
101269.52
101269.53
101269.54
101269.91
101266.71
101266.3
101266.28
101266.27
101266.27
101262.77
101262.77
101262.78
101262.8
101263.27
101259.55
101259.01
101258.98
101258.97
101258.96
101254.86
101254.87
101254.88
101254.91
101255.53
101251.2
101250.5
101250.46
101250.45
101250.44
101245.67
101245.68
101245.69
101245.73
101246.54
101241.6
101240.66
101240.62
101240.6
101240.59
101235.28
101235.29
101235.31
101235.37
101236.39
101230.85
101229.74
101229.68
101229.66
101229.65
101223.58
101223.6
101223.62
101223.68
101224.93
101218.6
101217.27
101217.2
101217.17
101217.15
101210.18
101210.2
101210.23
101210.32
101211.79
101204.41
101202.72
101202.63
101202.59
101202.57
101194.36
101194.38
101194.42
101194.53
101196.47
101187.85
101185.61
101185.49
101185.45
101185.42
101175.77
101175.8
101175.85
101175.99
101178.49
101168.22
101165.45
101165.3
101165.24
101165.21
101153.34
101153.37
101153.43
101153.6
101156.78
101143.85
101140.29
101140.1
101140.03
101139.99
101124.94
101125
101125.08
101125.3
101129.06
101111.94
101108.34
101108.1
101108
101107.96
101088.85
101088.83
101088.89
101089.1
101092.33
101066.18
101062.29
101062.21
101062.32
101062.43
101022.56
101022.25
101021.81
101021.65
101028.22
101007.58
100991.44
100990.83
100991
100991.37
100935.3
100935.46
100935.56
100936.15
100940.31
100603.77
100405.22
100384.76
100367.62
100345.29
101146.73
101152.37
101150.33
101147.98
101120.71
101125.43
101010.35
100991.63
100974.46
100940.21
101695.92
101700.67
101707.05
101706.22
101631.15
101972.11
101978.22
101983.86
101974.31
101755.9
101777.46
101777.28
101779.29
101702.99
101684.44
101775.38
101767.59
101760.25
101733.13
102915.14
102864.48
102820.16
102761.05
102305.49
102133.49
102390.4
102418.63
102440.66
102460.29
101692.28
101697.31
101704.14
101703.83
101628.18
101122.47
101005.25
100986.08
100968.39
100933.8
101137.76
101143.46
101141.36
101139.19
101116.43
100599.63
100397.07
100376.46
100359.29
100337.01
100932.3
100932.49
100932.51
100933.09
100938.68
101006.95
100990.66
100990.11
100990.33
100990.74
101021.5
101021.17
101020.68
101020.49
101027.17
101065.58
101061.74
101061.68
101061.81
101061.93
101088.77
101088.75
101088.8
101089
101092.18
101111.98
101108.4
101108.19
101108.1
101108.07
101125.26
101125.3
101125.37
101125.57
101129.24
101144.13
101140.74
101140.56
101140.5
101140.46
101153.77
101153.8
101153.86
101154.02
101157.07
101168.48
101165.75
101165.6
101165.55
101165.52
101176.12
101176.15
101176.2
101176.33
101178.76
101188.09
101185.93
101185.82
101185.77
101185.75
101194.6
101194.62
101194.66
101194.76
101196.66
101204.58
101202.91
101202.82
101202.79
101202.76
101210.34
101210.36
101210.39
101210.47
101211.95
101218.76
101217.44
101217.37
101217.34
101217.33
101223.8
101223.81
101223.83
101223.9
101225.08
101230.96
101229.87
101229.82
101229.8
101229.78
101235.4
101235.41
101235.43
101235.48
101236.48
101241.67
101240.77
101240.72
101240.7
101240.69
101245.7
101245.71
101245.73
101245.77
101246.57
101251.2
101250.47
101250.43
101250.42
101250.41
101254.85
101254.86
101254.87
101254.91
101255.54
101259.58
101259.02
101259
101258.98
101258.98
101262.8
101262.81
101262.82
101262.84
101263.32
101266.77
101266.35
101266.33
101266.32
101266.32
101269.58
101269.59
101269.6
101269.62
101269.99
101272.99
101272.66
101272.64
101272.63
101272.63
101275.48
101275.48
101275.49
101275.5
101275.8
101278.42
101278.14
101278.13
101278.12
101278.12
101280.66
101280.66
101280.66
101280.68
101280.94
101283.19
101282.73
101282.73
101282.75
101282.76
101280.7
101280.19
101280.19
101280.2
101280.21
101277.98
101277.99
101277.99
101278.01
101278.31
101275.65
101275.33
101275.31
101275.31
101275.3
101272.49
101272.49
101272.5
101272.51
101272.86
101269.87
101269.48
101269.47
101269.46
101269.46
101266.23
101266.23
101266.24
101266.26
101266.71
101263.3
101262.79
101262.77
101262.76
101262.75
101258.96
101258.97
101258.98
101259.01
101259.58
101255.54
101254.9
101254.86
101254.85
101254.84
101250.36
101250.37
101250.38
101250.42
101251.16
101246.5
101245.67
101245.63
101245.62
101245.61
101240.59
101240.6
101240.62
101240.66
101241.6
101236.43
101235.4
101235.35
101235.33
101235.32
101229.7
101229.72
101229.74
101229.79
101230.94
101225.08
101223.84
101223.78
101223.76
101223.74
101217.26
101217.28
101217.31
101217.38
101218.78
101211.96
101210.4
101210.32
101210.29
101210.27
101202.67
101202.69
101202.72
101202.82
101204.62
101196.71
101194.67
101194.56
101194.53
101194.5
101185.59
101185.61
101185.66
101185.78
101188.13
101178.79
101176.17
101176.03
101175.98
101175.95
101165.28
101165.31
101165.36
101165.52
101168.54
101157.12
101153.74
101153.56
101153.51
101153.47
101140.16
101140.2
101140.26
101140.46
101144.27
101129.48
101125.39
101125.17
101125.09
101125.04
101107.79
101107.83
101107.91
101108.16
101112.47
101093.07
101088.44
101088.2
101088.15
101088.16
101061.11
101060.99
101060.82
101060.96
101067.71
101031.09
101018.85
101018.87
101019.4
101019.7
100992.49
100992.28
100992.24
100993.23
101016.69
100964.63
100951.55
100950.13
100949.81
100949.04
100288.82
100317.22
100340.13
100365.99
100597.7
101118.28
101163.5
101166.76
101168.67
101167.89
101127.82
101151.2
101161.15
101172.25
101207.16
101455.68
101472.21
101462.81
101449.6
101427.15
102562.17
102521.79
102481.78
102431.49
101961.87
101413.56
101251.57
101225.59
101197.35
101163.75
101772.87
101764.94
101754.63
101738.97
101602.34
101507.17
101591.39
101600.39
101607.09
101605.61
101160.63
101187.15
101200.54
101216.78
101320.81
101227.37
101163.67
101156.19
101153.31
101133
101333.21
101351.84
101359.42
101364.63
101344.43
101407.28
101337.08
101317.57
101296.88
101267.27
101813.36
101807.51
101800.28
101787.94
101633.58
101142.57
101026.34
101004.71
100982.21
100947.01
101113.21
101117.94
101116.17
101114.98
101113.36
100592.08
100391.44
100371.28
100354.35
100331.72
100933.96
100934.7
100934.86
100935.71
100940.02
101006.28
100990.74
100990.17
100990.34
100990.62
101021
101020.68
101020.22
101020.05
101026.9
101065.54
101061.68
101061.61
101061.74
101061.86
101088.68
101088.66
101088.7
101088.89
101092.09
101111.96
101108.37
101108.15
101108.07
101108.03
101125.27
101125.32
101125.39
101125.59
101129.26
101144.14
101140.71
101140.53
101140.47
101140.44
101153.74
101153.77
101153.83
101153.99
101157.06
101168.47
101165.72
101165.58
101165.53
101165.49
101176.11
101176.14
101176.18
101176.31
101178.75
101188.08
101185.93
101185.81
101185.77
101185.74
101194.61
101194.63
101194.67
101194.77
101196.67
101204.59
101202.92
101202.83
101202.8
101202.78
101210.35
101210.37
101210.4
101210.48
101211.95
101218.77
101217.48
101217.41
101217.38
101217.36
101223.8
101223.81
101223.84
101223.9
101225.09
101230.96
101229.87
101229.81
101229.79
101229.77
101235.38
101235.4
101235.42
101235.47
101236.47
101241.65
101240.74
101240.7
101240.68
101240.67
101245.66
101245.67
101245.69
101245.73
101246.55
101251.18
101250.45
101250.41
101250.4
101250.39
101254.85
101254.86
101254.87
101254.9
101255.54
101259.58
101259.04
101259.01
101259
101258.99
101262.8
101262.8
101262.81
101262.84
101263.31
101266.76
101266.35
101266.33
101266.32
101266.31
101269.58
101269.58
101269.59
101269.61
101269.98
101272.99
101272.66
101272.64
101272.64
101272.63
101275.49
101275.5
101275.5
101275.52
101275.81
101278.43
101278.16
101278.15
101278.15
101278.14
101280.69
101280.7
101280.7
101280.72
101280.95
101283.15
101282.7
101282.69
101282.7
101282.71
101280.79
101280.32
101280.33
101280.35
101280.36
101278.04
101278.04
101278.04
101278.05
101278.36
101275.71
101275.39
101275.37
101275.37
101275.37
101272.56
101272.56
101272.57
101272.59
101272.93
101269.93
101269.56
101269.54
101269.53
101269.52
101266.27
101266.28
101266.29
101266.31
101266.73
101263.29
101262.82
101262.79
101262.78
101262.78
101258.98
101258.99
101259
101259.03
101259.57
101255.53
101254.91
101254.88
101254.87
101254.86
101250.41
101250.42
101250.43
101250.47
101251.19
101246.55
101245.75
101245.7
101245.69
101245.68
101240.64
101240.65
101240.67
101240.72
101241.63
101236.41
101235.39
101235.34
101235.32
101235.31
101229.65
101229.66
101229.68
101229.74
101230.87
101224.95
101223.7
101223.63
101223.61
101223.6
101217.15
101217.17
101217.2
101217.27
101218.62
101211.81
101210.33
101210.24
101210.21
101210.19
101202.63
101202.65
101202.69
101202.78
101204.46
101196.51
101194.58
101194.47
101194.43
101194.41
101185.55
101185.58
101185.62
101185.75
101187.93
101178.56
101176.07
101175.94
101175.89
101175.86
101165.24
101165.28
101165.33
101165.48
101168.28
101156.85
101153.67
101153.5
101153.44
101153.41
101140.15
101140.2
101140.26
101140.45
101143.96
101129.1
101125.35
101125.14
101125.06
101125.01
101107.9
101107.93
101108.02
101108.24
101111.9
101092.13
101088.7
101088.5
101088.46
101088.49
101061.78
101061.66
101061.53
101061.6
101065.85
101027.55
101020.42
101020.54
101020.97
101021.25
100990.88
100990.65
100990.57
100991.2
101006.6
100941.2
100938.8
100937.99
100937.84
100937.2
100339.55
100362.32
100379.44
100399.55
100596.11
101117.79
101126.12
101127.59
101129.68
101125.24
100949.64
100984.49
101006.79
101028.2
101142.74
101286.02
101239.25
101230.85
101220.71
101203.87
100832.19
100852.09
100861.34
100872.81
100990.3
100650.29
100452.39
100438.19
100428.38
100413.18
100928.86
100928.81
100928.3
100928.79
100954.27
101006.52
100983.07
100982.54
100982.76
100983.03
101017.93
101017.71
101017.35
101017.38
101027.83
101066.28
101061.31
101061.18
101061.23
101061.29
101087.93
101087.94
101088
101088.2
101092.43
101112.25
101107.82
101107.62
101107.56
101107.53
101124.9
101124.94
101124.99
101125.18
101129.57
101144.39
101140.4
101140.23
101140.18
101140.14
101153.45
101153.48
101153.53
101153.68
101157.24
101168.62
101165.49
101165.36
101165.32
101165.29
101175.92
101175.95
101175.99
101176.11
101178.86
101188.17
101185.75
101185.64
101185.61
101185.58
101194.44
101194.46
101194.49
101194.58
101196.73
101204.64
101202.75
101202.67
101202.64
101202.62
101210.21
101210.22
101210.25
101210.32
101211.98
101218.79
101217.31
101217.24
101217.22
101217.2
101223.72
101223.73
101223.75
101223.81
101225.14
101231.05
101229.88
101229.82
101229.81
101229.79
101235.45
101235.46
101235.48
101235.52
101236.56
101241.73
101240.8
101240.76
101240.75
101240.74
101245.74
101245.75
101245.76
101245.79
101246.62
101251.24
101250.49
101250.46
101250.45
101250.44
101254.87
101254.88
101254.88
101254.91
101255.58
101259.62
101259.01
101258.98
101258.98
101258.97
101262.78
101262.79
101262.79
101262.82
101263.35
101266.79
101266.3
101266.27
101266.27
101266.26
101269.51
101269.52
101269.52
101269.54
101269.98
101272.98
101272.57
101272.55
101272.55
101272.54
101275.35
101275.35
101275.36
101275.37
101275.76
101278.41
101278.02
101278.01
101278.01
101278.01
101280.26
101280.25
101280.23
101280.22
101280.83
101280.77
101280.18
101280.17
101280.19
101280.2
101278
101278
101278
101278.01
101278.37
101275.72
101275.35
101275.33
101275.33
101275.33
101272.52
101272.53
101272.53
101272.55
101272.94
101269.95
101269.51
101269.49
101269.49
101269.48
101266.25
101266.25
101266.26
101266.28
101266.76
101263.32
101262.78
101262.76
101262.75
101262.75
101258.96
101258.96
101258.97
101259
101259.6
101255.58
101254.89
101254.87
101254.86
101254.86
101250.43
101250.44
101250.45
101250.48
101251.23
101246.6
101245.76
101245.72
101245.71
101245.71
101240.71
101240.71
101240.73
101240.77
101241.7
101236.5
101235.48
101235.43
101235.42
101235.4
101229.76
101229.77
101229.79
101229.85
101230.99
101225.09
101223.79
101223.73
101223.71
101223.7
101217.19
101217.21
101217.23
101217.3
101218.75
101211.94
101210.3
101210.22
101210.2
101210.18
101202.59
101202.61
101202.64
101202.72
101204.59
101196.66
101194.52
101194.43
101194.4
101194.37
101185.47
101185.49
101185.53
101185.64
101188.08
101178.72
101175.95
101175.83
101175.79
101175.76
101165.11
101165.14
101165.18
101165.32
101168.47
101157.07
101153.51
101153.35
101153.3
101153.27
101139.99
101140.03
101140.08
101140.26
101144.24
101129.41
101125.17
101124.97
101124.91
101124.86
101107.74
101107.78
101107.86
101108.07
101112.26
101092.5
101088.6
101088.39
101088.32
101088.3
101061.76
101061.7
101061.67
101061.82
101066.33
101028.35
101019.03
101019
101019.32
101019.53
100983.52
100983.34
100983.06
100983.61
101008.27
100952.29
100919.6
100919.22
100920.15
100920.53
100482.1
100490.64
100494.01
100501.86
100654.47
100938.94
100702.71
100675.07
100648.11
100611.26
101359.68
101361.92
101359.88
101356.24
101306.67
101387.77
101293.06
101273.78
101256.04
101227.24
101862.73
101888.1
101905.26
101915.8
101832.23
101457.16
101539.83
101536.13
101528.43
101512.14