/*--------------------------------*- C++ -*----------------------------------*\
  =========                 |
  \\      /  F ield         | OpenFOAM: The Open Source CFD Toolbox
   \\    /   O peration     | Website:  https://openfoam.org
    \\  /    A nd           | Version:  7
     \\/     M anipulation  |
\*---------------------------------------------------------------------------*/
FoamFile
{
    version     2.0;
    format      ascii;
    class       volScalarField;
    location    "20";
    object      rho;
}
// * * * * * * * * * * * * * * * * * * * * * * * * * * * * * * * * * * * * * //

dimensions      [1 -3 0 0 0 0 0];

internalField   nonuniform List<scalar> 
24789
(
1.1739423
1.1739433
1.1739439
1.173944
1.1739437
1.173943
1.1739445
1.1739446
1.1739441
1.1739433
1.1739447
1.1739456
1.1739458
1.1739455
1.1739431
1.1739437
1.1739464
1.1739467
1.1739465
1.1739456
1.1739472
1.1739483
1.1739486
1.1739482
1.1739448
1.1739463
1.1739502
1.1739506
1.1739503
1.1739491
1.1739517
1.1739532
1.1739535
1.173953
1.1739483
1.1739511
1.1739565
1.1739571
1.1739567
1.1739551
1.1739596
1.1739616
1.1739619
1.1739612
1.1739546
1.1739589
1.1739663
1.1739671
1.1739666
1.1739643
1.1739707
1.1739734
1.173974
1.173973
1.1739641
1.1739705
1.1739807
1.1739818
1.1739811
1.1739781
1.1739871
1.1739908
1.1739916
1.1739902
1.173978
1.1739871
1.1740013
1.1740029
1.174002
1.1739978
1.1740105
1.1740154
1.1740165
1.1740146
1.1739976
1.1740096
1.1740294
1.1740316
1.1740304
1.1740247
1.1740434
1.17405
1.1740514
1.1740486
1.1740242
1.1740389
1.174066
1.1740691
1.1740673
1.1740595
1.1740818
1.1740909
1.1740929
1.1740892
1.1740561
1.1740756
1.1741148
1.1741193
1.174117
1.1741061
1.1741334
1.1741464
1.1741491
1.1741437
1.1740971
1.1741201
1.1741746
1.1741809
1.1741776
1.1741621
1.1741938
1.1742123
1.1742165
1.1742092
1.1741454
1.1741744
1.174247
1.1742551
1.17425
1.1742277
1.1742651
1.1742919
1.1742988
1.17429
1.174209
1.1742535
1.1743381
1.1743465
1.1743371
1.1743043
1.1743481
1.1743882
1.1744021
1.1743956
1.1743131
1.174402
1.1744707
1.174473
1.1744533
1.1744046
1.1744922
1.174549
1.1745763
1.1745808
1.174533
1.1747138
1.1747266
1.174714
1.1746813
1.1746235
1.1749279
1.1749644
1.1749978
1.1750196
1.1750613
1.1754628
1.175422
1.1754191
1.1754295
1.1754827
1.1738192
1.174158
1.1744491
1.1746073
1.1752244
1.1787827
1.1817663
1.1817599
1.1817949
1.1817978
1.1818178
1.1818799
1.18188
1.1818756
1.1821808
1.1825214
1.1821927
1.1822273
1.1822651
1.1822743
1.1836352
1.1835854
1.1835357
1.1834726
1.1831902
1.1827602
1.1820161
1.1820113
1.1820148
1.1819828
1.1822883
1.1822984
1.1822572
1.1822232
1.1820736
1.1782946
1.1813165
1.1812578
1.1812368
1.1811777
1.1746338
1.174865
1.1750505
1.1751428
1.1756326
1.1756369
1.1755582
1.1755528
1.1755636
1.1756162
1.1749929
1.1750168
1.1750448
1.1750661
1.1751407
1.174794
1.1747799
1.1747649
1.1747297
1.1746707
1.1745499
1.1746096
1.1746378
1.1746422
1.1745953
1.1744672
1.1745398
1.1745424
1.1745221
1.1744719
1.1744151
1.1744536
1.174466
1.1744581
1.174363
1.1743011
1.1743943
1.1744033
1.1743949
1.174364
1.1743155
1.17434
1.1743454
1.1743359
1.1742446
1.1742078
1.1742867
1.174295
1.1742905
1.17427
1.1742287
1.1742456
1.1742488
1.1742411
1.17417
1.174143
1.1742022
1.1742085
1.1742057
1.1741914
1.1741576
1.1741695
1.1741716
1.174166
1.1741139
1.1740916
1.1741345
1.1741391
1.1741372
1.1741271
1.1740992
1.1741076
1.1741091
1.1741051
1.1740682
1.1740506
1.1740807
1.1740839
1.1740825
1.1740754
1.1740551
1.1740613
1.1740624
1.1740595
1.174033
1.1740185
1.1740395
1.1740417
1.1740406
1.1740353
1.1740197
1.1740243
1.1740252
1.1740232
1.1740047
1.1739941
1.1740094
1.174011
1.1740102
1.1740064
1.1739942
1.1739976
1.1739983
1.1739969
1.1739836
1.1739758
1.173987
1.1739881
1.1739876
1.1739848
1.1739761
1.1739786
1.1739791
1.1739781
1.1739683
1.1739627
1.1739709
1.1739718
1.1739714
1.1739693
1.1739633
1.1739652
1.1739656
1.1739648
1.1739576
1.173954
1.1739601
1.1739608
1.1739605
1.173959
1.1739547
1.1739561
1.1739564
1.1739558
1.1739506
1.1739485
1.1739529
1.1739533
1.1739532
1.1739521
1.1739494
1.1739505
1.1739507
1.1739503
1.1739465
1.1739454
1.1739485
1.1739489
1.1739487
1.173948
1.1739462
1.173947
1.1739472
1.173947
1.1739444
1.1739443
1.1739459
1.1739459
1.1739455
1.1739447
1.1739458
1.1739463
1.1739459
1.1739455
1.1739451
1.1739452
1.1739457
1.1739458
1.1739454
1.1739448
1.1739482
1.1739487
1.1739488
1.1739484
1.1739461
1.1739467
1.1739493
1.1739497
1.1739496
1.173949
1.1739504
1.1739514
1.1739515
1.1739511
1.1739476
1.1739497
1.1739536
1.173954
1.1739538
1.1739528
1.1739556
1.1739569
1.1739572
1.1739567
1.1739516
1.1739552
1.1739608
1.1739614
1.1739611
1.1739596
1.1739641
1.1739659
1.1739663
1.1739656
1.1739587
1.1739641
1.1739718
1.1739726
1.1739722
1.1739701
1.1739768
1.1739792
1.1739797
1.1739788
1.1739695
1.1739776
1.1739882
1.1739893
1.1739888
1.173986
1.1739959
1.1739991
1.1739997
1.1739984
1.1739855
1.1739967
1.1740115
1.174013
1.1740123
1.1740086
1.1740222
1.1740265
1.1740273
1.1740254
1.1740075
1.1740229
1.1740436
1.1740458
1.1740448
1.1740397
1.1740591
1.174065
1.1740662
1.1740634
1.1740378
1.174057
1.1740853
1.1740884
1.174087
1.1740801
1.174104
1.1741122
1.1741138
1.1741102
1.1740753
1.1741014
1.1741408
1.174145
1.1741431
1.1741334
1.1741648
1.1741763
1.1741785
1.1741733
1.1741247
1.1741572
1.1742122
1.1742181
1.1742154
1.1742017
1.1742402
1.1742563
1.1742596
1.1742524
1.1741852
1.1742289
1.1743029
1.1743108
1.1743067
1.1742874
1.1743364
1.1743593
1.1743646
1.1743555
1.1742681
1.174334
1.1744213
1.17443
1.1744223
1.1743937
1.1744508
1.174487
1.1744988
1.1744914
1.1744011
1.1745187
1.1745828
1.1745851
1.1745659
1.1745179
1.1746019
1.1746601
1.174688
1.1746928
1.1746542
1.1748698
1.1748414
1.1748257
1.1747903
1.1747307
1.1750375
1.1750665
1.1750965
1.1751192
1.1752065
1.1757551
1.1756046
1.1755869
1.1755783
1.1755971
1.175127
1.175281
1.1753901
1.1754382
1.1758465
1.1777708
1.1802377
1.1801189
1.1800427
1.179931
1.1842945
1.184179
1.1840445
1.1839164
1.1836439
1.1826964
1.1821055
1.182107
1.1821088
1.1820356
1.1833238
1.1833198
1.1833019
1.1832667
1.1831029
1.1827405
1.1827867
1.1828573
1.1829131
1.1829021
1.1839792
1.1838767
1.183764
1.1836527
1.1834025
1.1777988
1.1803759
1.1802593
1.180187
1.1800944
1.175066
1.1751705
1.1752117
1.1752259
1.1756025
1.1756198
1.175543
1.1755228
1.175504
1.1755064
1.1750275
1.1750588
1.1750886
1.1751086
1.1751493
1.1748535
1.174844
1.1748299
1.1747966
1.1747398
1.1746018
1.1746582
1.1746847
1.1746887
1.1746458
1.1745177
1.1745725
1.1745744
1.1745553
1.1745084
1.1744378
1.1744742
1.1744861
1.1744791
1.1744009
1.1743365
1.1744106
1.1744185
1.1744099
1.17438
1.1743254
1.1743495
1.1743552
1.1743466
1.1742711
1.1742314
1.1742954
1.1743029
1.1742982
1.1742779
1.1742323
1.1742492
1.1742529
1.174246
1.174187
1.1741584
1.1742066
1.1742124
1.1742093
1.1741949
1.1741592
1.1741712
1.1741735
1.1741683
1.1741252
1.1741021
1.174137
1.1741411
1.1741389
1.1741287
1.1740995
1.1741081
1.1741099
1.1741063
1.1740759
1.174058
1.1740823
1.174085
1.1740833
1.1740759
1.1740541
1.1740605
1.1740619
1.1740594
1.1740382
1.1740238
1.1740411
1.1740431
1.174042
1.1740367
1.1740191
1.1740238
1.1740248
1.1740231
1.1740081
1.1739974
1.1740098
1.1740112
1.1740103
1.1740064
1.1739938
1.1739973
1.1739981
1.1739969
1.1739859
1.1739781
1.1739872
1.1739882
1.1739876
1.1739847
1.173975
1.1739777
1.1739784
1.1739776
1.1739698
1.1739645
1.173971
1.1739718
1.1739713
1.1739692
1.1739629
1.1739649
1.1739653
1.1739647
1.1739589
1.1739554
1.1739602
1.1739607
1.1739604
1.1739588
1.1739545
1.173956
1.1739564
1.1739559
1.1739518
1.1739497
1.173953
1.1739533
1.173953
1.1739519
1.1739493
1.1739505
1.1739508
1.1739505
1.1739476
1.1739466
1.1739489
1.1739491
1.1739489
1.173948
1.1739468
1.1739477
1.173948
1.1739478
1.1739461
1.1739452
1.1739453
1.1739453
1.1739449
1.1739442
1.1739438
1.1739445
1.1739446
1.1739444
1.1739433
1.1739441
1.1739462
1.1739464
1.1739461
1.1739454
1.1739459
1.173947
1.1739473
1.173947
1.1739442
1.1739452
1.1739483
1.1739486
1.1739483
1.1739473
1.1739494
1.1739507
1.173951
1.1739506
1.1739466
1.1739486
1.1739532
1.1739536
1.1739533
1.1739519
1.1739554
1.1739571
1.1739575
1.1739569
1.1739513
1.1739547
1.1739609
1.1739615
1.173961
1.173959
1.1739649
1.1739672
1.1739676
1.1739668
1.1739592
1.1739644
1.1739729
1.1739738
1.1739732
1.1739706
1.1739783
1.1739815
1.1739823
1.1739812
1.173971
1.1739785
1.1739902
1.1739915
1.1739907
1.1739871
1.1739982
1.1740024
1.1740034
1.1740019
1.1739878
1.1739982
1.1740145
1.1740162
1.1740151
1.1740103
1.1740258
1.1740315
1.1740327
1.1740305
1.1740109
1.1740245
1.1740472
1.1740497
1.1740481
1.1740414
1.1740612
1.1740689
1.1740706
1.1740675
1.1740403
1.1740576
1.1740898
1.1740934
1.1740914
1.1740822
1.1741074
1.1741183
1.1741207
1.1741164
1.1740779
1.1740996
1.1741448
1.1741499
1.1741471
1.1741341
1.174164
1.1741795
1.174183
1.174177
1.1741237
1.1741495
1.174211
1.1742179
1.1742136
1.1741952
1.1742317
1.1742538
1.1742592
1.1742515
1.1741806
1.1742163
1.1742942
1.1743024
1.1742954
1.1742686
1.1743114
1.1743437
1.1743535
1.1743457
1.1742636
1.1743256
1.1744041
1.1744101
1.1743962
1.1743566
1.1744175
1.1744655
1.1744856
1.1744839
1.174417
1.1745492
1.1745933
1.1745887
1.1745618
1.1745059
1.1746456
1.1747015
1.1747341
1.1747471
1.1747326
1.1750762
1.175036
1.1750161
1.1749847
1.1749485
1.1754374
1.1754336
1.175446
1.1754606
1.1755193
1.1753953
1.1748533
1.1747752
1.1746223
1.174411
1.1810218
1.1810446
1.1810515
1.1811028
1.1785666
1.1829621
1.1828913
1.1829495
1.1830044
1.1830153
1.1819837
1.1820084
1.1819919
1.1819741
1.1824276
1.1832966
1.18352
1.1835723
1.1836162
1.1836675
1.1847077
1.1850915
1.1852318
1.1853398
1.1853898
1.1846293
1.1846325
1.184559
1.1844546
1.1841769
1.184042
1.1835458
1.1835913
1.1836259
1.1835465
1.1834195
1.1834345
1.1833826
1.1833181
1.1835379
1.1828514
1.1830249
1.1831198
1.1832048
1.183257
1.182804
1.1827769
1.1827362
1.1826958
1.1829124
1.1778218
1.1808216
1.1807515
1.1807269
1.1806596
1.1749269
1.1750474
1.17512
1.1751553
1.1755567
1.1755848
1.175516
1.1754976
1.1754804
1.1754836
1.174993
1.1750277
1.1750602
1.1750821
1.1751313
1.1748339
1.1748245
1.1748096
1.1747748
1.1747158
1.1745871
1.1746448
1.1746721
1.1746763
1.1746333
1.1745042
1.1745631
1.174565
1.1745456
1.1744982
1.1744294
1.1744662
1.1744783
1.1744713
1.1743919
1.174328
1.1744037
1.1744116
1.1744029
1.1743726
1.1743201
1.1743445
1.1743504
1.1743417
1.1742651
1.1742251
1.1742906
1.1742981
1.1742932
1.1742726
1.1742298
1.1742467
1.1742502
1.174243
1.174183
1.1741541
1.1742035
1.1742093
1.1742062
1.1741917
1.1741564
1.1741686
1.1741711
1.174166
1.1741223
1.1740994
1.1741348
1.1741389
1.1741368
1.1741265
1.174098
1.1741067
1.1741084
1.1741048
1.1740741
1.1740562
1.174081
1.1740839
1.1740824
1.1740751
1.1740532
1.1740595
1.174061
1.1740585
1.174037
1.1740226
1.17404
1.174042
1.1740406
1.1740351
1.1740187
1.1740235
1.1740245
1.1740228
1.1740076
1.1739967
1.1740093
1.1740107
1.1740098
1.1740059
1.1739935
1.173997
1.1739978
1.1739965
1.1739855
1.1739776
1.1739867
1.1739878
1.1739871
1.1739842
1.1739756
1.1739781
1.1739785
1.1739776
1.1739696
1.1739641
1.1739707
1.1739715
1.173971
1.1739689
1.1739627
1.1739647
1.1739651
1.1739645
1.1739586
1.173955
1.1739599
1.1739605
1.1739601
1.1739586
1.1739544
1.1739558
1.1739562
1.1739557
1.1739515
1.1739494
1.1739529
1.1739533
1.1739531
1.1739521
1.1739497
1.1739507
1.1739508
1.1739504
1.1739474
1.1739465
1.1739489
1.1739494
1.1739495
1.173949
1.1739486
1.1739489
1.1739486
1.1739481
1.1739462
1.1739457
1.1739463
1.1739469
1.1739474
1.1739475
1.1739445
1.1739453
1.1739456
1.1739455
1.1739446
1.1739452
1.1739475
1.1739478
1.1739477
1.1739472
1.1739482
1.173949
1.1739491
1.1739488
1.1739457
1.173947
1.1739505
1.1739509
1.1739507
1.1739498
1.1739521
1.1739533
1.1739535
1.173953
1.1739486
1.173951
1.173956
1.1739565
1.1739563
1.173955
1.173959
1.1739606
1.1739609
1.1739603
1.1739541
1.1739581
1.173965
1.1739657
1.1739653
1.1739635
1.1739694
1.1739716
1.173972
1.1739711
1.1739628
1.1739689
1.1739781
1.1739791
1.1739786
1.1739763
1.1739848
1.1739876
1.1739882
1.173987
1.1739757
1.1739844
1.1739971
1.1739984
1.1739978
1.1739946
1.1740067
1.1740105
1.1740112
1.1740096
1.173994
1.1740059
1.1740236
1.1740254
1.1740245
1.1740201
1.1740365
1.1740417
1.1740428
1.1740405
1.174019
1.1740352
1.1740601
1.1740627
1.1740615
1.1740554
1.1740767
1.1740837
1.1740851
1.1740819
1.1740518
1.1740724
1.174107
1.1741107
1.1741091
1.1741008
1.1741289
1.1741387
1.1741405
1.1741359
1.1740932
1.1741194
1.1741687
1.1741739
1.1741717
1.17416
1.1741948
1.1742086
1.1742112
1.1742048
1.1741454
1.1741784
1.1742455
1.1742527
1.1742494
1.1742328
1.1742761
1.1742958
1.1743
1.1742915
1.174212
1.1742584
1.1743439
1.1743527
1.1743471
1.1743229
1.1743737
1.1744035
1.1744115
1.1744024
1.1743082
1.1743832
1.1744693
1.1744762
1.1744635
1.1744249
1.1744832
1.1745328
1.1745528
1.1745502
1.1744776
1.1746275
1.174656
1.1746502
1.1746212
1.1745602
1.1746773
1.1747391
1.1747754
1.174791
1.1748079
1.1751776
1.175066
1.1750419
1.1750117
1.174983
1.1756207
1.175563
1.1755551
1.1755634
1.1756624
1.1757002
1.1751886
1.1750625
1.1748177
1.174526
1.1808801
1.180935
1.1809582
1.1810245
1.178065
1.1822663
1.182454
1.1825
1.1825565
1.1825596
1.1819758
1.1820183
1.1820343
1.1820535
1.1828896
1.1834329
1.1846302
1.1848502
1.1850457
1.1852185
1.1821151
1.1820884
1.1820634
1.1820467
1.1825488
1.1819503
1.181598
1.1815824
1.1815624
1.1814556
1.1822274
1.1821934
1.1821277
1.1821007
1.1790058
1.1752245
1.1745148
1.1743404
1.1740284
1.1736757
1.1754783
1.1754298
1.175423
1.1754283
1.1754695
1.1750702
1.1750154
1.1749927
1.174958
1.1749196
1.1746268
1.1746866
1.1747203
1.1747334
1.1747236
1.1745422
1.1745879
1.1745833
1.1745562
1.174499
1.1744126
1.1744607
1.1744803
1.1744777
1.1744093
1.1743194
1.1744006
1.1744069
1.174393
1.1743526
1.1743091
1.1743417
1.1743511
1.1743425
1.1742585
1.1742131
1.1742933
1.1743018
1.1742948
1.1742676
1.1742307
1.1742529
1.1742581
1.1742498
1.1741775
1.1741479
1.1742111
1.1742182
1.1742139
1.1741952
1.1741639
1.1741795
1.1741827
1.1741764
1.1741221
1.1740986
1.1741449
1.1741502
1.1741474
1.1741342
1.1741074
1.1741184
1.1741206
1.174116
1.174077
1.1740574
1.17409
1.1740937
1.1740917
1.1740825
1.1740617
1.1740694
1.174071
1.1740677
1.1740401
1.1740245
1.174048
1.1740506
1.1740492
1.1740425
1.1740252
1.1740309
1.1740322
1.17403
1.1740103
1.1739979
1.1740148
1.1740166
1.1740155
1.1740106
1.1739982
1.1740024
1.1740034
1.1740017
1.1739874
1.1739782
1.1739902
1.1739915
1.1739907
1.1739872
1.1739783
1.1739815
1.1739822
1.1739811
1.1739707
1.1739643
1.1739731
1.173974
1.1739734
1.1739708
1.1739644
1.1739668
1.1739673
1.1739665
1.173959
1.1739547
1.1739611
1.1739617
1.1739612
1.1739592
1.1739551
1.173957
1.1739573
1.1739567
1.1739512
1.1739484
1.173953
1.1739535
1.1739532
1.1739518
1.1739492
1.1739506
1.1739509
1.1739504
1.1739465
1.173945
1.1739483
1.1739487
1.1739485
1.1739475
1.1739458
1.1739468
1.173947
1.1739467
1.173944
1.1739435
1.1739458
1.173946
1.1739459
1.1739453
1.1739437
1.1739445
1.1739447
1.1739445
1.1739433
1.1739435
1.1739445
1.1739445
1.1739441
1.1739434
1.173946
1.1739467
1.1739469
1.1739467
1.1739444
1.1739446
1.1739472
1.1739475
1.1739473
1.1739464
1.1739477
1.1739488
1.1739491
1.1739487
1.1739455
1.1739469
1.1739507
1.1739511
1.1739509
1.1739497
1.1739522
1.1739537
1.173954
1.1739536
1.1739489
1.1739518
1.173957
1.1739576
1.1739572
1.1739556
1.1739599
1.1739619
1.1739622
1.1739615
1.1739552
1.1739596
1.1739668
1.1739676
1.173967
1.1739646
1.173971
1.1739737
1.1739743
1.1739734
1.1739648
1.1739718
1.1739818
1.173983
1.1739824
1.1739794
1.1739878
1.1739914
1.1739922
1.1739909
1.1739792
1.1739889
1.1740026
1.1740041
1.1740032
1.1739991
1.1740113
1.1740162
1.1740173
1.1740155
1.1739994
1.1740124
1.1740315
1.1740335
1.1740322
1.1740265
1.1740438
1.1740503
1.1740516
1.174049
1.1740265
1.1740427
1.1740694
1.1740723
1.1740706
1.1740628
1.1740845
1.1740936
1.1740956
1.174092
1.1740604
1.1740813
1.1741188
1.1741231
1.1741208
1.17411
1.1741375
1.1741503
1.1741531
1.174148
1.1741034
1.1741285
1.1741806
1.1741866
1.1741833
1.174168
1.1742004
1.1742185
1.1742226
1.1742157
1.1741549
1.1741877
1.1742571
1.1742649
1.1742597
1.174238
1.174277
1.1743031
1.17431
1.1743016
1.1742246
1.1742748
1.1743544
1.1743624
1.174353
1.174321
1.1743683
1.1744075
1.1744212
1.1744153
1.1743385
1.1744338
1.1744954
1.174497
1.1744772
1.174429
1.1745211
1.1745771
1.1746042
1.1746093
1.1745687
1.1747562
1.1747618
1.174749
1.1747169
1.1746622
1.1749671
1.1750018
1.1750329
1.1750536
1.1750955
1.175553
1.1754815
1.1754702
1.1754651
1.1754822
1.1744614
1.1747008
1.1748836
1.174976
1.1754609
1.1781446
1.1805337
1.1804443
1.1804083
1.1803587
1.1837242
1.1836472
1.1835459
1.1834423
1.1832711
1.1821954
1.181702
1.1817146
1.1817286
1.1816713
1.183979
1.1815757
1.1837086
1.1828735
1.1821535
1.1821524
1.1821646
1.1821578
1.1834385
1.18335
1.1832547
1.183158
1.1830157
1.1845711
1.1845344
1.1844681
1.1843791
1.1843623
1.1836059
1.1838219
1.1839057
1.1839572
1.1839175
1.1827427
1.1828562
1.182873
1.1828586
1.1830622
1.183302
1.1831559
1.1832107
1.1832427
1.1832115
1.1853859
1.1863786
1.1848982
1.1864154
1.1739531
1.1739799
1.1739498
1.1739531
1.1739345
1.1739372
1.1739396
1.1739356
1.1739421
1.1739435
1.1739445
1.1739449
1.1739443
1.173946
1.1739477
1.1739475
1.1739467
1.1739455
1.1739469
1.1739482
1.1739488
1.1739487
1.1739461
1.1739474
1.1739501
1.1739503
1.1739499
1.1739487
1.1739518
1.1739531
1.1739534
1.173953
1.1739492
1.1739516
1.1739555
1.1739559
1.1739555
1.1739542
1.1739586
1.1739603
1.1739607
1.17396
1.1739548
1.1739586
1.173964
1.1739646
1.1739641
1.1739621
1.1739689
1.1739711
1.1739716
1.1739708
1.1739637
1.1739697
1.1739771
1.173978
1.1739775
1.1739752
1.1739836
1.1739865
1.1739871
1.1739861
1.1739767
1.1739856
1.1739964
1.1739976
1.1739967
1.1739933
1.1740062
1.1740101
1.1740109
1.1740094
1.1739959
1.1740078
1.1740225
1.1740242
1.1740233
1.1740188
1.1740362
1.1740415
1.1740426
1.1740405
1.1740219
1.174038
1.1740583
1.1740607
1.1740593
1.1740531
1.174075
1.1740821
1.1740837
1.1740807
1.1740552
1.174077
1.1741065
1.1741099
1.174108
1.1740995
1.1741284
1.1741383
1.1741403
1.174136
1.1740998
1.1741278
1.1741696
1.1741745
1.1741721
1.1741603
1.1741969
1.1742107
1.1742136
1.1742074
1.1741561
1.1741909
1.1742469
1.1742536
1.17425
1.1742334
1.1742784
1.1742981
1.1743027
1.174295
1.1742284
1.1742792
1.1743499
1.1743579
1.1743518
1.1743276
1.174385
1.1744134
1.1744214
1.1744128
1.1743327
1.1744138
1.1744841
1.1744902
1.1744781
1.1744424
1.1745177
1.1745621
1.1745801
1.1745774
1.1745124
1.1746675
1.1746996
1.1746948
1.1746679
1.1746113
1.1747376
1.174798
1.174833
1.1748474
1.1748472
1.1751985
1.1751174
1.1750919
1.175056
1.1750142
1.1754679
1.1754736
1.1754982
1.1755195
1.1755801
1.1755072
1.1748047
1.1747738
1.1747324
1.1746497
1.1823857
1.1823706
1.1823103
1.1822892
1.1789505
1.1817659
1.1814751
1.1814406
1.1814061
1.1812912
1.1830772
1.1829997
1.182941
1.1828852
1.1830131
1.1832832
1.1833351
1.1833708
1.1832656
1.1829392
1.1830828
1.1830579
1.1830217
1.1835489
1.183306
1.1829838
1.1829893
1.1829679
1.182787
1.1856385
1.1854805
1.1852908
1.1850766
1.184309
1.1841867
1.1845726
1.1847238
1.1848719
1.1849798
1.1829713
1.1828972
1.18284
1.1827832
1.1829235
1.1816965
1.181416
1.1813844
1.1813525
1.1812393
1.1823266
1.1823073
1.1822414
1.1822161
1.1788696
1.175403
1.174733
1.1747066
1.1746709
1.1745977
1.1754301
1.1754314
1.1754514
1.1754673
1.175496
1.175127
1.1750762
1.1750538
1.1750204
1.1749811
1.1746999
1.174758
1.1747905
1.174802
1.1747821
1.1746138
1.1746613
1.174658
1.1746319
1.1745761
1.1744838
1.1745287
1.1745461
1.1745418
1.174467
1.1743778
1.174457
1.174464
1.1744517
1.1744147
1.1743591
1.174389
1.174397
1.1743878
1.1743034
1.1742557
1.1743314
1.1743399
1.1743336
1.1743082
1.174264
1.1742847
1.1742892
1.1742808
1.1742101
1.1741778
1.174238
1.174245
1.1742411
1.1742235
1.1741865
1.174201
1.1742039
1.1741975
1.1741445
1.1741192
1.1741635
1.1741687
1.1741662
1.1741539
1.1741233
1.1741336
1.1741355
1.1741309
1.1740928
1.1740725
1.1741034
1.174107
1.1741052
1.1740965
1.1740729
1.1740802
1.1740816
1.1740784
1.1740519
1.1740356
1.174057
1.1740594
1.1740578
1.1740514
1.1740335
1.174039
1.1740402
1.174038
1.1740194
1.1740067
1.1740221
1.1740239
1.1740228
1.1740181
1.1740043
1.1740084
1.1740093
1.1740077
1.1739944
1.1739848
1.173996
1.1739972
1.1739965
1.173993
1.1739834
1.1739863
1.1739869
1.1739857
1.1739759
1.173969
1.1739773
1.1739782
1.1739776
1.1739752
1.173968
1.1739702
1.1739707
1.1739699
1.1739628
1.1739581
1.1739641
1.1739647
1.1739642
1.1739623
1.1739577
1.1739594
1.1739598
1.1739592
1.1739539
1.173951
1.1739553
1.1739558
1.1739555
1.1739542
1.1739509
1.1739522
1.1739525
1.1739521
1.1739484
1.1739467
1.1739498
1.1739501
1.1739498
1.1739488
1.1739466
1.1739477
1.173948
1.1739478
1.1739452
1.1739445
1.1739465
1.1739467
1.1739463
1.1739455
1.173944
1.173945
1.1739456
1.1739456
1.1739442
1.173945
1.1739453
1.173946
1.1739467
1.1739468
1.1739428
1.1739438
1.1739438
1.1739435
1.1739427
1.1739445
1.1739455
1.1739459
1.1739457
1.1739434
1.1739441
1.1739464
1.1739466
1.1739462
1.1739453
1.1739474
1.1739485
1.1739488
1.1739485
1.173945
1.173947
1.1739505
1.1739509
1.1739506
1.1739494
1.1739524
1.173954
1.1739543
1.1739537
1.1739489
1.173952
1.1739569
1.1739575
1.1739571
1.1739555
1.1739601
1.1739621
1.1739626
1.1739618
1.1739553
1.1739601
1.1739666
1.1739673
1.1739668
1.1739646
1.1739712
1.1739739
1.1739746
1.1739737
1.173965
1.1739723
1.1739815
1.1739825
1.1739818
1.1739789
1.1739889
1.1739925
1.1739933
1.1739919
1.1739797
1.1739897
1.1740026
1.1740041
1.1740032
1.1739991
1.1740127
1.1740175
1.1740186
1.1740167
1.1739999
1.1740134
1.1740312
1.1740333
1.174032
1.1740264
1.1740447
1.1740512
1.1740526
1.17405
1.1740268
1.1740444
1.1740696
1.1740725
1.1740708
1.1740633
1.1740876
1.1740965
1.1740983
1.1740946
1.1740617
1.174085
1.1741209
1.1741251
1.174123
1.1741126
1.1741426
1.1741551
1.1741577
1.1741524
1.1741065
1.1741355
1.1741851
1.1741911
1.1741879
1.1741732
1.17421
1.1742274
1.1742313
1.1742241
1.1741617
1.1741999
1.1742652
1.1742727
1.1742677
1.1742465
1.1742914
1.1743168
1.1743232
1.1743147
1.1742362
1.1742947
1.1743678
1.1743752
1.1743658
1.1743343
1.1743884
1.1744266
1.1744399
1.1744337
1.1743558
1.1744658
1.1745161
1.1745169
1.1744966
1.1744485
1.1745397
1.1745972
1.1746249
1.1746303
1.1745908
1.1748008
1.1747787
1.1747627
1.174727
1.1746657
1.1749546
1.1749972
1.1750347
1.1750599
1.175127
1.1755552
1.175467
1.1754553
1.1754562
1.1754983
1.1737413
1.1740923
1.1744041
1.1745788
1.1752839
1.1790834
1.1821822
1.1822081
1.18227
1.1822991
1.1815253
1.1816361
1.1816589
1.1816773
1.1820545
1.1825576
1.1820952
1.1821124
1.1821364
1.1821646
1.1852291
1.1850539
1.1848584
1.18464
1.1834464
1.1828899
1.1820842
1.1820648
1.1820475
1.1820052
1.1833256
1.1832759
1.1831917
1.1831002
1.1829663
1.182796
1.1828262
1.1828974
1.1829549
1.1829456
1.1820427
1.1821126
1.1821078
1.1821069
1.1827378
1.1821698
1.1816677
1.1816809
1.1816975
1.1816447
1.1818687
1.1818972
1.1818825
1.1818667
1.1823333
1.182792
1.1820819
1.1820813
1.1820936
1.1820817
1.1832318
1.1831586
1.1830732
1.1829862
1.1829375
1.1817216
1.1814375
1.1814043
1.1813704
1.1812727
1.1822852
1.1822603
1.1821928
1.1821682
1.1789023
1.1753879
1.1747258
1.1746983
1.1746572
1.1745743
1.1754487
1.1754453
1.1754625
1.1754776
1.1754986
1.1751281
1.175083
1.1750609
1.1750277
1.1749903
1.1746986
1.1747557
1.1747885
1.1748001
1.1747742
1.1746112
1.1746586
1.1746548
1.1746281
1.1745721
1.1744797
1.1745249
1.1745428
1.1745389
1.1744625
1.1743748
1.1744538
1.1744607
1.1744481
1.1744107
1.1743555
1.1743856
1.1743937
1.1743846
1.1742988
1.1742532
1.1743293
1.1743379
1.1743315
1.1743061
1.1742616
1.1742823
1.1742868
1.1742785
1.1742069
1.1741765
1.1742362
1.1742432
1.1742393
1.1742216
1.174185
1.1741997
1.1742025
1.1741962
1.174143
1.174119
1.1741625
1.1741676
1.1741651
1.1741526
1.1741224
1.1741328
1.1741348
1.1741303
1.1740922
1.1740723
1.174103
1.1741066
1.1741047
1.1740959
1.1740714
1.174079
1.1740806
1.1740776
1.174051
1.174035
1.1740567
1.1740593
1.174058
1.1740517
1.1740328
1.1740383
1.1740395
1.1740374
1.1740184
1.1740058
1.1740215
1.1740233
1.1740223
1.1740177
1.1740038
1.1740078
1.1740087
1.1740072
1.1739934
1.1739842
1.1739955
1.1739968
1.173996
1.1739926
1.1739822
1.1739854
1.1739861
1.1739851
1.1739752
1.1739687
1.1739769
1.1739778
1.1739773
1.1739748
1.1739675
1.1739698
1.1739703
1.1739695
1.1739623
1.1739579
1.173964
1.1739647
1.1739645
1.1739627
1.1739574
1.1739592
1.1739595
1.1739589
1.1739536
1.1739508
1.1739552
1.1739557
1.1739555
1.1739542
1.1739509
1.1739522
1.1739524
1.173952
1.1739481
1.1739466
1.1739497
1.1739501
1.17395
1.1739492
1.1739473
1.1739482
1.1739482
1.1739478
1.1739451
1.1739445
1.1739467
1.1739471
1.1739473
1.1739469
1.1739463
1.1739467
1.1739464
1.173946
1.1739442
1.1739442
1.1739448
1.1739452
1.1739455
1.1739454
1.1739447
1.1739456
1.1739458
1.1739457
1.1739453
1.1739472
1.173948
1.1739481
1.1739479
1.1739459
1.1739462
1.1739486
1.1739489
1.1739486
1.1739478
1.1739492
1.1739503
1.1739505
1.1739502
1.1739472
1.173949
1.1739527
1.173953
1.1739528
1.1739516
1.1739542
1.1739556
1.1739559
1.1739555
1.1739512
1.1739545
1.1739595
1.1739601
1.1739597
1.1739581
1.1739627
1.1739646
1.1739649
1.1739641
1.1739582
1.1739634
1.1739703
1.173971
1.1739705
1.1739684
1.1739744
1.1739771
1.1739778
1.1739769
1.173969
1.1739767
1.1739861
1.1739871
1.1739864
1.1739835
1.1739928
1.1739961
1.1739968
1.1739955
1.1739847
1.1739954
1.1740084
1.1740098
1.1740089
1.174005
1.1740171
1.1740218
1.174023
1.1740213
1.1740062
1.174021
1.1740391
1.1740411
1.1740398
1.1740344
1.1740514
1.1740577
1.1740591
1.1740566
1.1740353
1.1740537
1.1740791
1.1740819
1.1740803
1.174073
1.1740962
1.1741047
1.1741064
1.1741028
1.1740723
1.1740969
1.1741334
1.1741376
1.1741356
1.1741254
1.1741542
1.1741663
1.1741688
1.1741638
1.1741208
1.1741514
1.1742018
1.1742077
1.1742047
1.1741903
1.1742251
1.1742422
1.1742461
1.1742394
1.1741812
1.1742216
1.1742879
1.1742954
1.1742906
1.1742701
1.1743136
1.174338
1.1743443
1.1743361
1.1742618
1.1743215
1.1743995
1.1744074
1.1743989
1.1743691
1.1744242
1.1744603
1.1744728
1.1744663
1.1743889
1.1744987
1.174562
1.1745642
1.1745455
1.1744999
1.1745872
1.1746437
1.1746712
1.1746758
1.1746329
1.1748252
1.1748257
1.1748117
1.174777
1.1747178
1.1749978
1.1750384
1.1750743
1.1750983
1.1751509
1.175557
1.1754972
1.1754776
1.1754565
1.1754527
1.1745908
1.174685
1.1747333
1.1747646
1.175412
1.1789979
1.1822549
1.1822741
1.1823341
1.1823522
1.181351
1.1814371
1.1814715
1.1815112
1.1818312
1.1820523
1.1819813
1.1819799
1.1819775
1.1819095
1.1817105
1.1817325
1.1817076
1.1817233
1.1785997
1.1757371
1.1750733
1.1750211
1.1749217
1.174779
1.1755639
1.1755474
1.1755526
1.1755645
1.1756428
1.1751637
1.17509
1.1750685
1.175039
1.1750126
1.1746959
1.174753
1.1747863
1.1747988
1.1747889
1.1746101
1.174655
1.1746509
1.1746238
1.1745664
1.1744844
1.1745312
1.1745496
1.1745459
1.1744642
1.1743731
1.1744611
1.1744679
1.1744552
1.1744173
1.1743661
1.1743959
1.1744039
1.1743947
1.1742997
1.1742502
1.1743351
1.1743436
1.1743374
1.1743123
1.1742696
1.1742898
1.1742941
1.1742857
1.174206
1.1741728
1.1742394
1.1742464
1.1742426
1.1742253
1.1741905
1.1742046
1.1742073
1.1742009
1.1741408
1.1741155
1.1741649
1.1741701
1.1741676
1.1741555
1.1741262
1.1741362
1.174138
1.1741334
1.1740899
1.1740691
1.174104
1.1741077
1.174106
1.1740974
1.1740742
1.1740814
1.1740828
1.1740795
1.1740492
1.1740333
1.1740576
1.1740601
1.1740588
1.1740527
1.1740355
1.1740408
1.1740419
1.1740396
1.1740179
1.1740049
1.1740223
1.1740241
1.1740231
1.1740186
1.1740058
1.1740097
1.1740105
1.1740089
1.1739933
1.1739838
1.1739963
1.1739976
1.1739969
1.1739937
1.1739843
1.1739872
1.1739878
1.1739867
1.1739753
1.1739684
1.1739776
1.1739785
1.173978
1.1739756
1.173969
1.1739712
1.1739716
1.1739708
1.1739624
1.1739578
1.1739646
1.1739654
1.173965
1.1739633
1.1739587
1.1739603
1.1739606
1.17396
1.1739538
1.1739509
1.173956
1.1739565
1.1739562
1.173955
1.1739519
1.1739532
1.1739535
1.173953
1.1739485
1.173947
1.1739505
1.1739509
1.1739506
1.1739496
1.1739477
1.1739487
1.1739491
1.1739489
1.1739458
1.173946
1.1739483
1.1739484
1.1739481
1.1739473
1.1739449
1.1739456
1.1739459
1.1739458
1.1739449
1.1739443
1.1739455
1.1739454
1.1739449
1.173944
1.1739466
1.1739475
1.173948
1.1739479
1.1739454
1.173946
1.1739489
1.1739491
1.1739487
1.1739478
1.1739497
1.1739508
1.1739511
1.1739508
1.1739471
1.1739492
1.1739534
1.1739538
1.1739535
1.1739524
1.1739552
1.1739566
1.1739569
1.1739564
1.1739513
1.1739548
1.1739605
1.1739611
1.1739608
1.1739593
1.1739637
1.1739655
1.1739659
1.1739652
1.1739583
1.1739637
1.1739713
1.1739721
1.1739717
1.1739696
1.1739765
1.1739789
1.1739794
1.1739784
1.173969
1.1739768
1.1739874
1.1739885
1.1739879
1.1739852
1.1739952
1.1739985
1.1739991
1.1739978
1.1739848
1.1739957
1.1740104
1.1740119
1.1740111
1.1740074
1.1740211
1.1740255
1.1740264
1.1740245
1.1740067
1.1740217
1.1740419
1.174044
1.174043
1.1740379
1.1740564
1.1740624
1.1740636
1.174061
1.1740363
1.1740556
1.1740838
1.1740868
1.1740854
1.1740785
1.1741036
1.1741118
1.1741134
1.1741097
1.174075
1.1741006
1.1741401
1.1741443
1.1741424
1.1741327
1.1741646
1.1741761
1.1741783
1.1741731
1.1741245
1.1741568
1.1742117
1.1742176
1.1742149
1.1742013
1.1742406
1.1742566
1.1742598
1.1742527
1.1741864
1.1742294
1.1743023
1.1743101
1.1743059
1.1742866
1.1743363
1.1743594
1.1743649
1.1743561
1.1742712
1.1743352
1.17442
1.1744282
1.1744201
1.174391
1.1744466
1.174484
1.1744966
1.17449
1.1744055
1.1745211
1.1745785
1.1745796
1.1745591
1.1745094
1.174587
1.174648
1.1746779
1.1746845
1.1746579
1.1748687
1.1748256
1.1748077
1.1747699
1.1747077
1.1750209
1.1750502
1.1750826
1.1751082
1.1752183
1.1757101
1.1755893
1.1755793
1.1755863
1.1756346
1.1746736
1.1749088
1.1750983
1.175195
1.1757193
1.1783651
1.181383
1.1813219
1.1812976
1.1812354
1.1823376
1.182349
1.182309
1.1822766
1.1821382
1.1828248
1.1820951
1.182089
1.1820912
1.1820602
1.1835794
1.1835272
1.1834794
1.1834223
1.1831807
1.1825272
1.1822073
1.18224