/*--------------------------------*- C++ -*----------------------------------*\
  =========                 |
  \\      /  F ield         | OpenFOAM: The Open Source CFD Toolbox
   \\    /   O peration     | Website:  https://openfoam.org
    \\  /    A nd           | Version:  7
     \\/     M anipulation  |
\*---------------------------------------------------------------------------*/
FoamFile
{
    version     2.0;
    format      ascii;
    class       volScalarField;
    location    "320";
    object      p;
}
// * * * * * * * * * * * * * * * * * * * * * * * * * * * * * * * * * * * * * //

dimensions      [1 -1 -2 0 0 0 0];

internalField   nonuniform List<scalar> 
25278
(
101315.66
101314.89
101316.13
101316.02
101319.23
101314.5
101314.72
101315.58
101315.04
101310.71
101312.3
101313.8
101314.61
101316.4
101324.15
101316.08
101314.93
101321.82
101325.36
101319.13
101314.51
101314.84
101315.09
101312.45
101308.94
101312.25
101314.9
101313.38
101318.55
101312.26
101310.31
101316
101311.11
101314.21
101308.35
101314.5
101310.16
101306.77
101310.61
101305.08
101308.25
101303.59
101303.94
101297.59
101302.15
101305.01
101310.71
101308.47
101303.69
101310.31
101310.05
101319.02
101314.31
101312.72
101314.4
101307.93
101306.09
101312.06
101303.99
101308.18
101302.76
101302.23
101302.21
101307.33
101316.37
101315.25
101306.67
101302.07
101306.42
101308.51
101322.59
101312.31
101315.83
101310.13
101316.09
101307.6
101308.3
101312.15
101314.57
101319.07
101322.54
101323.97
101321.67
101325.43
101318.83
101323.07
101326.8
101331.19
101330.34
101329.45
101323.84
101323.95
101330.53
101333.72
101334.78
101323.91
101329.98
101328.54
101321.5
101322.25
101330.01
101339.16
101335.79
101322.19
101321.27
101330.03
101323.45
101332.39
101331.31
101339.04
101334.95
101326.48
101345.27
101359.11
101337.86
101334.51
101363.04
101328.73
101337.59
101336.85
101324.43
101318.4
101318.95
101330
101333.4
101329.85
101338.56
101334.78
101326.23
101322.84
101322.35
101318.65
101320.96
101323.55
101330
101330.68
101322.25
101325.94
101344.5
101330.82
101336.1
101358.07
101361.87
101327.44
101320
101329.21
101328.92
101322.56
101334.31
101322.58
101323.48
101329.6
101323.23
101328.46
101320.75
101320.69
101320.37
101334.77
101333.23
101309.3
101334.59
101342.2
101312
101334.58
101321.43
101330.38
101337.98
101328.42
101359.98
101357.81
101338.18
101327.69
101343.42
101341.98
101429.38
101385.08
101343.51
101338.1
101387.32
101440.85
101340.02
101340.9
101324.06
101335.67
101338.55
101329.4
101320.82
101319.56
101331.47
101366.27
101360.91
101337.84
101324.79
101329.28
101328.63
101326
101348.4
101312.83
101457.11
101420.71
101310.41
101344.2
101325.34
101317.11
101319.13
101318.2
101314.16
101318.43
101315.53
101309.64
101314.41
101310.99
101308.13
101303.45
101310.15
101306.21
101310.11
101305
101303.76
101297.2
101297.91
101302.11
101307.66
101310.34
101307.16
101301.53
101298.23
101303.75
101304.2
101305.01
101303.73
101296.6
101293.58
101299.79
101301.47
101302.61
101303.05
101307.61
101313.97
101318.77
101309.9
101314.14
101312.59
101308.13
101302.64
101307.79
101305.26
101311.21
101303.91
101302.08
101301.82
101307.01
101309.08
101318.24
101314.09
101315.79
101308.31
101305.92
101314.07
101305.58
101301.56
101292.2
101293.12
101293.87
101295.66
101290.37
101299.6
101296.56
101299.97
101301.57
101301.23
101299.14
101301.48
101293.63
101294.78
101297.04
101300.44
101296.38
101292.24
101290.85
101290.99
101286.57
101295.04
101292.12
101290.16
101283.37
101286.92
101282.21
101281.06
101286.58
101288.59
101293.41
101301.69
101307.39
101307.88
101302.27
101305.11
101303.85
101300.57
101294.02
101296.93
101298.2
101299.45
101298.28
101294.92
101294.87
101301.93
101303.74
101301.8
101306.35
101299.45
101307
101299.51
101299.87
101297.75
101301.55
101299.52
101306.39
101315.95
101319.08
101307.05
101299.93
101310.15
101301.84
101300.12
101298.04
101311.54
101318.35
101324.41
101311.1
101295.54
101295.66
101288.81
101281.64
101297.15
101285.6
101298.38
101291.91
101290.61
101291.35
101293.99
101294.86
101289.73
101291.14
101287.93
101294.98
101291.14
101285.94
101288.58
101285.31
101285.74
101295.79
101288.98
101287.88
101285.34
101283.67
101278.93
101286.54
101276.64
101277.04
101283.62
101284.81
101281.83
101286.52
101280.5
101289.05
101291.44
101291.17
101299.38
101294.84
101285.97
101288.97
101285.39
101295.08
101302.08
101303.8
101292.01
101290.68
101291.41
101293.56
101294.5
101289.93
101291.48
101298.56
101295.31
101283.89
101285.86
101282.46
101285.21
101288.23
101282.37
101285.36
101287.41
101288.33
101295.91
101285.68
101283.62
101279.12
101286.84
101276.84
101277.34
101276.86
101273.77
101268.47
101268.91
101278.36
101283.75
101290.84
101282.47
101291.43
101283.75
101279.52
101279.69
101279.14
101285.73
101278.68
101286.14
101289.05
101284.89
101277.81
101277.55
101278.74
101272.18
101278.75
101274.78
101280.97
101279.24
101274.53
101273.13
101266.73
101273.86
101266.48
101275.79
101266
101264.73
101271.19
101266.54
101273.63
101277.41
101285.55
101275.54
101276.81
101281.01
101290.5
101290.78
101297.51
101301.19
101301.38
101315.48
101317.14
101307.81
101299.31
101298.85
101300.36
101312.34
101298.23
101318.74
101326.03
101320.83
101315.65
101293.76
101297.46
101297.15
101292.07
101290.18
101328.69
101350.1
101311.15
101321.85
101326.4
101320.06
101300.94
101301.22
101300.84
101300.85
101305.05
101343.61
101348.2
101293.3
101288.8
101299.57
101302.39
101302.08
101296.85
101291.27
101295.38
101284.95
101290.07
101286.15
101291.02
101287.2
101297.36
101289.43
101276.24
101281.84
101274.78
101277.46
101281.06
101273.12
101281.85
101280.28
101281.42
101277.63
101267.18
101273.4
101276.45
101282.14
101280.36
101283.67
101290.54
101290.77
101299.94
101302.83
101300.97
101297.67
101288.33
101294.31
101295.96
101301.16
101301.15
101299.98
101297.68
101298.65
101307.45
101296.81
101310.35
101299.39
101300.84
101300.55
101320.29
101303.3
101298.77
101296.68
101299.4
101295.09
101296.38
101326.28
101320.25
101317.19
101286.73
101315.66
101292.32
101288.75
101294.23
101326.83
101351.28
101340.74
101286.03
101279.3
101295.94
101268.47
101294.78
101276.16
101293.82
101285.81
101301.06
101293.29
101301.51
101302.69
101300.94
101302.44
101304.67
101298.45
101300.73
101298.12
101295.68
101291.53
101292.72
101296.92
101291.88
101287.71
101295.88
101294.13
101291.54
101293.85
101284.04
101284.36
101287.64
101282.04
101281.75
101286.46
101288.85
101291.13
101282.47
101291.41
101286.71
101279.47
101284.03
101279.64
101279.89
101274.5
101278.93
101278.42
101283.83
101274.64
101278.19
101285.49
101289.25
101287.53
101279.71
101278.11
101279.52
101272.82
101278.81
101276.07
101266.51
101273.85
101280.78
101273.24
101266.63
101268.26
101268.72
101268.47
101272.55
101271.9
101261.23
101269.46
101258.34
101261.19
101252.59
101255.67
101265.01
101267.65
101275.92
101276.96
101274.09
101278.75
101270.79
101277.44
101271.15
101279.42
101264.07
101268.03
101252.33
101260.04
101265.31
101272.58
101269.45
101273.81
101281.29
101285.87
101289.11
101297.26
101291.24
101294.31
101286.85
101292.6
101293.27
101289.7
101283.74
101288.3
101281.02
101284.7
101284.82
101290.33
101280.82
101278.3
101275.53
101286.63
101287.88
101294.66
101300.44
101294.41
101289.45
101285.81
101286.16
101289.67
101283.64
101288.08
101291.88
101281.41
101280.27
101276.46
101276.64
101280.26
101277.41
101286.36
101290.53
101276.73
101274.13
101284.64
101267.97
101281.59
101271.57
101270.05
101255.18
101264.46
101269.75
101276.91
101272.1
101275.72
101268.9
101264.75
101259.97
101268.65
101275.07
101279.45
101277.22
101282.92
101281.36
101273.42
101265.71
101272.33
101263.66
101267.04
101260.79
101269.71
101288.92
101281.96
101271.9
101279.65
101293.88
101288.16
101301.65
101293.8
101302.09
101297.6
101296.74
101285.47
101286.37
101281.58
101290.8
101292.35
101291.57
101289.88
101280.14
101279.21
101280.86
101267.27
101268.08
101272.12
101273.57
101277.56
101285.64
101281.66
101276.9
101273.81
101276.77
101275.72
101272.36
101270.7
101274.12
101275.42
101284.17
101282.49
101271.91
101267.74
101279.64
101277.36
101264.29
101263.32
101266.7
101268.53
101281.11
101277.8
101273
101276.9
101265.43
101267.88
101270.6
101262.73
101266.77
101270.84
101268.93
101264.3
101254.7
101260.72
101263.28
101258.2
101252.6
101248.04
101259.46
101255.02
101258.97
101247.94
101256.58
101251.59
101262.45
101271.02
101283.33
101286.15
101292.63
101289.26
101297.57
101283.62
101284.52
101284.32
101276.18
101274.97
101282.98
101279.57
101269.9
101268.38
101280.76
101284.87
101291.01
101289.92
101299.9
101284.49
101283.77
101283.62
101274.29
101274
101283.89
101279.51
101268.11
101258.2
101258.56
101260.91
101269.69
101271.13
101278.45
101278.36
101291.12
101271.81
101274.35
101273.53
101261.39
101259.81
101250.26
101246.35
101258.02
101268.76
101277.13
101277.26
101293.09
101273.63
101272.79
101272.34
101262.39
101265.52
101264.74
101268.74
101282.23
101259.52
101276.03
101264.02
101263.95
101245.34
101256.94
101245.24
101249.54
101256.12
101261.66
101252.82
101260.07
101251.7
101261.58
101265.39
101277.97
101267.73
101260.64
101265.85
101268.06
101269.49
101260.48
101252.16
101243.3
101232.72
101243.31
101253.79
101256.15
101268.9
101269.73
101260.13
101249.77
101258.63
101261.61
101253.06
101243.72
101238.64
101250.47
101259.69
101249.35
101246.66
101256.3
101264.93
101271.58
101266.76
101268.13
101263.46
101262.18
101252.47
101258.69
101260.19
101266.45
101257.72
101267.31
101262.32
101251.02
101246.13
101251.47
101261.49
101267.36
101262.7
101248.69
101257.4
101256.26
101246.78
101235.66
101237.51
101249.2
101237.61
101248.77
101238.84
101250.29
101248.64
101251.08
101254.96
101248.29
101243.22
101229.64
101239.68
101244.55
101236.24
101246.31
101237.57
101250.17
101241.18
101247.96
101255.18
101261.2
101265.34
101284.87
101275.93
101262
101257.83
101260.5
101274.51
101255.43
101266.58
101282.85
101254.79
101253.72
101271.18
101241.35
101247.82
101248.43
101228.06
101237.14
101245.98
101232.33
101243
101234.64
101222.31
101206.65
101222.69
101216.68
101232.66
101218.59
101234.43
101240.49
101234.02
101226.19
101242.27
101238.93
101252.24
101257.07
101258.26
101253.28
101239.48
101246.58
101253.64
101242.01
101240.57
101226.07
101236.83
101223.03
101235.53
101238.28
101225.97
101222.12
101224.08
101208.75
101225.57
101211.45
101227.6
101214.94
101232.77
101231.13
101245.51
101221.97
101222.88
101201.25
101201.59
101213.23
101217.17
101225.67
101207.46
101222.36
101233.14
101226.3
101213.36
101194.61
101210.81
101219.78
101206.48
101186.47
101171
101195.76
101183.33
101207.74
101187.4
101213.12
101234.5
101249.94
101261.83
101276.91
101274.2
101270.84
101273.55
101259.78
101263.27
101264.91
101254.83
101252.57
101246.93
101231.34
101239.39
101241.57
101223.99
101237.4
101253.48
101251.9
101236.05
101220.52
101220.9
101239.54
101258.15
101274.11
101293.78
101288.27
101258.77
101259.71
101237.77
101231.75
101248.66
101228.89
101228.69
101246.27
101257.73
101268.42
101269
101274.39
101283.88
101285.79
101296.8
101302.87
101308.57
101314.63
101321.84
101325.64
101328.99
101328.3
101330.87
101329.35
101339.68
101330.9
101320.38
101331.04
101364.76
101360.81
101334.92
101339.88
101336.77
101323.21
101321.34
101321.85
101321.44
101321.01
101336.9
101309.06
101350.29
101348.33
101324.71
101335.82
101387.56
101436.13
101331.15
101364.62
101359.86
101339.76
101329.43
101325.61
101335.67
101329.34
101334.61
101323.83
101333.13
101389.9
101445.18
101327.85
101311.09
101332.13
101336.24
101359.26
101363.49
101330.9
101319.89
101324.04
101337.01
101327.33
101323.07
101340.13
101301.77
101477.46
101447.07
101327.45
101351.3
101328.37
101315.45
101319.37
101310.2
101310.45
101319.17
101312.53
101312.14
101316.63
101315.5
101306.8
101307.53
101302.55
101302.56
101306.88
101308.68
101304.25
101302.64
101306.3
101308.12
101314.54
101308.42
101303.15
101296.65
101303.21
101304
101302.65
101301.08
101289.99
101291.68
101292.63
101291.2
101297.86
101302.38
101301.58
101293.56
101294.27
101286.99
101282.29
101280.48
101279.53
101281.52
101284.81
101294.21
101292.02
101297.99
101301.3
101294.95
101289.13
101291.59
101300.26
101294.64
101296.19
101288.42
101288.48
101285.23
101274.22
101275.13
101271.62
101272.22
101270.7
101270.58
101271.63
101273.63
101272.52
101256.64
101257.2
101261.22
101260.78
101248.54
101249.22
101242.44
101241.51
101222.66
101223.38
101233.7
101233.23
101209.17
101210.4
101221.54
101209.05
101186.68
101201.93
101202.49
101171.77
101198.62
101176.93
101200.02
101221.43
101235.79
101226.91
101245.9
101291.42
101278.3
101247.37
101237.29
101236.53
101263.93
101231.52
101252.9
101225.17
101239.83
101254.74
101255.07
101262.82
101292.75
101261.53
101285.37
101238.42
101221.68
101226.84
101280.79
101331.3
101270.75
101307.15
101266.55
101285.31
101272.11
101285.28
101274.53
101285.43
101282.26
101272.67
101277.84
101282.06
101286.51
101289.4
101292.93
101287.4
101293.93
101290.88
101288.61
101281.32
101283.95
101280.9
101276.24
101269.62
101274.58
101270.86
101277.62
101284.48
101290.39
101293.54
101287.07
101278.88
101281.25
101278.24
101282.68
101286.74
101295.08
101300.45
101290.36
101284.57
101293.86
101289.08
101286.38
101277.79
101280.02
101288.24
101284.29
101284.18
101278.49
101272.77
101265.77
101261.65
101269.85
101276.02
101286.93
101287.78
101285.54
101297.01
101295.29
101300.1
101300.31
101300.92
101307.17
101314.1
101315.61
101315.29
101314.49
101315.78
101314.14
101313.88
101313.63
101318.03
101308.89
101314.31
101312.72
101305.74
101300.73
101305.71
101305.85
101314.72
101306.43
101300.28
101299.93
101304.41
101308.89
101317.87
101310.83
101310.78
101302.09
101305.67
101312.97
101306.33
101300.14
101292.79
101291.52
101291.48
101291.58
101283.42
101284.18
101278.12
101280.19
101289.88
101290.9
101278.58
101282.44
101271.87
101272.31
101280.51
101276.23
101273.82
101272.1
101270.04
101270.8
101274.58
101283.59
101280.64
101278.73
101266.48
101266.05
101268.45
101281
101278.09
101270.86
101268.1
101272.24
101280.67
101282.43
101286.7
101293.32
101301.67
101289.16
101285.12
101285.22
101288.78
101296.54
101284.43
101292.06
101294.5
101289.2
101292.4
101283.55
101274.55
101278.27
101281.65
101273.68
101276.22
101268.72
101265.67
101258.5
101267.11
101273.89
101271.83
101283.9
101278.76
101282.29
101275.6
101277.04
101273.09
101280.45
101276.07
101282.23
101274.91
101276.93
101280.3
101271.62
101263.06
101264.66
101254.6
101264.22
101262.61
101252.97
101249.86
101261.3
101268.96
101270.47
101263.52
101265.45
101274.69
101276.9
101275.53
101265.28
101262.48
101266.49
101274.91
101262.72
101252.19
101257.34
101262.58
101267.49
101259.68
101258.64
101261.07
101269.07
101271.21
101263.87
101259.08
101267.27
101264.49
101255.27
101252.47
101261.89
101257
101260.09
101263.76
101254.12
101249.13
101243.67
101255.87
101260.22
101249.74
101238.32
101243.43
101249.92
101255.95
101262.75
101270.48
101262.27
101253.94
101248.04
101257.8
101266.08
101275.65
101271.61
101270
101278.13
101263.89
101266.5
101261.29
101259.4
101257.26
101268.58
101284.6
101278.13
101266.76
101272.27
101271.78
101267.19
101263.76
101275.75
101258.22
101258.43
101251.81
101252.11
101246.41
101268.7
101294.24
101278.12
101263.18
101269.26
101270.37
101265.13
101264.73
101284.57
101255.39
101253.18
101243.98
101245.75
101240.23
101260.94
101299.51
101274.4
101261.4
101268.17
101275.14
101279.29
101284.18
101291.6
101300.95
101286.76
101284.73
101298.37
101288.99
101284.18
101274.2
101274.92
101285.29
101281.2
101278.2
101282.72
101283.55
101289.77
101299.35
101299.71
101319.73
101323.18
101304.57
101298.62
101297.37
101298.9
101320.16
101307.41
101346.74
101342.64
101341.32
101290.27
101279.95
101297.69
101297.06
101291.58
101321.07
101283.35
101316.64
101294.67
101311.12
101315.5
101313.68
101298.29
101297.55
101295.03
101295.39
101303.93
101323.73
101319.32
101310.43
101288.03
101285.7
101292.13
101292.58
101281.45
101285.23
101281.03
101290.89
101288.54
101294.49
101295.06
101295.99
101276.39
101279.3
101294.4
101293.76
101279.25
101275.73
101260.83
101261.36
101271.09
101270.44
101260.61
101268.27
101260.52
101261.5
101271.94
101269.91
101271.94
101259.59
101261.92
101258.66
101266.92
101274.11
101258.53
101255.3
101270.02
101262.06
101255.81
101243.7
101247.39
101252.23
101239.27
101245.72
101245.77
101252.97
101241.79
101250.03
101248.92
101251.84
101240.52
101245.6
101237.94
101231.08
101244.57
101241.22
101226.75
101237.2
101238.73
101227.44
101211.82
101225.63
101223.67
101227.43
101234.43
101244.28
101256.33
101246.6
101233.04
101223.98
101236.97
101250.14
101256.93
101253.05
101263.33
101252.42
101240.67
101236.08
101248.85
101260.23
101248.88
101240.95
101245.12
101227.36
101210.64
101231.57
101238.81
101230.75
101239.28
101253.53
101249.5
101247.33
101250.53
101274.22
101290.99
101352.47
101280.4
101328.56
101287.18
101280.25
101288.03
101331.93
101266.42
101368.63
101437.95
101301.11
101299.45
101374.61
101245.95
101277.09
101281.98
101384.49
101298.19
101303.36
101433.07
101311.11
101363.36
101252.94
101386.04
101311.81
101287.48
101444.13
101504.95
101659.54
101469.02
101429.5
101446.07
101196.36
101223.72
101509.34
101262.63
101388.12
101294.87
101344.65
101305.2
101321.3
101301.48
101301.31
101322.76
101309.94
101299.87
101300.83
101301.41
101299.72
101350.38
101323.54
101293.58
101290.24
101289.69
101263.53
101294.06
101274.27
101293.58
101284.78
101299.88
101289.95
101291.42
101301.47
101286.24
101283.96
101284.23
101277.92
101277.64
101294.2
101276.8
101272.97
101273.9
101258.77
101247.64
101258.97
101268.61
101279.55
101281.24
101285.31
101274.77
101268.92
101270.97
101280.15
101283.44
101289.68
101297.65
101302.14
101293.19
101285.02
101285.24
101284.12
101288.92
101294.42
101291.26
101279.32
101279.39
101274.63
101275.59
101272.6
101280.65
101273.39
101288.77
101284.62
101295.01
101300.51
101312.33
101316.57
101315.9
101301.62
101299.07
101298.27
101297.27
101307.46
101325.8
101317.27
101318.03
101287.66
101290
101295.81
101296.76
101292.6
101314.5
101295.95
101311.75
101300.21
101310.65
101305.56
101311.03
101310.55
101314.92
101310.77
101305.38
101304.9
101307.4
101308.89
101308.04
101312.33
101313.41
101318.61
101316.24
101311.45
101314.62
101308.46
101310.24
101307.1
101304.37
101304.04
101308.59
101316.3
101307.76
101306.62
101302.38
101300.42
101299.88
101307.27
101319.68
101318.15
101314.18
101318.83
101325.03
101318.53
101301.84
101298.4
101296.27
101298.41
101311.3
101299.78
101307.49
101299.92
101306.45
101316.04
101309.95
101301.86
101300.28
101286.77
101291.92
101298.65
101299.98
101304.08
101298.3
101302.65
101300.96
101304.01
101302.52
101305.39
101298.84
101297.44
101294.76
101292.26
101296.22
101298.45
101300.86
101301.72
101298.8
101293.32
101297.17
101292.45
101280.9
101278.64
101274.93
101273.34
101269.44
101268.39
101265.12
101264.46
101263.16
101262.9
101263.79
101264.1
101273.14
101275.4
101260.42
101259.53
101257.11
101257.71
101255.26
101272.25
101271.54
101254.66
101253.99
101254.48
101238.71
101243.34
101246.93
101248.05
101243.86
101226.27
101231.93
101231.03
101226.88
101218.64
101220.3
101239.99
101239.35
101238.13
101219.47
101221.79
101191.86
101187.08
101202.02
101211.23
101208.74
101202.72
101180.47
101181.66
101184.86
101176.73
101155.46
101142.18
101182.28
101191.69
101188.89
101151.84
101155.15
101182.93
101208.42
101209.03
101230.88
101248.14
101250.09
101264.78
101263.41
101295.48
101269.51
101256.21
101258.4
101234.37
101213.32
101231.16
101230.86
101247.6
101259.33
101269.35
101258.92
101261.42
101270.74
101275.84
101277.13
101286.82
101284.02
101272.08
101263.78
101262.34
101252.47
101253.52
101262.9
101272.18
101273.57
101278.33
101283.85
101290.24
101295.22
101300.94
101290.46
101287
101286.64
101281.35
101282.42
101292.55
101282.91
101277.78
101277.66
101265.36
101258.67
101267.23
101274.64
101282.31
101287.33
101288.64
101280.52
101276.68
101279.43
101285.86
101285.86
101292.17
101295.23
101301.64
101297.74
101289.93
101289.11
101287.92
101293.31
101293.93
101290.52
101284.71
101286.75
101282.27
101281.25
101278.78
101287.1
101291.12
101285.64
101289.64
101283.3
101294.43
101288.6
101267.36
101266.29
101260.11
101262.29
101260.43
101275.42
101292.42
101279.88
101297.85
101242.36
101244.93
101231.64
101233.81
101254.35
101228.28
101190.21
101218.95
101233.99
101250.01
101254.11
101239.08
101239.89
101255.34
101242.36
101241.21
101225.31
101211.99
101184.05
101184.23
101174.8
101177.1
101198.47
101198.26
101172.5
101206.99
101204.12
101225.09
101214.83
101210.85
101179.03
101185.14
101137.27
101174.05
101140.11
101172.69
101149.56
101147.03
101099
101157.43
101144.44
101173.99
101190.79
101208.89
101187.89
101206.21
101186.59
101206.56
101211.45
101220.5
101208.28
101224.88
101215.8
101196.45
101188.9
101210.46
101194.17
101214.38
101232.53
101236.61
101219.9
101228.82
101222.06
101211
101230.06
101224.55
101223.55
101232.69
101214.45
101200.75
101203.04
101180.52
101191.1
101201.1
101212.78
101191.04
101175.57
101162.3
101180.88
101205.29
101222.36
101203.92
101225.84
101215.85
101235.81
101245.29
101258.45
101243.49
101227.41
101225.86
101242.42
101257.37
101243.62
101234.78
101209.72
101209.9
101183.11
101181.17
101213.21
101200.55
101228.73
101239.98
101255.78
101238.11
101217.51
101217.67
101238.53
101249.3
101236.27
101237.51
101241.94
101244.63
101257
101251.67
101237.12
101233.42
101248.7
101254.7
101252.24
101245.36
101257
101273.35
101270.36
101269.14
101269.88
101277.26
101288.02
101287.96
101289.15
101276.06
101262.91
101270.1
101252
101252.83
101251.46
101260.02
101267.39
101250.32
101235.74
101237.98
101242.35
101246.86
101230.49
101238.55
101241.07
101248.31
101255.21
101261.32
101267.18
101269.05
101280.83
101295.28
101301.49
101305.5
101310.03
101312.1
101313.87
101314.67
101313.99
101313.01
101313.08
101310.25
101305.1
101309.63
101307.98
101301.17
101295.57
101303.11
101308.79
101300.23
101301.38
101301.67
101293.76
101292.51
101293.63
101299.86
101296.74
101301.53
101302.17
101309.25
101306.1
101306.41
101299.92
101297.43
101307.26
101307.91
101312.41
101310.17
101311.03
101310.49
101313.04
101314.26
101311.41
101306.93
101310.28
101314.36
101311.08
101310.79
101308.13
101311.66
101313.96
101316.27
101316.31
101312.26
101313.97
101313.06
101316.44
101314.43
101313.8
101313.03
101313.66
101313.77
101316.91
101314.35
101310.47
101306.55
101304.41
101305.65
101306.64
101296.28
101305.02
101303.55
101308.25
101309.88
101309.62
101304.2
101296.15
101301.89
101301.17
101294.95
101293.7
101294.61
101302.37
101298.04
101302.87
101301.37
101301.01
101306.62
101307.55
101307.83
101309.86
101303.13
101297.95
101296.07
101288.59
101280.43
101289.95
101291.14
101280.88
101279.97
101280.11
101290.1
101283.74
101286.37
101286.8
101284.3
101293.14
101296.84
101291.1
101296.6
101286.75
101279.56
101294.02
101281.15
101273.62
101281.32
101277.84
101273.67
101268.01
101269.57
101282.85
101272.99
101277.46
101281.26
101286.76
101287.51
101292.42
101279.29
101269.67
101283.94
101293.74
101295.61
101287.94
101279.99
101289.52
101289.26
101279.24
101278.89
101279.36
101289.43
101282.48
101284.89
101285.55
101283.53
101292.46
101295.58
101289.51
101294.99
101284.93
101280.5
101293.54
101297.23
101300.51
101291.03
101288.56
101284.68
101287.94
101295.71
101290.29
101297.54
101299.49
101287.52
101292.29
101288.56
101297.09
101296.55
101307.62
101296.26
101302.32
101302.54
101297.03
101301.31
101297.79
101292.71
101293.44
101286.4
101286.94
101278.75
101281
101273.24
101272.67
101276.63
101271.91
101282.31
101278.37
101291.67
101282.5
101285.14
101279.77
101276.07
101270.34
101269.04
101271.46
101274.08
101261.44
101271.59
101265.84
101260.21
101251.9
101255.91
101272.15
101259.32
101266.43
101271.67
101279.27
101284.06
101289.51
101291.09
101294.42
101294.33
101289.73
101297.79
101303.04
101299.43
101303.52
101294.93
101287.63
101297.05
101307.93
101305.45
101297.49
101302.98
101308.83
101302.85
101303.08
101303.75
101309.77
101307.26
101306.29
101303.15
101297.58
101295.17
101296.9
101296.26
101302.02
101291.29
101282.03
101292.66
101303.38
101295.52
101303.35
101310.52
101307.22
101301.67
101301.43
101300.62
101302.26
101298.4
101307.42
101305.79
101308.44
101309.04
101313.01
101313.36
101310.84
101311.78
101307.72
101311.7
101310.71
101312.41
101309.3
101311.81
101311.87
101314.73
101314.72
101310.4
101308.81
101312.54
101310.32
101307.42
101304.48
101309.99
101313.07
101313.17
101314.24
101311.1
101310.24
101309.96
101306.34
101312.47
101316.48
101312.82
101316.38
101317.19
101311.01
101315.85
101315.28
101315.43
101317.11
101317.78
101314
101319.76
101319.59
101316.21
101309.37
101313.3
101315.12
101311.45
101313.26
101307.18
101310.83
101312.04
101308.08
101312.29
101316.29
101311.84
101315.42
101309.37
101306.73
101303.28
101302.2
101308.91
101305.82
101307.39
101300.98
101301.47
101299.78
101295.22
101294.54
101301.29
101290.03
101287.84
101289.34
101286.65
101290.39
101286.45
101289.8
101291.49
101279.26
101284.61
101285.16
101276.24
101275.03
101278.65
101275.28
101271.56
101272.91
101270.39
101280.76
101271.21
101267.4
101263.62
101266.31
101279.23
101267.72
101271.99
101275.1
101278.62
101281.44
101275.7
101272.37
101268.04
101263.68
101268.21
101260.54
101266.45
101271.32
101278.55
101281.83
101279.06
101284.03
101280.9
101286.59
101275.3
101273.27
101287.39
101278.34
101272.06
101275.41
101268.14
101272.41
101266.54
101274.36
101269.76
101261.11
101254.14
101263.36
101258.56
101253.46
101258.68
101247.46
101255.35
101264.08
101259.44
101268.39
101270.17
101287.28
101293.65
101298.31
101306.61
101294.18
101296.04
101304.57
101304.73
101304.09
101303.02
101303.03
101293.23
101292.58
101284.18
101286.11
101280.99
101278.33
101285.04
101294.43
101295.83
101280.51
101284.27
101284.03
101288.5
101299.38
101296.1
101295.92
101294.74
101288.72
101284.96
101292.29
101293.32
101292.67
101294.63
101300.08
101302.1
101309.89
101302.52
101304.84
101305.82
101305.62
101302.27
101294.43
101291.46
101281.05
101280.63
101285.92
101269.76
101272.38
101256.15
101261.27
101259.47
101264.82
101258.6
101251.46
101242.39
101249.99
101258.85
101251.5
101242.78
101230.79
101241.19
101250.85
101260.1
101263.78
101269.84
101285.94
101280.96
101275.94
101271.75
101274.5
101270.8
101274.72
101277.76
101284.65
101292.41
101292.36
101299.3
101286.36
101283.04
101281.24
101281.34
101286.74
101299.46
101291.8
101293.95
101286.24
101284.32
101293.64
101301.45
101300.61
101306.89
101302.59
101311.03
101303.21
101298.7
101302.67
101310.8
101307.63
101300.24
101299.12
101298.51
101298.98
101298.41
101300.17
101296.53
101302.77
101304.95
101304.85
101306.79
101299.16
101299.64
101298.24
101304.47
101304.12
101305.44
101305.46
101298.31
101290.82
101282.25
101284.97
101281.88
101273.8
101265.24
101258.84
101252.61
101242.82
101250.86
101241.42
101252.06
101245.29
101232.58
101220.46
101232.36
101242.74
101231.99
101218.69
101208.89
101190.21
101166.6
101195.26
101177.79
101140.98
101147.05
101165.62
101132.13
101163.9
101174.15
101192.68
101204.46
101219.8
101207.51
101229.33
101219.82
101195.18
101208.93
101191.96
101222.08
101242.64
101286.68
101269.39
101250.76
101270.32
101237.11
101239.63
101239.17
101238.73
101240.28
101271.67
101289.35
101230.18
101238.27
101240.23
101243.27
101271.84
101242.4
101275.04
101237.43
101248.93
101236.07
101199.26
101204.17
101212.5
101218.58
101187.62
101181.09
101168.56
101172.4
101208.29
101198.31
101209.29
101173.96
101167.41
101185.44
101217.14
101204.75
101200.33
101148.35
101148.88
101148.45
101150.21
101206.83
101190.86
101179.58
101182
101194.73
101226.54
101227.34
101225.51
101225.67
101283.62
101218.42
101272.68
101215.34
101216.86
101209.6
101213.37
101190.31
101249.62
101382.09
101269.73
101331.51
101228.09
101235.03
101268.46
101248.22
101329.02
101255.43
101323.26
101331.15
101282.08
101309.41
101233.52
101227.7
101228.06
101234.63
101278.92
101223.49
101277.61
101240.21
101229.69
101246.06
101266.58
101262.63
101373.06
101379.65
101270.3
101331.57
101222.88
101235.92
101249.7
101251.47
101263.19
101269.3
101255.94
101240.12
101228.34
101197.52
101196.57
101154.96
101155.74
101199.79
101237.45
101240.03
101293.04
101268.64
101267.93
101260.76
101267.62
101274.51
101278.46
101283.48
101284.78
101284.76
101299.25
101289.72
101282.96
101273.37
101273.66
101267.62
101279.04
101279.09
101283.41
101281.68
101283.65
101295.77
101295.45
101300.37
101299.02
101301.58
101299.98
101298.74
101289.11
101275.1
101276.14
101289.43
101288.37
101277.97
101280.17
101288.7
101295.47
101285
101287.07
101297.87
101300.96
101299.68
101302.58
101309.42
101302.02
101292.37
101291.4
101292.87
101290.55
101278.95
101282.57
101283.17
101287.01
101290.14
101297.87
101301.96
101299.38
101303.43
101308.85
101304.61
101308.52
101314.64
101308.88
101308.77
101302.27
101301.22
101300.26
101306.03
101313.51
101305.55
101314.85
101308.04
101317.37
101295.39
101296.41
101298.74
101303.96
101305.27
101303.7
101295.29
101297.92
101293.66
101308.47
101322.45
101289.22
101290.88
101293.3
101307.83
101316.81
101303.68
101317.51
101317.12
101312.51
101312.01
101317.77
101310.97
101306.08
101307.17
101305.5
101298.63
101296.01
101298.21
101294.64
101286.94
101292.19
101288.02
101292.64
101294.42
101294.17
101291.5
101299.13
101291.58
101298.29
101292.63
101299.43
101296.43
101288.1
101282.93
101282.54
101285.59
101282.37
101290.76
101284.16
101280.99
101277.88
101267.83
101267.38
101259.31
101259.83
101269.83
101259.84
101248.08
101247.4
101259.02
101269.23
101277.6
101292.93
101293.37
101276.3
101276.29
101273.2
101273.35
101277.47
101290.27
101271.94
101276.95
101291.45
101276.91
101271.92
101259.43
101258.82
101268.83
101273.17
101273.79
101268.45
101260.56
101259.86
101248.71
101249.45
101238.86
101237.16
101234.75
101234.9
101250.33
101251.2
101244.07
101255.87
101255.05
101271.11
101271.08
101269.8
101259.72
101259.8
101255.12
101250.69
101250.5
101260.61
101267.92
101249.22
101249.68
101267.71
101260.46
101260.45
101270.73
101268.85
101260.56
101256.39
101257.88
101273.66
101271.6
101261.66