/*--------------------------------*- C++ -*----------------------------------*\
  =========                 |
  \\      /  F ield         | OpenFOAM: The Open Source CFD Toolbox
   \\    /   O peration     | Website:  https://openfoam.org
    \\  /    A nd           | Version:  7
     \\/     M anipulation  |
\*---------------------------------------------------------------------------*/
FoamFile
{
    version     2.0;
    format      ascii;
    class       volScalarField;
    location    "320";
    object      rho;
}
// * * * * * * * * * * * * * * * * * * * * * * * * * * * * * * * * * * * * * //

dimensions      [1 -3 0 0 0 0 0];

internalField   nonuniform List<scalar> 
25278
(
1.1738812
1.1738666
1.1738807
1.1738799
1.1739038
1.1738629
1.1738724
1.1738806
1.1738751
1.1738352
1.1738477
1.1738603
1.1738689
1.173883
1.1738794
1.1738807
1.1738674
1.1738809
1.1738845
1.1738806
1.1738582
1.1738638
1.1738675
1.1738487
1.1738164
1.1738468
1.1738656
1.173843
1.173897
1.1738392
1.1738038
1.1738491
1.1737521
1.1738156
1.173773
1.1738481
1.1738117
1.1737571
1.1737853
1.17369
1.1737398
1.1737046
1.1737094
1.1736535
1.1737258
1.1737656
1.1738343
1.1738158
1.1737524
1.1738017
1.1737935
1.1738724
1.1737597
1.1737573
1.1738293
1.1737716
1.1737433
1.1737954
1.1736666
1.1737218
1.1736899
1.1736781
1.1736752
1.1737567
1.1738385
1.1738251
1.1737478
1.173673
1.1736905
1.1737121
1.1738443
1.1737433
1.1737951
1.1737406
1.173837
1.1737549
1.1737726
1.1738381
1.1738611
1.1738958
1.1739206
1.1738765
1.1738788
1.1738807
1.1738839
1.1739136
1.1738608
1.1737786
1.1738188
1.1738885
1.1738393
1.1737633
1.1738241
1.173732
1.1737602
1.1737592
1.1738566
1.1739172
1.1738538
1.173792
1.1738596
1.1738303
1.1738291
1.1737894
1.1737396
1.1738154
1.1737098
1.1735931
1.1735693
1.1735102
1.1737594
1.1736809
1.1735844
1.1737472
1.1736695
1.1736704
1.1738175
1.1737657
1.17384
1.173827
1.1738676
1.1738794
1.1739014
1.1737983
1.1737053
1.1735386
1.1734965
1.1737532
1.1738513
1.1739102
1.1739162
1.1738905
1.1738654
1.1738644
1.1738003
1.1737612
1.1736825
1.1736704
1.1735651
1.1735549
1.1736236
1.1737219
1.1737844
1.1737463
1.1737078
1.1737906
1.1738294
1.1737295
1.173728
1.1737269
1.173861
1.1738746
1.1738171
1.1739004
1.1738611
1.1738297
1.1737527
1.173785
1.1736206
1.1729965
1.172701
1.1728236
1.17308
1.1736789
1.1737453
1.1738238
1.17386
1.173778
1.1738202
1.1737726
1.173683
1.1732191
1.1729333
1.1728648
1.1705545
1.1710722
1.1728728
1.1727908
1.1710621
1.1706182
1.1728094
1.1728805
1.1731432
1.1736206
1.173794
1.1738294
1.1737525
1.1736964
1.1736037
1.1738244
1.1737547
1.1738271
1.1738623
1.1737851
1.1737444
1.1737654
1.1736883
1.1724836
1.1696207
1.1693477
1.1725207
1.1737051
1.173794
1.1737417
1.1738051
1.173848
1.1738155
1.1738963
1.1738434
1.173796
1.1738477
1.1737496
1.1737392
1.1737029
1.1738118
1.1737504
1.1737789
1.1736877
1.1737072
1.1736488
1.1736606
1.1737332
1.1738018
1.1738309
1.1738104
1.1737536
1.1737178
1.1737718
1.1737566
1.1737692
1.1737722
1.1736662
1.1736315
1.1737187
1.1737181
1.1737344
1.1737456
1.1738077
1.1738525
1.1738771
1.1737966
1.1738268
1.1737541
1.1737205
1.1736879
1.1737696
1.1737329
1.1737848
1.1736616
1.1736752
1.1736683
1.1737513
1.1737814
1.1738617
1.1737495
1.173832
1.173706
1.1736761
1.1738096
1.1737326
1.1736624
1.1735815
1.1735932
1.173604
1.1736278
1.1735947
1.173722
1.1736856
1.1736995
1.1737174
1.1737242
1.1737298
1.1737521
1.173671
1.1736772
1.1737181
1.1737562
1.1737047
1.1736374
1.1736235
1.1736445
1.1736013
1.1737036
1.1736766
1.1736338
1.1735453
1.1735819
1.1735462
1.1735157
1.1735976
1.1736144
1.1736756
1.1737551
1.1738124
1.1738038
1.1737347
1.1737697
1.1737731
1.1737276
1.173637
1.17367
1.1736634
1.173688
1.1736937
1.173663
1.1736689
1.1737336
1.1737428
1.1736677
1.1737421
1.173627
1.1736858
1.1735703
1.173623
1.1735668
1.173649
1.1736283
1.1737427
1.1738363
1.1738046
1.1736878
1.173574
1.1737399
1.1736683
1.1736264
1.1735707
1.1736775
1.1738031
1.1737648
1.1736739
1.1734094
1.1734957
1.173488
1.1733971
1.1736241
1.1734642
1.1736553
1.1735584
1.1735622
1.1735856
1.1736124
1.173607
1.1735248
1.1735503
1.1735437
1.1736403
1.1735643
1.1735434
1.1735943
1.1735248
1.1735443
1.1736953
1.1735899
1.1735634
1.1735335
1.1735362
1.1734922
1.1735916
1.1734424
1.1734221
1.1734689
1.1735032
1.1734153
1.1734762
1.1734472
1.1735668
1.1735725
1.1735657
1.1736884
1.1736626
1.1735447
1.1736005
1.173527
1.1736723
1.1737364
1.1737448
1.1735609
1.1735635
1.1735871
1.1736077
1.1736019
1.1735266
1.1735539
1.1736586
1.173645
1.1734732
1.173469
1.1734228
1.1735094
1.1735481
1.1735067
1.1735341
1.1735581
1.1735825
1.1736975
1.1735441
1.1735361
1.1734951
1.1735957
1.1734457
1.1734273
1.1734375
1.1734345
1.173404
1.1733804
1.1734933
1.1735922
1.1736614
1.1735674
1.1736691
1.1735586
1.1734949
1.1735118
1.1735235
1.1735848
1.1735143
1.1736148
1.1736576
1.1736006
1.173506
1.1735229
1.1735485
1.1734964
1.1735671
1.1735088
1.1735671
1.1735281
1.173467
1.173473
1.1734114
1.1734659
1.1733974
1.1735294
1.1734458
1.1734129
1.1734705
1.1734292
1.1734876
1.1735163
1.1736019
1.1734912
1.1734852
1.173511
1.1736257
1.1736128
1.1736678
1.1736935
1.1736522
1.173792
1.1737406
1.1736516
1.1735969
1.173571
1.1736295
1.173741
1.1735109
1.173672
1.1738091
1.17359
1.1735754
1.1734023
1.1735258
1.1734769
1.1732875
1.1731554
1.1734984
1.1739739
1.1736373
1.1738346
1.1737948
1.1738092
1.1736256
1.1736322
1.1735769
1.1735702
1.1735609
1.1738817
1.1737247
1.1730985
1.1731034
1.1732612
1.1734929
1.173471
1.1735244
1.1734591
1.1735254
1.1734129
1.1734865
1.1734523
1.1735194
1.173484
1.1736272
1.173572
1.1733742
1.1734009
1.1733049
1.1734049
1.1734553
1.1733993
1.1735222
1.1734955
1.1735158
1.1735036
1.1733676
1.1734291
1.1734317
1.1735032
1.1734849
1.1735168
1.1736095
1.1736
1.1737259
1.1737369
1.173711
1.1736987
1.173572
1.1736099
1.1736317
1.1736921
1.1736499
1.1736264
1.1735583
1.1735893
1.173647
1.1735005
1.1736344
1.1735652
1.1736317
1.1736291
1.1738209
1.1735624
1.1735594
1.173431
1.1734638
1.1734529
1.1735133
1.1738106
1.1735871
1.1736589
1.1731219
1.1735736
1.1733866
1.1732483
1.1732033
1.1734839
1.173989
1.1738764
1.1730637
1.1730215
1.1733448
1.17311
1.1735079
1.1733206
1.1735618
1.1734759
1.1736709
1.1735965
1.1737161
1.1737399
1.1737485
1.1737619
1.1737817
1.1737195
1.1737587
1.1737297
1.1736871
1.1736315
1.1736424
1.1737106
1.1736547
1.1736145
1.1737122
1.1736763
1.1736491
1.1736953
1.17358
1.1735574
1.1735907
1.1735441
1.1735235
1.173595
1.1736162
1.173664
1.1735665
1.1736682
1.173596
1.1735271
1.1735615
1.1734951
1.1735136
1.173466
1.173523
1.1734929
1.1735923
1.1735057
1.1735091
1.1736069
1.1736589
1.1736303
1.173526
1.173529
1.173557
1.1735033
1.1735671
1.1735319
1.1733963
1.173465
1.1735646
1.1734739
1.1734096
1.1734005
1.1733766
1.173426
1.1734529
1.1734831
1.173388
1.1734696
1.173336
1.1733353
1.1732411
1.1732409
1.1733163
1.1733081
1.1733697
1.1733973
1.1732961
1.1733486
1.173308
1.1734076
1.1733136
1.1733563
1.1731281
1.1732625
1.1731314
1.1732329
1.1732972
1.1733917
1.1733541
1.1734024
1.1734569
1.173517
1.1735585
1.1736645
1.173579
1.173599
1.1734894
1.1735643
1.1735725
1.1735262
1.1734878
1.1735478
1.1734852
1.1735279
1.1735467
1.1736233
1.1735086
1.1734808
1.1734528
1.1735798
1.1735744
1.1736277
1.1736732
1.1735988
1.1735585
1.1735147
1.1735227
1.1735238
1.1734515
1.1735005
1.1735463
1.1734589
1.1734396
1.1733834
1.1733946
1.1734422
1.173355
1.1734717
1.1735126
1.173394
1.1733538
1.1734346
1.1731913
1.1733813
1.1733197
1.1732895
1.1731656
1.1732886
1.1733537
1.1734417
1.1734181
1.1734598
1.1733821
1.1733364
1.1732827
1.1733806
1.1734205
1.1734689
1.1734415
1.173509
1.1735123
1.1734279
1.1733454
1.1733856
1.173276
1.1733208
1.1732399
1.1732926
1.1734723
1.1734062
1.1732807
1.1733658
1.173563
1.1735023
1.1736796
1.1736024
1.1737236
1.1737
1.1736909
1.1735418
1.1735509
1.1735296
1.1736435
1.1736821
1.173677
1.1736351
1.173516
1.1735364
1.1735508
1.1734162
1.173418
1.173465
1.1734685
1.173518
1.1736027
1.1735499
1.1734753
1.1734545
1.1734845
1.1734933
1.173461
1.1734626
1.173493
1.1735219
1.1736086
1.1735898
1.1734922
1.1734549
1.17357
1.1735472
1.1734236
1.1733932
1.1734257
1.1734245
1.1735575
1.1734983
1.1734376
1.1735066
1.1733929
1.1733938
1.1734231
1.1733466
1.1733882
1.1734314
1.1734352
1.1733885
1.1732956
1.1733544
1.1733519
1.1733
1.1732406
1.1732278
1.1733406
1.1732941
1.1733051
1.1731875
1.1732399
1.173183
1.1733097
1.1734035
1.1735409
1.1735501
1.1735993
1.1735579
1.1736333
1.1734507
1.1734975
1.1734987
1.1734308
1.1734157
1.1735114
1.1734966
1.1733898
1.1733754
1.1735117
1.1735335
1.1735786
1.1735667
1.1736596
1.1734631
1.1734903
1.1734897
1.17341
1.1734068
1.1735229
1.1734986
1.1733724
1.1732619
1.173266
1.17329
1.1733521
1.1733712
1.1734192
1.1734128
1.1735296
1.173271
1.1733465
1.1733465
1.1732475
1.1732231
1.1731614
1.1731203
1.1732043
1.173343
1.1734016
1.173402
1.1735543
1.1732941
1.1733285
1.1733259
1.1731709
1.173204
1.1732123
1.1732645
1.1733831
1.1730494
1.1732763
1.1732006
1.1731729
1.1730173
1.1731826
1.1731024
1.1731617
1.1732399
1.1733061
1.1732014
1.1732839
1.173191
1.1733164
1.1733215
1.1735082
1.1733752
1.173292
1.173305
1.173314
1.1733601
1.1732389
1.1731973
1.1730928
1.1730346
1.1731473
1.1732669
1.1732475
1.1734323
1.1734729
1.173337
1.1732515
1.1733401
1.1733412
1.1732479
1.1731529
1.1731438
1.1732733
1.1733314
1.1732457
1.1732491
1.1733411
1.1734146
1.1734745
1.1734313
1.1734643
1.1734235
1.173389
1.1733016
1.1733584
1.1733973
1.1734503
1.1733792
1.1734823
1.1734196
1.1732489
1.1732515
1.173255
1.1733921
1.1734833
1.1734245
1.1733012
1.1733761
1.1733412
1.1732512
1.1731516
1.173206
1.1733178
1.1732069
1.1733014
1.1732139
1.1733156
1.1732704
1.1732655
1.1732714
1.1731981
1.1731842
1.1730459
1.1731495
1.1731575
1.173066
1.1731225
1.1730159
1.1730963
1.1729649
1.1730638
1.1731688
1.1732458
1.1732247
1.1734017
1.1732684
1.1731606
1.1730743
1.173142
1.1732372
1.1729405
1.1730454
1.1733261
1.1730478
1.1729892
1.1731441
1.1726492
1.172837
1.1729165
1.172766
1.1729048
1.1730404
1.1729575
1.1730886
1.1729799
1.1728209
1.1726175
1.1728288
1.172723
1.1729397
1.1728526
1.1730374
1.1731111
1.1730864
1.1729986
1.173166
1.1731675
1.1732927
1.1733405
1.1733763
1.1733297
1.1732061
1.1732743
1.1733397
1.1732401
1.173193
1.1730542
1.1731579
1.1730309
1.1731499
1.1731392
1.1730171
1.1730247
1.1730873
1.1729462
1.1730997
1.1729661
1.1731104
1.1729873
1.173152
1.1730975
1.1732341
1.1730009
1.1730534
1.1728477
1.1727957
1.172922
1.1729108
1.1729455
1.172737
1.1729119
1.1730378
1.1730177
1.1728782
1.172681
1.1728581
1.1728892
1.1727293
1.1724908
1.1724161
1.1726825
1.1725281
1.1727999
1.1725707
1.1728537
1.1730824
1.1732412
1.1733573
1.1735142
1.1734578
1.1734186
1.1734771
1.1733361
1.1733459
1.1733638
1.1732611
1.1732352
1.1732088
1.1730454
1.1730889
1.1731175
1.172919
1.17301
1.1731363
1.1731034
1.1729793
1.1727596
1.1727969
1.1729371
1.1730892
1.1732049
1.1735072
1.1734317
1.1730016
1.1730764
1.1728864
1.1728166
1.1730674
1.1729019
1.1728943
1.1731177
1.1731999
1.1733392
1.1733469
1.173412
1.1735216
1.173546
1.1736912
1.1737417
1.1738169
1.1738595
1.1738825
1.1738887
1.173849
1.1739147
1.1738683
1.1738144
1.1738767
1.1738032
1.1737368
1.1736475
1.17387
1.1738016
1.1736545
1.1738398
1.173841
1.1738035
1.1738534
1.1738811
1.1737849
1.1737377
1.1736951
1.1730501
1.1729528
1.1729837
1.1731918
1.1728051
1.1711598
1.1707017
1.1727204
1.1738347
1.1737593
1.1736901
1.1738095
1.1738824
1.1738223
1.173784
1.1736101
1.1731445
1.1727564
1.171081
1.1706923
1.1726554
1.1730135
1.1727454
1.1728485
1.1737443
1.1738017
1.1735956
1.1736963
1.1738551
1.173821
1.1737336
1.1737393
1.1736168
1.1723846
1.1698923
1.1696919
1.1726946
1.1737793
1.173826
1.1737722
1.1738755
1.173795
1.1738042
1.1738822
1.1737586
1.1737966
1.1738428
1.1738268
1.1737488
1.1737606
1.1736811
1.173679
1.1736949
1.1737173
1.1736725
1.1736859
1.1737468
1.1737757
1.1738322
1.1737288
1.173698
1.1736425
1.173742
1.1737565
1.1737647
1.1737498
1.1736358
1.1736776
1.1736856
1.1736485
1.173704
1.1737278
1.1737164
1.1736002
1.1736097
1.1735596
1.1735391
1.1735204
1.1735403
1.1735591
1.1735899
1.1736988
1.1736541
1.1737026
1.1737151
1.1736198
1.1735834
1.1736117
1.1737302
1.1736822
1.1737157
1.1736238
1.1736022
1.1735691
1.1734525
1.1734708
1.1734276
1.1734386
1.1734188
1.1734186
1.1734298
1.1734804
1.1734693
1.1733051
1.1733106
1.173326
1.1733215
1.1731938
1.1732009
1.173162
1.1731523
1.1729514
1.1729606
1.1730293
1.1730231
1.1727417
1.1727598
1.1728792
1.1727998
1.172539
1.172631
1.1726666
1.1722942
1.1726098
1.1723351
1.1724795
1.1726192
1.1728602
1.172731
1.1728678
1.1733548
1.1731541
1.1728268
1.1725456
1.1726442
1.1728676
1.1723929
1.1726028
1.1723612
1.1727292
1.1730183
1.1730118
1.1731709
1.1734841
1.1730314
1.1732214
1.1726927
1.1722587
1.172297
1.1725795
1.1731643
1.1726285
1.1732287
1.172851
1.1732062
1.173103
1.1733343
1.1732392
1.1734098
1.1733918
1.1733347
1.1734083
1.1734672
1.1735249
1.1735621
1.1735687
1.1734944
1.1735936
1.1735747
1.1735521
1.1734889
1.1735204
1.1734922
1.1734665
1.173392
1.173413
1.1733686
1.1734509
1.1734974
1.1735333
1.173576
1.1734814
1.173372
1.1734563
1.1734151
1.1734737
1.1735294
1.1736325
1.1736741
1.1735312
1.1734587
1.1735909
1.1735535
1.1735218
1.1734479
1.1734757
1.1735791
1.1735232
1.1735391
1.1734834
1.1734268
1.1733506
1.173305
1.1733955
1.1734586
1.1735836
1.1735649
1.1735402
1.1736926
1.1736733
1.1736998
1.173701
1.1737213
1.173804
1.1738598
1.1738768
1.1738788
1.1738709
1.1738782
1.1738594
1.173855
1.1738493
1.1738595
1.173779
1.1738116
1.173735
1.1736733
1.1736532
1.1737326
1.1737373
1.1738191
1.1736816
1.1736483
1.1736472
1.1737201
1.1737856
1.1738659
1.1737286
1.1737768
1.1736359
1.1736871
1.1738112
1.1737506
1.1736556
1.1735951
1.1735766
1.173574
1.1735745
1.1735169
1.1735251
1.1734916
1.1735126
1.1736336
1.1736671
1.1735249
1.1735617
1.1734622
1.1734539
1.1735363
1.1734675
1.1734549
1.1734579
1.173455
1.1734797
1.1735126
1.1736028
1.1735688
1.1735604
1.1734408
1.1734182
1.1734234
1.1735563
1.1735017
1.1734263
1.1733964
1.1734288
1.1735038
1.1735035
1.1735569
1.1736062
1.1736803
1.1735114
1.1735069
1.1735038
1.1735501
1.1736199
1.1734534
1.1735346
1.1735685
1.1735106
1.173552
1.1734255
1.1733086
1.1734075
1.173456
1.1734022
1.173435
1.1733428
1.1733022
1.1732661
1.1733625
1.1734335
1.1734123
1.1735472
1.1734858
1.1735034
1.1734214
1.1734401
1.1733941
1.1734403
1.1733766
1.1733939
1.173298
1.1733762
1.1734322
1.1733731
1.1733139
1.1733355
1.1732211
1.1732825
1.1732561
1.1731955
1.17316
1.173294
1.1733793
1.1733952
1.1733479
1.1733697
1.1734636
1.1735139
1.1734902
1.1733909
1.1733834
1.1733996
1.1735194
1.1734059
1.1733179
1.1733664
1.1734138
1.1734575
1.1733921
1.1733585
1.1733594
1.1734371
1.1734365
1.1733601
1.1733122
1.1733948
1.1733912
1.1733036
1.1733026
1.1733858
1.1733399
1.1733484
1.1733594
1.173261
1.1732425
1.1731852
1.1733044
1.1733204
1.1732121
1.1730876
1.1731488
1.1732197
1.1732846
1.1733207
1.1733682
1.1732612
1.1732173
1.173148
1.1732626
1.1733105
1.1733745
1.1733125
1.1732173
1.1732959
1.173188
1.1732403
1.1731523
1.1730981
1.1729656
1.1730745
1.1733499
1.1733046
1.1732374
1.1733246
1.1733034
1.1732185
1.1730998
1.1731996
1.1730515
1.1730958
1.1729635
1.1729019
1.1727168
1.172934
1.1733922
1.1732535
1.1731519
1.1732644
1.1732585
1.1731427
1.1730626
1.1732224
1.1729263
1.1729582
1.1727436
1.1726621
1.1724986
1.1726936
1.1733823
1.1731674
1.1730887
1.1732284
1.1733532
1.1734199
1.1734923
1.1735822
1.1736688
1.1734803
1.173454
1.173639
1.1735514
1.1734891
1.1734037
1.173414
1.1735379
1.1735149
1.1734801
1.1735084
1.1735155
1.1735575
1.1736484
1.1736109
1.1738049
1.1737579
1.1735522
1.1735434
1.1735258
1.1736004
1.1738088
1.1735814
1.173911
1.1738661
1.1736368
1.1730498
1.1729948
1.1734187
1.1734087
1.1731202
1.1733597
1.1730248
1.1736146
1.1734526
1.1737166
1.1737053
1.1737609
1.173608
1.1735893
1.1735103
1.1735338
1.1735884
1.1737515
1.1735302
1.1734685
1.1732849
1.1731567
1.1733875
1.1734384
1.1733698
1.1734052
1.1733413
1.1734517
1.1734117
1.1734842
1.173492
1.1735012
1.1733063
1.1733475
1.1735628
1.1735498
1.1734153
1.1733529
1.1732279
1.1732398
1.173366
1.1733553
1.1732829
1.1733695
1.1733147
1.173327
1.1734329
1.1734078
1.1734573
1.1733327
1.1733577
1.1733462
1.1734124
1.1735183
1.1733661
1.1733346
1.1734756
1.1733586
1.1733171
1.1732052
1.1732442
1.1732927
1.1731735
1.1732379
1.1732667
1.173333
1.1732388
1.1733133
1.1732745
1.1732754
1.1731614
1.1731723
1.1730907
1.1730667
1.1732019
1.1732017
1.1730651
1.1731639
1.1732141
1.1731114
1.1729725
1.1731012
1.1730393
1.1730326
1.1730552
1.173106
1.1731848
1.17305
1.172968
1.1728474
1.1730129
1.1730946
1.1731909
1.1731366
1.1732735
1.1731991
1.1730593
1.1729912
1.1731498
1.1732256
1.1730678
1.1729322
1.1730185
1.1728914
1.1726755
1.1728172
1.1729306
1.1727953
1.1729389
1.1730183
1.1729138
1.1728136
1.1729308
1.1731295
1.1732416
1.1738787
1.1728084
1.1733559
1.1729769
1.1724795
1.1730011
1.1733966
1.1720741
1.1725397
1.1743176
1.1728317
1.1726862
1.1737018
1.1711422
1.1713413
1.171808
1.1708697
1.1720012
1.1728902
1.1742855
1.1725161
1.1725285
1.1713295
1.1737589
1.1728016
1.1716276
1.1687108
1.1699137
1.174008
1.1695456
1.1683501
1.1646351
1.1631021
1.1635577
1.1698664
1.171388
1.173885
1.1731564
1.1739152
1.1735809
1.1738305
1.1736402
1.1736404
1.1738491
1.1736363
1.1735754
1.1735826
1.1734827
1.1734747
1.1739838
1.1734569
1.173206
1.1731399
1.1732652
1.1730519
1.1734968
1.1733
1.1735588
1.1734653
1.1736572
1.1735658
1.1735864
1.1736783
1.1734849
1.1734958
1.1734965
1.1734106
1.1734107
1.1735692
1.173334
1.1733367
1.1733427
1.1732135
1.1731356
1.1732721
1.173379
1.1734978
1.1735203
1.1735411
1.1734181
1.1733841
1.1734059
1.1735042
1.1735171
1.1735638
1.1736339
1.1736883
1.17361
1.1735116
1.1735097
1.1734597
1.1735177
1.1735749
1.1735345
1.1734291
1.1734368
1.1733674
1.1733677
1.1732858
1.1733873
1.1733076
1.173514
1.1734686
1.1736065
1.1736373
1.1737463
1.1737395
1.1737997
1.1736605
1.1736017
1.1735723
1.1735116
1.1736547
1.1738119
1.1736647
1.1735683
1.1731388
1.1732708
1.1734707
1.1735276
1.1734
1.1735694
1.1734237
1.1736875
1.1735855
1.1737498
1.1736995
1.173791
1.1738071
1.1738649
1.1738352
1.17377
1.1737845
1.1738129
1.1738168
1.1738059
1.1738404
1.1738443
1.1738977
1.1738524
1.173759
1.1738498
1.173777
1.1738135
1.1737624
1.1737175
1.1737136
1.1737472
1.1738406
1.1737589
1.1737481
1.1736787
1.1736356
1.1736382
1.1736943
1.1738134
1.1738486
1.1738178
1.1738046
1.1737749
1.1738091
1.1736578
1.1735822
1.1735114
1.1735818
1.1736807
1.1735793
1.1736976
1.1736386
1.1737457
1.1738384
1.1737405
1.1736723
1.1736334
1.1734872
1.173579
1.1736991
1.1736957
1.1737466
1.1736641
1.173732
1.1737325
1.1737751
1.1737394
1.1737729
1.1736737
1.1736792
1.1736476
1.1736416
1.1736932
1.1737333
1.1737599
1.173757
1.1737232
1.1736516
1.1737158
1.1736626
1.1735402
1.17353
1.1734846
1.1734792
1.1734337
1.1734302
1.1733933
1.1733905
1.1733747
1.1733728
1.1733813
1.173382
1.1735109
1.1735321
1.1733874
1.1733566
1.1733329
1.1733621
1.173339
1.1735032
1.1734977
1.1733342
1.1733029
1.173307
1.1731539
1.1732022
1.1732389
1.173279
1.1732381
1.1730738
1.1731308
1.1730847
1.1730402
1.1729516
1.1730121
1.1731993
1.1731952
1.1731489
1.1729606
1.1730322
1.1727268
1.1726702
1.1728337
1.1729322
1.172857
1.1727867
1.1725459
1.1725738
1.1726733
1.1725836
1.1723447
1.1721186
1.1725611
1.1726114
1.1725752
1.1721405
1.1721938
1.1724242
1.1726251
1.1726166
1.1727955
1.1730575
1.1730819
1.1731949
1.1731869
1.1735196
1.1731295
1.1730392
1.1730517
1.1728388
1.1726714
1.172926
1.1729309
1.1731397
1.1732786
1.1733534
1.1732195
1.1732493
1.1733695
1.1734297
1.1734468
1.1735606
1.1735527
1.1734205
1.1733319
1.1733119
1.1731948
1.1732149
1.1732743
1.1733902
1.173407
1.1734596
1.1735209
1.1735704
1.1736382
1.1736817
1.1735404
1.1735381
1.17353
1.1734596
1.1734785
1.1735608
1.1734284
1.1734174
1.1734069
1.1733055
1.1732738
1.1733698
1.1734471
1.1735256
1.1735911
1.1735854
1.1734867
1.1734711
1.1734987
1.1735615
1.1735428
1.1735932
1.1736113
1.1736997
1.1736732
1.1735734
1.1735629
1.1735089
1.1735793
1.1735862
1.1735422
1.1735065
1.1735341
1.1734769
1.173463
1.1733821
1.1734903
1.1735289
1.1734564
1.1734907
1.1734044
1.1735227
1.1734404
1.1732337
1.1732407
1.1731233
1.1731155
1.1730284
1.1732327
1.173375
1.1731779
1.1733686
1.1727621
1.1727681
1.172387
1.1723814
1.1726346
1.1724062
1.1720496
1.1725687
1.1728485
1.1730884
1.1731384
1.1730254
1.1730518
1.1731695
1.1729838
1.172938
1.1728291
1.1726735
1.172261
1.1722312
1.1721174
1.1721781
1.1724272
1.1724931
1.172126
1.1724024
1.1722448
1.1726473
1.1725179
1.1724468
1.1718191
1.1719812
1.1715431
1.1720071
1.171766
1.1722396
1.1720884
1.1721144
1.1715683
1.172236
1.1722025
1.1725073
1.1726968
1.1728885
1.1726817
1.1728682
1.1726735
1.1728738
1.1728675
1.1728996
1.1727571
1.1729464
1.1729105
1.172708
1.1726979
1.1729091
1.1727406
1.172941
1.1731157
1.1731194
1.1729494
1.1729896
1.1729048
1.172849
1.1730473
1.1730332
1.1730639
1.1731533
1.1729874
1.1728512
1.1728217
1.1725895
1.1726291
1.1727513
1.1728068
1.1725558
1.1724804
1.1723139
1.1724053
1.1727008
1.1728032
1.1725478
1.1726892
1.1725229
1.172844
1.1730117
1.1731971
1.1730844
1.172883
1.1728346
1.1730561
1.173168
1.1729616
1.1727707
1.1725728
1.172639
1.1722714
1.1721295
1.1723776
1.1721737
1.1726765
1.17291
1.1731447
1.173004
1.1727335
1.1727133
1.1729965
1.1731477
1.1730543
1.1730733
1.1731217
1.1731564
1.1732865
1.1732613
1.1731161
1.1730726
1.1732282
1.1732591
1.1732325
1.1731925
1.1733061
1.1734759
1.1734421
1.1734012
1.1734079
1.1734825
1.1736145
1.1736142
1.1736513
1.1735008
1.1733712
1.1734797
1.1733017
1.1732866
1.1732713
1.1733397
1.1734507
1.173284
1.1731525
1.1731762
1.1732212
1.1732662
1.1731176
1.1731977
1.1732481
1.1733143
1.1733748
1.1734243
1.1734713
1.173453
1.1735698
1.1737119
1.1737602
1.1737889
1.1738335
1.1738458
1.1738633
1.1738711
1.1738642
1.1738581
1.1738573
1.1738313
1.1737853
1.1738364
1.173834
1.1737574
1.1736968
1.17377
1.1738352
1.1737457
1.1737691
1.1737818
1.173682
1.1736743
1.1736819
1.1737589
1.1737276
1.1737802
1.1737814
1.1738603
1.1738113
1.1738231
1.1737516
1.1737296
1.1738247
1.1738146
1.1738548
1.1738445
1.17385
1.1738364
1.1738605
1.1738837
1.1738596
1.1738097
1.1738447
1.1739022
1.1738702
1.1738696
1.1738314
1.1738673
1.1738976
1.1739168
1.1739163
1.1738601
1.1738769
1.1738666
1.1739138
1.1738879
1.1738835
1.1738757
1.1738759
1.1738805
1.1739269
1.1739057
1.173855
1.1738164
1.1738048
1.1738281
1.1738316
1.1737115
1.1738173
1.173797
1.1738361
1.1738383
1.1738427
1.173781
1.1737021
1.1737731
1.1737717
1.1736955
1.1736872
1.1736906
1.1737886
1.1737409
1.1737931
1.1737654
1.1737528
1.1738153
1.1738332
1.1738425
1.1738654
1.1737906
1.1737417
1.1737313
1.1736402
1.1735471
1.1736707
1.1736845
1.1735532
1.1735709
1.1735491
1.173676
1.1736194
1.1736505
1.1736266
1.1735912
1.1737008
1.1737498
1.1737022
1.1737519
1.173633
1.1735754
1.1737324
1.1735722
1.1735059
1.1736048
1.1735756
1.1735218
1.1734798
1.1734574
1.1736322
1.1735436
1.1735933
1.1736137
1.1736731
1.1736675
1.1737401
1.1735787
1.1735027
1.1736389
1.1737305
1.1737275
1.1736344
1.1735437
1.1736675
1.1736675
1.1735408
1.1735595
1.1735366
1.1736662
1.1736063
1.1736356
1.1736216
1.1735847
1.1736955
1.1737423
1.1736867
1.1737311
1.1736072
1.1735666
1.1737017
1.1737368
1.1737484
1.1736608
1.1736391
1.1736053
1.1736345
1.17373
1.1736756
1.1737547
1.1737667
1.1736382
1.1736866
1.1736325
1.1737339
1.1737474
1.1738657
1.1737384
1.1737996
1.1738145
1.1737363
1.1737952
1.17377
1.1737176
1.1737078
1.1736424
1.1736631
1.1735686
1.1736024
1.1735035
1.1735114
1.1735631
1.1735325
1.1736271
1.1735703
1.1737335
1.1736489
1.1736574
1.173599
1.1735797
1.1735421
1.1734974
1.1735427
1.1735258
1.173411
1.1735436
1.1734918
1.173421
1.1733524
1.1733419
1.1735592
1.1734455
1.1735214
1.1735553
1.1736345
1.1736639
1.173715
1.1737132
1.1737337
1.173707
1.173643
1.1737422
1.1738116
1.1737851
1.173823
1.1737218
1.1736532
1.1737517
1.1738679
1.1738204
1.1737224
1.1737859
1.1738634
1.1737948
1.1738173
1.1738127
1.1738793
1.1738567
1.1738556
1.1738075
1.1737502
1.1737385
1.1737716
1.1737814
1.173835
1.1737076
1.1736236
1.1737227
1.1738236
1.1737497
1.1738291
1.1739079
1.1738778
1.1738277
1.1738107
1.1738093
1.1738146
1.1737453
1.1738441
1.1738164
1.1738349
1.1738246
1.1738593
1.1738594
1.1738395
1.1738566
1.1738168
1.1738622
1.1738479
1.1738734
1.1738419
1.1738786
1.1738775
1.173905
1.1739039
1.1738566
1.1738447
1.1738791
1.1738479
1.1738239
1.1737894
1.1738634
1.173898
1.1739068
1.1739159
1.1738826
1.1738805
1.1738847
1.1738302
1.1739
1.1739345
1.1738896
1.1739312
1.1739368
1.1738541
1.1739184
1.1739135
1.1739243
1.1739376
1.1739482
1.1738977
1.1739728
1.1739766
1.1739506
1.1738601
1.1739139
1.1739414
1.1739109
1.1739216
1.1738548
1.1738857
1.1738963
1.1738382
1.1738776
1.1739332
1.1738807
1.1739227
1.1738394
1.1738186
1.1737784
1.1737801
1.1738725
1.1738442
1.1738506
1.173777
1.1738029
1.1737961
1.1737564
1.173734
1.1738293
1.1736961
1.1736994
1.1736968
1.1736793
1.1737018
1.1736637
1.1736807
1.1737108
1.17356
1.1736313
1.1736311
1.1735152
1.1735274
1.1735755
1.1735495
1.1734999
1.1734798
1.1734628
1.1735982
1.1735152
1.1734639
1.1734305
1.1734206
1.1735889
1.1734861
1.1735369
1.173561
1.1735891
1.1736083
1.1735676
1.1735309
1.1734738
1.1734391
1.173499
1.1734439
1.173491
1.1735453
1.1736227
1.1736346
1.1736184
1.1736483
1.1736242
1.1736619
1.1735234
1.1735088
1.1736824
1.173606
1.1735669
1.1735911
1.1735129
1.1735464
1.1735116
1.1735936
1.1735591
1.1734691
1.17339
1.1734586
1.1733947
1.1733491
1.1734192
1.1733318
1.1734221
1.1734813
1.1734416
1.1735062
1.1734793
1.1736516
1.1737115
1.1737312
1.1738248
1.1737067
1.1737238
1.173816
1.1738254
1.1738256
1.1738008
1.1738067
1.1737025
1.173706
1.1736026
1.1736188
1.1735727
1.1735487
1.1736331
1.1737356
1.1737449
1.1735878
1.1736273
1.1736139
1.1736598
1.1737896
1.1737401
1.1737583
1.1737552
1.1736947
1.173675
1.1737474
1.1737464
1.173759
1.1737667
1.1738138
1.1738178
1.1739034
1.1738033
1.1738432
1.173866
1.1738743
1.1738212
1.1737399
1.1737308
1.1736149
1.1736341
1.1737109
1.1735108
1.1735626
1.1733458
1.1734105
1.1734134
1.1734814
1.1734384
1.1733483
1.1732813
1.1733345
1.1734479
1.1733924
1.1732857
1.1731877
1.1733123
1.1733852
1.1734849
1.173492
1.1735102
1.1737099
1.1736364
1.173621
1.1736031
1.1736092
1.1735934
1.1736093
1.1736198
1.1736848
1.1737592
1.1737762
1.1738373
1.173686
1.1736866
1.1736913
1.1736631
1.1736885
1.1738376
1.1737326
1.1737731
1.1736996
1.1736982
1.1737875
1.1738534
1.1738299
1.1738849
1.1738226
1.1739337
1.1738498
1.1738201
1.1738455
1.1739326
1.1739075
1.173843
1.1738168
1.1738233
1.1738133
1.1737898
1.1737959
1.1737283
1.1737988
1.1738409
1.1738472
1.1738558
1.173769
1.1737989
1.1737991
1.1738558
1.1738427
1.1738713
1.1738808
1.1738182
1.1737525
1.1736704
1.1736837
1.1736727
1.1735967
1.1735074
1.1734376
1.1733585
1.1732802
1.1733802
1.1733029
1.1733843
1.1732985
1.1731942
1.1731017
1.1732022
1.1733281
1.1732482
1.1730914
1.1729495
1.1727737
1.1725418
1.1728104
1.1726295
1.1722787
1.1722494
1.1724558
1.172109
1.1724442
1.1724664
1.172667
1.1727149
1.1727999
1.1726253
1.1727738
1.172597
1.1724411
1.1726476
1.1724224
1.1726493
1.1727719
1.1732288
1.1728664
1.1727094
1.1728702
1.1725892
1.172728
1.1726068
1.172439
1.1722814
1.1724937
1.1730009
1.1723729
1.1726095
1.1724805
1.1726749
1.1729251
1.1723272
1.17255
1.1722411
1.1720803
1.1722085
1.1719688
1.1721739
1.172415
1.1725977
1.1723602
1.1721859
1.1719411
1.1721277
1.1723873
1.1721774
1.1724067
1.1721532
1.1719596
1.1722659
1.1724934
1.1722086
1.1720007
1.1716366
1.1717977
1.1716153
1.1714711
1.1718156
1.1713562
1.1715222
1.1717651
1.1721125
1.1723469
1.1721485
1.1717499
1.1720967
1.1726292
1.1715571
1.1720024
1.1713512
1.1718702
1.1716386
1.1712836
1.1713461
1.1716922
1.1726044
1.1717128
1.1729596
1.1718371
1.1713502
1.1711596
1.1717077
1.1723786
1.1718753
1.1723404
1.1729923
1.1726533
1.1732771
1.1724528
1.1721593
1.1718533
1.172278
1.1727494
1.1716757
1.1718847
1.171489
1.1718895
1.1717076
1.1712479
1.1708693
1.1713794
1.1726369
1.1720207
1.173204
1.1719834
1.1724913
1.1728374
1.1728268
1.1730901
1.1732298
1.1731352
1.1728917
1.1726371
1.172366
1.1723996
1.1717759
1.1716891
1.1720842
1.1724435
1.1724169
1.1732827
1.1730827
1.1730728
1.1730589
1.173208
1.1733373
1.1734047
1.1734806
1.1734543
1.1734529
1.1736494
1.1735597
1.173474
1.1733928
1.1733967
1.1733613
1.1734873
1.17349
1.173517
1.1734933
1.1735193
1.1736789
1.173674
1.1737047
1.1736882
1.1737322
1.1737387
1.1737261
1.1736508
1.1734908
1.1734999
1.1736528
1.1736189
1.1734891
1.1735118
1.1736192
1.1736726
1.1735347
1.1735593
1.173703
1.1737166
1.1736991
1.1737418
1.1738237
1.1737568
1.1736547
1.1736499
1.1736835
1.1736613
1.1735264
1.1735616
1.1735433
1.1735848
1.1735953
1.1736983
1.1737541
1.1737063
1.1737528
1.1737948
1.1737303
1.1737837
1.1738321
1.1737205
1.1737616
1.1736517
1.1736745
1.1736652
1.1737463
1.1738346
1.1737065
1.1738139
1.1737054
1.1737691
1.1735065
1.1735675
1.1736249
1.1737067
1.1737225
1.173637
1.1735677
1.1735858
1.1734937
1.1736137
1.1737097
1.1733006
1.1733996
1.1734867
1.1736062
1.1737623
1.1736339
1.1737661
1.1738238
1.1737927
1.1738298
1.1738882
1.1738259
1.173788
1.1738016
1.1737965
1.1737272
1.173698
1.1737369
1.1736962
1.1736054
1.1736645
1.173596
1.1736244
1.1736234
1.1736149
1.1735668
1.1736665
1.1735643
1.1736462
1.1735732
1.173653
1.1736151
1.1735368
1.173472
1.1734261
1.1734626
1.1734671
1.1735722
1.1735267
1.1735104
1.1734713
1.1733601
1.1733578
1.1732658
1.1732725
1.1733466
1.1732144
1.1731318
1.1731234
1.1732045
1.1733391
1.1733947
1.1735394
1.1735463
1.1733043
1.1733028
1.1733217
1.1733218
1.1733907
1.1735069
1.1732508
1.1733153
1.173523
1.1733876
1.1733106
1.1732104
1.1731997
1.1733323
1.1733884
1.1733962
1.1733671
1.1732775
1.1732689
1.1731343
1.1731454
1.1730755
1.1730557
1.1730341
1.1730369
1.1732069
1.1732182
1.1731758
1.1732925
1.1732827
1.1734488
1.1734498
1.1734095
1.1733039
1.1733058
1.1732823
1.1732609
1.1732603
1.1733454
1.1734558
1.1732716
1.1732748
1.1734533
1.1733451
1.1733404
1.1734408
1.1733939
1.1733101
1.173293
1.1733075