/*--------------------------------*- C++ -*----------------------------------*\
  =========                 |
  \\      /  F ield         | OpenFOAM: The Open Source CFD Toolbox
   \\    /   O peration     | Website:  https://openfoam.org
    \\  /    A nd           | Version:  7
     \\/     M anipulation  |
\*---------------------------------------------------------------------------*/
FoamFile
{
    version     2.0;
    format      ascii;
    class       volScalarField;
    location    "320";
    object      T;
}
// * * * * * * * * * * * * * * * * * * * * * * * * * * * * * * * * * * * * * //

dimensions      [0 0 0 1 0 0 0];

internalField   nonuniform List<scalar> 
25278
(
299.99811
299.99927
299.99922
299.99912
300.00207
299.99895
299.99845
299.99803
299.99874
299.99648
299.99799
299.9985
299.99876
299.99983
300.0187
299.99926
299.99933
300.01159
300.02092
300.0056
299.99912
299.99876
299.99915
299.99739
299.9927
299.99725
299.99904
299.99755
300.00087
299.99563
299.99608
300.00314
300.00933
300.00419
299.99592
299.9996
299.99471
299.99629
300.0018
300.00629
300.00296
299.99686
299.9996
299.99217
299.99105
299.98994
299.99541
299.99357
299.98965
299.99749
299.99894
300.00764
300.02054
300.01575
300.0039
299.99792
299.99997
300.00641
300.01396
300.00992
300.00288
300.00616
300.00907
300.00146
300.00804
300.00924
300.00252
300.01075
300.0188
300.01684
300.02961
300.02491
300.0187
300.013
300.00748
299.99958
299.99568
299.99538
299.99847
300.00309
300.00708
300.01847
300.01122
300.02028
300.00498
300.0103
300.02925
300.06884
300.05284
300.03507
300.03087
300.04843
300.05264
300.08133
300.07609
300.0483
300.04222
300.02612
300.01994
300.03589
300.04261
300.0696
300.06132
300.03521
300.05145
300.05805
300.06405
300.11519
300.11978
300.15088
300.08199
300.07693
300.14492
300.13946
300.10971
300.10137
300.13385
300.06432
300.07033
300.07289
300.02188
300.00529
300.0021
300.05926
300.08909
300.12756
300.15487
300.08389
300.03088
300.01077
300.00783
300.00346
300.01328
300.02108
300.0583
300.07375
300.06963
300.07913
300.15004
300.12439
300.12049
300.14606
300.14203
300.06735
300.05795
300.06394
300.0484
300.05431
300.08473
300.05556
300.02221
300.03988
300.03587
300.03089
300.01432
300.02456
300.04167
300.07181
300.11389
300.23487
300.37473
300.35067
300.21344
300.10221
300.05269
300.05835
300.06902
300.06475
300.13284
300.13521
300.1094
300.21609
300.33338
300.34821
301.32671
301.08787
300.3435
300.36162
301.10713
301.3502
300.36333
300.34457
300.23272
300.12172
300.07917
300.04982
300.04335
300.06205
300.11643
300.14463
300.14534
300.07757
300.02522
300.06707
300.07385
300.06049
300.13877
300.37671
301.61373
301.58715
300.35618
300.12492
300.05121
300.0395
300.02389
300.01111
300.00396
300.00062
300.00262
299.99558
299.99905
300.00853
300.00232
299.99625
299.99419
299.9955
300.00095
300.00519
299.99861
299.99132
299.99024
299.98769
299.99159
299.99503
299.98921
299.98216
299.98201
299.98507
299.98944
299.98996
299.98517
299.98364
299.9838
299.98464
299.99035
299.99109
299.98888
299.99277
299.99854
300.00487
299.99671
300.00282
300.01442
300.00841
300.00142
299.99687
299.99862
300.00506
300.01197
300.00423
300.00686
299.99995
299.998
300.00688
300.01911
300.0066
300.01469
300.01681
300.00792
300.00105
300.0086
299.99885
299.99742
299.99537
299.99323
299.98449
299.98457
299.98487
299.99225
299.99317
299.9889
299.98117
299.98274
299.97973
299.98055
299.97764
299.9799
299.97553
299.97881
299.97751
299.97323
299.97142
299.97609
299.97472
299.97922
299.97674
299.97689
299.97789
299.97782
299.97798
299.97627
299.97594
299.98238
299.98952
299.99185
299.98789
299.99042
299.9856
299.98528
299.9845
299.98406
299.99075
299.992
299.98619
299.98324
299.98673
299.99091
299.99578
300.00469
299.99991
300.00523
300.01455
300.02245
300.01176
300.02172
300.01153
300.00473
299.99928
300.00684
300.02305
300.01406
300.02109
300.01172
300.00346
300.01043
300.02066
300.03314
300.0221
300.04802
300.0342
300.05104
300.0347
300.0134
300.00948
300.00556
300.00253
299.9997
299.99753
299.99208
299.99393
299.99238
299.99761
299.9996
300.00235
299.99583
299.99344
299.99477
299.98309
299.98781
299.98715
299.9819
299.98215
299.98274
299.98778
299.98835
299.9828
299.98286
299.98173
299.98167
299.98878
299.9954
299.99812
300.00561
300.00964
300.00096
299.99746
299.99865
299.99435
299.99148
299.98282
299.98277
299.98699
299.98634
299.98599
299.99008
299.99486
299.99653
299.99117
299.99266
299.99124
299.99636
299.99819
300.00082
299.99866
299.99249
299.99446
300.00153
300.00401
299.99665
299.99442
299.98808
299.98722
299.98677
299.98186
299.9815
299.9812
299.98182
299.9818
299.98102
299.98097
299.98797
299.98926
299.98188
299.97493
299.97503
299.97334
299.96661
299.97157
299.97182
299.97436
299.97267
299.97695
299.97683
299.9723
299.97381
299.97086
299.96854
299.96985
299.96725
299.96961
299.96865
299.96595
299.96306
299.96471
299.96751
299.97114
299.97608
299.97592
299.9706
299.96865
299.96926
299.96482
299.96152
299.9597
299.96347
299.96626
299.96525
299.96785
299.97018
299.97349
299.97199
299.977
299.98252
299.98231
299.98764
299.99244
299.99793
300.0081
300.01679
300.0375
300.02893
300.01776
300.0255
300.01274
300.02227
300.03835
300.06107
300.0455
300.08531
300.07138
300.05377
300.03251
300.04624
300.07876
300.10172
300.13451
300.07606
300.04625
300.02674
300.04921
300.0301
300.02035
300.01732
300.03375
300.03933
300.05258
300.08763
300.12275
300.16191
300.14597
300.11631
300.06308
300.07493
300.04519
300.04051
300.03427
300.02796
300.02187
300.01682
300.01215
300.00808
300.0047
299.99665
299.99982
300.00895
300.01291
300.00299
299.99952
299.99082
299.98923
299.9838
299.98994
299.98175
299.98325
299.983
299.99056
299.98932
299.99132
299.98993
299.98893
299.98555
299.98542
299.99204
299.99347
299.98598
299.98705
299.99712
299.99453
299.99949
300.01011
300.01554
300.0294
300.02033
300.03126
300.04193
300.05025
300.03854
300.02062
300.02353
300.03269
300.05613
300.04395
300.08132
300.06973
300.05121
300.03536
300.0479
300.08746
300.06531
300.1066
300.07309
300.05603
300.08433
300.12562
300.1417
300.0811
300.09179
300.16645
300.15516
300.10717
300.07488
300.05232
300.03702
300.02553
300.01735
300.01101
300.00094
299.99538
299.9899
299.98249
299.98364
299.98566
299.98244
299.98039
299.97832
299.98117
299.97811
299.97919
299.97595
299.97385
299.97229
299.97698
299.98054
299.98028
299.97588
299.97129
299.97797
299.97777
299.97887
299.97858
299.97855
299.97659
299.9719
299.97231
299.97486
299.97449
299.973
299.97318
299.97753
299.97764
299.97679
299.97666
299.97356
299.96681
299.96794
299.97008
299.96773
299.97037
299.9692
299.9715
299.96928
299.96657
299.96363
299.96515
299.96187
299.96519
299.96971
299.97163
299.97132
299.96937
299.97583
299.97559
299.97477
299.97137
299.96218
299.96274
299.96798
299.96717
299.97481
299.9736
299.97359
299.98206
299.99142
300.00035
300.00423
300.01423
300.01963
300.00818
300.00321
300.0074
300.01877
300.02618
300.01294
299.99912
299.99625
299.99398
299.99212
299.99514
299.99304
300.00141
299.99848
299.99603
299.99388
299.99579
300.00177
300.00487
300.00208
300.00546
300.00898
300.00143
299.99833
299.99177
299.99043
299.98443
299.98343
299.98383
299.98512
299.98667
299.98544
299.99186
299.99753
300.00374
300.00613
299.99962
300.00341
300.00083
300.00758
300.01064
300.01644
300.01249
300.00471
300.00816
300.01406
300.00943
300.00514
300.01401
300.0095
300.01451
300.00504
300.0098
300.02024
300.02761
300.02029
300.00923
300.01518
300.00227
299.99891
299.99604
299.99369
299.98587
299.98419
299.98462
299.98674
299.98946
299.98795
299.99642
299.99382
299.99604
299.99361
299.98677
299.98841
299.99034
299.99941
300.00367
299.99962
300.0036
300.01546
300.02632
300.01862
300.02405
300.02904
300.02003
300.01328
300.00802
299.99952
299.99457
299.98654
299.98704
299.98966
299.98866
299.97849
299.98026
299.97532
299.97511
299.98042
299.97906
299.97086
299.97087
299.97032
299.97023
299.97029
299.97051
299.97097
299.97434
299.97434
299.97938
299.97881
299.9781
299.97292
299.97304
299.96821
299.96866
299.9655
299.96831
299.96743
299.96456
299.96384
299.96684
299.96635
299.96335
299.96802
299.96799
299.97341
299.97451
299.98
299.98089
299.9749
299.97402
299.98099
299.97978
299.97965
299.97832
299.97738
299.97122
299.97139
299.96929
299.96915
299.97652
299.97768
299.97941
299.96994
299.97192
299.97281
299.98134
299.98173
299.99272
299.99639
299.9929
299.9902
299.98792
299.99507
300.00133
300.00303
300.0099
300.01578
300.00811
300.00594
299.99823
300.00018
299.99657
299.98915
299.99185
299.99312
299.98994
299.9975
300.00408
300.00474
300.01172
300.01832
300.01054
300.00969
300.00162
300.00241
299.99809
299.99046
299.99382
299.99823
299.9972
299.9953
300.00525
300.00248
300.01168
300.01469
300.02335
300.0339
300.02324
300.01893
300.00799
300.01203
299.99996
300.00289
300.01518
300.00736
300.01696
300.01816
300.02683
300.03903
300.02836
300.02655
300.04045
300.0353
300.02885
300.02182
300.03357
300.0459
300.03567
300.0226
300.03133
300.01599
300.00914
299.99573
299.99127
299.98775
299.98515
299.98572
299.98358
299.98408
299.98251
299.98166
299.98115
299.98214
299.98261
299.99285
299.99095
299.99316
299.99552
299.98345
299.98485
299.97089
299.9723
299.97281
299.97328
299.97429
299.96759
299.96552
299.96394
299.96648
299.97392
299.97282
299.97178
299.96113
299.96363
299.96576
299.96454
299.95698
299.96085
299.96405
299.96686
299.96608
299.9623
299.96111
299.96552
299.96217
299.96299
299.95847
299.96022
299.95632
299.95888
299.95482
299.95927
299.95627
299.95909
299.96245
299.9586
299.95467
299.95131
299.95587
299.96032
299.95654
299.95225
299.94599
299.95102
299.9462
299.95166
299.94812
299.95385
299.95923
299.96665
299.97549
299.9768
299.9666
299.96301
299.9635
299.97416
299.97551
299.98883
299.99331
300.00836
300.01423
300.00632
300.00056
299.9976
300.01433
300.02717
300.03646
300.02189
300.02985
300.02046
300.03561
300.04749
300.06183
300.04712
300.03171
300.04405
300.06118
300.08237
300.06015
300.04277
300.02134
300.01119
300.0042
299.98729
299.98642
299.99001
299.9913
299.99815
299.99563
300.00393
299.99939
299.98228
299.98211
299.97897
299.96727
299.96885
299.97116
299.96183
299.96535
299.96527
299.96018
299.95956
299.95461
299.95552
299.95685
299.95147
299.9579
299.95234
299.95454
299.94876
299.95252
299.96151
299.95803
299.94725
299.93967
299.93228
299.94105
299.9356
299.94456
299.94127
299.94942
299.95709
299.96175
299.95704
299.94794
299.93873
299.95028
299.95077
299.96352
299.97811
299.97664
299.9737
299.97251
299.95963
299.95831
299.95214
299.95487
299.97052
299.9712
299.97419
299.95091
299.9583
299.96034
299.96542
299.96931
299.97151
299.97296
299.97403
299.97482
299.97534
299.9817
299.98264
299.97591
299.97567
299.9836
299.98232
299.98329
299.98521
299.97534
299.97499
299.9875
299.98457
299.98627
300.00105
300.01536
300.02149
300.00655
300.01613
300.00723
300.02514
300.04157
300.05634
300.04072
300.04763
300.06744
300.05165
300.0349
300.04327
300.02645
300.0113
300.01412
300.00452
300.01693
300.00849
300.00845
300.00239
299.9981
299.98972
299.98711
299.99001
299.99368
299.99921
300.01176
300.02097
300.04272
300.02642
300.0428
300.05872
300.06892
300.06467
300.05308
300.10337
300.13261
300.13484
300.11035
300.07003
300.06177
300.03611
300.0203
300.01162
300.03574
300.05207
300.10196
300.21488
300.34528
300.33091
300.21692
300.34494
301.06268
301.29652
300.35322
300.13409
300.13927
300.10994
300.05856
300.02099
300.07086
300.0669
300.12062
300.22841
300.35207
301.09537
301.32288
300.36244
300.2305
300.36029
300.34171
300.14457
300.14414
300.11556
300.062
300.02539
300.07745
300.07384
300.0606
300.13847
300.37462
301.56914
301.55383
300.35285
300.12544
300.05142
300.0206
300.00768
299.99901
299.99772
300.00576
300.01596
300.00656
300.00815
300.00928
300.00256
300.00159
300.00918
300.01078
300.01884
300.01699
300.0141
300.00632
300.00017
299.99823
300.00413
300.01014
300.00315
299.99491
299.99243
299.98998
299.98407
299.98264
299.98052
299.97524
299.97574
299.9806
299.98678
299.99472
299.99543
300.00098
299.99962
299.98887
299.97887
299.97919
299.97106
299.97144
299.97215
299.97649
299.98079
299.98638
299.99372
299.99734
299.98745
299.98616
299.98597
299.98121
299.97773
299.97332
299.97862
299.97861
299.9814
299.98207
299.98285
299.98339
299.98374
299.98371
299.98328
299.97634
299.97665
299.97683
299.97641
299.98465
299.98523
299.98771
299.98683
299.97653
299.97715
299.97795
299.97698
299.99009
299.99153
299.99788
299.99528
299.99086
299.97472
299.97445
299.99591
299.98844
299.99122
299.98205
299.98093
300.00941
300.03622
300.02488
300.03881
300.05977
300.07694
300.09441
300.07683
300.11521
300.0846
300.10713
300.13989
300.16551
300.14675
300.09229
300.06005
300.06513
300.04335
300.05532
300.08025
300.11664
300.1025
300.17122
300.18829
300.30888
300.26233
300.20606
300.14852
300.10917
300.08049
300.06145
300.04634
300.03447
300.02524
300.01803
300.007
300.00275
299.99926
299.99653
299.99433
300.00026
300.0025
299.9998
299.99396
299.99616
299.9898
299.98841
299.98958
299.98269
299.98293
299.99109
299.99331
299.99135
299.99885
300.00625
300.0034
300.00724
300.01087
300.00218
300.00556
300.00145
299.99814
299.99536
300.00145
300.00475
300.00728
300.00346
299.99705
300.00023
299.99309
299.99137
299.98989
299.98878
299.98298
299.98341
299.98383
299.98434
299.98619
299.98527
299.9845
299.98371
299.98558
299.9868
299.98522
299.98562
299.99398
299.99417
299.98896
299.9926
299.99882
299.99888
299.99784
299.99831
299.9995
299.99877
299.9984
299.9986
300.00727
299.99821
300.00826
300.02027
300.01742
300.00916
300.00132
300.00081
300.00772
300.0166
300.00839
300.00644
299.99982
299.99726
300.00589
300.01708
300.00662
300.01465
300.01149
300.00465
299.99823
300.0039
299.99512
299.99709
299.99863
299.99929
299.98801
299.98773
299.97735
299.977
299.97899
299.97388
299.96933
299.9701
299.96909
299.96952
299.97326
299.97813
299.97737
299.97183
299.96717
299.96358
299.96472
299.96751
299.96645
299.96566
299.96261
299.96668
299.97187
299.9732
299.97849
299.97794
299.97871
299.97906
299.98467
299.99126
299.99244
299.99849
300.00511
300.00959
300.00234
300.00422
299.99998
300.00683
300.01182
300.01852
300.01556
300.01242
300.00915
300.01468
300.01918
300.00929
300.00422
299.99571
299.99341
299.99598
299.99908
299.98849
299.98698
299.98576
299.98712
299.98555
299.98652
299.99372
299.99647
299.99484
299.99814
300.00714
300.01335
300.02353
300.02787
300.01709
300.00975
300.00044
299.99076
299.98888
299.9912
300.00251
300.00587
299.99399
299.99647
299.99238
299.98952
299.98842
299.98056
299.97962
299.97963
299.97352
299.97331
299.97211
299.96638
299.96878
299.96494
299.96183
299.95786
299.95887
299.96011
299.96154
299.95774
299.96214
299.96807
299.97021
299.97614
299.97515
299.97569
299.97662
299.97001
299.96772
299.96095
299.9644
299.96377
299.97008
299.97739
299.97664
299.96772
299.96814
299.97043
299.97844
299.97803
299.97747
299.97563
299.97452
299.97401
299.98334
299.99306
299.99553
299.98391
299.98586
299.98502
299.99584
300.0065
300.01171
300.02403
300.03299
300.01849
300.01241
300.01924
300.02692
300.04456
300.05694
300.04207
300.03081
300.01766
300.01099
300.01616
300.02486
300.03949
300.05419
300.03688
300.02649
300.03762
300.05242
300.07484
300.09713
300.06835
300.04879
300.03368
300.02211
300.02779
300.04269
300.05886
300.08431
300.06614
300.05068
300.07409
300.10154
300.12675
300.15131
300.09687
300.06624
300.05068
300.03269
300.02023
300.01192
300.00575
300.001
300.00795
300.01341
300.01461
300.00887
300.0018
300.00677
299.99872
299.99781
299.99459
299.98721
299.98777
299.9953
299.99556
300.00211
300.00923
300.02137
300.03116
300.05243
300.05443
300.04119
300.03867
300.02008
300.02986
300.05178
300.08542
300.09102
300.1328
300.17008
300.15421
300.0785
300.07204
300.13373
300.15323
300.12235
300.07293
300.04579
300.0266
300.04378
300.02166
300.01245
300.0167
300.0324
300.02514
300.03693
300.05753
300.09978
300.08986
300.07249
300.09917
300.05812
300.04453
300.02683
300.03175
300.03702
300.04204
300.04632
300.04886
300.04973
300.04852
300.03331
300.03099
300.02072
300.0223
300.01335
300.02227
300.01063
300.00873
300.00235
300.00365
299.99349
299.99028
299.98198
299.9814
299.98083
299.98032
299.97385
299.97305
299.97253
299.96631
299.96865
299.96447
299.96128
299.96094
299.96411
299.96865
299.96639
299.96352
299.96334
299.9634
299.95943
299.96001
299.95408
299.95582
299.95041
299.95315
299.95837
299.96551
299.96238
299.97267
299.97303
299.9611
299.96482
299.95656
299.95093
299.95372
299.94749
299.94348
299.93459
299.94053
299.94807
299.95865
299.97119
299.98482
299.99876
300.00304
299.98624
299.98866
299.98704
300.00306
299.99898
300.00356
299.99934
299.98739
299.98886
299.99321
299.99053
300.00362
300.00955
300.01768
300.00912
299.99082
299.99327
300.01622
300.00833
300.01557
300.00905
300.02853
300.04037
300.053
300.0385
300.05949
300.08828
300.1064
300.19464
300.16504
300.14082
300.22253
300.13605
300.16034
300.27825
300.46784
300.24368
300.24539
300.3197
300.26664
300.56088
300.61614
300.43041
300.87946
300.40923
300.23041
300.23174
300.34687
300.4491
300.50068
300.26585
300.30943
300.54311
301.70235
301.58983
300.8725
301.65324
301.8159
303.07409
302.79058
302.71406
301.64418
300.53057
300.25105
300.16476
300.09196
300.05627
300.03275
300.02358
300.02073
300.02982
300.05082
300.03879
300.04407
300.08167
300.07052
300.08229
300.14407
300.12727
300.15432
300.11665
300.08046
300.05543
300.03907
300.02684
300.01832
300.01173
300.00474
300.0041
300.01103
300.01738
300.00968
300.01052
300.01815
300.01691
300.02558
300.03718
300.02651
300.02834
300.01685
300.00438
299.99817
299.9938
299.99047
299.99
299.99752
300.00158
299.9931
299.99187
299.98928
299.99662
300.00306
300.00993
300.00807
300.00142
300.00596
300.00808
300.0158
300.01332
300.02004
300.02336
300.0146
300.0116
300.01881
300.02312
300.03399
300.02911
300.0241
300.01646
300.0107
300.00622
300.01565
300.02504
300.03979
300.01889
300.01032
300.02052
300.02953
300.04227
300.03153
300.04835
300.06606
300.0886
300.10861
300.08579
300.05166
300.03563
300.05672
300.07423
300.05186
300.03467
300.02283
300.01331
300.00661
300.00211
299.99642
299.99897
299.99562
299.99038
299.98616
299.98994
299.99305
299.99228
299.99603
299.99794
300.00116
300.00338
300.00964
300.00001
299.99647
299.99521
299.99669
300.00002
299.9974
300.00339
300.00793
300.00027
300.0005
300.0051
300.01219
300.00588
300.01505
300.02424
300.01157
300.00458
300.02367
300.04862
300.02268
300.01226
300.02219
300.03532
300.02147
300.03388
300.02194
300.01476
300.00561
300.00023
300.00761
300.01263
300.00453
300.01142
300.0027
299.99547
299.98717
299.99275
299.99635
299.99272
299.99154
299.98592
299.9863
299.9886
299.99098
299.9914
299.98492
299.98527
299.97907
299.98191
299.97911
299.98116
299.98316
299.98319
299.98017
299.97698
299.97492
299.97279
299.97223
299.97169
299.97136
299.97114
299.97106
299.97108
299.9711
299.97108
299.97099
299.97079
299.97056
299.96604
299.96612
299.96313
299.96828
299.96867
299.96312
299.96326
299.96607
299.96619
299.96343
299.96935
299.96908
299.96711
299.96643
299.96579
299.9593
299.95938
299.95443
299.95424
299.96248
299.96349
299.96463
299.95493
299.95965
299.9599
299.96745
299.96504
299.95532
299.94964
299.94881
299.94774
299.94732
299.95796
299.95958
299.95391
299.95145
299.93753
299.93838
299.94075
299.958
299.96167
299.97829
299.97997
299.98495
299.98146
300.00409
300.02444
300.02994
300.04864
300.02936
300.02925
300.04337
300.04052
300.05266
300.07575
300.06049
300.06518
300.04851
300.02958
300.01387
300.01065
300.00251
299.99704
300.00723
300.01496
300.01173
300.00509
300.00015
299.99827
299.9952
299.98817
299.99034
299.99286
299.99515
299.99954
299.99608
300.00772
300.00238
299.99945
299.99619
299.99382
299.99977
299.9978
300.00391
300.00773
300.00104
300.0035
300.00817
300.00486
300.01259
300.01874
300.00951
300.014
300.00356
299.99269
299.9905
299.9887
299.98714
299.98598
299.99221
299.99414
299.98716
299.9858
299.98509
299.9909
299.99617
300.00201
299.99985
299.99439
299.99653
299.99868
300.00511
300.00246
300.00582
300.00918
300.00174
299.99897
300.00189
300.00541
300.01422
300.00986
300.01487
300.02044
300.02645
300.03367
300.0409
300.04789
300.03526
300.02873
300.04171
300.05198
300.06821
300.05695
300.07808
300.09572
300.10847
300.09327
300.10219
300.16705
300.18517
300.16632
300.14738
300.1231
300.07166
300.04319
300.02618
300.02109
300.0058
300.0004
300.01494
300.02474
300.03467
300.0152
300.02361
300.0465
300.0587
300.05931
300.04704
300.03101
300.01579
300.02774
300.05799
300.08864
300.05547
300.07115
300.08262
300.15305
300.12233
300.09266
300.05591
300.01715
300.00369
299.97403
299.96596
299.96028
299.95246
299.92656
299.94075
299.94218
299.94511
299.93571
299.94162
299.93313
299.9412
299.95425
299.96965
299.96898
299.97119
299.95641
299.95052
299.93463
299.94376
299.93973
299.94845
299.95505
299.96461
299.96045
299.97424
299.97666
299.96075
299.96502
299.95401
299.94546
299.94779
299.93945
299.93564
299.94657
299.93647
299.955
299.95499
299.97242
299.96992
299.94771
299.94695
299.97393
299.97562
299.99695
300.00174
300.02838
300.04728
300.02961
300.01712
300.00864
299.9945
299.99924
300.00666
299.99891
300.01384
300.02562
300.04458
300.02003
300.00653
300.01693
300.04203
300.07456
300.10546
300.05958
300.03345
300.0184
300.00303
300.01412
300.01931
300.00586
299.99817
299.98537
299.98396
299.98196
299.97988
299.97974
299.97106
299.96903
299.97023
299.97186
299.98112
299.98238
299.97268
299.97356
299.97412
299.97435
299.98126
299.9814
299.97746
299.97896
299.97896
299.97336
299.96898
299.9687
299.96391
299.96079
299.96657
299.96672
299.96878
299.9638
299.96074
299.95665
299.95663
299.95674
299.95715
299.95153
299.9526
299.94814
299.95031
299.95264
299.95502
299.95739
299.95961
299.96384
299.97425
299.98248
299.99025
299.99455
299.99785
299.99995
299.999
300.00004
299.99984
300.00004
299.99607
299.98991
299.99299
299.98648
299.9822
299.9795
299.98525
299.98904
299.98262
299.9806
299.97554
299.97447
299.97141
299.97676
299.97765
299.97211
299.97482
299.97797
299.98175
299.98579
299.98332
299.97984
299.97781
299.9865
299.99385
299.99974
299.99228
299.99392
299.99647
300.00001
299.99738
299.99222
299.98872
299.99209
299.98924
299.98541
299.98311
299.98672
299.99041
299.98721
299.99077
299.99241
299.99478
299.99868
299.9974
299.99527
299.99633
299.99349
299.99268
299.99792
299.99573
299.98967
299.98582
299.98933
299.98531
299.98158
299.9765
299.97882
299.97517
299.97815
299.97985
299.98678
299.99333
299.98979
299.98596
299.98005
299.98124
299.97858
299.97754
299.97215
299.97495
299.97614
299.97303
299.97585
299.98083
299.98328
299.98644
299.98429
299.97985
299.98239
299.97861
299.97425
299.97137
299.97018
299.96918
299.96898
299.96737
299.96775
299.96486
299.96633
299.96596
299.9643
299.96469
299.9676
299.96924
299.97056
299.96893
299.96605
299.96775
299.96631
299.96347
299.9655
299.96406
299.96349
299.96303
299.961
299.96163
299.95792
299.95997
299.95955
299.9573
299.95804
299.96153
299.96314
299.96509
299.96208
299.96003
299.95695
299.9601
299.96519
299.97088
299.96981
299.96862
299.96833
299.96537
299.96582
299.9642
299.96704
299.96655
299.96353
299.9638
299.96563
299.96851
299.96974
299.96696
299.96503
299.96788
299.96667
299.96513
299.96916
299.97551
299.98222
299.97478
299.96878
299.9666
299.97291
299.97338
299.96661
299.96964
299.97204
299.96775
299.96924
299.97098
299.9737
299.96887
299.97441
299.97143
299.9732
299.97088
299.97318
299.97154
299.9692
299.9668
299.96849
299.96613
299.96438
299.96286
299.9625
299.96305
299.96103
299.96029
299.95667
299.95911
299.95952
299.96146
299.95914
299.96216
299.96069
299.95729
299.95364
299.95656
299.95595
299.95852
299.95665
299.95628
299.95319
299.95372
299.94875
299.95233
299.95211
299.94845
299.95008
299.95429
299.95683
299.96006
299.96275
299.96537
299.96792
299.97038
299.97186
299.9741
299.97273
299.97039
299.97178
299.96933
299.9669
299.96923
299.97479
299.97871
299.97609
299.97865
299.97757
299.97489
299.97302
299.9741
299.97685
299.97581
299.97434
299.97532
299.97227
299.96967
299.96821
299.96609
299.96747
299.9642
299.96184
299.96489
299.97158
299.9689
299.97043
299.9739
299.97311
299.96957
299.97122
299.97034
299.97207
299.97394
299.97802
299.98289
299.9877
299.99474
300.00029
300.00032
299.99676
299.99454
299.98931
299.99247
299.99258
299.99113
299.9876
299.98403
299.98599
299.98972
299.98797
299.98748
299.98289
299.98709
299.98502
299.98308
299.98068
299.9798
299.98227
299.98093
299.98168
299.97918
299.97842
299.97723
299.97784
299.97994
299.98456
299.98272
299.98377
299.98576
299.987
299.98628
299.98428
299.98314
299.9851
299.98424
299.98478
299.98401
299.98193
299.97964
299.98055
299.97993
299.97925
299.97632
299.97671
299.97583
299.97763
299.97961
299.98238
299.98667
299.9843
299.98211
299.9831
299.98431
299.98231
299.97983
299.97775
299.97598
299.97464
299.97641
299.97368
299.97181
299.97004
299.96704
299.96883
299.96674
299.96352
299.96172
299.96428
299.96244
299.96512
299.96323
299.96634
299.96468
299.96346
299.96355
299.96511
299.96576
299.96264
299.96179
299.96009
299.96116
299.96439
299.96333
299.96229
299.95851
299.95982
299.95863
299.96227
299.96099
299.95704
299.95689
299.9585
299.9602
299.96198
299.95859
299.95822
299.95914
299.95731
299.95617
299.95153
299.95413
299.95481
299.95682
299.96012
299.9581
299.96146
299.95976
299.96328
299.96208
299.96064
299.96182
299.95813
299.95413
299.95609
299.95442
299.95649
299.95226
299.95446
299.95205
299.94967
299.94891
299.95418
299.9556
299.95406
299.9523
299.94635
299.94708
299.95243
299.95059
299.95545
299.95951
299.96461
299.97195
299.97998
299.98454
299.97441
299.9758
299.97993
299.97458
299.9731
299.97881
299.97796
299.97337
299.97088
299.97082
299.97168
299.96502
299.96408
299.96331
299.96639
299.96771
299.96222
299.96338
299.9648
299.96615
299.96876
299.97018
299.96769
299.96623
299.96347
299.96061
299.96389
299.96544
299.96331
299.96498
299.96844
299.96969
299.97317
299.9745
299.97319
299.97201
299.97112
299.97216
299.96831
299.96497
299.96131
299.95883
299.95576
299.95282
299.95192
299.95217
299.95639
299.95328
299.95266
299.94804
299.94842
299.94282
299.94822
299.94805
299.94304
299.94301
299.93619
299.93676
299.9428
299.9452
299.94958
299.95304
299.95606
299.95932
299.95337
299.9497
299.95303
299.94931
299.95272
299.95602
299.9592
299.96306
299.96129
299.96316
299.95883
299.95665
299.95424
299.95688
299.95915
299.96352
299.96557
299.96407
299.96013
299.9574
299.96212
299.96679
299.9681
299.97211
299.97274
299.97174
299.96743
299.96627
299.96707
299.97139
299.97057
299.96595
299.96707
299.96587
299.96717
299.96873
299.97051
299.97245
299.97535
299.97355
299.97258
299.97433
299.9712
299.96929
299.96751
299.97126
299.97216
299.97109
299.97031
299.96598
299.96167
299.95767
299.95972
299.95697
299.95332
299.9506
299.94939
299.95011
299.94415
299.94379
299.93915
299.94595
299.94683
299.93952
299.93028
299.9369
299.93718
299.92943
299.92808
299.93197
299.92321
299.91354
299.92834
299.92207
299.90324
299.9225
299.92814
299.91316
299.92335
299.94343
299.9494
299.96843
299.98874
299.99301
300.01743
300.02547
299.99552
299.99126
299.99662
300.02573
300.05282
300.07622
300.10055
300.07859
300.10312
300.07427
300.05734
300.08205
300.10678
300.1424
300.17969
300.13087
300.09759
300.07135
300.0998
300.07416
300.10146
300.13563
300.17534
300.13341
300.17804
300.13759
300.0862
300.06733
300.0508
300.03026
300.00102
300.01584
300.02187
300.004
300.04084
300.05574
300.0379
300.00112
300.01484
300.00791
300.04279
300.06021
300.08199
300.02287
300.00923
300.02707
300.03533
300.11237
300.1801
300.1507
300.11798
300.08511
300.12132
300.17945
300.26257
300.16385
300.20032
300.30252
300.39607
300.39171
300.25271
300.31678
300.44214
300.39746
300.54958
300.56676
300.40523
300.25579
300.21335
300.36254
300.44725
300.26487
300.32742
300.2345
300.32086
300.2456
300.1882
300.13691
300.10921
300.1512
300.2386
300.16121
300.18856
300.28016
300.38147
300.33778
300.20328
300.25821
300.42102
300.50142
300.75743
300.54159
300.37539
300.24214
300.23019
300.13078
300.08086
300.09
300.05568
300.03579
300.02141
300.03858
300.06962
300.04634
300.03525
300.07476
300.09854
300.12725
300.14957
300.1715
300.10602
300.07172
300.07337
300.05712
300.03687
300.02307
300.01396
300.00723
300.01511
300.01497
300.00914
300.002
300.00708
299.99896
299.99911
299.99059
299.98798
299.98788
299.99547
299.99505
299.98757
299.98552
299.98571
299.99381
299.99312
299.98898
299.98223
299.98103
299.97325
299.9689
299.96905
299.97351
299.979
299.97729
299.97705
299.97914
299.98522
299.98661
299.98553
299.98487
299.99203
299.99117
299.98933
299.99454
299.98429
299.98012
299.97949
299.97522
299.9741
299.96956
299.97059
299.97701
299.97733
299.98458
299.98477
299.98501
299.98763
299.9905
299.9952
299.99678
299.99605
300.00369
300.01129
300.00276
300.00822
300.00097
299.99824
299.9968
300.00059
300.00496
300.01078
300.01639
300.02893
300.02859
300.01706
300.00749
300.00251
300.00245
300.02029
300.01014
300.01943
300.03093
300.04384
300.05918
300.06645
300.04971
300.03301
300.04587
300.03065
300.02134
300.0309
300.01498
300.00592
299.99756
300.00129
299.9955
299.99117
299.99175
299.98825
299.9809
299.98133
299.97867
299.97659
299.97211
299.97415
299.97832
299.98399
299.99156
299.99301
299.99957
300.00129
300.00318
300.0047
300.00637
300.0076
300.00865
300.00153
300.00638
300.01427
300.01289
300.0052
300.00059
299.99425
299.9869
299.98753
299.98991
299.99045
299.99366
299.99392
300.00417
300.01131
299.99873
299.99817
300.01077
300.0039
300.01371
300.02276
300.02298
300.03419
300.03374
300.02259
300.02097
300.01267
300.02175
300.03221
300.02939
300.01989
300.01101
300.01852
300.00704
300.00924
300.00295
299.99832
299.99729
299.98907
299.99162
299.99283
299.99681
299.99499
299.98292
299.98423
299.98533
299.98581
299.9836
299.98327
299.97327
299.97393
299.97409
299.97443
299.97438
299.98134
299.9821
299.98222
299.97402
299.96677
299.96679
299.9688
299.96375
299.96072
299.96071
299.96374
299.96879
299.96875
299.97424
299.98108
299.98169