/*--------------------------------*- C++ -*----------------------------------*\
  =========                 |
  \\      /  F ield         | OpenFOAM: The Open Source CFD Toolbox
   \\    /   O peration     | Website:  https://openfoam.org
    \\  /    A nd           | Version:  7
     \\/     M anipulation  |
\*---------------------------------------------------------------------------*/
FoamFile
{
    version     2.0;
    format      ascii;
    class       volVectorField;
    location    "130";
    object      U;
}
// * * * * * * * * * * * * * * * * * * * * * * * * * * * * * * * * * * * * * //

dimensions      [0 1 -1 0 0 0 0];

internalField   nonuniform List<vector> 
24866
(
(120.00022 -0.00058322632 -0.00070252637)
(120.00034 -0.00036914827 -0.000532105)
(120.00032 -0.00042862733 -0.0004416733)
(120.00012 -0.00022776702 -0.00022669106)
(120.00002 -6.3273176e-05 -6.6263516e-05)
(120.00003 -5.8561421e-05 -7.9720178e-05)
(120.00002 -4.6733314e-05 -9.1179279e-05)
(120.00002 -4.605011e-05 -8.5319457e-05)
(120.00003 -2.7749441e-05 -9.1949279e-05)
(120.00003 -1.9033891e-05 -0.00010443077)
(120.00003 -5.5240306e-06 -0.00010319425)
(120.00003 6.466131e-06 -0.00010310149)
(120.00003 2.0192076e-05 -0.00010410544)
(120.00003 2.9141868e-05 -9.1464667e-05)
(120.00002 4.7753924e-05 -8.505896e-05)
(120.00002 4.8666541e-05 -8.9409548e-05)
(120.00003 6.1927108e-05 -7.8427696e-05)
(120.00002 6.6346968e-05 -6.3490826e-05)
(120.00003 7.1524994e-05 -6.1211328e-05)
(120.00003 8.873942e-05 -5.2445084e-05)
(120.00003 0.00010714635 -4.9442496e-05)
(120.00004 0.00011974149 -3.6559502e-05)
(120.00003 0.0001068777 -2.393467e-05)
(120.00004 9.4322513e-05 -3.9575742e-05)
(120.00003 0.00011882669 -9.1795099e-06)
(120.00003 0.00012863855 3.7719415e-06)
(120.00003 0.00011058395 1.7502576e-05)
(120.00004 8.691019e-05 4.6294423e-05)
(120.00004 0.00010050759 2.8038304e-05)
(120.00003 0.00010211511 5.4166972e-05)
(120.00003 8.1816369e-05 5.4357396e-05)
(120.00002 6.7895791e-05 6.4561367e-05)
(120.00002 6.5068305e-05 6.7484386e-05)
(120.00003 5.4899499e-05 8.141627e-05)
(120.00003 5.4716354e-05 0.000101639)
(120.00004 2.8485145e-05 0.00010010092)
(120.00004 4.6756628e-05 8.6591054e-05)
(120.00003 1.7974391e-05 0.00011024415)
(120.00003 4.1999553e-06 0.00012842848)
(120.00003 -8.7146277e-06 0.00011860976)
(120.00004 -3.9246763e-05 9.418268e-05)
(120.00003 -2.3784587e-05 0.00010670284)
(120.00004 -3.6484163e-05 0.00011947194)
(120.00003 -4.9421307e-05 0.00010688563)
(120.00003 -5.2453731e-05 8.8374521e-05)
(120.00003 -6.1344369e-05 7.1311212e-05)
(120.00002 -6.3460512e-05 6.5923681e-05)
(120.00003 -7.858841e-05 6.1647445e-05)
(120.00002 -8.9377054e-05 4.8258022e-05)
(120.00002 -8.5282897e-05 4.7638549e-05)
(120.00003 -9.129081e-05 2.8904634e-05)
(120.00003 -0.00010413445 1.9970285e-05)
(120.00003 -0.00010311847 6.3910559e-06)
(120.00003 -0.00010307817 -5.6292198e-06)
(120.00003 -0.00010405623 -1.9160293e-05)
(120.00003 -9.1959909e-05 -2.7963248e-05)
(120.00002 -8.5104298e-05 -4.6238796e-05)
(120.00002 -9.1130673e-05 -4.706433e-05)
(120.00003 -7.9319108e-05 -5.869103e-05)
(120.00002 -6.6201852e-05 -6.3716017e-05)
(120.00003 -0.0001182925 -9.1706239e-05)
(120.00001 -0.00011981713 -0.00012005424)
(120.00003 -9.1388649e-05 -0.00011850177)
(120.00003 -9.5077287e-05 -0.00011272097)
(120.00001 -9.8715162e-05 -0.00015205017)
(120.00002 -7.2268689e-05 -0.00016891353)
(120.00002 -6.1223e-05 -0.0001534949)
(120.00002 -5.2140032e-05 -0.00013862553)
(120.00001 -3.9393322e-05 -0.00017543977)
(120.00001 -1.3074614e-05 -0.00018556276)
(120.00001 1.4065839e-05 -0.00018550316)
(120.00001 4.0568039e-05 -0.00017525246)
(120.00002 5.3527721e-05 -0.00013820267)
(120.00002 6.2328536e-05 -0.00015301211)
(120.00002 7.4126241e-05 -0.00016826111)
(120.00001 0.00010150877 -0.00015105497)
(120.00003 9.8551152e-05 -0.00011167642)
(120.00003 9.4217375e-05 -0.00011614306)
(120.00001 0.00012429917 -0.00011781689)
(120.00003 0.00012422483 -9.1717563e-05)
(120.00003 0.00012213967 -9.5735366e-05)
(120.00001 0.00017043384 -0.00010217237)
(120.00002 0.00019914252 -8.3023408e-05)
(120.00002 0.00020531404 -6.0880909e-05)
(120.00002 0.00020295388 -1.108227e-05)
(120.00001 0.00018514179 -2.5072985e-05)
(120.00002 0.00018407875 -1.0438742e-05)
(120 0.00019033463 1.1397229e-05)
(120.00002 0.0001687633 3.295798e-05)
(120.00001 0.00016977954 4.8741015e-05)
(120.00002 0.00018684332 4.4371891e-05)
(120.00001 0.00021325282 1.653371e-05)
(120.00001 0.00024496258 2.4861377e-05)
(120.00001 0.00024510545 -2.8440773e-05)
(120.00001 0.0002291299 -7.9481323e-05)
(120.00001 0.00020634675 -0.00011556815)
(120.00001 0.00016553146 -0.0001255881)
(120.00001 0.0001715264 -0.00016660017)
(120.00001 0.00013023316 -0.00015796416)
(120.00001 0.00011545635 -0.00020235253)
(120.00001 0.00014789865 -0.00020342541)
(120 0.00018106816 -0.00017856933)
(120.00001 0.00020833809 -0.00014578298)
(120.00001 0.00023560493 -0.00010131621)
(120.00001 0.00025070614 -3.7260774e-05)
(120 0.00025026032 3.4204624e-05)
(120.00001 0.00023391036 9.986875e-05)
(120.00001 0.00022982288 7.5331634e-05)
(120.00001 0.00020065177 0.00011444814)
(120.00002 0.00017890139 7.8300809e-05)
(120.00001 0.00016298883 0.00010264989)
(120.00003 0.00011444439 9.4794232e-05)
(120.00003 0.0001195449 9.2921794e-05)
(120.00001 0.00012058522 0.00012013366)
(120.00001 0.00016155389 0.00012703083)
(120.00001 0.00016946386 0.00016895388)
(120.00001 0.00020585179 0.00014589635)
(120 0.00017987875 0.00017933702)
(119.99999 0.00020599289 0.00012284294)
(119.99999 0.00022084615 4.2940874e-05)
(119.99999 0.00022131945 -4.5422386e-05)
(120 0.0002066237 -0.0001236688)
(119.99998 0.00014269708 -0.00014164473)
(119.99999 0.00012467322 -0.00020430947)
(120 0.00010227688 -0.0002333096)
(120.00001 7.827075e-05 -0.00023279412)
(120.00001 5.6212414e-05 -0.00020227126)
(120.00001 2.2494046e-05 -0.00022126998)
(120.00001 2.8507459e-05 -0.00025026776)
(120 3.6763031e-05 -0.00024997595)
(119.99999 4.4970908e-05 -0.00021918772)
(119.99997 5.1445671e-05 -0.00015212704)
(119.99996 5.5152875e-05 -5.5507704e-05)
(119.99997 0.0001530756 -5.1744333e-05)
(119.99997 0.00015270639 4.9974837e-05)
(119.99998 0.0001418961 0.00014131068)
(119.99999 0.00012338174 0.00020541582)
(120.00001 0.00010036453 0.00023337615)
(120.00001 0.00014641325 0.00020533096)
(120.00001 0.00011494086 0.000200174)
(120.00001 0.00012753586 0.00016104956)
(120.00001 0.00010318546 0.00016255422)
(120.00003 9.5313704e-05 0.00011403839)
(120.00003 9.3313044e-05 0.00011906509)
(120.00003 0.00017938976 0.00024523557)
(120.00003 0.00020129262 0.00023054954)
(120.00006 0.00028454825 0.00034569407)
(120.00013 0.00018343741 0.00027936993)
(120.00012 0.00023002607 0.00022953523)
(120.00012 0.00023082584 0.00022858872)
(120.00013 0.00028050654 0.00018179746)
(120.00011 0.00031349469 0.00014512424)
(120.00012 0.00036781654 0.00015795687)
(120.00004 0.00021764565 6.9383138e-05)
(120.00004 0.00018737913 8.9086872e-05)
(120.00012 0.00038167546 0.0001194481)
(120.00012 0.00037208881 7.671392e-05)
(120.00011 0.00038232259 1.3253517e-05)
(120.00012 0.00039740062 -4.8693943e-05)
(120.0001 0.0004205135 -0.00010518798)
(120.00014 0.00050730019 -0.0001165133)
(120.00013 0.0004271327 -0.00017737351)
(120.00012 0.00033137828 -0.00013305377)
(120.00014 0.0002961537 -0.00017612626)
(120.00012 0.0002430653 -0.00022106121)
(120.00012 0.00023897934 -0.00021909824)
(120.00014 0.00020334015 -0.00026594366)
(120.00011 0.00015581786 -0.00027733409)
(120.00013 0.0001664957 -0.00029789649)
(120.00013 9.2113749e-05 -0.0003268197)
(120.00012 6.8274505e-05 -0.0003375136)
(120.00013 2.2284341e-05 -0.00035554439)
(120.00013 -1.9131684e-05 -0.00035577622)
(120.00012 -6.4672523e-05 -0.00033825332)
(120.00013 -8.7785773e-05 -0.00032821484)
(120.00013 -0.00016141288 -0.00029951582)
(120.00011 -0.00014953458 -0.00028108858)
(120.00014 -0.00019360718 -0.00027032153)
(120.00007 -0.00028636717 -0.00033986794)
(120.00006 -0.00026200723 -0.00032035392)
(120.00003 -0.00017742694 -0.00024503855)
(120.00003 -0.00020095147 -0.00022835918)
(120.00006 -0.00034434923 -0.00036629754)
(120.00013 -0.00033770956 -0.00040266278)
(120.00007 -0.0002849866 -0.00037273407)
(120.00005 -0.00034495839 -0.00034563467)
(120.00001 -0.0004963044 -0.00040261645)
(120.00001 -0.00015916192 -0.0001272819)
(120.00001 -0.00016688953 -0.00016722827)
(120.00001 -0.00012696276 -0.00015942077)
(120.00001 -0.00011317322 -0.00020311859)
(120.00001 -7.6519503e-05 -0.00023314346)
(120.00001 -5.4727638e-05 -0.00020261808)
(120.00001 -2.1314929e-05 -0.00022133345)
(120.00001 -2.7144003e-05 -0.00025036781)
(120 -3.5272976e-05 -0.00025004502)
(119.99999 -4.3539766e-05 -0.00021916171)
(119.99997 -5.0340877e-05 -0.00015197912)
(119.99996 -5.4570379e-05 -5.5258836e-05)
(119.99996 -5.4923949e-05 5.4420451e-05)
(119.99996 5.4791147e-05 5.4144367e-05)
(119.99997 5.0528887e-05 0.00015205493)
(119.99999 4.3431968e-05 0.00022023213)
(120 3.4650565e-05 0.00024971021)
(120.00001 2.5279526e-05 0.00024448326)
(120.00001 7.5809451e-05 0.0002293452)
(120.00002 4.4845485e-05 0.00018640031)
(120.00002 7.8800755e-05 0.00017848058)
(120.00005 0.00022029172 0.00051758069)
(120.00011 0.00017611865 0.00049810236)
(120.00004 9.8358823e-05 0.00032046285)
(120.00004 7.0361265e-05 0.00021694158)
(120.00012 0.00015957999 0.00036683695)
(120.00011 0.00014661826 0.00031231625)
(120.00028 0.00030642808 0.00061864105)
(120.00033 0.00036297849 0.00054670941)
(120.00031 0.00043326291 0.0004469897)
(120.00031 0.00044922785 0.00043058543)
(120.00033 0.00054893243 0.0003601909)
(120.00028 0.0006208253 0.00030382318)
(120.00029 0.0006389031 0.00029763583)
(120.00029 0.00069730984 0.00020049942)
(120.00029 0.00070046172 0.00013888328)
(120.00028 0.00073400906 3.1662207e-05)
(120.00028 0.00073703314 -7.4676687e-05)
(120.00026 0.00075451542 -0.00017350567)
(120.0003 0.00081403092 -0.00021221633)
(120.0003 0.00070946119 -0.00031923242)
(120.00029 0.00065445889 -0.00029194787)
(120.00034 0.00057339816 -0.00034565402)
(120.00031 0.00046669326 -0.00041658885)
(120.00032 0.00044820904 -0.00043257207)
(120.00034 0.00038512149 -0.00052503056)
(120.0003 0.00031995658 -0.00057827575)
(120.00032 0.00030123751 -0.00057730578)
(120.00033 0.00018472761 -0.00064356823)
(120.00032 0.00013564314 -0.00068190878)
(120.00032 4.1084367e-05 -0.00072128882)
(120.00032 -3.5315543e-05 -0.00072147251)
(120.00032 -0.00012941878 -0.00068282344)
(120.00033 -0.00017737668 -0.00064559014)
(120.00032 -0.00029204319 -0.00058016951)
(120.0003 -0.00030907668 -0.00058357772)
(120.0006 -0.00056176138 -0.0010426276)
(120.00066 -0.0006703023 -0.00097465179)
(120.00064 -0.00078831139 -0.00081090674)
(120.00064 -0.00080930225 -0.00079024817)
(120.00066 -0.00097292597 -0.00067218261)
(120.00034 -0.00053093724 -0.00037046227)
(120.00014 -0.00026961756 -0.0001943596)
(120.00011 -0.00028045091 -0.00015019283)
(120.00013 -0.00029905501 -0.00016205056)
(120.00013 -0.00032812261 -8.8522167e-05)
(120.00012 -0.00033758614 -6.5194085e-05)
(120.00013 -0.00035547541 -1.958548e-05)
(120.00013 -0.00035547422 2.1831496e-05)
(120.00012 -0.00033734871 6.7544252e-05)
(120.00013 -0.00032676433 9.1366074e-05)
(120.00013 -0.00029797539 0.00016567156)
(120.00011 -0.00027731047 0.00015469291)
(120.00014 -0.00026606094 0.00020230723)
(120.00012 -0.00021915627 0.00023788493)
(120.00012 -0.00022117938 0.0002421786)
(120.00014 -0.00017616705 0.00029517504)
(120.00012 -0.00013299577 0.00033050243)
(120.00013 -0.00017711069 0.00042610895)
(120.00005 -7.1188308e-05 0.00025067768)
(120.00002 -5.7306529e-05 0.00025730343)
(120.00004 -6.5111019e-05 0.00022104239)
(120.0001 -0.00010442052 0.00041936165)
(120.00012 -4.7667684e-05 0.00039607954)
(120.00011 1.4607329e-05 0.00038134059)
(120.00012 7.8212417e-05 0.0003715042)
(120.00011 0.00012100492 0.00038101188)
(120.00004 9.0043035e-05 0.00018683608)
(120.00004 0.00010193005 0.0002934111)
(120.00009 0.00014553395 0.00046396227)
(120.0001 0.00020041245 0.00047792909)
(120.00014 0.00019123716 0.00056493298)
(120.0001 0.00013552611 0.00050132829)
(120.0001 0.00010592364 0.00053301945)
(120.00009 8.716993e-05 0.00058935323)
(120.00003 4.9067657e-05 0.00040316654)
(120.00001 4.920056e-05 0.00016933032)
(120.00002 3.3528698e-05 0.00016834021)
(120 1.181438e-05 0.00018996907)
(120.00001 1.6941482e-05 0.0002128301)
(120.00002 -1.0798861e-05 0.00020260365)
(120.00001 -2.8109509e-05 0.00024463596)
(120.00001 -3.6899698e-05 0.00025015372)
(119.99999 -4.5016372e-05 0.00022067914)
(119.99997 -5.126679e-05 0.00015236699)
(119.99998 -0.00014127527 0.00014196527)
(119.99997 -0.00015165948 5.0671952e-05)
(119.99997 -0.00015140563 -5.1086262e-05)
(119.99998 -0.00014067071 -0.00014130933)
(119.99999 -0.00012247247 -0.00020431584)
(120 -0.00010022999 -0.00023357746)
(120.00001 -0.00014508931 -0.00020403103)
(120 -0.00017810911 -0.00017859418)
(119.99999 -0.00020381906 -0.00012309865)
(119.99999 -0.0002187322 -4.4255718e-05)
(119.99999 -0.00021885494 4.423344e-05)
(119.99999 -0.00020405961 0.00012398016)
(120 -0.00017837514 0.00018045195)
(120 -0.00012337175 0.00020597558)
(120.00001 -0.00010104997 0.00023505518)
(120.00001 -7.9232282e-05 0.00022867518)
(120.00002 -6.0628779e-05 0.00020492311)
(120.00002 -8.2868229e-05 0.0001987178)
(120.00001 -0.00011540739 0.00020589215)
(120.00001 -0.00014560739 0.00020780458)
(120.00001 -0.00016649378 0.00017103384)
(120.00001 -0.00020330562 0.0001473517)
(120 -0.00023314257 0.00010169683)
(120 -0.00024975234 3.6151902e-05)
(120 -0.00024974043 -3.5862147e-05)
(120 -0.00023322768 -0.00010074388)
(120.00001 -0.00020366703 -0.00014552291)
(120.00001 -0.00020287804 -0.00011353384)
(120.00001 -0.00023289519 -7.689911e-05)
(120.00001 -0.00025014766 -2.7554221e-05)
(120.00001 -0.00025010414 2.8076395e-05)
(120.00001 -0.00023266755 7.7832601e-05)
(120.00001 -0.00020225814 0.00011499868)
(120.00001 -0.00015789936 0.00012979398)
(120.00001 -0.0001177735 0.00012393138)
(120.00001 -0.00012552377 0.00016510597)
(120.00001 -0.00010208404 0.000170023)
(120.00003 -9.5717784e-05 0.00012172679)
(120.00003 -9.1726633e-05 0.0001238797)
(120.00003 -0.00017431862 0.00025370831)
(120.00006 -0.00025642266 0.00033250515)
(120.00006 -0.00028316542 0.00036558001)
(120.00003 -0.00020037504 0.00024421557)
(120.00006 -0.00034299602 0.00039318463)
(120.00006 -0.00028151667 0.00038366962)
(120.00012 -0.00033515793 0.00042463215)
(120.00021 -0.00057581284 0.0007334618)
(120.00034 -0.00034571674 0.00057167228)
(120.00029 -0.00029174755 0.00065282608)
(120.0003 -0.00031869962 0.00070790926)
(120.0003 -0.00021143892 0.000812297)
(120.00014 -0.00011603816 0.00050588506)
(120.00007 -0.00020550597 0.00061224249)
(120.00014 -0.00015554754 0.00054525889)
(120.00012 -0.0001249162 0.00056049014)
(120.00005 -6.9326504e-05 0.00039741309)
(120.00003 -6.7288706e-05 0.00036596749)
(120.0001 -8.0892432e-05 0.00056528463)
(120.00015 -0.00013679649 0.00062742553)
(120.00008 -0.00010623297 0.00052386558)
(120.00018 -0.0002242986 0.0010334978)
(120.00026 -0.00017223179 0.00075290857)
(120.00028 -7.2993957e-05 0.00073550932)
(120.00028 3.3831489e-05 0.0007326381)
(120.00029 0.00014128461 0.00069891647)
(120.00029 0.00020298411 0.00069546327)
(120.00029 0.00030034316 0.00063713369)
(120.00057 0.00053177689 0.0010802456)
(120.00056 0.000562448 0.0010787164)
(120.00064 0.0006707307 0.0009925976)
(120.00061 0.00079541231 0.00081800911)
(120.00061 0.00082150206 0.00079122129)
(120.00064 0.00099626343 0.00066655415)
(120.00056 0.0010821158 0.00055845716)
(120.00057 0.0010829683 0.00052768754)
(120.0006 0.0012239995 0.00033925492)
(120.00057 0.0012347164 0.0002362452)
(120.00056 0.0012797824 6.4500764e-05)
(120.00056 0.001282521 -0.00010098855)
(120.00055 0.0012815101 -0.0002725567)
(120.00058 0.0013094628 -0.00035500101)
(120.00056 0.0011371888 -0.00053462435)
(120.00056 0.0011140033 -0.0005483416)
(120.00064 0.0010237778 -0.00065215746)
(120.00062 0.0008416489 -0.00077414368)
(120.00063 0.00081481532 -0.00080141457)
(120.00065 0.00069150392 -0.00096533412)
(120.00059 0.00057659499 -0.0010361343)
(120.00061 0.00053822617 -0.0010257337)
(120.00063 0.0003337976 -0.0011657744)
(120.0006 0.00023980578 -0.0011991371)
(120.00059 7.6814863e-05 -0.0012409744)
(120.00059 -6.8855926e-05 -0.0012417467)
(120.0006 -0.00023102095 -0.0012008007)
(120.00064 -0.00032330885 -0.0011683415)
(120.00062 -0.0005252582 -0.0010294288)
(120.00099 -0.00084663193 -0.0016582811)
(120.00097 -0.00091379292 -0.0016643778)
(120.00107 -0.0010981128 -0.001580336)
(120.00103 -0.0012853138 -0.0013261944)
(120.00103 -0.0013240657 -0.0012878001)
(120.00107 -0.0015781018 -0.0011005885)
(120.00097 -0.0016623434 -0.00091621487)
(120.0006 -0.001041075 -0.00056357193)
(120.0003 -0.00058254813 -0.00031029734)
(120.00032 -0.00057946202 -0.00029323792)
(120.00033 -0.00064497989 -0.00017848814)
(120.00032 -0.00068212249 -0.00013047972)
(120.00032 -0.00072103753 -3.6460769e-05)
(120.00032 -0.00072083359 3.9822698e-05)
(120.00032 -0.00068144922 0.00013428397)
(120.00033 -0.00064331976 0.00018330456)
(120.00032 -0.00057727957 0.00029953403)
(120.0003 -0.00057838228 0.00031812167)
(120.00034 -0.00052521395 0.00038325888)
(120.00032 -0.00043266906 0.00044631141)
(120.00031 -0.00041679863 0.00046509272)
(120.00062 -0.00077432728 0.00083901068)
(120.00064 -0.0006521216 0.0010209562)
(120.00056 -0.00054788591 0.0011113919)
(120.00056 -0.00053371406 0.0011348413)
(120.00058 -0.00035371638 0.001306899)
(120.00054 -0.00027058997 0.0012790359)
(120.00055 -9.845659e-05 0.0012801235)
(120.00056 6.7574825e-05 0.0012774637)
(120.00057 0.00023973449 0.0012322589)
(120.00059 0.00034310828 0.001221098)
(120.00097 0.00054824003 0.0019372276)
(120.00094 0.00085210439 0.0017047057)
(120.00092 0.00091775892 0.0017007711)
(120.00103 0.0011029602 0.0016013793)
(120.001 0.0012951237 0.0013349839)
(120.001 0.0013400116 0.0012891923)
(120.00103 0.0016067177 0.0010971366)
(120.00092 0.0017056242 0.00091216881)
(120.00094 0.0017086771 0.0008463862)
(120.00097 0.0019414902 0.00054287716)
(120.00092 0.0019581432 0.00038127891)
(120.0009 0.0020149947 0.0001120862)
(120.0009 0.0020182237 -0.00014182528)
(120.0009 0.0019942156 -0.00041197024)
(120.00095 0.0020038425 -0.00055694115)
(120.00093 0.0017500935 -0.00084916853)
(120.00092 0.0017336741 -0.0009066654)
(120.00103 0.0016321297 -0.0010848419)
(120.00101 0.0013599005 -0.0012720606)
(120.00102 0.0013161877 -0.0013169458)
(120.00105 0.0011228528 -0.0015703293)
(120.00096 0.00093149089 -0.0016573793)
(120.00099 0.00086246942 -0.001654217)
(120.00102 0.00054864969 -0.0018844474)
(120.00096 0.00039148459 -0.0019126479)
(120.00094 0.00012730835 -0.0019653395)
(120.00094 -0.00011743538 -0.0019659108)
(120.00096 -0.00038046144 -0.0019142122)
(120.00102 -0.00053568626 -0.0018871396)
(120.00154 -0.00083244701 -0.0028612559)
(120.00151 -0.0012814176 -0.0025207924)
(120.00147 -0.0013961775 -0.0025092876)
(120.00161 -0.001683321 -0.00239557)
(120.00157 -0.0019573809 -0.0020295317)
(120.00157 -0.002026921 -0.0019603262)
(120.00161 -0.0023928755 -0.0016863328)
(120.00147 -0.0025068035 -0.0013991997)
(120.00151 -0.0025184478 -0.0012845932)
(120.00154 -0.0028592236 -0.00083608369)
(120.00102 -0.0018855031 -0.00053841967)
(120.00064 -0.0011672434 -0.00032518715)
(120.0006 -0.0011993405 -0.00023275558)
(120.00059 -0.0012404988 -7.0600644e-05)
(120.00059 -0.0012407841 7.4875787e-05)
(120.0006 -0.0011990209 0.00023755862)
(120.00063 -0.0011654844 0.00033127109)
(120.00061 -0.0010257051 0.0005353665)
(120.00059 -0.0010362645 0.00057370136)
(120.00065 -0.00096556744 0.00068849546)
(120.00062 -0.00080149982 0.00081174974)
(120.00101 -0.0013170075 0.0013116752)
(120.00101 -0.0012721681 0.0013559655)
(120.00103 -0.0010846635 0.001627961)
(120.00092 -0.00090592574 0.0017298647)
(120.00093 -0.00084784713 0.0017467006)
(120.00095 -0.00055513955 0.0020001929)
(120.00089 -0.00040926928 0.0019906746)
(120.00089 -0.00013834959 0.0020147506)
(120.0009 0.00011630641 0.002011542)
(120.00092 0.00038608806 0.0019545112)
(120.00139 0.0005934813 0.0029300704)
(120.00148 0.00084112032 0.0029063878)
(120.00144 0.0012881693 0.0025624475)
(120.00141 0.0014035612 0.0025432258)
(120.00156 0.0016922084 0.002417623)
(120.00152 0.0019705201 0.0020394691)
(120.00152 0.0020463898 0.0019624982)
(120.00156 0.0024249589 0.0016843677)
(120.00141 0.0025498564 0.0013960389)
(120.00145 0.0025679773 0.0012804963)
(120.00148 0.0029122852 0.00083394837)
(120.0014 0.0029351529 0.00058710223)
(120.00137 0.0030090055 0.00017872135)
(120.00136 0.0030125177 -0.00020403852)
(120.00138 0.002962712 -0.00061265346)
(120.00146 0.0029572273 -0.0008469478)
(120.00144 0.0025994222 -0.0012835671)
(120.00141 0.0025735949 -0.0013934358)
(120.00157 0.002447134 -0.001673813)
(120.00154 0.002064405 -0.0019464001)
(120.00154 0.0019903765 -0.0020208703)
(120.0016 0.0017101231 -0.0023860549)
(120.00146 0.0014158269 -0.0025024684)
(120.0015 0.0012991299 -0.0025169163)
(120.00154 0.00084696932 -0.0028589286)
(120.00145 0.00060129233 -0.0028875848)
(120.00142 0.00019535922 -0.0029586301)
(120.00143 -0.00018414457 -0.0029590773)
(120.00146 -0.00058885058 -0.0028889949)
(120.00214 -0.00087374916 -0.0042037913)
(120.00227 -0.0012363629 -0.004167373)
(120.00223 -0.0018655205 -0.003682898)
(120.00217 -0.0020457216 -0.0036419167)
(120.00237 -0.0024664398 -0.003481394)
(120.00231 -0.0028536802 -0.0029709078)
(120.00231 -0.0029679376 -0.0028569688)
(120.00237 -0.0034783216 -0.0024698577)
(120.00217 -0.0036390028 -0.0020492281)
(120.00223 -0.0036800991 -0.0018693839)
(120.00227 -0.0041648421 -0.0012409254)
(120.00214 -0.0042015897 -0.00087883417)
(120.00146 -0.0028872034 -0.00059272447)
(120.00096 -0.0019126175 -0.00038322328)
(120.00094 -0.0019645695 -0.00012017421)
(120.00094 -0.0019646421 0.00012427415)
(120.00096 -0.0019121312 0.00038784219)
(120.00102 -0.0018840831 0.00054472154)
(120.00099 -0.0016543138 0.00085818014)
(120.00096 -0.0016575182 0.00092726284)
(120.00105 -0.0015706142 0.0011183974)
(120.00159 -0.0023863467 0.0017038736)
(120.00154 -0.0020208772 0.0019840816)
(120.00153 -0.001946435 0.0020588614)
(120.00156 -0.0016734965 0.0024413056)
(120.00141 -0.0013924072 0.0025682749)
(120.00143 -0.0012818002 0.0025946878)
(120.00146 -0.00084457035 0.0029521862)
(120.00137 -0.00060912866 0.002957825)
(120.00136 -0.00019948272 0.0030076877)
(120.00136 0.00018429289 0.0030041573)
(120.00202 0.00027741911 0.0043432695)
(120.00207 0.00087820864 0.0042421586)
(120.00219 0.0012437419 0.0042071954)
(120.00215 0.0018741585 0.0037204037)
(120.0021 0.0020562485 0.0036726089)
(120.00231 0.0024793441 0.0035028682)
(120.00225 0.0028704975 0.0029814384)
(120.00225 0.0029906701 0.0028599148)
(120.00231 0.0035126259 0.002469017)
(120.00211 0.0036814181 0.0020463689)
(120.00216 0.0037278412 0.0018641242)
(120.0022 0.0042150917 0.0012343856)
(120.00208 0.0042490061 0.00086994578)
(120.00203 0.0043498291 0.00027026354)
(120.00202 0.0043532292 -0.00029382772)
(120.00206 0.0042697963 -0.00089287909)
(120.00218 0.0042469445 -0.0012477632)
(120.00215 0.0037513661 -0.0018685762)
(120.00211 0.0037006209 -0.0020456889)
(120.00232 0.0035308502 -0.0024602169)
(120.00227 0.0030059609 -0.0028455674)
(120.00228 0.0028873319 -0.002963148)
(120.00235 0.0024941939 -0.0034732102)
(120.00216 0.002066483 -0.0036359238)
(120.00222 0.0018841371 -0.0036797442)
(120.00226 0.0012514147 -0.0041657425)
(120.00214 0.00088663287 -0.0042026604)
(120.0021 0.00028772044 -0.0043018612)
(120.0021 -0.00027615939 -0.0043021822)
(120.00301 -0.00040022442 -0.0060654598)
(120.00308 -0.0012527727 -0.0059250339)
(120.00325 -0.0017698369 -0.0058731827)
(120.0032 -0.0026262349 -0.0052046735)
(120.00313 -0.0028940188 -0.0051138009)
(120.00338 -0.0034853496 -0.0048893955)
(120.00331 -0.004015475 -0.0041953885)
(120.00331 -0.0041922066 -0.0040189177)
(120.00339 -0.0048860278 -0.0034889497)
(120.00313 -0.0051105122 -0.0028978064)
(120.0032 -0.0052013962 -0.002630666)
(120.00325 -0.0058699107 -0.0017752429)
(120.00308 -0.0059220958 -0.0012590353)
(120.00301 -0.0060627634 -0.00040772208)
(120.0021 -0.004300223 -0.00028199624)
(120.00143 -0.0029575168 -0.00018836071)
(120.00142 -0.0029575042 0.0001906848)
(120.00145 -0.0028866372 0.00059592146)
(120.00153 -0.0028583554 0.00084122098)
(120.0015 -0.0025169081 0.001293053)
(120.00145 -0.0025025792 0.0014098875)
(120.00215 -0.0036359585 0.0020583444)
(120.00234 -0.0034735127 0.0024856948)
(120.00227 -0.002963078 0.0028787489)
(120.00226 -0.0028455705 0.0029983814)
(120.00231 -0.0024597813 0.0035229239)
(120.0021 -0.0020443979 0.0036933978)
(120.00215 -0.0018663601 0.0037449305)
(120.00217 -0.0012447703 0.0042401465)
(120.00205 -0.00088842142 0.0042632174)
(120.00201 -0.0002880272 0.0043467241)
(120.00292 -0.00040947707 0.0061055923)
(120.00293 0.0004019204 0.0061025519)
(120.00299 0.0012570184 0.0059603285)
(120.00316 0.0017770618 0.0059088507)
(120.00312 0.0026367106 0.0052391304)
(120.00305 0.0029073078 0.0051418461)
(120.00331 0.0035020019 0.0049099404)
(120.00324 0.0040360558 0.0042062156)
(120.00324 0.0042182705 0.0040223133)
(120.00331 0.0049226653 0.0034886005)
(120.00306 0.0051533361 0.0028945304)
(120.00312 0.005248897 0.0026237773)
(120.00317 0.005919186 0.0017650493)
(120.003 0.0059693406 0.0012464822)
(120.00294 0.0061112113 0.00039287572)
(120.00293 0.0061141982 -0.00041671387)
(120.00299 0.0059846653 -0.0012689689)
(120.00316 0.0059410868 -0.0017799922)
(120.00312 0.0052657817 -0.0026304024)
(120.00306 0.0051678863 -0.0028959445)
(120.00333 0.0049363689 -0.0034819887)
(120.00327 0.0042302432 -0.0040103252)
(120.00327 0.0040489267 -0.0041890607)
(120.00336 0.0035132737 -0.0048832963)
(120.00311 0.0029151338 -0.0051092542)
(120.00319 0.0026448182 -0.0052027755)
(120.00324 0.0017843301 -0.0058726391)
(120.00307 0.0012649253 -0.0059243354)
(120.00301 0.00041092412 -0.0060653297)
(120.00421 0.0005701066 -0.0082973016)
(120.00421 -0.00056165842 -0.0082972626)
(120.0043 -0.0017391858 -0.0080960904)
(120.00451 -0.0024502007 -0.0080208383)
(120.00446 -0.0035742049 -0.0071271547)
(120.00438 -0.0039594992 -0.0069512165)
(120.00468 -0.004762372 -0.0066456135)
(120.00459 -0.0054621946 -0.005730701)
(120.00459 -0.0057275247 -0.0054655299)
(120.00468 -0.0066420683 -0.004765887)
(120.00438 -0.0069475473 -0.0039632424)
(120.00446 -0.007123338 -0.0035789185)
(120.00451 -0.0080165311 -0.0024562748)
(120.00431 -0.008091917 -0.0017465113)
(120.00422 -0.0082933033 -0.00057087377)
(120.00421 -0.0082936381 0.00055899493)
(120.00301 -0.0060629158 0.00040220395)
(120.0021 -0.0043002331 0.00028112022)
(120.00214 -0.0042012022 0.00087918349)
(120.00226 -0.0041649048 0.0012434497)
(120.00221 -0.0036794994 0.0018757214)
(120.00318 -0.0052020952 0.0026333525)
(120.0031 -0.0051091444 0.0029041951)
(120.00335 -0.0048835914 0.003501885)
(120.00327 -0.0041889214 0.0040373668)
(120.00326 -0.0040103507 0.0042200416)
(120.00332 -0.0034814957 0.0049257253)
(120.00305 -0.0028944335 0.0051581801)
(120.00311 -0.0026277284 0.0052571642)
(120.00315 -0.001776334 0.0059320246)
(120.00298 -0.0012634657 0.0059759693)
(120.0042 -0.0017470202 0.0081400331)
(120.00411 -0.00056860494 0.0083334771)
(120.00412 0.00056301625 0.0083310012)
(120.00421 0.0017430595 0.008128905)
(120.00442 0.0024577049 0.0080536488)
(120.00437 0.003586507 0.0071595466)
(120.00429 0.0039754366 0.0069773585)
(120.00459 0.0047826672 0.0066653664)
(120.00451 0.0054866716 0.0057416886)
(120.00451 0.0057572104 0.0054690145)
(120.0046 0.0066817405 0.0047654378)
(120.00429 0.0069921398 0.0039590498)
(120.00438 0.0071721381 0.0035699568)
(120.00443 0.0080669461 0.0024423949)
(120.00422 0.008140537 0.0017297454)
(120.00414 0.0083422372 0.00055169725)
(120.00413 0.0083446576 -0.00057754023)
(120.00422 0.0081514061 -0.0017536814)
(120.00442 0.0080810616 -0.0024601611)
(120.00438 0.0071835368 -0.003579748)
(120.0043 0.0070022255 -0.0039631627)
(120.00462 0.0066906937 -0.0047616624)
(120.00454 0.0057654598 -0.0054600435)
(120.00455 0.0054950837 -0.0057265378)
(120.00465 0.0047899716 -0.0066422864)
(120.00435 0.0039802661 -0.0069487503)
(120.00444 0.0035918317 -0.0071270721)
(120.0045 0.0024630047 -0.0080218389)
(120.0043 0.0017493633 -0.0080960999)
(120.00581 0.0023320928 -0.010676284)
(120.00571 0.00076397597 -0.010955921)
(120.00572 -0.00075906033 -0.010955469)
(120.00582 -0.0023250726 -0.010675093)
(120.00604 -0.0032700311 -0.010573765)
(120.00599 -0.0046760619 -0.0094281521)
(120.0059 -0.0052203592 -0.0091095977)
(120.00621 -0.006274745 -0.0087114614)
(120.00612 -0.0071585135 -0.0075549546)
(120.00612 -0.0075519319 -0.0071613914)
(120.00621 -0.0087077785 -0.0062777346)
(120.00591 -0.0091055336 -0.0052235607)
(120.006 -0.0094235683 -0.0046805787)
(120.00605 -0.010567934 -0.003276468)
(120.00583 -0.010669011 -0.0023332568)
(120.00572 -0.01094929 -0.000770129)
(120.00571 -0.010950071 0.00074998277)
(120.00581 -0.010671285 0.0023153682)
(120.0043 -0.0080930112 0.0017364628)
(120.00307 -0.005922258 0.0012550169)
(120.00323 -0.0058714405 0.0017736412)
(120.0045 -0.0080199706 0.0024489264)
(120.00444 -0.0071256976 0.0035764157)
(120.00434 -0.006948299 0.003965653)
(120.00464 -0.0066425054 0.0047748136)
(120.00454 -0.0057263085 0.0054796187)
(120.00453 -0.0054601295 0.0057518236)
(120.0046 -0.0047611493 0.0066764973)
(120.00429 -0.0039615162 0.0069892991)
(120.00436 -0.0035766634 0.007172126)
(120.00441 -0.0024558403 0.0080691523)
(120.00593 -0.00327531 0.010613935)
(120.00571 -0.0023306718 0.010713359)
(120.00561 -0.00076372181 0.010988344)
(120.00561 0.00075938895 0.010986622)
(120.00572 0.0023283573 0.01070613)
(120.00594 0.0032779582 0.010604867)
(120.00589 0.0046902094 0.0094592848)
(120.0058 0.0052390516 0.0091345351)
(120.00612 0.0062988918 0.0087307552)
(120.00603 0.0071873642 0.0075660759)
(120.00604 0.007585917 0.0071647889)
(120.00612 0.0087516271 0.00627688)
(120.00581 0.0091533584 0.005218105)
(120.0059 0.0094753017 0.0046690632)
(120.00596 0.010621726 0.0032585257)
(120.00574 0.010720898 0.0023115749)
(120.00563 0.011000933 0.00074529077)
(120.00563 0.01100268 -0.00077466127)