/*--------------------------------*- C++ -*----------------------------------*\
  =========                 |
  \\      /  F ield         | OpenFOAM: The Open Source CFD Toolbox
   \\    /   O peration     | Website:  https://openfoam.org
    \\  /    A nd           | Version:  7
     \\/     M anipulation  |
\*---------------------------------------------------------------------------*/
FoamFile
{
    version     2.0;
    format      ascii;
    class       volScalarField;
    location    "240";
    object      alphat;
}
// * * * * * * * * * * * * * * * * * * * * * * * * * * * * * * * * * * * * * //

dimensions      [1 -1 -1 0 0 0 0];

internalField   nonuniform List<scalar> 
25201
(
8.0040491
8.0002128
8.0040705
8.0002538
7.9276046
7.978985
7.9842382
8.0245429
8.0208561
7.9806502
8.0208313
7.9789611
7.9545665
7.499678
7.3874475
7.8684151
7.7956539
7.7285123
7.7011541
7.4836078
7.6394343
7.6362457
7.7012923
7.5957242
7.5898622
7.4399042
7.5309172
7.7200292
7.6606814
7.4587037
7.5081197
7.5726588
7.1953749
7.2745307
7.3732493
7.3854279
7.5648255
7.4979487
7.2888507
7.2083825
7.4459019
7.4165967
7.4298485
7.1525895
7.1666569
7.2023349
7.4279769
7.7067299
7.9109653
7.9545732
8.0008386
7.9627077
7.8404962
7.8997474
7.9521947
7.9224428
7.8981816
7.8321113
7.8632638
7.6605451
7.6872747
7.7717294
7.7997755
7.8484251
7.8759718
7.9773055
7.926135
7.7488407
7.7037412
7.5280631
7.4811782
7.5358443
7.7612698
7.7997849
7.7477463
7.3544986
7.4105436
7.4846236
7.511714
7.5722049
7.6512961
7.7122426
7.6197361
7.6261477
7.5562204
7.6397102
7.5261335
7.4976227
7.3910477
7.4504402
7.3680871
7.3188366
7.3136938
7.3262344
7.3187375
7.386419
7.3891909
7.3226175
7.1950239
7.281855
7.2813281
7.2007028
7.2110424
7.2925021
7.2922404
7.2265472
7.0709064
7.1693307
7.224263
7.2194376
7.1559759
7.1594049
7.0543563
7.0469567
6.878287
7.0065411
7.0079471
6.8873064
6.8984044
7.0627997
7.1677123
7.0231056
7.0260954
6.9089996
6.723651
6.8778721
6.9872349
7.2252092
7.4519862
7.290954
7.2106407
7.1691047
7.2037785
7.241727
7.3239376
7.4120129
7.5271219
7.6209045
7.772106
7.8984517
7.9224889
7.7998006
7.6606637
7.6875906
7.8325781
7.8633683
7.8997694
7.9521881
8.0008042
7.977297
7.8759581
7.8483692
7.7038197
7.7488149
7.926121
7.8698472
7.9626954
7.9109957
7.7618445
7.7999526
7.4813961
7.5363252
7.6401188
7.6524699
7.7132659
7.5734977
7.513081
7.4851698
7.3577225
7.4313405
7.5566164
7.6265166
7.4990544
7.5805424
7.6294409
7.5256424
7.4987979
7.4812153
7.2634048
7.2818195
7.0729146
7.1416065
7.1711446
7.0703737
7.0594868
6.9474624
7.0451843
7.0443367
6.9242293
6.7396861
6.8966309
7.0209379
7.2637953
7.4819858
7.3196673
7.3696354
7.3932138
6.9005931
7.025017
7.1697614
7.2946351
7.2937452
7.2281472
7.3153705
7.3285443
7.2132383
7.0650405
7.072402
7.1706285
7.0271925
6.9103623
6.7246907
6.8785995
6.8717689
6.8567397
6.9709409
8.0001613
8.0038918
7.9080543
7.7201482
7.6606972
7.4298719
7.27463
7.5082055
7.4587874
7.4459453
7.4166046
7.1666344
7.15257
7.1953131
7.2084047
7.2889246
7.4980122
7.5649326
7.5728238
7.3733431
7.385543
7.4978016
7.6364638
7.7957975
0.0013617154
0.0068670947
0.016696468
0.02872054
0.3776851
0.38511031
0.029744982
0.017264041
0.007094966
0.0013997661
0.0014182647
0.0072861685
0.017740995
0.030539272
0.39344214
0.39836417
0.030815399
0.017914023
0.007360576
0.0014272306
0.0014302092
0.0073864143
0.017970851
0.03089217
0.40141661
0.40333586
0.030902912
0.017985895
0.0073951236
0.0014315355
0.0014325237
0.0074043574
0.018006197
0.030927868
0.40469363
0.40576128
0.030961146
0.018028505
0.0074138373
0.0014334222
0.0014344156
0.0074261943
0.018059765
0.031011742
0.40667235
0.40750195
0.031059327
0.018088123
0.0074373805
0.0014352916
0.0014362436
0.007450244
0.018121479
0.031115462
0.40827556
0.40901611
0.031162552
0.018149158
0.0074610829
0.0014370486
0.0014379336
0.0074734321
0.018181317
0.031217001
0.40972522
0.4104067
0.031261172
0.018207242
0.0074835956
0.0014386712
0.0014395003
0.0074953381
0.018237751
0.031312721
0.41105793
0.41168804
0.031354633
0.018262393
0.0075050323
0.0014401929
0.001440988
0.0075164356
0.018291957
0.031404451
0.41229843
0.41289885
0.031445712
0.018316166
0.0075259502
0.0014416573
0.0014424333
0.007537172
0.018345181
0.031494523
0.41348287
0.41405603
0.031535864
0.018369361
0.0075466636
0.0014430945
0.0014438662
0.0075578278
0.018398019
0.031583801
0.41461538
0.41516842
0.031625577
0.018422618
0.0075675543
0.0014445378
0.0014453293
0.0075791865
0.018452362
0.031675227
0.41572673
0.4162912
0.031719233
0.018478317
0.007589479
0.0014460275
0.0014468557
0.0076018278
0.018509805
0.031771735
0.41686217
0.41744588
0.03181939
0.018538005
0.0076130415
0.0014476043
0.0014484955
0.0076264479
0.018572066
0.031876099
0.41804088
0.41865347
0.031929458
0.018603679
0.0076390157
0.0014493321
0.0014503259
0.0076538585
0.018641177
0.031991579
0.41928992
0.41995867
0.032054538
0.018678398
0.0076685006
0.0014512868
0.0014523428
0.0076846146
0.018718374
0.032120123
0.42066043
0.42136381
0.032188544
0.018758625
0.0077005572
0.0014533714
0.47271699
0.029046783
0.017085367
0.0070884184
0.0013929812
0.0013921001
0.0070747032
0.017050979
0.028989194
0.47194372
0.47114468
0.028926591
0.017013213
0.0070595224
0.0013911517
0.0013902478
0.0070451557
0.016976716
0.028866002
0.47036323
0.46962147
0.028808352
0.016941723
0.0070311996
0.001389325
0.0013885221
0.0070189628
0.016910556
0.028756364
0.46892767
0.46826096
0.028705642
0.016879786
0.0070066506
0.0013877004
0.0013869812
0.0069958205
0.016852126
0.028659451
0.46761728
0.46699064
0.028613633
0.016824384
0.0069847484
0.001386226
0.001385566
0.0069750711
0.016799526
0.028571939
0.46638045
0.46577014
0.028530026
0.016774216
0.006964985
0.0013848605
0.0013842324
0.0069558588
0.016750639
0.028490284
0.46514897
0.46451083
0.028448714
0.01672561
0.0069459321
0.0013835383
0.0013829121
0.0069368779
0.016702103
0.028409009
0.46386344
0.4631925
0.028367338
0.016677062
0.0069269782
0.0013822129
0.0013815745
0.0069178197
0.016653158
0.028326785
0.46250826
0.46184006
0.028286939
0.016628962
0.0069081713
0.0013808762
0.0013802251
0.0068989372
0.016604737
0.028245626
0.46113017
0.46038727
0.0282024
0.01657878
0.0068887035
0.0013794862
0.0013787819
0.0068788115
0.016552784
0.028158052
0.45959244
0.45876398
0.02811068
0.016524451
0.0068677028
0.0013779744
0.0013771982
0.0068571015
0.016496769
0.028063823
0.4579079
0.45700922
0.028014578
0.016467145
0.0068454461
0.001376322
0.0013754791
0.0068345711
0.016439071
0.027967846
0.45606378
0.45503066
0.027923366
0.016411216
0.0068233212
0.0013745576
0.0013736807
0.0068139631
0.01638853
0.027889244
0.45384662
0.45241407
0.027869262
0.016371148
0.0068055995
0.0013727339
0.0013713994
0.006796849
0.016354603
0.027854546
0.450424
0.44733788
0.027788566
0.016303951
0.0067728188
0.0013683666
0.0013602559
0.0067068706
0.016148706
0.027544122
0.4423498
0.43494558
0.026962427
0.015800746
0.0065634953
0.001343004
0.0013174432
0.0063365188
0.015259965
0.026047524
0.42608992
0.40037989
0.023386375
0.01355194
0.0056276543
0.0012663751
0.0013157452
0.0063489293
0.015291047
0.026091721
0.42684691
0.43568988
0.026994526
0.015821498
0.0065719544
0.0013420243
0.0013598614
0.0067153766
0.016169284
0.027576188
0.44293129
0.44775492
0.027809517
0.016317512
0.0067786757
0.0013681057
0.0013712608
0.006801599
0.016366191
0.02787294
0.4507645
0.45269008
0.027880049
0.016378143
0.0068087063
0.0013726195
0.0013736127
0.0068167826
0.016395702
0.027901078
0.4540909
0.45521925
0.027929781
0.016415048
0.0068249757
0.0013744766
0.0013754089
0.0068358847
0.016442615
0.027974023
0.4562111
0.45712152
0.028015781
0.016467747
0.0068458089
0.0013762288
0.0013771154
0.0068573966
0.016497792
0.028065956
0.4579789
0.45880268
0.028108086
0.016522785
0.006867189
0.0013778691
0.0013786939
0.0068784218
0.016551976
0.028157031
0.45959698
0.46036739
0.02819722
0.016575789
0.0068877614
0.0013793892
0.0013801654
0.0068985896
0.01660392
0.028244379
0.46111121
0.46183225
0.0282828
0.016626689
0.0069075358
0.0013808174
0.0013815583
0.0069180475
0.01665394
0.028328415
0.46253132
0.46321182
0.028365737
0.016676084
0.0069267712
0.0013821828
0.0013829051
0.0069371713
0.01670299
0.02841069
0.46387675
0.46452866
0.028447944
0.016725104
0.0069458965
0.0013835177
0.0013842319
0.0069563399
0.016752028
0.028492798
0.46516651
0.46579433
0.028530954
0.01677459
0.0069652387
0.0013848436
0.00138556
0.0069757583
0.016801496
0.028575528
0.46641955
0.4670407
0.02861466
0.016824857
0.0069850522
0.0013861987
0.0013869676
0.0069964765
0.016854043
0.028663004
0.46767718
0.46833488
0.028706687
0.016880226
0.007006919
0.0013876712
0.0013885122
0.0070195533
0.016912284
0.028759613
0.4690161
0.46972793
0.028809524
0.016942203
0.0070314852
0.0013893117
0.0013902656
0.0070457443
0.016978202
0.028868633
0.47047611
0.47126809
0.02892776
0.017014136
0.0070601807
0.0013912014
0.001392259
0.0070768345
0.017055579
0.028995317
0.47208378
0.47293798
0.029062205
0.017095704
0.0070926875
0.0013932734
0.001394278
0.0071079976
0.017133976
0.029126008
0.47384889
0.0014435983
0.0075956956
0.018460013
0.031618926
0.42182292
0.42099484
0.031546428
0.018417384
0.0075788149
0.0014425074
0.0014413829
0.0075611314
0.018372787
0.031471782
0.42018965
0.4194262
0.031401022
0.018330006
0.0075439418
0.0014402599
0.0014392466
0.0075284338
0.018290875
0.031335838
0.41871214
0.41803915
0.031273284
0.018253121
0.0075133163
0.0014382237
0.0014373317
0.0075000473
0.018219447
0.031216854
0.41740592
0.41679436
0.031161737
0.018186239
0.0074867451
0.0014364224
0.0014356293
0.0074750118
0.018156251
0.0311112
0.41620522
0.41566039
0.031063474
0.018127358
0.007463394
0.0014348194
0.0014341101
0.0074529076
0.018100292
0.031017471
0.4151045
0.41454729
0.030971008
0.018072454
0.0074418401
0.0014333472
0.0014326727
0.0074318827
0.018046691
0.03092723
0.41398888
0.41341524
0.03088164
0.018019475
0.0074211106
0.0014319264
0.0014312578
0.0074113511
0.017994126
0.030838501
0.41284545
0.41226372
0.030793866
0.017967459
0.0074007954
0.0014305139
0.0014298376
0.007391057
0.017942061
0.03075051
0.41167009
0.41105266
0.030704738
0.017914809
0.0073803162
0.0014290723
0.0014283664
0.0073703263
0.017888728
0.03066021
0.41042632
0.40976929
0.030612819
0.017860556
0.0073592511
0.0014275646
0.0014268132
0.0073488449
0.017833358
0.030566355
0.40909986
0.40839557
0.030516778
0.017803922
0.0073372997
0.0014259588
0.0014251458
0.0073264064
0.017775468
0.030468254
0.40767818
0.40692238
0.030417726
0.017745306
0.0073145433
0.0014242297
0.0014233539
0.0073035809
0.017716896
0.030369952
0.406125
0.40524748
0.030325677
0.017689288
0.0072924306
0.0014223976
0.0014215059
0.0072836562
0.017668165
0.030294319
0.4042316
0.40297337
0.030280612
0.017654062
0.0072764874
0.0014205557
0.0014191912
0.0072692496
0.017641814
0.030274465
0.4011844
0.39831819
0.030205676
0.017589183
0.0072445939
0.0014158137
0.0014064291
0.0071751743
0.017422616
0.029937054
0.39376871
0.3872448
0.029286266
0.017043307
0.0070231479
0.0013861497
0.0013534184
0.0068076765
0.016504937
0.028326397
0.37999836
0.37896862
0.028777791
0.016754182
0.0069033867
0.0013570964
0.0013999787
0.0070842175
0.017232134
0.029699283
0.38482248
0.39355557
0.030550969
0.017748845
0.0072894348
0.0014181499
0.0014273479
0.0073629687
0.017919343
0.030823473
0.39836435
0.40143062
0.030893294
0.017971776
0.0073870147
0.0014301373
0.0014315432
0.0073966048
0.017989561
0.030908302
0.40333918
0.40469606
0.030925371
0.018004718
0.007403915
0.0014324111
0.0014334118
0.0074147249
0.018030784
0.030964337
0.40575815
0.40665949
0.031007565
0.018057307
0.0074253644
0.0014343029
0.0014352868
0.007438089
0.018090051
0.031062017
0.40748083
0.40824664
0.031110547
0.018118465
0.0074491579
0.0014361286
0.0014370396
0.0074615051
0.018150408
0.03116419
0.40897323
0.40967334
0.031210613
0.018177445
0.0074720275
0.0014378123
0.0014386619
0.0074838518
0.018208073
0.031262143
0.4103512
0.4109979
0.031305412
0.018233403
0.0074937725
0.0014393794
0.0014401914
0.0075052712
0.018263159
0.031355454
0.41162761
0.41223457
0.031397446
0.018287775
0.0075149319
0.0014408775
0.001441666
0.0075262589
0.018317022
0.031446544
0.4128353
0.4134204
0.031488623
0.018341581
0.0075358786
0.0014423366
0.0014431145
0.0075471434
0.01837055
0.031537087
0.41400016
0.41456864
0.031579309
0.018395316
0.007556892
0.0014437873
0.0014445798
0.0075684914
0.018425132
0.031629276
0.41513594
0.41569488
0.031673302
0.018450916
0.0075786503
0.0014452762
0.0014460995
0.007590656
0.018481534
0.031724322
0.41625443
0.41681643
0.031770918
0.018508987
0.0076015483
0.0014468487
0.0014477405
0.0076145543
0.018541985
0.03182578
0.41739478
0.41799715
0.031876987
0.018572436
0.007626731
0.0014485749
0.0014495627
0.0076413684
0.018609513
0.031938656
0.41863768
0.41931737
0.031997117
0.018644294
0.0076552508
0.0014504935
0.0014515729
0.0076715676
0.018685507
0.03206549
0.42004106
0.42079558
0.032134021
0.018726069
0.0076875577
0.0014526069
0.0014537384
0.0077049199
0.018769271
0.032205152
0.42158112
0.42237389
0.032279773
0.018813276
0.0077223719
0.001454854
0.0014435573
0.0075951827
0.018458616
0.031616402
0.42179524
0.42100383
0.031545721
0.018416816
0.0075785359
0.0014424698
0.0014413494
0.007560979
0.018372543
0.031471575
0.42021129
0.41945648
0.031401094
0.01832993
0.0075438543
0.0014402308
0.0014392214
0.0075283715
0.018290812
0.031335817
0.41873458
0.41805692
0.031272528
0.018252659
0.0075131273
0.0014381972
0.0014373088
0.0074998511
0.018218991
0.031216117
0.41741396
0.41680345
0.031160574
0.018185537
0.0074864698
0.0014364005
0.0014356171
0.0074748604
0.018155966
0.031110897
0.41621721
0.415649
0.031060849
0.018125918
0.0074628876
0.0014347952
0.0014340871
0.0074524712
0.018099194
0.031015705
0.41508843
0.41453413
0.030969088
0.018071286
0.0074413857
0.0014333237
0.0014326542
0.0074315568
0.018045926
0.030926074
0.41397669
0.41341395
0.030881053
0.018019
0.0074208882
0.0014319131
0.0014312534
0.0074113036
0.017994123
0.030838682
0.41285052
0.4122881
0.030795132
0.017968004
0.0074009407
0.0014305207
0.0014298566
0.0073913863
0.017943054
0.030752415
0.41169744
0.41108829
0.030706985
0.017915966
0.0073807128
0.001429098
0.0014284015
0.0073708699
0.01789023
0.030662931
0.41046307
0.40982116
0.030616738
0.017862651
0.0073599953
0.0014276123
0.0014268693
0.0073496727
0.01783556
0.030570182
0.40914616
0.40844169
0.030521152
0.017806341
0.007338193
0.0014260208
0.0014252124
0.0073273309
0.017777889
0.030472398
0.40772474
0.40695978
0.030421175
0.017747308
0.0073153279
0.0014242925
0.0014234132
0.0073042782
0.01771865
0.030372853
0.40615028
0.40526158
0.030327482
0.017690397
0.0072928982
0.0014224456
0.0014215508
0.0072841434
0.017669394
0.030296409
0.40425102
0.40298783
0.030281584
0.017654675
0.0072767602
0.0014205864
0.0014192113
0.0072696661
0.017642805
0.030276038
0.40120652
0.3983584
0.030207324
0.017590221
0.0072450089
0.0014158204
0.0014063328
0.0071748405
0.017422018
0.029935946
0.39380732
0.38731975
0.029283023
0.017041901
0.0070226364
0.0013860281
0.0013525402
0.0068040153
0.016497696
0.028313481
0.38020712
0.42796874
0.026145683
0.015347975
0.0063813195
0.00131135
0.0013420564
0.0065673988
0.015804177
0.026967012
0.43544928
0.4430288
0.027582388
0.01617304
0.0067167746
0.0013598889
0.0013684289
0.0067813159
0.016323663
0.02781931
0.44784781
0.45082762
0.027875215
0.016367273
0.0068020666
0.0013713735
0.0013727846
0.0068102293
0.016382196
0.027886691
0.45272711
0.45411372
0.0279009
0.016395328
0.0068166721
0.001373658
0.0013746089
0.0068263116
0.016418548
0.027935298
0.45524762
0.45624024
0.027973759
0.016442454
0.0068359394
0.0013754527
0.0013763774
0.0068476567
0.0164726
0.028023517
0.45716104
0.45803297
0.028067897
0.016498797
0.0068578495
0.001377168
0.0013780155
0.006869193
0.016528127
0.028116785
0.45886871
0.4596679
0.028159207
0.016553032
0.0068788682
0.0013787358
0.0013795195
0.0068896563
0.0165809
0.028205599
0.460434
0.46117305
0.028245839
0.016604472
0.0068988142
0.0013801841
0.00138092
0.0069091126
0.016631017
0.028289932
0.46188748
0.46257901
0.028328278
0.016653515
0.0069178824
0.0013815463
0.0013822532
0.0069279405
0.016679392
0.028371206
0.46324758
0.46389927
0.028408546
0.016701344
0.0069365258
0.0013828574
0.0013835538
0.0069465668
0.016727145
0.028451384
0.46454546
0.46517387
0.028487952
0.016748894
0.0069551725
0.0013841554
0.0013848692
0.0069656221
0.016775741
0.028532616
0.4657984
0.46641987
0.028570595
0.016798377
0.0069746171
0.0013854942
0.0013862482
0.0069856103
0.016826554
0.028617425
0.46704728
0.46768747
0.028658956
0.016851411
0.0069955156
0.0013869354
0.0013877584
0.0070076749
0.016882413
0.028710327
0.46834758
0.46902837
0.028756988
0.016910416
0.0070188642
0.0013885193
0.0013894209
0.0070323141
0.016944502
0.028813255
0.46973527
0.47046902
0.028866633
0.016976627
0.0070451127
0.0013902767
0.0013912669
0.0070604963
0.017015252
0.028929628
0.47123551
0.47201619
0.028992566
0.017052817
0.0070754104
0.001392191
0.0013931684
0.0070901755
0.017088972
0.029050776
0.47282779
0.47368051
0.029117997
0.017128957
0.007106031
0.0013941962
0.42226756
0.032269881
0.018807672
0.0077202526
0.001454724
0.0014535892
0.0077028948
0.018764145
0.03219659
0.42146946
0.42074023
0.032129168
0.018723289
0.0076863675
0.0014524924
0.0014514602
0.0076702446
0.018682279
0.032060029
0.41999333
0.41927846
0.031994577
0.018642849
0.0076544786
0.0014504027
0.0014494587
0.00764034
0.018606715
0.031933456
0.41862968
0.41799967
0.031875465
0.01857176
0.007626314
0.0014484983
0.0014476533
0.0076137573
0.01853961
0.031821009
0.41740521
0.41682089
0.031768923
0.018508216
0.0076011677
0.0014467841
0.001446022
0.0075898694
0.018479152
0.031719581
0.41626576
0.41571041
0.031672602
0.018450791
0.0075784896
0.0014452314
0.001444537
0.0075681317
0.018423946
0.031626793
0.41517017
0.41461355
0.031582405
0.018397176
0.0075574193
0.0014437939
0.0014431287
0.0075475264
0.018371364
0.031538163
0.41406505
0.41348859
0.031493942
0.018344827
0.0075369695
0.0014423924
0.0014417207
0.0075270872
0.018318937
0.031449459
0.41290988
0.41230152
0.03140372
0.018291618
0.0075162802
0.0014409609
0.0014402616
0.0075061943
0.018265223
0.031358477
0.4116912
0.41105248
0.031311632
0.018237277
0.0074951532
0.0014394717
0.0014387346
0.0074847342
0.018210005
0.031264897
0.41040709
0.40972506
0.031216055
0.018180929
0.0074732799
0.0014379002
0.0014371084
0.0074623278
0.018152229
0.031166862
0.40903032
0.40829228
0.03111541
0.018121614
0.0074502908
0.0014362104
0.0014353494
0.0074388098
0.018091609
0.031064241
0.40753351
0.4067122
0.03101416
0.018061248
0.007426729
0.0014343921
0.0014334885
0.0074157722
0.018033232
0.0309681
0.4058299
0.40477007
0.030932234
0.018008976
0.0074054584
0.0014325089
0.0014316293
0.0073980298
0.017992907
0.030913502
0.40342733
0.40152136
0.030901735
0.017977003
0.0073889774
0.0014302443
0.0014274227
0.0073655765
0.017925602
0.030833406
0.39848834
0.39365504
0.030560027
0.017753371
0.0072908752
0.0014181432
0.001399403
0.0070904153
0.01724651
0.029720054
0.38500224
0.37880115
0.028777245
0.016755037
0.0069038454
0.0013563616
0.0013618557
0.0068822914
0.016729768
0.028769537
0.37821427
0.38543922
0.029760752
0.017274782
0.007099883
0.0013993852
0.0014178848
0.0072888753
0.017746531
0.030546746
0.39367462
0.3985275
0.030824463
0.017919869
0.0073630093
0.0014270231
0.0014300746
0.0073883045
0.017974968
0.030897859
0.40154018
0.40341836
0.030910268
0.017990573
0.0073969994
0.0014314633
0.0014324537
0.0074054385
0.01800848
0.030930798
0.40475698
0.40580166
0.030964772
0.018030986
0.0074148627
0.0014333735
0.00143436
0.0074266642
0.018060578
0.031012294
0.40669411
0.40749897
0.031061514
0.018089598
0.0074379388
0.0014352466
0.0014361762
0.0074500798
0.018120715
0.031113449
0.40825845
0.40897436
0.031162478
0.018149261
0.0074610936
0.0014369931
0.0014378608
0.0074728198
0.018179333
0.031212845
0.40967126
0.41034341
0.03125957
0.018206538
0.0074833404
0.0014386189
0.0014394419
0.0074947281
0.018235766
0.031308531
0.41099545
0.41162676
0.031353562
0.018261981
0.0075048842
0.0014401592
0.0014409484
0.0075159823
0.018290385
0.031401001
0.41224277
0.41284353
0.031445442
0.018316191
0.0075259649
0.0014416394
0.0014424051
0.0075368463
0.018343941
0.03149171
0.41343813
0.41402227
0.031535557
0.018369517
0.0075467953
0.0014430843
0.0014438498
0.0075579047
0.018397874
0.031582893
0.41460344
0.41517802
0.031627778
0.018423979
0.0075680456
0.0014445281
0.0014452937
0.00757924
0.018452337
0.031674873
0.41574546
0.4163095
0.031720812
0.018479226
0.0075897669
0.001445994
0.0014468014
0.0076016729
0.018509269
0.031770592
0.41688305
0.41746574
0.031819851
0.018538371
0.0076131734
0.0014475636
0.0014484585
0.0076264433
0.018571768
0.031875132
0.41806758
0.41869576
0.031930592
0.018604733
0.0076395478
0.0014493311
0.0014503584
0.0076547763
0.018643007
0.031993934
0.41936205
0.42007567
0.032059194
0.018681874
0.0076702062
0.0014513798
0.0014525479
0.0076879986
0.018726226
0.032132081
0.42083528
0.42161188
0.032209403
0.018771628
0.0077056833
0.0014536916
0.0014548068
0.0077224196
0.018813167
0.03227875
0.42240459
8.0844785
8.0850515
8.0844576
8.0850075
8.0475902
8.0618152
8.0630882
8.1055678
8.1056414
8.0618367
8.0327669
8.0845868
8.1056314
8.09516
8.0605137
8.0319064
8.0063609
7.9212715
7.9503911
7.8426239
7.9900177
7.9623132
7.7962434
7.6368673
7.9116049
8.019379
8.0733885
7.9835759
8.0254133
8.0548163
8.0867175
8.0241697
7.993673
7.8902699
7.9368631
7.8091244
8.0172938
7.9838996
7.9485784
7.9021099
7.9427702
7.6932629
7.5830573
7.5212845
7.8699733
7.8229028
7.7936576
7.8405569
7.5281167
7.5809105
7.4605175
7.4040329
7.354742
7.4111633
7.7073906
7.7479776
7.7480334
7.9110561
8.0001412
8.0038705
7.9789711
7.9546211
0.38087021
0.028285702
0.016484218
0.0067990738
0.0013579044
0.0013875273
0.0070092675
0.017007029
0.029222433
0.38713304
0.39331507
0.029872094
0.017383337
0.0071594653
0.0014065483
0.0014158279
0.0072336454
0.017562098
0.030161875
0.39783665
0.40075727
0.030237637
0.017618642
0.0072598701
0.0014190535
0.001420505
0.007270345
0.017638776
0.030256204
0.40261366
0.40395295
0.030271871
0.017653875
0.0072779123
0.0014213776
0.0014223673
0.0072890661
0.017680903
0.030312464
0.40501732
0.40594002
0.03035553
0.01770748
0.0072997801
0.0014232425
0.0014242132
0.0073125969
0.017740469
0.030410297
0.40677724
0.4075622
0.0304579
0.017768592
0.0073236212
0.0014250423
0.0014259463
0.0073361042
0.017801063
0.030512739
0.40830714
0.40901299
0.030557342
0.017827373
0.0073464375
0.0014267041
0.001427548
0.0073583383
0.017858364
0.030609781
0.40969657
0.41035548
0.030651708
0.01788313
0.0073681004
0.0014282529
0.0014290575
0.0073796489
0.017913217
0.030702586
0.4109899
0.41160403
0.030743171
0.017937095
0.0073890433
0.0014297242
0.0014304934
0.0074001471
0.017965889
0.030791695
0.41219851
0.41277528
0.030830987
0.017989152
0.007409367
0.0014311427
0.0014319094
0.0074206114
0.018018286
0.030880054
0.413345
0.41390442
0.030920435
0.018042058
0.0074299991
0.0014325582
0.0014333263
0.0074412975
0.018071126
0.03096909
0.41445325
0.41500362
0.031011076
0.018095848
0.0074510856
0.0014339968
0.0014347963
0.0074628848
0.018125996
0.031061304
0.41554901
0.41610214
0.03110598
0.018152497
0.007473455
0.0014355177
0.0014363856
0.0074863269
0.018185231
0.031160439
0.41667646
0.41727216
0.031209823
0.018214789
0.0074981933
0.0014371918
0.0014381599
0.0075126728
0.018251493
0.031270813
0.41789904
0.4185636
0.031328199
0.01828578
0.0075263985
0.0014390793
0.0014401595
0.0075426475
0.018326645
0.03139559
0.41927124
0.4200235
0.031463795
0.018367313
0.0075587736
0.0014412132
0.0014423718
0.007576417
0.018411346
0.031536337
0.4208234
0.42166768
0.031612702
0.018456342
0.0075941909
0.0014435073
0.0014422011
0.0075744535
0.018406277
0.0315286
0.42074033
0.42003166
0.03146469
0.018368042
0.0075590288
0.0014412022
0.0014401651
0.0075428298
0.018327153
0.031396277
0.41931394
0.41861332
0.031329958
0.018286874
0.0075265927
0.0014390951
0.0014381538
0.0075124619
0.018250995
0.031269896
0.41797134
0.41735576
0.031212958
0.018216497
0.0074985926
0.0014372074
0.0014363873
0.0074863814
0.018185344
0.031160433
0.41678967
0.41621999
0.031108944
0.018154291
0.0074739593
0.001435538
0.0014348046
0.0074630673
0.018126254
0.03106136
0.41566362
0.41512071
0.031015417
0.018098578
0.0074520185
0.0014340392
0.0014333728
0.0074421914
0.018073056
0.030971753
0.41457644
0.41401289
0.030926888
0.018046125
0.0074314847
0.001432637
0.0014319807
0.0074216895
0.018020704
0.030883535
0.41344772
0.41286387
0.030838877
0.0179939
0.0074110553
0.0014312461
0.001430585
0.0074013738
0.017968647
0.0307957
0.41228172
0.41167432
0.030751667
0.017942155
0.0073908499
0.0014298431
0.0014291666
0.0073811157
0.01791671
0.030708064
0.41108538
0.41043716
0.030660772
0.01788856
0.0073700547
0.0014283856
0.00142766
0.0073597294
0.017861558
0.030614521
0.40976762
0.40906848
0.030564909
0.01783201
0.0073481238
0.001426828
0.0014260407
0.0073370972
0.01780317
0.030515554
0.40834798
0.40760718
0.030464719
0.017772687
0.0073250638
0.001425153
0.0014243027
0.0073134997
0.017742481
0.030413215
0.40682433
0.40597289
0.03036024
0.017710459
0.0073008372
0.0014233389
0.0014224422
0.0072895904
0.017681991
0.03031397
0.4050528
0.40398218
0.030276946
0.017656792
0.0072788583
0.0014214763
0.0014205932
0.0072708088
0.017639877
0.030257933
0.40264818
0.40077148
0.030243237
0.017621654
0.0072607804
0.0014191949
0.0014159947
0.007234322
0.017564608
0.030167345
0.39781031
0.39307648
0.029883428
0.01738699
0.0071596306
0.0014068562
0.001387737
0.0070087869
0.017012327
0.029242545
0.38648183
0.37890333
0.028267875
0.016452482
0.0067815475
0.0013575828
0.0013112604
0.006359872
0.015401908
0.026516781
0.36460915
0.38070649
0.030313964
0.017543416
0.0071575437
0.0013883103
0.0013609851
0.0069285631
0.016806984
0.028856312
0.38052377
0.38492698
0.02968518
0.017227322
0.0070838914
0.0014013116
0.0014184743
0.0072847091
0.017736297
0.030527956
0.39341184
0.39809816
0.030792877
0.01790085
0.0073557875
0.0014274058
0.0014302391
0.0073828072
0.017961471
0.030876207
0.40118003
0.40310837
0.030888077
0.017976903
0.0073915699
0.0014315169
0.0014324658
0.0074012298
0.017998345
0.030914939
0.40449567
0.40557591
0.030949583
0.018021325
0.0074109227
0.0014333417
0.0014343115
0.0074232743
0.018052397
0.030999506
0.40648791
0.40730947
0.031048564
0.018081435
0.0074346598
0.0014351781
0.0014361112
0.0074473568
0.018114139
0.031103242
0.40809271
0.40884015
0.031150961
0.018142199
0.0074583472
0.0014369167
0.0014378047
0.007470854
0.018174687
0.031205796
0.40955113
0.41023313
0.031250984
0.018201203
0.0074812341
0.0014385493
0.0014393825
0.007493083
0.018231922
0.031302792
0.41089532
0.41154477
0.03134573
0.018257141
0.0075029997
0.0014400855
0.0014408903
0.007514629
0.018287335
0.031396682
0.41216792
0.41277368
0.031438098
0.018311717
0.0075242508
0.0014415647
0.0014423495
0.0075357398
0.018341474
0.031488255
0.41336892
0.41395236
0.031529441
0.018365738
0.0075453305
0.0014430112
0.0014437927
0.0075569045
0.018395689
0.031579909
0.41452683
0.41508946
0.031621915
0.018420417
0.0075666777
0.0014444595
0.0014452512
0.0075784078
0.018450553
0.031672501
0.41564878
0.41620706
0.031716178
0.018476404
0.0075886904
0.0014459508
0.0014467935
0.007601194
0.018508341
0.031769511
0.41677032
0.41735568
0.031817835
0.018536911
0.0076125618
0.0014475624
0.0014484785
0.0076261793
0.018571472
0.03187537
0.41796763
0.41860169
0.031928738
0.018603343
0.007638952
0.0014493415
0.0014503727
0.0076543534
0.018642244
0.031993281
0.41926265
0.41995588
0.032055922
0.018679727
0.0076693428
0.0014513715
0.0014525452
0.0076870255
0.018723692
0.032127604
0.42067685
0.42142007
0.03220818
0.018771784
0.0077061211
0.0014537341
0.0014548582
0.0077259831
0.018815388
0.032275226
0.42219253
0.0014421572
0.0075734521
0.018403912
0.031524798
0.42070614
0.41999578
0.031459361
0.018364635
0.0075576278
0.0014411269
0.001440069
0.0075413611
0.018323422
0.031390233
0.41928067
0.41860076
0.031326892
0.018285053
0.0075259323
0.001439027
0.0014381279
0.0075124528
0.018250886
0.0312696
0.41798405
0.41738655
0.031214937
0.018217759
0.0074991213
0.001437225
0.0014364494
0.0074874502
0.018188003
0.031164786
0.41682401
0.41625341
0.031114034
0.018157539
0.007475309
0.0014356323
0.0014349283
0.0074646036
0.01813018
0.031067878
0.415694
0.41512211
0.031018045
0.018100151
0.00745261
0.0014341342
0.0014334287
0.0074421624
0.0180732
0.030972485
0.41455506
0.41398391
0.030924401
0.018044529
0.0074308561
0.0014326429
0.0014319732
0.0074213103
0.018019725
0.030882123
0.4134224
0.41283956
0.030838054
0.017993321
0.0074108108
0.0014312377
0.001430581
0.0074012587
0.017968487
0.030795685
0.41227789
0.41168639
0.030751727
0.01794211
0.0073908024
0.0014298441
0.001429171
0.0073810711
0.01791666
0.030708069
0.41107644
0.41042036
0.030659603
0.017887952
0.0073698437
0.0014283855
0.0014276552
0.0073593909
0.017860658
0.030612971
0.40973532
0.40902775
0.030561907
0.017830357
0.0073475269
0.0014268127
0.001426022
0.0073364488
0.017801517
0.030512828
0.40830298
0.4075533
0.030460574
0.017770344
0.0073241871
0.001425127
0.0014242772
0.0073125881
0.017740198
0.030409474
0.40676328
0.40591579
0.03035611
0.017707994
0.0072998588
0.0014233162
0.0014224272
0.0072886297
0.017679645
0.030310196
0.40498952
0.40392796
0.030273464
0.017654625
0.0072779577
0.0014214748
0.0014206044
0.0072699261
0.017637716
0.030254412
0.4025848
0.40071091
0.030238781
0.017618996
0.0072597071
0.0014192111
0.0014160243
0.0072334188
0.017562292
0.03016338
0.39777019
0.39309349
0.029882365
0.017386521
0.0071595072
0.0014069309
0.00138793
0.0070103762
0.017016127
0.029248631
0.38663338
0.37921823
0.028286596
0.016462785
0.0067856901
0.0013580863
0.0013127775
0.0063954339
0.015491543
0.026659343
0.36602257
0.40544006
0.023935305
0.013902313
0.0057688155
0.0012783117
0.0013563402
0.0067651195
0.016425532
0.028182627
0.37368896
0.3787926
0.028350303
0.016531784
0.0068073887
0.001354744
0.00135655
0.0067937624
0.016472154
0.028269431
0.3806422
0.38714248
0.029224722
0.017008549
0.0070102606
0.0013871734
0.0014063589
0.0071603525
0.017386366
0.02987776
0.39336141
0.39794728