/*--------------------------------*- C++ -*----------------------------------*\
  =========                 |
  \\      /  F ield         | OpenFOAM: The Open Source CFD Toolbox
   \\    /   O peration     | Website:  https://openfoam.org
    \\  /    A nd           | Version:  7
     \\/     M anipulation  |
\*---------------------------------------------------------------------------*/
FoamFile
{
    version     2.0;
    format      ascii;
    class       volScalarField;
    location    "10";
    object      alphat;
}
// * * * * * * * * * * * * * * * * * * * * * * * * * * * * * * * * * * * * * //

dimensions      [1 -1 -1 0 0 0 0];

internalField   nonuniform List<scalar> 
24866
(
9.4077428
9.4041511
9.4046753
9.610848
9.7954351
9.7926728
9.7873434
9.7926036
9.7917581
9.785618
9.7856982
9.7857397
9.7856422
9.7917851
9.7926953
9.7873043
9.7924728
9.7942102
9.7932725
9.7877168
9.7753904
9.7925021
9.8284912
9.8142931
9.7838441
9.7789761
9.7884373
9.816801
9.8107992
9.7792973
9.7904238
9.7943001
9.7942939
9.7904263
9.7793596
9.8108654
9.8169266
9.788551
9.7788527
9.7836351
9.8142339
9.8284497
9.7924941
9.7753896
9.7877477
9.7933441
9.79423
9.7925596
9.7873199
9.7926146
9.7918811
9.7857516
9.7856945
9.7857107
9.7857116
9.7917554
9.792471
9.7872043
9.7926184
9.7955018
9.8003174
9.7959778
9.8002899
9.7962336
9.7881765
9.7913596
9.7987397
9.7948721
9.785294
9.784944
9.7849728
9.7852908
9.7949027
9.7987975
9.7913658
9.7880151
9.7956298
9.799079
9.7944747
9.7963272
9.7899537
9.7803973
9.7782302
9.791076
9.7954811
9.8025546
9.78503
9.7791957
9.7893041
9.8031595
9.7953414
9.7894469
9.7879099
9.7889213
9.7870185
9.7839371
9.7871012
9.7856521
9.7900274
9.7870432
9.7843703
9.783934
9.7840411
9.784756
9.7855576
9.7855491
9.7853707
9.7888653
9.7878198
9.7879993
9.7840566
9.7928441
9.7977924
9.794679
9.7891649
9.7862129
9.7851279
9.7844836
9.7848554
9.7852021
9.7851238
9.7845459
9.7849778
9.7841162
9.7836051
9.784404
9.7868953
9.7838918
9.7830105
9.7832403
9.7842503
9.78524
9.7858238
9.7855476
9.7856516
9.7853128
9.7848585
9.7853739
9.7851277
9.7878243
9.7891656
9.7840667
9.7928418
9.7977824
9.6799155
9.675239
9.603418
9.6006828
9.6104235
9.6104192
9.6007172
9.5946763
9.569402
9.7052089
9.7096721
9.5814557
9.600342
9.5976375
9.5957545
9.5736011
9.5211748
9.5338828
9.5817594
9.599031
9.609085
9.6081224
9.6053919
9.5984233
9.6002798
9.5972756
9.5911845
9.5808957
9.5808615
9.5912232
9.5972524
9.6000138
9.598949
9.6050794
9.6058859
9.6157175
9.6815842
9.6788232
9.6050987
9.5392605
9.6166105
9.6087003
9.5947975
9.7906137
9.7865498
9.7906289
9.7870946
9.784343
9.7868438
9.7838622
9.7829739
9.7831915
9.7841748
9.7851357
9.7856979
9.78583
9.7859443
9.7856566
9.7852107
9.7855574
9.7879214
9.7888752
9.7953577
9.7880153
9.5987991
9.631581
9.6436648
9.7053293
9.5695084
9.5946301
9.4083241
9.3994106
9.4053396
9.4052223
9.3993302
9.4082506
9.3834694
9.3883291
9.3990452
9.4150988
9.3973339
9.3802902
9.3603799
9.3721826
9.39376
9.3986162
9.403975
9.4018782
9.4043488
9.4098786
9.3946526
9.3915842
9.4025791
9.3899079
9.3899956
9.4027203
9.3915704
9.3944439
9.4104717
9.2332551
9.2323644
9.2320559
9.2328067
9.2326724
9.4039452
9.6047184
9.5990686
9.5998593
9.5973386
9.5911614
9.5808726
9.5808831
9.5913483
9.5969898
9.6004336
9.5984357
9.6056783
9.6081
9.6093116
9.599037
9.5818654
9.5340645
9.6673431
9.7216935
9.7083717
9.5738066
9.5957885
9.5977069
9.6003061
9.5814058
9.7097139
9.6561674
9.5988826
9.5863135
9.5575286
9.6345739
9.6241509
9.6413664
9.6790984
9.8032122
9.789376
9.7791733
9.7894553
9.7954702
9.7889347
9.7855761
9.7851401
9.7855603
9.7849926
9.7852485
9.7851413
9.7846542
9.7839266
9.7835039
9.784435
9.7837637
9.7839297
9.7841831
9.7842615
9.7841348
9.7839576
9.7845638
9.7847752
9.7870361
9.7910655
9.7782371
9.7839689
9.7840706
9.7856812
9.7843952
9.7836254
9.783252
9.7832015
9.7835112
9.7844302
9.7870874
9.7843507
9.7829888
9.7830261
9.7844232
9.7870717
9.7900762
9.7945087
9.7871392
9.7804282
9.7899905
9.7963954
9.6782206
9.6132882
9.6003951
9.6728234
9.6015099
9.6135297
9.5361231
9.407235
9.3985962
9.3939929
9.3724272
9.3609017
9.5212834
9.5503301
9.573551
9.6302995
9.6298883
9.6464053
9.6260754
9.5478273
9.5843916
9.397707
9.3806233
9.3973909
9.4151201
9.3991291
9.3880978
9.3837255
9.2241476
9.2337484
9.2292649
9.2341047
9.2340117
9.2291189
9.2336529
9.2235188
9.2238948
9.2271463
9.2428018
9.2247497
9.2136702
9.2087277
9.2210923
9.2223881
9.2279008
9.232213
9.2303835
9.2329565
9.2325358
9.2215567
9.2177308
9.2275467
9.2168373
9.2167943
9.2276247
9.2179175
9.2214614
9.0792485
9.0848638
9.0922964
9.0945945
9.0944861
9.0913219
9.0851684
9.2332112
9.4105786
9.3942017
9.3917182
9.402468
9.389899
9.3900194
9.4026842
9.3913094
9.3948584
9.4097859
9.4047817
9.4018948
9.4040429
9.2330204
9.2283088
9.2228866
9.2217366
9.2093181
9.2144293
9.2251196
9.2430064
9.2274492
9.2239992
9.0906006
9.0906711
9.0891591
9.0911332
9.097681
9.097723
9.0909785
9.0891608
9.0901322
9.0897627
9.086526
9.0980337
9.0823659
9.0768349
9.0806255
9.0903927
9.080231
9.0897628
9.0957695
9.0937293
9.0926103
9.0846249
9.0791655
9.0751012
9.0785356
9.0674103
9.0674038
9.0786834
9.075229
8.9663199
8.9695009
8.9705582
8.9859055
8.9925358
8.9920854
8.9840449
8.9683915
8.9687553
8.965514
9.07537
9.2178216
9.2272675
9.2167339
9.2167985
9.2274051
9.2173041
9.2215336
9.232297
9.2333735
9.23042
9.0944842
9.0962407
9.0902167
9.0810774
9.0916304
9.0815919
9.0779891
9.0828636
9.098394
9.0869309
8.9798356
8.9878971
8.9879368
8.9788736
8.9880725
8.9976577
8.9976639
8.9876012
8.9784172
8.9872647
8.9869817
8.9784928
8.9840686
8.9710041
8.9708221
8.9812965
8.9883357
8.971704
8.986231
8.9952948
8.9935212
8.9870304
8.9707189
8.9700471
8.9656416
8.9612692
8.9485159
8.9484413
8.9617193
8.8833024
8.8949448
8.8986791
8.8951586
8.9188447
8.9304611
8.9301396
8.916489
8.8912533
8.8941631
8.8898356
8.8807565
8.9604148
9.0778922
9.0670895
9.0672218
9.0781708
9.0745275
9.0788072
9.084252
9.0930343
8.9875099
8.9935673
8.995986
8.9869383
8.9729324
8.9902055
8.9826254
8.9722751
8.9719545
8.9848333
8.9079766
8.9081036
8.9218591
8.9212724
8.9071825
8.924875
8.9386753
8.9386607
8.9240541
8.9064763
8.9203264
8.9201463
8.9064756
8.9054789
8.8951246
8.9002522
8.9169848
8.9219818
8.9014889
8.9230515
8.9360475
8.9339725
8.9213718
8.8966932
8.9000863
8.8951827
8.8827836
8.8665244
8.8663889
8.8273773
8.8475788
8.8680008
8.8715955
8.8645254
8.8964956
8.91351
8.9128254
8.892738
8.8591127
8.8650786
8.8594013
8.8388293
8.8236117
8.8646687
8.9472004
8.9476692
8.960471
8.9645335
8.9688004
8.9697609
8.8953461
8.920418
8.9337389
8.9369095
8.9237093
8.9036938
8.9248371
8.9186907
8.9014984
8.8964754
8.8620976
8.8702931
8.8775879
8.8973613
8.8963608
8.8787992
8.9070144
8.9262296
8.9260064
8.9057923
8.8784638
8.896119
8.8954988
8.8752248
8.8682315
8.8590982
8.8696535
8.8934747
8.8976155
8.8757422
8.9053723
8.9233973
8.9215984
8.9019869
8.8672319
8.8743323
8.8685459
8.8474399
8.826708
8.8336046
8.83287
8.8593087
8.8878796
8.891307
8.8808339
8.9218854
8.9447489
8.9441199
8.9163338
8.8726868
8.8833699
8.8775405
8.8461416
8.8196416
8.8277389
8.823672
8.8645646
8.8809857
8.8930263
8.8972264
8.8708416
8.8640849
8.9010919
8.9214464
8.9242442
8.9056726
8.8770503
8.9011843
8.8952861
8.8716995
8.8858544
8.8686458
8.8772384
8.8902241
8.9173543
8.9162413
8.8963042
8.9366166
8.9621315
8.9619321
8.9354293
8.8969404
8.9162473
8.9146584
8.887555
8.8737063
8.8659272
8.8826015
8.913835
8.918208
8.8960384
8.9359194
8.9593006
8.9573195
8.9303309
8.8847178
8.8959757
8.8887934
8.8585441
8.9212485
8.8878121
8.8861094
8.9188309
8.9553093
8.9588644
8.9454638
8.9981701
9.026617
9.0229215
8.9875821
8.9336291
8.9466316
8.9401653
8.9014508
8.8678411
8.8689898
8.9105907
8.8535676
8.8435931
8.8646043
8.8834926
8.8894964
8.8805598
8.9299456
8.9573565
8.9600936
8.9359726
8.8985857
8.9226964
8.9154321
8.9827776
8.9419676
8.9214411
8.9299845
8.9506896
8.9835109
8.9831428
8.9636317
9.016034
9.0490056
9.050458
9.0165822
8.9637476
8.9844336
8.9810307
8.9456082
8.9256332
8.9177868
8.940665
8.9803546
8.9861521
8.9653646
9.0151116
9.044222
9.0417095
9.0079119
8.9537439
8.9679738
8.9589047
9.0759044
9.0255721
8.9892157
8.989354
9.0256341
9.0716279
9.0751662
9.0570451
9.118259
9.1528339
9.151536
9.1075933
9.0390626
9.0541639
9.0458921
9.0007886
8.9656468
8.9640464
9.0039416
9.0628636
8.9485347
8.9577128
8.9485565
9.0077737
9.04256
9.0467886
9.0160605
8.9668288
8.9898313
9.1036612
9.0905115
9.0423466
9.0184015
9.0260212
9.0550555
9.0939
9.0947892
9.0759262
9.1407546
9.1810853
9.1835954
9.142893
9.076596
9.0960731
9.0904019
9.0476582
9.0204709
9.013613
9.0437151
9.0913146
9.0990654
9.0794105
9.1398151
9.174658
9.1717383
9.1314167
9.0684143
9.0843118
9.2424412
9.2285261
9.1727077
9.131522
9.1333867
9.1744684
9.2272566
9.2308093
9.2092529
9.2794361
9.3184935
9.3160835
9.265873
9.1882327
9.2008606
9.1901582
9.1386081
9.1014221
9.1048333
9.1481408
9.2100274
9.2302177
9.0712228
9.0619082
9.131132
9.1727456
9.1782121
9.1404578
9.0792414
9.2339614
9.253679
9.2405105
9.1872698
9.1570062
9.1673816
9.1995359
9.2450063
9.2477739
9.2300154
9.3074026
9.3548659
9.3586757
9.3114771
9.23169
9.2500618
9.2414409
9.1909373
9.1587752
9.1534342
9.1879831
9.2449716
9.2544198
9.2333189
9.3051933
9.3449076
9.3412207
9.2948675
9.2227687
9.4140303
9.4297198
9.4155348
9.3524777
9.3091884
9.3134274
9.3572345
9.414061
9.4180484
9.3957808
9.4721237
9.5150245
9.5135275
9.456417
9.3681273
9.3798818
9.3674656
9.3131991
9.2718048
9.2751428
9.3269239
9.3955727
9.4150549
9.4080898
9.2161636
9.2994972
9.3459612
9.3476989
9.3038237
9.5024361
9.4181219
9.4380935
9.4218572
9.3640712
9.3292661
9.3418879
9.3768641
9.4285905
9.4334944
9.4178398
9.5043472
9.556907
9.5606862
9.5090649
9.4196925
9.4337393
9.4222444
9.3671149
9.3290894
9.3257231
9.3656921
9.4284621
9.4404785
9.4232379
9.5017909
9.545454
9.5403131
9.4895659
9.7098279
9.6240868
9.6388884
9.6220978
9.5560643
9.511035
9.5167102
9.5623426
9.6237167
9.6280306
9.6062943
9.6887204
9.731301
9.7224838
9.6619237
9.5696906
9.580981
9.5668266
9.508993
9.4625376
9.4693779
9.5288532
9.6066437
9.6279018
9.6183036
9.7119125
9.495055
9.546668
9.5495149
9.7649324
9.7144958
9.6317674
9.6491691
9.6298533
9.5651873
9.532592
9.544694
9.5837471
9.6394964
9.6462772
9.6298349
9.7236603
9.7793466
9.7827238
9.7280467
9.6313463
9.6414267
9.6268458
9.5680053
9.5266723
9.5230663
9.5671157
9.6335059
9.6473223
9.6327126
9.7174843
9.7649041
9.7610659
9.9878899
9.9346742
9.8480106
9.859372
9.841408
9.777422
9.7310424
9.7328591
9.7847347
9.8432626
9.8482745
9.8274744
9.9099997
9.9488751
9.9375655
9.8766974
9.7841102
9.7991463
9.7812424
9.7153561
9.6649469
9.6713294
9.7343532
9.8180889
9.8480802
9.8414522
9.9329643
9.9831899
9.7637249
9.7265045
9.6492711
9.7264213
9.6017074
9.5554566
9.6428244
9.5904618
9.5644699
9.5796911
9.6055784
9.6519704
9.8676985
9.857217
9.8661269
9.8536313
9.9499963
10.005308
10.006451
9.9515448
9.8530915
9.8560469
9.8390531
9.7808667
9.7359729
9.7345564
9.7821908
9.8497165
9.8643609
9.8517094
9.9444884
9.9936101
10.211495
10.210007
10.159614
10.070497
10.079503
10.059634
9.9949296
9.9496807
9.9539906
10.003812
10.060696
10.067964
10.053256
10.127241
10.160453
10.14592
10.089243
10.003894
10.012939
9.9919469
9.9232646
9.870995
9.8740808
9.9360262
10.021719
10.05544
10.054933
10.144481
10.19916
10.195663
9.9838694
9.9341007
9.8528409
9.8672467
9.8456361
9.7783876
9.7480381
9.7588823
9.7998733
10.020441
10.074337
10.086554
10.077987
10.174519
10.227674
10.226349
10.171635
10.074535
10.071443
10.052297
9.9962963
9.951217
9.950121
9.9984759
10.062752
10.078289
10.071115
10.160656
10.360369
10.40898
10.41124
10.365969
10.281612
10.289676
10.267081
10.202443
10.160488
10.162357
10.212001
10.266246
10.275658
10.264486
10.329297
10.358296
10.346416
10.293332
10.212343
10.218476
10.196067
10.129824
10.0735
10.070307
10.131018
10.210121
10.244312
10.246822
10.331986
10.38141
10.393338
10.350285
10.152257
10.073377
10.084348
10.06219
9.99745
9.9670194
9.9774522
10.183706
10.223675
10.279831
10.29446
10.290583
10.385361
10.433521
10.425838
10.372817
10.283432
10.272631
10.252444
10.202714
10.1572
10.159262
10.206789
10.268503
10.282033
10.274126
10.459257
10.538616
10.584912
10.588744
10.55147
10.480303
10.482643
10.459243
10.398339
10.354517
10.354307
10.402211
10.453661
10.465297
10.455986
10.51368
10.536951
10.521912
10.475371
10.40456
10.409183
10.384807
10.31692
10.259294
10.252646
10.308364
10.380844
10.412763
10.416841
10.489454
10.536454
10.551183
10.529598
10.461593
10.27813
10.28622
10.263975
10.202707
10.172364
10.361987
10.370363
10.410979
10.463911
10.482972
10.488874
10.577389
10.618932
10.60451
10.555535
10.475314
10.457623
10.436607
10.394313
10.351052
10.355553
10.404117
10.457344
10.468769
10.634065
10.622947
10.694115
10.734984
10.739784
10.71078
10.651455
10.651729
10.628022
10.569118
10.529347
10.524675
10.571157
10.621664
10.634129
10.625206
10.675141
10.692833
10.67507
10.633764
10.571091
10.574765
10.549252
10.484035
10.427437
10.420411
10.46387
10.524725
10.552171
10.554822
10.617418
10.660397
10.677294
10.666342
10.62615
10.621886
10.467821
10.445728
10.388985
10.5544
10.528776
10.535751
10.572614
10.623534
10.646422
10.658127
10.738252
10.774068
10.760183
10.716402
10.644393
10.61765
10.596588
10.564011
10.522713
10.531644
10.576888
10.625239
10.763714
10.771333
10.763108
10.823536
10.859988
10.866285
10.844391
10.794566
10.794679
10.770197
10.71231
10.674866
10.671309
10.715752
10.760178
10.774497
10.770284
10.810732
10.822352
10.800612
10.764161
10.712118
10.714437
10.689197
10.628288
10.57519
10.563264
10.59469
10.644275
10.666415
10.66737
10.719606
10.756641
10.774523
10.775098
10.750282
10.759977
10.735609
10.602631
10.58371
10.540295
10.514994
10.524536
10.556547
10.613634
10.752756
10.759445
10.785403
10.800789
10.873198
10.904727
10.892321
10.853529
10.78897
10.755427
10.733754
10.711005
10.673696
10.685582
10.725562
10.846214
10.875508
10.881641
10.874853
10.925342
10.95705
10.966647
10.95239
10.911519
10.907542
10.881753
10.825805
10.795502
10.794194
10.832131
10.87305
10.889745
10.890728
10.924263
10.929308
10.902007
10.86912
10.825946
10.82808
10.805312
10.750801
10.703044
10.6851
10.705116
10.742821
10.759759
10.758554
10.799404
10.829038
10.846839
10.855389
10.847305
10.860579
10.855901
10.819033
10.698392
10.673667
10.67874
10.71017
10.825321
10.870649
10.897889
10.916402
10.982211
11.009052
10.996026
10.962915
10.908251
10.867113
10.845717
10.832479
10.799176
10.81485
10.921661
10.942788
10.961517
10.965798
10.961498
11.003595
11.030861
11.042008
11.034165
11.003654
10.995422
10.968687
10.915256
10.892466
10.893895
10.924877
10.962536
10.981871
10.988178
11.015619
11.014733
10.983913
10.953671
10.916596
10.920572
10.901957
10.854614
10.809916
10.787738
10.797831
10.823796
10.836016
10.833552
10.86182
10.885308
10.902618
10.915297
10.9179
10.932224
10.933889
10.925154
10.898219
10.798622
10.801306
10.898675
10.914696
10.956331
10.985551
11.008194
11.065501
11.089024
11.078102
11.049818
11.001005
10.957813
10.937999
10.933078
10.90408
10.987556
11.007959
11.019926
11.027683
11.030536
11.027593
11.061717
11.084953
11.094762
11.092926
11.074077
11.062299
11.034259
10.982853
10.967629
10.969936
10.994192
11.029064
11.051954
11.06555
11.088121
11.082333
11.050078
11.021533
10.989335
10.99372
10.977325
10.935371
10.895875
10.873198
10.874284
10.889593
10.896622
10.891404
10.910176
10.927434
10.945276
10.959394
10.966131
10.981549
10.989688
10.993293
10.989683
10.975262
10.983773
11.018578
11.048442
11.074003
11.125732
11.147151
11.139562
11.11633
11.072331
11.030646
11.013333
11.014042
11.078435
11.05547
11.07484
11.07966
11.075827
11.076047
11.074008
11.106337
11.125989
11.133304
11.136743
11.127422
11.11322
11.083812
11.034393
11.025353
11.028576
11.046751
11.079729
11.106387
11.125641
11.145197
11.136203
11.102902
11.076006
11.046211
11.048032
11.034076
10.998667
10.965942
10.94451
10.939637
10.945136
10.947386
10.939797
10.949948
10.961715
10.978387
10.992395
10.99984
11.015391
11.028208
11.042434
11.047312
11.034748
11.035626
11.064766
11.094655
11.12238
11.170425
11.190779
11.187235
11.168758
11.128212
11.087622
11.072574
11.11993
11.129941
11.108057
11.124879
11.125665
11.111442
11.1087
11.106202
11.137655
11.154837
11.160147
11.167962
11.167991
11.152633
11.122343
11.076254
11.07275
11.074411
11.088753
11.119397
11.14833
11.170119
11.185862
11.175458
11.142212
11.116002
11.089795
11.091324
11.0805
11.050737
11.023097
11.006132
10.997064
10.995671
10.993573
10.982902
10.986869
10.994552
11.010204
11.021837
11.025953
11.040726
11.055805
11.076384
11.090075
11.081142
11.076128
11.099971
11.129148
11.158543
11.203483
11.223219
11.224503
11.209523
11.170224
11.132064
11.170267
11.162369
11.174165
11.152123
11.166165
11.163521
11.141845
11.135285
11.130126
11.162689
11.17953
11.182082
11.193432
11.201668
11.186118
11.155717
11.111358
11.110083
11.110693
11.122313
11.150731
11.181259
11.205879
11.217924
11.20518
11.172863
11.148912
11.125448
11.128127
11.118951
11.09093
11.071057
11.060168
11.051343
11.045379
11.039027
11.024981
11.025517
11.029606
11.041501
11.050136
11.050804
11.063855
11.080031
11.10371
11.124254
11.11952
11.110548
11.129952
11.158653
11.187115
11.230989
11.251332
11.252373
11.239095
11.202313
11.22902
11.207345
11.202243
11.216356
11.194439
11.204982
11.200096
11.171723
11.161374
11.151794
11.187214
11.206545
11.207898
11.221611
11.233334
11.220375
11.18873
11.143487
11.139177
11.140706
11.151395
11.179388
11.212185
11.238108
11.248138
11.234861
11.20495
11.182609
11.161124
11.164981
11.155776
11.12753
11.113727
11.109343
11.102837
11.096604
11.089629
11.071209
11.071037
11.074241
11.084561
11.088613
11.081827
11.096338
11.113067
11.134822
11.155183
11.153933
11.142995
11.162118
11.189952
11.214205
11.260264
11.281441
11.281008
11.266124
11.318789
11.260536
11.244956
11.246439
11.260762
11.238176
11.245077
11.239967
11.206465
11.190624
11.179563
11.23902
11.271675
11.27322
11.274082
11.274949
11.278255
11.249209
11.185275
11.169836
11.170519
11.188743
11.23339
11.264031
11.277307
11.299656
11.301666
11.274159
11.239551
11.207516
11.225449
11.218503
11.171847
11.155471
11.155607
11.159246
11.172016
11.162249
11.130403
11.146351
11.165448
11.174794
11.161325
11.134482
11.169098
11.197744
11.199971
11.195088
11.189365
11.184472
11.21676
11.239222
11.251134
11.308068
11.344483
11.346181
11.502482
11.443072
11.280562
11.26958
11.261798
11.289313
11.269774
11.273841
11.264726
11.218086
11.211252
11.199537
11.367871
11.436662
11.443244
11.421321
11.33623
11.411978
11.384071
11.234419
11.199693
11.200088
11.235597
11.362257
11.389636
11.334634
11.432772
11.460369
11.443254
11.389577
11.271738
11.355977
11.35009
11.221141
11.195628
11.198433
11.220449
11.321207
11.308189
11.204996
11.32056
11.366685
11.366545
11.325603
11.218142
11.372811
11.44656
11.368085
11.247678
11.226651
11.233359
11.339705
11.359985
11.305038
11.441723
11.501266
11.518125
11.516317
11.451634
11.293087
11.187753
11.193875
11.197468
11.189861
11.152096
11.127346
11.210825
11.376894
11.461918
11.468588
11.448497
11.375902
11.425553
11.395699
11.256634
11.20755
11.208342
11.255545
11.37138
11.401058
11.370423
11.450741
11.478185
11.467341
11.416625
11.313149
11.371295
11.362991
11.243786
11.210772
11.21627
11.252817
11.345168
11.332574
11.25919
11.368345
11.412473
11.411923
11.367059
11.27906
11.281446
11.345477
11.405954
11.276987
11.242204
11.257771
11.351789
11.37052
11.339608
11.457465
11.249913
11.252565
11.342734
11.116524
10.978499
10.933012
10.93287
10.940497
10.905811
10.895622
10.974763
11.219532
11.185091
11.196303
11.182387
11.024101
10.849813
10.756578
10.710203
10.726896
10.722749
10.727221
10.802342
10.942367
11.130146
11.26184
11.265713
11.256536
11.36935
11.361381
11.424266
11.404768
11.433442
11.429996
11.443728
11.337645
11.411639
11.431659
11.388114
11.342904
11.353712
11.42997
11.404234
11.234352
11.261117
11.128879
11.066146
11.050472
11.084653
11.111516
11.144929
11.176984
11.163899
11.151801
11.237618
11.241991
11.300969
11.295675
11.296906
11.274352
11.264371
11.138021
11.134708
11.371539
11.380431
11.40094
11.486298
11.491423
11.404513
11.421592
11.359945
11.346752
11.455055
11.341798
11.34205
11.392294
11.327394
11.326108
11.235238
11.233778
11.185897
11.20428
11.166138
11.116715
11.218105
11.293512
11.264388
11.292598
11.276189
11.234407
11.294334
11.186581
11.115845
11.170595
11.061159
11.176664
11.300273
11.230112
11.301771
11.237649
11.212972
11.142931
11.193197
11.233027
11.183924
11.041446
11.135738
11.110627
10.989777
11.06682
11.111565
11.074111
11.042458
11.055617
11.100074
11.131866
11.170811
11.038895
11.053446
11.102732
10.968826
11.104597
11.056552
10.942012
10.898013
11.018445
11.008203
10.887296
10.924608
10.925831
10.67777
10.761017
10.928418
11.120339
11.250575
11.194
11.079357
10.959268
11.075488
11.18307
11.222399
11.22831
11.241874
11.231479
11.229549
11.203934
11.168647
11.145008
11.171917
11.190139
11.191077
11.221322
11.190386
11.155193
11.033472
11.096283
11.120282
11.102656
10.935686
10.717772
10.566091
10.494336
10.499434
10.51563
10.511655
10.55335
10.550284
10.737967
10.74833
10.775658
10.785458
10.615497
10.615042
10.526564
10.527643
10.534005
10.534581
10.612518
10.611883
10.784926
10.785067
10.785806
10.841052
10.96781
11.168636
11.144867
11.175873
11.176693
11.129513
11.132987
11.192528
11.158074
11.112902
11.131047
10.915301
10.758207
10.719377
10.716305
10.728565
10.597581
10.610528
10.551798
10.556559
10.564472
10.554798
10.597912
10.588287
10.74509
10.739538
10.738932
10.73296
10.569789
10.454261
10.50886
10.445829
10.460408
10.451564
10.447948
10.461546
10.477251
10.509839
10.508913
10.570062
10.516577
10.622343
10.727868
10.891209
11.048081
10.992782
10.867367
10.700055
10.565324
10.635728
10.529918
10.6081
10.506947
10.508137
10.567902
10.509025
10.509912
10.479853
10.47788
10.472712
10.470281
10.48322
10.476979
10.515728
10.44824
10.436239
10.50866
10.549653
10.506766
10.504595
10.4896
10.49357
10.494648
10.495763
10.520756
10.534938
10.596261
10.56733
10.514685
10.486784
10.529785
10.431273
10.430326
10.561739
10.533043
10.668803
10.8452
11.011968
11.018125
10.834028
10.702295
10.594276
10.526018
10.386688
10.395853
10.50442
10.534844
10.480927
10.495681
10.518128
10.531249
10.540393
10.464158
10.423045
10.403083
10.401603
10.402137
10.399284
10.408983
10.442224
10.494908
10.45831
10.420084
10.46218
10.482642
10.40114
10.344205
10.329448
10.33171
10.32543
10.328518
10.356566
10.425883
10.406834
10.508862
10.506933
10.49161
10.482176
10.459164
10.47473
10.493652
10.498595
10.404553
10.407146
10.336206
10.33525
10.307811
10.304919
10.309881
10.309409
10.326289
10.386149
10.465345
10.446099
10.426098
10.454307
10.471482
10.389575
10.329985
10.31028
10.30909
10.305616
10.306791
10.307951
10.332629
10.331747
10.402667
10.41456
10.507957
10.488177
10.448274
10.483984
10.566865
10.485646
10.482473
10.594305
10.790958
10.736379
10.741403
10.537775
10.462649
10.466801
10.519409
10.47592
10.511535
10.450605
10.413794
10.350494
10.328332
10.306209
10.305641
10.305824
10.308262
10.309889
10.327181
10.392627
10.480143
10.463219
10.440228
10.462496
10.480062
10.387837
10.324349
10.310528
10.309118
10.331242
10.328485
10.402134
10.399643
10.49447
10.511633
10.515429
10.55907
10.526966
10.456269
10.465342
10.450944
10.485795
10.495271
10.477326
10.482914
10.498414
10.50229
10.406286
10.40476
10.331611
10.346068
10.406005
10.497762
10.47769
10.441157
10.473433
10.506581
10.444333
10.409347
10.512714
10.501523
10.482539
10.484064
10.452833
10.455138
10.508379
10.496631
10.565191
10.535937
10.487437
10.730714
10.737202
10.685474
10.693884
10.366802
10.379221
10.24917
10.258932
10.293013
10.291738
10.41556
10.399256
10.641912
10.720169
10.673225
10.680529
10.691163
10.494797
10.51202
10.428081
10.43187
10.42433
10.413071
10.479996
10.465445
10.694995
10.690199
10.671466
10.689042
10.511208
10.555964
10.503939
10.516942
10.537535
10.530391
10.594798
10.558735
10.717867
10.679755
10.640964
10.376883
10.39657
10.286984
10.292801
10.2835
10.272491
10.365805
10.348153
10.652978
10.642331
10.554734
10.63293
10.659098
10.437161
10.244544
10.487413
10.41818
10.167641
10.428952
10.410812
10.411669
10.422967
10.393439
10.436539
10.347447
10.248866
10.346177
10.446285
10.530704
10.465877
10.36245
10.370466
10.482704
10.497295
10.383239
10.378572
10.485441
10.54221
10.458678
10.468558
10.53348
10.48737
10.495034
10.450229
10.480441
10.464886
10.511344
10.441684
10.452119
10.347267
10.246134
10.252196
10.240465
10.233268
10.137768
10.381986
10.467042
10.399494
10.436833
10.29142
10.219666
10.382585
10.512335
10.548497
10.505085
10.376529
10.474543
10.384996
10.268541
10.444776
10.460228
10.297141
10.164959
10.415683
10.492985
10.486003
10.420427
10.471866
10.426024
10.381893
10.252777
10.152592
10.370843
10.394455
10.273978
10.437748
10.469154
10.445206
10.414775
10.391441
10.399358
10.412924
10.147412
10.398719
10.473666
10.230773
10.32827
10.429317
10.408811
10.418362
10.401009
10.405139
10.433695
10.424083
10.255087
10.242228
10.151146
10.360394
10.373043
10.453199
10.374156
10.368476
10.381571
10.320092
10.339774
10.329222
10.390022
10.32544
10.277901
10.276541
10.328596
10.388268
10.265202
10.438875
10.442955
10.275342
10.1698
10.40187
10.478731
10.473093
10.382561
10.387561
10.337048
10.283915
10.319635
10.314548
10.300023
10.310546
10.271922
10.314469
10.323652
10.27998
10.316909
10.302312
10.277024
10.270533
10.277764
10.303288
10.30314
10.282068
10.253319
10.2449
10.240183
10.28592
10.273215
10.266566
10.257208
10.16429
10.192269
10.171484
10.18427
10.257677
10.221184
10.22973
10.186679
10.20327
10.219231
10.199339
10.161788
10.189082
10.035206
10.193351
10.180381
10.198113
10.183383
10.305786
10.329238
10.314793
10.31968
10.337138
10.176244
10.449157
10.437818
10.522055
10.268181
10.477573
10.454577
10.468864
10.433919
10.423775
10.449504
10.278098
10.171713
10.271556
10.447674
10.477397
10.478806
10.401465
10.393016
10.429092
10.314003
10.486122
10.474795
10.291863
10.182223
10.409112
10.511907
10.508682
10.404833
10.385956
10.386373
10.33679
10.332124
10.275529
10.278593
10.310765
10.311473
10.338239
10.290788
10.342691
10.36222
10.439093
10.407255
10.345797
10.336559
10.282714
10.270114
10.273778
10.296561
10.297868
10.298493
10.298884
10.276886
10.271847
10.286879
10.323531
10.321017
10.387197
10.393082
10.342931
10.414123
10.405662
10.439429
10.414212
10.516697
10.424471
10.563411
10.495511
10.466528
10.341096
10.264376
10.428011
10.564379
10.594967
10.519173
10.482055
10.445646
10.299791
10.192736
10.325753
10.494588
10.519185
10.491352
10.464099
10.445898
10.285043
10.187187
10.292184
10.463857
10.492634
10.48354
10.388479
10.319605
10.2989
10.29799
10.30062
10.300531
10.31468
10.377664
10.46435
10.387358
10.262291
10.160507
10.2543
10.429663
10.462063
10.379311
10.410747
10.291092
10.453894
10.485797
10.48405
10.440352
10.265452
10.163852
10.381344
10.34802
10.328979
10.323347
10.328084
10.280292
10.275082
10.308194
10.369418
10.386928
10.328937
10.282578
10.329915
10.387955
10.420415
10.493183
10.513469
10.562423
10.527435
10.524312
10.388309
10.227953
10.481573
10.559091
10.52873
10.439293
10.453774
10.299784
10.387909
10.273541
10.391118
10.167876
10.420422
10.499765
10.472202
10.406608
10.454465
10.302796
10.266486
10.392235
10.33101
10.27879
10.27028
10.274652
10.278053
10.274311
10.300546
10.300526
10.31717
10.317711
10.281497
10.336507
10.389
10.387555
10.482201
10.483453
10.400857
10.167097
10.278333
10.412442
10.448809
10.45381
10.452005
10.479285
10.384484
10.313189
10.296176
10.269999
10.275981
10.274164
10.266824
10.292242
10.316101
10.277718
10.284955
10.336125
10.331358
10.384401
10.395544
10.330404
10.311561
10.272161
10.276509
10.331142
10.323417
10.379204
10.39343
10.330332
10.281956
10.334483
10.352379
10.425879
10.490579
10.494752
10.476099
10.394025
10.405227
10.177358
10.281411
10.424353
10.45365
10.444011
10.268576
10.301344
10.419313
10.173115
10.391695
10.271596
10.409709
10.466663
10.445694
10.516075
10.557216
10.493078
10.496378
10.473881
10.387482
10.398156
10.165139
10.274773
10.415407
10.443863
10.264961
10.299771
10.417636
10.168544
10.392264
10.273764
10.407457
10.471022
10.452869
10.524128
10.426166
10.391806
10.486156
10.235809
10.378241
10.430482
10.443513
10.289518
10.410405
10.325166
10.34211
10.315262
10.337866
10.359431
10.349436
10.370161
10.362973
10.373036
10.33547
10.201616
10.199984
10.035593
10.041149
9.9383101
10.121334
9.9893704
10.573093
10.88844
11.032388
11.130302
11.213448
11.072001
11.090921
10.996284
11.151903
11.148817
11.048252
11.055497
10.889564
10.842892
10.859078
10.890055
10.928993
10.664936
10.663396
10.586561
10.614946
10.710844
10.897411
10.746387
10.780837
10.80758
10.954556
11.102957
11.09388
10.947711
10.941035
10.924072
10.866316
10.867435
10.869097
10.653403
10.671356
10.885933
11.050234
11.060915
11.069032
11.061015
11.012838
11.156764
11.140569
10.973691
11.014183
11.006183
10.840246
10.660084
10.744639
10.866665
11.028758
11.133994
11.010688
10.889539
10.818995
10.725292
10.664135
10.665039
10.730497
10.837275
10.925777
11.017035
11.225054
11.20415
11.191691
11.238134
11.106975
11.005561
10.895135
10.841676
10.830678
10.885097
10.998231
11.098512
11.271167
11.189895
11.185315
11.293253
11.297588
11.36667
11.342857
11.317807
11.340076
11.359607
11.197364
11.064584
10.973642
11.118434
11.085664
11.104247
11.121771
11.113774
11.149
11.145677
11.111944
11.077146
11.035556
10.987479
11.073201
11.140503
11.188524
11.118684
11.169382
11.141196
11.085988
10.95094
11.049467
11.085295
10.96503
11.042197
11.015036
10.970393
11.009618
11.023162
10.984157
10.925905
10.93255
10.934885
10.871251
10.905196
10.997779
11.019067
10.915573
10.925471
11.021337
10.994421
10.978125
10.998924
10.980271
10.867023
10.883345
10.876488
10.853044
10.846725
10.975553
10.960507
10.873625
10.866413
10.840899
10.549953
10.6016
10.736691
10.852139
10.986508
11.018913
11.113798
11.137592
11.159135
11.051701
11.03434
10.928813
11.02867
11.043408
10.944837
10.908031