/*--------------------------------*- C++ -*----------------------------------*\
  =========                 |
  \\      /  F ield         | OpenFOAM: The Open Source CFD Toolbox
   \\    /   O peration     | Website:  https://openfoam.org
    \\  /    A nd           | Version:  7
     \\/     M anipulation  |
\*---------------------------------------------------------------------------*/
FoamFile
{
    version     2.0;
    format      ascii;
    class       volScalarField;
    location    "10";
    object      nut;
}
// * * * * * * * * * * * * * * * * * * * * * * * * * * * * * * * * * * * * * //

dimensions      [0 2 -1 0 0 0 0];

internalField   nonuniform List<scalar> 
24866
(
8.0135225
8.0104637
8.0109102
8.186528
8.3437592
8.3414063
8.3368666
8.3413473
8.3406271
8.3353969
8.3354653
8.3355006
8.3354176
8.3406501
8.3414254
8.3368333
8.341236
8.3427158
8.3419171
8.3371848
8.3266851
8.3412608
8.3719163
8.3598225
8.3338862
8.3297395
8.3377986
8.3619587
8.3568463
8.330013
8.3394907
8.3427925
8.3427872
8.3394928
8.3300661
8.3569027
8.3620657
8.3378955
8.3296344
8.3337081
8.359772
8.371881
8.341254
8.3266844
8.3372111
8.3419781
8.3427327
8.3413099
8.3368465
8.3413566
8.3407319
8.3355107
8.335462
8.3354758
8.3354767
8.3406248
8.3412343
8.3367481
8.3413599
8.343816
8.3479175
8.3442207
8.3478941
8.344439
8.3375757
8.3402868
8.3465736
8.3432793
8.3351204
8.3348223
8.3348468
8.3351177
8.3433053
8.3466228
8.3402921
8.3374382
8.3439247
8.3468627
8.3429404
8.3445187
8.3390898
8.3309495
8.3291033
8.3400451
8.3437973
8.3498231
8.3348958
8.329926
8.3385365
8.3503384
8.3436784
8.3386574
8.3373471
8.3382086
8.336588
8.3339637
8.3366593
8.3354242
8.3391518
8.3366094
8.3343317
8.3339593
8.3340513
8.3346598
8.3353422
8.335335
8.3351834
8.3381611
8.3372709
8.3374247
8.3340664
8.3415518
8.3457668
8.3431145
8.3384172
8.335902
8.3349771
8.3344274
8.3347434
8.3350383
8.3349716
8.3344798
8.3348467
8.3341137
8.3336793
8.3343609
8.3364839
8.3339253
8.3331736
8.3333683
8.3342275
8.3350695
8.3355662
8.3353315
8.3354201
8.3351321
8.334746
8.3351861
8.3349769
8.3372748
8.3384178
8.3340751
8.3415499
8.3457583
8.2453593
8.2413758
8.1801989
8.1778695
8.1861666
8.1861629
8.1778988
8.1727529
8.1512246
8.2669048
8.2707066
8.161492
8.1775792
8.1752753
8.1736716
8.1548014
8.1101446
8.1209692
8.1617503
8.1764624
8.1850263
8.1842065
8.1818806
8.1759445
8.1775261
8.1749672
8.1697786
8.1610145
8.1609854
8.1698115
8.1749474
8.1772995
8.1763922
8.1816144
8.182301
8.1906755
8.2467806
8.2444288
8.1816299
8.1255493
8.1914356
8.1846976
8.1728547
8.3396511
8.3361888
8.3396641
8.3366531
8.3343089
8.33644
8.3339
8.3331425
8.3333267
8.3341632
8.3349807
8.335459
8.3355715
8.3356689
8.3354244
8.3350456
8.335342
8.3373569
8.3381696
8.3436923
8.3374383
8.1762637
8.2041874
8.2144806
8.2670074
8.1513152
8.1727136
8.0140182
8.0064259
8.0114761
8.0113762
8.0063574
8.0139556
7.9928472
7.9969866
8.0061145
8.0197889
8.0046568
7.990139
7.9731795
7.983233
8.0016125
8.0057491
8.0103137
8.0085276
8.0106321
8.0153422
8.0023729
7.9997593
8.0091246
7.9983313
7.998406
8.0092449
7.9997475
8.0021951
8.0158474
7.8648948
7.8641363
7.8638734
7.8645129
7.8643987
8.0102883
8.1813069
8.1764941
8.1771678
8.1750207
8.1697588
8.1609947
8.1610037
8.169918
8.1747236
8.177657
8.175955
8.1821245
8.1841873
8.1852194
8.1764675
8.1618406
8.1211239
8.2346506
8.2809462
8.2695989
8.1549764
8.1737005
8.1753344
8.1775486
8.1614495
8.2707422
8.2251307
8.1763357
8.1656292
8.1411102
8.2067371
8.1978588
8.2125224
8.2446629
8.3503833
8.3385977
8.3299069
8.3386645
8.343788
8.33822
8.335358
8.3349854
8.3353424
8.3348593
8.3350768
8.3349854
8.3345711
8.3339521
8.3335931
8.3343868
8.3338141
8.3339548
8.3341702
8.334237
8.3341295
8.3339793
8.334495
8.3346761
8.336603
8.3400362
8.3291091
8.3339908
8.3340765
8.335449
8.3343529
8.3336966
8.3333782
8.3333353
8.3335993
8.3343827
8.3366469
8.3343154
8.3331551
8.3331869
8.3343772
8.3366336
8.3391934
8.3429694
8.3366916
8.3309758
8.3391211
8.3445768
8.2439155
8.1886062
8.1776239
8.2393182
8.178573
8.1888114
8.122877
8.01309
8.005732
8.0018109
7.9834414
7.9736239
8.1102371
8.1349782
8.1547579
8.2030956
8.2027456
8.2168153
8.199498
8.1328464
8.1639922
8.0049739
7.9904227
8.0047054
8.0198071
8.006186
7.9967896
7.9930653
7.8571373
7.8653151
7.8614962
7.8656187
7.8655394
7.8613719
7.8652338
7.8566017
7.856922
7.8596915
7.8730269
7.8576501
7.8482126
7.8440027
7.8545348
7.8556384
7.8603342
7.8640073
7.8624489
7.8646406
7.8642821
7.8549303
7.8516714
7.8600326
7.8509103
7.8508736
7.860099
7.8518304
7.854849
7.733713
7.7384959
7.7448273
7.7467847
7.7466923
7.7439972
7.7387554
7.8648574
8.0159385
8.0019888
7.9998733
8.0090299
7.9983237
7.9984262
8.0092141
7.9995251
8.0025481
8.0152633
8.0110008
8.0085417
8.0103715
7.864695
7.8606818
7.8560629
7.8550836
7.8445056
7.8488592
7.8579652
7.8732012
7.8599496
7.8570109
7.7433829
7.7434429
7.7421548
7.7438366
7.7494139
7.7494497
7.7437048
7.7421562
7.7429838
7.7426692
7.739912
7.7497143
7.7363684
7.7316572
7.7348861
7.7432057
7.7345498
7.7426692
7.7477856
7.7460478
7.7450947
7.7382924
7.7336423
7.7301804
7.7331057
7.7236291
7.7236236
7.7332316
7.7302893
7.6375219
7.6402313
7.6411317
7.6542049
7.6598525
7.6594688
7.6526201
7.6392861
7.6395962
7.6368353
7.7304093
7.8517487
7.8597946
7.8508221
7.8508771
7.8599119
7.8513079
7.8549105
7.8640787
7.8649959
7.86248
7.7466908
7.748187
7.7430558
7.7352707
7.7442599
7.7357093
7.7326403
7.7367923
7.7500212
7.740257
7.6490345
7.6559015
7.6559351
7.6482149
7.6560509
7.6642155
7.6642207
7.6556495
7.6478261
7.6553627
7.6551217
7.6478906
7.6526401
7.6415118
7.6413568
7.650279
7.656275
7.6421078
7.6544823
7.6622027
7.6606919
7.6551632
7.6412687
7.6406966
7.6369441
7.6332195
7.6223562
7.6222926
7.6336029
7.5668094
7.5767267
7.5799074
7.5769083
7.5970847
7.6069794
7.6067056
7.5950781
7.5735818
7.5760607
7.5723746
7.5646408
7.6324917
7.7325576
7.7233558
7.7234686
7.7327949
7.7296917
7.733337
7.7379748
7.7454559
7.6555716
7.6607311
7.6627914
7.6550847
7.6431541
7.6578676
7.651411
7.6425944
7.6423213
7.6532914
7.5878269
7.5879352
7.5996524
7.5991526
7.5871504
7.6022215
7.6139764
7.613964
7.6015223
7.5865488
7.5983468
7.5981934
7.5865485
7.5856994
7.5768795
7.5812474
7.5955005
7.5997568
7.5823006
7.6006682
7.611738
7.6099705
7.5992374
7.5782156
7.5811061
7.5769294
7.5663675
7.5525178
7.5524024
7.5191752
7.5363831
7.553779
7.5568407
7.5508179
7.578051
7.5925437
7.5919605
7.5748503
7.5462074
7.5512896
7.5464538
7.5289301
7.5159677
7.550937
7.6212356
7.6216349
7.6325396
7.6360002
7.6396346
7.6404525
7.5770681
7.5984249
7.6097715
7.6124722
7.6012284
7.5841787
7.6021889
7.5969536
7.5823088
7.5780302
7.5487501
7.5557311
7.5619449
7.5787884
7.5779359
7.5629765
7.5870111
7.6033783
7.6031882
7.5859701
7.5626908
7.57773
7.5772019
7.559932
7.553975
7.5461953
7.5551864
7.5754778
7.5790047
7.5603726
7.5856123
7.6009658
7.5994334
7.5827286
7.5531234
7.559172
7.5542434
7.5362648
7.5186051
7.5244838
7.5238581
7.5463789
7.5707162
7.5736354
7.5647138
7.5996826
7.6191575
7.6186217
7.5949537
7.5577741
7.5668745
7.5619093
7.535163
7.5125901
7.5194874
7.5160191
7.5508484
7.564836
7.5750925
7.57867
7.5561985
7.5504428
7.5819662
7.599304
7.6016871
7.5858681
7.5614867
7.5820446
7.5770208
7.5569292
7.5689907
7.5543321
7.5616513
7.5727128
7.595823
7.5948746
7.5778916
7.6122308
7.6339641
7.6337943
7.6112195
7.5784335
7.5948797
7.5935265
7.5704393
7.5586427
7.5520164
7.5662198
7.5928252
7.5965498
7.5776652
7.6116369
7.6315527
7.6298652
7.6068766
7.5680222
7.5776122
7.5714946
7.5457276
7.5991452
7.5706636
7.5692133
7.5970858
7.628159
7.6311869
7.6197715
7.6646682
7.688899
7.6857511
7.6556493
7.6096907
7.6207669
7.6152592
7.5822814
7.5536522
7.5546306
7.5900668
7.5414885
7.532988
7.5508858
7.5669793
7.5720931
7.5644804
7.6065483
7.6298967
7.6322282
7.6116822
7.5798349
7.600373
7.5941856
7.6515567
7.6167938
7.599309
7.6065863
7.6242233
7.6521813
7.6518675
7.6352471
7.6798849
7.7079698
7.709207
7.6803518
7.6353458
7.6529669
7.6500687
7.6198949
7.6028799
7.5961962
7.6156843
7.6494928
7.6544307
7.6367232
7.6790991
7.7038951
7.7017549
7.6729664
7.6268245
7.6389463
7.6312217
7.7308902
7.688016
7.6570471
7.6571649
7.6880688
7.7272474
7.7302609
7.7148244
7.7669682
7.7964187
7.7953132
7.7578831
7.6995068
7.7123711
7.7053255
7.6669052
7.6369709
7.6356077
7.669591
7.7197819
7.6223884
7.630206
7.6224058
7.6728486
7.7024793
7.7060813
7.6799074
7.6379703
7.6575647
7.7545332
7.7433326
7.7023046
7.6819077
7.6883982
7.7131302
7.746219
7.746976
7.7309076
7.7861302
7.8204836
7.8226217
7.7879516
7.731478
7.7480696
7.7432393
7.7068291
7.6836704
7.6778289
7.7034704
7.7440167
7.7506185
7.7338754
7.7853299
7.8150087
7.8125217
7.7781761
7.7245088
7.7380512
7.872756
7.8609035
7.8133562
7.7782735
7.7798618
7.8148559
7.8598222
7.8628478
7.8444851
7.9042691
7.9375379
7.935485
7.892716
7.8265799
7.8373374
7.8282215
7.78431
7.7526343
7.7555399
7.79243
7.8451462
7.862344
7.7269019
7.7189668
7.7779335
7.8133797
7.8180361
7.7858773
7.7337314
7.8655319
7.8823285
7.871112
7.8257603
7.7999812
7.808819
7.8362087
7.8749416
7.8772986
7.8621708
7.9280913
7.9685202
7.9717655
7.931562
7.8635972
7.8792474
7.8719046
7.8288843
7.801488
7.7969386
7.826368
7.874912
7.8829595
7.8649847
7.9262093
7.9600376
7.9568971
7.9174138
7.8559979
8.0189267
8.032292
8.0202096
7.9664964
7.9296218
7.9332327
7.9705482
8.0189542
8.0223501
8.0033816
8.0684124
8.104955
8.1036799
8.0550333
7.9798262
7.9898396
7.979264
7.9330387
7.8977783
7.9006216
7.9447295
8.0032058
8.0198003
8.0138665
7.8503716
7.9213573
7.9609351
7.9624152
7.9250427
8.0942327
8.022412
8.0394248
8.0255951
7.9763719
7.9467242
7.9574756
7.987269
8.0313306
8.0355072
8.0221717
8.0958607
8.140631
8.1438501
8.0998792
8.0237499
8.0357159
8.025925
7.9789646
7.9465738
7.9437063
7.9777526
8.0312212
8.0414564
8.0267698
8.0936831
8.1308752
8.1264961
8.0832699
8.2709016
8.1978658
8.2104745
8.1961726
8.1399243
8.1015678
8.106402
8.1452722
8.1975516
8.2012258
8.18271
8.252922
8.2891921
8.2816816
8.2300964
8.1515307
8.1611486
8.1490922
8.0998287
8.0602574
8.0660841
8.1167458
8.1830088
8.2011162
8.1929397
8.2726773
8.0879454
8.1319092
8.1343343
8.3178397
8.2748778
8.2044082
8.2192317
8.2027789
8.1476954
8.1199303
8.1302389
8.1635048
8.210993
8.2167685
8.2027622
8.2826842
8.3301179
8.3329946
8.2864206
8.2040496
8.2126368
8.2002171
8.1500959
8.1148879
8.1118163
8.1493381
8.2058902
8.2176586
8.2052134
8.2774234
8.3178156
8.3145462
8.5077669
8.4624375
8.3886165
8.3982944
8.3829928
8.328489
8.2889823
8.2905298
8.3347179
8.3845726
8.3888416
8.3711236
8.4414195
8.4745338
8.4649001
8.4130523
8.3341857
8.3469938
8.3317433
8.2756207
8.2326817
8.2381183
8.2918026
8.3631295
8.3886762
8.3830302
8.4609811
8.5037635
8.3168111
8.2851046
8.2193163
8.2850337
8.1788009
8.1394038
8.2138252
8.1692226
8.147082
8.1600475
8.1820991
8.2216158
8.405388
8.3964591
8.4040485
8.3934044
8.4754891
8.5226041
8.5235772
8.4768081
8.3929446
8.3954623
8.380987
8.3314232
8.2931823
8.2919757
8.3325511
8.3900701
8.4025442
8.3917673
8.4707973
8.5126396
8.6982442
8.696977
8.6540514
8.5781414
8.5858124
8.5688877
8.5137725
8.4752292
8.4789004
8.5213388
8.569793
8.5759833
8.5634557
8.6264763
8.6547664
8.6423875
8.5941094
8.5214085
8.5291125
8.5112316
8.4527277
8.4082041
8.4108326
8.4635982
8.5365918
8.5653158
8.5648839
8.6411611
8.6877379
8.6847585
8.5043424
8.4619491
8.3927311
8.4050024
8.3865944
8.3293115
8.3034596
8.3126967
8.3476132
8.5355037
8.5814123
8.5918186
8.5845217
8.6667478
8.7120257
8.710897
8.6642911
8.5815812
8.5789469
8.562638
8.5149368
8.476538
8.4756043
8.5167934
8.5715438
8.5847787
8.5786679
8.6549389
8.8250631
8.8664712
8.8683958
8.8298332
8.7579782
8.7648466
8.7456
8.6905412
8.6548034
8.6563963
8.698683
8.7448888
8.7529063
8.7433899
8.7985953
8.8232974
8.8131786
8.7679603
8.6989744
8.7041981
8.6851096
8.6286836
8.5807069
8.5779868
8.6297012
8.6970811
8.726205
8.7283436
8.8008859
8.8429865
8.8531473
8.8164738
8.6477852
8.5805947
8.5899397
8.571065
8.5159196
8.4899987
8.4988854
8.6745813
8.7086268
8.7564601
8.7689222
8.7656201
8.8463518
8.887375
8.8808305
8.8356667
8.7595289
8.7503279
8.7331317
8.6907719
8.6520034
8.6537596
8.6942433
8.7468109
8.7583366
8.7516018
8.9093022
8.9769001
9.0163354
9.0195999
8.987849
8.9272301
8.9292225
8.9092894
8.8574116
8.8200842
8.8199057
8.8607101
8.9045346
8.9144466
8.9065161
8.9556588
8.975482
8.9626716
8.9230271
8.8627116
8.8666485
8.8458839
8.7880582
8.7389726
8.7333099
8.7807705
8.8425084
8.8696975
8.8731722
8.9350233
8.9750589
8.9876054
8.9692183
8.9112923
8.7550121
8.7619028
8.7429539
8.6907662
8.6649202
8.8264472
8.8335821
8.8681791
8.9132655
8.9295028
8.9345312
9.0099271
9.0453145
9.0330295
8.9913114
8.9229803
8.9079098
8.890008
8.8539821
8.8171328
8.8209668
8.862334
8.9076716
8.9174039
9.0582067
9.0487371
9.1093571
9.1441703
9.148259
9.1235524
9.0730212
9.0732534
9.053059
9.0028845
8.9690078
8.9650281
9.0046218
9.0476428
9.0582614
9.0506619
9.0931946
9.1082654
9.0931351
9.0579494
9.0045665
9.0076947
8.9859619
8.9304104
8.8822
8.8762156
8.9132332
8.965069
8.9884486
8.990708
9.0440255
9.0806367
9.0950299
9.0857001
9.0514657
9.0478324
8.9165964
8.8977771
8.8494436
8.9903478
8.9685215
8.974463
9.0058631
9.0492354
9.0687323
9.0787046
9.1469535
9.1774623
9.1656354
9.128341
9.0670052
9.0442241
9.0262829
8.9985345
8.9633574
8.9709642
9.0095031
9.0506885
9.1686424
9.1751331
9.1681276
9.219599
9.2506494
9.2560139
9.2373637
9.1949241
9.1950192
9.1741651
9.1248577
9.0929626
9.0899328
9.1277894
9.1656301
9.177828
9.1742401
9.2086921
9.2185914
9.2000724
9.1690228
9.1246946
9.1266683
9.1051679
9.053286
9.0080576
8.9978989
9.0246674
9.0669033
9.0857629
9.0865775
9.1310703
9.1626183
9.1778498
9.1783397
9.1572034
9.16546
9.1447025
9.0314306
9.0153224
8.9783429
8.956794
8.9649222
8.9921872
9.0408116
9.1593159
9.1650063
9.1871184
9.200225
9.2619015
9.288759
9.2781914
9.2451475
9.1901577
9.1615841
9.1431225
9.1237454
9.0919658
9.1020903
9.1361458
9.2389165
9.2638686
9.2690938
9.2633121
9.3063174
9.3333273
9.3415014
9.3293573
9.2945444
9.2911564
9.2691886
9.2215327
9.1957205
9.1946061
9.2269205
9.2617754
9.2759967
9.2768349
9.3053987
9.3096957
9.2864403
9.2584271
9.2216532
9.2234697
9.2040754
9.1576432
9.1169638
9.1016789
9.1187284
9.1508449
9.1652728
9.1642476
9.1990423
9.2242852
9.2394482
9.2467311
9.239847
9.2511529
9.2471678
9.2157637
9.1130014
9.0919413
9.0962623
9.1230343
9.2211205
9.25973
9.2829333
9.2987043
9.3547592
9.3776226
9.3665267
9.3383229
9.2917613
9.2567181
9.2384927
9.227217
9.1988496
9.2122008
9.3031818
9.3211778
9.3371308
9.3407772
9.3371156
9.3729723
9.3961976
9.4056928
9.3990124
9.3730243
9.3660116
9.343238
9.297726
9.2783138
9.2795307
9.3059213
9.3379984
9.3544689
9.3598413
9.3832143
9.3824596
9.3562069
9.3304462
9.2988673
9.3022533
9.2863966
9.2460709
9.207997
9.1891056
9.1977022
9.2198179
9.2302275
9.2281295
9.2522068
9.2722145
9.2869591
9.2977596
9.2999785
9.312179
9.3135968
9.3061576
9.2832145
9.1983784
9.2006642
9.2836028
9.2972494
9.3327128
9.3576032
9.3768917
9.4257045
9.4457419
9.4364378
9.4123453
9.3707681
9.3339757
9.3170972
9.312907
9.2882065
9.3593103
9.3766891
9.3868827
9.393489
9.3959195
9.393413
9.4224784
9.442271
9.4506261
9.449063
9.4330086
9.4229752
9.3990908
9.3553037
9.3423355
9.3443011
9.3649616
9.3946656
9.4141633
9.4257455
9.4449695
9.4400393
9.4125645
9.3882496
9.3608247
9.3645591
9.3505934
9.3148575
9.2812148
9.2618984
9.2628232
9.2758623
9.2818498
9.2774061
9.2933949
9.3080945
9.3232925
9.3353191
9.341059
9.3541921
9.361125
9.3641964
9.3611214
9.3488379
9.356087
9.3857334
9.4111722
9.4329455
9.4770068
9.4952515
9.4887874
9.4689988
9.4315213
9.3960127
9.3812654
9.3818704
9.4367177
9.4171569
9.4336563
9.4377616
9.4344957
9.4346829
9.4329469
9.4604834
9.4772231
9.4834536
9.4863837
9.478445
9.4663477
9.4412975
9.3992024
9.3915031
9.394248
9.4097295
9.4378193
9.4605265
9.4769277
9.4935848
9.4859234
9.4575568
9.4346467
9.4092689
9.4108196
9.3989317
9.3687711
9.3408963
9.3226398
9.3184881
9.3231712
9.325088
9.3186248
9.3272694
9.3372923
9.3514937
9.3634264
9.3697693
9.3830158
9.3939333
9.4060522
9.4102077
9.3995053
9.4002528
9.4250738
9.450533
9.4741505
9.5150742
9.5324113
9.5293922
9.5136541
9.4791183
9.4445425
9.4317246
9.4720592
9.4805877
9.4619477
9.4762763
9.4769453
9.4648291
9.4624937
9.4603663
9.487157
9.5017921
9.5063155
9.5129724
9.5129991
9.4999161
9.4741149
9.4348567
9.4318731
9.4332873
9.4455039
9.4716054
9.4962513
9.5148111
9.5282201
9.5193569
9.4910383
9.4687129
9.4463903
9.4476929
9.4384731
9.4131214
9.3895777
9.3751273
9.3674023
9.3662145
9.3644279
9.3553384
9.3587158
9.3652599
9.378593
9.388502
9.3920095
9.4045933
9.417437
9.434968
9.4466306
9.4390209
9.4347498
9.455058
9.4799114
9.5049508
9.54323
9.5600406
9.5611349
9.5483749
9.5149011
9.4823955
9.5149338
9.5082066
9.5182545
9.4994803
9.511441
9.5091883
9.4907234
9.4851358
9.4807417
9.5084782
9.522823
9.5249964
9.5346654
9.5416816
9.5284357
9.5025404
9.464755
9.4636702
9.4641893
9.4740873
9.4982925
9.5242965
9.5452683
9.5555271
9.5446713
9.5171433
9.4967429
9.4767571
9.4790389
9.4712222
9.4473544
9.4304274
9.421152
9.4136342
9.4085534
9.403142
9.3911779
9.3916335
9.3951164
9.4052487
9.4126041
9.4131743
9.424291
9.4380699
9.4582406
9.4757408
9.4717081
9.4640658
9.4805929
9.5050412
9.5292852
9.5666561
9.5839846
9.5848711
9.5735609
9.542231
9.5649776
9.5465143
9.5421681
9.5541904
9.5355221
9.5445021
9.5403404
9.5161712
9.5073551
9.4991954
9.5293654
9.5458315
9.5469837
9.558665
9.5686518
9.5576134
9.5306578
9.49212
9.4884495
9.4897515
9.4988564
9.5227001
9.5506365
9.5727183
9.5812611
9.5699509
9.5444724
9.5254433
9.5071426
9.510428
9.5025868
9.4785274
9.4667709
9.4630364
9.4574937
9.4521837
9.446243
9.4305525
9.4304048
9.4331336
9.4419244
9.445376
9.4395967
9.4519576
9.4662069
9.4847391
9.5020834
9.5010188
9.4917015
9.5079896
9.5316988
9.552358
9.5915899
9.6096287
9.6092599
9.5965818
9.6414396
9.5918197
9.5785486
9.5798116
9.5920132
9.572775
9.5786532
9.5742999
9.5457614
9.5322684
9.5228462
9.5734919
9.6013074
9.6026231
9.6033578
9.6040974
9.6069129
9.5821716
9.5277126
9.5145623
9.5151437
9.5306672
9.5686968
9.5947967
9.6061057
9.6251421
9.626854
9.6034229
9.5739439
9.546657
9.5619327
9.5560161
9.5162751
9.5023257
9.5024416
9.5055407
9.5164185
9.5080984
9.4809718
9.4945552
9.5108219
9.5187834
9.5073105
9.4844462
9.5139322
9.538333
9.540231
9.5360721
9.5311974
9.5270292
9.5545312
9.5736642
9.5838116
9.632307
9.6633253
9.664772
9.7979075
9.7473024
9.6088763
9.5995214
9.5928923
9.6163306
9.5996873
9.6031524
9.5953873
9.5556579
9.5498373
9.5398581
9.6832455
9.7418415
9.7474481
9.7287748
9.6562951
9.7208172
9.6970451
9.5695722
9.5399927
9.5403288
9.5705753
9.6784644
9.7017854
9.6549349
9.7385286
9.7620352
9.7474563
9.7017348
9.6013601
9.6731142
9.6680997
9.5582612
9.5365302
9.5389196
9.5576725
9.6434975
9.6324086
9.5445087
9.6429457
9.6822349
9.6821154
9.647241
9.5557061
9.6874535
9.7502733
9.6834284
9.5808668
9.5629557
9.5686691
9.6592544
9.6765289
9.629725
9.746153
9.7968719
9.8112312
9.809691
9.7545944
9.6195432
9.5298184
9.5350338
9.5380943
9.5316149
9.4994459
9.4783633
9.5494716
9.6909298
9.7633536
9.7690355
9.7519219
9.6900863
9.7323792
9.7069492
9.5884934
9.5466837
9.5473585
9.5875655
9.6862337
9.7115137
9.6854193
9.753833
9.7772101
9.7679733
9.7247734
9.6366322
9.686161
9.6790879
9.5775489
9.5494279
9.5541111
9.5852418
9.6639063
9.6531786
9.5906699
9.6836476
9.7212359
9.7207678
9.6825523
9.6075953
9.6096267
9.6641679
9.7156847
9.6058299
9.5762024
9.5894614
9.6695462
9.6855012
9.6591708
9.7595614
9.5827661
9.5850246
9.6618317
9.4691448
9.3515736
9.3128263
9.3127051
9.3192019
9.2896559
9.2809779
9.3483914
9.5568876
9.5275493
9.5371003
9.525248
9.3904183
9.2419567
9.1625373
9.1230335
9.1372522
9.1337196
9.1375296
9.2015194
9.320795
9.4807481
9.5929262
9.5962243
9.5884068
9.6845021
9.6777145
9.7312811
9.7146731
9.7390981
9.7361625
9.7478591
9.6574989
9.7205259
9.7375793
9.7004869
9.6619757
9.6711817
9.7361401
9.714218
9.5695133
9.5923107
9.4796686
9.4262327
9.4128812
9.4419964
9.4648787
9.4933407
9.5206454
9.5094981
9.4991923
9.5722918
9.5760166
9.6262552
9.6217471
9.6227942
9.6035834
9.5950811
9.4874582
9.4846359
9.6863685
9.6939427
9.7114113
9.7841198
9.7884851
9.7144547
9.7290039
9.6764923
9.6652541
9.7575063
9.6610343
9.6612497
9.7040471
9.6487654
9.6476687
9.5702655
9.5690235
9.528238
9.5438964
9.5114061
9.4693064
9.5556714
9.6199044
9.5950965
9.6191267
9.6051487
9.569557
9.6206045
9.5288224
9.4685708
9.5152073
9.4219882
9.520377
9.6256668
9.5659036
9.6269431
9.5723268
9.5513099
9.4916481
9.5344648
9.5683897
9.5265633
9.4051993
9.4855187
9.4641326
9.3611914
9.4268168
9.4649273
9.4330244
9.4060651
9.4172742
9.4551402
9.4822177
9.5153893
9.4030207
9.415416
9.4573978
9.3433344
9.4589865
9.4180633
9.3204963
9.2830159
9.3856036
9.3768786
9.2738859
9.3056676
9.3067104
9.0954065
9.1663188
9.3089143
9.4723958
9.5833326
9.5351437
9.437489
9.3351951
9.434194
9.5258334
9.5593324
9.5643661
9.5759206
9.5670665
9.5654218
9.5436027
9.5135444
9.4934094
9.516331
9.531853
9.5326522
9.5584145
9.5320654
9.5020881
9.3984034
9.4519063
9.4723469
9.457332
9.3151041
9.1294806
9.0002758
8.9391541
8.9434961
8.9572924
8.9539069
8.9894236
8.9868117
9.1466828
9.1555105
9.1787883
9.1871353
9.042361
9.0419726
8.9666064
8.9675251
8.9729448
8.9734357
9.039823
9.0392822
9.1866824
9.1868031
9.1874325
9.2344928
9.3424681
9.5135341
9.4932871
9.5196982
9.5203977
9.4802099
9.4831693
9.5338864
9.5045364
9.4660587
9.4815158
9.2977404
9.1639249
9.1308481
9.1282309
9.1386739
9.0270998
9.0381275
8.9881005
8.9921559
8.9988967
8.9906562
9.0273815
9.019183
9.1527495
9.1480206
9.1475048
9.142417
9.0034262
8.9050181
8.9515254
8.8978342
8.9102525
8.9027193
8.8996391
8.9112223
8.9245995
8.9523586
8.9515697
9.0036578
8.9580996
9.0481923
9.1380812
9.2772185
9.4108443
9.3637399
9.2569091
9.1143887
8.9996219
9.0595937
8.9694624
9.0360578
8.9498948
8.950909
9.0018173
8.951665
8.9524203
8.9268164
8.9251358
8.9207334
8.9186629
8.929684
8.9243679
8.9573752
8.8998877
8.8896658
8.9513542
8.9862723
8.9497411
8.947892
8.935119
8.9385
8.9394186
8.940368
8.9616578
8.9737382
9.0259738
9.00133
8.9564865
8.9327197
8.9693488
8.8854357
8.8846287
8.9965685
8.9721249
9.0877677
9.2380272
9.3800832
9.385328
9.2285106
9.1162975
9.0242844
8.9661414
8.8474582
8.8552642
8.9477425
8.9736579
8.9277308
8.9402988
8.9594187
8.970596
8.9783849
8.9134468
8.878427
8.8614228
8.8601624
8.8606173
8.8581867
8.8664483
8.8947632
8.9396397
8.908466
8.8759044
8.9117618
8.9291916
8.8597678
8.8112699
8.7986997
8.8006271
8.7952772
8.7979076
8.8217992
8.8808436
8.8646183
8.9515266
8.9498834
8.9368312
8.928795
8.9091933
8.922452
8.93857
8.9427806
8.8626752
8.864884
8.8044563
8.8036422
8.7802696
8.7778062
8.7820327
8.7816308
8.7960093
8.8469983
8.9144577
8.8980641
8.8810266
8.9050557
8.919686
8.8499169
8.7991575
8.7823728
8.7813585
8.7783992
8.7794004
8.7803888
8.8014095
8.8006585
8.8610688
8.8711994
8.9507555
8.9339067
8.8999172
8.9303346
9.0009341
8.9317514
8.929049
9.0243096
9.1918205
9.1453286
9.149608
8.9761551
8.9121616
8.9156987
8.9605107
8.9234662
8.9538033
8.9019023
8.8705465
8.816627
8.797749
8.7789044
8.7784205
8.7785771
8.7806533
8.7820392
8.796769
8.852516
8.9270634
8.9126469
8.8930632
8.9120316
8.9269938
8.8484363
8.794357
8.7825838
8.781383
8.8002283
8.7978795
8.8606145
8.8584925
8.9392674
8.9538864
8.9571204
8.9942939
8.9669477
8.9067273
8.9144557
8.9021913
8.9318779
8.9399496
8.9246636
8.9294232
8.9426265
8.945928
8.8641515
8.8628512
8.8005423
8.8128569
8.8639116
8.9420708
8.9249737
8.8938547
8.9213476
8.9495832
8.8965598
8.866759
8.9548076
8.945275
8.9291041
8.9304034
8.9038001
8.9057636
8.9511144
8.9411077
8.9995079
8.9745895
8.9332779
9.1405031
9.1460304
9.1019684
9.1091312
8.8305193
8.8410975
8.7303189
8.7386334
8.7676639
8.7665787
8.8720512
8.8581644
9.0648613
9.1315217
9.091534
9.0977556
9.1068136
8.9395465
8.954217
8.8827165
8.8859443
8.8795214
8.8699313
8.9269389
8.9145449
9.1100779
9.1059927
9.0900352
9.1050057
8.9535247
8.9916479
8.9473326
8.958409
8.9759498
8.969865
9.0247277
8.9940093
9.1295598
9.0970946
9.0640538
8.8391064
8.8558757
8.7625291
8.7674836
8.759561
8.7501836
8.8296699
8.8146345
9.074287
9.0652184
8.990602
9.0572103
9.0794995
8.8904513
8.7263776
8.9332556
8.8742822
8.6608702
8.883457
8.8680054
8.868736
8.8783601
8.8532075
8.8899212
8.8140324
8.7300598
8.8129502
8.8982233
8.9701318
8.9149108
8.8268121
8.8336393
8.929244
8.9416734
8.8445201
8.840545
8.9315761
8.9799328
8.9087788
8.917195
8.9724958
8.9332192
8.9397472
8.9015822
8.9273169
8.9140675
8.9536413
8.8943049
8.9031931
8.8138787
8.7277323
8.7328958
8.7229038
8.7167734
8.6354245
8.8434517
8.915903
8.8583652
8.890171
8.7663066
8.7051861
8.8439618
8.9544842
8.9852873
8.9483089
8.8388036
8.9222921
8.8460155
8.7468187
8.8969367
8.9100992
8.7711797
8.658586
8.8721551
8.938002
8.9320542
8.8761967
8.9200129
8.8809635
8.8433721
8.7333904
8.6480515
8.8339596
8.8540725
8.7514498
8.8909501
8.9177022
8.8973033
8.8713819
8.8515055
8.8582491
8.8698048
8.6436388
8.8577052
8.9215461
8.7146478
8.7976978
8.8837692
8.8663022
8.8744374
8.8596558
8.8631736
8.8874984
8.8793103
8.7353584
8.7244049
8.6468199
8.8250593
8.8358338
8.9041119
8.8367826
8.8319442
8.8430982
8.7907298
8.8074957
8.798507
8.8502968
8.7952857
8.7547912
8.7536326
8.7979741
8.8488027
8.7439746
8.8919104
8.8953858
8.7526113
8.6627096
8.8603893
8.9258604
8.9210574
8.8439419
8.8482007
8.8051734
8.7599142
8.790341
8.7860081
8.7736357
8.7825991
8.7496986
8.7859401
8.7937625
8.7565621
8.7880188
8.7755853
8.7540445
8.748515
8.7546746
8.7764164
8.7762905
8.7583409
8.7338523
8.7266804
8.7226626
8.7616216
8.7507999
8.7451359
8.7371644
8.6580159
8.6818491
8.6641444
8.6750353
8.7375639
8.7064793
8.7137584
8.6770872
8.6912202
8.7048153
8.6878716
8.6558854
8.6791338
8.5480613
8.6827703
8.6717219
8.6868266
8.6742792
8.7785434
8.7985201
8.7862154
8.790378
8.8052494
8.6681988
8.9006684
8.8910098
8.9627641
8.7465124
8.9248745
8.9052858
8.9174549
8.8876886
8.8790479
8.9009643
8.7549593
8.6643392
8.749387
8.8994053
8.9247238
8.9259238
8.8600441
8.852847
8.883577
8.7855433
8.9321554
8.922507
8.7666842
8.673292
8.866558
8.95412
8.9513723
8.8629136
8.8468339
8.8471889
8.8049534
8.8009786
8.7527705
8.7553805
8.7827856
8.7833885
8.8061881
8.7657688
8.80998
8.8266152
8.8920965
8.8649762
8.812626
8.8047569
8.7588909
8.7481581
8.7512796
8.7706861
8.7717996
8.7723324
8.772665
8.7539268
8.7496348
8.7624387
8.7936597
8.7915182
8.8478904
8.8529033
8.8101841
8.870826
8.863619
8.892382
8.8709016
8.9581992
8.8796405
8.9979914
8.9401536
8.9154652
8.8086217
8.74327
8.882656
8.9988155
9.0248711
8.9603092
8.9286914
8.8976777
8.7734371
8.6822464
8.7955524
8.939367
8.9603191
8.9366111
8.9133966
8.8978922
8.7608752
8.67752
8.7669576
8.91319
8.9377029
8.9299569
8.8489825
8.7903156
8.7726786
8.7719034
8.7741436
8.7740679
8.7861198
8.8397701
8.9136105
8.8480278
8.7414948
8.654794
8.7346875
8.8840636
8.911662
8.8411731
8.8679508
8.7660279
8.9047038
8.9318794
8.9303911
8.8931686
8.7441872
8.6576433
8.8429052
8.8145195
8.7982999
8.7935024
8.7975376
8.7568279
8.7523904
8.7805958
8.8327465
8.8476618
8.7982648
8.7587752
8.7990969
8.8485364
8.8761858
8.9381708
8.9554504
8.9971504
8.9673468
8.9646861
8.8488375
8.7122444
8.9282803
8.994311
8.9684494
8.892266
8.9046018
8.7734315
8.8484967
8.7510775
8.8512304
8.6610704
8.8761915
8.9437768
8.9202985
8.8644248
8.9051903
8.7759972
8.7450678
8.8521821
8.8000302
8.755549
8.7482994
8.7520238
8.754921
8.7517336
8.7740806
8.7740636
8.7882415
8.7887021
8.7578543
8.804712
8.8494265
8.8481954
8.9288156
8.9298824
8.8595259
8.6604075
8.7551595
8.8693942
8.9003722
8.9046321
8.9030943
8.9263319
8.8455801
8.7848505
8.7703582
8.7480606
8.7531562
8.7516081
8.7453559
8.7670072
8.7873311
8.7546354
8.7608001
8.804387
8.8003261
8.845509
8.855001
8.7995141
8.7834634
8.7499017
8.7536055
8.8001424
8.7935619
8.8410821
8.8531997
8.7994526
8.7582459
8.8029887
8.8182323
8.8808403
8.9359522
8.9395069
8.9236183
8.8537065
8.8632487
8.6691476
8.7577815
8.87954
8.9044962
8.8962852
8.7468486
8.7747601
8.8752471
8.6655332
8.8517215
8.749421
8.8670661
8.9155809
8.8977193
8.9576702
8.9927143
8.938081
8.9408923
8.9217293
8.8481335
8.8572258
8.6587393
8.7521272
8.8719202
8.8961591
8.7437688
8.7734205
8.8738184
8.6616399
8.8522064
8.7512676
8.8651481
8.9192935
8.9038308
8.9645297
8.8810847
8.8518165
8.9321844
8.7189365
8.8402616
8.8847609
8.8958608
8.7646871
8.8676595
8.795052
8.8094845
8.7866154
8.8058691
8.8242381
8.8157249
8.8333782
8.8272562
8.8358273
8.8038282
8.6898103
8.6884202
8.5483911
8.5531232
8.465524
8.6214246
8.5090172
9.006241
9.2748607
9.3974798
9.4808861
9.5517077
9.4312204
9.4473366
9.3667264
9.4992851
9.4966565
9.4109938
9.4171658
9.2758218
9.236065
9.2498512
9.2762361
9.3094027
9.0844735
9.0831617
9.0177125
9.0418927
9.1235823
9.2825039
9.1538581
9.1832018
9.2059808
9.331178
9.4575888
9.4498585
9.3253483
9.3196613
9.3052134
9.2560153
9.2569673
9.2583826
9.0746499
9.089943
9.2727239
9.4126784
9.4217765
9.4286915
9.4218627
9.3808272
9.5034262
9.4896307
9.347482
9.3819709
9.3751555
9.2338077
9.080342
9.1523674
9.2563125
9.3943856
9.4840261
9.3789926
9.2757961
9.2157051
9.1358864
9.083792
9.0845622
9.1403201
9.2312756
9.3066641
9.3843985
9.5615916
9.5437843
9.5331709
9.5727329
9.4610104
9.3746246
9.2805621
9.2350253
9.2256573
9.2720116
9.3683813
9.453802
9.6008702
9.5316417
9.5277403
9.6196822
9.6233751
9.6822199
9.6619361
9.6405987
9.6595679
9.6762039
9.5380081
9.4249058
9.3474402
9.4707762
9.4428653
9.4586945
9.473622
9.4668099
9.4968151
9.4939848
9.4652538
9.4356167
9.4001937
9.3592424
9.4322609
9.4895875
9.5304887
9.4709991
9.5141827
9.4901775
9.4431526
9.3281192
9.4120442
9.4425582
9.3401161
9.4058467
9.3827145
9.3446882
9.3780961
9.389633
9.3564124
9.3067936
9.3124544
9.3144429
9.2602388
9.2891475
9.3680117
9.3861404
9.2979824
9.3064089
9.3880703
9.3651426
9.3512656
9.3689812
9.3530884
9.25662
9.270524
9.2646873
9.244716
9.2393377
9.3490789
9.3362623
9.2622535
9.2561165
9.2343818
8.9865393
9.0305382
9.1456161
9.2439595
9.3584157
9.3860135
9.4668376
9.4871016
9.5054483
9.4139346
9.39915
9.3092603
9.3943204
9.4068706
9.3229053
9.2915521