/*--------------------------------*- C++ -*----------------------------------*\
  =========                 |
  \\      /  F ield         | OpenFOAM: The Open Source CFD Toolbox
   \\    /   O peration     | Website:  https://openfoam.org
    \\  /    A nd           | Version:  7
     \\/     M anipulation  |
\*---------------------------------------------------------------------------*/
FoamFile
{
    version     2.0;
    format      ascii;
    class       volScalarField;
    location    "170";
    object      nut;
}
// * * * * * * * * * * * * * * * * * * * * * * * * * * * * * * * * * * * * * //

dimensions      [0 2 -1 0 0 0 0];

internalField   nonuniform List<scalar> 
24866
(
7.9871355
7.9939631
7.9907858
8.1778771
8.34244
8.3402624
8.336201
8.3404646
8.3397339
8.3348703
8.3351306
8.3351673
8.3348938
8.3397677
8.3405475
8.3361861
8.3400876
8.3413815
8.3405199
8.335994
8.3259471
8.340359
8.3708345
8.3582262
8.3324997
8.3285499
8.3363989
8.3604137
8.3556675
8.3291457
8.3383246
8.3413921
8.3413931
8.3383329
8.3291933
8.355715
8.3605212
8.3364912
8.3284418
8.3323263
8.358159
8.3707893
8.3403494
8.3259497
8.3360188
8.3405699
8.3414015
8.3401627
8.3361954
8.3404709
8.3398509
8.3349903
8.335128
8.3351426
8.3349533
8.3397322
8.3403457
8.3360847
8.3402264
8.3424874
8.3463461
8.3431123
8.3463375
8.3430537
8.3368247
8.3395651
8.3453971
8.3420151
8.334427
8.3344147
8.3344391
8.3344308
8.3420668
8.3454462
8.3395725
8.3366941
8.3425454
8.3453011
8.3417845
8.342912
8.337668
8.3299889
8.3283386
8.33909
8.3427738
8.3480367
8.3326385
8.328703
8.3364108
8.3485094
8.3426931
8.3379986
8.3369822
8.3377791
8.3361347
8.3335112
8.3360501
8.3350034
8.3385973
8.3361764
8.3339798
8.3336445
8.3336961
8.3343288
8.3350399
8.3350421
8.3348628
8.3377238
8.336793
8.3364936
8.3331123
8.3401472
8.3441446
8.3419295
8.3378152
8.3354802
8.3346241
8.3341175
8.3344671
8.3347832
8.3347132
8.3341972
8.3345921
8.3338336
8.3333659
8.3340015
8.3360048
8.3335509
8.332843
8.3330735
8.3339658
8.3348381
8.3353571
8.3351048
8.3351934
8.3348855
8.3344706
8.3348677
8.3346264
8.3367969
8.3378182
8.3331203
8.3401505
8.3441465
8.2387928
8.2354673
8.1650566
8.1703747
8.1771268
8.1771237
8.1703664
8.1680426
8.1366847
8.2614392
8.2641287
8.1430927
8.1679658
8.1698923
8.1639899
8.1380045
8.0966436
8.1118258
8.157695
8.168836
8.1759798
8.1755517
8.1747241
8.172708
8.1718563
8.1691773
8.1670743
8.1591506
8.1591111
8.1670622
8.1690821
8.1715924
8.1731114
8.1744523
8.1675744
8.1752216
8.2404414
8.238721
8.1677431
8.103295
8.1763665
8.1780563
8.1699248
8.3391133
8.3357885
8.3391203
8.336225
8.3339466
8.3359588
8.333528
8.3328141
8.3330321
8.333902
8.334748
8.3352506
8.3353619
8.3354649
8.3351981
8.3347911
8.335051
8.33699
8.3377288
8.3427039
8.336504
8.1702162
8.1797998
8.2019915
8.2614965
8.1366384
8.1680224
8.0008547
7.9886461
7.9903557
7.990352
7.9886382
8.0008641
7.9665348
7.9658604
7.9851512
8.006159
7.9844738
7.9615816
7.9478302
7.9643314
7.9899559
7.9881486
7.9893655
7.9881995
7.9941961
8.0056311
7.9885322
7.986022
8.0009508
7.9921029
7.9921617
8.0010427
7.985998
7.9882801
8.006085
7.8414167
7.8316429
7.8254414
7.8256755
7.8313789
7.9936717
8.1741975
8.1732224
8.1714279
8.1691631
8.1670556
8.1591279
8.1591318
8.167194
8.1689371
8.1719935
8.1727216
8.1749448
8.1754874
8.1761251
8.1688124
8.1577348
8.1118735
8.2303159
8.2760796
8.2633094
8.1381029
8.1641246
8.1699918
8.1678302
8.1428759
8.2641617
8.2086385
8.1431594
8.1401221
8.1017471
8.1681591
8.1637739
8.19572
8.234489
8.3485552
8.3364455
8.3286825
8.3380038
8.3427635
8.337788
8.3350531
8.334726
8.3351142
8.3346056
8.3348465
8.3347517
8.3343156
8.333669
8.3332815
8.3340405
8.333503
8.3336716
8.3339088
8.3339768
8.3338497
8.3336654
8.3342145
8.3343471
8.3361493
8.3390853
8.3283483
8.3335361
8.3337205
8.335032
8.3340041
8.3333832
8.3330863
8.3330418
8.3332864
8.3340402
8.3362193
8.3339545
8.3328266
8.3328582
8.3340185
8.3362044
8.3386353
8.3418123
8.3360815
8.3300213
8.3377099
8.3429501
8.2372555
8.172398
8.1621117
8.2333943
8.1640301
8.1730706
8.0994356
7.9851884
7.9881127
7.9900029
7.9643729
7.9478597
8.096794
8.1228754
8.1330299
8.1837904
8.1918783
8.2021104
8.1662845
8.0995573
8.1359747
7.9686188
7.9616076
7.98449
8.0061798
7.9851344
7.9658568
7.9665531
7.8123592
7.8362578
7.8261058
7.8251505
7.8251474
7.8261009
7.8362684
7.8123484
7.8073367
7.8213869
7.8439422
7.8209395
7.8017342
7.79975
7.8185989
7.8287093
7.8253446
7.8239422
7.8231552
7.8317997
7.8409838
7.8266019
7.8238705
7.8402487
7.8349077
7.8348741
7.8402675
7.8239006
7.8264248
7.6804909
7.6913917
7.6851709
7.6789086
7.6790877
7.6849522
7.6915056
7.8415518
8.0062139
7.9881281
7.9861448
8.0008613
7.9921125
7.9922198
8.0011117
7.9859167
7.9887353
8.0055499
7.9944495
7.9881209
7.9895322
7.8240788
7.8253025
7.8287509
7.8186435
7.7997689
7.8017599
7.820973
7.8439752
7.8213522
7.8073115
7.6656861
7.6713636
7.6867358
7.6799578
7.6785365
7.6785335
7.6799544
7.6867446
7.6713548
7.6657079
7.6753454
7.6955554
7.6744097
7.65885
7.6621462
7.6796601
7.6816204
7.6790452
7.6772075
7.6768554
7.6851405
7.6909642
7.6805901
7.6782803
7.6919813
7.688677
7.6886988
7.6920765
7.6783485
7.5459961
7.547597
7.5548585
7.5515299
7.5460854
7.5462146
7.5513581
7.5549438
7.5474835
7.5460072
7.6784076
7.8240042
7.840137
7.8349279
7.8349406
7.8402852
7.8238251
7.8268323
7.8408867
7.8320263
7.8230825
7.6767966
7.6773083
7.679003
7.6816515
7.6797007
7.6621546
7.6588694
7.674444
7.6955894
7.6753132
7.5430172
7.5364761
7.5417796
7.5509679
7.5469091
7.5455849
7.5455816
7.5469063
7.5509743
7.5417732
7.5364952
7.5430456
7.5598194
7.5414263
7.5289907
7.5346256
7.5498882
7.5477608
7.5459218
7.5442372
7.5441872
7.551297
7.5544263
7.5476168
7.5458876
7.5563428
7.5543961
7.554445
7.5564818
7.4331728
7.4255231
7.4266074
7.4311118
7.4297453
7.4253982
7.4254877
7.4296131
7.4311691
7.4265025
7.4254886
7.4329226
7.5562458
7.6918767
7.6887021
7.6887619
7.6920584
7.6782806
7.6808193
7.6908765
7.6853237
7.5514383
7.5441423
7.5443062
7.5458821
7.5477815
7.5499222
7.5346284
7.5290053
7.5414598
7.5598525
7.4362393
7.4229311
7.4185058
7.4230273
7.4280221
7.4258169
7.424798
7.4247945
7.4258143
7.4280261
7.423023
7.4185225
7.4229553
7.4362085
7.4207002
7.4109346
7.4173042
7.4301553
7.4262453
7.4248493
7.4234801
7.4236089
7.429334
7.4306653
7.4265536
7.4253826
7.4330065
7.4319459
7.432012
7.3205085
7.3211466
7.3157106
7.316363
7.3189337
7.3187849
7.3155266
7.3155867
7.3186833
7.3189668
7.3162631
7.3156385
7.3208945
7.320441
7.4319603
7.5544181
7.5544965
7.556447
7.5459289
7.5478344
7.5543639
7.4306301
7.4294416
7.4235755
7.4235242
7.4248132
7.4262572
7.4301821
7.4173038
7.4109458
7.4207319
7.3109789
7.3238283
7.3136711
7.3106948
7.3143174
7.3165771
7.315538
7.3148696
7.3148662
7.3155352
7.3165789
7.3143148
7.3107095
7.3136911
7.3238001
7.3109496
7.3033947
7.3096981
7.3202944
7.3158127
7.3146484
7.3136006
7.313819
7.3182276
7.3184656
7.3162422
7.3155443
7.320964
7.3204324
7.2184998
7.2185808
7.2189367
7.2151399
7.2154519
7.2167289
7.2172848
7.2149795
7.2150187
7.2172055
7.216742
7.2153541
7.215039
7.2186892
7.2185044
7.2185995
7.3205353
7.4320495
7.4331288
7.4254579
7.4267572
7.3164324
7.318455
7.3183102
7.3137948
7.3136266
7.3146157
7.3158175
7.3203142
7.309696
7.3034036
7.2049108
7.2106954
7.2212492
7.2137121
7.21173
7.214482
7.2150079
7.2146578
7.2143057
7.2143024
7.2146548
7.2150079
7.2144805
7.2117428
7.2137284
7.2212237
7.2106685
7.2049037
7.2107803
7.2193972
7.2149332
7.2138762
7.2130935
7.2133402
7.216613
7.216235
7.2152709
7.2149516
7.2187446
7.1248404
7.124734
7.1248179
7.1250397
7.1224196
7.1224718
7.1229149
7.1238388
7.1223117
7.1223364
7.1237753
7.122912
7.122374
7.1222974
7.1247993
7.1247356
7.1248286
7.1249838
7.218884
7.3210971
7.3156464
7.2150736
7.2154497
7.216245
7.2166781
7.2133229
7.2131069
7.2138465
7.2149325
7.2194108
7.2107772
7.1193612
7.1140606
7.1184146
7.1270473
7.1216018
7.1202998
7.1222741
7.1217331
7.1217558
7.1216549
7.1216518
7.1217525
7.1217318
7.1222734
7.1203109
7.1216149
7.1270244
7.1183902
7.1140547
7.119365
7.1263
7.1221169
7.1210959
7.1205044
7.1207375
7.1230817
7.1223942
7.1222376
7.1222111
7.0361399
7.0379574
7.037905
7.0379904
7.0381619
7.036367
7.0362269
7.0361552
7.0372306
7.0363094
7.0363239
7.037178
7.0361394
7.0361278
7.0362295
7.0379298
7.0379045
7.0379936
7.0381027
7.0362855
7.1223472
7.1224069
7.1224207
7.1231352
7.1207254
7.1205091
7.1210687
7.122112
7.1263084
7.039913
7.0343718
7.0296705
7.0328931
7.0399433
7.0361234
7.0352814
7.0365946
7.0354258
7.0356161
7.0356958
7.0356929
7.0356126
7.0354235
7.0365944
7.035291
7.0361337
7.0399228
7.032871
7.0296656
7.034376
7.039909
7.0361071
7.0350807
7.0346107
7.0348031
7.0364135
7.0356093
7.0359467
6.9554533
6.9558056
6.9570706
6.9570292
6.9571152
6.957279
6.9560499
6.9557731
6.9554033
6.9564935
6.9560261
6.9560336
6.9564483
6.9553771
6.9556719
6.9559019
6.9570558
6.9570275
6.9571116
6.9572163
6.9559573
6.9556087
7.0361084
7.0356488
7.0364594
7.0347949
7.0346096
7.0350554
7.0360989
6.955906
6.9593164
6.954932
6.9508134
6.9531492
6.9589062
6.9563239
6.955787
6.9565587
6.9550495
6.9552778
6.9554743
6.9554716
6.9552741
6.9550465
6.9565587
6.9557952
6.956332
6.9588878
6.9531293
6.9508093
6.9549366
6.9593162
6.9559168
6.9548618
6.9544564
6.9545923
6.9556377
6.954835
6.8792692
6.8800265
6.8804886
6.881388
6.8813396
6.8814256
6.8815993
6.8807485
6.8803797
6.8798563
6.8808789
6.8807387
6.8807413
6.8808383
6.8798218
6.8802762
6.8805938
6.8813852
6.8813374
6.8814159
6.8815328
6.8806435
6.8801766
6.8793262
6.9548845
6.9556788
6.954587
6.9544513
6.9548379
6.8796692
6.8807743
6.8837968
6.8803543
6.8767783
6.8784254
6.8831298
6.881473
6.8811318
6.8814741
6.8798112
6.8799991
6.8802601
6.8802575
6.8799953
6.8798077
6.8814742
6.8811387
6.8814792
6.8831134
6.8784077
6.8767751
6.8803595
6.8837998
6.8807874
6.8796922
6.8793095
6.8793815
6.880001
6.8089122
6.8082881
6.8090921
6.809625
6.8102909
6.8102314
6.8103171
6.8105045
6.8098992
6.8094734
6.8088904
6.8097987
6.8098852
6.8098844
6.8097611
6.8088491
6.8093677
6.8097405
6.8102993
6.8102293
6.8103019
6.8104336
6.8097812
6.8092377
6.8083508
6.8089488
6.8800393
6.8793783
6.8793017
6.808591
6.8089669
6.8101134
6.8127794
6.8100974
6.8070142
6.8081316
6.8119806
6.8110035
6.8107817
6.8107938
6.8090961
6.8092
6.8094856
6.8094832
6.8091961
6.8090924
6.8107939
6.8107876
6.8110083
6.8119661
6.808116
6.8070119
6.8101033
6.8127851
6.8101283
6.8089893
6.8086006
6.8086072
6.7418144
6.7418916
6.7413911
6.7421839
6.7427577
6.7432812
6.7432136
6.7432986
6.7434964
6.7430445
6.7425885
6.7420049
6.7427766
6.7430121
6.7430088
6.7427406
6.7419581
6.7424809
6.742884
6.7433
6.7432121
6.7432786
6.7434209
6.7429134
6.7423254
6.7414579
6.7419273
6.7418139
6.8086055
6.8121372
6.815243
6.8122241
6.8130585
6.814763
6.81373
6.8142681
6.8147196
6.8154331
6.8155041
6.8141427
6.7470993
6.744305
6.744071
6.7424125
6.7424116
6.7426934
6.7426912
6.7424079
6.742409
6.7440715
6.7443105
6.7444639
6.7449353
6.7417807
6.7410786
6.7437298
6.7458032
6.743465
6.7422834
6.741871
6.6787362
6.678621
6.6785365
6.6781623
6.6789094
6.6795018
6.6799443
6.6798745
6.6799586
6.6801605
6.6797992
6.6793326
6.678784
6.6794116
6.6797382
6.6797334
6.6793767
6.6787327
6.6792237
6.6796388
6.6799726
6.6798738
6.6799343
6.6800805
6.6796557
6.6790469
6.678232
6.6785716
6.6786212
6.6787241
6.7418601
6.7422612
6.7434483
6.7457948
6.7437228
6.7410796
6.7417938
6.7449475
6.7444597
6.6814619
6.6813392
6.680928
6.6793526
6.6792406
6.6794997
6.6794979
6.6792376
6.6793501
6.6809298
6.6813457
6.6814673
6.6815974
6.6790087
6.6786089
6.6808714
6.6824589
6.6804021
6.679182
6.6193458
6.6188625
6.6186942
6.6184976
6.6182451
6.6189273
6.619522
6.6199246
6.6198592
6.6199421
6.6201411
6.6198281
6.619365
6.6188709
6.6193564
6.6197318
6.6197257
6.6193221
6.6188162
6.6192552
6.6196691
6.6199616
6.6198594
6.6199141
6.6200564
6.6196729
6.6190608
6.6183163
6.618532
6.6186945
6.6188486
6.6193213
6.6791594
6.6803833
6.6824472
6.6808619
6.678607
6.679018
6.6816059
6.6215917
6.6216817
6.6215675
6.6210343
6.6195663
6.6193457
6.619571
6.6195699
6.6193448
6.6195669
6.6210405
6.621579
6.6216927
6.6215912
6.6194642
6.619288
6.6212093
6.6224101
6.6205996
6.5637551
6.5624712
6.5619498
6.5617342
6.5614614
6.5613227
6.5619305
6.562516
6.5629059
6.5628516
6.5629333
6.5631221
6.5628287
6.5623787
6.561949
6.5622982
6.5626928
6.5626858
6.5622643
6.5618918
6.5622689
6.5626724
6.5629507
6.562853
6.562902
6.5630329
6.5626629
6.5620596
6.5613941
6.5614942
6.5617328
6.561932
6.5624413
6.5637235
6.6205768
6.6223927
6.6211939
6.6192794
6.6194654
6.5628342
6.5645828
6.5648242
6.5647025
6.5640909
6.5627423
6.5624202
6.5626065
6.5626071
6.5624245
6.5627515
6.564109
6.5647286
6.5648514
6.564601
6.5628516
6.562837
6.5644587
6.5653514
6.5110011
6.5095889
6.5082746
6.5077156
6.5074575
6.507134
6.5071012
6.5076306
6.5081985
6.5085952
6.5085587
6.5086389
6.5088103
6.5085159
6.5080855
6.5077241
6.5079435
6.5083367
6.5083291
6.50791
6.5076652
6.5079764
6.5083632
6.508647
6.5085612
6.5086048
6.5087169
6.5083407
6.5077549
6.5071713
6.5071637
6.5074514
6.5076893
6.5082318
6.509538
6.5109439
6.5653217
6.5644287
6.5628118
6.5089355
6.5088426
6.5102806
6.5106114
6.5104703
6.5098147
6.508591
6.5081751
6.5083225
6.5083272
6.5081919
6.5086206
6.5098617
6.5105327
6.5106789
6.5103426
6.508903
6.5089997
6.5103554
6.4586477
6.4590904
6.4578328
6.4564799
6.4558821
6.455584
6.4552265
6.4552946
6.4557441
6.4562882
6.4567075
6.456696
6.4567747
6.4569211
6.4566084
6.4562021
6.45591
6.4560029
6.4563809
6.456373
6.4559697
6.4558502
6.4560944
6.45646
6.4567657
6.4566998
6.4567381
6.4568237
6.456425
6.455863
6.4553616
6.4552501
6.4555675
6.4558379
6.4564086
6.4577398
6.4589736
6.4585067
6.5102908
6.5128
6.5135057
6.5138996
6.5144085
6.5141293
6.5125751
6.4607887
6.458597
6.457925
6.4568289
6.4563256
6.4564386
6.4564522
6.4563702
6.4569039
6.4580369
6.4587416
6.4589272
6.4585542
6.4573695
6.4575354
6.4082205
6.4090984
6.4093634
6.4082268
6.4068138
6.4061704
6.4058306
6.4054486
6.405618
6.4059866
6.4065023
6.4069614
6.4069835
6.4070606
6.4071731
6.4068241
6.4064447
6.4062216
6.4061848
6.4065383
6.4065301
6.4061521
6.4061615
6.4063389
6.4066805
6.4070255
6.4069889
6.4070222
6.4070723
6.4066337
6.4060998
6.4056798
6.4054614
6.4057937
6.4060907
6.4066848
6.4080488
6.4091256
6.4088006
6.4078925
6.4573846
6.4572151
6.4583962
6.4587688
6.4090216
6.4088051
6.408139
6.407173
6.4065842
6.4066716
6.4067036
6.4066858
6.4073412
6.4083845
6.4091194
6.4093672
6.4089993
6.4080248
6.3606823
6.3608681
6.3615022
6.3615924
6.3605332
6.3590191
6.3583127
6.3579227
6.3575195
6.3577979
6.3580841
6.3585693
6.3590896
6.3591558
6.3592311
6.3592988
6.3588917
6.3585403
6.358386
6.3582074
6.3585287
6.3585205
6.358175
6.3583258
6.3584367
6.3587533
6.3591593
6.3591634
6.3591921
6.3591953
6.3586955
6.3581917
6.3578525
6.3575147
6.3578498
6.3581682
6.3587825
6.3601959
6.3611266
6.3609079
6.360205
6.3599742
6.4076784
6.4086451
6.3607601
6.361108
6.3608272
6.3601838
6.3593516
6.3586726
6.3587473
6.3588137
6.3588811
6.3596949
6.3606813
6.3614622
6.3618067
6.3614835
6.315897
6.3152389
6.3153725
6.3157343
6.3156245
6.3145801
6.3128997
6.3120971
6.3116399
6.3112142
6.3116163
6.3118191
6.3122749
6.3128824
6.3130062
6.3130804
6.3130908
6.3125991
6.3122737
6.3121873
6.3118466
6.3121282
6.3121197
6.3118142
6.3121266
6.3121719
6.3124655
6.3129585
6.3130166
6.3130406
6.3129841
6.312397
6.3119217
6.3116618
6.311184
6.3115103
6.3118463
6.3124811
6.3139693
6.314764
6.3146243
6.3141271
6.3139049
6.3145362
6.3148266
6.3144561
6.3138456
6.3131498
6.3123697
6.312446
6.3125709
6.3127597
6.3137925
6.3147775
6.3156454
6.3161358
6.2724113
6.2722965
6.2717563
6.2717954
6.2718424
6.2714734
6.2703476
6.268415
6.267466
6.2669155
6.2664652
6.2670056
6.2671303
6.2675653
6.2682859
6.2684811
6.2685555
6.2684966
6.2678956
6.2675885
6.2675643
6.2670425
6.2672754
6.2672666
6.2670093
6.2675021
6.2674873
6.2677654
6.2683699
6.2684935
6.268513
6.268385
6.2676853
6.2672308
6.2670434
6.266405
6.2667099
6.2670612
6.2677217
6.2693123
6.2699884
6.2699125
6.2696237
6.2694285
6.2699256
6.2701351
6.2696502
6.2690724
6.2685075
6.2676136
6.2677029
6.2679174
6.2682784
6.2696125
6.2706877
6.2717154
6.2300277
6.2309857
6.2310202
6.230577
6.2304934
6.2301853
6.2294469
6.2280831
6.2258041
6.2246475
6.2239784
6.2235061
6.2241823
6.2242585
6.2246952
6.225538
6.2258101
6.2258868
6.2257569
6.22504
6.2247326
6.2247452
6.2240476
6.2242249
6.2242153
6.2240123
6.22468
6.22463
6.2249109
6.225633
6.2258253
6.2258399
6.2256366
6.2248173
6.2243633
6.2242207
6.2234236
6.2236951
6.2240593
6.2247554
6.2264606
6.2270641
6.2270617
6.2269635
6.2267908
6.2271666
6.2272858
6.2266816
6.2261185
6.2256511
6.2246439
6.2247474
6.225078
6.2256705
6.2273972
6.2287166
6.1895356
6.1913583
6.1926151
6.1927826
6.192416
6.1922247
6.191545
6.190223
6.1883306
6.1856137
6.1841992
6.1834073
6.1829194
6.1836772
6.1838033
6.1842888
6.1852171
6.1855656
6.1856484
6.1854534
6.1846611
6.1843127
6.1842743
6.1834704
6.1836015
6.1835908
6.1834317
6.1842038
6.1842061
6.1845283
6.1853272
6.1855854
6.1855964
6.1853205
6.1844207
6.1839242
6.1837355
6.1828454
6.1830871
6.183462
6.1841957
6.1859828
6.1866604
6.1867853
6.1867895
6.1865693
6.1868305
6.1868765
6.1862028
6.185603
6.1851198
6.1840445
6.184154
6.1846019
6.1854722
6.1876828
6.1510168
6.1540645
6.156815
6.1583395
6.1585449
6.1582406
6.1580374
6.15703
6.154725
6.1516506
6.148403
6.1467388
6.1458601
6.1453437
6.1459592
6.1464729
6.1470659
6.1479173
6.1484467
6.1485521
6.148194
6.1474765
6.1470337
6.1466239
6.1459644
6.1461047
6.1460923
6.145921
6.1465467
6.1469221
6.1473361
6.1480466
6.1484727
6.1484954
6.1480467
6.1472161
6.1466233
6.1460681
6.1453356
6.1456024
6.1459877
6.1467299
6.1484288
6.1496589
6.1499917
6.1498403
6.1493767
6.1496141
6.1495704
6.1489988
6.148255
6.147383
6.1464519
6.1465749
6.1470981
6.148231
6.1141325
6.1173807
6.1233538
6.1279828
6.1292845
6.1292654
6.1290266
6.1290817
6.1282421
6.1239977
6.1180199
6.1143309
6.1126482
6.1117634
6.1111337
6.111006
6.1128474
6.1135715
6.1139602
6.1150625
6.1151507
6.114242
6.1140203
6.1134577
6.1117537
6.1118406
6.112138
6.1121247
6.111793
6.111669
6.1133396
6.1138729
6.1141099
6.1150939
6.1150905
6.1140776
6.1137428
6.113036
6.1111955
6.1112469
6.1116909
6.1121107
6.1127281
6.113965
6.1171844
6.1174992
6.1163973
6.1155485
6.1162386
6.1156698
6.1154692
6.1145585
6.1124322
6.1122182
6.1124479
6.1129538
6.0868402
6.0870666
6.0895868
6.0985883
6.1064318
6.1065362
6.1063469
6.106129
6.106427
6.1067538
6.0992318
6.0902821
6.0873274
6.0866635
6.0857426
6.0846108
6.0845376
6.0855277
6.086283
6.0863893
6.0861978
6.0863072
6.0867071
6.0867635
6.0861712
6.0853475
6.0853863
6.0862127
6.0861998
6.0853278
6.0852443
6.0860353
6.0866246
6.0865447
6.0862372
6.0862502
6.0865299
6.0864969
6.0857582
6.0847749
6.0848435
6.0858236
6.0864709
6.0865383
6.0884173
6.093953
6.095255
6.0908887
6.088606
6.0878485
6.0881986
6.0881986
6.0872163
6.0859782
6.0856217
6.0863992
6.0652444
6.0655226
6.066227
6.0681757
6.0670273
6.0677403
6.068519
6.0683149
6.0680021
6.0674879
6.0689374
6.0665377
6.0654416
6.0646047
6.0640405
6.0652584
6.0643061
6.0649381
6.0665193
6.06619
6.0663085
6.066846
6.0654165
6.064981
6.066097
6.0649078
6.0652037
6.0651872
6.0648424
6.0660022
6.0648362
6.0652602
6.0666813
6.0662283
6.0662493
6.0666632
6.0651336
6.0645856
6.0655487
6.0644023
6.0649195
6.0656679
6.066483
6.0687817
6.0656529
6.0653501
6.069449
6.0694008
6.0682549
6.0684671
6.0669395
6.06599
6.066698
6.0650164
6.0633852
6.0625849
6.0708192
6.0825776
6.0958472
6.1096373
6.1149533
6.1140021
6.1073817
6.095104
6.0831768
6.0709393
6.0624562
6.0632319
6.0704609
6.0830063
6.1021425
6.1263257
6.1419835
6.1344389
6.1346895
6.1430796
6.1269916
6.1015921
6.0826191
6.0719402
6.0649956
6.0628542
6.0743729
6.0755929
6.0863228
6.0872007
6.0988742
6.0861827
6.0850048
6.092358
6.0858575
6.0980111
6.0855824
6.0739662
6.0741016
6.084666
6.0845768
6.0907271
6.0706927
6.0754802
6.083911
6.0872229
6.08658
6.0807145
6.0755047
6.0721712
6.0647558
6.0632523
6.0744354
6.0747731
6.0853511
6.0980788
6.0849491
6.0859802
6.08614
6.0917616
6.0967912
6.0927038
6.1038826
6.0952241
6.0956041
6.0924205
6.0869025
6.0808831
6.0803244
6.0869625
6.0929816
6.0921747
6.1051798
6.093395
6.0913434
6.0825488
6.0686239
6.0734632
6.0735115
6.0717762
6.0649735
6.0649516
6.075968
6.0867068
6.0883837
6.1014661
6.0878253
6.0760899
6.0870075
6.0925643
6.1208057
6.1199508
6.1255283
6.1179582
6.1160167
6.1204808
6.1170882
6.1514341
6.1892245
6.1952998
6.1884554
6.1504187
6.1567239
6.1695997
6.1540721
6.1924833
6.1993207
6.1906604
6.1531753
6.1556134
6.19334
6.1945334
6.1568536
6.1227099
6.0938186
6.1086394
6.1038685
6.0967223
6.1182513
6.1018906
6.1317514
6.1503402
6.1676985
6.133596
6.1392121
6.1758595
6.1404947
6.1337215
6.1718485
6.1537105
6.1241393
6.1024767
6.0929718
6.1214112
6.1327497
6.1513331
6.1305593
6.1277687
6.1024743
6.0863726
6.0858367
6.0861119
6.0858995
6.08593
6.0868228
6.1028986
6.1040621
6.1045259
6.1046475
6.1040234
6.1307193
6.1317466
6.1427576
6.138966
6.1041181
6.0804469
6.1050443
6.1395166
6.1219601
6.0690191
6.0620778
6.0623075
6.069403
6.1221388
6.1287
6.1432569
6.1426657
6.1433172
6.1443515
6.1316343
6.1255472
6.0735304
6.0665015
6.0665724
6.0736714
6.1259695
6.1322824
6.1456688
6.1448382
6.1448833
6.1281051
6.0971956
6.0761712
6.0643626
6.0642327
6.0713845
6.0734293
6.0734297
6.0713261
6.0640969
6.0641926
6.0759473
6.0969974
6.1280013
6.1445963
6.1443253
6.1450553
6.12989
6.1231802
6.0678949
6.0605085
6.0598293
6.0672373
6.1230825
6.1298752
6.1447037
6.1436722
6.1429995
6.1435389
6.1286376
6.1198639
6.1120468
6.0589944
5.9109569
5.730276
5.6232269
5.6243965
5.7329952
5.9142939
6.0611795
6.1140089
6.1222528
6.1327334
6.145455
6.1122247
6.085465
6.0900626
6.1192889
6.1390241
6.0753496
6.1266372
6.1102942
6.0817434
5.9177159
5.7724205
5.6670962
5.5107539
5.4180173
5.3203349
5.284654
5.284109
5.3190734
5.4159149
5.5075813
5.6629621
5.7687552
5.9128214
5.6638354
5.5413556
5.3712568
5.2691643
5.1571848
5.1163788
5.1168334
5.1583949
5.2713624
5.3746249
5.5460927
5.6680433
5.5143758
5.7413898
5.9592439
6.0124308
6.0007122
6.0686735
6.0689317
6.1390869
6.1192922
6.0900694
6.0855393
6.1122822
6.1454182
6.1268599
6.0758095
6.0132114
6.0010119
5.9338881
5.9334711
5.6375737
5.3282765
5.423914
5.2767295
5.3776261
5.2366875
5.1076494
4.9947977
4.9387103
4.9383123
4.9935457
5.1053216
5.2332198
5.372574
5.5098204
5.735315
5.4188234
5.2712036
5.1063164
4.9416779
4.8122651
4.7442585
4.7446857
4.8135901
4.9442378
5.1102802
4.999339
5.1658777
5.125392
5.2936643
5.2936662
5.6380447
5.328389
5.1657936
5.1252391
4.9439973
4.9442969
4.747427
4.8154959
4.6709098
4.5932852
4.5928425
4.6695264
4.812753
4.9951762
5.159859
5.3226531
5.6297533
5.2877729
5.1190563
4.9398545
4.7445445
4.5926149
4.5112632
4.5116934
4.5941022
4.5936891
4.7471232
4.8148105
4.9988835
5.1102197
5.2770063
5.4245289
5.7429239
5.9603025
6.0825682
6.1106773
6.1226234
6.1328501
6.145765
6.1595813
6.1612801
6.1146331
6.0627439
5.9203832
5.6710678
5.5158671
5.3789986
5.237652
5.1085967
4.9438637
4.813199
4.6699385
4.5923889
4.5112741
4.5107935
4.5922172
4.7444283
4.939732
5.119132
5.2878759
5.6303726
5.3229259
5.1600386
4.9949755
4.8123396
4.668744
4.591961
4.7440455
4.744287
4.9398059
4.9957033
5.1614645
5.2742376
5.3774323
5.5493728
5.6701911
5.7748775
5.9190967
5.7394076
5.5134782
5.4211058
5.3236398
5.2882715
5.1201047
5.119912
4.9395244
4.9949606
4.8122032
4.9419073
5.1067051
5.2719378
5.4197466
5.7370498
5.5117096
5.3744774
5.2347631
5.1068907
5.2728553
5.1607525
5.3230277
5.2880597
5.6326586
5.6329573
5.9297589
5.9566268
6.0812027
6.1138499
6.1217986
6.1594861
6.1561683
6.166379
6.1691715
6.1229132
6.1147784
5.9932143
5.9847777
5.9844802
5.9926443
6.1145511
6.1227765
6.1683353
6.1456555
6.1590684
6.1557729
6.1588768
6.120128
6.1072809
6.0054807
5.9925941
5.9913825
6.0038652
6.1063952
6.1191882
6.1577106
6.1545708
6.1574742
6.1585768
6.1106062
6.0759567
5.9487421
5.9209154
5.922361
5.95086
6.0776154
6.1120517
6.1602238
6.1679445
6.168309
6.1207133
6.1119901
5.9866457
5.9777923
5.9764148
5.9849852
6.1110707
6.119802
6.166932
6.1644927
6.1856374
6.1669217
6.1663334
6.1182284
6.1367555
6.0916837
5.9560614
5.98843
5.9361242
5.6477602
5.7514235
5.9267636
6.0737405
6.1196558
6.1209865
6.138035
6.1125093
6.1074793
6.0784928
5.9564754
6.0097169
5.9977244
5.9297696
5.9303836
5.9981065
6.0103958
5.9575713
6.0797484
5.9160194
5.7719568
5.6668668
5.5113061
5.4199495
5.7380757
5.9168672
6.0611197
6.1128511
6.1202901
6.1079571
6.1128952
5.9924829
5.9840301
5.9836506
5.9919507
5.996162
5.9637386
6.0939214
5.9289728
5.7591623
5.6820456
5.6432303
5.6200627
5.6682875
5.5441769
5.6691775
5.6203411
5.5546198
5.3355737
5.3923131
5.4864935
5.4128604
5.3344855
5.3265201
5.2696221
5.2666986
5.3560903
5.2254952
5.3575781
5.4890136
5.7570217
5.39415
5.3288117
5.3372088
5.2717084
5.3365804
5.4159088
5.268856
5.1459199
5.3038346
5.6549464
5.9446124
5.9451754
5.9964774
5.9644781
6.0947433
6.1382318
6.121156
6.1199632
6.0748375
5.9309062
5.7578497
5.6553164
5.2758212
5.2757498
5.1731962
5.1952294
5.1332193
5.1279653
5.1014363
5.1101451
4.9314918
4.9867177
5.0998491
5.0957672
5.2209935
5.094646
5.0987254
4.929142
4.9162915
4.780252
4.9787997
5.1249335
5.192235
5.2998627
5.271758
5.1701716
5.1297229
5.0983485
5.1072539
5.1429837
4.984924
4.9298455
4.923413
4.7100547
4.7278631
4.7969152
4.6510368
4.7974992
4.7807758
4.980614
4.9251146
4.7103963
4.7281592
4.5728008
4.5498632
4.6297243
4.5501149
4.5729257
4.4899159
4.4652144
4.4391303
4.5260583
4.6909629
4.9200305
4.975832
5.0946022
5.2232236
5.2135307
5.0781526
4.8879146
5.0795474
5.0958331
4.9025216
4.7626343
4.7446799
4.9609887
4.9009418
4.6710741
4.6537018
4.9075208
5.1140542
5.7083292
5.8133392
5.9776391
6.1155531
6.0957114
5.9652545
5.8017573
5.705607
5.7066698
5.9900068
5.9375426
5.9578663
6.0930503
6.1376204
6.1192503
6.0752575
5.929437
5.7537374
5.6488372
5.2723094
5.1706096
5.1303295
5.1929444
5.3009329
5.144083
5.1077375
5.0988303
5.125702
5.2712047
5.33599
5.4147587
5.4890028
5.3940525
5.3281299
5.3372986
5.3586991
5.2685913
5.1007175
4.9861117
4.9302209
4.9237176
4.9797007
4.7811813
4.7103544
4.7283235
4.7981119
4.9313096
4.9179754
5.0961219
5.2230802
5.228279
5.103037
5.0981499
4.9830614
4.7824998
4.6308558
4.550478
4.5734023
4.6522426
4.574128
4.4903248
4.46556
4.5509934
4.7122146
4.7305925
4.7997034
4.9900073
4.9350088
4.9277069
5.1058724
5.1322682
5.2756748
5.3409459
5.55816
5.6233735
5.6719148
5.762591
5.9313222
5.6849861
5.6462513
5.623355
5.6731114
5.548209
5.3618209
5.493301
5.7592703
5.3975037
5.3321851
5.3400944
5.4206839
5.2734711
5.1509286
5.3091111
5.6576927
5.1991882
5.137153
5.1771328
5.2812075
5.1154303
5.1152243
4.934661
4.7302962
4.573718
4.4899294
4.4894495
4.5723892
4.7280486
4.9313242
5.1101557
5.1012441
5.1729663
5.1328597
5.1948361
5.3038876
5.1458531
5.1275374
5.2714453
5.3364061
5.4164945
5.2690722
5.3585115
5.4900695
5.3939087
5.3282669
5.3369499
5.2207376
5.0950616
4.9798771
4.9248273
4.709991
4.7797732
4.7968034
4.9863002
5.0997321
4.9288277
4.9152544
5.0942254
5.0994414
5.2262237
5.3587516
5.3749332
5.5453167
5.6674108
5.67218
5.6225798
5.6451225
5.5569264
5.5473105
5.6719264
5.9299102
5.7621128
5.6837465
5.6218809
5.3934444
5.3372085
5.327753
5.2713205
5.2694406
5.4165656
5.755418
5.4899441
5.3355728
5.1931292
5.1264389
4.9781776
4.7788056
4.6285357
4.549386
4.4646732
4.548754
4.5718735
4.6500288
4.7962497
4.7271388
4.7084669
4.9225997
4.9301011
4.9853754
5.1455116
5.1098151
5.0999071
5.130784
5.1708781
5.6523647
5.3035452
5.2754458
5.2756613
5.1100092
4.9303734
4.7274242
4.5723188
4.5490294
4.4651031
4.550463
4.6294233
4.6511909
4.7989029
4.781307
4.7116613
4.9272408
4.9821531
4.9893525
5.1024972
4.9304537
4.7972396
4.7795987
4.7087447
4.9227687
4.9787104
4.9860645
5.1008234
5.0952494
4.9164389
5.0970132
5.2223095
5.2284449
5.3622748
5.2733206
5.1506882
5.1316785
5.1054766
5.1365256
5.1767569
5.6579189
5.281126
5.3089613
5.1986246
5.3394971
5.2749215
5.3311169
5.3401306
5.3968078
5.7599202
5.4209054
5.4939004
5.6755292
5.5507129
5.3605742
5.2705389
5.1461456
5.1268221
5.1000573
5.1309373
5.1710681
5.6525624
5.3040531
5.1934012
5.3363225
5.2721482
5.3284505
5.3382119
5.394349
5.7562615
5.4175692
5.491432
5.6747434
5.931403
5.6245022
5.5598837
5.6473747
5.6250429
5.9327885
5.7647695
5.6860716
6.0758373
6.0974366
5.9699984
5.8087115
5.7143071
5.7142236
5.8086936
5.9693836
6.0970767
5.9674428
5.8037617
5.8150689
5.7092762
5.1147367
5.325788
5.3302118
5.8475715
6.0261502
6.2047368
6.1747064
6.1368526
6.1217164
6.0937118
6.1066159
6.1011867
6.1314665
6.1225595
6.1210257
6.1248284
6.1183798
6.1316182
6.1494294
6.1658934
6.1315007
6.1392345
6.1605697
6.1607007
6.2047806
6.2145269
6.1925274
6.1582907
6.1921133
6.1525322
6.1251635
6.0944413
6.076539
6.0997076
6.1179022
6.1310072
6.1677519
6.1751682
6.1364875
6.1092109
6.1322461
6.1321712
6.1090988
6.082475
6.0825631
6.1064258
6.1063493
6.1426777
6.131622
6.1306989
6.1389779
6.1041854
6.0805951
6.1049783
6.1393226
6.1248752
6.0945302
6.0768833
6.0723656
6.0827934
6.1015807
6.1272217
6.1445568
6.137828
6.13794
6.1450002
6.1280232
6.10274
6.0833692
6.0708835
6.0636929
6.0627455
6.0710688
6.0833831
6.0971996
6.1121445
6.1189337
6.1188545
6.1118513
6.0966278
6.0825894
6.0706249
6.0629387
6.0652251
6.075615
6.074383
6.0849955
6.0861655
6.0871891
6.0988138
6.086368
6.1170274
6.1217354
6.1308621
6.1281672
6.1591745
6.1619614
6.1632076
6.1633529
6.1620239
6.1587941
6.1943875
6.2333119
6.2748249
6.2821128
6.2757172
6.271757
6.2294485
6.2356656
6.2289082
6.2714075
6.2777633
6.2910011
6.2750354
6.2328352
6.2394279
6.2309232
6.2733509
6.2757102
6.2335004
6.2345905
6.2766382
6.2947202
6.2901911
6.2812401
6.3091282
6.2679628
6.2493903
6.2090339
6.2276903
6.187917
6.1610896
6.1703979
6.2089376
6.2137774
6.1751804
6.2162892
6.2067424
6.2474057
6.2581993
6.2997715
6.2536058
6.24885
6.2880425
6.329108
6.341415
6.4099827
6.3996297
6.3606887
6.3196537
6.2912566
6.2498086
6.233923
6.1941304
6.1565184
6.1705502
6.2096865
6.2287473
6.2015935
6.1645747
6.1893331
6.2081279
6.1742622
6.2114519
6.1974431
6.1987652