/*--------------------------------*- C++ -*----------------------------------*\
  =========                 |
  \\      /  F ield         | OpenFOAM: The Open Source CFD Toolbox
   \\    /   O peration     | Website:  https://openfoam.org
    \\  /    A nd           | Version:  7
     \\/     M anipulation  |
\*---------------------------------------------------------------------------*/
FoamFile
{
    version     2.0;
    format      ascii;
    class       volScalarField;
    location    "170";
    object      T;
}
// * * * * * * * * * * * * * * * * * * * * * * * * * * * * * * * * * * * * * //

dimensions      [0 0 0 1 0 0 0];

internalField   nonuniform List<scalar> 
24866
(
299.99997
299.99996
299.99996
299.99998
300
300
300
300
300
300
300
300
300
300
300
300
300
300
300
300
300
300
300
300
300
300
300
300
300
300
300
300
300
300
300
300
300
300
300
300
300
300
300
300
300
300
300
300
300
300
300
300
300
300
300
300
300
300
300
300
300
300
300
300
300
300
300
300
300
300
300
300
300
300
300
300
300
300
300
300
300
300
300
300
300
300
300
300
300
300
300
300
300
300
300
300
300
300
300
300
300
300
300
300
300
300
300
300
300
300
300
300
300
300
300
300
300
300
300
300
300
300
300.00001
300
300
300
300
300
300
300
300.00001
300.00001
300.00001
300.00001
300.00001
300.00001
300
300
300
300
300
300
300
300
300
300
299.99999
299.99998
299.99999
299.99999
299.99998
299.99999
299.99999
300
300
299.99999
299.99999
299.99999
299.99999
299.99999
299.99998
299.99999
299.99999
299.99998
299.99999
299.99999
299.99998
299.99999
299.99998
299.99998
299.99999
299.99998
299.99998
299.99999
299.99998
299.99998
299.99999
299.99998
299.99999
299.99999
300
300
299.99999
299.99998
299.99999
299.99999
300
300
300
300
300
300
300
300
300
300
300.00001
300.00001
300.00001
300.00001
300.00001
300.00001
300
300
300
300
300
300
300
299.99999
299.99999
300
299.99999
299.99999
299.99997
299.99997
299.99997
299.99997
299.99997
299.99997
299.99997
299.99997
299.99997
299.99997
299.99997
299.99997
299.99997
299.99997
299.99997
299.99997
299.99997
299.99997
299.99996
299.99997
299.99997
299.99996
299.99997
299.99997
299.99997
299.99997
299.99996
299.99997
299.99997
299.99994
299.99994
299.99994
299.99994
299.99994
299.99996
299.99998
299.99999
299.99998
299.99998
299.99999
299.99998
299.99998
299.99999
299.99998
299.99998
299.99999
299.99998
299.99999
299.99999
299.99998
299.99999
299.99999
299.99999
300
300
299.99999
299.99999
299.99999
299.99999
299.99999
300
299.99999
299.99999
299.99999
299.99998
299.99999
299.99999
299.99999
299.99999
300
300
300
300
300
300
300
300
300.00001
300.00001
300.00001
300.00001
300.00001
300
300
300
300
300
300.00001
300.00001
300
300
300
300
300
300
300
300
300
300
300
300
300
300
300
300
300
300
300
300
300
300
300
300
300
300
300
300
300
299.99999
299.99999
300
299.99999
299.99999
299.99998
299.99997
299.99997
299.99997
299.99997
299.99997
299.99998
299.99999
299.99999
299.99999
299.99999
299.99999
299.99999
299.99998
299.99999
299.99998
299.99997
299.99997
299.99997
299.99997
299.99997
299.99997
299.99994
299.99994
299.99994
299.99994
299.99994
299.99994
299.99994
299.99994
299.99994
299.99994
299.99994
299.99994
299.99994
299.99994
299.99994
299.99994
299.99994
299.99994
299.99994
299.99994
299.99994
299.99994
299.99994
299.99994
299.99994
299.99994
299.99994
299.99994
299.99994
299.9999
299.9999
299.9999
299.9999
299.9999
299.9999
299.9999
299.99994
299.99997
299.99997
299.99996
299.99997
299.99997
299.99997
299.99997
299.99996
299.99997
299.99997
299.99996
299.99997
299.99997
299.99994
299.99994
299.99994
299.99994
299.99994
299.99994
299.99994
299.99994
299.99994
299.99994
299.99991
299.99991
299.99991
299.9999
299.9999
299.9999
299.9999
299.99991
299.99991
299.99991
299.99991
299.99991
299.99991
299.99991
299.99991
299.99991
299.99991
299.9999
299.9999
299.9999
299.9999
299.99991
299.9999
299.9999
299.99991
299.99991
299.99991
299.99991
299.9999
299.99986
299.99986
299.99986
299.99985
299.99985
299.99985
299.99985
299.99986
299.99986
299.99986
299.9999
299.99994
299.99994
299.99994
299.99994
299.99994
299.99994
299.99994
299.99994
299.99994
299.99994
299.9999
299.9999
299.9999
299.99991
299.99991
299.99991
299.99991
299.99991
299.99991
299.99991
299.99987
299.99986
299.99986
299.99986
299.99986
299.99986
299.99986
299.99986
299.99986
299.99986
299.99986
299.99987
299.99987
299.99987
299.99987
299.99986
299.99986
299.99986
299.99986
299.99985
299.99985
299.99985
299.99986
299.99986
299.99986
299.99986
299.99987
299.99987
299.99986
299.9998
299.9998
299.99979
299.99979
299.99979
299.99979
299.99979
299.99979
299.99979
299.99979
299.9998
299.9998
299.99986
299.99991
299.99991
299.99991
299.99991
299.9999
299.9999
299.99991
299.9999
299.99985
299.99985
299.99986
299.99986
299.99986
299.99986
299.99986
299.99987
299.99987
299.99987
299.99981
299.99981
299.9998
299.9998
299.9998
299.99979
299.99979
299.99979
299.99979
299.9998
299.9998
299.9998
299.99981
299.99981
299.99981
299.99981
299.9998
299.9998
299.9998
299.99979
299.99979
299.99979
299.99979
299.9998
299.99979
299.9998
299.9998
299.99981
299.99981
299.99973
299.99972
299.99971
299.99971
299.99971
299.9997
299.9997
299.9997
299.9997
299.99971
299.99971
299.99971
299.99972
299.99973
299.99981
299.99987
299.99987
299.99986
299.99986
299.99986
299.99986
299.9998
299.99979
299.99979
299.99979
299.99979
299.9998
299.9998
299.9998
299.99981
299.99982
299.99974
299.99974
299.99973
299.99972
299.99971
299.99972
299.9997
299.9997
299.9997
299.9997
299.99971
299.99971
299.99972
299.99973
299.99973
299.99973
299.99973
299.99972
299.99971
299.99971
299.9997
299.9997
299.9997
299.9997
299.99971
299.99971
299.99971
299.99972
299.99973
299.99962
299.99962
299.99961
299.9996
299.99959
299.99959
299.99958
299.99958
299.99958
299.99958
299.99959
299.99959
299.9996
299.99961
299.99962
299.99962
299.99973
299.99981
299.9998
299.9998
299.99979
299.99971
299.99971
299.9997
299.9997
299.9997
299.9997
299.99971
299.99971
299.99972
299.99973
299.99962
299.99963
299.99963
299.99962
299.99961
299.9996
299.9996
299.99959
299.99959
299.99959
299.99959
299.9996
299.9996
299.99961
299.99962
299.99963
299.99963
299.99962
299.9996
299.9996
299.9996
299.99959
299.99958
299.99958
299.99958
299.9996
299.99959
299.9996
299.99961
299.99947
299.99948
299.99948
299.99947
299.99946
299.99945
299.99945
299.99944
299.99944
299.99944
299.99944
299.99945
299.99945
299.99946
299.99947
299.99948
299.99948
299.99947
299.99961
299.99972
299.99971
299.9996
299.99959
299.9996
299.99958
299.99958
299.99958
299.99959
299.9996
299.9996
299.99961
299.99947
299.99948
299.99949
299.99949
299.99948
299.99947
299.99946
299.99946
299.99945
299.99945
299.99945
299.99945
299.99946
299.99946
299.99947
299.99948
299.99949
299.99949
299.99948
299.99947
299.99946
299.99946
299.99945
299.99944
299.99944
299.99944
299.99945
299.99945
299.99946
299.99931
299.99931
299.99932
299.99932
299.99931
299.9993
299.99929
299.99929
299.99929
299.99928
299.99928
299.99929
299.99929
299.99929
299.9993
299.99931
299.99932
299.99932
299.99931
299.99931
299.99946
299.99945
299.99946
299.99945
299.99944
299.99944
299.99945
299.99946
299.99946
299.9993
299.99931
299.99932
299.99933
299.99933
299.99932
299.99931
299.9993
299.9993
299.9993
299.99929
299.99929
299.9993
299.9993
299.9993
299.99931
299.99932
299.99933
299.99933
299.99932
299.99931
299.9993
299.9993
299.99929
299.99929
299.99929
299.99929
299.99929
299.9993
299.99915
299.99916
299.99915
299.99915
299.99915
299.99915
299.99916
299.99915
299.99914
299.99915
299.99914
299.99914
299.99915
299.99914
299.99914
299.99915
299.99915
299.99915
299.99915
299.99915
299.99916
299.99915
299.9993
299.9993
299.99929
299.99929
299.99929
299.9993
299.9993
299.99915
299.99916
299.99917
299.99916
299.99916
299.99916
299.99916
299.99917
299.99916
299.99915
299.99916
299.99915
299.99915
299.99916
299.99915
299.99915
299.99916
299.99916
299.99916
299.99916
299.99916
299.99916
299.99915
299.99915
299.99916
299.99915
299.99915
299.99916
299.99914
299.99906
299.99907
299.99908
299.99906
299.99905
299.99905
299.99906
299.99907
299.99906
299.99906
299.99908
299.99907
299.99907
299.99908
299.99906
299.99906
299.99907
299.99905
299.99905
299.99905
299.99906
299.99908
299.99907
299.99906
299.99915
299.99916
299.99915
299.99915
299.99916
299.99909
299.99907
299.99907
299.99908
299.99907
299.99906
299.99906
299.99907
299.99908
299.99907
299.99907
299.99909
299.99909
299.99908
299.99909
299.99906
299.99907
299.99908
299.99906
299.99905
299.99905
299.99906
299.99908
299.99907
299.99906
299.99909
299.99908
299.99908
299.99909
299.99915
299.99911
299.99912
299.99912
299.9991
299.99908
299.99908
299.99909
299.99912
299.99911
299.99911
299.99914
299.99913
299.99913
299.99914
299.9991
299.99911
299.99912
299.99909
299.99908
299.99908
299.9991
299.99912
299.99912
299.99911
299.99915
299.99909
299.99908
299.99908
299.99914
299.99915
299.99912
299.99913
299.99913
299.99911
299.99909
299.99909
299.99911
299.99913
299.99913
299.99912
299.99915
299.99914
299.99914
299.99915
299.99911
299.99912
299.99913
299.9991
299.99909
299.99909
299.9991
299.99913
299.99912
299.99911
299.99915
299.99914
299.99914
299.99935
299.99935
299.99932
299.99932
299.99933
299.9993
299.99928
299.99928
299.9993
299.99932
299.99932
299.99931
299.99935
299.99934
299.99934
299.99935
299.99931
299.99932
299.99932
299.99929
299.99928
299.99928
299.9993
299.99933
299.99933
299.99932
299.99936
299.99935
299.99914
299.99901
299.99885
299.99901
299.99888
299.99873
299.99895
299.99886
299.99879
299.99879
299.99885
299.99895
299.99913
299.99934
299.99933
299.99932
299.99936
299.99936
299.99936
299.99936
299.99932
299.99933
299.99933
299.9993
299.99929
299.99928
299.9993
299.99933
299.99933
299.99932
299.99935
299.99935
299.99969
299.99969
299.99969
299.99966
299.99966
299.99966
299.99963
299.99962
299.99962
299.99963
299.99966
299.99966
299.99965
299.99969
299.99968
299.99968
299.99969
299.99965
299.99966
299.99966
299.99963
299.99962
299.99962
299.99964
299.99966
299.99967
299.99966
299.9997
299.9997
299.9997
299.99936
299.99936
299.99932
299.99933
299.99934
299.99931
299.99929
299.99929
299.99931
299.99965
299.99967
299.99967
299.99967
299.9997
299.9997
299.9997
299.9997
299.99966
299.99967
299.99967
299.99964
299.99962
299.99962
299.99964
299.99966
299.99967
299.99966
299.99969
300.00012
300.00012
300.00012
300.00012
300.00009
300.0001
300.00009
300.00006
300.00005
300.00005
300.00006
300.00009
300.0001
300.00009
300.00012
300.00012
300.00012
300.00012
300.00009
300.0001
300.00009
300.00006
300.00005
300.00005
300.00007
300.00009
300.0001
300.0001
300.00013
300.00013
300.00013
300.00013
299.9997
299.99967
299.99967
299.99967
299.99965
299.99963
299.99963
300.00006
300.00008
300.0001
300.00011
300.0001
300.00013
300.00013
300.00013
300.00013
300.0001
300.0001
300.0001
300.00007
300.00005
300.00005
300.00007
300.00009
300.0001
300.00009
300.0006
300.00062
300.00062
300.00062
300.00062
300.0006
300.0006
300.00059
300.00057
300.00056
300.00056
300.00057
300.00059
300.0006
300.0006
300.00062
300.00062
300.00062
300.00062
300.0006
300.0006
300.00059
300.00057
300.00056
300.00056
300.00058
300.0006
300.00061
300.0006
300.00062
300.00063
300.00063
300.00063
300.00061
300.0001
300.00011
300.0001
300.00008
300.00007
300.00057
300.00057
300.00058
300.0006
300.00061
300.00061
300.00062
300.00063
300.00063
300.00062
300.0006
300.00061
300.0006
300.00058
300.00057
300.00057
300.00058
300.00059
300.0006
300.00114
300.00114
300.00115
300.00116
300.00116
300.00115
300.00114
300.00114
300.00113
300.00112
300.00112
300.00112
300.00112
300.00113
300.00114
300.00114
300.00115
300.00116
300.00116
300.00115
300.00114
300.00114
300.00113
300.00112
300.00112
300.00112
300.00112
300.00113
300.00115
300.00114
300.00115
300.00116
300.00116
300.00115
300.00114
300.00115
300.00061
300.0006
300.00058
300.00113
300.00112
300.00112
300.00113
300.00113
300.00115
300.00114
300.00115
300.00116
300.00116
300.00115
300.00114
300.00115
300.00113
300.00112
300.00112
300.00112
300.00112
300.00113
300.00164
300.00166
300.00166
300.00166
300.00167
300.00167
300.00166
300.00166
300.00166
300.00164
300.00164
300.00164
300.00164
300.00164
300.00164
300.00166
300.00166
300.00166
300.00167
300.00167
300.00166
300.00166
300.00166
300.00164
300.00164
300.00164
300.00164
300.00164
300.00164
300.00166
300.00166
300.00166
300.00167
300.00167
300.00166
300.00166
300.00166
300.00164
300.00114
300.00104
300.00097
300.00093
300.00093
300.00097
300.00104
300.0016
300.00164
300.00166
300.00166
300.00166
300.00167
300.00167
300.00166
300.00166
300.00166
300.00164
300.00164
300.00164
300.00164
300.00164
300.0021
300.00209
300.00211
300.00211
300.00211
300.00212
300.00212
300.00211
300.00211
300.00211
300.0021
300.0021
300.0021
300.0021
300.0021
300.0021
300.00211
300.00211
300.00211
300.00212
300.00212
300.00211
300.00211
300.00211
300.0021
300.0021
300.0021
300.0021
300.0021
300.00209
300.00211
300.00211
300.0021
300.00211
300.00211
300.0021
300.00211
300.00211
300.00209
300.00209
300.00164
300.00164
300.00164
300.00164
300.00209
300.00209
300.00211
300.00211
300.0021
300.00211
300.00211
300.0021
300.00211
300.00211
300.00209
300.0021
300.0021
300.0021
300.00248
300.00248
300.00247
300.00249
300.00249
300.00248
300.00249
300.00249
300.00249
300.0025
300.00249
300.00248
300.00248
300.00249
300.00249
300.00248
300.00248
300.0025
300.0025
300.00249
300.0025
300.0025
300.00249
300.0025
300.00249
300.00248
300.00248
300.00249
300.00248
300.00248
300.00247
300.00249
300.00249
300.00248
300.00249
300.00249
300.00248
300.00249
300.00248
300.00247
300.00247
300.00248
300.00209
300.0021
300.00248
300.00247
300.00247
300.00249
300.00249
300.00248
300.00249
300.00249
300.00248
300.00249
300.00249
300.00247
300.00248
300.00248
300.00279
300.00279
300.00279
300.00278
300.0028
300.0028
300.00279
300.0028
300.0028
300.00279
300.00281
300.0028
300.00279
300.00279
300.0028
300.0028
300.00279
300.00279
300.0028
300.00281
300.0028
300.0028
300.0028
300.00279
300.00281
300.0028
300.00279
300.00279
300.0028
300.00279
300.00279
300.00278
300.0028
300.0028
300.00279
300.00279
300.00279
300.00278
300.00279
300.00279
300.00278
300.00278
300.00279
300.00279
300.00278
300.00278
300.00279
300.0028
300.00279
300.00279
300.00279
300.00279
300.0028
300.0028
300.00278
300.00279
300.00302
300.00302
300.00302
300.00302
300.00302
300.00303
300.00304
300.00303
300.00303
300.00304
300.00303
300.00304
300.00304
300.00303
300.00303
300.00304
300.00304
300.00303
300.00303
300.00304
300.00304
300.00303
300.00304
300.00304
300.00303
300.00304
300.00304
300.00302
300.00303
300.00303
300.00303
300.00303
300.00302
300.00303
300.00304
300.00302
300.00303
300.00303
300.00302
300.00303
300.00303
300.00301
300.00302
300.00302
300.00302
300.00302
300.00302
300.00303
300.00303
300.00302
300.00303
300.00303
300.00302
300.00303
300.00303
300.00301
300.00318
300.00319
300.00319
300.00319
300.00319
300.00318
300.0032
300.00321
300.0032
300.0032
300.0032
300.0032
300.00321
300.00321
300.0032
300.0032
300.00321
300.00321
300.0032
300.0032
300.00321
300.00321
300.0032
300.0032
300.0032
300.0032
300.00321
300.00321
300.0032
300.0032
300.00321
300.0032
300.0032
300.00319
300.0032
300.00321
300.00319
300.0032
300.00319
300.00319
300.0032
300.00319
300.00318
300.00319
300.00319
300.0032
300.00319
300.00319
300.0032
300.0032
300.00319
300.0032
300.0032
300.00319
300.0032
300.0032
300.0033
300.00329
300.0033
300.0033
300.0033
300.0033
300.00329
300.00331
300.00331
300.00331
300.00331
300.00331
300.00331
300.00332
300.00332
300.00331
300.00332
300.00332
300.00332
300.00332
300.00331
300.00332
300.00332
300.00331
300.00331
300.00331
300.00331
300.00332
300.00332
300.00331
300.00331
300.00332
300.00332
300.00331
300.0033
300.00331
300.00332
300.00331
300.00331
300.0033
300.0033
300.00331
300.00331
300.00329
300.0033
300.00331
300.00331
300.00331
300.0033
300.00331
300.00332
300.00331
300.00331
300.00331
300.0033
300.00331
300.00337
300.00336
300.00334
300.00335
300.00336
300.00336
300.00336
300.00335
300.00336
300.00337
300.00335
300.00335
300.00336
300.00336
300.00338
300.00337
300.00336
300.00338
300.00339
300.00339
300.00338
300.00336
300.00337
300.00338
300.00336
300.00336
300.00336
300.00336
300.00338
300.00337
300.00336
300.00338
300.00338
300.00338
300.00338
300.00336
300.00337
300.00337
300.00336
300.00335
300.00335
300.00335
300.00336
300.00335
300.00334
300.00336
300.00337
300.00338
300.00337
300.00336
300.00337
300.00337
300.00336
300.00335
300.00335
300.00335
300.00339
300.00339
300.00339
300.00337
300.00338
300.00339
300.00339
300.00338
300.00337
300.00339
300.00339
300.00339
300.00339
300.00339
300.00339
300.0034
300.00341
300.00339
300.0034
300.00341
300.00341
300.0034
300.00339
300.00341
300.0034
300.00339
300.00339
300.00339
300.00339
300.0034
300.00341
300.00339
300.0034
300.00341
300.00341
300.0034
300.00339
300.0034
300.0034
300.00338
300.00339
300.00339
300.00338
300.00339
300.00338
300.00337
300.00338
300.0034
300.0034
300.0034
300.00339
300.0034
300.0034
300.00339
300.00339
300.00339
300.00336
300.00335
300.00338
300.00339
300.00337
300.00339
300.00339
300.00339
300.00339
300.00337
300.00338
300.00338
300.00335
300.00335
300.00335
300.00336
300.00339
300.00336
300.00337
300.0034
300.00341
300.00341
300.0034
300.00337
300.00336
300.00339
300.00336
300.00335
300.00335
300.00336
300.00339
300.00336
300.00337
300.0034
300.00341
300.00341
300.0034
300.00338
300.00336
300.00339
300.00336
300.00336
300.00336
300.00335
300.00337
300.00333
300.00333
300.00337
300.0034
300.00341
300.0034
300.00338
300.00337
300.00339
300.00336
300.00336
300.00334
300.00334
300.00335
300.00339
300.00338
300.00339
300.0034
300.0034
300.00339
300.00338
300.00339
300.00335
300.00334
300.00334
300.00335
300.00338
300.00336
300.00337
300.0034
300.00341
300.00341
300.0034
300.00337
300.00336
300.00338
300.00335
300.00334
300.00334
300.00335
300.00338
300.00336
300.00337
300.0034
300.00341
300.00341
300.0034
300.00337
300.00336
300.00339
300.00335
300.00334
300.00334
300.00335
300.00339
300.00334
300.00333
300.00338
300.00341
300.00341
300.0034
300.00337
300.00337
300.00339
300.00335
300.00337
300.00336
300.00347
300.00368
300.00401
300.00439
300.00463
300.00459
300.00431
300.00396
300.00367
300.00346
300.00336
300.00337
300.00348
300.00368
300.00415
300.00494
300.00579
300.00635
300.00639
300.00588
300.005
300.00417
300.00367
300.00348
300.00337
300.00336
300.00332
300.00332
300.00335
300.00337
300.00332
300.00337
300.00336
300.00347
300.00338
300.00332
300.00337
300.00332
300.00332
300.00336
300.00336
300.00348
300.00348
300.00357
300.00373
300.00384
300.0038
300.00363
300.00354
300.00347
300.00337
300.00336
300.00332
300.00332
300.00335
300.00331
300.00335
300.00337
300.00336
300.00346
300.00353
300.00339
300.0033
300.00337
300.00335
300.00338
300.00332
300.00334
300.00334
300.00331
300.0034
300.00346
300.00339
300.00342
300.00346
300.00339
300.00343
300.00352
300.00352
300.00349
300.0034
300.0034
300.00335
300.00339
300.00342
300.00334
300.0034
300.00335
300.00338
300.00348
300.00349
300.00345
300.00355
300.00348
300.00343
300.00348
300.00343
300.00339
300.00334
300.00338
300.00334
300.0034
300.00345
300.00356
300.00345
300.00338
300.0034
300.00336
300.00341
300.00346
300.00339
300.00341
300.00349
300.00352
300.00353
300.00386
300.00373
300.00356
300.00403
300.00368
300.00364
300.00394
300.00441
300.0037
300.00381
300.00476
300.00482
300.00449
300.00678
300.00533
300.00422
300.00368
300.00347
300.00348
300.00364
300.00394
300.00355
300.00343
300.00346
300.00335
300.00338
300.00338
300.00338
300.00338
300.00335
300.00346
300.00348
300.00352
300.00352
300.00348
300.00348
300.00351
300.00381
300.0037
300.00369
300.00363
300.00427
300.00576
300.00833
300.00853
300.00862
300.00864
300.00856
300.00836
300.00794
300.00705
300.0063
300.0063
300.00706
300.00795
300.00839
300.00858
300.00866
300.00867
300.00859
300.0084
300.00797
300.00709
300.00634
300.00634
300.00506
300.00404
300.00358
300.0034
300.00339
300.00349
300.00353
300.00353
300.00349
300.00339
300.0034
300.00357
300.00401
300.00499
300.00624
300.00624
300.00699
300.00785
300.00826
300.00843
300.00852
300.0085
300.00843
300.00827
300.00789
300.00703
300.00628
300.00627
300.00702
300.00789
300.00874
300.00767
300.00513
300.00029
299.99519
299.99189
299.99194
299.99535
300.00049
300.00528
300.00776
300.00875
300.00789
300.0059
300.00441
300.00374
300.00387
300.0047
300.00646
300.00854
300.00834
300.00876
300.00654
300.00063
299.99609
299.99135
299.98774
299.98401
299.98166
299.98014
299.98011
299.98156
299.98386
299.98753
299.9911
299.99583
300.00036
299.99111
299.98578
299.98114
299.97706
299.97414
299.97253
299.97257
299.97424
299.97723
299.98137
299.98607
299.99143
299.98787
299.99566
300.00457
300.00867
300.00838
300.00863
300.00864
300.00649
300.00471
300.00388
300.00375
300.00444
300.00596
300.00839
300.00857
300.00871
300.00839
300.00345
300.00345
299.99239
299.98189
299.9842
299.97733
299.98143
299.97614
299.97171
299.96835
299.96652
299.96648
299.96824
299.97153
299.97589
299.98111
299.98752
299.99528
299.98381
299.97698
299.97148
299.96679
299.96322
299.96127
299.96133
299.96335
299.96699
299.97175
299.96841
299.97437
299.97271
299.98041
299.98039
299.99238
299.98185
299.9743
299.97269
299.96654
299.96658
299.96133
299.96336
299.95946
299.95728
299.95722
299.95932
299.96314
299.96813
299.97401
299.98147
299.99194
299.97997
299.97234
299.9663
299.96111
299.95713
299.95493
299.95498
299.95727
299.95722
299.96129
299.96324
299.96832
299.97163
299.97724
299.98415
299.99566
300.00459
300.00661
300.00883
300.00885
300.00797
300.00709
300.00804
300.00846
300.00787
300.00544
300.00071
299.99145
299.98784
299.98136
299.97604
299.97159
299.96685
299.96319
299.95934
299.95716
299.95494
299.95489
299.9571
299.96111
299.96628
299.97233
299.97997
299.99196
299.98146
299.97398
299.96809
299.96309
299.95923
299.95712
299.96115
299.96118
299.96639
299.96823
299.97419
299.97717
299.98134
299.98606
299.99143
299.99618
300.0007
299.99563
299.98781
299.98408
299.98174
299.98024
299.97252
299.97249
299.96637
299.96815
299.96312
299.96672
299.97143
299.97696
299.98381
299.99535
299.98757
299.98112
299.97587
299.97148
299.97708
299.97413
299.98169
299.98022
299.99229
299.99231
300.00345
300.0046
300.00661
300.00787
300.00885
300.00804
300.00724
300.00738
300.00828
300.00955
300.00957
300.0097
300.00941
300.00939
300.00966
300.00949
300.00944
300.00815
300.00701
300.00794
300.00713
300.00792
300.0087
300.00867
300.00847
300.00811
300.00809
300.00842
300.00864
300.00869
300.00793
300.00716
300.00795
300.00831
300.00763
300.00627
300.00415
300.00297
300.00301
300.00425
300.00636
300.0077
300.00834
300.00859
300.00812
300.00936
300.00936
300.00947
300.00913
300.00911
300.00941
300.00933
300.00936
300.00814
300.00726
300.0074
300.00816
300.00857
300.00827
300.00938
300.00714
300.00522
300.00845
300.00425
299.99319
299.99675
300.00146
300.00638
300.0083
300.00943
300.00942
300.00948
300.00874
300.00639
300.00436
300.00865
300.00837
300.00322
300.00323
300.00838
300.0087
300.00443
300.0065
300.00052
299.99601
299.99128
299.9877
299.98401
299.99558
300.00062
300.00535
300.00781
300.00882
300.00882
300.00956
300.00971
300.00941
300.00939
300.00966
300.00863
300.00541
300.00724
300.00153
299.99603
299.99644
299.99413
299.99161
299.99133
299.98568
299.99135
299.99161
299.98625
299.9809
299.98743
299.98758
299.98387
299.98345
299.98351
299.97655
299.97645
299.98079
299.97531
299.98076
299.98758
299.99685
299.98741
299.98348
299.98087
299.97647
299.98339
299.98383
299.97638
299.97318
299.98127
299.99329
300.00447
300.00449
300.00866
300.00546
300.00734
300.00953
300.00952
300.00842
300.00656
300.00164
299.99689
299.9933
299.9797
299.9797
299.97882
299.98047
299.97653
299.97287
299.97108
299.97139
299.96492
299.96692
299.97057
299.96969
299.97507
299.96975
299.97062
299.96542
299.96396
299.95955
299.9659
299.97302
299.98058
299.98135
299.97983
299.97898
299.97668
299.97129
299.97159
299.97331
299.96704
299.96511
299.96373
299.95715
299.95929
299.96145
299.95706
299.96138
299.95947
299.96577
299.96352
299.95698
299.95913
299.95462
299.95188
299.95463
299.95198
299.95471
299.95215
299.94909
299.94594
299.9492
299.95504
299.96252
299.96492
299.96908
299.97499
299.97489
299.9682
299.96131
299.96814
299.96902
299.9626
299.95772
299.95592
299.96381
299.96104
299.95293
299.95106
299.96078
299.97736
299.99672
300.00034
300.00478
300.00875
300.00719
300.00293
299.9983
299.99474
299.9948
300.00849
300.00429
300.0053
300.00721
300.00938
300.00831
300.00649
300.00161
299.99688
299.99325
299.97987
299.97901
299.97675
299.98068
299.98145
299.97342
299.97163
299.97133
299.97312
299.97671
299.98359
299.98402
299.98778
299.98762
299.9837
299.98111
299.98101
299.97662
299.9708
299.96716
299.96515
299.96377
299.96601
299.95968
299.9572
299.95936
299.96159
299.96562
299.96414
299.96992
299.97529
299.97555
299.97082
299.96993
299.96602
299.95967
299.95477
299.95204
299.95477
299.95721
299.95476
299.95221
299.94915
299.95204
299.95718
299.95934
299.96158
299.96719
299.96518
299.96377
299.97139
299.97318
299.97676
299.98114
299.98649
299.99182
299.99156
299.99625
300.00171
299.99665
299.99435
299.99186
299.99162
299.98594
299.98105
299.98788
299.99708
299.98769
299.98375
299.98369
299.98417
299.97669
299.9735
299.98163
299.99354
299.9808
299.97682
299.97914
299.98007
299.97172
299.97169
299.96515
299.95929
299.95471
299.95217
299.95211
299.95459
299.95911
299.9649
299.97138
299.97106
299.97881
299.9765
299.98044
299.98125
299.97313
299.97282
299.9764
299.98335
299.98381
299.97633
299.98073
299.98759
299.98739
299.98343
299.98081
299.97496
299.96958
299.96569
299.96349
299.95695
299.95938
299.96131
299.96687
299.97049
299.96532
299.96382
299.96961
299.97053
299.97525
299.98078
299.9812
299.98586
299.99122
299.99141
299.99164
299.99418
299.98624
299.98571
299.99146
300.00168
299.99616
299.99653
299.99167
299.98745
299.98085
299.98347
299.97647
299.97642
299.98395
299.99698
299.98768
299.98344
299.98055
299.97289
299.96572
299.95938
299.95452
299.95185
299.94906
299.95186
299.95459
299.95697
299.96132
299.95914
299.95696
299.96353
299.96495
299.9669
299.97323
299.97149
299.97114
299.97655
299.97891
299.99342
299.9814
299.97987
299.97988
299.97151
299.96499
299.95918
299.95464
299.9519
299.94911
299.95198
299.95463
299.95709
299.96146
299.95953
299.95712
299.96373
299.9659
299.96708
299.97068
299.96545
299.96141
299.95948
299.957
299.96356
299.9658
299.96698
299.97064
299.96972
299.96395
299.96976
299.97511
299.97541
299.98094
299.97658
299.97342
299.97308
299.97136
299.97675
299.97912
299.99352
299.98005
299.98157
299.98072
299.98359
299.97663
299.9836
299.98099
299.98758
299.99705
299.98409
299.98781
299.99159
299.98587
299.98091
299.97651
299.9733
299.97295
299.97117
299.97658
299.97893
299.99344
299.98145
299.98059
299.98351
299.97655
299.98355
299.98096
299.98754
299.99702
299.98401
299.98778
299.99157
300.00174
299.99178
299.98639
299.99428
299.99179
300.00174
299.99628
299.99664
300.0066
300.00737
300.00315
299.99852
299.99497
299.99499
299.99857
300.00314
300.00727
300.00307
299.99843
300.00047
299.99677
299.97744
299.98512
299.98717
300.00259
300.01089
300.0076
300.00474
300.00379
300.0035
300.00351
300.00382
300.00366
300.00366
300.00343
300.00342
300.00353
300.00347
300.00362
300.00391
300.00437
300.00442
300.00478
300.00754
300.00756
300.00763
300.0066
300.00511
300.00406
300.00511
300.00532
300.00496
300.00396
300.00355
300.00356
300.00401
300.00443
300.00441
300.00478
300.00473
300.00446
300.00624
300.00625
300.00446
300.00369
300.00369
300.00378
300.00378
300.00381
300.00351
300.00348
300.00371
300.0037
300.00363
300.00428
300.00578
300.00498
300.00397
300.00355
300.00348
300.00368
300.00419
300.00503
300.00594
300.0065
300.0065
300.00596
300.00506
300.00421
300.0037
300.00348
300.00337
300.00336
300.00347
300.0037
300.00404
300.00443
300.00471
300.00471
300.00443
300.00403
300.00369
300.00347
300.00336
300.00337
300.00332
300.00332
300.00335
300.00338
300.00337
300.00332
300.00335
300.00343
300.00348
300.00356
300.00344
300.00341
300.00346
300.00349
300.00349
300.00345
300.00341
300.00335
300.00324
300.00306
300.00304
300.00306
300.00305
300.00323
300.00324
300.00323
300.00305
300.00305
300.00301
300.00306
300.00325
300.00325
300.00324
300.00306
300.00307
300.00326
300.00328
300.00309
300.00303
300.00302
300.00304
300.00298
300.0033
300.00324
300.00343
300.00357
300.0038
300.0035
300.00363
300.00347
300.00354
300.00372
300.0046
300.00422
300.00392
300.00425
300.00379
300.00331
300.00327
300.0035
300.00306
300.00323
300.00501
300.00401
300.00315
300.00292
300.00301
300.00324
300.00325
300.00338
300.00345
300.00356
300.00343
300.00359
300.00341
300.0035
300.00381
300.00426
300.00364
300.00348
300.00338
300.00341
300.00328
300.00326
300.00308
300.00309
300.00305
300.00303
300.00328
300.00325
300.00331
300.00299
300.00309
300.00354
300.00397
300.00435
300.00357
300.00374
300.00468
300.00781
300.00648
300.00487
300.00389
300.00361
300.00437
300.00484
300.00766
300.00789
300.01067
300.01086
300.00246
300.00664
300.0098
300.01073
300.00663
300.00674
300.00757
300.0077
300.01104
300.00253
300.00669
300.00485
300.00301
299.99842
300.00044
299.9849
299.99605
299.99848
300.00132
300.00892
300.01158
300.00896
300.0051
299.98957
299.98692
299.97856
299.99891
299.9968
299.99483
299.99484
299.9968
299.97716
299.97719
299.96352
299.96843
299.97559
299.98492
299.98697
299.98964
300.00507
300.00129
299.99889
299.97877
299.98088
299.96242
299.96886
299.97805
299.97659
299.97641
299.97537
299.96762
299.96849
299.96041
299.95936
299.96755
299.96227
299.95267
299.95429
299.95583
299.96366
299.96478
299.95764
299.95486
299.9623
299.96081
299.95274
299.95086
299.96053
299.95887
299.94888
299.94071
299.94507
299.95278
299.96243
299.96367
299.95438
299.9474
299.94975
299.95219
299.9491
299.94628
299.9427
299.94639
299.94362
299.94083
299.94909
299.95914
299.95921
299.96263
299.96825
299.96775
299.95803