/*--------------------------------*- C++ -*----------------------------------*\
  =========                 |
  \\      /  F ield         | OpenFOAM: The Open Source CFD Toolbox
   \\    /   O peration     | Website:  https://openfoam.org
    \\  /    A nd           | Version:  7
     \\/     M anipulation  |
\*---------------------------------------------------------------------------*/
FoamFile
{
    version     2.0;
    format      ascii;
    class       volScalarField;
    location    "240";
    object      alphat;
}
// * * * * * * * * * * * * * * * * * * * * * * * * * * * * * * * * * * * * * //

dimensions      [1 -1 -1 0 0 0 0];

internalField   nonuniform List<scalar> 
24789
(
0.0014547433
0.0077203925
0.018807359
0.032267971
0.4222189
0.42307467
0.032347552
0.018855809
0.0077401507
0.0014560961
0.0014576808
0.0077637478
0.018914609
0.03244451
0.42409282
0.42521797
0.032544148
0.0189747
0.0077880145
0.0014593089
0.0014611461
0.0078154503
0.019042985
0.032656914
0.42643981
0.42776189
0.032772933
0.019112997
0.0078437445
0.0014630414
0.0014651525
0.0078752389
0.019191114
0.03290176
0.42919191
0.43073495
0.033035589
0.019271994
0.0079079897
0.0014673487
0.0014697735
0.0079440884
0.019361308
0.033182829
0.4324022
0.43419712
0.033335895
0.019453982
0.0079817221
0.0014723061
0.0014750797
0.0080228873
0.019555552
0.033503243
0.43612161
0.43818959
0.033677229
0.019661049
0.0080658336
0.001477984
0.0014811454
0.0081124327
0.019775783
0.033866261
0.44040431
0.44277619
0.034062753
0.019894919
0.0081609903
0.001484463
0.0014880567
0.0082131455
0.020023163
0.034274161
0.44530696
0.44800945
0.034494071
0.02015633
0.0082673985
0.0014918462
0.001495949
0.0083251449
0.020298503
0.034729044
0.45089225
0.45397309
0.03497374
0.020446112
0.0083850835
0.0015003086
0.0015050438
0.0084484255
0.020602678
0.035233773
0.45726741
0.46080062
0.035505365
0.020765473
0.0085141234
0.0015101247
0.0015156703
0.0085831843
0.020937433
0.0357932
0.46459899
0.46869996
0.036094885
0.02111664
0.0086548393
0.0015216803
0.0015282782
0.00872993
0.021305709
0.036414823
0.47314303
0.47798353
0.036750729
0.021502725
0.0088076198
0.0015354845
0.0015434406
0.008888435
0.021709788
0.037106621
0.48328627
0.4891407
0.037479949
0.02192467
0.0089712983
0.0015522125
0.0015619899
0.0090561824
0.022148096
0.037872809
0.49566531
0.50302874
0.038280745
0.022376554
0.0091414654
0.0015729599
0.0015854905
0.0092260277
0.022608732
0.038701823
0.5114582
0.5213252
0.039132325
0.022842787
0.0093086131
0.0016001201
0.0016189716
0.0093986485
0.023089611
0.039598053
0.53337313
0.54876631
0.040225416
0.023415898
0.0095188077
0.0016457933
0.0016781175
0.009652286
0.023964228
0.041271081
0.56926294
0.60528536
0.04381643
0.025557918
0.010330574
0.0017335008
0.0017663863
0.010667766
0.026193393
0.044565172
0.63070829
0.65111849
0.047518957
0.027884653
0.011321625
0.0018019576
0.0017942195
0.011888017
0.029648769
0.050961692
0.65159857
0.69425349
0.043673839
0.02618152
0.010781032
0.0017579802
0.0017197084
0.010298837
0.025123014
0.04244271
0.68480172
0.65887841
0.038670996
0.022825201
0.0093056356
0.0016536951
0.0016054133
0.0088995309
0.021728513
0.036917616
0.63207159
0.6141412
0.036152097
0.021278004
0.0087531498
0.0015718796
0.0015468004
0.0086429018
0.021012032
0.035683803
0.59906899
0.5864281
0.035315552
0.020809438
0.0085630978
0.0015291065
0.0015152572
0.0084919474
0.020616804
0.034963498
0.57569075
0.56628796
0.034606734
0.02041955
0.0084194041
0.0015035574
0.0014933314
0.0083440085
0.020218251
0.034248997
0.55792827
0.55043222
0.033897349
0.020016835
0.0082672263
0.0014841971
0.0014759598
0.0081908957
0.019819355
0.033557193
0.54365233
0.5374871
0.033231438
0.019627991
0.0081159732
0.0014684782
0.0014616904
0.0080434281
0.019444295
0.032921291
0.53184621
0.52666784
0.032626594
0.019268379
0.0079733836
0.0014554952
0.0014498601
0.0079062989
0.019100751
0.032347236
0.52189301
0.51747703
0.032081738
0.018940521
0.0078418055
0.0014446899
0.0014399702
0.0077803727
0.0187884
0.031830578
0.51338597
0.50958154
0.031591778
0.018643136
0.0077214653
0.0014356085
0.0014316035
0.0076655338
0.018505418
0.03136577
0.50603885
0.50274501
0.03115161
0.01837439
0.0076121125
0.0014278698
0.0014244192
0.0075616061
0.018250394
0.030948837
0.4996638
0.49679087
0.030756857
0.018132625
0.0075134894
0.0014211722
0.00141816
0.0074682927
0.018021672
0.030575578
0.49409739
0.49158977
0.03040429
0.017916552
0.0074253719
0.0014153093
0.0014126686
0.0073853639
0.017818176
0.030243521
0.48924921
0.4870816
0.030092469
0.017725451
0.0073475555
0.0014101678
0.0014078636
0.0073125251
0.017639052
0.029951095
0.48506534
0.48318525
0.029818181
0.017557549
0.0072793853
0.0014056748
0.001403673
0.0072489095
0.017482121
0.029694549
0.48146167
0.47985295
0.029578064
0.017410793
0.0072199851
0.0014017632
0.0014000282
0.0071935817
0.017345218
0.029470403
0.4783641
0.47698817
0.029368995
0.01728318
0.0071684734
0.0013983674
0.0013968721
0.0071457532
0.017226573
0.02927591
0.47572175
0.47459069
0.029190066
0.017173865
0.0071243701
0.0013954482
0.0013941903
0.0071056566
0.017127283
0.029113669
0.47359974
0.47487975
0.029200192
0.017178983
0.0071261927
0.0013955187
0.0013969071
0.0071467504
0.017229501
0.029281574
0.4758692
0.47708609
0.029370961
0.017284085
0.0071688772
0.0013983744
0.0014000407
0.0071941369
0.017346795
0.02947342
0.47844804
0.47993401
0.029579356
0.017411354
0.0072202766
0.0014017635
0.0014036852
0.0072494543
0.017483612
0.029697361
0.4815461
0.48328752
0.029819464
0.017558235
0.0072797659
0.0014056846
0.0014078964
0.0073133524
0.017641174
0.029954835
0.48517036
0.48720269
0.030095319
0.017727131
0.0073483408
0.0014102039
0.0014127314
0.0073866574
0.017821442
0.030249118
0.48939487
0.49175512
0.030409554
0.01791964
0.0074266923
0.0014153779
0.0014182536
0.0074700295
0.018026042
0.030583014
0.49429376
0.49701913
0.030764099
0.018136971
0.0075153346
0.0014212785
0.00142456
0.0075640476
0.01825654
0.030959213
0.49993579
0.50306031
0.03116244
0.018380862
0.0076147735
0.001428031
0.0014318046
0.007668855
0.018513803
0.031379897
0.50640896
0.51000139
0.031606817
0.018652144
0.0077251177
0.0014358371
0.0014402416
0.0077847226
0.018799272
0.03184868
0.51386106
0.51801534
0.03210162
0.018952483
0.0078466616
0.0014449942
0.0014502038
0.0079118886
0.019114531
0.032369997
0.52249668
0.52734199
0.032651435
0.019283495
0.0079796206
0.0014558657
0.0014620884
0.008050616
0.019461652
0.032949618
0.53259618
0.53831148
0.033262227
0.019647035
0.0081239931
0.001468883
0.0014763628
0.0081999701
0.019840848
0.033591735
0.54455074
0.55139224
0.033933919
0.02003979
0.0082770516
0.001484568
0.0014936539
0.0083544893
0.020242546
0.034287444
0.55893609
0.56731674
0.034643629
0.020443197
0.0084299594
0.0015037986
0.0015154066
0.0085019487
0.020637428
0.03499485
0.57670002
0.58733836
0.035332185
0.020821671
0.0085709445
0.0015291758
0.0015468376
0.0086470363
0.021009014
0.035674762
0.59976368
0.61459064
0.036114168
0.021252076
0.0087504983
0.0015721166
0.0016082862
0.0089287882
0.02174067
0.036954831
0.63280363
0.65932664
0.0388215
0.02287542
0.0092993567
0.001654095
0.0017228918
0.010390978
0.025391287
0.043245667
0.68867853
0.69568116
0.040930932
0.024743111
0.01025906
0.0017165695
0.0017749095
0.011746449
0.029320683
0.05026847
0.65218233
0.65932164
0.046915444
0.027211173
0.011001933
0.001759345
0.0017924569
0.011367561
0.028318692
0.049036022
0.63448578
0.60194791
0.043672996
0.025565609
0.010302751
0.0017304449
0.001680475
0.009757171
0.023968211
0.041012202
0.5715478
0.551446
0.039729227
0.023232032
0.0094977338
0.0016399699
0.0016102393
0.009333058
0.022832869
0.039024801
0.53589283
0.5234388
0.038514146
0.022542668
0.0092182409
0.0015897748
0.0015741933
0.0091228164
0.022290629
0.038065787
0.51317771
0.50439366
0.037636409
0.022049291
0.0090319023
0.0015613265
0.001550283
0.008942191
0.02181352
0.037221061
0.49672366
0.48993085
0.036821654
0.021584003
0.0088537696
0.0015405186
0.0015317658
0.008767728
0.021363141
0.036441214
0.4838412
0.47833766
0.036080485
0.021151704
0.0086844276
0.0015238317
0.0015166277
0.0086045149
0.020950404
0.035739403
0.47332073
0.4687254
0.035416699
0.020758685
0.0085278592
0.0015100352
0.0015040194
0.0084548932
0.020577002
0.035112246
0.46449857
0.46059271
0.034823642
0.020403933
0.0083850499
0.0014984771
0.0014933971
0.0083187448
0.020240028
0.034551121
0.45697329
0.45360865
0.034292319
0.020083781
0.0082553119
0.0014886829
0.001484338
0.0081952188
0.019935888
0.034047732
0.45047522
0.4475455
0.033815037
0.019794782
0.008137738
0.0014802683
0.0014764984
0.0080834784
0.019661526
0.033595379
0.44481097
0.44224741
0.033386431
0.01953451
0.0080316771
0.001472941
0.0014696405
0.0079830962
0.019415182
0.033189994
0.4398546
0.43761708
0.033003673
0.019301824
0.0079368938
0.0014665143
0.0014636234
0.0078938889
0.019195972
0.032829369
0.43553325
0.43359086
0.032664485
0.019095679
0.0078530916
0.0014608806
0.0014583559
0.0078153414
0.019002466
0.032510782
0.43178346
0.43012203
0.032366941
0.018914905
0.0077797528
0.0014559662
0.0014537797
0.0077469492
0.0188336
0.032232594
0.42857097
0.42713421
0.032105973
0.018756688
0.0077157986
0.0014516954
0.0014498071
0.0076874335
0.018686224
0.03198949
0.42581025
0.42459355
0.031880059
0.01861975
0.0076605335
0.0014480056
0.0014464029
0.0076365216
0.018560111
0.031781673
0.42351391
0.4226377
0.031696816
0.018507679
0.0076149802
0.0014449244
0.0014562786
0.0077432129
0.018864378
0.032362899
0.42327929
0.42418884
0.032447842
0.018916101
0.0077643062
0.0014577098
0.0014593889
0.0077893582
0.018978315
0.032550193
0.42528107
0.42649582
0.032657027
0.019042876
0.0078154843
0.0014611397
0.0014631155
0.0078450156
0.019116273
0.032778174
0.42782251
0.42926105
0.032902968
0.019191742
0.007875586
0.0014651653
0.0014674451
0.0079096125
0.019276098
0.033042129
0.43081793
0.43249555
0.033186371
0.019363324
0.0079449704
0.0014698183
0.0014724258
0.0079837332
0.019459072
0.03334415
0.43430783
0.43625396
0.033508594
0.019558693
0.0080242333
0.0014751557
0.0014781338
0.0080683172
0.019667336
0.033687572
0.438342
0.440583
0.033874235
0.019780431
0.0081143598
0.0014812577
0.0014846441
0.0081639438
0.019902351
0.034075053
0.4429814
0.44554626
0.034284976
0.020029469
0.0082157217
0.0014882126
0.001492073
0.0082710135
0.020165412
0.034509251
0.44828807
0.45121905
0.034743515
0.020306988
0.0083286011
0.0014961665
0.0015006057
0.0083897035
0.020457626
0.034993011
0.45435713
0.45771889
0.035253574
0.020614359
0.0084531865
0.0015053499
0.0015105202
0.0085202206
0.020780549
0.035530579
0.46133146
0.4652247
0.035820655
0.020953764
0.0085898801
0.0015161004
0.0015222159
0.0086632138
0.021137089
0.036128865
0.46943749
0.47401423
0.036452843
0.021328622
0.0087394356
0.0015288754
0.0015362131
0.0088193411
0.021530942
0.036797105
0.47901226
0.48450387
0.037159844
0.021742355
0.0089021312
0.0015442774
0.0015532379
0.0089882073
0.021964556
0.037544348
0.49058504
0.49738305
0.037948654
0.022195614
0.0090766405
0.0015632222
0.0015745288
0.0091673457
0.022435713
0.038373509
0.50507742
0.51390623
0.038815768
0.022682921
0.0092592397
0.0015875327
0.0016029566
0.0093539669
0.022942042
0.039280843
0.52425437
0.53686388
0.039801554
0.023230458
0.0094645118
0.001622969
0.0016514348
0.0096206639
0.02362694
0.040519282
0.55281021
0.57349729
0.041714893
0.02428354
0.009807277
0.0016868345
0.0017410804
0.010474103
0.025952655
0.044482181
0.60771411
0.63448409
0.046494381
0.027179513
0.011028328
0.0017874389
0.0018015326
0.011385886
0.028020691
0.047745516
0.65452931
0.65717044
0.051514907
0.029952424
0.011988843
0.0018002643
0.50876142
0.063165508
0.035525106
0.013934116
0.0020017045
0.0018800111
0.012333147
0.03061455
0.053157782
0.64434807
0.73535954
0.044102274
0.026439451
0.010941674
0.0017848588
0.0017586231
0.010888569
0.026669203
0.045607927
0.67705649
0.66399558
0.048120505
0.027793491
0.011203039
0.0017733251
0.0017701347
0.011049441
0.027459339
0.047241426
0.63622913
0.60049141
0.043010715
0.025151202
0.010157674
0.0017184197
0.0016706005
0.009632803
0.023675709
0.04058885
0.56869201
0.54877422
0.039481194
0.02306078
0.0094244448
0.00163369
0.0016062376
0.0092865687
0.022720727
0.038859937
0.53359525
0.52154218
0.038396813
0.022464649
0.009186451
0.0015871255
0.0015723595
0.0091001274
0.022234694
0.03797977
0.51164776
0.50317414
0.037572203
0.022008233
0.0090153604
0.0015600255
0.0015493383
0.0089299086
0.021782885
0.037172473
0.49575291
0.48915884
0.036784468
0.021560837
0.0088445108
0.0015398171
0.0015312333
0.0087606164
0.021345386
0.036412496
0.48322584
0.47784226
0.036057624
0.021137693
0.0086788216
0.0015234162
0.0015163026
0.0086001341
0.020939468
0.035721458
0.47292229
0.46840597
0.035402367
0.020750011
0.0085243856
0.0015097785
0.0015038175
0.0084521408
0.020570131
0.035100838
0.46423988
0.46038413
0.034814486
0.020398449
0.0083828591
0.0014983183
0.001493273
0.0083170127
0.02023571
0.034543897
0.45680678
0.45347481
0.034286422
0.020080261
0.0082538996
0.0014885836
0.0014842584
0.0081940621
0.019933022
0.034042921
0.45036578
0.44745642
0.033811218
0.019792476
0.0081367945
0.0014802055
0.0014764495
0.0080827213
0.019659677
0.033592297
0.44474058
0.44219204
0.033383987
0.019533011
0.008031054
0.0014729018
0.0014696096
0.0079825808
0.019413935
0.033187914
0.43980722
0.43758383
0.033002322
0.019300956
0.0079365152
0.0014664916
0.001463608
0.0078936265
0.019195371
0.032828403
0.43550871
0.43357836
0.032664007
0.019095332
0.0078529237
0.0014608714
0.0014583546
0.0078152949
0.019002428
0.032510808
0.43177779
0.43010486
0.032365591
0.01891418
0.0077794995
0.0014559567
0.0014537687
0.0077467149
0.018833015
0.032231629
0.428553
0.42711828
0.032104767
0.018755972
0.0077155209
0.0014516811
0.0014497924
0.0076871927
0.018685642
0.031988548
0.42579418
0.42458348
0.031878771
0.018618982
0.0076602364
0.0014479863
0.001446382
0.0076362556
0.018559453
0.031780589
0.42349841
0.42263711
0.031695571
0.0185069
0.0076146653
0.0014448977
0.0013955357
0.0071259014
0.017177991
0.029197539
0.47475524
0.47581268
0.029276866
0.017226638
0.0071457127
0.0013968599
0.0013983944
0.0071690111
0.017284554
0.029371499
0.47704619
0.47840459
0.029468851
0.01734395
0.0071930715
0.0013999827
0.0014017728
0.0072202797
0.017411491
0.029579308
0.47988587
0.48149147
0.029692868
0.017480821
0.0072483998
0.0014036258
0.0014056842
0.0072796738
0.017558194
0.029819243
0.48322872
0.48510312
0.029950069
0.017638177
0.0073121818
0.0014078263
0.0014101808
0.0073479265
0.017726306
0.030093847
0.48712291
0.48929465
0.030243585
0.017817893
0.0073852193
0.001412641
0.001415322
0.0074257412
0.017917427
0.030405704
0.49162854
0.49413693
0.030575658
0.018021469
0.0074681902
0.001418138
0.0014211904
0.0075139108
0.018133637
0.030758489
0.49683347
0.49971398
0.030949289
0.018250499
0.0075616378
0.0014244078
0.0014278968
0.0076126744
0.018375818
0.031153932
0.50279552
0.50609139
0.031367202
0.018506087
0.0076657454
0.0014316024
0.0014356349
0.0077220206
0.018644683
0.031594395
0.50962109
0.51340359
0.031831649
0.018788815
0.0077804356
0.0014399611
0.0014446886
0.0078419135
0.01894107
0.03208282
0.51746762
0.52184263
0.032346036
0.019099705
0.0079057149
0.0014498113
0.0014554339
0.0079725473
0.019266761
0.032624354
0.5265682
0.53168495
0.032916139
0.019440626
0.0080416719
0.0014615637
0.0014683074
0.0081134728
0.019622659
0.033223684
0.53724685
0.54331734
0.033544798
0.019810722
0.0081868913
0.0014756924
0.0014838376
0.0082614538
0.020004285
0.033879216
0.54997844
0.55733694
0.034221944
0.020199305
0.0083353189
0.0014928271
0.0015029083
0.0084071353
0.020392641
0.03456852
0.56554467
0.57480257
0.03490968
0.020578436
0.0084745929
0.0015144137
0.0015280616
0.0085393026
0.020756371
0.03524183
0.58542819
0.59806259
0.035582881
0.020938201
0.0086100455
0.0015454527
0.0015701976
0.008709374
0.021177014
0.03602003
0.61345372
0.6324218
0.036758144
0.021601456
0.008853922
0.0016035729
0.0016510182
0.0092264526
0.022608785
0.038334302
0.66020922
0.68759924
0.041391529
0.024638306
0.010148894
0.0017153363
0.0017607929
0.01083924
0.026285875
0.043746216
0.69770646
0.65426898
0.053097572
0.030696403
0.012317049
0.0018313868
0.0018219017
0.011555464
0.028515118
0.048656246
0.65299158
0.63069868
0.04374327
0.025811561
0.010537153
0.0017644022
0.0017434175
0.01046781
0.02592954
0.044619439
0.60567337
0.5697043
0.04150525
0.024106732
0.0097030938
0.0016831999
0.0016492955
0.0095544637
0.023491304
0.040326676
0.54915617
0.53342405
0.039623279
0.02311154
0.009410342
0.0016208342
0.0016009866
0.0093102954
0.022844742
0.039131191
0.52119828
0.51125937
0.038692447
0.022603776
0.0092242241
0.0015858368
0.0015730604
0.0091387623
0.022370387
0.038270579
0.50281373
0.49545997
0.037862784
0.022141682
0.0090532485
0.0015619531
0.001552141
0.008968929
0.0219196
0.03747208
0.48895999
0.48313415
0.037099558
0.02170518
0.0088863052
0.001543338
0.0015354054
0.0088061818
0.02149967
0.036745998
0.47786187
0.47304728
0.036410441
0.02130285
0.0087286241
0.0015281906
0.0015216312
0.008654156
0.021115192
0.036092564
0.46862886
0.46454771
0.035791029
0.020935977
0.0085825058
0.0015156141
0.0015101088
0.0085139968
0.020765276
0.035504944
0.46076969
0.45724902
0.0352331
0.020602182
0.00844817
0.0015050151
0.0015003209
0.0083853621
0.020446869
0.034974787
0.45396534
0.45088628
0.03472869
0.020298284
0.0083250345
0.0014959326
0.001491868
0.0082677818
0.020157308
0.034495393
0.44800629
0.44530058
0.03427355
0.020022835
0.0082130126
0.0014880408
0.001484487
0.0081613842
0.019895894
0.034064005
0.44277061
0.44039592
0.033865339
0.019775265
0.0081122229
0.001481125
0.0014780077
0.008066232
0.019662046
0.033678505
0.4381821
0.43611061
0.033502078
0.019554881
0.0080226128
0.0014750541
0.0014723295
0.0079821092
0.019454928
0.033337016
0.43418733
0.43238808
0.033181968
0.019360752
0.0079438338
0.0014697482
0.0014673776
0.0079084182
0.019273008
0.033036736
0.43072887
0.42918104
0.03290127
0.019190717
0.0078750242
0.0014651294
0.0014630784
0.0078442856
0.019114292
0.032774509
0.42775841
0.42643121
0.032656428
0.019042612
0.0078152499
0.0014611265
0.0014593623
0.007788759
0.018976533
0.032546643
0.42521758
0.42408988
0.032444184
0.018914391
0.007763633
0.0014576765
0.001456185
0.0077413837
0.018859021
0.032352533
0.42310611
0.42325844
0.032358945
0.018861857
0.0077422198
0.0014561774
0.0014577091
0.007764492
0.018916513
0.032447809
0.42416904
0.42526277
0.032548001
0.018976871
0.0077888101
0.0014593393
0.0014611673
0.0078159457
0.019044076
0.03265857
0.42648236
0.42780872
0.032776065
0.019114916
0.0078445208
0.0014630775
0.0014651937
0.0078760053
0.019192825
0.032904349
0.42924685
0.43080406
0.033040143
0.019274812
0.0079091426
0.0014674114
0.0014698447
0.0079453102
0.019364114
0.033187179
0.43248458
0.43429637
0.033342854
0.019458175
0.0079834041
0.0014724005
0.001475181
0.008024595
0.019559607
0.033509756
0.43624457
0.43833336
0.033686328
0.019666478
0.0080680061
0.0014781095
0.0014812783
0.0081146376
0.01978109
0.033874972
0.4405753
0.44297287
0.034073863
0.019901536
0.0081636561
0.0014846207
0.0014882272
0.008215947
0.020029961
0.034285474
0.44553997
0.4482811
0.034507919
0.020164544
0.0082707276
0.0014920466
0.0014961719
0.008328809
0.02030737
0.034743878
0.45121108
0.45434552
0.034991464
0.020456679
0.0083894367
0.0015005687
0.001505334
0.008453377
0.020614507
0.035253498
0.45770265
0.46130494
0.035528429
0.02077936
0.008519987
0.0015104535
0.0015160298
0.0085899896
0.020953223
0.035819172
0.46518156
0.46936662
0.036124839
0.021135007
0.0086628723
0.0015220682
0.0015286758
0.0087392076
0.021326396
0.036448101
0.47390251
0.47884228
0.036788454
0.021526451
0.008818465
0.0015358834
0.0015438177
0.008900905
0.021736236
0.037147865
0.48425219
0.49022042
0.037525414
0.021954426
0.008985772
0.0015525583
0.0015622933
0.009072832
0.022180749
0.037921109
0.49686717
0.50436379
0.038332152
0.022412823
0.0091610514
0.0015732612
0.0015859324
0.0092502284
0.022650251
0.038757259
0.51295077
0.52301668
0.039200445
0.022896786
0.0093425764
0.0016010653
0.0016207433
0.0094511271
0.023173704
0.039699187
0.53532216
0.55099964
0.040389884
0.023553942
0.0096052765
0.0016491347
0.0016865299
0.0098233259
0.024219033
0.041596984
0.57175152
0.60563118
0.044278746
0.025847204
0.010429765
0.0017364912
0.0017890158
0.011110214
0.027388781
0.047069928
0.63495043
0.65281855
0.046116734
0.027158744
0.011086644
0.0017732633
1.5379593
2.6753767
1.9464331
0.69968604
0.043829191
0.026282655
0.010812569
0.0017627379
0.0017912279
0.011384478
0.02832745
0.049155725
0.66158675
0.0019632243
0.013497958
0.034286004
0.060746735
0.5052475
0.43781442
0.057288775
0.032329968
0.01273467
0.0018856806
0.0018907004
0.012675946
0.032262937
0.057254383
0.43549407
0.58077228
0.054912199
0.031262418
0.012468516
0.0018608008
1.0535696
1.2642807
2.4600806
1.9601469
8.1722661
8.2628189
8.2352092
8.1722215
8.1355207
8.1858969
8.1894413
8.1413517
0.0014449243
0.0076150424
0.01850784
0.031697224
0.42260945
0.42348579
0.031778606
0.018557868
0.0076355949
0.001446328
0.0014479911
0.0076604931
0.018619726
0.03188028
0.4245688
0.42577997
0.03198531
0.018683392
0.0076862951
0.0014497172
0.0014516667
0.0077155575
0.018756133
0.03210521
0.42709671
0.42852506
0.032227979
0.018830537
0.0077457172
0.0014536825
0.0014559235
0.0077792708
0.018913683
0.032364932
0.43006983
0.43173565
0.032505986
0.018999336
0.0078140851
0.0014582571
0.0014608309
0.0078525436
0.019094371
0.032662406
0.43352981
0.43545969
0.032823814
0.019192475
0.0078925014
0.0014635169
0.0014664534
0.0079361527
0.019300001
0.033000639
0.43753118
0.43975414
0.033183848
0.019411391
0.0079815969
0.0014695275
0.0014728661
0.0080307367
0.019532153
0.0333824
0.44213406
0.44467682
0.033588551
0.019657394
0.0080818538
0.0014763748
0.0014801709
0.0081364975
0.019791599
0.033809504
0.44739215
0.45029461
0.03403945
0.019930928
0.0081932817
0.0014841886
0.0014885461
0.0082535418
0.020079206
0.03428442
0.45340045
0.45672946
0.034539986
0.020233394
0.0083161681
0.0014932033
0.0014982823
0.0083824381
0.020397182
0.034812167
0.46030887
0.46416843
0.035097085
0.020567918
0.0084513768
0.0015037618
0.0015097622
0.0085240639
0.020748794
0.035400059
0.46834548
0.4728855
0.035718557
0.020937874
0.0085997294
0.001516288
0.0015234622
0.0086791523
0.021137692
0.036057092
0.47784284
0.48328659
0.036413073
0.02134611
0.0087613804
0.0015313154
0.0015399965
0.0088465887
0.021564256
0.036788941
0.48930577
0.49602537
0.037181183
0.021789236
0.0089334914
0.0015496183
0.001560493
0.009021841
0.022020793
0.037590033
0.50362336
0.51234532
0.038011785
0.022256689
0.0091107256
0.0015730569
0.0015881876
0.0092046093
0.022504814
0.038457291
0.52259274
0.5351763
0.038976596
0.022794264
0.0093170931
0.0016078755
0.0016359551
0.0094765734
0.023209412
0.03972125
0.5511539
0.57204654
0.040995204
0.023913628
0.0096826997
0.0016704956
0.0017243804
0.010412501
0.02569159
0.043963314
0.60635386
0.63208073
0.044979485
0.026374931
0.01069399
0.0017439319
0.001785385
0.0113352
0.028231693
0.048998083
0.65732378
0.044589498
0.026693415
0.011074651
0.0017920628
0.0017586384
0.010490676
0.025125891
0.041746659
0.71851733
0.62205961
0.047639468
0.027584077
0.011165388
0.0018158908
0.0018602274
0.012372286
0.031068566
0.054944865
0.57517487
0.67092669
0.046514693
0.027051329
0.01105072
0.0017664916
0.0017853008
0.011334903
0.028230844
0.048996604
0.65745433
0.63216029
0.044979491
0.026374597
0.010693894
0.0017439017
0.0017243568
0.010412336
0.025691031
0.043962703
0.60639969
0.57207903
0.040993258
0.023912597
0.0096823971
0.0016704693
0.0016359292
0.0094763426
0.023208506
0.039719467
0.5511836
0.5352058
0.038975659
0.022793808
0.0093169841
0.0016078648
0.0015881833
0.0092044212
0.022504243
0.038456253
0.52262557
0.51238027
0.038011535
0.022256538
0.0091106513
0.0015730681
0.0015605132
0.0090217491
0.022020572
0.037589681
0.5036621
0.49606284
0.03718146
0.021789336
0.0089334733
0.0015496513
0.001540033
0.0088464976
0.021564111
0.036788809
0.48934516
0.4833225
0.036413451
0.021346238
0.0087613498
0.0015313593
0.0015235056
0.0086790265
0.0211375
0.036056963
0.47787934
0.47291497
0.035719005
0.020937985
0.0085996684
0.0015163369
0.0015098055
0.0085238555
0.020748384
0.035399568
0.46836987
0.46418098
0.035096725
0.020567588
0.0084511556
0.0015038027
0.0014983127
0.0083820488
0.020396273
0.034810803
0.46031446
0.45672724
0.03453967
0.020233065
0.0083159296
0.0014932368
0.0014885713
0.0082531817
0.020078365
0.034283149
0.45339914
0.45029037
0.034039452
0.019930823
0.0081931342
0.0014842212
0.0014801993
0.0081362886
0.019791102
0.033808741
0.44739201
0.44467471
0.033589781
0.019658027
0.0080819965
0.0014764183
0.0014729097
0.008030825
0.019532343
0.033382661
0.4421399
0.43975535
0.033185738
0.019412545
0.0079819765
0.0014695851
0.0014665039
0.0079363262
0.019300288
0.03300085
0.43753076
0.43545591
0.032826044
0.019193865
0.0078929682
0.0014635798
0.0014608858
0.0078528048
0.019094863
0.032662914
0.43353062
0.43174186
0.032509453
0.019001423
0.0078147949
0.0014583317
0.001455991
0.0077797557
0.018914731
0.032366317
0.4300806
0.42852791
0.032230745
0.018832365
0.0077463753
0.0014537568
0.0014517252
0.0077159037
0.018756769
0.032105807
0.42709653
0.42576778
0.031987643
0.01868501
0.0076868714
0.0014497824
0.0014480324
0.0076606048
0.018619668
0.031879522
0.42454752
0.42342402
0.031777997
0.018557962
0.0076356405
0.0014463582
0.0014448673
0.007613239
0.018502058
0.03168534
0.42240291
0.42152009
0.031602428
0.018451311
0.0075925882
0.001443454
0.42314229
0.032351027
0.018857405
0.0077406339
0.0014560994
0.001457643
0.0077634476
0.018914027
0.032443971
0.42409103
0.4251938
0.032541669
0.018973174
0.0077874183
0.001459251
0.0014610859
0.0078148789
0.019041573
0.032654678
0.4264101
0.42773467
0.032770156
0.019111388
0.0078431432
0.0014629802
0.0014650995
0.0078748225
0.01919008
0.032900095
0.4291687
0.43071748
0.033033665
0.019270902
0.0079075874
0.0014672984
0.0014697314
0.0079438725
0.019360767
0.033181928
0.43238699
0.43418211
0.03333508
0.019453526
0.0079815435
0.0014722651
0.0014750414
0.0080227417
0.0195552
0.033502612
0.43610813
0.43817109
0.033676781
0.019660827
0.0080657443
0.0014779489
0.0014811116
0.0081123739
0.019775594
0.033865786
0.44038568
0.4427594
0.034062636
0.019894949
0.0081610155
0.0014844328
0.0014880263
0.0082132321
0.020023361
0.034274328
0.44529041
0.44798699
0.034494062
0.02015645
0.0082674605
0.0014918105
0.001495907
0.0083251964
0.020298609
0.034729026
0.45086128
0.45392717
0.034973113
0.020445906
0.0083850284
0.0015002544
0.0015049744
0.0084482378
0.020602186
0.035232724
0.45720312
0.46070999
0.035503081
0.020764278
0.00851367
0.0015100331
0.0015155567
0.0085824697
0.020935658
0.035790028
0.46447876
0.46854362
0.036090135
0.021113915
0.0086537254
0.0015215409
0.0015281135
0.0087283855
0.021302023
0.036408575
0.47294783
0.47774469
0.036742653
0.021497862
0.0088055337
0.0015352974
0.0015432417
0.0088857577
0.021703604
0.037096447
0.48300163
0.48881184
0.037467766
0.021917217
0.008968045
0.0015520226
0.0015618479
0.0090524537
0.02213953
0.037858735
0.49529798
0.5026367
0.038265573
0.022367601
0.0091376926
0.0015729419
0.0015857375
0.0092232762
0.022601292
0.03868785
0.51106889
0.52099266
0.039125962
0.022841838
0.0093091559
0.0016008821
0.0016207465
0.0094092478
0.023108816
0.039618316
0.53320071
0.5489092
0.040321188
0.02348824
0.009553238
0.0016492039
0.0016831269
0.0097017979
0.024103657
0.041499837
0.56942333
0.60534967
0.044614543
0.025927095
0.010466848
0.0017433348
0.0017643289
0.010536032
0.025808601
0.043737621
0.6303046
0.65253057
0.048646221
0.028510029
0.011552987
0.0018219091
0.0018316435
0.012309277
0.030697338
0.053107513
0.65376088
0.69713646
0.043749263
0.02628724
0.010839193
0.0017608778
0.0017731527
0.011205635
0.027798124
0.048129219
0.66338482
0.65876358
0.046880942
0.027192149
0.010995071
0.0017587094
0.0017164577
0.010253747
0.024734607
0.040918567
0.69501008
0.65228933
0.046102055
0.027150928
0.011081712
0.0017731972
0.0018013423
0.011377529
0.028007482
0.047723514
0.65411941
0.69928465
0.043811288
0.026271705
0.010805745
0.0017626028
0.0017909248
0.011376926
0.028314155
0.049135423
0.66139983
0.63463136
0.044232742
0.025979393
0.010541411
0.0017391151
0.0017198113
0.0103396
0.025529793
0.043735411
0.60863901
0.57408092
0.041001086
0.023900664
0.0096707737
0.0016688177
0.0016351075
0.0094679313
0.02320158
0.039729615
0.55240453
0.53601692
0.038981047
0.022789402
0.009312283
0.0016074265
0.0015879706
0.0092026793
0.022503435
0.038461929
0.5232219
0.51285235
0.038018275
0.022258196
0.0091106939
0.0015729857
0.0015605134
0.0090228876
0.022024033
0.037597765
0.50405819
0.49640739
0.037190416
0.021793885
0.0089352075
0.001549706
0.0015401244
0.0088485694
0.021569319
0.036798324
0.48964931
0.48359253
0.036422819
0.021351573
0.0087635127
0.0015314713
0.0015236256
0.0086811442
0.021142726
0.036065985
0.47811721
0.47312397
0.035727307
0.020942855
0.0086016452
0.0015164559
0.0015099183
0.0085256535
0.020752842
0.035407137
0.4685522
0.4643412
0.035103717
0.020571706
0.0084528074
0.0015039083
0.0014984088
0.0083835214
0.020399951
0.03481703
0.46045492
0.45684907
0.034544995
0.020236213
0.0083171955
0.0014933214
0.0014886449
0.0082542653
0.020081087
0.034287788
0.45350169
0.45037524
0.034042777
0.019932837
0.0081939664
0.0014842797
0.0014802472
0.008136973
0.019792794
0.033811607
0.44745686
0.44472742
0.033591184
0.019658947
0.0080824072
0.0014764505
0.0014729319
0.0080311283
0.019533072
0.033383899
0.44217374
0.43978463
0.033186465
0.019412998
0.0079821724
0.0014695998
0.0014665148
0.0079365018
0.019300755
0.033001725
0.43755464
0.43547065
0.032826873
0.019194333
0.0078931508
0.0014635906
0.0014608963
0.007852995
0.019095382
0.032663869
0.4335504
0.43175085
0.032509148
0.019001325
0.0078147969
0.0014583329
0.0014559865
0.0077796988
0.018914578
0.032366078
0.43008111
0.42853325
0.032230451
0.018832196
0.0077463139
0.0014537504
0.0014517179
0.0077158436
0.018756629
0.032105616
0.42709762
0.42578591
0.031988312
0.018685326
0.0076869644
0.0014497819
0.0014480353
0.007660744
0.018620071
0.031880276
0.42456302
0.42343728
0.031777582
0.018557804