/*--------------------------------*- C++ -*----------------------------------*\
  =========                 |
  \\      /  F ield         | OpenFOAM: The Open Source CFD Toolbox
   \\    /   O peration     | Website:  https://openfoam.org
    \\  /    A nd           | Version:  7
     \\/     M anipulation  |
\*---------------------------------------------------------------------------*/
FoamFile
{
    version     2.0;
    format      ascii;
    class       volScalarField;
    location    "490";
    object      T;
}
// * * * * * * * * * * * * * * * * * * * * * * * * * * * * * * * * * * * * * //

dimensions      [0 0 0 1 0 0 0];

internalField   nonuniform List<scalar> 
24866
(
299.99997
299.99996
299.99996
299.99998
300
300
300
300
300
300
300
300
300
300
300
300
300
300
300
300
300
300
300
300
300
300
300
300
300
300
300
300
300
300
300
300
300
300
300
300
300
300
300
300
300
300
300
300
300
300
300
300
300
300
300
300
300
300
300
300
300
300
300
300
300
300
300
300
300
300
300
300
300
300
300
300
300
300
300
300
300
300
300
300
300
300
300
300
300
300
300
300
300
300
300
300
300
300
300
300
300
300
300
300
300
300
300
300
300
300
300
300
300
300
300
300
300
300
300
300
300
300
300
300
300
300
300
300
300
300
300
300.00001
300.00001
300.00001
300.00001
300
300
300
300
300
300
300
300
300
299.99999
299.99999
299.99999
299.99998
299.99998
299.99998
299.99998
299.99999
299.99998
299.99999
299.99999
299.99998
299.99998
299.99999
299.99998
299.99999
299.99998
299.99998
299.99998
299.99998
299.99998
299.99998
299.99998
299.99998
299.99998
299.99998
299.99998
299.99998
299.99998
299.99998
299.99998
299.99998
299.99998
299.99998
299.99999
299.99999
299.99999
299.99999
299.99999
299.99998
299.99999
299.99999
300
300
300
300
300
300
300
300
300
300
300
300.00001
300.00001
300.00001
300.00001
300.00001
300
300
300
300
300
300
299.99999
299.99999
299.99999
299.99999
299.99998
299.99999
299.99996
299.99996
299.99996
299.99996
299.99996
299.99996
299.99996
299.99996
299.99996
299.99996
299.99996
299.99997
299.99996
299.99996
299.99996
299.99996
299.99996
299.99996
299.99996
299.99996
299.99996
299.99996
299.99996
299.99996
299.99996
299.99996
299.99996
299.99996
299.99996
299.99993
299.99992
299.99992
299.99992
299.99992
299.99996
299.99998
299.99998
299.99998
299.99998
299.99998
299.99998
299.99998
299.99998
299.99998
299.99998
299.99998
299.99998
299.99998
299.99998
299.99998
299.99998
299.99998
299.99999
300
300
299.99999
299.99998
299.99999
299.99998
299.99998
299.99999
299.99999
299.99999
299.99999
299.99998
299.99999
299.99999
299.99999
299.99999
300
300
300
300
300
300
300
300
300.00001
300
300.00001
300.00001
300
300
300
300
300
300
300
300
300
300
300
300
300
300
300
300
300
300
300
300
300
300
300
300
300
300
300
300
300
300
300
300
300
300
300
300
299.99999
299.99999
299.99999
299.99999
299.99999
299.99999
299.99998
299.99997
299.99996
299.99996
299.99996
299.99996
299.99998
299.99999
299.99999
299.99999
299.99999
299.99999
299.99999
299.99998
299.99999
299.99998
299.99997
299.99997
299.99996
299.99996
299.99996
299.99996
299.99993
299.99993
299.99993
299.99993
299.99993
299.99993
299.99993
299.99993
299.99993
299.99993
299.99993
299.99993
299.99993
299.99993
299.99993
299.99993
299.99992
299.99992
299.99992
299.99992
299.99993
299.99993
299.99992
299.99993
299.99993
299.99993
299.99993
299.99992
299.99992
299.99988
299.99988
299.99988
299.99988
299.99988
299.99988
299.99988
299.99993
299.99996
299.99996
299.99996
299.99996
299.99996
299.99996
299.99996
299.99996
299.99996
299.99996
299.99996
299.99996
299.99996
299.99993
299.99993
299.99993
299.99993
299.99993
299.99993
299.99993
299.99993
299.99993
299.99993
299.99989
299.99989
299.99989
299.99988
299.99988
299.99988
299.99988
299.99989
299.99989
299.99989
299.99989
299.9999
299.9999
299.99989
299.99989
299.99989
299.99989
299.99988
299.99988
299.99988
299.99988
299.99988
299.99988
299.99988
299.99989
299.99989
299.99989
299.99989
299.99988
299.99982
299.99982
299.99982
299.99981
299.99982
299.99982
299.99981
299.99982
299.99982
299.99982
299.99988
299.99992
299.99993
299.99993
299.99993
299.99993
299.99992
299.99993
299.99993
299.99992
299.99992
299.99988
299.99988
299.99988
299.99989
299.99989
299.99989
299.9999
299.9999
299.9999
299.99989
299.99984
299.99984
299.99984
299.99984
299.99983
299.99983
299.99983
299.99983
299.99984
299.99983
299.99983
299.99984
299.99984
299.99985
299.99984
299.99983
299.99983
299.99983
299.99982
299.99982
299.99982
299.99982
299.99983
299.99982
299.99982
299.99983
299.99983
299.99983
299.99983
299.99975
299.99974
299.99974
299.99974
299.99973
299.99973
299.99973
299.99973
299.99974
299.99974
299.99974
299.99975
299.99983
299.99989
299.99989
299.99989
299.99989
299.99988
299.99988
299.99989
299.99988
299.99982
299.99982
299.99982
299.99982
299.99984
299.99983
299.99984
299.99984
299.99985
299.99985
299.99977
299.99977
299.99976
299.99976
299.99976
299.99975
299.99975
299.99975
299.99975
299.99976
299.99976
299.99976
299.99977
299.99977
299.99977
299.99977
299.99976
299.99975
299.99975
299.99974
299.99974
299.99974
299.99973
299.99975
299.99974
299.99974
299.99975
299.99976
299.99976
299.99965
299.99965
299.99963
299.99963
299.99963
299.99961
299.99962
299.99962
299.99962
299.99963
299.99963
299.99963
299.99965
299.99966
299.99976
299.99983
299.99984
299.99983
299.99983
299.99983
299.99983
299.99975
299.99974
299.99974
299.99974
299.99974
299.99976
299.99976
299.99976
299.99977
299.99978
299.99968
299.99968
299.99967
299.99965
299.99965
299.99965
299.99963
299.99964
299.99964
299.99963
299.99965
299.99965
299.99965
299.99966
299.99967
299.99967
299.99966
299.99965
299.99964
299.99965
299.99963
299.99963
299.99962
299.99962
299.99964
299.99963
299.99963
299.99965
299.99965
299.99952
299.99952
299.99951
299.99949
299.99948
299.99949
299.99947
299.99947
299.99947
299.99947
299.99949
299.99948
299.99949
299.99951
299.99952
299.99952
299.99966
299.99976
299.99976
299.99975
299.99975
299.99964
299.99964
299.99963
299.99963
299.99963
299.99963
299.99965
299.99965
299.99965
299.99967
299.99953
299.99954
299.99954
299.99953
299.99951
299.99951
299.99951
299.99949
299.99949
299.99949
299.99949
299.99951
299.99951
299.99951
299.99953
299.99954
299.99954
299.99952
299.9995
299.9995
299.9995
299.99948
299.99948
299.99948
299.99947
299.99949
299.99949
299.99949
299.99951
299.99933
299.99934
299.99934
299.99933
299.99931
299.9993
299.99931
299.99929
299.99929
299.99929
299.99929
299.99931
299.9993
299.99931
299.99933
299.99934
299.99934
299.99934
299.99951
299.99965
299.99964
299.9995
299.99949
299.9995
299.99948
299.99948
299.99948
299.99949
299.99951
299.99951
299.99951
299.99934
299.99936
299.99937
299.99937
299.99936
299.99934
299.99933
299.99934
299.99932
299.99931
299.99931
299.99931
299.99933
299.99933
299.99933
299.99935
299.99936
299.99936
299.99935
299.99933
299.99932
299.99932
299.9993
299.9993
299.9993
299.9993
299.99931
299.99931
299.99931
299.99911
299.99913
299.99913
299.99913
299.99912
299.99911
299.9991
299.9991
299.99909
299.99909
299.99909
299.99909
299.9991
299.9991
299.99911
299.99913
299.99914
299.99914
299.99913
299.99912
299.99932
299.99932
299.99932
299.9993
299.9993
299.99931
299.99931
299.99933
299.99933
299.99913
299.99914
299.99916
299.99917
299.99917
299.99916
299.99914
299.99914
299.99914
299.99913
299.99912
299.99912
299.99912
299.99913
299.99913
299.99914
299.99915
299.99916
299.99916
299.99915
299.99913
299.99912
299.99912
299.99911
299.9991
299.9991
299.9991
299.99911
299.99911
299.99892
299.99893
299.99893
299.99893
299.99893
299.99892
299.99892
299.99891
299.99891
299.99892
299.99891
299.99891
299.99892
299.99891
299.99892
299.99893
299.99893
299.99893
299.99893
299.99894
299.99894
299.99893
299.99912
299.99912
299.99911
299.99911
299.99911
299.99912
299.99913
299.99895
299.99895
299.99896
299.99896
299.99896
299.99897
299.99896
299.99896
299.99896
299.99895
299.99896
299.99895
299.99895
299.99896
299.99895
299.99895
299.99896
299.99896
299.99895
299.99895
299.99895
299.99895
299.99894
299.99893
299.99894
299.99893
299.99893
299.99893
299.99892
299.99882
299.99882
299.99883
299.99881
299.9988
299.99879
299.9988
299.99882
299.99881
299.9988
299.99883
299.99882
299.99882
299.99883
299.99881
299.99881
299.99882
299.99881
299.9988
299.9988
299.99882
299.99884
299.99883
299.99883
299.99893
299.99894
299.99894
299.99894
299.99895
299.99887
299.99884
299.99885
299.99886
299.99885
299.99884
299.99884
299.99885
299.99887
299.99886
299.99885
299.99888
299.99887
299.99887
299.99887
299.99885
299.99885
299.99886
299.99884
299.99883
299.99882
299.99883
299.99885
299.99884
299.99883
299.99885
299.99884
299.99884
299.99884
299.99892
299.99888
299.99888
299.99889
299.99886
299.99884
299.99884
299.99885
299.99888
299.99887
299.99886
299.9989
299.9989
299.9989
299.99891
299.99887
299.99888
299.99889
299.99886
299.99885
299.99885
299.99887
299.9989
299.9989
299.99889
299.99894
299.99886
299.99886
299.99886
299.99893
299.99894
299.99891
299.99892
299.99893
299.9989
299.99889
299.99889
299.99891
299.99893
299.99893
299.99892
299.99895
299.99894
299.99894
299.99895
299.99891
299.99892
299.99892
299.99889
299.99887
299.99887
299.99888
299.99891
299.9989
299.99889
299.99893
299.99891
299.99891
299.99917
299.99917
299.99913
299.99914
299.99914
299.99911
299.99909
299.99909
299.9991
299.99913
299.99913
299.99912
299.99916
299.99915
299.99915
299.99916
299.99912
299.99913
299.99914
299.99911
299.9991
299.9991
299.99912
299.99916
299.99915
299.99915
299.99919
299.99919
299.99893
299.99879
299.99865
299.9988
299.99868
299.99854
299.99875
299.99865
299.99858
299.99859
299.99865
299.99876
299.99898
299.99919
299.99918
299.99917
299.99921
299.9992
299.9992
299.99921
299.99916
299.99917
299.99918
299.99914
299.99912
299.99912
299.99913
299.99916
299.99915
299.99914
299.99918
299.99917
299.99957
299.99957
299.99958
299.99954
299.99954
299.99954
299.99951
299.9995
299.99949
299.99951
299.99954
299.99953
299.99953
299.99956
299.99956
299.99956
299.99957
299.99953
299.99954
299.99954
299.99952
299.9995
299.99951
299.99953
299.99956
299.99956
299.99956
299.9996
299.99959
299.9996
299.99919
299.9992
299.99916
299.99918
299.99918
299.99916
299.99914
299.99914
299.99916
299.99956
299.99959
299.99958
299.99958
299.99961
299.9996
299.9996
299.99961
299.99957
299.99957
299.99958
299.99955
299.99953
299.99952
299.99954
299.99956
299.99956
299.99955
299.99958
300.00008
300.00008
300.00008
300.00008
300.00005
300.00005
300.00005
300.00002
300
300
300.00001
300.00004
300.00004
300.00004
300.00007
300.00007
300.00007
300.00007
300.00004
300.00005
300.00005
300.00002
300.00001
300.00002
300.00003
300.00006
300.00007
300.00007
300.0001
300.0001
300.0001
300.0001
299.9996
299.99957
299.99958
299.99958
299.99956
299.99955
299.99955
300.00005
300.00006
300.00008
300.00009
300.00008
300.0001
300.0001
300.0001
300.0001
300.00007
300.00008
300.00007
300.00005
300.00003
300.00003
300.00004
300.00006
300.00006
300.00005
300.00063
300.00065
300.00065
300.00065
300.00065
300.00063
300.00063
300.00062
300.0006
300.00059
300.00059
300.0006
300.00062
300.00063
300.00062
300.00064
300.00065
300.00065
300.00064
300.00062
300.00063
300.00062
300.00061
300.0006
300.0006
300.00061
300.00064
300.00064
300.00064
300.00066
300.00066
300.00067
300.00066
300.00065
300.00008
300.00008
300.00008
300.00006
300.00005
300.00062
300.00062
300.00063
300.00064
300.00065
300.00064
300.00066
300.00066
300.00066
300.00066
300.00064
300.00064
300.00064
300.00062
300.00061
300.0006
300.00061
300.00063
300.00064
300.00124
300.00124
300.00125
300.00125
300.00125
300.00125
300.00124
300.00124
300.00123
300.00122
300.00122
300.00122
300.00122
300.00123
300.00124
300.00124
300.00125
300.00126
300.00126
300.00125
300.00124
300.00124
300.00124
300.00123
300.00122
300.00122
300.00123
300.00124
300.00125
300.00125
300.00125
300.00126
300.00126
300.00125
300.00124
300.00125
300.00065
300.00065
300.00063
300.00123
300.00123
300.00122
300.00123
300.00123
300.00124
300.00124
300.00125
300.00125
300.00125
300.00125
300.00124
300.00124
300.00123
300.00122
300.00122
300.00122
300.00122
300.00123
300.00181
300.00182
300.00182
300.00182
300.00183
300.00183
300.00182
300.00183
300.00183
300.00182
300.00182
300.00182
300.00182
300.00182
300.00182
300.00183
300.00183
300.00183
300.00184
300.00184
300.00183
300.00183
300.00183
300.00182
300.00182
300.00182
300.00182
300.00182
300.00182
300.00182
300.00182
300.00182
300.00182
300.00182
300.00181
300.00181
300.00181
300.0018
300.00124
300.00116
300.00111
300.00108
300.00108
300.00111
300.00116
300.00177
300.0018
300.00181
300.0018
300.0018
300.00181
300.00181
300.00181
300.00181
300.00181
300.0018
300.0018
300.00181
300.00181
300.00181
300.00232
300.00232
300.00233
300.00234
300.00234
300.00234
300.00235
300.00234
300.00235
300.00235
300.00234
300.00234
300.00235
300.00235
300.00235
300.00235
300.00236
300.00236
300.00235
300.00236
300.00236
300.00235
300.00236
300.00236
300.00234
300.00234
300.00234
300.00234
300.00233
300.00233
300.00234
300.00233
300.00233
300.00233
300.00233
300.00232
300.00232
300.00232
300.00231
300.00231
300.0018
300.0018
300.0018
300.0018
300.0023
300.0023
300.00231
300.00231
300.0023
300.00231
300.00231
300.00231
300.00231
300.00232
300.00231
300.00231
300.00232
300.00232
300.00277
300.00277
300.00277
300.00278
300.00279
300.00279
300.00279
300.0028
300.00279
300.0028
300.0028
300.0028
300.0028
300.00281
300.00281
300.00281
300.00281
300.00282
300.00282
300.00281
300.00282
300.00282
300.00281
300.00281
300.00281
300.0028
300.0028
300.0028
300.00279
300.00279
300.00278
300.00278
300.00278
300.00277
300.00277
300.00277
300.00276
300.00276
300.00276
300.00275
300.00275
300.00275
300.00231
300.00231
300.00275
300.00275
300.00274
300.00275
300.00275
300.00275
300.00275
300.00275
300.00275
300.00276
300.00276
300.00275
300.00276
300.00277
300.00317
300.00317
300.00317
300.00317
300.00318
300.00319
300.00319
300.00319
300.0032
300.0032
300.0032
300.00321
300.0032
300.00321
300.00321
300.00322
300.00321
300.00321
300.00322
300.00322
300.00321
300.00322
300.00322
300.00321
300.00321
300.00321
300.0032
300.0032
300.0032
300.0032
300.00319
300.00318
300.00318
300.00318
300.00317
300.00317
300.00316
300.00316
300.00316
300.00315
300.00314
300.00315
300.00315
300.00315
300.00314
300.00314
300.00314
300.00314
300.00314
300.00315
300.00315
300.00315
300.00315
300.00315
300.00315
300.00316
300.00351
300.00352
300.00353
300.00353
300.00353
300.00354
300.00354
300.00355
300.00355
300.00355
300.00356
300.00356
300.00356
300.00356
300.00357
300.00357
300.00358
300.00357
300.00357
300.00358
300.00358
300.00357
300.00357
300.00357
300.00357
300.00357
300.00357
300.00356
300.00356
300.00356
300.00355
300.00355
300.00354
300.00354
300.00353
300.00353
300.00352
300.00352
300.00351
300.00351
300.00351
300.0035
300.0035
300.0035
300.0035
300.0035
300.0035
300.0035
300.0035
300.0035
300.0035
300.0035
300.0035
300.00351
300.00351
300.00351
300.00382
300.00383
300.00384
300.00384
300.00384
300.00385
300.00385
300.00386
300.00387
300.00387
300.00388
300.00388
300.00388
300.00388
300.00388
300.00389
300.00389
300.00389
300.00389
300.00389
300.00389
300.00389
300.00389
300.00389
300.00389
300.00389
300.00389
300.00388
300.00388
300.00388
300.00388
300.00387
300.00387
300.00386
300.00386
300.00385
300.00385
300.00384
300.00384
300.00384
300.00383
300.00383
300.00383
300.00383
300.00383
300.00383
300.00382
300.00382
300.00382
300.00382
300.00382
300.00382
300.00383
300.00383
300.00383
300.00383
300.00411
300.00411
300.00411
300.00412
300.00412
300.00412
300.00413
300.00414
300.00415
300.00416
300.00416
300.00417
300.00417
300.00417
300.00417
300.00417
300.00417
300.00418
300.00418
300.00418
300.00418
300.00418
300.00418
300.00418
300.00418
300.00418
300.00418
300.00417
300.00417
300.00417
300.00417
300.00417
300.00416
300.00416
300.00415
300.00415
300.00414
300.00414
300.00414
300.00414
300.00414
300.00413
300.00413
300.00413
300.00413
300.00413
300.00412
300.00412
300.00412
300.00412
300.00412
300.00412
300.00412
300.00412
300.00412
300.00412
300.00438
300.00437
300.00436
300.00436
300.00436
300.00437
300.00437
300.00437
300.00439
300.0044
300.00441
300.00442
300.00442
300.00443
300.00442
300.00443
300.00443
300.00442
300.00443
300.00443
300.00443
300.00443
300.00443
300.00443
300.00443
300.00443
300.00443
300.00443
300.00443
300.00442
300.00442
300.00442
300.00441
300.00441
300.00441
300.00441
300.00441
300.0044
300.00441
300.0044
300.0044
300.0044
300.0044
300.0044
300.0044
300.0044
300.00439
300.00439
300.00439
300.00439
300.00439
300.00439
300.00439
300.00439
300.00439
300.00439
300.00464
300.00461
300.00458
300.00456
300.00456
300.00457
300.00457
300.00457
300.00457
300.00459
300.00463
300.00465
300.00466
300.00466
300.00466
300.00466
300.00466
300.00466
300.00465
300.00464
300.00464
300.00465
300.00466
300.00466
300.00466
300.00466
300.00467
300.00466
300.00466
300.00465
300.00465
300.00465
300.00464
300.00463
300.00463
300.00464
300.00465
300.00465
300.00465
300.00465
300.00465
300.00465
300.00465
300.00465
300.00465
300.00465
300.00465
300.00464
300.00463
300.00463
300.00464
300.00464
300.00464
300.00465
300.00465
300.00465
300.0048
300.00479
300.00478
300.00476
300.00472
300.00472
300.00472
300.00473
300.00473
300.00473
300.00476
300.00478
300.00479
300.0048
300.0048
300.0048
300.0048
300.0048
300.00479
300.00479
300.00479
300.00479
300.00479
300.00479
300.00479
300.00479
300.00479
300.00479
300.00479
300.00479
300.00479
300.00479
300.00479
300.00478
300.00478
300.00478
300.00479
300.00479
300.0048
300.00479
300.00479
300.0048
300.0048
300.0048
300.0048
300.00481
300.00481
300.0048
300.0048
300.0048
300.0048
300.0048
300.0048
300.0048
300.0048
300.0048
300.00494
300.00494
300.00493
300.00494
300.00496
300.00498
300.00499
300.00498
300.00497
300.00494
300.00492
300.0049
300.00491
300.00491
300.0049
300.00492
300.00492
300.00491
300.00492
300.00493
300.00493
300.00492
300.0049
300.0049
300.0049
300.00488
300.00489
300.00489
300.00488
300.0049
300.0049
300.0049
300.00492
300.00493
300.00493
300.00493
300.00492
300.00493
300.00493
300.00491
300.00493
300.00493
300.00492
300.00494
300.00497
300.00498
300.00496
300.00496
300.00497
300.00496
300.00495
300.00496
300.00495
300.00494
300.005
300.00501
300.0051
300.00532
300.00572
300.00621
300.00661
300.00655
300.00612
300.00566
300.00529
300.00509
300.00499
300.00498
300.00505
300.0053
300.00587
300.0069
300.00832
300.00952
300.00959
300.00844
300.00696
300.00588
300.0053
300.00505
300.00499
300.005
300.00489
300.00489
300.00483
300.00485
300.00479
300.00485
300.00483
300.00491
300.00486
300.00479
300.00486
300.0049
300.0049
300.00483
300.00483
300.00488
300.00507
300.00519
300.00536
300.0055
300.00545
300.0053
300.00515
300.00505
300.00498
300.00499
300.0049
300.00489
300.00483
300.00479
300.00483
300.00485
300.00485
300.00488
300.00497
300.00488
300.00481
300.00485
300.00485
300.00488
300.00492
300.0049
300.0049
300.00492
300.00489
300.00494
300.00484
300.00487
300.00491
300.00495
300.00506
300.00511
300.00513
300.00509
300.00503
300.00505
300.00493
300.00485
300.00488
300.0048
300.00487
300.00492
300.00484
300.00489
300.0047
300.00468
300.00477
300.0047
300.00468
300.00472
300.00467
300.0044
300.00413
300.00415
300.00413
300.0044
300.00444
300.00457
300.00443
300.00414
300.00419
300.00413
300.00441
300.00444
300.00416
300.00418
300.00446
300.00472
300.00492
300.0053
300.00516
300.00498
300.0055
300.00509
300.00487
300.00523
300.00582
300.00493
300.00508
300.00637
300.00661
300.00611
300.00925
300.00711
300.0057
300.00508
300.00486
300.00468
300.00486
300.00521
300.00474
300.00461
300.0048
300.00487
300.00488
300.00488
300.00488
300.00488
300.00487
300.00481
300.00482
300.00484
300.00484
300.00482
300.00464
300.00467
300.00503
300.0049
300.00507
300.00523
300.00602
300.00817
300.01286
300.01431
300.01507
300.01509
300.01435
300.01291
300.01131
300.00981
300.00854
300.00855
300.00987
300.01143
300.0131
300.01457
300.01533
300.01533
300.01456
300.01308
300.01143
300.00988
300.00856
300.00856
300.00696
300.0057
300.00516
300.00501
300.00499
300.00506
300.00511
300.00511
300.00506
300.005
300.00502
300.00517
300.00569
300.00692
300.0085
300.00851
300.0098
300.01135
300.01304
300.01459
300.01541
300.01545
300.01468
300.01317
300.01146
300.00987
300.00854
300.00852
300.00978
300.01125
300.0146
300.01952
300.02448
300.02871
300.03044
300.03046
300.03049
300.03048
300.0287
300.02439
300.01943
300.01458
300.01129
300.00836
300.00619
300.00534
300.0055
300.00661
300.00953
300.01439
300.01292
300.01721
300.02311
300.02875
300.03068
300.03124
300.03083
300.02951
300.02838
300.02747
300.02743
300.02827
300.02935
300.03066
300.0311
300.03062
300.02877
300.03117
300.03052
300.02834
300.02554
300.02284
300.02129
300.02135
300.02301
300.02578
300.02861
300.03076
300.03134
300.03108
300.03075
300.02572
300.01932
300.02047
300.01516
300.01518
300.00955
300.00662
300.0055
300.00534
300.00621
300.00841
300.01299
300.01444
300.01939
300.0205
300.0272
300.02714
300.03102
300.02903
300.02997
300.02619
300.02879
300.02472
300.01965
300.01496
300.0121
300.01201
300.01472
300.0193
300.02433
300.02842
300.03081
300.03064
300.02958
300.02568
300.01936
300.01175
300.0049
300.00078
300.0009
300.00522
300.01222
300.0199
300.01546
300.02366
300.0222
300.02829
300.02834
300.03112
300.0292
300.02383
300.02226
300.01287
300.01282
300.00139
300.00549
299.99624
299.99048
299.99034
299.99583
300.00489
300.01478
300.02301
300.02855
300.03079
300.02773
300.02146
300.01205
300.00072
299.99026
299.98379
299.98395
299.99072
299.99075
300.00143
300.00562
300.01562
300.02018
300.02647
300.03023
300.03099
300.02586
300.0233
300.01732
300.01469
300.01138
300.00986
300.0123
300.01568
300.01961
300.02465
300.02907
300.03177
300.03144
300.02918
300.02515
300.02009
300.0125
300.00548
299.99635
299.99057
299.98397
299.98381
299.99028
300.00075
300.01208
300.02151
300.02778
300.03087
300.02869
300.02315
300.0149
300.005
299.99593
299.99042
300.00102
300.00114
300.01255
300.01541
300.02362
300.02635
300.02914
300.03124
300.03175
300.03111
300.02909
300.031
300.0314
300.03014
300.02906
300.02817
300.02198
300.02191
300.01246
300.01514
300.00513
300.01198
300.01959
300.02592
300.0298
300.03085
300.03112
300.02876
300.0247
300.0197
300.02608
300.02343
300.02893
300.02813
300.03106
300.0311
300.02731
300.02594
300.02336
300.01964
300.01475
300.01232
300.01015
300.00966
300.01199
300.01448
300.01729
300.01943
300.0206
300.02056
300.01934
300.01716
300.01433
300.01186
300.00979
300.01221
300.01008
300.01221
300.01464
300.01734
300.0195
300.02068
300.02071
300.01958
300.01746
300.01476
300.0123
300.01012
300.01224
300.01564
300.01959
300.02329
300.0258
300.02714
300.02713
300.02575
300.0232
300.01948
300.01555
300.01483
300.01185
300.01434
300.01718
300.01937
300.0206
300.02063
300.01946
300.01729
300.01445
300.01191
300.00954
300.01036
300.01185
300.01486
300.01914
300.01691
300.02273
300.02549
300.02165
300.02682
300.03129
300.03098
300.02911
300.0243
300.01906
300.01428
300.01676
300.01708
300.01724
300.02322
300.02579
300.01934
300.0205
300.02721
300.02726
300.02052
300.0194
300.02592
300.02337
300.02904
300.031
300.03157
300.03119
300.02996
300.03092
300.02905
300.02468
300.01965
300.01467
300.01731
300.01719
300.01931
300.02046
300.02043
300.01922
300.02155
300.02547
300.02264
300.02916
300.03161
300.03216
300.03265
300.0324
300.03192
300.03111
300.032
300.03247
300.03191
300.02947
300.03216
300.03162
300.03034
300.03081
300.03104
300.02729
300.02617
300.02888
300.02501
300.02896
300.03177
300.03117
300.03232
300.0312
300.02957
300.02745
300.03104
300.03057
300.02632
300.02352
300.02963
300.03165
300.02687
300.02693
300.02164
300.02562
300.02284
300.01696
300.0144
300.01925
300.02457
300.02948
300.03141
300.03172
300.0289
300.02885
300.02911
300.02991
300.02779
300.02433
300.02311
300.02202
300.01243
300.01527
300.01989
300.02049
300.0258
300.02043
300.01983
300.01202
300.01242
300.00506
300.01588
300.02414
300.0296
300.02933
300.02852
300.02878
300.0275
300.0229
300.02184
300.02334
300.0152
300.01239
300.01292
300.00056
300.00063
300.00493
299.9954
300.00493
300.00506
300.01595
300.01296
300.0005
300.00056
299.98951
299.98884
299.99505
299.98893
299.98959
299.9827
299.98165
299.98071
299.98846
300.00073
300.01346
300.0165
300.02117
300.02649
300.0275
300.02193
300.01379
300.02201
300.02124
300.01308
300.00542
300.00581
300.01735
300.01406
300.00087
300.00121
300.01562
300.02988
300.03362
300.03262
300.0302
300.02455
300.02438
300.02943
300.03169
300.03231
300.03234
300.0216
300.02681
300.02544
300.02264
300.01681
300.01905
300.02425
300.02911
300.03103
300.03132
300.02856
300.02882
300.0276
300.02971
300.02944
300.02351
300.02191
300.02298
300.0243
300.0275
300.03096
300.0305
300.03179
300.03233
300.03125
300.02971
300.02913
300.0264
300.02017
300.01545
300.01248
300.01301
300.01613
300.00541
300.00069
300.00075
300.00527
300.0125
300.0129
300.02077
300.02617
300.02538
300.02041
300.021
300.0166
300.00566
299.99549
299.9891
299.98975
299.99583
299.98999
299.98288
299.98184
299.98934
300.00118
300.00124
300.00553
300.01593
300.01318
300.0137
300.02379
300.02493
300.02787
300.02989
300.03213
300.03254
300.03207
300.0317
300.0292
300.03225
300.03278
300.03264
300.03218
300.03135
300.02931
300.03205
300.03131
300.0326
300.03154
300.0314
300.03093
300.02679
300.02414
300.03008
300.03187
300.03034
300.02831
300.0296
300.02937
300.02273
300.02279
300.01323
300.00127
299.99002
299.98289
299.98272
299.98953
300.00059
300.01246
300.02207
300.02314
300.02915
300.02787
300.03003
300.02977
300.02366
300.02446
300.02767
300.03127
300.03081
300.02654
300.02929
300.03209
300.03264
300.03149
300.02989
300.02615
300.02071
300.01608
300.013
300.00052
300.00516
300.00503
300.01539
300.02011
300.01224
300.01263
300.02078
300.0202
300.02536
300.02935
300.02883
300.03095
300.03155
300.0324
300.03288
300.0331
300.03235
300.03155
300.03242
300.02952
300.03204
300.0326
300.0329
300.0327
300.02993
300.03156
300.02778
300.02668
300.03094
300.0315
300.03216
300.03139
300.03022
300.02466
300.01624
300.00526
299.99514
299.98886
299.98167
299.989
299.98967
299.99549
300.00515
300.00084
300.00076
300.0133
300.01279
300.01559
300.02388
300.02241
300.02345
300.02809
300.02943
300.03191
300.02998
300.02921
300.02925
300.0225
300.01289
300.00097
299.98983
299.98917
299.98185
299.98937
299.99559
299.99594
300.00566
300.00579
300.00122
300.01375
300.01676
300.01608
300.02068
300.01275
300.00551
300.00563
300.00089
300.0134
300.01653
300.01586
300.02058
300.02117
300.01315
300.02127
300.02656
300.02579
300.0297
300.02706
300.02431
300.02509
300.02384
300.02842
300.02965
300.03196
300.02943
300.03024
300.03049
300.03168
300.02815
300.0319
300.03027
300.03298
300.03159
300.03122
300.03242
300.03263
300.03184
300.02965
300.02695
300.02408
300.02485
300.02354
300.02821
300.02947
300.03195
300.03011
300.03035
300.03158
300.02804
300.03182
300.03022
300.03292
300.03159
300.03113
300.03238
300.03261
300.02958
300.03308
300.03262
300.03328
300.0331
300.02956
300.03217
300.03274
300.02458
300.02472
300.0299
300.03229
300.03297
300.03288
300.03201
300.02952
300.02435
300.02942
300.03172
300.03265
300.03365
300.02998
300.03359
300.03571
300.03319
300.0226
300.0106
300.00635
300.00507
300.00473
300.00491
300.00527
300.00514
300.00493
300.00471
300.00468
300.00478
300.0047
300.00488
300.00523
300.0058
300.00605
300.00657
300.01096
300.01102
300.01064
300.00876
300.00667
300.00538
300.00665
300.00704
300.00687
300.00564
300.00514
300.00493
300.00545
300.00598
300.00577
300.00629
300.00641
300.00632
300.00918
300.0092
300.00632
300.0053
300.0053
300.00517
300.00517
300.00504
300.00467
300.00465
300.00492
300.00508
300.00523
300.00603
300.00821
300.0069
300.00564
300.00513
300.00504
300.00529
300.00588
300.00697
300.00846
300.00963
300.00963
300.00845
300.00697
300.00589
300.0053
300.00504
300.00495
300.00496
300.00507
300.0053
300.00571
300.00623
300.00666
300.00666
300.00623
300.00572
300.00531
300.00508
300.00498
300.00497
300.00488
300.00489
300.00483
300.00485
300.00484
300.00479
300.00482
300.00469
300.00469
300.00476
300.00462
300.00441
300.00443
300.00446
300.00445
300.00442
300.00439
300.00413
300.00384
300.00351
300.00353
300.00351
300.0035
300.00382
300.00384
300.00382
300.0035
300.0035
300.00352
300.00351
300.00383
300.00386
300.00383
300.0035
300.00352
300.00385
300.00387
300.00353
300.00363
300.00357
300.00352
300.00364
300.00407
300.00389
300.00424
300.00449
300.00489
300.00449
300.00464
300.00431
300.00441
300.00477
300.00596
300.00543
300.00497
300.00543
300.00485
300.00403
300.00395
300.00446
300.00393
300.00428
300.00693
300.00557
300.00431
300.0037
300.00353
300.0039
300.00384
300.00414
300.00442
300.00457
300.00425
300.00449
300.00419
300.00448
300.00488
300.00543
300.00463
300.00431
300.00416
300.00418
300.00388
300.00386
300.00353
300.00355
300.00365
300.00358
300.00396
300.00387
300.00408
300.00365
300.00393
300.00447
300.00497
300.00545
300.00442
300.00476
300.00597
300.01012
300.00818
300.00616
300.00501
300.0046
300.00558
300.00617
300.00953
300.01032
300.017
300.02264
300.03317
300.03005
300.02411
300.01696
300.00867
300.00905
300.01072
300.01052
300.02271
300.03341
300.03012
300.03027
300.02949
300.0319
300.03287
300.03357
300.03422
300.03536
300.03674
300.0311
300.02455
300.03121
300.03494
300.03815
300.03573
300.03263
300.03472
300.03403
300.03269
300.03276
300.03411
300.03031
300.03021
300.01891
300.02362
300.02899
300.03338
300.03552
300.03791
300.03464
300.03592
300.0343
300.03228
300.03506
300.0238
300.02897
300.03435
300.03276
300.03147
300.03002
300.02436
300.02353
300.01471
300.01577
300.02444
300.01967
300.00711
300.00639
300.00581
300.01745
300.01659
300.00542
300.00066
300.01352
300.01413
300.00081
300.00115
300.01572
300.01613
300.00158
299.98682
299.99476
300.0071
300.01954
300.01879
300.00639
299.9947
299.99476
299.99492
299.98836
299.98779
299.97961
299.98789
299.98739
299.98693
300.00164