/*--------------------------------*- C++ -*----------------------------------*\
  =========                 |
  \\      /  F ield         | OpenFOAM: The Open Source CFD Toolbox
   \\    /   O peration     | Website:  https://openfoam.org
    \\  /    A nd           | Version:  7
     \\/     M anipulation  |
\*---------------------------------------------------------------------------*/
FoamFile
{
    version     2.0;
    format      ascii;
    class       volScalarField;
    location    "280";
    object      nut;
}
// * * * * * * * * * * * * * * * * * * * * * * * * * * * * * * * * * * * * * //

dimensions      [0 2 -1 0 0 0 0];

internalField   nonuniform List<scalar> 
24789
(
0.0012161253
0.0062716441
0.015234831
0.026162109
0.3420104
0.34355398
0.026298323
0.015316783
0.0063041554
0.0012182826
0.0012205591
0.0063385147
0.01540312
0.026441203
0.34517998
0.34688716
0.026589652
0.015492411
0.0063739821
0.0012229178
0.0012253973
0.0064111755
0.015585678
0.026744041
0.34866827
0.35053137
0.026904232
0.015682118
0.0064495856
0.0012279683
0.0012306672
0.006489757
0.015782593
0.027070496
0.35247322
0.3545028
0.027243075
0.015886581
0.0065312899
0.0012334715
0.0012364145
0.0065746444
0.015994767
0.027422093
0.35661839
0.35882753
0.027607647
0.016106655
0.0066194624
0.0012394775
0.0012426916
0.0066661573
0.016222919
0.027800051
0.36112792
0.36352987
0.027999342
0.016343115
0.0067144086
0.0012460452
0.0012495724
0.0067645969
0.016467908
0.028206031
0.36603485
0.36865373
0.028420097
0.016596901
0.0068164441
0.0012532671
0.0012571664
0.006870298
0.016730727
0.028642103
0.37139143
0.37426166
0.028872367
0.016869225
0.0069259779
0.0012612742
0.0012656306
0.0069838247
0.017013066
0.029111628
0.37727364
0.38044405
0.029360278
0.017162173
0.0070437057
0.0012702469
0.0012751656
0.0071059145
0.017317134
0.029618996
0.38378549
0.38731827
0.029888439
0.017478012
0.0071703564
0.0012804063
0.0012860156
0.0072372496
0.01764531
0.030169304
0.39106146
0.3950434
0.030462335
0.017819118
0.0073064942
0.0012920273
0.0012985024
0.0073781909
0.017999828
0.030768269
0.39929448
0.40385961
0.031087786
0.01818738
0.0074521246
0.0013054972
0.0013131042
0.0075281947
0.018381954
0.031421672
0.40879475
0.41418044
0.031770291
0.018583124
0.0076059576
0.0013214242
0.0013305972
0.0076849525
0.018790223
0.032133343
0.42012313
0.42677718
0.032509464
0.019001698
0.007764296
0.0013408243
0.0013524429
0.0078431282
0.01921641
0.032896963
0.4343631
0.443175
0.03329287
0.019432918
0.0079203883
0.0013658341
0.0013823153
0.0080013759
0.019654232
0.033708169
0.45370956
0.46740507
0.034278787
0.019953173
0.0081120466
0.0014062134
0.0014408322
0.0082660638
0.020518706
0.035334178
0.4865281
0.51565907
0.037336583
0.02177905
0.0088040973
0.0014804139
0.0015062268
0.0090809825
0.022295376
0.03793172
0.53655612
0.55319174
0.040393801
0.023703462
0.009624688
0.0015339142
0.0015220373
0.010071732
0.025114075
0.043162261
0.55188537
0.59012268
0.037202294
0.022305001
0.0091861779
0.0015001839
0.001465734
0.0087636656
0.021377524
0.036117076
0.58246535
0.56172045
0.033036767
0.019503791
0.0079538279
0.0014167728
0.0013766647
0.0076129512
0.018584327
0.031574307
0.53987996
0.52303641
0.030810628
0.018133635
0.0074608516
0.0013433259
0.0013209716
0.0073595444
0.017888544
0.030380307
0.50959508
0.49851491
0.030048759
0.017705118
0.0072870602
0.0013054139
0.0012927176
0.0072200636
0.017525245
0.029722326
0.48890329
0.48042829
0.029391636
0.017341332
0.0071518976
0.0012818278
0.0012722727
0.0070815186
0.017154433
0.029060941
0.47287142
0.46604665
0.028734934
0.016967099
0.0070098431
0.0012636784
0.0012558483
0.0069382509
0.016782374
0.02841754
0.45981936
0.45409465
0.028111651
0.016602446
0.0068677244
0.0012486703
0.0012420621
0.0067989089
0.016428255
0.027817704
0.448794
0.4438614
0.027536209
0.016260355
0.0067321473
0.0012359504
0.0012302853
0.0066676661
0.016098769
0.027266376
0.43924904
0.43492216
0.02700814
0.015943466
0.0066054662
0.0012250162
0.0012201089
0.0065455875
0.015794154
0.026760409
0.43084963
0.42700696
0.026523046
0.01565062
0.0064878935
0.0012155224
0.0012112321
0.0064323483
0.015512417
0.026294714
0.42337009
0.41992478
0.026075653
0.015379421
0.0063787855
0.0012072003
0.0012034084
0.0063271769
0.015251123
0.025864337
0.41664783
0.41353043
0.025661343
0.01512753
0.0062773575
0.0011998234
0.0011964329
0.0062293631
0.015008187
0.025465112
0.41055325
0.4077127
0.025276503
0.014893169
0.0061830195
0.0011932085
0.0011901432
0.0061384015
0.014782095
0.025094017
0.40499296
0.40239462
0.024918802
0.014675152
0.0060953653
0.0011872144
0.0011844222
0.0060539834
0.014571899
0.024749124
0.39990445
0.39751959
0.024586275
0.014472508
0.0060140781
0.0011817449
0.0011791903
0.0059757703
0.014376627
0.024428566
0.39523855
0.39305544
0.024277384
0.014284378
0.0059388241
0.0011767352
0.0011743925
0.0059034188
0.014195463
0.024130975
0.39096307
0.38896334
0.023990832
0.014109975
0.0058692678
0.0011721388
0.0011699902
0.0058365882
0.014027623
0.023855037
0.38704603
0.38522567
0.023725683
0.013948671
0.0058051026
0.001167924
0.0011659553
0.0057751908
0.013873069
0.023600902
0.38349446
0.38537305
0.023731632
0.013952001
0.0058063869
0.0011679812
0.0011700456
0.0058377299
0.014030602
0.023860299
0.38716761
0.38907513
0.023995299
0.014112576
0.0058703253
0.0011721921
0.0011744505
0.0059045668
0.014198386
0.024136025
0.39107623
0.39317293
0.02428215
0.014287172
0.0059399635
0.0011767934
0.0011792547
0.0059770275
0.014379813
0.024434032
0.39536391
0.39765552
0.024591585
0.014475661
0.0060153636
0.0011818135
0.0011845008
0.0060554496
0.014575585
0.024755379
0.40004961
0.40255352
0.024925185
0.014678963
0.0060969137
0.0011872995
0.0011902412
0.0061401742
0.01478655
0.025101539
0.4051702
0.40790882
0.025284454
0.014897913
0.0061849323
0.0011933159
0.0011965558
0.0062315174
0.015013599
0.025474206
0.41077408
0.41377788
0.025671081
0.015133385
0.0062797251
0.0011999601
0.0012035638
0.0063298682
0.015257858
0.025875586
0.41692686
0.42023706
0.026087849
0.015386766
0.0063817536
0.0012073721
0.0012114229
0.0064356886
0.015520714
0.026308511
0.42372111
0.4273981
0.026538008
0.015659677
0.0064915788
0.0012157298
0.0012203336
0.0065497295
0.01580431
0.026777167
0.43128604
0.43540917
0.027026519
0.015954652
0.0066100683
0.0012252551
0.0012305383
0.0066728283
0.016111253
0.0272868
0.43979197
0.44446554
0.027558669
0.016274157
0.0067378966
0.001236213
0.0012423338
0.0068053463
0.016443666
0.027842685
0.44946487
0.45483444
0.028139088
0.016619461
0.0068748632
0.0012489468
0.0012561255
0.0069461427
0.016801152
0.028447717
0.46062886
0.46692003
0.0287673
0.016987324
0.007018388
0.0012639456
0.0012725169
0.0070905939
0.017175722
0.029094843
0.47379795
0.48138371
0.029424762
0.017362384
0.0071611522
0.0012820204
0.0012928297
0.0072288358
0.017543613
0.029750502
0.48984764
0.49939621
0.030065639
0.017717155
0.0072943592
0.0013054832
0.0013210454
0.0073638841
0.017888162
0.030376353
0.51031236
0.52340063
0.030775071
0.018109888
0.0074579421
0.0013432486
0.0013781413
0.0076341025
0.018585237
0.031590353
0.54048546
0.56310256
0.033276366
0.019614952
0.0079770086
0.0014222543
0.0014596323
0.008791518
0.021485334
0.036602929
0.58378701
0.59181045
0.034887692
0.021094609
0.0087482722
0.0014658807
0.0015062199
0.0099555113
0.024845077
0.04259018
0.5526825
0.5601789
0.039878549
0.023128513
0.0093517638
0.001497376
0.0015200985
0.0096275505
0.023986824
0.041545816
0.53805013
0.51419829
0.037415411
0.021910264
0.0088330125
0.0014868385
0.0014406681
0.0083474784
0.020502951
0.03508138
0.48843716
0.46979134
0.033865653
0.019803216
0.008097021
0.0014013981
0.0013752291
0.007949148
0.019444397
0.033234017
0.45606805
0.44513999
0.032776493
0.019183625
0.0078459249
0.001357221
0.0013429228
0.0077570136
0.018950196
0.032363055
0.43595394
0.42804774
0.031967426
0.018726934
0.007672471
0.0013309713
0.0013206459
0.0075892665
0.01850905
0.031584739
0.42111416
0.41492768
0.031215683
0.018296522
0.0075072183
0.0013114566
0.0013031469
0.0074269498
0.018090702
0.030861677
0.40933121
0.40421717
0.030523771
0.017892517
0.0073488895
0.0012955582
0.0012885812
0.0072733792
0.017702102
0.030201132
0.39950008
0.3951219
0.029893516
0.017519527
0.0072005571
0.0012821281
0.0012761395
0.0071305258
0.017344485
0.029599593
0.39103497
0.38720509
0.029318916
0.01717669
0.0070631737
0.0012705573
0.001265346
0.0069985003
0.017015685
0.029050064
0.38360115
0.38020186
0.028792755
0.016861138
0.0069362931
0.0012604618
0.0012558788
0.0068765072
0.016712531
0.028545522
0.37698417
0.37393269
0.028308323
0.016569586
0.0068189049
0.0012515589
0.0012474849
0.0067634683
0.01643183
0.028079731
0.37103019
0.36826568
0.027860045
0.016299118
0.0067099822
0.0012436236
0.0012399645
0.0066584867
0.016171067
0.027647897
0.36562561
0.36310398
0.027443856
0.016047614
0.0066087667
0.0012364779
0.0012331609
0.0065609059
0.015928407
0.027246484
0.3606883
0.35837706
0.027056721
0.015813507
0.006514701
0.0012299867
0.0012269587
0.0064702689
0.015702567
0.026872988
0.35615857
0.35404041
0.026696812
0.015595849
0.0064274357
0.001224056
0.0012212855
0.0063862952
0.015492807
0.026526011
0.35200514
0.35005981
0.026362291
0.015393668
0.0063466063
0.001218624
0.0012160857
0.0063085774
0.01529813
0.026203806
0.3481948
0.34641547
0.026052224
0.015206341
0.0062719097
0.0012136459
0.0012113243
0.0062368865
0.015118116
0.025905775
0.34471793
0.34312242
0.02576775
0.015034345
0.0062034171
0.0012091027
0.0012184076
0.0063061122
0.015321761
0.026306621
0.34366408
0.34527058
0.026447431
0.015406546
0.0063397965
0.0012206402
0.0012230048
0.006375439
0.015495979
0.026595368
0.34697019
0.34875691
0.026749503
0.015588761
0.0064123539
0.0012254646
0.001228054
0.0064510828
0.015685761
0.026910043
0.35062229
0.3525743
0.027076612
0.015786114
0.0064911214
0.0012307443
0.0012335702
0.0065330027
0.015890758
0.02724979
0.35461135
0.35674016
0.027429388
0.015999012
0.0065763043
0.0012365091
0.0012395939
0.0066214691
0.016111577
0.027615655
0.35896144
0.36128143
0.027808808
0.016228058
0.0066681834
0.0012428093
0.0012461867
0.0067168122
0.016349047
0.028009111
0.36370096
0.36623093
0.028216735
0.016474207
0.0067670916
0.0012497193
0.001253441
0.0068193536
0.016604085
0.02843198
0.36887484
0.37164525
0.028655373
0.016738563
0.0068734142
0.0012573535
0.0012614937
0.0069296005
0.016878183
0.028887269
0.3745509
0.37760685
0.029128306
0.017022961
0.0069877884
0.0012658716
0.0012705273
0.0070483068
0.017173499
0.029379106
0.38082591
0.38422614
0.029640282
0.017329826
0.0071110394
0.0012754764
0.0012807651
0.0071762868
0.017492558
0.029912613
0.38782599
0.39165048
0.030196799
0.017661795
0.0072439677
0.0012864194
0.0012924951
0.0073143048
0.017838125
0.030493772
0.39572675
0.4000923
0.030804385
0.01802167
0.007387192
0.0012990376
0.0013061252
0.0074627293
0.018212905
0.031129645
0.40479305
0.40989344
0.031470536
0.018411893
0.0075407177
0.0013138415
0.0013223107
0.0076210699
0.018618827
0.031827902
0.41547763
0.42166088
0.032201988
0.018833254
0.0077034051
0.0013316775
0.0013421815
0.0077873825
0.019054544
0.032592266
0.42860266
0.43653393
0.032999032
0.019282874
0.0078727874
0.0013542115
0.0013682813
0.0079605858
0.019521014
0.033424688
0.44576408
0.45678386
0.033888588
0.019778881
0.0080595247
0.0013857828
0.0014108782
0.0081998366
0.020135242
0.034532069
0.47090224
0.49014415
0.035704921
0.020786612
0.0083963242
0.0014474796
0.0014902649
0.0089469607
0.022164096
0.037983076
0.5181425
0.53874822
0.039457077
0.023063559
0.0093583426
0.0015189471
0.0015360157
0.0096957315
0.023859224
0.040654198
0.55665283
0.55646957
0.043619481
0.025364519
0.010154662
0.0015267096
0.42983265
0.053281776
0.029956344
0.011747083
0.0016884635
0.0015860455
0.01039651
0.025808129
0.044820716
0.54465476
0.62251085
0.037344619
0.022388989
0.0092661062
0.0015129301
0.0014927842
0.0092324854
0.022610772
0.038667606
0.57397842
0.56370794
0.040846274
0.023589257
0.0095085543
0.0015069307
0.0015062425
0.0093873302
0.023326894
0.040133529
0.5403379
0.51272498
0.036789745
0.021517854
0.0086924042
0.001473668
0.0014321173
0.00824024
0.020250323
0.034715131
0.48592073
0.46748664
0.033649882
0.019654363
0.0080333977
0.0013958581
0.0013716028
0.0079084982
0.019345982
0.033088966
0.45406927
0.44348837
0.032673077
0.019115077
0.00781805
0.0013547755
0.0013412134
0.0077371568
0.018900996
0.03228714
0.43462097
0.42698052
0.03191041
0.01869063
0.0076579674
0.0013297453
0.0013197497
0.0075784415
0.018481754
0.031541269
0.4202615
0.41424661
0.031182214
0.018275741
0.0074990122
0.0013107914
0.0013026429
0.0074205735
0.01807457
0.030835511
0.40878507
0.4037755
0.030502896
0.017879716
0.0073438211
0.0012951676
0.0012882741
0.0072693222
0.017691874
0.030184374
0.39914109
0.39482871
0.029879874
0.017511238
0.007197263
0.0012818833
0.0012759428
0.0071278318
0.017337714
0.029588413
0.39079384
0.38700602
0.029309687
0.017171126
0.007060962
0.0012703986
0.0012652171
0.0069966736
0.017011097
0.029042439
0.38343676
0.38006548
0.028786399
0.016857322
0.0069347724
0.0012603558
0.0012557915
0.0068752323
0.016709335
0.028540178
0.37687058
0.37383753
0.028303823
0.016566897
0.0068178316
0.0012514875
0.0012474265
0.0067625694
0.016429575
0.028075953
0.37095094
0.36819931
0.027856842
0.0162972
0.0067092149
0.0012435751
0.0012399239
0.0066578219
0.016169407
0.027645114
0.36556889
0.36305681
0.02744149
0.016046194
0.0066081942
0.0012364438
0.0012331318
0.006560415
0.015927186
0.027244441
0.36064855
0.35834467
0.027054974
0.015812452
0.0065142732
0.001229962
0.0012269383
0.006469906
0.015701683
0.026871537
0.35613261
0.35401525
0.026695214
0.015594906
0.0064270635
0.0012240359
0.0012212664
0.0063859518
0.015491957
0.026524609
0.35198279
0.3500402
0.026360922
0.01539284
0.0063462753
0.0012186051
0.0012160671
0.0063082751
0.015297382
0.026202578
0.34817747
0.3464017
0.026050978
0.015205588
0.0062716116
0.0012136263
0.0012113036
0.0062366083
0.015117419
0.025904625
0.34470511
0.34311569
0.025766578
0.015033626
0.0062031267
0.0012090787
0.001167977
0.0058059534
0.013950677
0.023728911
0.38531011
0.38711492
0.02385766
0.014028858
0.0058370159
0.0011700162
0.0011721686
0.0058698092
0.01411116
0.023992653
0.38901837
0.39101587
0.024132822
0.014196298
0.0059037003
0.0011744039
0.0011767568
0.0059392757
0.014285356
0.02427888
0.39310332
0.39528798
0.024430318
0.014377437
0.0059760471
0.0011792
0.0011817664
0.0060145239
0.014473487
0.024587778
0.39756969
0.39995488
0.024751007
0.014572828
0.0060543115
0.0011844353
0.0011872372
0.0060958385
0.014676216
0.02492046
0.40244384
0.40504474
0.025096133
0.01478317
0.0061387802
0.0011901588
0.0011932313
0.0061834936
0.014894268
0.025278246
0.40776095
0.41060255
0.025467218
0.015009287
0.0062297512
0.0011964497
0.0011998465
0.0062778395
0.015128663
0.025663155
0.41357696
0.41669358
0.02586637
0.015252216
0.0063275685
0.0012034239
0.0012072178
0.006379219
0.015380473
0.026077355
0.41996324
0.42340189
0.026296407
0.015513293
0.0064326421
0.0012112382
0.0012155246
0.0064881313
0.015651253
0.026524136
0.42702393
0.43084942
0.026761063
0.015794368
0.0065455996
0.001220093
0.0012249848
0.0066052826
0.015943137
0.02700777
0.43489851
0.43919657
0.027265051
0.01609769
0.0066671115
0.0012302263
0.0012358652
0.0067312127
0.016258356
0.027533352
0.44377201
0.44866
0.027813208
0.016425036
0.0067973807
0.0012419378
0.0012485049
0.0068654814
0.016597617
0.028104686
0.45390353
0.45955892
0.028407497
0.016775307
0.0069349485
0.0012556242
0.0012633807
0.0070050525
0.016956746
0.028720128
0.46569852
0.47241924
0.029039552
0.017139304
0.0070745203
0.0012718747
0.0012813049
0.0071418971
0.017319487
0.029360821
0.47985757
0.48821427
0.029678611
0.017493952
0.0072058898
0.0012920309
0.0013045504
0.0072674517
0.017661339
0.029988137
0.49774293
0.50882958
0.030297175
0.017827415
0.0073323218
0.0013198605
0.0013417271
0.0074234075
0.018046965
0.030696564
0.5224779
0.54017232
0.031433221
0.018472981
0.0075732553
0.0013748324
0.0014152129
0.0078904485
0.019329664
0.032767439
0.56313114
0.58450627
0.035189309
0.020945829
0.0086283458
0.001460777
0.0015031905
0.0092392013
0.022399479
0.037270147
0.59292888
0.55392262
0.044815965
0.025897969
0.010388627
0.001545708
0.0015512549
0.009825821
0.024244544
0.04136819
0.5547335
0.53686464
0.037268272
0.021992978
0.0089793328
0.0015062721
0.0014871182
0.0089118592
0.022074867
0.037988865
0.51580487
0.48694605
0.035550558
0.02065157
0.0083144372
0.0014458602
0.0014091902
0.008143258
0.020019331
0.034367733
0.46779076
0.45380279
0.033732558
0.019674785
0.0080120963
0.0013839638
0.0013666271
0.007922468
0.019436071
0.03329414
0.44310983
0.43423563
0.03289169
0.019213969
0.0078423569
0.0013527977
0.0013409667
0.0077626753
0.018998028
0.03250321
0.42663572
0.41998812
0.032127577
0.018786512
0.0076831584
0.0013306325
0.0013214113
0.0076043388
0.01857981
0.031765189
0.4140591
0.40869144
0.031417467
0.018379133
0.0075267963
0.0013130663
0.001305454
0.0074510268
0.018185107
0.031084296
0.40377371
0.3992263
0.030765619
0.017998033
0.0073773061
0.001298456
0.0012919891
0.0073058758
0.01781779
0.030460227
0.39498993
0.39102251
0.03016798
0.017644385
0.0072367834
0.0012859804
0.0012803828
0.0071701044
0.017477442
0.02988745
0.38729048
0.38376832
0.029618682
0.017316868
0.0071057505
0.0012751464
0.0012702391
0.0070437048
0.017162148
0.029360092
0.3804334
0.3772694
0.029111838
0.017013145
0.0069838111
0.0012656214
0.0012612743
0.006926084
0.016869431
0.028872507
0.37425971
0.37139284
0.028642541
0.016730951
0.0068703453
0.0012571628
0.0012532725
0.0068166001
0.016597204
0.028420343
0.36865492
0.3660383
0.028206569
0.016468187
0.0067646602
0.0012495714
0.001246053
0.0067145894
0.01634347
0.027999627
0.36353177
0.36113129
0.027800623
0.016223213
0.0066662198
0.001242691
0.001239486
0.0066196474
0.016106998
0.027607847
0.35882806
0.35661971
0.027422737
0.01599508
0.0065747033
0.0012364145
0.0012334819
0.00653148
0.015886913
0.027243186
0.35450188
0.35247303
0.027071221
0.015782926
0.006489811
0.0012306671
0.0012279801
0.0064497952
0.015682481
0.026904329
0.35052838
0.34866692
0.026744815
0.015586027
0.0064112287
0.0012253985
0.0012229372
0.0063742705
0.015492956
0.026589999
0.34688366
0.34517954
0.026442278
0.015403642
0.0063386355
0.0012205715
0.0012183221
0.0063046503
0.015317876
0.026299559
0.34355602
0.34364894
0.026304503
0.015320315
0.0063054685
0.0012183382
0.0012206116
0.0063395879
0.015405829
0.026445736
0.34525395
0.34695833
0.026594668
0.015495401
0.006375155
0.0012229778
0.001225461
0.0064123594
0.015588613
0.026748881
0.34874515
0.35061505
0.026909723
0.01568543
0.0064509083
0.0012280399
0.0012307448
0.0064911528
0.015786051
0.027076199
0.35256609
0.35460613
0.027249545
0.015890482
0.0065328529
0.0012335588
0.0012365092
0.0065763209
0.015998903
0.027428926
0.3567339
0.35895736
0.027615501
0.016111364
0.0066213472
0.0012395834
0.0012428073
0.0066681896
0.016227952
0.027808422
0.36127649
0.36369827
0.028008925
0.016348833
0.0067167021
0.0012461754
0.0012497149
0.0067670911
0.016474062
0.028216307
0.36622728
0.36887263
0.02843174
0.016603861
0.0068192613
0.0012534263
0.0012573416
0.0068734217
0.016738383
0.028654881
0.37164189
0.37454758
0.028886842
0.016877896
0.0069295272
0.0012614686
0.0012658425
0.006987808
0.017022684
0.029127597
0.37759992
0.38081513
0.029378198
0.017173004
0.00704823
0.0012704771
0.0012754096
0.007111011
0.017329192
0.029638856
0.38420694
0.38779597
0.029910622
0.017491546
0.0071761478
0.0012806626
0.0012862801
0.0072438189
0.017660425
0.030193891
0.39160299
0.39565614
0.030489747
0.017836109
0.0073139901
0.0012922963
0.0012987689
0.007386752
0.018018879
0.030798692
0.3999877
0.40464214
0.031121673
0.018208841
0.0074619444
0.0013057544
0.0013133418
0.0075394516
0.018405979
0.031459046
0.40967584
0.41516853
0.031811301
0.018610004
0.0076189304
0.0013216342
0.0013307785
0.0076999427
0.018820046
0.032177579
0.42122652
0.4280046
0.032556689
0.019034859
0.0077819089
0.0013410083
0.0013527517
0.0078648442
0.019254439
0.032948214
0.43573109
0.44472721
0.033355829
0.019482185
0.0079507293
0.0013666074
0.0013838756
0.008048126
0.019730549
0.033801499
0.45549638
0.46933381
0.0344194
0.020071724
0.0081862514
0.0014087976
0.0014464957
0.0084065545
0.020722882
0.035590377
0.48862
0.51692989
0.0378786
0.022116489
0.0089266756
0.0014894931
0.0015166021
0.0094057906
0.023188952
0.039860749
0.53838132
0.55569423
0.03932076
0.02315827
0.0094546016
0.0015142303
1.306105
2.2738335
1.6530484
0.59471955
0.03732556
0.022385332
0.0092108026
0.0015036818
0.001521447
0.0096581382
0.024031111
0.041704978
0.56142432
0.0016613256
0.01141328
0.028991104
0.05137229
0.42741627
0.3712765
0.048544576
0.02739475
0.010791272
0.0015996895
0.0016106067
0.01078516
0.027446148
0.048699424
0.37010705
0.49242955
0.046554634
0.026503846
0.010571732
0.0015794615
0.89277863
1.068647
2.0858965
1.6605462
6.9603597
7.0386145
7.0137899
6.9603234
6.9178487
6.9667204
6.9725664
6.9279188
0.0012091056
0.0062035386
0.015034477
0.025767845
0.34310712
0.34470638
0.025906066
0.015117924
0.0062367328
0.0012113074
0.0012136397
0.0062719374
0.015206245
0.026051938
0.34640134
0.3481822
0.026203542
0.015297685
0.0063083363
0.0012160621
0.0012186114
0.0063465355
0.015393333
0.026361584
0.35003957
0.35198199
0.026525324
0.015492166
0.0063859872
0.0012212574
0.0012240361
0.0064272449
0.015595213
0.026695565
0.35400842
0.35612507
0.026871857
0.015701711
0.0064698836
0.0012269255
0.0012299586
0.0065144023
0.015812621
0.027055065
0.35833095
0.36063385
0.027244628
0.015927187
0.0065603925
0.0012331179
0.0012364376
0.0066082938
0.016046277
0.027441417
0.36303557
0.36554535
0.027645071
0.016169312
0.0066577742
0.0012399071
0.0012435636
0.0067092458
0.016297109
0.027856457
0.36816853
0.37091626
0.028075547
0.016429304
0.0067624625
0.0012474065
0.0012514733
0.0068177911
0.016566614
0.028303122
0.37379775
0.37682799
0.028539486
0.016708918
0.0068750842
0.0012557718
0.0012603433
0.0069346853
0.016856898
0.02878544
0.38002011
0.38339221
0.029041554
0.017010605
0.0069965193
0.0012652029
0.0012703957
0.0070609176
0.017170762
0.029308811
0.38696329
0.39075761
0.029587798
0.017337436
0.0071278105
0.0012759453
0.0012819025
0.0071974307
0.017511239
0.029879497
0.39480208
0.39913267
0.030184617
0.017692234
0.0072696664
0.001288307
0.0012952254
0.007344546
0.017880717
0.030503916
0.40379264
0.40884261
0.03083775
0.018076373
0.0074217321
0.0013027263
0.001310918
0.0075009255
0.018278865
0.031186179
0.41436308
0.4204681
0.031548431
0.018487089
0.0075815018
0.0013199388
0.0013300473
0.007663065
0.01870015
0.031923569
0.42732242
0.43516452
0.032312143
0.018918362
0.007745675
0.0013416928
0.0013554943
0.0078325642
0.019146864
0.032720629
0.44431521
0.45532129
0.033182522
0.019405063
0.0079330648
0.0013726985
0.0013978349
0.0080782691
0.019782468
0.033857509
0.46956814
0.48894116
0.035103824
0.020478943
0.0082934347
0.0014340326
0.0014711992
0.0088674551
0.021878437
0.03743971
0.51642446
0.53848345
0.038382091
0.022509424
0.0091284594
0.0014913356
0.0015178411
0.009623554
0.023965442
0.041594565
0.55776236
0.037805471
0.022631253
0.0093889551
0.0015204602
0.0014953685
0.0089106339
0.021338998
0.035449116
0.60978929
0.52794811
0.040420289
0.023406754
0.009475628
0.0015428823
0.0015668408
0.01041361
0.026156252
0.046276894
0.48587194
0.56717443
0.039262667
0.022830177
0.0093259566
0.001492239
0.0015178064
0.0096231021
0.023964338
0.041592732
0.55786845
0.53854289
0.038380851
0.022508347
0.0091279947
0.0014913198
0.0014711714
0.0088667772
0.021876753
0.037437175
0.51645472
0.48895487
0.03510063
0.020477013
0.0082926936
0.0014339963
0.0013977894
0.0080774793
0.019780454
0.033854179
0.46957023
0.45531659
0.03317929
0.019403095
0.0079322959
0.0013726525
0.001355449
0.0078317744
0.019144888
0.032717396
0.44430733
0.4351557
0.032309189
0.018916544
0.0077449325
0.0013416525
0.0013300126
0.0076623668
0.018698434
0.031920772
0.42731422
0.4204609
0.031545983
0.018485579
0.0075808764
0.0013199126
0.0013108987
0.0075003368
0.018277433
0.031183836
0.41435706
0.40883726
0.030835664
0.018075086
0.0074211906
0.0013027136
0.0012952175
0.007344008
0.017879423
0.030501808
0.40378777
0.39912677
0.030182675
0.017691012
0.007269139
0.0012883036
0.0012819002
0.0071968674
0.017509899
0.029877337
0.39479439
0.39074677
0.029585601
0.017336051
0.0071272125
0.0012759425
0.0012703902
0.0070602545
0.017169174
0.029306248
0.38694859
0.38337352
0.029039076
0.017009036
0.0069958422
0.0012651962
0.0012603325
0.0069339463
0.016855126
0.028782584
0.37999777
0.37680195
0.028536714
0.016707172
0.006874336
0.0012557594
0.001251456
0.0068169891
0.016564672
0.02829996
0.3737681
0.37088271
0.028072677
0.016427497
0.0067616928
0.0012473882
0.0012435416
0.0067084325
0.016295119
0.027853185
0.3681323
0.36550611
0.027642087
0.016167479
0.0066570044
0.0012398846
0.0012364115
0.0066074752
0.016044224
0.027437948
0.36299326
0.36059031
0.027241666
0.015925387
0.0065596374
0.001233093
0.0012299319
0.0065136212
0.015810641
0.027051674
0.35828591
0.35608129
0.026869224
0.015700116
0.0064692076
0.0012269031
0.0012240132
0.0064265384
0.015593408
0.026692425
0.3539649
0.3519376
0.026522645
0.015490589
0.0063853279
0.0012212367
0.0012185875
0.0063458181
0.015391482
0.0263583
0.34999277
0.34813371
0.026200812
0.015296112
0.0063076835
0.0012160404
0.0012136125
0.0062711844
0.015204269
0.02604836
0.34635102
0.34465031
0.025902734
0.015116069
0.0062359852
0.0012112778
0.0012090552
0.0062023285
0.0150311
0.025761504
0.34301955
0.34148203
0.025628141
0.014950258
0.0061701036
0.0012069185
0.34360176
0.026302389
0.01531912
0.0063050528
0.0012183262
0.001220587
0.0063391294
0.015404721
0.026443991
0.34521283
0.34691545
0.026591907
0.015493752
0.0063745127
0.001222937
0.0012254134
0.0064116951
0.015587011
0.026746287
0.34869531
0.35055817
0.026906351
0.01568341
0.0064501004
0.0012279835
0.0012306836
0.0064903091
0.015784008
0.027072841
0.35250022
0.35452907
0.027245353
0.015887986
0.0065318493
0.0012334885
0.0012364325
0.0065752452
0.015996284
0.027424568
0.3566438
0.35885072
0.02761011
0.016108185
0.0066200728
0.001239494
0.001242707
0.0066667665
0.016224449
0.027802501
0.36114916
0.3635473
0.028001764
0.016344636
0.0067150215
0.001246058
0.0012495799
0.0067651863
0.016469347
0.028208283
0.36604816
0.36866231
0.028422196
0.016598261
0.0068170046
0.0012532693
0.001257161
0.006870816
0.016731973
0.028644002
0.37139275
0.3742531
0.028873891
0.01687025
0.0069264084
0.0012612584
0.0012656038
0.0069841447
0.017013806
0.029112667
0.37725321
0.38040893
0.029360683
0.017162548
0.0070438832
0.001270207
0.0012751113
0.0071059159
0.017317108
0.029618771
0.38373351
0.38724672
0.029887379
0.017477466
0.0071701385
0.0012803364
0.0012859312
0.0072367813
0.017644206
0.030167372
0.39096866
0.39492695
0.030459377
0.017817374
0.0073057396
0.0012919307
0.0012983961
0.0073771322
0.017997437
0.03076432
0.39915311
0.4036921
0.03108278
0.018184292
0.0074507244
0.0013053874
0.001313002
0.0075264589
0.018378172
0.031415586
0.4086011
0.4139622
0.031763201
0.018578714
0.0076039199
0.0013213462
0.001330574
0.0076827506
0.018785401
0.032125449
0.41988464
0.42652743
0.03250127
0.018997002
0.0077622799
0.001340914
0.0013527567
0.0078421108
0.019213226
0.032890046
0.43412183
0.44298865
0.033292905
0.019435612
0.0079223429
0.0013665918
0.0013839348
0.0080121474
0.019674632
0.033731627
0.45366875
0.46763535
0.034367084
0.020019404
0.0081434332
0.0014091588
0.0014458205
0.0083146873
0.020651806
0.035550127
0.48675464
0.51556051
0.037990204
0.02207598
0.0089124511
0.0014870687
0.0015061886
0.0089796123
0.021992838
0.0372668
0.53656933
0.55436785
0.041363446
0.024242547
0.0098248646
0.0015512319
0.0015458965
0.010383425
0.025901562
0.044828823
0.55351398
0.59248263
0.037278395
0.022403835
0.0092406003
0.0015032226
0.0015067834
0.0095129966
0.023598186
0.040862048
0.56321802
0.55974075
0.039856082
0.023116298
0.009347713
0.0014968201
0.0014657845
0.0087448736
0.021089549
0.034880149
0.59128474
0.55526424
0.039312737
0.023154266
0.0094516057
0.0015142344
0.0015359878
0.0096894048
0.023849979
0.040638821
0.55631496
0.59437532
0.037313834
0.02237804
0.0092057745
0.0015037131
0.0015213236
0.0096519898
0.024020522
0.04168887
0.56125195
0.54053555
0.037734295
0.022166491
0.0089965829
0.001487123
0.0014676351
0.0088063016
0.021742405
0.037247842
0.51834774
0.49072934
0.035112499
0.020469918
0.0082839987
0.0014328367
0.0013971384
0.0080707009
0.019775333
0.03386395
0.47063229
0.45603118
0.03318578
0.019400568
0.0079287886
0.0013723436
0.0013553252
0.0078306729
0.019145174
0.03272382
0.44483991
0.43557795
0.032316103
0.018918654
0.0077452292
0.0013416217
0.0013300401
0.007663524
0.018701907
0.031928548
0.42766845
0.42076869
0.0315544
0.018489908
0.0075825123
0.0013199786
0.0013109878
0.0075022035
0.01828218
0.031192493
0.41462848
0.40907742
0.030844132
0.018079884
0.0074231097
0.0013028146
0.0012953218
0.0073458727
0.017884065
0.030509854
0.4039999
0.39931333
0.030190111
0.017695353
0.0072708898
0.0012884059
0.0012819972
0.0071984689
0.017513878
0.029884111
0.39495791
0.39088964
0.029591728
0.017339665
0.0071286668
0.0012760326
0.0012704725
0.0070615563
0.017172421
0.02931174
0.3870735
0.38348219
0.029043925
0.01701191
0.0069969955
0.0012652702
0.0012603982
0.0069349596
0.016857665
0.028786873
0.3800917
0.37688289
0.028540388
0.016709365
0.0068752196
0.0012558163
0.0012515058
0.0068177591
0.016566594
0.028303193
0.37383682
0.3709416
0.028075292
0.01642907
0.0067623268
0.00124743
0.0012435768
0.0067089728
0.016296469
0.027855457
0.36818081
0.36554752
0.027643974
0.016168602
0.0066574528
0.0012399141
0.0012364365
0.0066078633
0.016045212
0.027439644
0.36302853
0.36061874
0.027243167
0.015926272
0.0065599901
0.0012331155
0.0012299519
0.0065139431
0.015811463
0.027053083
0.35831279
0.35610311
0.026870241
0.015700742
0.0064694672
0.0012269191
0.0012240258
0.0064267515
0.015593949
0.026693342
0.3539826
0.35195416
0.026523431
0.015491063
0.0063855178
0.0012212469
0.0012185959
0.0063459841
0.015391898
0.026359004
0.35000596
0.34814953
0.026201612
0.015296578
0.0063078637
0.0012160487
0.00121362
0.0062713621
0.015204727