/*--------------------------------*- C++ -*----------------------------------*\
  =========                 |
  \\      /  F ield         | OpenFOAM: The Open Source CFD Toolbox
   \\    /   O peration     | Website:  https://openfoam.org
    \\  /    A nd           | Version:  7
     \\/     M anipulation  |
\*---------------------------------------------------------------------------*/
FoamFile
{
    version     2.0;
    format      ascii;
    class       volScalarField;
    location    "280";
    object      omega;
}
// * * * * * * * * * * * * * * * * * * * * * * * * * * * * * * * * * * * * * //

dimensions      [0 0 -1 0 0 0 0];

internalField   nonuniform List<scalar> 
24789
(
97226.692
30227.729
17031.923
12480.93
2058.8291
2065.7674
12514.065
17071.485
30280.402
97395.448
97574.211
30335.973
17113.304
12549.251
2072.9856
2080.4011
12585.52
17156.78
30394.285
97759.684
97955.185
30455.559
17202.513
12623.784
2088.046
2095.8911
12663.273
17250.047
30519.764
98158.113
98371.541
30587.204
17299.986
12704.831
2103.9769
2112.2765
12747.814
17351.959
30657.93
98593.433
98826.446
30732.224
17406.528
12792.978
2120.829
2129.6164
12839.795
17463.398
30810.182
99069.011
99323.919
30892.181
17523.13
12888.969
2138.6761
2147.9944
12940.051
17585.487
30978.378
99589.931
99869.853
31069.238
17651.036
12993.702
2157.5995
2167.4782
13049.571
17719.619
31164.983
100163.11
100472.77
31266.2
17791.811
13108.281
2177.6512
2188.1044
13169.564
17867.528
31373.224
100799.07
101145.36
31486.736
17947.324
13233.982
2198.8499
2209.8714
13301.398
18031.249
31607.218
101512.42
101903.69
31735.456
18119.896
13372.377
2221.1798
2232.7611
13446.911
18213.46
31872.141
102320.71
102767.43
32018.282
18312.621
13525.589
2244.618
2256.7238
13608.575
18417.771
32174.806
103246.4
103762.51
32343.078
18529.758
13696.561
2269.058
2281.5531
13789.954
18649.3
32524.57
104320.32
104927.24
32721.408
18777.621
13889.679
2294.1115
2306.5475
13996.641
18916.085
32936.01
105591.15
106323.42
33172.192
19067.127
14112.687
2318.5917
2329.7886
14240.498
19234.407
33435.755
107140.28
108068.86
33733.609
19423.668
14384.721
2339.3877
2346.4159
14554.606
19647.401
34074.411
109139.7
110458.82
34543.08
19939.028
14764.89
2349.052
2339.1062
14988.523
20287.111
35235.837
112373.51
115151.17
35755.72
20519.682
15110.734
2302.791
2233.0612
15056.463
20475.823
35722.978
117817.38
119802.92
36564.877
20969.434
15405.34
2204.0736
2194.1397
15561.164
21450.326
37803.063
125503.27
131406.88
39228.815
22029.998
15785.471
2246.3698
2073.8368
15968.593
21638.253
37765.35
124283.93
121217.61
36651.326
21055.459
15562.473
2051.3695
2071.3336
15661.4
21016.633
36423.728
117584.08
114030.78
35662.892
20704.753
15497.608
2100.471
2117.6966
15257.929
20341.233
34997.504
111230.6
109375.7
34335.57
19964.893
14992.374
2120.5029
2116.3024
14765.65
19663.278
33864.594
108086.49
107035.34
33507.521
19430.483
14585.554
2109.6715
2101.4008
14435.874
19238.214
33209.957
106134.11
105343.55
32952.274
19071.543
14305.678
2092.0289
2082.0612
14188.995
18922.963
32724.118
104632.75
103985.42
32517.759
18787.544
14082.151
2071.7889
2061.3813
13982.784
18662.298
32328.808
103392.11
102846.1
32154.784
18545.678
13889.782
2050.9651
2040.6112
13802.162
18436.462
31993.705
102341.37
101873.78
31844.149
18333.941
13719.513
2030.3727
2020.2734
13641.16
18237.332
31704.89
101439.02
101034.45
31575.023
18146.259
13566.966
2010.3405
2000.5818
13496.344
18060.09
31453.605
100656.51
100303.09
31339.92
17978.609
13429.312
1991.0184
1981.65
13365.321
17901.278
31233.251
99971.225
99659.221
31132.96
17827.986
13304.489
1972.4963
1963.5506
13246.244
17758.206
31038.485
99364.391
99085.69
30949.209
17691.91
13190.813
1954.8282
1946.3169
13137.586
17628.601
30864.738
98820.593
98568.848
30784.651
17568.373
13086.91
1938.0315
1929.9529
13038.132
17510.729
30708.618
98328.295
98099.162
30636.376
17455.857
12991.706
1922.0919
1914.4296
12946.921
17403.246
30567.649
97879.526
97670.075
30502.271
17353.158
12904.33
1906.9743
1899.6991
12863.149
17305.08
30440.06
97469.004
97277.448
30380.839
17259.331
12824.055
1892.6233
1885.7245
12786.177
17215.379
30324.495
97093.422
96918.302
30270.851
17173.599
12750.31
1879.0293
1872.5078
12715.549
17133.524
30220
96750.15
96590.38
30171.478
17095.473
12682.748
1866.1904
1872.4575
12716.491
17134.744
30221.586
96756.432
96923.672
30272.326
17174.711
12751.14
1878.9336
1885.6274
12786.994
17216.438
30325.806
97098.019
97282.282
30382.207
17260.423
12824.884
1892.5199
1899.5872
12864.044
17306.232
30441.471
97473.825
97675.458
30503.843
17354.405
12905.283
1906.8488
1914.2922
12947.97
17404.604
30569.356
97885.113
98105.594
30638.285
17457.353
12992.856
1921.9357
1929.7703
13039.398
17512.37
30710.722
98335.279
98576.881
30786.99
17570.163
13088.276
1937.8125
1946.0521
13139.059
17630.526
30867.27
98829.462
99095.767
30952
17693.984
13192.38
1954.5037
1963.1549
13247.916
17760.421
31041.479
99375.638
99672.093
31136.284
17830.372
13306.262
1972.0183
1981.0772
13367.194
17903.821
31236.838
99985.426
100318.96
31343.869
17981.348
13431.299
1990.3345
1999.7714
13498.44
18063.011
31457.872
100673.72
101053.21
31579.641
18149.381
13569.163
2009.3838
2019.1492
13643.449
18240.634
31709.795
101458.93
101894.75
31849.24
18337.377
13721.851
2029.0567
2039.08
13804.504
18439.966
31998.863
102363.17
102868.64
32159.813
18549.134
13892.032
2049.1939
2059.353
13984.827
18665.543
32333.441
103414.95
104008.18
32521.684
18790.395
14083.858
2069.4938
2079.5077
14190.268
18925.26
32727.022
104654.55
105363.24
32953.812
19073.22
14306.535
2089.2459
2098.4658
14436.792
19239.707
33210.125
106148.97
107042.71
33508.501
19433.698
14588.08
2106.7251
2113.4917
14772.713
19672.131
33871.815
108088.88
109376.19
34365.262
19988.67
15009.761
2118.156
2116.8158
15295.292
20402.022
35097.729
111216.13
114134.87
35931.893
20787.083
15529.662
2098.3686
2064.5024
15592.62
20950.427
36366.922
117734.8
120672.54
36618.504
20999.917
15446.969
2044.8377
2061.9805
16371.284
21991.562
38130.832
122437.63
131849.07
39449.146
22128.557
15878.478
2236.2675
2158.8018
15326.017
21073.299
36903.408
121345.44
122418.07
36410.688
20490.597
14752.58
2191.9832
2230.4013
15108.332
20611.46
36228.663
119554.79
115881.12
36094.167
20658.074
15211.826
2286.7288
2319.3973
15068.392
20365.693
35325.695
112702.5
110594.56
34573.229
19980.054
14820.67
2328.0531
2326.608
14599.683
19674.608
34083.327
109147.15
107998.84
33711.006
19436.931
14420.707
2320.8457
2312.2712
14270.443
19239.582
33401.196
107039.24
106210.25
33134.039
19068.511
14139.349
2301.9656
2290.7016
14021.534
18915.701
32897.107
105472.38
104805.21
32682.33
18776.151
13913.416
2278.9401
2266.9548
13812.766
18646.982
32485.444
104196.06
103636.18
32303.809
18526.66
13718.535
2254.9397
2242.9995
13629.746
18413.933
32135.364
103118.44
102638.27
31978.654
18308.088
13546.004
2231.2106
2219.6058
13466.634
18208.333
31832.454
102190.95
101773.56
31695.742
18114.253
13391.486
2208.2223
2197.0657
13319.976
18025.216
31567.636
101382.41
101015.61
31447.386
17940.994
13252.106
2186.1616
2175.5052
13187.314
17861.018
31334.276
100670.09
100344.43
31227.724
17785.203
13125.735
2165.1202
2154.9931
13066.779
17712.993
31127.1
100035.78
99743.468
31031.942
17644.404
13010.691
2145.1456
2135.5556
12956.857
17578.917
30941.789
99464.975
99200.104
30856.273
17516.636
12905.63
2126.2428
2117.1771
12856.331
17457.029
30775.024
98946.737
98705.285
30697.774
17400.283
12809.417
2108.3803
2099.8115
12764.174
17345.893
30624.289
98473.896
98253.236
30554.32
17294.099
12721.148
2091.4925
2083.382
12679.534
17244.357
30487.677
98041.337
97839.486
30424.188
17197.011
12640.024
2075.5075
2067.8281
12601.729
17151.494
30363.71
97645.544
97461.281
30306.162
17108.255
12565.486
2060.3856
2053.1873
12530.392
17066.767
30251.5
97285.048
97400.64
30281.273
17072.373
12514.896
2065.7769
2072.9744
12549.752
17114.072
30337.045
97577.765
97765.138
30395.631
17157.954
12586.565
2080.4105
2088.0401
12624.53
17203.565
30457.037
97959.722
98164.592
30521.538
17251.503
12664.524
2095.9033
2103.9692
12705.833
17301.35
30589.122
98377.386
98601.139
30660.153
17353.717
12749.28
2112.2709
2120.7901
12794.253
17408.237
30734.631
98833.87
99078.285
30812.908
17465.484
12841.485
2129.5592
2138.5669
12890.505
17525.2
30895.117
99333.121
99601.162
30981.708
17587.952
12941.988
2147.8438
2157.3739
12995.544
17653.539
31072.829
99881.491
100176.97
31169.026
17722.525
13051.792
2167.18
2177.2476
13110.454
17794.819
31270.618
100487.61
100816.52
31378.166
17870.95
13172.088
2187.5862
2198.1781
13236.52
17950.925
31492.158
101164.38
101534.55
31613.259
18035.301
13304.289
2209.0288
2220.1201
13375.34
18124.226
31742.143
101928.21
102349.13
31879.649
18218.318
13450.237
2231.4481
2242.9847
13529.054
18317.87
32026.597
102799.37
103283.42
32184.145
18423.625
13612.413
2254.7103
2266.569
13700.585
18536.128
32353.488
103804.92
104370.16
32536.329
18656.381
13794.349
2278.4883
2290.3288
13894.294
18785.369
32734.628
104985.68
105661.31
32951.082
18924.727
14001.65
2301.8896
2312.8618
14118.071
19076.802
33189.518
106408.44
107246.22
33456.45
19245.711
14246.631
2322.7771
2330.8546
14391.872
19437.379
33759.854
108205.6
109327.92
34108.816
19663.746
14562.583
2336.071
2336.6632
14772.011
19955.661
34582.298
110726.08
112736.09
35272.908
20303.228
14994.317
2325.2551
2288.7535
15112.365
20539.933
35826.705
115678.59
118939.05
35907.869
20499.578
15022.359
2223.5344
2196.2993
15198.575
20857.722
36595.484
120850.5
125413.82
37807.398
21428.358
15522.445
2179.2766
2227.2251
15694.193
21944.546
39179.121
131648.32
2869.3298
14680.314
21402.167
39333.088
135100.88
130057.54
39714.78
22337.638
15885.944
2329.6558
2056.3372
16917.723
23001.345
40074.255
129199.11
124129.05
38204.513
21960.865
16057.419
2162.8039
2152.1398
15259.847
21077.765
37017.765
122318.48
121316.65
36384.143
20649.143
14998.194
2186.4344
2238.1529
15208.451
20699.08
36216.562
118504.68
115196.13
36071.486
20695.51
15255.087
2298.3524
2330.0972
15085.488
20376.047
35297.64
112259.11
110304.7
34563.411
19986.923
14830.567
2337.2759
2334.1412
14606.244
19679.328
34077.69
108951.74
107862.32
33705.581
19439.483
14424.909
2326.8354
2316.9804
14272.988
19240.662
33396.36
106941.32
106138.58
33129.522
19068.537
14140.69
2305.6417
2293.5564
14022
18914.977
32892.807
105419.2
104764.93
32678.413
18775.026
13913.329
2281.1563
2268.6803
13812.348
18645.669
32481.902
104164.78
103611.58
32300.566
18525.251
13717.909
2256.2843
2244.0476
13629.009
18412.516
32132.445
103098.89
102622.51
31976.042
18306.715
13545.217
2232.0281
2220.2424
13465.83
18207.016
31830.094
102178.11
101763.1
31693.649
18113.019
13390.692
2208.7156
2197.4459
13319.206
18024.068
31565.782
101373.95
101008.78
31445.757
17939.94
13251.378
2186.4516
2175.7263
13186.637
17860.058
31332.837
100664.43
100339.73
31226.429
17784.32
13125.097
2165.2862
2155.1169
13066.19
17712.193
31125.959
100031.88
99740.182
31030.944
17643.686
13010.154
2145.2372
2135.6222
12956.377
17578.278
30940.914
99462.191
99197.814
30855.5
17516.067
12905.197
2126.2899
2117.2088
12855.948
17456.532
30774.367
98944.835
98703.719
30697.231
17399.86
12809.084
2108.3964
2099.816
12763.861
17345.503
30623.79
98472.385
98251.861
30553.87
17293.744
12720.861
2091.4884
2083.3715
12679.263
17244.023
30487.252
98040.028
97838.29
30423.79
17196.7
12639.772
2075.491
2067.8045
12601.486
17151.196
30363.318
97644.389
97460.24
30305.78
17107.972
12565.262
2060.354
2053.145
12530.184
17066.512
30251.17
97284.179
96751.685
30219.901
17133.692
12715.787
1872.3827
1878.8935
12750.132
17173.596
30270.917
96918.582
97094.946
30324.636
17215.651
12786.462
1885.6134
1892.5064
12823.955
17259.414
30381.051
97277.952
97470.66
30440.343
17305.419
12863.464
1899.5958
1906.8622
12904.292
17353.297
30502.551
97670.812
97881.253
30567.974
17403.598
12947.234
1914.3277
1921.9825
12991.703
17456.009
30636.663
98100.167
98330.236
30708.938
17511.064
13038.425
1929.8502
1937.9213
13086.914
17568.513
30784.93
98570.163
98822.624
30865.005
17628.869
13137.819
1946.2131
1954.7198
13190.777
17691.98
30949.411
99087.133
99366.412
31038.615
17758.36
13246.384
1963.4524
1972.4049
13304.381
17827.941
31132.991
99660.637
99972.893
31233.223
17901.292
13365.355
1981.5854
1990.9803
13429.122
17978.43
31339.755
100303.8
100656.74
31453.313
18059.91
13496.24
2000.5925
2010.4063
13566.645
18145.861
31574.478
101033.07
101436.44
31704.125
18236.88
13640.881
2020.4198
2030.6177
13719.022
18333.246
31843.028
101868.85
102334.27
31992.199
18435.627
13801.656
2040.989
2051.5078
13889.055
18544.535
32152.75
102835.76
103378.24
32326.191
18660.921
13981.998
2062.1389
2072.8146
14081.206
18785.858
32514.449
103966.52
104607.59
32720.355
18921.261
14188.209
2083.4305
2093.8151
14305.315
19070.223
32948.539
105309.4
106088.16
33207.142
19238.136
14436.681
2103.6726
2112.4497
14588.601
19433.189
33507.717
106973.41
108006.34
33870.567
19670.826
14772.419
2119.4602
2123.6945
15004.786
19980.601
34351.997
109270.82
111082.12
35042.053
20371.867
15278.52
2120.3424
2100.2334
15517.215
20739.94
35768.395
113863.6
117080.17
36329.827
21009.4
15680.682
2066.8761
2044.7796
15739.449
21180.636
36695.51
120379.6
124654.23
37945.355
21734.526
16035.359
2065.0928
2239.9967
15622.13
22023.901
39479.314
132606.5
126804.73
37986.231
21456.572
15489.211
2189.8531
2203.0719
15589.066
21171.116
36870.945
119842.16
118434.24
35801.764
20475.547
14990.679
2232.9112
2301.2021
15103.064
20526.896
35824.593
115528.92
112590.51
35277.092
20301.304
14994.416
2337.6047
2348.8372
14774.357
19954.358
34573.753
110574.53
109192.8
34088.772
19656.541
14561.294
2346.8707
2340.0671
14388.246
19427.977
33739.969
108091.47
107148.89
33437.429
19235.782
14241.935
2330.4853
2319.2304
14112.989
19067.089
33171.857
106325
105589.49
32934.965
18915.557
13996.538
2307.1089
2294.5825
13889.352
18776.91
32720.128
104923.76
104316.57
32523.388
18648.676
13789.681
2281.9424
2269.3653
13696.236
18529.166
32342.016
103758.57
103243.12
32173.956
18417.35
13608.392
2256.9664
2244.7971
13525.349
18312.223
32017.58
102764.45
102318.73
31871.619
18213.221
13446.827
2232.896
2221.2693
13372.199
18119.63
31735.026
101901.93
101511.71
31606.946
18031.147
13301.4
2209.935
2198.8822
13233.861
17947.17
31486.546
101144.73
100799.3
31373.149
17867.541
13169.646
2188.1271
2177.6543
13108.191
17791.716
31266.129
100472.64
100163.7
31164.99
17719.695
13049.708
2167.4828
2157.5906
12993.62
17650.965
31069.23
99869.902
99590.748
30978.425
17585.596
12940.226
2147.9948
2138.6664
12888.885
17523.063
30892.191
99324.018
99069.885
30810.23
17463.528
12840.003
2129.6212
2120.8261
12792.894
17406.466
30732.243
98826.41
98594.134
30657.968
17352.104
12748.054
2112.2932
2103.9855
12704.737
17299.918
30587.219
98371.344
98158.845
30519.798
17250.205
12663.547
2095.9202
2088.0598
12623.656
17202.412
30455.533
97954.773
97760.269
30394.216
17156.899
12585.789
2080.4318
2072.9943
12549.023
17113.092
30335.774
97573.255
97395.562
30280.023
17071.437
12514.236
2065.8041
2065.8172
12515.107
17072.743
30282.08
97401.684
97579.308
30337.514
17114.481
12550.207
2073.0207
2080.4318
12586.504
17157.976
30395.826
97764.836
97960.366
30457.158
17203.759
12624.791
2088.0635
2095.902
12664.381
17251.418
30521.541
98163.896
98377.74
30589.171
17301.487
12706.028
2103.9733
2112.2607
12749.143
17353.63
30660.137
98600.35
98833.99
30734.668
17408.367
12794.424
2120.79
2129.5491
12841.394
17465.441
30812.941
99077.539
99333.181
30895.216
17525.356
12890.681
2138.5643
2147.8318
12941.921
17587.932
30981.74
99600.252
99881.081
31072.924
17653.7
12995.71
2157.3692
2167.1674
13051.764
17722.547
31169.076
100175.73
100486.66
31270.714
17795.003
13110.631
2177.2422
2187.5788
13172.117
17871.036
31378.234
100814.58
101162.25
31492.249
17951.167
13236.744
2198.1863
2209.0507
13304.425
18035.502
31613.335
101530.74
101923.21
31742.233
18124.61
13375.689
2220.1775
2231.5486
13450.56
18218.705
31879.614
102341.28
102788.61
32026.453
18318.442
13529.605
2243.158
2254.9784
13613.008
18424.234
32183.714
103267.88
103783.78
32352.688
18536.911
13701.439
2266.9803
2279.0964
13795.356
18657.242
32534.932
104340.81
104946.02
32732.572
18786.521
13895.741
2291.2255
2303.186
14003.693
18926.338
32948.272
105607.64
106337.48
33186.475
19079.603
14121.404
2314.711
2325.35
14252.213
19250.965
33454.59
107154.11
108091.68
33763.121
19447.626
14401.49
2334.3289
2340.5479
14578.171
19682.569
34127.696
109197.8
110576.58
34612.11
19983.977
14794.909
2342.2239
2332.3146
15030.337
20353.017
35333.224
112568.06
115586.47
36042.967
20616.661
15154.749
2295.138
2227.2098
15032.463
20502.13
35912.254
118734.01
120639.64
36597.09
20812.156
15115.73
2196.5498
2179.4381
15731.441
21592.178
37869.047
124028.98
1018.4996
608.18407
820.88573
2058.6326
15955.781
21628.376
37785.322
124555.2
123425.19
37118.011
21054.215
15179.69
2164.1585
133011.9
39232.683
21532.837
14891.118
2878.7639
3195.3548
15205.068
21833.061
39451.537
131672.61
132465.66
40004.506
22042.811
15290.274
3206.2739
2503.8726
15353.938
21765.564
38914.875
128628.21
1472.3924
1268.0541
677.75724
841.03731
180.65719
191.01694
189.48593
180.65688
179.71465
184.554
184.60613
179.35619
97285.109
30251.297
17066.771
12530.467
2053.3185
2060.4886
12565.109
17107.98
30305.897
97459.753
97645.076
30363.394
17151.43
12601.772
2067.9367
2075.5927
12639.607
17196.631
30423.747
97837.546
98040.312
30487.179
17244.164
12679.483
2083.4885
2091.5962
12720.68
17293.605
30553.677
98250.874
98472.267
30623.598
17345.555
12764.014
2099.9447
2108.5211
12808.894
17399.677
30696.957
98702.513
98944.507
30774.122
17456.542
12856.068
2117.3599
2126.4494
12905.037
17515.88
30855.184
99196.553
99461.613
30940.631
17578.278
12956.499
2135.8157
2145.4485
13010.068
17643.549
31030.639
99738.772
100030.99
31125.725
17712.25
13066.375
2155.3671
2165.5607
13125.135
17784.292
31226.209
100338
100663.14
31332.732
17860.244
13186.934
2176.0393
2186.7878
13251.605
17940.115
31445.738
101006.97
101372.79
31565.983
18024.496
13319.708
2197.8112
2209.0951
13391.194
18113.529
31694.071
101761.88
102177.85
31830.868
18207.838
13466.631
2220.6365
2232.4148
13546.11
18307.731
31977.172
102622.6
103100.37
32134.147
18413.97
13630.272
2244.4159
2256.5985
13719.416
18527.11
32302.922
103614.15
104169.39
32485.207
18648.221
13814.387
2268.9091
2281.2345
13915.908
18778.415
32682.987
104771.57
105429.39
32899.24
18919.625
14025.453
2293.3977
2305.1001
14145.073
19074.733
33138.533
106153.8
106965.48
33408.776
19248.647
14278.336
2315.8402
2324.7773
14430.319
19448.592
33721.419
107900.42
109008.67
34096.63
19687.62
14609.402
2330.8047
2332.0648
14823.83
19987.029
34585.399
110391.74
112417.63
35264.655
20327.717
15041.305
2320.6824
2284.5589
15142.868
20541.605
35797.649
115350.37
118301.44
35862.549
20504.343
15047.948
2224.6392
2193.7015
15275.565
20843.458
36485.041
120073.3
123105.78
36990.913
20991.326
15147.874
2177.3044
16930.805
23121.791
40519.556
130510.92
127739.61
40790.062
23486.332
17347.532
2097.3865
2390.9272
16614.178
23028.115
40408.319
126973.29
127692.84
38631.892
21680.133
15282.07
2537.4534
2193.7791
15962.525
21923.908
38156.409
123469.78
123104.45
36989.461
20989.732
15146.298
2176.2951
2192.8944
15273.954
20842.055
36483.958
120071.98
118299.17
35861.418
20503.079
15046.583
2223.9608
2283.9604
15141.655
20540.381
35796.363
115347.4
112413.88
35263.144
20326.475
15040.151
2320.1558
2331.5909
14822.717
19985.808
34583.916
110388
109004.98
34095.092
19686.403
14608.313
2330.3652
2324.3611
14429.244
19447.386
33719.942
107897.22
106962.83
33407.38
19247.466
14277.281
2315.4403
2304.7125
14144.041
19073.585
33137.238
106151.82
105427.98
32898.044
18918.516
14024.453
2293.0232
2280.8725
13914.947
18777.361
32681.908
104770.75
104168.94
32484.238
18647.233
13813.481
2268.5635
2256.272
13718.572
18526.208
32302.104
103614
103100.25
32133.425
18413.147
13629.498
2244.1122
2232.1349
13545.402
18306.995
31976.577
102622.51
102177.49
31830.323
18207.168
13465.993
2220.3849
2208.8719
13390.616
18112.93
31693.614
101761.4
101372.03
31565.564
18023.953
13319.188
2197.6189
2186.6227
13251.14
17939.637
31445.395
101006.01
100661.83
31332.386
17859.801
13186.518
2175.9034
2165.4511
13124.756
17783.895
31225.901
100336.59
100029.21
31125.415
17711.876
13066.034
2155.2831
2145.3803
13009.743
17643.19
31030.334
99737.02
99459.632
30940.288
17577.913
12956.19
2135.763
2126.4055
12904.726
17515.522
30854.878
99194.783
98942.555
30773.745
17456.161
12855.759
2117.329
2108.4955
12808.589
17399.313
30696.636
98700.929
98470.557
30623.236
17345.185
12763.723
2099.9239
2091.5745
12720.374
17293.233
30553.354
98249.346
98038.549
30486.782
17243.768
12679.186
2083.4742
2075.5763
12639.292
17196.227
30423.354
97835.95
97643.109
30362.921
17150.997
12601.462
2067.9175
2060.4521
12564.75
17107.491
30305.35
97457.68
97281.373
30250.588
17066.202
12530.068
2053.2333
2046.199
12496.33
17026.418
30198.294
97112.049
2065.8253
12514.208
17071.621
30280.364
97396.72
97574.938
30336.138
17113.537
12549.458
2073.0329
2080.4459
12585.73
17157.008
30394.429
97760.377
97956.035
30455.749
17202.764
12624.019
2088.0936
2095.944
12663.502
17250.288
30519.939
98159.022
98372.622
30587.393
17300.228
12705.068
2104.0337
2112.341
12748.029
17352.172
30658.076
98594.507
98827.662
30732.337
17406.719
12793.183
2120.8975
2129.6917
12839.969
17463.543
30810.23
99070.25
99325.037
30892.184
17523.231
12889.113
2138.7585
2148.0873
12940.159
17585.534
30978.283
99590.877
99870.506
31069.04
17651.03
12993.778
2157.7091
2167.6106
13049.623
17719.564
31164.691
100163.33
100472.41
31265.773
17791.691
13108.297
2177.8181
2188.3149
13169.552
17867.349
31372.667
100797.95
101143.25
31486.019
17947.093
13233.957
2199.1138
2210.2001
13301.355
18030.949
31606.31
101509.19
101899.29
31734.396
18119.541
13372.32
2221.5861
2233.2558
13446.84
18213.043
31870.89
102315.06
102760.56
32016.857
18312.15
13525.518
2245.2113
2257.4273
13608.5
18417.226
32173.174
103238.37
103753.71
32341.252
18529.137
13696.48
2269.8817
2282.5048
13789.889
18648.628
32522.628
104311.18
104918.47
32719.435
18776.956
13889.684
2295.1957
2307.7637
13996.858
18915.611
32934.308
105584.05
106320.14
33171.317
19067.223
14113.408
2319.9288
2331.2185
14242.319
19235.89
33436.936
107144.48
108087.97
33739.427
19428.054
14388.646
2340.84
2347.6936
14561.646
19656.531
34088.059
109189.82
110572.23
34573.061
19954.369
14774.772
2349.7364
2338.6146
14994.905
20301.402
35276.58
112588.23
115526.24
35824.369
20527.177
15103.728
2302.3725
2234.2689
14991.272
20475.883
35801.594
118432.33
119834.23
36870.376
21171.857
15590.345
2204.6328
2191.7087
15491.941
21459.431
37989.999
126784.02
132586.17
39505.892
22027.945
15622.558
2242.1569
2066.9575
16036.089
21736.333
37949.489
124643.57
122309.94
37021.462
21078.752
15259.026
2154.1276
2160.3798
15327.673
21072.983
36897.382
121301.56
122414.37
38130.551
21989.058
16369.558
2063.5232
2180.7398
15729.248
21588.268
37866.598
124007.31
125400.2
37801.132
21421.625
15518.533
2180.0433
2059.2369
15951.25
21621.455
37778.848
124552.82
123412.14
37110.513
21049.563
15177.045
2164.1504
2185.3104
15399.675
20960.53
36617.633
119749.37
118019.67
35836.884
20515.974
15067.626
2216.5119
2276.5593
15124.835
20512.636
35742.403
115252.87
112363.55
35258.019
20321.201
15034.136
2315.7271
2328.6668
14822.072
19987.355
34588.436
110365.67
108996.9
34100.222
19689.467
14609.54
2328.2713
2322.7775
14431.013
19450.629
33724.778
107895.78
106965.51
33411.419
19250.305
14278.973
2314.1644
2303.638
14145.495
19075.962
33140.667
106157.34
105435.25
32901.053
18920.53
14025.692
2292.1
2280.0755
13916.027
18779.113
32684.615
104778.87
104177.35
32486.713
18648.788
13814.445
2267.8764
2255.6842
13719.448
18527.606
32304.357
103622.27
103108.11
32135.485
18414.413
13630.302
2243.6128
2231.7153
13546.147
18308.144
31978.44
102629.83
102184.19
31832.013
18208.215
13466.681
2220.0346
2208.5825
13391.255
18113.883
31695.131
101767.44
101377.34
31566.94
18024.827
13319.784
2197.3825
2186.4297
13251.677
17940.411
31446.58
101010.67
100665.9
31333.439
17860.498
13187.009
2175.7469
2165.3248
13125.194
17784.514
31226.833
100340
100032.09
31126.218
17712.424
13066.43
2155.183
2145.3036
13010.101
17643.682
31031.051
99739.423
99461.652
30940.926
17578.356
12956.513
2135.7054
2126.3664
12905.018
17515.91
30855.414
99196.465
98944.042
30774.227
17456.507
12856.019
2117.2992
2108.472
12808.81
17399.602
30697.019
98702.168
98471.643
30623.592
17345.441
12763.917
2099.9054
2091.5609
12720.547
17293.457
30553.658
98250.312
98039.372
30487.042
17243.965
12679.339
2083.4667
2075.5725
12639.444
17196.415
30423.6
97836.792
97643.961
30363.158
17151.178
12601.609
2067.9111
2060.4389
12564.874
17107.641
30305.533
97458.438
97282.32
30250.683
17066.293
12530.152
2053.2017
2046.16
12496.386
17026.495
30198.447
97113.164
2053.3026
12530.451
17066.866
30251.541
97285.563
97461.707
30306.246
17108.368
12565.55
2060.4949
2067.9342
12601.812
17151.588
30363.737
97645.644
97839.597
30424.202
17197.071
12640.064
2075.6053
2083.4879
12679.588
17244.399
30487.638
98041.253
98253.206
30554.277
17294.116
12721.166
2091.6021
2099.9322
12764.203
17345.891
30624.193
98473.717
98705.278
30697.673
17400.266
12809.424
2108.512
2117.3274
12856.347
17456.994
30774.882
98946.536
99199.91
30856.128
17516.589
12905.629
2126.4092
2135.7457
12956.871
17578.854
30941.595
99464.525
99742.806
31031.74
17644.339
13010.696
2145.3586
2155.2395
13066.824
17712.945
31126.881
100034.68
100342.99
31227.544
17785.199
13125.814
2165.4004
2175.8289
13187.472
17861.082
31334.145
100668.22
101013.28
31447.346
17941.15
13252.343
2186.5304
2197.4922
13320.342
18025.505
31567.702
101379.4
101769.81
31696.003
18114.726
13392.007
2208.7129
2220.1746
13467.37
18209.048
31832.948
102186.13
102632.11
31979.504
18309.139
13547.018
2231.8697
2243.7699
13631.14
18415.421
32136.627
103110.17
103624.78
32305.672
18528.772
13720.449
2255.8473
2268.0351
13815.432
18649.989
32488.136
104179.86
104781.82
32686.218
18780.46
13917.154
2280.2312
2292.2457
14026.832
18921.94
32902.789
105438.18
106160.56
33142.572
19077.516
14146.767
2303.7757
2314.2903
14280.297
19251.955
33413.447
106968.52
107898.78
33727.009
19452.487
14432.515
2322.8943
2328.3744
14611.202
19691.579
34102.811
108999.59
110368.67
34591.62
19989.809
14823.985
2328.7557
2315.806
15036.298
20323.991
35261.323
112366.49
115257.34
35746.648
20516.037
15127.246
2276.5991
2216.6024
15070.117
20519.802
35842.797
118023.75
119753.61
36624.766
20964.981
15402.449
2185.3656
2036.8807
15846.43
21218.51
36655.72
119621.01
116766.6
35889.456
20794.735
15562.42
2041.2353
2080.0361
15417.241
20601.834
35526.081
113851.78
111213.99
34972.517
20301.646
15217.647
2103.4502
2109.6711
14972.237
19946.695
34324.181
109441.04
108190.16
33869.448
19657.733
14756.973
2107.739
2102.8519
14583.431
19432.035
33519.864
107141.86
106231
33224.062
19242.831
14437.019
2095.9317
2087.623
14308.178
19077.108
32965.771
105427.44
104704.19
32736.208
18928.591
14192.045
2078.5054
2068.9097
14085.226
18792.81
32528.308
104045.62
103443.06
32338.058
18667.216
13985.868
2059.0529
2049.0771
13892.66
18550.146
32162.856
102889
102377.92
32000.813
18440.615
13804.985
2039.0865
2029.1381
13722.081
18337.694
31850.409
101904.7
101465.76
31710.473
18240.855
13643.694
2019.2818
2009.5404
13569.226
18149.42
31579.97
101057.19
100676.38
31458.023
18063.086
13498.607
1999.9451
1990.5063
13431.285
17981.279
31343.881
100320.05
99986.313
31236.787
17903.83
13367.322
1981.2498
1972.1772
13306.181
17830.23
31136.152
99672.098
99376.078
31041.359
17760.404
13248.03
1963.3101
1954.6412
13192.273
17693.824
30951.855
99095.64
98829.939
30867.135
17630.52
13139.192
1946.1879
1937.9345
13088.167
17570.011
30786.855
98576.698
98335.841
30710.624
17512.411
13039.581
1929.8952
1922.0539
12992.769
17457.236
30638.193
98105.361
97885.701
30569.309
17404.701
12948.22
1914.419
1906.966
12905.19
17354.298
30503.772
97675.001
97474.18
30441.373
17306.311
12864.294
1899.711
1892.6316
12824.705
17260.218
30381.99
97281.325
97097.764
30325.424
17216.363
12787.155
1885.7519
1879.0485
12750.754
17174.237
30271.636
96921.637
96754.882
30220.406
17134.229
12716.362
1872.5899
1872.6
12715.969
17134.031
30220.451
96752.961
96920.118
30271.312
17174.065
12750.664
1879.0739
1885.7642
12786.516
17215.779
30324.794
97094.579
97278.592
30381.115
17259.69
12824.344
1892.6557
1899.7322
12863.451
17305.423
30440.269
97469.931
97671.171
30502.484
17353.483
12904.605
1907.0107
1914.4722
12947.207
17403.555
30567.82
97880.472
98100.26
30636.531
17456.139
12991.963
1922.1396
1930.0066
13038.4
17511.002
30708.748
98329.345
98570.042
30784.772
17568.628
13087.153
1938.0916
1946.3909
13137.839
17628.844
30864.819
98821.647
99086.777
30949.292
17692.155
13191.066
1954.9172
1963.6604
13246.52
17758.447
31038.511
99365.257
99659.973
31133.013
17828.238
13304.773
1972.6296
1981.8114
13365.627
17901.527
31233.229
99971.539
100303.11
31339.876
17978.868
13429.635
1991.2089
2000.8047
13496.701
18060.363
31453.522
100655.98
101033.59
31574.938
18146.553
13567.344
2010.5976
2020.5653
13641.583
18237.656
31704.804
101437.7
101872.15
31844.071
18334.296
13719.968
2030.6987
2040.9728
13802.674
18436.87
31993.674
102339.54
102844.25
32154.83
18546.139
13890.341
2051.3605
2061.8114
13983.399
18662.818
32328.943
103390.25
103983.78
32517.971
18788.113
14082.809
2072.2509
2082.5561
14189.699
18923.58
32724.428
104631.4
105342.67
32952.685
19072.206
14306.422
2092.5573
2101.9686
14436.672
19238.934
33210.503
106133.75
107035.68
33508.27
19431.289
14586.416
2110.2836
2116.9658
14766.57
19664.155
33865.538
108087.65
109377.78
34336.44
19965.749
14993.299
2121.2235
2118.4836
15258.818
20342.034
34998.474
111233.73
114033.26
35662.975
20705.256
15498.407
2101.3525
2072.3489
15662.56
21017.54
36424.198
117584.16
121215.46
36652.138
21056.793
15564.152
2052.5157
2075.1732
15970.682
21640.53
37769.103
124276.27
131390.74
39253.646
22033.733
15786.161
2248.0215
2195.6677
15563.717
21452.708