/*--------------------------------*- C++ -*----------------------------------*\
  =========                 |
  \\      /  F ield         | OpenFOAM: The Open Source CFD Toolbox
   \\    /   O peration     | Website:  https://openfoam.org
    \\  /    A nd           | Version:  7
     \\/     M anipulation  |
\*---------------------------------------------------------------------------*/
FoamFile
{
    version     2.0;
    format      ascii;
    class       volScalarField;
    location    "280";
    object      p;
}
// * * * * * * * * * * * * * * * * * * * * * * * * * * * * * * * * * * * * * //

dimensions      [1 -1 -2 0 0 0 0];

internalField   nonuniform List<scalar> 
24789
(
101300.41
101300.41
101300.41
101300.4
101300.14
101298.98
101299.25
101299.26
101299.26
101299.25
101298.05
101298.06
101298.05
101298.04
101297.77
101296.48
101296.76
101296.77
101296.77
101296.77
101295.39
101295.4
101295.39
101295.38
101295.11
101293.63
101293.9
101293.91
101293.92
101293.91
101292.3
101292.31
101292.3
101292.29
101292.03
101290.29
101290.53
101290.54
101290.55
101290.54
101288.61
101288.62
101288.61
101288.6
101288.39
101286.28
101286.47
101286.48
101286.48
101286.47
101284.1
101284.11
101284.11
101284.1
101283.96
101281.37
101281.46
101281.47
101281.47
101281.46
101278.5
101278.51
101278.51
101278.51
101278.48
101275.23
101275.2
101275.19
101275.19
101275.17
101271.42
101271.45
101271.45
101271.47
101271.57
101267.43
101267.24
101267.22
101267.21
101267.18
101262.39
101262.42
101262.44
101262.47
101262.75
101257.41
101257.04
101256.99
101256.96
101256.92
101250.68
101250.73
101250.77
101250.83
101251.31
101244.3
101243.7
101243.62
101243.55
101243.49
101235.18
101235.26
101235.34
101235.45
101236.19
101226.75
101225.84
101225.7
101225.59
101225.5
101214.14
101214.26
101214.4
101214.57
101215.7
101202.65
101201.26
101201.04
101200.86
101200.72
101184.61
101184.79
101185.03
101185.31
101187
101168.09
101166.02
101165.66
101165.36
101165.13
101142
101142.29
101142.68
101143.15
101145.61
101117.62
101115.04
101114.45
101113.94
101113.56
101074.29
101074.78
101075.44
101076.17
101078.4
101036.79
101033.45
101032.41
101031.47
101030.91
101013.11
101013.74
101015.31
101017.3
101025.24
100920.65
100914.43
100912.61
100911.85
100910.72
100314.17
100337.38
100353.46
100372.47
100547.17
100864.98
100812.9
100802.8
100793.24
100779.54
100958.53
100972.74
100978.71
100986.3
101016.11
101178.26
101136.65
101126.84
101116.56
101099.57
101465.57
101492.59
101514.48
101533.2
101541.3
101117.46
100925.91
100905.01
100888.65
100861.62
101006.83
101012.15
101012.56
101012.78
101024.92
100784.38
100560.74
100533.4
100507.27
100473.2
100489.13
100497.54
100501.46
100509.36
100610.97
100926.94
100919.64
100918.44
100917.8
100917.33
101011.62
101012.35
101013.71
101015.38
101023.12
101036.55
101034.4
101033.52
101032.74
101032.21
101075.44
101075.85
101076.42
101077.05
101078.82
101118.48
101116.04
101115.52
101115.09
101114.77
101143.08
101143.32
101143.64
101144.04
101146.53
101168.83
101166.65
101166.33
101166.09
101165.9
101185.17
101185.31
101185.5
101185.75
101187.58
101203.09
101201.58
101201.38
101201.24
101201.12
101214.44
101214.54
101214.65
101214.8
101216.04
101227.02
101226.02
101225.89
101225.81
101225.73
101235.37
101235.43
101235.5
101235.59
101236.4
101244.47
101243.83
101243.75
101243.7
101243.65
101250.81
101250.86
101250.89
101250.95
101251.45
101257.53
101257.15
101257.11
101257.08
101257.05
101262.5
101262.53
101262.55
101262.57
101262.85
101267.52
101267.34
101267.32
101267.31
101267.29
101271.5
101271.52
101271.53
101271.54
101271.63
101275.28
101275.26
101275.26
101275.26
101275.24
101278.55
101278.57
101278.57
101278.57
101278.51
101281.4
101281.51
101281.52
101281.52
101281.51
101284.15
101284.16
101284.16
101284.15
101283.98
101286.3
101286.51
101286.52
101286.53
101286.52
101288.65
101288.66
101288.66
101288.65
101288.39
101290.3
101290.58
101290.58
101290.59
101290.58
101292.34
101292.35
101292.34
101292.33
101292.04
101293.63
101293.94
101293.95
101293.96
101293.95
101295.43
101295.44
101295.43
101295.42
101295.11
101296.48
101296.8
101296.81
101296.81
101296.8
101298.08
101298.09
101298.09
101298.08
101297.76
101298.98
101299.29
101299.3
101299.31
101299.3
101300.49
101300.49
101300.49
101300.47
101300.15
101299.04
101299.34
101299.35
101299.35
101299.35
101298.14
101298.15
101298.14
101298.13
101297.81
101296.52
101296.84
101296.86
101296.86
101296.85
101295.48
101295.49
101295.48
101295.47
101295.15
101293.67
101293.99
101294
101294
101294
101292.38
101292.39
101292.39
101292.38
101292.07
101290.33
101290.62
101290.63
101290.64
101290.63
101288.7
101288.7
101288.7
101288.69
101288.43
101286.33
101286.56
101286.57
101286.57
101286.56
101284.2
101284.21
101284.21
101284.2
101284.01
101281.43
101281.56
101281.57
101281.57
101281.56
101278.61
101278.62
101278.62
101278.62
101278.55
101275.31
101275.31
101275.31
101275.31
101275.29
101271.56
101271.58
101271.58
101271.59
101271.66
101267.54
101267.39
101267.37
101267.36
101267.34
101262.55
101262.57
101262.59
101262.62
101262.87
101257.55
101257.19
101257.15
101257.12
101257.09
101250.85
101250.89
101250.93
101250.98
101251.46
101244.46
101243.84
101243.78
101243.73
101243.68
101235.39
101235.45
101235.51
101235.6
101236.38
101226.99
101226.01
101225.9
101225.82
101225.74
101214.45
101214.54
101214.64
101214.79
101216
101203.05
101201.56
101201.38
101201.24
101201.13
101185.22
101185.36
101185.53
101185.76
101187.57
101168.82
101166.68
101166.38
101166.15
101165.97
101143.08
101143.3
101143.61
101143.99
101146.43
101118.69
101116.23
101115.73
101115.32
101115.03
101076.41
101076.79
101077.33
101077.93
101079.68
101034.03
101032.65
101031.86
101031.14
101030.68
101005.77
101006.39
101007.67
101009.25
101016.69
100950.09
100943.72
100942.19
100941.23
100940.57
100560.89
100567.48
100568.74
100573.34
100630.78
100597.72
100192.73
100149.17
100109.7
100059.55
101658.5
101641.04
101625.24
101604.87
101380.05
101070.14
100927.65
100909.76
100897.22
100872.3
101417.41
101449.53
101472.55
101492.87
101489.96
101204.72
101252.84
101257.35
101261.25
101258.5
101534.49
101522.49
101509.94
101493.09
101344.04
100585.09
100251.89
100207.99
100165.79
100114.93
100496.77
100506.68
100509.74
100516.38
100591.97
100932.41
100925.62
100924.01
100923.33
100922.33
101000.2
101000.77
101002
101003.56
101009.9
101030.6
101028.72
101027.89
101027.12
101026.61
101073.89
101074.34
101074.93
101075.58
101077.48
101116.83
101114.58
101114.05
101113.6
101113.25
101141.76
101142.03
101142.37
101142.78
101144.91
101167.7
101165.9
101165.57
101165.31
101165.1
101184.58
101184.75
101184.96
101185.21
101186.71
101202.39
101201.15
101200.95
101200.79
101200.66
101214.09
101214.2
101214.32
101214.48
101215.5
101226.61
101225.79
101225.66
101225.57
101225.48
101235.18
101235.25
101235.33
101235.43
101236.1
101244.24
101243.7
101243.63
101243.57
101243.51
101250.71
101250.76
101250.8
101250.86
101251.28
101257.41
101257.09
101257.04
101257.01
101256.97
101262.45
101262.48
101262.5
101262.53
101262.77
101267.47
101267.31
101267.29
101267.28
101267.25
101271.48
101271.5
101271.51
101271.52
101271.61
101275.27
101275.25
101275.24
101275.24
101275.22
101278.54
101278.56
101278.56
101278.56
101278.52
101281.41
101281.51
101281.51
101281.51
101281.5
101284.14
101284.15
101284.15
101284.14
101284
101286.33
101286.51
101286.52
101286.52
101286.51
101288.65
101288.66
101288.65
101288.64
101288.43
101290.34
101290.57
101290.58
101290.59
101290.58
101292.34
101292.35
101292.34
101292.33
101292.08
101293.68
101293.94
101293.95
101293.96
101293.95
101295.43
101295.44
101295.43
101295.42
101295.16
101296.53
101296.79
101296.81
101296.81
101296.8
101298.09
101298.1
101298.09
101298.08
101297.82
101299.04
101299.29
101299.3
101299.31
101299.3
101299.29
101299.3
101299.3
101299.28
101299.02
101297.8
101298.08
101298.09
101298.1
101298.09
101296.8
101296.81
101296.81
101296.79
101296.52
101295.15
101295.42
101295.44
101295.44
101295.43
101293.95
101293.96
101293.96
101293.94
101293.67
101292.08
101292.34
101292.35
101292.35
101292.35
101290.59
101290.6
101290.59
101290.58
101290.34
101288.43
101288.65
101288.66
101288.66
101288.65
101286.53
101286.54
101286.53
101286.52
101286.33
101284.01
101284.16
101284.17
101284.17
101284.16
101281.51
101281.53
101281.52
101281.52
101281.41
101278.52
101278.57
101278.58
101278.58
101278.56
101275.24
101275.26
101275.26
101275.26
101275.27
101271.61
101271.53
101271.52
101271.51
101271.49
101267.26
101267.29
101267.3
101267.32
101267.48
101262.79
101262.54
101262.51
101262.49
101262.46
101257
101257.04
101257.07
101257.11
101257.46
101251.35
101250.9
101250.84
101250.8
101250.75
101243.56
101243.62
101243.68
101243.75
101244.33
101236.22
101235.49
101235.39
101235.32
101235.24
101225.55
101225.64
101225.74
101225.87
101226.78
101215.71
101214.58
101214.41
101214.28
101214.18
101200.72
101200.86
101201.02
101201.23
101202.65
101187
101185.23
101184.97
101184.76
101184.59
101165.05
101165.26
101165.53
101165.86
101168.05
101145.48
101142.84
101142.41
101142.06
101141.8
101113.34
101113.68
101114.13
101114.68
101117.48
101078.37
101075.87
101075.21
101074.62
101074.18
101029.18
101029.66
101030.48
101031.42
101035.23
101020.59
101011.23
101009.49
101008.2
101007.82
100924.23
100924.38
100923.78
100924.08
100923.48
100556.81
100411.51
100395.95
100384.26
100366.04
100519.6
100548.47
100569.74
100592.88
100774.21
101212.49
101315.59
101320.68
101323.55
101321.89
100957.33
100976.39
100985.39
100995.85
101083.61
101567.49
101554.97
101534.96
101511.69
101482.2
101841.86
101988.9
102009.23
102023.62
102027.53
102118.2
102111.34
102103.89
102084.62
101791.17
101625.87
101657.05
101649.43
101640.73
101618.63
101507.76
101515.93
101519.33
101520.17
101459.99
101288.17
101369.27
101377.57
101382.95
101388.23
101166.28
101176.89
101185.93
101191.08
101193.1
100637.73
100422.92
100394.7
100369.66
100331.64
100498.36
100508
100512.5
100521.02
100605.01
100932.12
100927.55
100925.95
100924.85
100923.67
101004.45
101005.25
101006.6
101008.26
101012.97
101032.33
101031.19
101030.27
101029.41
101028.83
101074.79
101075.27
101075.91
101076.6
101078.02
101117.17
101115.19
101114.63
101114.14
101113.76
101142.07
101142.36
101142.73
101143.16
101145.15
101167.8
101166.06
101165.72
101165.43
101165.21
101184.61
101184.78
101185
101185.27
101186.75
101202.42
101201.18
101200.97
101200.8
101200.66
101214.09
101214.21
101214.34
101214.51
101215.52
101226.62
101225.79
101225.65
101225.55
101225.45
101235.15
101235.22
101235.31
101235.41
101236.09
101244.23
101243.69
101243.61
101243.54
101243.48
101250.68
101250.73
101250.78
101250.84
101251.27
101257.4
101257.07
101257.02
101256.99
101256.95
101262.41
101262.45
101262.47
101262.5
101262.75
101267.45
101267.28
101267.26
101267.25
101267.22
101271.46
101271.48
101271.49
101271.51
101271.6
101275.26
101275.23
101275.23
101275.22
101275.2
101278.53
101278.54
101278.55
101278.55
101278.51
101281.41
101281.5
101281.5
101281.5
101281.49
101284.14
101284.15
101284.15
101284.14
101284
101286.33
101286.5
101286.51
101286.51
101286.5
101288.64
101288.65
101288.64
101288.64
101288.43
101290.34
101290.57
101290.58
101290.58
101290.57
101292.33
101292.34
101292.34
101292.33
101292.08
101293.68
101293.94
101293.95
101293.95
101293.94
101295.43
101295.44
101295.44
101295.42
101295.16
101296.53
101296.8
101296.81
101296.82
101296.81
101298.1
101298.11
101298.11
101298.1
101297.82
101299.05
101299.31
101299.32
101299.32
101299.32
101299.31
101299.32
101299.32
101299.3
101299
101297.79
101298.1
101298.12
101298.12
101298.11
101296.83
101296.83
101296.83
101296.82
101296.5
101295.13
101295.45
101295.46
101295.46
101295.45
101293.97
101293.98
101293.97
101293.96
101293.65
101292.05
101292.35
101292.36
101292.37
101292.36
101290.6
101290.61
101290.61
101290.6
101290.31
101288.41
101288.67
101288.68
101288.68
101288.67
101286.54
101286.55
101286.54
101286.54
101286.31
101283.99
101284.17
101284.18
101284.18
101284.17
101281.53
101281.54
101281.54
101281.54
101281.41
101278.53
101278.59
101278.59
101278.59
101278.58
101275.26
101275.28
101275.28
101275.28
101275.29
101271.65
101271.56
101271.55
101271.55
101271.53
101267.3
101267.33
101267.34
101267.36
101267.53
101262.86
101262.58
101262.56
101262.54
101262.51
101257.06
101257.09
101257.12
101257.16
101257.54
101251.46
101250.96
101250.9
101250.86
101250.82
101243.66
101243.71
101243.76
101243.83
101244.48
101236.42
101235.6
101235.51
101235.44
101235.38
101225.74
101225.82
101225.91
101226.04
101227.04
101216.07
101214.84
101214.68
101214.56
101214.47
101201.17
101201.29
101201.44
101201.64
101203.14
101187.65
101185.83
101185.58
101185.38
101185.23
101166.01
101166.21
101166.46
101166.79
101168.93
101146.64
101144.26
101143.83
101143.49
101143.24
101115.15
101115.48
101115.95
101116.49
101118.72
101079.4
101078.19
101077.52
101076.9
101076.46
101032.3
101032.84
101033.7
101034.63
101035.55
101019.64
101013.56
101011.74
101010.28
101009.52
100931.57
100932.09
100932.42
100933.98
100936.31
100627.16
100530.63
100522.56
100517.16
100507.41
100410.14
100442.42
100465.77
100492.72
100734.12
101084.07
101106.15
101104.74
101103.45
101094.32
100840.57
100871.51
100899.6
100927.01
101150.59
101592.94
101948.93
101989.83
102025.29
102060.32
101053.12
101075.91
101093.4
101108.24
101192.59
100955.54
100881.09
100868.48
100859.07
100835.76
100900.15
100903.23
100903.87
100904.51
100898.95
100551.22
100340.35
100315.22
100293.47
100265.6
100915.75
100916.35
100916.11
100916.79
100917.22
101022.48
101014.8
101012.87
101011.35
101010.77
101029.69
101030.26
101031.21
101032.29
101035.85
101078.3
101076.05
101075.32
101074.65
101074.16
101113.38
101113.76
101114.28
101114.87
101117.51
101145.52
101142.99
101142.52
101142.13
101141.84
101165.04
101165.27
101165.58
101165.94
101168.06
101186.99
101185.27
101184.98
101184.75
101184.56
101200.69
101200.84
101201.02
101201.24
101202.64
101215.7
101214.56
101214.39
101214.25
101214.13
101225.49
101225.59
101225.7
101225.84
101226.75
101236.19
101235.45
101235.34
101235.26
101235.18
101243.5
101243.56
101243.63
101243.71
101244.3
101251.32
101250.85
101250.79
101250.74
101250.69
101256.94
101256.98
101257.02
101257.06
101257.42
101262.75
101262.49
101262.45
101262.43
101262.4
101267.19
101267.22
101267.23
101267.25
101267.44
101271.57
101271.47
101271.46
101271.45
101271.43
101275.18
101275.2
101275.2
101275.21
101275.23
101278.48
101278.52
101278.52
101278.52
101278.51
101281.47
101281.48
101281.48
101281.47
101281.38
101283.97
101284.11
101284.12
101284.12
101284.11
101286.48
101286.49
101286.48
101286.48
101286.29
101288.39
101288.61
101288.62
101288.62
101288.61
101290.55
101290.56
101290.55
101290.54
101290.3
101292.05
101292.3
101292.31
101292.32
101292.31
101293.92
101293.93
101293.92
101293.91
101293.65
101295.12
101295.39
101295.41
101295.41
101295.4
101296.78
101296.79
101296.78
101296.77
101296.5
101297.79
101298.06
101298.07
101298.07
101298.07
101299.26
101299.27
101299.26
101299.25
101299
101299.02
101299.28
101299.29
101299.29
101299.28
101298.09
101298.1
101298.09
101298.08
101297.8
101296.52
101296.79
101296.81
101296.81
101296.8
101295.43
101295.44
101295.43
101295.42
101295.14
101293.67
101293.94
101293.95
101293.96
101293.95
101292.34
101292.35
101292.34
101292.33
101292.07
101290.33
101290.57
101290.58
101290.59
101290.58
101288.66
101288.67
101288.66
101288.65
101288.42
101286.32
101286.51
101286.52
101286.53
101286.51
101284.15
101284.16
101284.16
101284.15
101283.99
101281.41
101281.52
101281.52
101281.53
101281.51
101278.56
101278.57
101278.57
101278.57
101278.51
101275.27
101275.26
101275.25
101275.25
101275.23
101271.49
101271.51
101271.52
101271.53
101271.61
101267.47
101267.31
101267.29
101267.28
101267.25
101262.47
101262.5
101262.52
101262.55
101262.79
101257.45
101257.11
101257.07
101257.04
101257
101250.76
101250.8
101250.85
101250.9
101251.35
101244.33
101243.77
101243.69
101243.63
101243.57
101235.26
101235.33
101235.41
101235.51
101236.22
101226.78
101225.9
101225.77
101225.67
101225.58
101214.22
101214.33
101214.46
101214.62
101215.72
101202.66
101201.3
101201.09
101200.92
101200.78
101184.68
101184.85
101185.07
101185.34
101187.03
101168.11
101166.02
101165.67
101165.39
101165.18
101141.91
101142.18
101142.54
101142.99
101145.55
101117.64
101114.79
101114.22
101113.75
101113.38
101074.28
101074.75
101075.36
101076.07
101078.72
101034.16
101030.58
101029.62
101028.76
101028.24
101004.91
101005.42
101006.81
101008.65
101018.06
100934.34
100935.66
100935.37
100936.06
100936.04
100427.2
100441.43
100449.21
100460.23
100571.04
100659.02
100392.62
100358.15
100328.12
100288.26
101583.41
101571.52
101558.9
101541.97
101360.8
101005.67
100884.42
100870.93
100862.43
100842.39
101220.92
101137.15
101206.82
101124.09
100945.97
100924.5
100904.95
100877.25
101379.84
101376.57
101373.03
101367.2
101312.2
101715.23
101724.87
101729.81
101727.75
101707.37
101455.85
101523.52
101520.14
101514.07
101492.13
101072.12
101105.99
101122.18
101140.68
101231.79
101458.12
101501.2
101504.43
101503.65
101501.19
101483.64
101769.91
101440.69
101516.89
101310.21
101312.49
101305.81
101310.18
101307.13
101305.4
101306.67
101307.07
101299.24
101299.24
101299.24
101299.23
101298.99
101297.78
101298.04
101298.05
101298.06
101298.05
101296.78
101296.79
101296.78
101296.77
101296.51
101295.15
101295.41
101295.43
101295.43
101295.42
101293.95
101293.96
101293.95
101293.94
101293.68
101292.09
101292.34
101292.35
101292.36
101292.35
101290.6
101290.61
101290.6
101290.59
101290.36
101288.45
101288.66
101288.67
101288.68
101288.67
101286.54
101286.55
101286.54
101286.54
101286.36
101284.04
101284.18
101284.19
101284.19
101284.18
101281.54
101281.55
101281.55
101281.54
101281.45
101278.55
101278.59
101278.59
101278.59
101278.57
101275.25
101275.27
101275.27
101275.28
101275.3
101271.64
101271.55
101271.54
101271.53
101271.51
101267.27
101267.3
101267.31
101267.33
101267.5
101262.8
101262.55
101262.52
101262.5
101262.46
101256.99
101257.03
101257.06
101257.11
101257.44
101251.31
101250.88
101250.81
101250.77
101250.71
101243.51
101243.58
101243.64
101243.72
101244.26
101236.11
101235.44
101235.33
101235.25
101235.18
101225.46
101225.56
101225.66
101225.8
101226.62
101215.51
101214.5
101214.33
101214.2
101214.09
101200.64
101200.78
101200.95
101201.17
101202.4
101186.7
101185.21
101184.94
101184.72
101184.54
101165.09
101165.31
101165.6
101165.94
101167.72
101145.09
101143.01
101142.57
101142.2
101141.91
101113.36
101113.74
101114.23
101114.79
101116.87
101076.9
101075.36
101074.68
101074.05
101073.58
101030.43
101030.98
101031.85
101032.79
101034.49
101021.31
101017.34
101015.61
101014.17
101013.45
100898.79
100899.96
100900.98
100902.55
100904.57
100557.75
100382.5
100363.8
100348.85
100328.39
100887.13
100895.39
100896.36
100898.71
100902.93
100875.01
100721.57
100701.54
100684.37
100652.03
101260.96
101267.92
101279.17
101286.08
101319.2
101552.85
101555.65
101560.46
101548.71
101379.18
101401.52
101400.7
101406.04
101356.35
101373.31
101419.2
101407.74
101399.97
101373.29
102342.97
102300.64
102264.22
102217.66
101857.19
101767.45
102015.45
102036.74
102052.3
102068.35
101260.48
101267.47
101278.74
101285.67
101319.03
100874.9
100721.38
100701.35
100684.2
100651.85
100887.13
100895.38
100896.35
100898.7
100902.93
100557.8
100382.5
100363.79
100348.85
100328.39
100898.93
100900.1
100901.13
100902.7
100904.73
101021.45
101017.48
101015.75
101014.31
101013.6
101030.56
101031.1
101031.97
101032.92
101034.6
101076.99
101075.46
101074.78
101074.15
101073.68
101113.45
101113.83
101114.32
101114.88
101116.95
101145.16
101143.09
101142.66
101142.29
101142
101165.15
101165.38
101165.66
101166
101167.77
101186.74
101185.26
101184.99
101184.77
101184.6
101200.68
101200.82
101200.99
101201.2
101202.42
101215.52
101214.52
101214.35
101214.21
101214.1
101225.47
101225.56
101225.67
101225.8
101226.61
101236.08
101235.42
101235.32
101235.24
101235.16
101243.48
101243.55
101243.61
101243.69
101244.22
101251.26
101250.84
101250.78
101250.73
101250.68
101256.94
101256.98
101257.01
101257.06
101257.39
101262.74
101262.49
101262.45
101262.43
101262.39
101267.2
101267.23
101267.25
101267.27
101267.44
101271.57
101271.48
101271.47
101271.46
101271.43
101275.18
101275.2
101275.2
101275.21
101275.24
101278.49
101278.52
101278.52
101278.52
101278.5
101281.46
101281.47
101281.47
101281.47
101281.38
101283.97
101284.1
101284.11
101284.11
101284.1
101286.47
101286.48
101286.48
101286.47
101286.3
101288.4
101288.6
101288.61
101288.61
101288.6
101290.54
101290.55
101290.54
101290.53
101290.31
101292.05
101292.29
101292.3
101292.3
101292.29
101293.9
101293.91
101293.91
101293.89
101293.64
101295.12
101295.38
101295.39
101295.39
101295.38
101296.75
101296.76
101296.76
101296.75
101296.49
101297.77
101298.03
101298.04
101298.04
101298.03
101299.25
101299.26
101299.25
101299.24
101298.98
101300.15
101300.42
101300.43
101300.44
101300.44
101298.95
101299.21
101299.22
101299.22
101299.22
101298.03
101298.04
101298.04
101298.03
101297.75
101296.48
101296.75
101296.77
101296.77
101296.76
101295.4
101295.41
101295.4
101295.39
101295.11
101293.65
101293.92
101293.93
101293.94
101293.93
101292.33
101292.34
101292.33
101292.32
101292.06
101290.32
101290.57
101290.58
101290.59
101290.58
101288.65
101288.66
101288.66
101288.65
101288.42
101286.33
101286.52
101286.53
101286.54
101286.53
101284.16
101284.17
101284.17
101284.16
101284
101281.42
101281.53
101281.53
101281.53
101281.52
101278.57
101278.58
101278.58
101278.58
101278.53
101275.29
101275.27
101275.26
101275.26
101275.24
101271.5
101271.52
101271.52
101271.53
101271.63
101267.49
101267.31
101267.29
101267.28
101267.25
101262.44
101262.48
101262.5
101262.53
101262.8
101257.46
101257.09
101257.05
101257.01
101256.97
101250.71
101250.76
101250.8
101250.87
101251.35
101244.32
101243.72
101243.64
101243.57
101243.51
101235.17
101235.25
101235.33
101235.44
101236.2
101226.74
101225.81
101225.67
101225.56
101225.47
101214.08
101214.2
101214.34
101214.52
101215.67
101202.59
101201.17
101200.94
101200.76
101200.61
101184.46
101184.65
101184.88
101185.17
101186.92
101167.97
101165.82
101165.46
101165.15
101164.92
101141.69
101141.98
101142.38
101142.85
101145.4
101117.36
101114.71
101114.11
101113.59
101113.21
101073.99
101074.48
101075.15
101075.89
101078.15
101035.68
101032.12
101031.04
101030.09
101029.52
101010.61
101011.19
101012.71
101014.63
101022.3
100917.04
100916.68
100916.01
100916.26
100915.66
100265.6
100293.47
100315.22
100340.36
100551.16
100898.91
100904.46
100903.81
100903.17
100900.09
100835.83
100859.12
100868.53
100881.13
100955.45
101192.4
101108.63
101093.86
101076.44
101053.76
102059.36
102024.43
101989.05
101948.13
101592.12
101150.15
100927.04
100899.73
100871.71
100840.88
101383.26
101378.27
101373.17
101365.15
101286.69
101204.8
101251.49
101255.77
101259.4
101256.56
100873.05
100897.99
100910.56
100928.5
101071.26
101005.45
100883.72
100870.21
100861.7
100841.58
100958.05
100977.14
100986.14
100996.6
101084.34
101124.49
100945.85
100924.34
100904.75
100877.01
101380.33
101377.05
101373.51
101367.68
101312.5
100896.98
100753.53
100731.18
100709.03
100676.24
100872.6
100880.2
100882.5
100886.22
100904.99
100547.31
100368.93
100350.2
100335.48
100313.52
100902.57
100903.87
100905.13
100906.53
100905.69
101021.83
101018.06
101016.25
101014.73
101014.08
101030.31
101030.87
101031.79
101032.76
101034.2
101077.06
101075.79
101075.1
101074.46
101073.98
101113.85
101114.22
101114.72
101115.28
101117.12
101145.26
101143.37
101142.93
101142.56
101142.27
101165.34
101165.56
101165.84
101166.18
101167.83
101186.77
101185.38
101185.12
101184.9
101184.73
101200.76
101200.9
101201.07
101201.28
101202.44
101215.53
101214.57
101214.41
101214.28
101214.16
101225.51
101225.61
101225.71
101225.84
101226.62
101236.09
101235.45
101235.35
101235.27
101235.19
101243.51
101243.57
101243.63
101243.72
101244.23
101251.27
101250.86
101250.8
101250.75
101250.7
101256.95
101256.99
101257.03
101257.07
101257.39
101262.75
101262.51
101262.48
101262.46
101262.42
101267.21
101267.24
101267.26
101267.28
101267.44
101271.58
101271.49
101271.48
101271.47
101271.44
101275.18
101275.2
101275.21
101275.21
101275.24
101278.49
101278.52
101278.52
101278.52
101278.5
101281.45
101281.47
101281.47
101281.47
101281.38
101283.97
101284.11
101284.11
101284.11
101284.1
101286.47
101286.48
101286.48
101286.47
101286.3
101288.4
101288.61
101288.61
101288.62
101288.61
101290.53
101290.54
101290.54
101290.53
101290.3
101292.04
101292.28
101292.29
101292.3
101292.29
101293.9
101293.91
101293.9
101293.89
101293.64
101295.12
101295.38
101295.39
101295.39
101295.38
101296.76
101296.77
101296.76
101296.75
101296.49
101297.77
101298.03
101298.04
101298.05
101298.04
101299.25
101299.25
101299.25
101299.24
101298.97
101300.11
101300.34
101300.35
101300.36
101300.35
101299.02
101299.27
101299.28
101299.29
101299.28
101298.08
101298.09
101298.09
101298.08
101297.81
101296.52
101296.79
101296.8
101296.81
101296.8
101295.43
101295.44
101295.44
101295.43
101295.16
101293.69
101293.95
101293.96
101293.97
101293.96
101292.35
101292.36
101292.36
101292.35
101292.1
101290.36
101290.59
101290.6
101290.6
101290.59
101288.67
101288.68
101288.68
101288.67
101288.46
101286.36
101286.54
101286.55
101286.55
101286.54
101284.17
101284.18
101284.18
101284.17
101284.03
101281.44
101281.54
101281.54
101281.54
101281.53
101278.58
101278.59
101278.59
101278.59
101278.55
101275.3
101275.28
101275.28
101275.27
101275.25
101271.5
101271.52
101271.53
101271.55
101271.64
101267.5
101267.33
101267.31
101267.3
101267.27
101262.47
101262.5
101262.52
101262.56
101262.8
101257.44
101257.12
101257.07
101257.04
101256.99
101250.74
101250.79
101250.84
101250.9
101251.31
101244.26
101243.74
101243.66
101243.6
101243.54
101235.21
101235.29
101235.37
101235.47
101236.12
101226.64
101225.85
101225.71
101225.61
101225.52
101214.15
101214.27
101214.4
101214.56
101215.53
101202.43
101201.26
101201.06
101200.89
101200.75
101184.7
101184.87
101185.09
101185.35
101186.75
101167.8
101166.15
101165.81
101165.53
101165.3
101142.24
101142.52
101142.89
101143.33
101145.22
101117.08
101115.23
101114.67
101114.17
101113.8
101073.93
101074.4
101075.05
101075.74
101077.01
101034.1
101032.66
101031.68
101030.77
101030.21
101013.98
101014.63
101016.16
101017.97
101021.72
100905.44
100906.36
100904.96
100903.71
100902.42
100313.25
100335.21
100349.93
100368.65
100547.03
100904.86
100886.1
100882.39
100880.1
100872.51
100676.29
100709.04
100731.17
100753.49
100896.87
101019.34
100942.74
100933.17
100923.66
100907
100665.31
100685.29
100697.36
100711.93
100828.91
100602.96
100459.04
100445.87
100436.37
100421.69
100917.04
100917.63
100918.48
100919.98
100926.61
101023.31
101017.47
101015.86
101014.52
101013.98
101032.06
101032.51
101033.3
101034.14
101035.54
101078.49
101077.08
101076.46
101075.9
101075.5
101114.88
101115.18
101115.61
101116.11
101118.42
101146.47
101144.06
101143.67
101143.36
101143.13
101165.97
101166.15
101166.38
101166.69
101168.81
101187.57
101185.79
101185.55
101185.37
101185.23
101201.18
101201.29
101201.43
101201.61
101203.08
101216.03
101214.84
101214.69
101214.59
101214.49
101225.79
101225.86
101225.95
101226.06
101227.02
101236.41
101235.65
101235.56
101235.49
101235.43
101243.72
101243.77
101243.82
101243.89
101244.49
101251.48
101251.01
101250.96
101250.93
101250.88
101257.12
101257.15
101257.18
101257.22
101257.57
101262.89
101262.64
101262.62
101262.6
101262.57
101267.36
101267.38
101267.39
101267.41
101267.57
101271.69
101271.62
101271.61
101271.6
101271.58
101275.32
101275.33
101275.33
101275.34
101275.33
101278.57
101278.64
101278.64
101278.64
101278.63
101281.58
101281.59
101281.59
101281.59
101281.45
101284.03
101284.22
101284.22
101284.23
101284.22
101286.58
101286.59
101286.59
101286.58
101286.35
101288.44
101288.7
101288.71
101288.72
101288.71
101290.64
101290.65
101290.64
101290.63
101290.34
101292.08
101292.38
101292.4
101292.4
101292.39
101293.99
101294
101294
101293.99
101293.67
101295.14
101295.46
101295.47
101295.48
101295.47
101296.83
101296.84
101296.84
101296.83
101296.51
101297.79
101298.11
101298.12
101298.12
101298.11
101299.3
101299.31
101299.31
101299.29
101299
101298.97
101299.26
101299.28
101299.28
101299.27
101298.09
101298.1
101298.1
101298.09
101297.76
101296.49
101296.81
101296.82
101296.83
101296.82
101295.46
101295.47
101295.46
101295.45
101295.13
101293.66
101293.98
101293.99
101293.99
101293.99
101292.39
101292.39
101292.39
101292.38
101292.07
101290.34
101290.63
101290.64
101290.64
101290.64
101288.71
101288.72
101288.71
101288.7
101288.44
101286.35
101286.58
101286.59
101286.59
101286.58
101284.22
101284.23
101284.22
101284.22
101284.03
101281.45
101281.59
101281.59
101281.59
101281.58
101278.63
101278.64
101278.64
101278.64
101278.57
101275.34
101275.34
101275.33
101275.33
101275.31
101271.58
101271.6
101271.6
101271.61
101271.7
101267.58
101267.4
101267.39
101267.38
101267.35
101262.56
101262.59
101262.6
101262.63
101262.91
101257.58
101257.2
101257.16
101257.13
101257.1
101250.85
101250.89
101250.93
101250.99
101251.49
101244.5
101243.85
101243.78
101243.73
101243.67
101235.37
101235.44
101235.51
101235.6
101236.42
101227.02
101226.01
101225.88
101225.8
101225.72
101214.41
101214.51
101214.62
101214.77
101216.02
101203.06
101201.53
101201.34
101201.19
101201.07
101185.1
101185.25
101185.44
101185.68
101187.53
101168.77
101166.57
101166.25
101166.01
101165.82
101142.97
101143.21
101143.54
101143.94
101146.45
101118.38
101115.93
101115.41
101114.97
101114.65
101075.32
101075.74
101076.31
101076.94
101078.71
101036.45
101034.3
101033.42
101032.64
101032.1
101011.47
101012.21
101013.57
101015.25
101022.97
100926.75
100919.44
100918.24
100917.6
100917.12
100489.08
100497.5
100501.42
100509.33
100610.97
100784.34
100560.82
100533.49
100507.37
100473.29
101006.76
101012.09
101012.51
101012.74
101024.87
101117.46
100925.97
100905.07
100888.69
100861.67
101466.38
101493.32
101515.13
101533.79
101541.4
101178.27
101136.82