/*--------------------------------*- C++ -*----------------------------------*\
  =========                 |
  \\      /  F ield         | OpenFOAM: The Open Source CFD Toolbox
   \\    /   O peration     | Website:  https://openfoam.org
    \\  /    A nd           | Version:  7
     \\/     M anipulation  |
\*---------------------------------------------------------------------------*/
FoamFile
{
    version     2.0;
    format      ascii;
    class       volScalarField;
    location    "280";
    object      rho;
}
// * * * * * * * * * * * * * * * * * * * * * * * * * * * * * * * * * * * * * //

dimensions      [1 -3 0 0 0 0 0];

internalField   nonuniform List<scalar> 
24789
(
1.1737954
1.1738036
1.173808
1.1738101
1.1738172
1.1737961
1.1737877
1.1737853
1.1737804
1.1737714
1.1737452
1.1737551
1.1737606
1.1737634
1.1737737
1.1737494
1.1737369
1.1737337
1.1737275
1.1737166
1.1736856
1.1736976
1.1737044
1.1737082
1.1737232
1.1736947
1.1736768
1.1736724
1.1736648
1.1736516
1.1736146
1.1736291
1.1736375
1.1736426
1.1736639
1.1736304
1.1736051
1.1735993
1.1735898
1.1735739
1.1735293
1.1735469
1.1735575
1.1735641
1.173594
1.1735543
1.1735191
1.1735114
1.1734994
1.17348
1.1734256
1.1734472
1.1734606
1.1734695
1.1735111
1.173464
1.1734146
1.1734043
1.1733891
1.1733649
1.1732974
1.1733245
1.1733418
1.1733539
1.1734124
1.1733559
1.1732863
1.1732722
1.1732523
1.1732217
1.1731368
1.1731716
1.1731944
1.173211
1.1732939
1.1732258
1.1731268
1.1731071
1.1730807
1.173041
1.1729331
1.1729786
1.1730093
1.1730325
1.1731509
1.1730683
1.1729266
1.1728989
1.1728631
1.1728107
1.1726724
1.172733
1.1727748
1.1728077
1.1729772
1.1728763
1.1726738
1.1726347
1.1725856
1.1725153
1.1723373
1.1724188
1.1724763
1.1725228
1.1727642
1.1726392
1.1723522
1.1722971
1.1722297
1.1721351
1.171906
1.1720155
1.1720943
1.1721593
1.1724991
1.1723412
1.1719411
1.1718646
1.1717729
1.1716465
1.1713534
1.1714983
1.1716044
1.1716937
1.1721612
1.1719537
1.1714128
1.1713095
1.171188
1.1710233
1.1706611
1.1708455
1.1709831
1.171101
1.1717179
1.1714424
1.1707553
1.1706232
1.1704703
1.1702674
1.1698103
1.170024
1.1701881
1.1703319
1.1710736
1.1707013
1.1699062
1.1697544
1.1695899
1.169392
1.1694067
1.1695398
1.1696914
1.1698488
1.170695
1.169857
1.169183
1.1690529
1.1689394
1.1688784
1.163449
1.1637666
1.1640071
1.1642669
1.1664177
1.1706619
1.1702008
1.170062
1.169919
1.1697076
1.1716009
1.1718255
1.1719386
1.172061
1.1725962
1.1745109
1.1740898
1.1739776
1.1738482
1.1736337
1.177734
1.1781009
1.1783553
1.1785545
1.17864
1.1738199
1.171612
1.1713694
1.171159
1.1707668
1.1721819
1.1723389
1.1723873
1.1724131
1.1726848
1.1696593
1.1672181
1.1668714
1.1665262
1.1660661
1.1650288
1.1652174
1.165356
1.1655216
1.1670689
1.1699422
1.1690933
1.1689609
1.16884
1.1687554
1.1692748
1.1694178
1.1695699
1.1697241
1.1706888
1.1707171
1.1698129
1.1696634
1.1695024
1.1693113
1.1697235
1.1699308
1.1700925
1.1702356
1.1710946
1.1714639
1.1706582
1.1705257
1.1703747
1.1701817
1.170566
1.1707459
1.1708836
1.1710033
1.1717365
1.1719685
1.1713153
1.1712087
1.1710845
1.1709192
1.1712459
1.1713943
1.1715047
1.1715984
1.1721723
1.1723499
1.1718504
1.1717686
1.1716714
1.1715396
1.1718027
1.171919
1.172004
1.1720747
1.1725059
1.1726449
1.1722748
1.172214
1.17214
1.1720378
1.1722476
1.172337
1.172401
1.1724531
1.172769
1.1728805
1.172612
1.1725676
1.1725122
1.1724341
1.1725999
1.172668
1.1727157
1.1727535
1.1729808
1.1730716
1.1728797
1.1728475
1.1728064
1.172747
1.1728776
1.1729294
1.1729648
1.172992
1.1731537
1.1732284
1.1730922
1.1730691
1.1730384
1.1729932
1.1730959
1.1731355
1.173162
1.1731815
1.1732961
1.1733579
1.1732614
1.1732447
1.1732217
1.1731869
1.1732678
1.1732984
1.1733185
1.1733327
1.1734141
1.1734655
1.1733967
1.1733844
1.1733669
1.1733397
1.1734039
1.1734281
1.1734436
1.173454
1.1735124
1.1735554
1.1735058
1.1734967
1.1734831
1.1734614
1.1735131
1.1735326
1.1735448
1.1735526
1.1735949
1.1736311
1.1735951
1.1735882
1.1735774
1.1735598
1.1736021
1.1736181
1.1736277
1.1736337
1.1736645
1.1736952
1.1736689
1.1736637
1.1736551
1.1736406
1.1736756
1.1736888
1.1736966
1.1737011
1.1737235
1.1737496
1.1737307
1.1737267
1.1737197
1.1737077
1.1737369
1.1737479
1.1737542
1.1737576
1.1737737
1.1737961
1.1737827
1.1737797
1.173774
1.1737641
1.1737888
1.1737977
1.1738027
1.1738053
1.1738169
1.1737991
1.173786
1.1737831
1.1737777
1.1737681
1.1737417
1.1737523
1.1737583
1.1737616
1.1737764
1.1737523
1.1737346
1.1737308
1.1737241
1.1737125
1.1736809
1.1736937
1.1737012
1.1737055
1.1737264
1.1736983
1.1736736
1.1736686
1.1736602
1.1736462
1.1736083
1.1736238
1.1736331
1.1736388
1.1736678
1.1736347
1.1736006
1.173594
1.1735836
1.1735665
1.1735205
1.1735395
1.1735512
1.1735587
1.1735988
1.1735597
1.1735125
1.1735038
1.1734906
1.1734695
1.1734129
1.1734364
1.1734514
1.1734614
1.1735171
1.1734707
1.1734047
1.173393
1.173376
1.1733495
1.1732787
1.1733086
1.173328
1.1733417
1.1734198
1.1733642
1.1732713
1.1732552
1.1732329
1.173199
1.1731095
1.173148
1.1731737
1.1731927
1.1733031
1.1732361
1.1731046
1.1730822
1.1730524
1.1730084
1.1728946
1.172945
1.1729795
1.1730059
1.1731623
1.173081
1.1728951
1.172864
1.1728239
1.1727661
1.1726214
1.1726878
1.1727342
1.1727708
1.1729912
1.1728919
1.1726314
1.1725882
1.1725344
1.1724584
1.172275
1.1723621
1.1724243
1.1724748
1.1727814
1.1726585
1.1722991
1.1722401
1.1721682
1.1720688
1.1718375
1.1719506
1.1720332
1.1721017
1.1725206
1.1723659
1.1718804
1.1718012
1.1717068
1.1715786
1.1712897
1.171434
1.1715411
1.171632
1.1721897
1.1719876
1.1713525
1.1712493
1.1711289
1.1709684
1.1706204
1.1707945
1.1709277
1.1710435
1.1717562
1.1714877
1.1707043
1.1705763
1.1704307
1.1702445
1.1698045
1.170002
1.1701571
1.1702948
1.1711275
1.1707182
1.1698512
1.169709
1.1695566
1.1693764
1.169306
1.1694319
1.1695707
1.1697162
1.1706483
1.1702249
1.1693892
1.1692581
1.1691437
1.1690906
1.1659371
1.1660941
1.1661938
1.166314
1.1673261
1.1677423
1.1634898
1.1629917
1.1625198
1.1618696
1.1793141
1.1792453
1.1791324
1.1789461
1.1767454
1.172997
1.1709179
1.170649
1.1704208
1.1700089
1.1772925
1.1777137
1.1779763
1.1781824
1.1779753
1.1744514
1.1743616
1.1743028
1.1742099
1.1739882
1.1780467
1.1780618
1.1779858
1.1778309
1.176377
1.1676342
1.1642492
1.1637594
1.1632727
1.1626385
1.1653694
1.1655428
1.1656415
1.1657669
1.1668511
1.169974
1.1692393
1.1691077
1.1689948
1.1689367
1.1692564
1.169399
1.1695487
1.1697007
1.1705359
1.1706514
1.1698697
1.169721
1.1695566
1.1693524
1.1698296
1.1700441
1.1702065
1.1703469
1.1710788
1.1714461
1.170775
1.1706477
1.170499
1.1702997
1.170701
1.1708798
1.1710118
1.1711241
1.1717207
1.1719581
1.1714379
1.1713403
1.1712247
1.171067
1.1713955
1.171533
1.1716331
1.1717171
1.1721651
1.1723453
1.1719621
1.1718903
1.1718041
1.1716848
1.1719395
1.1720427
1.1721166
1.1721776
1.1725033
1.172644
1.1723682
1.1723165
1.1722531
1.1721639
1.1723616
1.1724386
1.1724929
1.1725366
1.1727693
1.1728816
1.1726857
1.1726487
1.1726023
1.1725356
1.1726893
1.172747
1.1727868
1.172818
1.1729825
1.1730737
1.1729356
1.1729093
1.1728751
1.1728248
1.172945
1.1729888
1.1730182
1.1730404
1.173156
1.1732308
1.1731338
1.173115
1.1730896
1.1730513
1.1731456
1.1731793
1.1732013
1.1732172
1.1732985
1.1733603
1.173292
1.1732784
1.1732592
1.1732295
1.1733042
1.1733307
1.1733474
1.173359
1.1734165
1.1734678
1.1734194
1.1734094
1.1733946
1.173371
1.173431
1.1734521
1.1734652
1.1734737
1.1735146
1.1735576
1.173523
1.1735156
1.173504
1.173485
1.1735337
1.173551
1.1735613
1.1735677
1.173597
1.1736332
1.1736084
1.1736029
1.1735936
1.1735779
1.1736182
1.1736325
1.1736408
1.1736456
1.1736665
1.1736971
1.1736795
1.1736754
1.1736679
1.1736549
1.1736886
1.1737004
1.1737071
1.1737107
1.1737253
1.1737514
1.1737392
1.173736
1.17373
1.1737193
1.1737477
1.1737575
1.1737628
1.1737655
1.1737755
1.1737984
1.1737896
1.1737872
1.1737824
1.1737735
1.173775
1.1737838
1.1737885
1.1737908
1.1737989
1.1737762
1.1737668
1.1737641
1.1737588
1.1737491
1.1737207
1.1737314
1.1737373
1.1737404
1.173752
1.173726
1.173712
1.1737083
1.1737017
1.1736899
1.1736565
1.1736694
1.1736768
1.1736809
1.1736978
1.1736672
1.1736471
1.1736422
1.173634
1.1736198
1.1735797
1.1735953
1.1736045
1.1736101
1.173634
1.1735979
1.1735694
1.173563
1.1735527
1.1735354
1.1734869
1.173506
1.1735176
1.173525
1.1735586
1.1735157
1.1734758
1.1734672
1.1734541
1.1734329
1.173373
1.1733967
1.1734115
1.1734215
1.1734689
1.1734178
1.1733614
1.1733497
1.1733327
1.1733061
1.1732313
1.1732614
1.1732807
1.1732945
1.1733617
1.1733001
1.1732199
1.1732036
1.1731813
1.1731471
1.1730526
1.1730916
1.1731174
1.1731366
1.1732326
1.1731582
1.1730431
1.1730204
1.1729903
1.1729455
1.1728248
1.1728764
1.1729115
1.1729385
1.1730763
1.1729857
1.1728207
1.1727885
1.1727475
1.1726878
1.1725327
1.1726018
1.17265
1.1726882
1.1728855
1.172774
1.1725387
1.1724932
1.1724368
1.1723565
1.1721567
1.1722498
1.1723159
1.1723698
1.1726497
1.1725102
1.1721787
1.172115
1.1720377
1.1719299
1.1716734
1.1717977
1.1718877
1.1719626
1.1723528
1.1721733
1.1717172
1.1716298
1.1715258
1.1713833
1.171057
1.1712186
1.1713376
1.1714386
1.1719661
1.1717298
1.1711286
1.1710136
1.1708792
1.1706984
1.1703103
1.1705085
1.1706575
1.170786
1.1714545
1.1710871
1.1703681
1.1702288
1.1700694
1.1698609
1.1694336
1.1696263
1.1697854
1.1699315
1.1706985
1.1706625
1.1698406
1.1696915
1.1695471
1.1694202
1.169065
1.1691178
1.1692116
1.169323
1.1699199
1.1665494
1.1647709
1.1645587
1.1643761
1.1641193
1.1670505
1.1674351
1.1676946
1.1679599
1.1697454
1.1748375
1.175753
1.1757674
1.175742
1.1756413
1.1717429
1.1720033
1.172134
1.1722652
1.1733398
1.1789279
1.1789333
1.178741
1.1784879
1.1780764
1.181967
1.1838915
1.184192
1.184419
1.1845297
1.1843727
1.1843811
1.184386
1.1842386
1.1812338
1.1792494
1.1793664
1.1792542
1.1791351
1.1789115
1.1771807
1.1773608
1.1774843
1.1775685
1.1773645
1.1754309
1.1758754
1.1758926
1.1758548
1.1757494
1.174044
1.1742785
1.174423
1.1744999
1.1746439
1.168146
1.1660084
1.1656814
1.1653739
1.1648785
1.1653848
1.165536
1.165642
1.1657852
1.1669671
1.1699576
1.169284
1.1691612
1.1690558
1.1690081
1.1693683
1.1694945
1.1696335
1.1697772
1.1705546
1.1706574
1.1699199
1.169779
1.1696256
1.1694404
1.1698947
1.1700929
1.1702455
1.1703791
1.1710753
1.171442
1.1707982
1.1706764
1.1705353
1.1703482
1.1707369
1.1709061
1.1710322
1.1711403
1.1717164
1.1719533
1.1714483
1.1713538
1.1712428
1.1710925
1.1714131
1.1715451
1.1716419
1.1717235
1.1721605
1.1723409
1.1719656
1.1718956
1.1718118
1.1716965
1.1719471
1.1720473
1.1721195
1.1721793
1.1724994
1.1726403
1.1723682
1.1723174
1.1722553
1.1721682
1.1723635
1.1724391
1.1724925
1.1725356
1.1727657
1.1728784
1.1726841
1.1726476
1.1726017
1.172536
1.1726886
1.1727457
1.1727851
1.172816
1.1729796
1.1730711
1.1729335
1.1729073
1.1728733
1.1728235
1.1729431
1.1729866
1.1730159
1.173038
1.1731537
1.1732286
1.1731315
1.1731126
1.1730873
1.1730491
1.1731434
1.173177
1.173199
1.173215
1.1732967
1.1733586
1.1732898
1.1732762
1.173257
1.1732272
1.173302
1.1733285
1.1733453
1.173357
1.1734149
1.1734664
1.1734175
1.1734074
1.1733926
1.1733689
1.1734291
1.1734503
1.1734634
1.1734721
1.1735135
1.1735565
1.1735214
1.1735139
1.1735022
1.173483
1.173532
1.1735494
1.1735598
1.1735662
1.173596
1.1736322
1.1736071
1.1736014
1.1735921
1.1735763
1.1736167
1.1736311
1.1736394
1.1736443
1.1736656
1.1736963
1.1736784
1.1736741
1.1736666
1.1736536
1.1736873
1.1736993
1.173706
1.1737097
1.1737246
1.1737508
1.1737383
1.1737351
1.1737291
1.1737182
1.1737469
1.1737567
1.1737621
1.1737648
1.1737751
1.173798
1.173789
1.1737867
1.1737819
1.1737729
1.1737651
1.1737749
1.1737804
1.1737834
1.1737971
1.1737745
1.1737589
1.1737555
1.1737493
1.1737385
1.1737091
1.173721
1.1737279
1.1737318
1.1737504
1.1737243
1.1737023
1.1736978
1.1736901
1.173677
1.1736421
1.1736565
1.173665
1.1736702
1.173696
1.1736654
1.173635
1.1736291
1.1736195
1.1736036
1.1735614
1.1735789
1.1735896
1.1735964
1.1736321
1.1735959
1.173554
1.1735461
1.1735341
1.1735147
1.1734631
1.1734847
1.1734982
1.1735073
1.1735565
1.1735136
1.1734555
1.173445
1.1734296
1.1734055
1.1733414
1.1733685
1.173386
1.1733981
1.1734667
1.1734154
1.1733342
1.17332
1.1733
1.1732694
1.1731886
1.1732233
1.1732463
1.173263
1.1733593
1.1732977
1.1731832
1.1731636
1.1731371
1.1730975
1.172995
1.1730402
1.1730708
1.1730939
1.17323
1.1731557
1.1729938
1.1729665
1.1729309
1.1728791
1.1727486
1.172808
1.1728492
1.1728814
1.1730736
1.1729831
1.1727552
1.1727173
1.1726694
1.1726012
1.1724354
1.1725136
1.172569
1.1726136
1.1728827
1.1727715
1.1724547
1.1724024
1.1723382
1.1722486
1.1720389
1.1721412
1.1722153
1.1722763
1.1726474
1.1725088
1.1720762
1.1720053
1.1719201
1.1718037
1.171541
1.1716728
1.1717701
1.1718521
1.1723529
1.172176
1.1716006
1.1715066
1.1713961
1.1712479
1.170923
1.1710876
1.1712116
1.1713183
1.1719725
1.1717414
1.1710078
1.1708882
1.170751
1.1705728
1.1701945
1.1703848
1.1705346
1.1706667
1.1714701
1.171106
1.1702545
1.1701125
1.1699533
1.1697523
1.1693412
1.1695236
1.1696805
1.1698276
1.1707117
1.1706646
1.1697273
1.1695759
1.1694307
1.1693006
1.1689624
1.1690271
1.16914
1.1692728
1.1700637
1.1672436
1.1658007
1.1656388
1.1654933
1.1653021
1.1655026
1.1659628
1.166272
1.1666023
1.1691475
1.1733805
1.1735304
1.1734863
1.1734157
1.1731895
1.1702972
1.1707572
1.1711105
1.171436
1.1740884
1.1790809
1.182752
1.183155
1.1834776
1.1837546
1.1733434
1.173573
1.1737387
1.173871
1.1746242
1.1719067
1.1709256
1.1707515
1.1706022
1.1702785
1.1710846
1.1711848
1.17123
1.171263
1.1710888
1.1664684
1.1639314
1.1636088
1.1633122
1.1629502
1.168952
1.1690112
1.1691191
1.1692396
1.1698531
1.1706795
1.1698432
1.1696866
1.1695361
1.1694049
1.1693852
1.169582
1.1697464
1.1698984
1.1706947
1.1710747
1.1703294
1.1701849
1.1700201
1.1698062
1.1702595
1.1704637
1.1706178
1.170751
1.1714435
1.171719
1.1710967
1.1709776
1.1708386
1.1706523
1.1710158
1.1711822
1.1713051
1.1714094
1.1719552
1.1721626
1.1716911
1.1716009
1.1714937
1.171347
1.1716417
1.1717695
1.1718621
1.1719393
1.1723424
1.1725001
1.1721581
1.1720925
1.1720131
1.1719024
1.1721328
1.1722282
1.1722961
1.1723515
1.1726401
1.1727651
1.1725225
1.1724758
1.1724179
1.1723358
1.1725146
1.1725853
1.1726346
1.1726738
1.1728771
1.172978
1.172808
1.172775
1.172733
1.172672
1.1728109
1.1728636
1.1728995
1.1729271
1.1730691
1.1731516
1.173033
1.1730097
1.172979
1.1729332
1.1730415
1.1730813
1.1731077
1.1731273
1.1732264
1.1732944
1.1732116
1.173195
1.1731721
1.1731372
1.1732223
1.173253
1.1732728
1.1732869
1.1733564
1.1734128
1.1733545
1.1733424
1.1733251
1.1732979
1.1733655
1.1733897
1.1734049
1.1734152
1.1734644
1.1735115
1.17347
1.1734611
1.1734477
1.173426
1.1734805
1.1735
1.1735119
1.1735196
1.1735547
1.1735943
1.1735646
1.173558
1.1735473
1.1735297
1.1735744
1.1735904
1.1735999
1.1736056
1.1736307
1.1736642
1.1736431
1.1736381
1.1736296
1.1736151
1.1736521
1.1736654
1.1736729
1.1736773
1.1736951
1.1737235
1.1737087
1.1737049
1.1736981
1.1736861
1.1737171
1.1737281
1.1737342
1.1737374
1.1737497
1.173774
1.173764
1.1737612
1.1737557
1.1737458
1.1737715
1.1737805
1.1737854
1.1737878
1.1737964
1.1737988
1.1737909
1.1737886
1.173784
1.1737752
1.1737496
1.1737592
1.1737645
1.1737671
1.1737762
1.1737521
1.1737408
1.1737377
1.1737319
1.1737213
1.1736907
1.1737023
1.1737089
1.1737124
1.1737261
1.1736979
1.1736814
1.1736773
1.17367
1.1736573
1.1736209
1.1736349
1.173643
1.1736477
1.1736673
1.1736341
1.1736108
1.1736054
1.1735963
1.1735809
1.1735372
1.1735541
1.1735642
1.1735705
1.1735981
1.1735588
1.1735261
1.1735189
1.1735075
1.1734888
1.1734355
1.1734562
1.173469
1.1734774
1.1735161
1.1734694
1.1734236
1.1734139
1.1733994
1.1733763
1.1733103
1.1733362
1.1733526
1.1733639
1.1734183
1.1733624
1.1732977
1.1732844
1.1732657
1.1732365
1.1731539
1.1731869
1.1732084
1.1732239
1.1733011
1.1732337
1.1731416
1.1731232
1.1730984
1.1730609
1.1729565
1.1729993
1.173028
1.1730496
1.1731597
1.173078
1.1729465
1.1729208
1.1728874
1.1728383
1.172705
1.1727615
1.1728004
1.1728308
1.1729879
1.1728881
1.1727008
1.1726647
1.1726193
1.172554
1.172383
1.1724584
1.1725115
1.1725543
1.1727771
1.1726533
1.1723889
1.1723382
1.1722762
1.172189
1.171969
1.1720697
1.1721421
1.1722018
1.1725145
1.172358
1.1719901
1.1719199
1.1718358
1.1717199
1.1714379
1.1715706
1.1716678
1.1717496
1.1721795
1.1719735
1.171476
1.1713813
1.17127
1.1711195
1.1707675
1.1709361
1.1710619
1.17117
1.1717381
1.1714645
1.1708303
1.170709
1.170569
1.1703834
1.169935
1.1701323
1.1702832
1.1704154
1.1711006
1.1706995
1.1699678
1.1698282
1.1696759
1.1694887
1.1694287
1.1695593
1.1697011
1.1698473
1.170649
1.1700572
1.1694468
1.1693312
1.1692322
1.1691808
1.1647248
1.1649526
1.1651065
1.1652801
1.166716
1.1685003
1.1657903
1.1654034
1.1650533
1.16455
1.1784915
1.1784464
1.1783708
1.1782332
1.176523
1.1722952
1.1706128
1.1704099
1.1702583
1.1699866
1.1747362
1.1734333
1.1744998
1.1738749
1.1719946
1.1717695
1.1715487
1.1711918
1.176192
1.1763154
1.1763446
1.1763166
1.1759298
1.1806953
1.1808202
1.1808595
1.1807977
1.1804187
1.1773895
1.1781206
1.1780738
1.1779914
1.1777347
1.172858
1.1732211
1.1734256
1.1736634
1.1748209
1.1774081
1.1774832
1.1774153
1.1772647
1.1770137
1.1777813
1.1810083
1.176998
1.1780198
1.1738394
1.1738609
1.1738055
1.1738392
1.1738137
1.1738038
1.1738144
1.1738113
1.1737726
1.1737816
1.1737864
1.1737889
1.173798
1.1737752
1.1737648
1.173762
1.1737566
1.1737467
1.1737184
1.1737292
1.1737352
1.1737384
1.173751
1.173725
1.1737099
1.1737061
1.1736994
1.1736875
1.1736539
1.1736669
1.1736744
1.1736787
1.1736967
1.1736661
1.1736446
1.1736397
1.1736313
1.173617
1.1735767
1.1735924
1.1736017
1.1736074
1.1736327
1.1735964
1.1735664
1.1735599
1.1735495
1.1735322
1.1734835
1.1735026
1.1735142
1.1735217
1.1735569
1.1735138
1.1734723
1.1734637
1.1734506
1.1734294
1.1733695
1.173393
1.1734078
1.1734178
1.1734667
1.1734152
1.1733574
1.1733457
1.1733289
1.1733026
1.1732281
1.1732577
1.1732768
1.1732904
1.1733588
1.1732969
1.1732157
1.1731998
1.1731779
1.1731445
1.1730507
1.1730885
1.1731137
1.1731323
1.1732288
1.1731539
1.1730391
1.1730171
1.1729881
1.172945
1.1728262
1.1728754
1.172909
1.1729349
1.1730711
1.1729797
1.1728179
1.1727873
1.1727484
1.172692
1.1725409
1.1726055
1.1726507
1.1726867
1.1728784
1.1727658
1.1725392
1.1724968
1.1724443
1.1723701
1.1721772
1.1722624
1.1723232
1.1723731
1.1726401
1.1724993
1.1721858
1.1721273
1.1720568
1.171959
1.1717127
1.1718247
1.1719062
1.1719745
1.1723406
1.1721604
1.1717352
1.1716559
1.171562
1.1714342
1.1711202
1.171265
1.1713722
1.1714635
1.1719527
1.1717168
1.1711606
1.1710564
1.1709352
1.1707729
1.1703925
1.1705711
1.1707059
1.1708226
1.1714397
1.1710651
1.1704008
1.1702738
1.1701291
1.1699417
1.1695288
1.1696982
1.1698418
1.1699753
1.1706789
1.170648
1.1699239
1.1697873
1.1696572
1.1695513
1.1688636
1.1689086
1.1690027
1.1691137
1.1696862
1.166493
1.1643475
1.164107
1.1639029
1.1636437
1.1708167
1.1709737
1.1710266
1.1710834
1.1710458
1.1709906
1.1691456
1.1688902
1.1686475
1.1681858
1.1750898
1.1753396
1.1755079
1.175592
1.1760449
1.1779905
1.1779547
1.1779439
1.1778575
1.175218
1.1755078
1.1756678
1.1758737
1.1762494
1.176437
1.176697
1.1765096
1.1763548
1.1760138
1.1861947
1.1859026
1.1856439
1.1852533
1.1818196
1.1807366
1.182663
1.1827731
1.1828186
1.182849
1.1750705
1.1753213
1.175492
1.1755785
1.1760419
1.1709863
1.1691412
1.1688863
1.168644
1.1681813
1.1708152
1.1709725
1.1710248
1.1710809
1.1710408
1.166485
1.164343
1.1641031
1.1639001
1.1636416
1.1688618
1.1689058
1.1689994
1.1691096
1.1696788
1.1706406
1.1699207
1.1697847
1.1696552
1.1695503
1.169526
1.1696947
1.1698377
1.1699708
1.1706718
1.1710583
1.170396
1.1702693
1.170125
1.1699382
1.1703883
1.1705665
1.170701
1.1708175
1.1714333
1.1717107
1.1711553
1.1710513
1.1709302
1.1707683
1.171115
1.1712596
1.1713667
1.171458
1.1719471
1.1721551
1.1717296
1.1716503
1.1715565
1.1714287
1.1717069
1.171819
1.1719006
1.1719689
1.1723356
1.1724946
1.1721803
1.1721217
1.172051
1.1719531
1.1721712
1.1722566
1.1723177
1.1723677
1.1726356
1.1727616
1.1725339
1.1724913
1.1724386
1.1723641
1.172535
1.1725999
1.1726453
1.1726815
1.1728743
1.1729759
1.172813
1.1727822
1.172743
1.1726863
1.1728207
1.1728702
1.172904
1.1729301
1.1730676
1.1731505
1.1730346
1.1730124
1.1729831
1.1729396
1.1730456
1.1730838
1.1731092
1.173128
1.1732257
1.173294
1.1732117
1.1731956
1.1731735
1.1731397
1.1732237
1.1732536
1.1732729
1.1732867
1.1733561
1.1734127
1.173354
1.1733422
1.1733252
1.1732986
1.1733657
1.1733895
1.1734045
1.1734146
1.1734643
1.1735115
1.1734693
1.1734605
1.1734472
1.1734258
1.1734801
1.1734994
1.1735112
1.1735188
1.1735547
1.1735943
1.1735638
1.1735572
1.1735466
1.173529
1.1735737
1.1735896
1.1735991
1.1736048
1.1736307
1.1736641
1.1736422
1.1736372
1.1736287
1.1736142
1.1736512
1.1736644
1.173672
1.1736763
1.1736949
1.1737232
1.1737076
1.1737038
1.173697
1.1736849
1.1737159
1.1737269
1.1737331
1.1737364
1.1737494
1.1737735
1.1737627
1.1737598
1.1737543
1.1737443
1.1737707
1.1737798
1.1737848
1.1737872
1.173796
1.1738169
1.1738094
1.1738073
1.173803
1.1737948
1.1737975
1.1737892
1.1737868
1.173782
1.1737731
1.1737476
1.1737574
1.1737627
1.1737654
1.1737751
1.1737511
1.1737391
1.1737359
1.1737299
1.1737191
1.1736884
1.1737003
1.173707
1.1737106
1.173725
1.1736968
1.1736795
1.1736752
1.1736677
1.1736547
1.173618
1.1736323
1.1736407
1.1736455
1.1736662
1.1736329
1.1736083
1.1736027
1.1735933
1.1735776
1.1735334
1.1735507
1.1735611
1.1735677
1.1735967
1.1735573
1.1735229
1.1735153
1.1735036
1.1734844
1.1734303
1.1734516
1.1734649
1.1734736
1.1735143
1.1734674
1.1734191
1.1734089
1.1733939
1.17337
1.173303
1.1733298
1.1733469
1.1733587
1.1734161
1.1733599
1.1732915
1.1732776
1.173258
1.1732277
1.1731433
1.1731777
1.1732002
1.1732166
1.1732983
1.1732306
1.1731328
1.1731133
1.1730872
1.1730478
1.1729401
1.1729854
1.1730158
1.1730389
1.173156
1.1730739
1.1729333
1.1729058
1.1728702
1.172818
1.1726797
1.1727402
1.1727819
1.1728146
1.172983
1.1728826
1.1726808
1.1726418
1.1725929
1.1725226
1.1723441
1.1724258
1.1724834
1.1725298
1.1727708
1.1726465
1.1723591
1.1723039
1.1722363
1.1721413
1.1719112
1.1720215
1.1721006
1.172166
1.1725068
1.1723496
1.1719472
1.1718702
1.1717778
1.1716503
1.1713558
1.1715022
1.1716092
1.1716993
1.1721701
1.1719634
1.1714176
1.1713133
1.1711905
1.1710241
1.1706608
1.1708471
1.170986
1.171105
1.1717275
1.1714526
1.1707591
1.1706259
1.1704718
1.1702676
1.1698148
1.1700287
1.1701934
1.1703379
1.1710838
1.1707048
1.169907
1.169755
1.1695908
1.1693942
1.1694151
1.169546
1.1696964
1.1698529
1.1706891
1.1698633
1.1692496
1.1691295
1.1690221
1.1689629
1.1629697
1.1633302
1.1636255
1.1639471
1.1664788
1.1711
1.1712785
1.1712467
1.1712039
1.1711086
1.1703035
1.1706236
1.17077
1.1709421
1.1719154
1.1746312
1.1738902
1.1737597
1.1735967
1.1733773
1.1837994
1.1835132
1.1831852
1.1827777
1.1790886
1.1740949
1.1714726
1.1711522
1.1708051
1.1703551
1.1757922
1.1758862
1.1759169
1.1758944
1.1754411
1.1744725
1.1743965
1.1743428
1.1742553
1.1740408
1.1700292
1.1704382
1.1706657
1.1709346
1.1730162
1.1722902
1.1705904
1.1703861
1.1702346
1.1699648
1.171671
1.1719431
1.1720816
1.17222
1.1733301
1.1738629
1.1719402
1.1717076
1.1714788
1.1711128
1.1761196
1.1762543
1.1762929
1.1762729
1.175921
1.1712046
1.1694186
1.1691217
1.1688001
1.1682865
1.1705566
1.1707393
1.1708213
1.1709021
1.1710609
1.1663797
1.1641886
1.1639421
1.1637295
1.1634306
1.1688445
1.1689037
1.1690087
1.1691235
1.1696921
1.170646
1.1699088
1.1697679
1.1696329
1.1695203
1.1695009
1.1696747
1.1698213
1.1699573
1.1706679
1.1710589
1.1703912
1.1702628
1.1701163
1.1699265
1.1703826
1.1705625
1.1706983
1.1708158
1.1714347
1.1717117
1.1711546
1.1710499
1.1709281
1.1707652
1.1711136
1.1712588
1.1713663
1.1714579
1.1719478
1.1721559
1.17173
1.1716505
1.1715564
1.1714283
1.1717071
1.1718194
1.1719011
1.1719695
1.1723365
1.1724957
1.1721811
1.1721224
1.1720516
1.1719536
1.1721719
1.1722574
1.1723185
1.1723686
1.1726368
1.1727629
1.1725349
1.1724922
1.1724395
1.1723649
1.1725359
1.1726009
1.1726464
1.1726826
1.1728757
1.1729773
1.1728141
1.1727833
1.172744
1.1726873
1.1728216
1.1728712
1.1729051
1.1729312
1.1730689
1.1731519
1.1730359
1.1730136
1.1729843
1.1729408
1.1730466
1.1730849
1.1731103
1.1731292
1.1732269
1.1732951
1.1732127
1.1731966
1.1731745
1.1731407
1.1732246
1.1732546
1.1732739
1.1732876
1.1733571
1.1734136
1.1733549
1.1733431
1.1733261
1.1732994
1.1733664
1.1733903
1.1734053
1.1734154
1.1734651
1.1735123
1.1734701
1.1734614
1.1734481
1.1734267
1.1734809
1.1735002
1.173512
1.1735196
1.1735554
1.173595
1.1735646
1.173558
1.1735475
1.17353
1.1735744
1.1735903
1.1735997
1.1736054
1.1736313
1.1736647
1.1736428
1.1736378
1.1736293
1.1736149
1.1736518
1.173665
1.1736726
1.1736769
1.1736954
1.1737237
1.1737082
1.1737044
1.1736976
1.1736856
1.1737167
1.1737276
1.1737337
1.173737
1.1737499
1.173774
1.1737633
1.1737605
1.173755
1.173745
1.1737714
1.1737804
1.1737853
1.1737877
1.1737963
1.1738168
1.1738093
1.1738073
1.1738029
1.1737947
1.1737985
1.1737896
1.1737872
1.1737824
1.1737735
1.1737475
1.1737573
1.1737627
1.1737654
1.1737756
1.1737514
1.1737389
1.1737357
1.1737297
1.1737189
1.1736881
1.1736999
1.1737067
1.1737103
1.1737253
1.1736971
1.1736791
1.1736748
1.1736673
1.1736543
1.1736175
1.1736318
1.1736401
1.1736451
1.1736664
1.173633
1.1736078
1.1736021
1.1735927
1.173577
1.1735327
1.1735501
1.1735605
1.173567
1.1735968
1.1735573
1.1735221
1.1735146
1.1735029
1.1734838
1.1734297
1.1734509
1.1734641
1.1734727
1.1735142
1.1734672
1.1734182
1.1734081
1.1733933
1.1733697
1.1733029
1.1733293
1.1733461
1.1733578
1.1734157
1.1733593
1.1732907
1.173277
1.1732579
1.1732282
1.1731445
1.173178
1.1731999
1.1732158
1.1732973
1.1732293
1.1731326
1.1731138
1.1730886
1.1730507
1.1729452
1.1729883
1.1730173
1.1730393
1.1731542
1.1730715
1.1729351
1.1729092
1.1728756
1.1728263
1.1726926
1.1727489
1.1727878
1.1728183
1.17298
1.1728788
1.1726872
1.1726512
1.1726061
1.1725416
1.1723712
1.1724452
1.1724975
1.1725398
1.172766
1.1726403
1.1723741
1.1723244
1.1722637
1.1721788
1.1719612
1.1720586
1.1721288
1.172187
1.1724993
1.1723407
1.1719763
1.1719083
1.1718272
1.1717158
1.1714383
1.1715653
1.1716586
1.1717374
1.1721601
1.1719528
1.1714665
1.1713756
1.171269
1.1711251
1.1707788
1.1709402
1.1710608
1.1711644
1.1717167
1.1714409
1.1708275
1.1707111
1.1705767
1.1703988
1.169946
1.1701333
1.1702778
1.1704047
1.1710648
1.1706751
1.1699732
1.1698391
1.1696948
1.1695243
1.1695481
1.1696563
1.1697884
1.1699268
1.1706526
1.1697004
1.1691467
1.1690349
1.168934
1.16888
1.1634722
1.1637645
1.1639726
1.1642154
1.1663874
1.1710726
1.1709342
1.170858
1.1707815
1.1706069
1.1683511
1.1688524
1.169166
1.1694565
1.1712155
1.1725676
1.171578
1.1714428
1.1712968
1.1710453
1.1682118
1.1685218
1.168713
1.1689209
1.1702132
1.1670127
1.16506
1.1648522
1.1646711
1.164427
1.16881
1.1688894
1.1690074
1.1691392
1.1699602
1.1706993
1.1697636
1.169612
1.1694639
1.1693344
1.1693237
1.169509
1.1696683
1.1698168
1.1707119
1.1710977
1.1702374
1.1700939
1.1699321
1.1697261
1.1701751
1.1703706
1.1705232
1.1706569
1.1714689
1.1717425
1.1710002
1.1708788
1.170739
1.1705564
1.1709086
1.1710772
1.1712036
1.171312
1.1719747
1.1721789
1.1715954
1.1714999
1.1713872
1.1712354
1.1715306
1.1716655
1.1717647
1.1718481
1.1723563
1.1725125
1.1720734
1.1720012
1.1719143
1.1717952
1.1720324
1.172137
1.1722125
1.1722746
1.1726513
1.1727754
1.1724539
1.1724007
1.1723353
1.1722438
1.1724321
1.1725119
1.1725684
1.1726136
1.1728866
1.1729868
1.1727559
1.1727174
1.1726687
1.1725991
1.1727476
1.1728081
1.17285
1.1728826
1.1730772
1.1731592
1.1729955
1.1729678
1.1729317
1.1728791
1.1729956
1.1730415
1.1730726
1.1730959
1.1732335
1.173301
1.1731856
1.1731657
1.1731389
1.1730988
1.1731904
1.1732255
1.1732487
1.1732655
1.1733625
1.1734185
1.1733369
1.1733226
1.1733024
1.1732715
1.1733437
1.1733711
1.1733886
1.1734009
1.1734696
1.1735163
1.1734583
1.1734478
1.1734323
1.1734081
1.1734656
1.1734873
1.1735009
1.1735099
1.1735591
1.1735983
1.1735566
1.1735488
1.1735367
1.1735173
1.1735639
1.1735814
1.1735922
1.1735989
1.1736343
1.1736675
1.1736374
1.1736315
1.1736219
1.173606
1.1736443
1.1736587
1.1736673
1.1736724
1.1736979
1.173726
1.1737044
1.1737
1.1736923
1.1736792
1.1737109
1.1737229
1.1737298
1.1737336
1.1737519
1.1737761
1.1737607
1.1737573
1.1737511
1.1737403
1.1737668
1.1737767
1.1737822
1.1737851
1.1737987
1.173798
1.1737844
1.1737815
1.173776
1.1737662
1.1737398
1.1737505
1.1737567
1.17376
1.1737753
1.1737512
1.1737329
1.1737291
1.1737222
1.1737104
1.1736786
1.1736916
1.1736992
1.1737037
1.1737253
1.1736971
1.1736716
1.1736665
1.173658
1.1736436
1.1736055
1.1736212
1.1736307
1.1736366
1.1736666
1.1736333
1.1735981
1.1735913
1.1735807
1.1735633
1.1735168
1.1735361
1.173548
1.1735558
1.1735972
1.1735579
1.1735092
1.1735002
1.1734868
1.1734653
1.1734082
1.1734321
1.1734473
1.1734577
1.173515
1.1734682
1.1734005
1.1733885
1.1733711
1.1733442
1.1732727
1.173303
1.1733229
1.1733369
1.1734171
1.1733611
1.1732659
1.1732494
1.1732266
1.1731921
1.1731015
1.1731408
1.173167
1.1731864
1.1732996
1.1732321
1.1730973
1.1730744
1.173044
1.1729991
1.1728836
1.1729351
1.1729704
1.1729974
1.1731577
1.1730759
1.1728852
1.1728533
1.1728123
1.1727532
1.1726061
1.172674
1.1727216
1.1727592
1.1729854
1.1728853
1.1726177
1.1725734
1.1725181
1.1724402
1.1722534
1.1723428
1.1724067
1.1724587
1.172774
1.1726501
1.1722803
1.1722194
1.1721455
1.1720433
1.1718076
1.1719241
1.1720091
1.1720799
1.1725113
1.1723555
1.1718552
1.1717733
1.1716759
1.1715437
1.171249
1.1713979
1.1715087
1.1716028
1.1721781
1.1719747
1.171319
1.1712119
1.1710872
1.1709211
1.1705664
1.1707474
1.1708859
1.1710061
1.171743
1.1714706
1.1706599
1.1705266
1.1703747
1.1701805
1.1697205
1.1699293
1.1700921
1.1702363
1.1711015
1.1707242
1.1698124
1.1696617
1.1694994
1.1693065
1.1692678
1.1694126
1.1695662
1.1697218
1.1706951
1.1699467
1.1690874
1.1689536
1.168831
1.1687445
1.1650199
1.1652107
1.1653513
1.1655185
1.1670757
1.1696635
1.1672163
1.1668682
1.166521
1.1660595
1.1721605
1.1723235
1.1723744
1.1724024
1.1726854
1.1738199
1.1716033
1.1713585
1.1711453
1.1707499
1.1777096
1.1780839
1.1783412
1.1785426
1.1786393
1.1745081
1.1740792
1.1739643