/*--------------------------------*- C++ -*----------------------------------*\
  =========                 |
  \\      /  F ield         | OpenFOAM: The Open Source CFD Toolbox
   \\    /   O peration     | Website:  https://openfoam.org
    \\  /    A nd           | Version:  7
     \\/     M anipulation  |
\*---------------------------------------------------------------------------*/
FoamFile
{
    version     2.0;
    format      ascii;
    class       volScalarField;
    location    "280";
    object      T;
}
// * * * * * * * * * * * * * * * * * * * * * * * * * * * * * * * * * * * * * //

dimensions      [0 0 0 1 0 0 0];

internalField   nonuniform List<scalar> 
24789
(
300.05784
300.05019
300.04549
300.04256
300.02888
300.03577
300.05067
300.05384
300.05882
300.06686
300.07611
300.06769
300.06242
300.05898
300.04265
300.04969
300.06757
300.07131
300.07691
300.08576
300.09575
300.08646
300.08051
300.07646
300.0569
300.06428
300.08567
300.09007
300.09641
300.1062
300.11711
300.10678
300.10002
300.09524
300.07182
300.07951
300.10519
300.11041
300.11765
300.1286
300.1407
300.12906
300.12129
300.11559
300.08735
300.09532
300.12648
300.13273
300.14112
300.15356
300.16722
300.15387
300.14478
300.13789
300.10341
300.11158
300.14989
300.1575
300.16741
300.18181
300.19735
300.18176
300.17092
300.16248
300.11979
300.12798
300.17568
300.18508
300.19698
300.21394
300.23158
300.21308
300.19996
300.18946
300.13601
300.14388
300.20386
300.2156
300.23009
300.25035
300.27016
300.24798
300.23195
300.21881
300.1515
300.15877
300.23426
300.24895
300.2667
300.29106
300.31306
300.28629
300.26662
300.25019
300.16561
300.17191
300.26656
300.28492
300.30672
300.33619
300.36042
300.32794
300.30376
300.28328
300.1775
300.18221
300.30024
300.32307
300.34987
300.38569
300.41177
300.37228
300.34259
300.3172
300.18577
300.18786
300.33374
300.3619
300.39468
300.43811
300.46367
300.41615
300.38013
300.34906
300.18799
300.18538
300.36181
300.39581
300.43507
300.48659
300.50414
300.44906
300.40681
300.37004
300.1791
300.16791
300.37097
300.41002
300.45459
300.51203
300.50185
300.44493
300.39978
300.35958
300.14881
300.12
300.33321
300.37273
300.41469
300.46354
300.38671
300.35916
300.32535
300.28954
300.08698
300.01024
300.16132
300.18788
300.2109
300.21546
299.83992
299.83979
299.83583
299.83172
299.81702
299.71301
299.70852
299.70886
299.71196
299.71809
299.74799
299.73585
299.72888
299.72367
299.69777
299.66176
299.63811
299.63456
299.634
299.63562
299.64054
299.62875
299.63026
299.63501
299.64748
299.66197
299.6425
299.63955
299.64173
299.65926
299.73675
299.71415
299.70705
299.70623
299.70312
299.72753
299.73071
299.73272
299.73775
299.74758
299.96232
299.95097
299.93572
299.92121
299.83935
300.00952
300.20213
300.23135
300.25763
300.27194
300.42166
300.3906
300.35561
300.31952
300.08449
300.11686
300.36411
300.40357
300.44527
300.49312
300.53152
300.47707
300.43257
300.39232
300.14573
300.16574
300.40563
300.44508
300.48956
300.54577
300.5384
300.48533
300.44296
300.40545
300.17725
300.18395
300.39745
300.43262
300.47274
300.5243
300.50299
300.45459
300.41715
300.38453
300.18692
300.18709
300.36863
300.39863
300.43323
300.47816
300.45184
300.41035
300.37854
300.3511
300.18516
300.18168
300.33278
300.35779
300.38694
300.42516
300.39868
300.36354
300.33689
300.31416
300.17699
300.17139
300.29555
300.31617
300.34049
300.37279
300.3476
300.31795
300.29578
300.27714
300.16506
300.1582
300.25907
300.27589
300.29608
300.3233
300.29988
300.27493
300.25659
300.24146
300.15088
300.14318
300.22436
300.23797
300.25464
300.27754
300.2562
300.23523
300.22011
300.20791
300.13527
300.12719
300.19214
300.20309
300.21685
300.2361
300.21709
300.19944
300.18695
300.17713
300.11904
300.11085
300.16289
300.17174
300.18313
300.19939
300.18278
300.16781
300.15741
300.14946
300.10271
300.09463
300.13676
300.14397
300.15353
300.16741
300.153
300.14011
300.13132
300.12478
300.08666
300.07885
300.11343
300.11941
300.12757
300.13964
300.12701
300.1157
300.10813
300.10267
300.07116
300.06365
300.09241
300.09743
300.10452
300.11521
300.10391
300.09383
300.08721
300.08261
300.05631
300.04913
300.0732
300.07745
300.08369
300.09327
300.08299
300.0739
300.06806
300.06416
300.04212
300.03526
300.05544
300.05906
300.06458
300.07325
300.0638
300.05557
300.05038
300.04706
300.02849
300.03446
300.05452
300.0581
300.06355
300.0721
300.08182
300.07286
300.0671
300.06324
300.04152
300.04849
300.07218
300.07636
300.08249
300.09193
300.10247
300.09253
300.086
300.08147
300.05561
300.06288
300.09115
300.09608
300.10305
300.11356
300.12522
300.11408
300.10662
300.10126
300.07031
300.07789
300.11186
300.11773
300.12575
300.13762
300.15079
300.1381
300.12944
300.12302
300.0856
300.09344
300.1348
300.14188
300.15126
300.16492
300.18004
300.16531
300.15508
300.14726
300.10138
300.10939
300.16045
300.16913
300.18031
300.19629
300.21366
300.1963
300.18403
300.1744
300.11741
300.12541
300.18908
300.19981
300.21329
300.2322
300.25183
300.23125
300.21641
300.20446
300.1333
300.14103
300.2205
300.23381
300.25013
300.27257
300.29432
300.26988
300.25193
300.23713
300.14853
300.15565
300.25426
300.27069
300.29042
300.31705
300.34069
300.31168
300.29002
300.27182
300.16232
300.16844
300.28974
300.30986
300.33362
300.36523
300.39054
300.35612
300.33007
300.30788
300.17384
300.17833
300.32607
300.35051
300.37901
300.41647
300.44264
300.40194
300.37082
300.344
300.18161
300.18335
300.36114
300.39046
300.42433
300.46839
300.49252
300.44511
300.40848
300.37659
300.18298
300.17983
300.389
300.42337
300.46256
300.51293
300.52585
300.47428
300.43298
300.39637
300.17293
300.16125
300.39589
300.43434
300.47762
300.53227
300.51641
300.4642
300.42117
300.38209
300.14127
300.11123
300.35229
300.39037
300.43021
300.47543
300.4011
300.3734
300.34119
300.30662
300.0764
300.00769
300.19795
300.22625
300.25073
300.25744
299.95347
299.94285
299.92773
299.91401
299.842
299.66631
299.60731
299.60088
299.60054
299.61489
299.84178
299.81085
299.79547
299.78594
299.7224
299.73546
299.8277
299.84051
299.8568
299.8831
299.62563
299.61334
299.61559
299.62412
299.67519
299.76737
299.90921
299.93429
299.96578
300.00962
299.82153
299.78253
299.76604
299.75757
299.70981
299.66149
299.59786
299.59003
299.58759
299.59675
299.91447
299.90926
299.8997
299.89076
299.85066
300.02566
300.18939
300.21721
300.24176
300.24735
300.40289
300.37046
300.33539
300.29893
300.08914
300.12053
300.33843
300.37849
300.4218
300.47398
300.51055
300.44999
300.4037
300.36325
300.14973
300.16896
300.37223
300.4108
300.45518
300.51249
300.5011
300.4468
300.40537
300.36952
300.18018
300.18669
300.3603
300.39315
300.43127
300.48162
300.45774
300.41172
300.377
300.34717
300.18946
300.18941
300.33191
300.35884
300.39027
300.43204
300.40608
300.36826
300.33988
300.31563
300.18725
300.18355
300.29902
300.32083
300.34646
300.38072
300.35626
300.32519
300.30204
300.28243
300.17863
300.1728
300.26605
300.28368
300.30463
300.33291
300.31056
300.28479
300.26582
300.24998
300.16628
300.15924
300.23429
300.24853
300.26574
300.2893
300.26898
300.24741
300.23181
300.21902
300.15178
300.14402
300.20421
300.2157
300.22989
300.24968
300.23128
300.21311
300.20022
300.18992
300.13603
300.12791
300.17616
300.18544
300.1972
300.21394
300.19749
300.18205
300.17133
300.16299
300.11971
300.11149
300.1504
300.15794
300.16779
300.1821
300.16754
300.15426
300.14522
300.1384
300.10331
300.09522
300.12695
300.13318
300.14155
300.15396
300.14108
300.12946
300.12171
300.11605
300.08725
300.07939
300.10562
300.11082
300.11806
300.12902
300.11749
300.10715
300.1004
300.09564
300.0717
300.06417
300.08604
300.09044
300.0968
300.10662
300.09612
300.0868
300.08085
300.07681
300.0568
300.04959
300.06789
300.07163
300.07726
300.08615
300.07647
300.06801
300.06273
300.0593
300.04253
300.03539
300.05085
300.05405
300.05908
300.06719
300.06573
300.05777
300.05285
300.04971
300.03496
300.04197
300.05803
300.06142
300.06664
300.075
300.08448
300.07573
300.0702
300.06652
300.04897
300.05612
300.07532
300.07931
300.08519
300.09439
300.10468
300.095
300.08874
300.08441
300.06342
300.07087
300.09387
300.09857
300.10525
300.11548
300.12679
300.11596
300.10882
300.10369
300.07848
300.08623
300.11395
300.11956
300.12724
300.13876
300.15144
300.13913
300.13085
300.1247
300.0941
300.10209
300.13597
300.14275
300.15173
300.16495
300.17932
300.16507
300.15529
300.14779
300.11015
300.11825
300.16021
300.16854
300.17924
300.19467
300.211
300.19423
300.18248
300.17322
300.12635
300.13427
300.18679
300.19713
300.21008
300.22838
300.24679
300.22679
300.21249
300.20093
300.14202
300.14951
300.21558
300.22852
300.24433
300.26625
300.28676
300.26271
300.24521
300.23074
300.15666
300.16339
300.24635
300.26253
300.28192
300.30835
300.33102
300.30193
300.28043
300.26238
300.16957
300.17505
300.27872
300.29887
300.32269
300.35475
300.37946
300.34411
300.31771
300.29526
300.17965
300.18312
300.31176
300.33672
300.36594
300.40489
300.43047
300.38767
300.35543
300.32778
300.18513
300.18522
300.3425
300.37296
300.40834
300.45511
300.47695
300.42633
300.38785
300.35457
300.18262
300.1764
300.36202
300.39791
300.43922
300.49323
300.49974
300.44352
300.40006
300.36207
300.16534
300.14663
300.34972
300.38867
300.43255
300.48815
300.44817
300.40027
300.35967
300.32168
300.11794
300.08466
300.27697
300.31094
300.3431
300.37033
300.20362
300.19957
300.17854
300.15384
300.01085
299.81463
299.83075
299.83496
299.83945
299.84012
299.62682
299.6187
299.62036
299.62691
299.67857
299.709
299.74421
299.7506
299.76027
299.77585
299.69379
299.68858
299.68624
299.6872
299.68422
299.64707
299.59985
299.58796
299.57947
299.59138
299.68148
299.60307
299.5808
299.55934
299.53677
299.84708
299.83421
299.81493
299.79851
299.72622
299.74989
299.78285
299.78654
299.78716
299.77169
299.89906
299.88307
299.86515
299.84939
299.75415
299.75822
299.85889
299.87548
299.89721
299.93554
299.75033
299.723
299.71465
299.71283
299.70388
299.68234
299.63507
299.62918
299.62771
299.63516
299.90238
299.90324
299.89657
299.88889
299.85142
300.02471
300.17753
300.20288
300.22372
300.22584
300.37874
300.35218
300.32052
300.28687
300.09092
300.12219
300.3272
300.36449
300.40411
300.45035
300.48631
300.43302
300.39063
300.35287
300.15108
300.17018
300.36343
300.3998
300.44128
300.49475
300.48664
300.43567
300.39654
300.36244
300.18125
300.18769
300.35478
300.38623
300.42247
300.46994
300.4486
300.40491
300.3717
300.34299
300.19042
300.19033
300.32883
300.35489
300.38514
300.42508
300.40092
300.36452
300.33703
300.31345
300.18813
300.18439
300.29756
300.31886
300.34381
300.37699
300.35366
300.32339
300.30075
300.28152
300.17942
300.17357
300.26557
300.28292
300.30349
300.33117
300.30948
300.28415
300.26546
300.24981
300.16701
300.15993
300.23435
300.24845
300.26546
300.2887
300.26872
300.24739
300.23193
300.21924
300.15243
300.14462
300.20454
300.21597
300.23005
300.24968
300.23146
300.21341
300.20059
300.19032
300.13659
300.12842
300.17661
300.18587
300.19758
300.21425
300.19789
300.1825
300.17179
300.16346
300.12018
300.11192
300.15087
300.15843
300.16827
300.18255
300.16803
300.15475
300.14571
300.13887
300.10371
300.09557
300.12742
300.13365
300.14204
300.15446
300.14158
300.12994
300.12217
300.11649
300.08756
300.07969
300.10604
300.11127
300.11853
300.12951
300.11796
300.1076
300.10082
300.09604
300.07198
300.06442
300.08642
300.09084
300.09722
300.10707
300.09654
300.0872
300.08122
300.07716
300.05704
300.0498
300.06823
300.07198
300.07764
300.08656
300.07684
300.06836
300.06306
300.0596
300.04273
300.03555
300.05112
300.05435
300.0594
300.06754
300.07303
300.06443
300.05894
300.05532
300.03506
300.04206
300.06411
300.06803
300.07386
300.08292
300.0931
300.08358
300.07738
300.07314
300.04908
300.05625
300.08254
300.08715
300.09376
300.10381
300.11501
300.10439
300.09733
300.09232
300.06359
300.07108
300.10256
300.10802
300.11559
300.12687
300.1394
300.1274
300.11926
300.1133
300.07873
300.08653
300.12461
300.13116
300.13994
300.15281
300.16712
300.1533
300.14376
300.13656
300.09446
300.10251
300.14922
300.15718
300.16757
300.18252
300.19902
300.18282
300.17146
300.16263
300.11063
300.11878
300.17681
300.18664
300.19911
300.21674
300.23564
300.21645
300.20272
300.19178
300.1269
300.13493
300.2075
300.2197
300.23481
300.25576
300.277
300.25416
300.23752
300.22393
300.14282
300.15048
300.24099
300.25612
300.27445
300.29937
300.32274
300.29557
300.27541
300.2586
300.15778
300.16464
300.27667
300.29531
300.31747
300.34709
300.37231
300.34004
300.31573
300.29512
300.17094
300.17653
300.31378
300.33653
300.36318
300.39831
300.42487
300.38667
300.35751
300.33248
300.18119
300.18467
300.35087
300.37834
300.41015
300.45161
300.47784
300.43301
300.39843
300.36842
300.18656
300.1864
300.38425
300.41685
300.45421
300.50237
300.52307
300.47198
300.43206
300.39695
300.18337
300.17664
300.4046
300.44196
300.48398
300.53615
300.54262
300.48745
300.44349
300.4043
300.16508
300.14521
300.39035
300.4301
300.47364
300.52603
300.48448
300.43938
300.39914
300.36047
300.11578
300.08255
300.31403
300.34902
300.3819
300.40952
300.26029
300.25114
300.22656
300.19842
300.0111
299.83708
299.91074
299.92366
299.93713
299.94642
299.69299
299.67792
299.67515
299.67727
299.70828
299.7037
299.70623
299.70934
299.72017
299.74896
299.71805
299.69267
299.68786
299.68882
299.69327
299.70714
299.79162
299.8049
299.82128
299.84646
299.5659
299.57935
299.59176
299.60497
299.67515
299.69813
299.69695
299.69826
299.70143
299.70853
299.71466
299.7062
299.70372
299.7044
299.70984
299.80572
299.81848
299.82208
299.82535
299.82438
300.21066
300.20707
300.18432
300.15824
300.0082
300.0862
300.28847
300.3242
300.35761
300.38468
300.46393
300.41517
300.37324
300.33368
300.12007
300.14894
300.36107
300.40152
300.4469
300.50401
300.51501
300.45709
300.41211
300.37272
300.16789
300.17901
300.3718
300.40895
300.45166
300.50734
300.48969
300.43754
300.39783
300.36345
300.18525
300.18783
300.35051
300.38191
300.41836
300.46646
300.44049
300.39654
300.36339
300.33494
300.18769
300.18561
300.31815
300.34378
300.37378
300.41371
300.38718
300.35101
300.32396
300.30095
300.18205
300.17735
300.28378
300.3044
300.32877
300.36153
300.33694
300.30727
300.28533
300.26688
300.17176
300.16547
300.25036
300.26686
300.28664
300.31356
300.29132
300.26687
300.24906
300.23432
300.15864
300.15138
300.21879
300.23196
300.24804
300.27031
300.25036
300.23007
300.21556
300.20381
300.14378
300.13592
300.18939
300.1999
300.21304
300.2316
300.21386
300.19688
300.18498
300.17559
300.12791
300.11973
300.16237
300.17082
300.18167
300.1973
300.1817
300.16729
300.15739
300.1498
300.11153
300.10337
300.1378
300.14469
300.15379
300.16718
300.15347
300.14102
300.13264
300.12641
300.0953
300.08734
300.11552
300.12122
300.12901
300.14069
300.12854
300.11757
300.11035
300.10515
300.07951
300.07182
300.09518
300.09997
300.10675
300.11712
300.10616
300.09635
300.09002
300.08563
300.06429
300.05692
300.07641
300.08047
300.08644
300.09578
300.08572
300.07685
300.07126
300.06754
300.04972
300.04269
300.05895
300.06239
300.06768
300.07616
300.06676
300.05871
300.05375
300.0506
300.03574
300.03499
300.0496
300.05272
300.05763
300.06558
300.07477
300.06647
300.06128
300.05792
300.04199
300.04897
300.06636
300.07001
300.07552
300.08424
300.09405
300.08492
300.07908
300.07513
300.05611
300.0634
300.08417
300.08846
300.09466
300.10429
300.11495
300.10482
300.09822
300.09357
300.07085
300.07843
300.1033
300.10837
300.11543
300.12615
300.13793
300.12657
300.119
300.11348
300.08616
300.094
300.12407
300.13013
300.13828
300.15042
300.16364
300.15066
300.14185
300.1352
300.10195
300.10996
300.14682
300.15416
300.16374
300.17771
300.19262
300.17756
300.16712
300.15901
300.11801
300.12603
300.1717
300.18071
300.19213
300.20846
300.2252
300.20748
300.19495
300.18493
300.13391
300.14158
300.19862
300.20978
300.22357
300.24288
300.26144
300.2404
300.22521
300.21277
300.149
300.15606
300.22732
300.24118
300.25793
300.28094
300.30137
300.27619
300.2577
300.24226
300.16269
300.16876
300.25754
300.27473
300.29515
300.32277
300.34512
300.31478
300.29221
300.27308
300.17413
300.17861
300.28876
300.31003
300.335
300.36838
300.3923
300.35558
300.32799
300.30437
300.18194
300.18381
300.3195
300.34566
300.37609
300.41639
300.43967
300.39564
300.36225
300.33341
300.18373
300.18097
300.34484
300.37637
300.41273
300.46042
300.47608
300.42509
300.38597
300.35188
300.17461
300.16348
300.35191
300.38812
300.42944
300.48282
300.47302
300.4195
300.37739
300.34001
300.14456
300.1154
300.31303
300.34988
300.38945
300.43718
300.36723
300.33749
300.30507
300.27118
300.08012
300.00632
300.15911
300.18618
300.21051
300.21691
299.8742
299.86843
299.86012
299.85235
299.81888
299.65459
299.60501
299.59821
299.59578
299.60321
299.82644
299.80784
299.79367
299.78222
299.71601
299.72457
299.78271
299.79144
299.80097
299.80552
299.77413
299.81375
299.77469
299.66643
299.60013
299.59134
299.58761
299.59638
299.80064
299.76279
299.74856
299.74226
299.70026
299.61125
299.61179
299.61937
299.63233
299.68389
299.72873
299.72436
299.72213
299.71845
299.70877
299.71504
299.73621
299.74118
299.74118
299.73006
299.73284
299.82372
299.84806
299.88289
299.93844
299.77346
299.76565
299.82482
299.81231
299.99416
299.99539
299.99068
299.99414
299.9952
299.9915
299.99169
299.99462
300.06725
300.05918
300.05415
300.05092
300.03528
300.04247
300.05943
300.0629
300.06822
300.07669
300.08634
300.07747
300.07183
300.06806
300.04955
300.05679
300.07703
300.08111
300.0871
300.09643
300.10688
300.09708
300.09071
300.08629
300.0642
300.07177
300.09592
300.10072
300.1075
300.11785
300.12932
300.11839
300.11114
300.10592
300.0795
300.08738
300.11637
300.12206
300.12982
300.14143
300.15422
300.14186
300.1335
300.12727
300.09541
300.10356
300.13872
300.14556
300.15459
300.16782
300.18225
300.16804
300.15824
300.15071
300.1118
300.12009
300.16328
300.1716
300.18227
300.19759
300.21384
300.19727
300.18562
300.1764
300.12837
300.13658
300.19008
300.2003
300.21306
300.23101
300.24904
300.22957
300.21559
300.20424
300.14464
300.15248
300.21883
300.23142
300.24676
300.2679
300.28753
300.26456
300.24774
300.23377
300.15999
300.1671
300.24901
300.26447
300.28293
300.30792
300.329
300.30179
300.28154
300.26443
300.17366
300.17952
300.27996
300.29887
300.32109
300.35075
300.37308
300.34069
300.3163
300.29543
300.18447
300.1882
300.31062
300.33363
300.36039
300.39578
300.41844
300.37979
300.35045
300.32512
300.19035
300.19042
300.33826
300.36604
300.39811
300.44019
300.4595
300.41397
300.37914
300.34884
300.18765
300.18131
300.35518
300.38786
300.42528
300.47392
300.47958
300.42877
300.38931
300.35465
300.17025
300.15108
300.34252
300.37824
300.4182
300.4684
300.43058
300.38843
300.35169
300.3167
300.12309
300.09336
300.27628
300.30754
300.33615
300.35742
300.19145
300.19191
300.17419
300.15185
300.01529
299.82835
299.84208
299.84524
299.84779
299.84487
299.75244
299.745
299.7409
299.73906
299.73048
299.69853
299.70069
299.70194
299.70863
299.72663
299.75088
299.70044
299.69001
299.69036
299.68643
299.82793
299.84
299.84876
299.81977
300.01785
300.03722
300.0033
299.96882
299.74977
299.73319
299.76625
299.77562
299.78546
299.78512
300.0493
300.00718
299.96949
299.93482
299.78228
299.80065
299.99482
300.02568
300.05613
300.09051
299.75261
299.70219
299.69165
299.69187
299.6871
299.69928
299.70179
299.70305
299.70967
299.72726
299.75316
299.74581
299.74178
299.73998
299.73143
299.82935
299.84301
299.84613
299.84862
299.84567
300.19235
300.19288
300.17521
300.15291
300.01652
300.09456
300.27745
300.30869
300.33727
300.35849
300.43153
300.38941
300.3527
300.31774
300.12422
300.15218
300.3435
300.37919
300.41911
300.46928
300.48038
300.42961
300.39019
300.35556
300.1713
300.1823
300.35603
300.38867
300.42606
300.47466
300.46019
300.4147
300.3799
300.34964
300.18858
300.19129
300.33901
300.36676
300.39881
300.44086
300.4191
300.38047
300.35115
300.32585
300.19117
300.18897
300.31134
300.33433
300.36109
300.39646
300.37377
300.34139
300.31701
300.29615
300.18519
300.1802
300.28068
300.29959
300.32182
300.35149
300.32976
300.30254
300.28227
300.26516
300.17431
300.16773
300.24973
300.26522
300.28371
300.30873
300.28836
300.26535
300.2485
300.23451
300.1606
300.15306
300.21957
300.2322
300.24757
300.26877
300.2499
300.23038
300.21636
300.20498
300.1452
300.13711
300.1908
300.20107
300.21389
300.23191
300.2147
300.19806
300.18636
300.17711
300.12887
300.12057
300.16394
300.1723
300.18304
300.19845
300.18301
300.16872
300.15889
300.15133
300.11226
300.10398
300.13927
300.14614
300.15523
300.16855
300.15484
300.14241
300.13402
300.12778
300.0958
300.08773
300.11679
300.12251
300.13033
300.14202
300.12979
300.1188
300.11153
300.1063
300.07981
300.07205
300.09623
300.10106
300.10788
300.1183
300.10725
300.09739
300.091
300.08658
300.06446
300.05705
300.07728
300.08137
300.0874
300.09679
300.08665
300.07773
300.07208
300.06832
300.0498
300.04272
300.05964
300.06313
300.06848
300.07701
300.06761
300.0595
300.05448
300.05129
300.03582
300.02899
300.04316
300.04614
300.05091
300.05868
300.03496
300.04981
300.05297
300.05791
300.06592
300.07518
300.06681
300.06156
300.05815
300.04194
300.04895
300.06669
300.07039
300.07596
300.08476
300.09467
300.08544
300.07952
300.0755
300.05611
300.06342
300.08465
300.08901
300.0953
300.10504
300.11584
300.10558
300.09887
300.09412
300.0709
300.07852
300.104
300.10917
300.11635
300.12722
300.13921
300.12765
300.11994
300.11429
300.08629
300.0942
300.12507
300.13127
300.13959
300.15195
300.16549
300.15223
300.14321
300.13639
300.10221
300.11032
300.14829
300.15584
300.16566
300.17997
300.19542
300.17993
300.16918
300.1608
300.11847
300.12658
300.17393
300.18326
300.19508
300.21196
300.22958
300.21115
300.19811
300.18767
300.13455
300.14237
300.20205
300.21373
300.22816
300.24836
300.26825
300.2461
300.23011
300.21701
300.14994
300.15716
300.23251
300.24718
300.26492
300.28928
300.31148
300.28466
300.26496
300.24853
300.16395
300.1702
300.26502
300.28341
300.30528
300.33488
300.35944
300.32676
300.30246
300.2819
300.17573
300.18038
300.29903
300.32199
300.34898
300.38509
300.41157
300.37171
300.34177
300.31619
300.18386
300.18588
300.33291
300.3613
300.3944
300.43827
300.46409
300.41609
300.37971
300.34836
300.18591
300.18324
300.36114
300.39544
300.43506
300.48706
300.50433
300.44886
300.40629
300.36925
300.17687
300.16565
300.3698
300.40903
300.45379
300.51139
300.49965
300.44297
300.39788
300.35766
300.14651
300.11754
300.32964
300.36886
300.41039
300.4586
300.37824
300.35182
300.31888
300.28355
300.08314
300.00495
300.15217
300.17771
300.19978
300.20252
299.813
299.81552
299.81354
299.81103
299.80208
299.70618
299.69456
299.69263
299.69342
299.69921
299.69458
299.68954
299.68803
299.68787
299.69437
299.66937
299.5952
299.58119
299.56771
299.54993
299.8205
299.79939
299.78588
299.77478
299.69932
299.68666
299.67035
299.66736
299.66961
299.69126
299.89637
299.86316
299.84529
299.83226
299.74843
299.75894
299.88686
299.90846
299.93653
299.97638
299.87111
299.84697
299.83178
299.81968
299.73218
299.72322
299.78247
299.79124
299.80021
299.80291
299.71563
299.70716
299.70235
299.70098
299.68707
299.66957
299.61647
299.60977
299.6083
299.61954
299.8223
299.7806
299.76361
299.75508
299.70335
299.70913
299.72383
299.72926
299.74167
299.77195
299.77322
299.75882
299.75056
299.7466
299.73245
299.82736
299.84896
299.85399
299.8595
299.86381
300.20743
300.20357
300.18328
300.15931
300.01622
300.09419
300.28221
300.31456
300.34446
300.36833
300.43828
300.39462
300.35695
300.32121
300.12397
300.15219
300.34625
300.3825
300.42312
300.47426
300.48399
300.43254
300.39263
300.35759
300.17133
300.18232
300.35748
300.39041
300.42814
300.47722
300.46198
300.41616
300.38111
300.35064
300.18856
300.19122
300.33968
300.36759
300.3998
300.44209
300.41991
300.38112
300.35167
300.32626
300.19102
300.18876
300.31155
300.33463
300.36147
300.39697
300.37405
300.34158
300.31713
300.29621
300.18491
300.17988
300.28062
300.29958
300.32186
300.35161
300.32976
300.30247
300.28217
300.26501
300.17394
300.16733
300.24952
300.26504
300.28356
300.30864
300.28819
300.26514
300.24826
300.23425
300.16018
300.15263
300.21927
300.23192
300.24733
300.26856
300.24964
300.23008
300.21605
300.20465
300.14477
300.13669
300.19046
300.20074
300.21357
300.23162
300.21438
300.19772
300.18602
300.17676
300.12847
300.12017
300.16358
300.17195
300.18269
300.19812
300.18267
300.16837
300.15853
300.15097
300.11187
300.10361
300.13891
300.14578
300.15487
300.1682
300.15448
300.14205
300.13365
300.12741
300.09543
300.08738
300.11644
300.12216
300.12997
300.14166
300.12943
300.11844
300.11117
300.10595
300.07948
300.07173
300.0959
300.10072
300.10754
300.11795
300.1069
300.09705
300.09067
300.08625
300.06417
300.05675
300.07696
300.08105
300.08707
300.09645
300.08632
300.07741
300.07177
300.06801
300.04952
300.04246
300.05936
300.06284
300.06818
300.07669
300.0673
300.05919
300.05418
300.051
300.03557
300.02873
300.04282
300.04577
300.05052
300.05828
300.03526
300.05084
300.05406
300.05909
300.06718
300.07657
300.06811
300.0628
300.05933
300.04243
300.04951
300.06796
300.07173
300.07737
300.08626
300.0963
300.08698
300.081
300.07692
300.05675
300.06414
300.08618
300.09061
300.09698
300.1068
300.11773
300.10739
300.10061
300.09581
300.0717
300.07943
300.10581
300.11104
300.11829
300.12924
300.14134
300.12973
300.12196
300.11627
300.08731
300.09533
300.12718
300.13342
300.14179
300.15417
300.16774
300.15451
300.14547
300.13863
300.10347
300.1117
300.15061
300.15815
300.16796
300.18219
300.1975
300.18218
300.1715
300.16318
300.11998
300.12825
300.17629
300.18551
300.19717
300.21374
300.23084
300.21291
300.20016
300.18994
300.13645
300.14451
300.20406
300.21541
300.22937
300.24883
300.2676
300.2465
300.23118
300.21861
300.15233
300.15984
300.2335
300.24744
300.26423
300.28715
300.30741
300.2825
300.26409
300.24866
300.16693
300.1735
300.26403
300.28109
300.30127
300.32838
300.34996
300.32043
300.2983
300.27947
300.17936
300.18431
300.29485
300.31563
300.3399
300.37212
300.39463
300.35944
300.33282
300.30993
300.18806
300.19022
300.32433
300.34952
300.37869
300.41709
300.43865
300.39684
300.36497
300.33734
300.19027
300.18751
300.34784
300.37796
300.41258
300.45781
300.47218
300.42382
300.38661
300.35409
300.18109
300.16998
300.35357
300.38808
300.42737
300.47797
300.46722
300.41699
300.37705
300.34141
300.15064
300.12231
300.31559
300.35066
300.38764
300.43016
300.35864
300.33665
300.30804
300.27656
300.09214
300.01373
300.15208
300.17503
300.19394
300.19552
299.85006
299.84844
299.84441
299.84056
299.82466
299.72993
299.73708
299.73958
299.74621
299.75928
299.75379
299.7268
299.71663
299.713
299.70701
299.7171
299.71112
299.71149
299.71539
299.72662
299.74202
299.73067
299.7254
299.72325
299.72072
299.83101
299.88866
299.89915
299.91038
299.91869
300.25027
300.23998
300.21614
300.18882
300.00696
300.08287
300.31401
300.34922
300.38265
300.40965
300.48654
300.44087
300.40011
300.36111
300.11546
300.14458
300.39107
300.43122
300.47544
300.52907
300.54639
300.48984
300.44514
300.40548
300.1645
300.17599
300.40609
300.44393
300.48667
300.54001
300.527
300.47479
300.43416
300.39856
300.18261
300.18554
300.38586
300.41897
300.45699
300.50619
300.48148
300.4357
300.40049
300.36999
300.18565
300.18372
300.35235
300.38028
300.41268
300.45501
300.42798
300.38898
300.35928
300.33382
300.18022
300.17555
300.31494
300.33808
300.36523
300.40109
300.37471
300.34179
300.31703
300.29607
300.16996
300.16367
300.27739
300.29634
300.31889
300.3491
300.32433
300.29666
300.27616
300.2591
300.15682
300.14957
300.24127
300.25662
300.27524
300.3006
300.27786
300.25465
300.23778
300.22402
300.14194
300.13406
300.2074
300.21975
300.23506
300.25632
300.2359
300.21645
300.20258
300.19154
300.12604
300.11793
300.17643
300.18634
300.19895
300.21679
300.19884
300.18248
300.17103
300.16215
300.10981
300.10172
300.14865
300.15666
300.16714
300.18222
300.16667
300.15274
300.14317
300.13595
300.09372
300.08583
300.12395
300.13051
300.13935
300.1523
300.13881
300.12674
300.11859
300.11264
300.07806
300.07046
300.10188
300.10734
300.11493
300.12627
300.11436
300.10371
300.09665
300.09167
300.063
300.05571
300.08188
300.08648
300.09311
300.1032
300.09247
300.08292
300.07674
300.07252
300.04857
300.04156
300.0635
300.0674
300.07325
300.08234
300.07244
300.06381
300.05832
300.05473
300.0345
300.03456
300.05485
300.05848
300.06398
300.07259
300.08243
300.0734
300.06757
300.06367
300.04166
300.04868
300.07268
300.07692
300.08312
300.09264
300.10329
300.09326
300.08667
300.08207
300.05585
300.06317
300.09183
300.09683
300.10388
300.11449
300.12627
300.11503
300.10748
300.10204
300.07065
300.07828
300.11274
300.11869
300.1268
300.13879
300.1521
300.13929
300.13053
300.12402
300.08607
300.09399
300.13592
300.1431
300.1526
300.16639
300.18172
300.16683
300.15648
300.14856
300.10202
300.11013
300.16194
300.17074
300.18207
300.19823
300.21593
300.19836
300.18592
300.17613
300.11827
300.1264
300.19111
300.20203
300.21573
300.23491
300.25508
300.23415
300.21906
300.20688
300.13444
300.14234
300.22336
300.23695
300.25359
300.27645
300.29891
300.27396
300.25563
300.24051
300.15001
300.15731
300.25819
300.27501
300.2952
300.32242
300.34687
300.31719
300.29499
300.27634
300.16418
300.17049
300.29483
300.31548
300.33984
300.37219
300.39826
300.36303
300.33632
300.31354
300.17608
300.18076
300.33226
300.35735
300.38658
300.42491
300.45179
300.41015
300.37823
300.3507
300.18422
300.18613
300.36835
300.39846
300.43319
300.4783
300.50332
300.45471
300.41711
300.38436
300.18595
300.18295
300.39739
300.43272
300.47301
300.52482
300.53909
300.48576
300.44319
300.40551
300.17624
300.16473
300.40577
300.44543
300.49011
300.54656
300.53244
300.47773
300.433
300.39255
300.1447
300.11587
300.36442
300.40409
300.44604
300.49417
300.42288
300.3915
300.35625
300.31992
300.08354
300.00847
300.20238
300.23185
300.25847
300.27319
299.96359
299.95193
299.93625
299.92145
299.8385
299.72665
299.73008
299.73201
299.73684
299.74634
299.73919
299.71547
299.70801
299.70689
299.70221
299.66103
299.64289
299.64025
299.64288
299.66098
299.64311
299.62981
299.63054