/*--------------------------------*- C++ -*----------------------------------*\
  =========                 |
  \\      /  F ield         | OpenFOAM: The Open Source CFD Toolbox
   \\    /   O peration     | Website:  https://openfoam.org
    \\  /    A nd           | Version:  7
     \\/     M anipulation  |
\*---------------------------------------------------------------------------*/
FoamFile
{
    version     2.0;
    format      ascii;
    class       volScalarField;
    location    "80";
    object      k;
}
// * * * * * * * * * * * * * * * * * * * * * * * * * * * * * * * * * * * * * //

dimensions      [0 2 -2 0 0 0 0];

internalField   nonuniform List<scalar> 
25201
(
1146.4946
1204.7821
1146.4915
1204.7689
1457.4455
1251.0008
1168.4933
1194.0879
1271.5263
1456.2404
1271.4924
1250.9799
1352.0561
2132.2455
2214.4411
1546.7479
1670.6352
1796.5895
1862.934
2166.5157
1947.8122
1930.0871
1850.2611
2017.1553
2040.9956
2230.2006
2065.7497
1750.1727
1795.2121
2084.2177
2056.01
2008.6053
2352.9717
2317.2897
2257.9078
2208.7014
1986.8452
2031.3934
2262.6726
2295.5333
2057.8278
2072.5378
2099.7404
2369.3079
2310.7425
2247.9715
2039.9999
1750.5414
1430.2809
1351.9236
1365.9924
1443.5133
1683.5101
1617.8206
1522.4242
1530.63
1527.6329
1638.2399
1631.3627
1914.9846
1846.1322
1759.1013
1751.6165
1732.0155
1742.4692
1530.8586
1628.762
1905.8971
1906.737
2024.9495
2032.2125
1967.1498
1710.6186
1697.0159
1735.2011
2085.2396
2031.1173
2002.7028
2000.404
1960.2038
1904.7178
1832.4059
1985.9257
1969.6538
2046.4267
1906.5652
2080.4692
2126.6606
2282.9937
2193.216
2266.3767
2295.8208
2324.9144
2351.2615
2381.4309
2306.8598
2330.6413
2407.6313
2542.2491
2456.1608
2429.9968
2511.175
2476.2344
2400.2567
2369.1008
2435.7348
2564.7053
2483.8091
2410.0516
2448.6784
2570.079
2541.3042
2634.3187
2666.5609
2781.7282
2685.6372
2658.7646
2750.4343
2718.6114
2600.6509
2512.8759
2629.7161
2604.7268
2688.2107
2800.4025
2708.9088
2607.5864
2412.8351
2197.4282
2268.8683
2302.305
2318.0566
2252.3581
2238.2128
2206.6541
2158.3285
2083.1646
1989.0103
1760.096
1528.3942
1530.8694
1751.7528
1915.5467
1847.0275
1639.5846
1631.8459
1618.0758
1522.5127
1366.0242
1530.9456
1742.508
1731.9375
1907.2114
1906.0747
1628.9265
1693.7386
1443.6335
1430.5905
1712.3657
1697.7383
2033.1696
1968.7178
1907.773
1907.8612
1835.0725
1963.8418
2004.3481
2004.5104
2163.9084
2122.0082
2047.6587
1970.6974
2129.06
2013.4802
1991.0978
2115.5536
2128.2535
2150.7426
2361.4934
2331.8855
2488.4274
2445.4046
2460.1524
2537.056
2511.4324
2621.3092
2549.6879
2575.8851
2656.6615
2773.0284
2682.9709
2562.1902
2362.6952
2152.8639
2298.3659
2270.7041
2289.3301
2725.8064
2635.9096
2519.2589
2406.6542
2373.3502
2440.4023
2329.6271
2358.0586
2482.9549
2607.7535
2569.298
2487.693
2608.1541
2692.5534
2803.7694
2711.1644
2737.4713
2767.3633
2654.4071
1204.7056
1146.1954
1364.2394
1750.343
1795.1953
2099.7659
2317.4868
2056.0607
2084.3439
2057.8862
2072.5406
2310.7106
2369.2611
2352.7864
2295.6245
2262.8253
2031.4251
1986.9121
2008.8141
2257.9763
2208.8664
2126.7836
1930.293
1670.7509
209.80067
462.93816
666.38317
845.29946
1844.2368
1845.042
854.12613
673.1128
467.16505
212.12222
213.65037
472.31701
679.77694
861.65257
1848.2821
1849.6232
861.96807
680.13561
472.74034
213.94067
213.87135
472.26802
679.28316
860.77174
1850.2723
1850.6323
858.89526
677.77298
471.25873
213.62606
213.60184
470.95549
677.26169
858.18222
1850.8706
1851.1866
857.51938
676.7076
470.57404
213.52062
213.62272
470.73028
676.88542
857.67645
1851.4534
1851.8075
857.52451
676.73056
470.61308
213.60711
213.73226
470.88281
677.08467
857.90973
1852.0754
1852.3638
857.78668
676.9568
470.78381
213.71241
213.83156
471.06344
677.33347
858.2089
1852.5797
1852.7561
858.03015
677.1592
470.93018
213.79332
213.89121
471.16133
677.46577
858.36363
1852.7785
1852.7691
858.10797
677.23067
470.98578
213.83461
213.91832
471.18371
677.48731
858.37529
1852.6545
1852.5846
858.10168
677.23446
470.99331
213.85312
213.92427
471.16141
677.44691
858.31168
1852.4081
1852.2162
858.01239
677.16319
470.94373
213.84619
213.89115
471.0355
677.2607
858.07308
1851.8857
1851.4915
857.67845
676.90178
470.76662
213.79498
213.82662
470.82095
676.94471
857.67148
1851.051
1850.6311
857.24065
676.55449
470.53
213.72237
213.75129
470.57921
676.5936
857.23372
1850.1905
1849.8347
856.79302
676.19257
470.27915
213.64328
213.67196
470.33087
676.24063
856.80612
1849.4774
1849.171
856.3979
675.85893
470.04079
213.56673
213.59924
470.10049
675.91086
856.4078
1848.862
1848.5943
856.17051
675.64895
469.87615
213.5097
213.48497
469.79092
675.50174
855.94127
1848.1987
1847.358
855.46034
674.99567
469.37648
213.31984
1874.6281
780.60121
612.94916
425.87923
199.00201
199.18158
426.33387
613.52299
781.18129
1875.6396
1875.7193
781.30874
613.62474
426.3879
199.202
199.26049
426.5232
613.75149
781.39637
1875.7992
1876.0168
781.46617
613.76409
426.48681
199.2329
199.30925
426.69472
614.00691
781.71454
1876.4042
1876.8594
781.86384
614.08816
426.7097
199.29956
199.38609
426.94454
614.36838
782.16175
1877.3112
1877.8202
782.33495
614.4659
426.97002
199.38065
199.46707
427.20193
614.74232
782.62995
1878.3127
1878.8064
782.80191
614.83693
427.2243
199.46078
199.53535
427.42082
615.05994
783.02732
1879.1538
1879.4324
783.09021
615.06624
427.38193
199.50724
199.56183
427.52588
615.21695
783.23057
1879.6428
1879.7375
783.2267
615.16692
427.44642
199.51769
199.55367
427.54071
615.24342
783.27051
1879.7937
1880.1712
783.39045
615.27614
427.50848
199.51966
199.54986
427.58893
615.3243
783.38641
1880.2262
1880.2392
783.30928
615.21258
427.46468
199.48447
199.48815
427.48044
615.17239
783.20133
1879.9133
1879.5846
782.97
614.94123
427.27525
199.39117
199.3786
427.26695
614.87597
782.84193
1879.2434
1878.9003
782.62064
614.65127
427.06352
199.2738
199.26411
427.09672
614.65383
782.58419
1878.5757
1878.2858
782.61374
614.62064
427.01656
199.18606
199.23659
427.29346
614.99316
783.05183
1877.9109
1877.969
784.09306
615.73634
427.71873
199.29765
199.51753
428.62112
617.06135
785.749
1877.7746
1877.641
787.37018
618.22759
429.27983
199.63592
199.46847
429.01999
618.016
787.20735
1876.7892
1875.1299
782.56574
614.08201
426.07718
198.4882
196.95381
419.77617
605.6338
772.43184
1872.5286
1860.7813
739.49872
575.48797
395.70339
189.3237
197.04179
420.80401
606.99045
773.98212
1876.1191
1877.505
783.54307
614.86231
426.62458
198.45787
199.51451
429.51361
618.71775
788.06915
1878.3836
1878.4584
787.70864
618.5062
429.50174
199.63092
199.52178
428.7982
617.31447
786.06814
1878.3261
1878.1504
784.02241
615.6878
427.7171
199.264
199.2264
427.34791
615.07401
783.16392
1878.1101
1878.1612
782.44453
614.4768
426.93892
199.14227
199.21975
427.01322
614.53771
782.45476
1878.3056
1878.4656
782.20166
614.30892
426.85035
199.19378
199.301
427.06681
614.5929
782.50724
1878.5683
1878.6933
782.32691
614.41952
426.93853
199.27436
199.37381
427.15927
614.71326
782.64674
1878.7727
1878.8663
782.44877
614.52549
427.01983
199.33607
199.42454
427.22612
614.80095
782.74763
1878.8891
1878.8833
782.50819
614.57912
427.06193
199.37361
199.44935
427.2409
614.81469
782.75587
1878.8107
1878.7124
782.47681
614.5623
427.05596
199.38858
199.45845
427.22484
614.78302
782.70486
1878.5913
1878.4842
782.41667
614.5222
427.03325
199.39287
199.45616
427.1895
614.72463
782.62111
1878.3122
1878.1047
782.33881
614.45317
426.98229
199.38124
199.41833
427.06253
614.54167
782.39597
1877.8758
1877.5671
782.00449
614.19226
426.80683
199.32798
199.36979
426.90271
614.3093
782.10547
1877.2828
1877.0641
781.74632
613.98352
426.6613
199.28456
199.33433
426.77828
614.13231
781.89047
1876.8912
1876.8352
781.63544
613.88138
426.58469
199.26596
199.33237
426.74077
614.07788
781.83149
1876.872
1877.0654
781.72883
613.96223
426.65042
199.29869
199.40279
426.93992
614.33905
782.13429
1877.2824
1877.5424
782.39706
614.47741
426.97416
199.39266
199.2672
426.64119
614.01318
781.86955
1877.8024
210.53727
459.97093
660.96504
837.79865
1832.4396
1831.8579
838.03801
661.262
460.21526
210.63945
210.63371
460.15233
661.10156
837.7676
1831.064
1830.4732
837.4639
660.81849
459.90871
210.54021
210.56294
459.94936
660.81757
837.40624
1830.1926
1830.1294
837.32482
660.71269
459.83155
210.50561
210.56412
459.98065
660.86096
837.44882
1830.1496
1830.2816
837.48493
660.85113
459.93071
210.53217
210.60235
460.10765
661.0374
837.65511
1830.4223
1830.9931
837.87425
661.15935
460.13965
210.59622
210.6741
460.33584
661.36973
838.07035
1831.2395
1831.5321
838.14491
661.38358
460.29884
210.64667
210.71264
460.46637
661.56062
838.31088
1831.7146
1831.8487
838.31691
661.51917
460.39103
210.6708
210.72526
460.53153
661.65988
838.44204
1832.0302
1832.261
838.47367
661.63361
460.46331
210.68267
210.73049
460.58921
661.75134
838.56749
1832.3783
1832.4501
838.52713
661.66957
460.48404
210.6736
210.70849
460.58174
661.74881
838.57501
1832.4918
1832.4336
838.46931
661.61611
460.4417
210.6362
210.65571
460.50868
661.65281
838.46542
1832.3731
1832.2199
838.31671
661.48524
460.34355
210.56902
210.57585
460.39526
661.50233
838.28948
1832.1099
1831.9974
838.18557
661.36738
460.2491
210.48573
210.49389
460.34047
661.44492
838.23405
1831.8395
1831.7588
838.37539
661.50101
460.31955
210.42889
210.50604
460.69409
662.00318
838.96171
1831.5687
1831.8432
840.20594
662.92239
461.24539
210.59625
210.86118
462.34003
664.50626
842.15482
1831.9274
1832.075
843.95412
665.83413
463.11493
210.97555
210.77449
463.05914
665.87894
844.08578
1831.9608
1831.4751
839.58666
662.06743
460.23794
209.64482
208.13013
455.65585
655.34474
831.08314
1830.7414
1847.4647
846.92995
667.94677
464.19762
209.17251
211.95599
466.80056
672.74287
853.8357
1845.7238
1848.3387
861.54524
679.66898
472.23542
213.5305
213.96601
472.84448
680.25286
862.05159
1849.1155
1849.5356
860.36329
678.92402
472.00446
213.75739
213.63585
471.28507
677.773
858.82802
1849.7452
1849.9513
857.6185
676.77428
470.60184
213.46771
213.51172
470.53104
676.60711
857.32759
1850.1901
1850.362
856.99557
676.30773
470.31617
213.47221
213.58509
470.52407
676.56286
857.24595
1850.6031
1850.7966
857.15898
676.4471
470.42547
213.56823
213.67354
470.64345
676.71896
857.42763
1850.931
1851.0412
857.32229
676.58732
470.53195
213.64383
213.73384
470.727
676.83136
857.56144
1851.1332
1851.0845
857.35407
676.62348
470.56487
213.68237
213.75946
470.73532
676.83463
857.55589
1851.0294
1850.8507
857.29569
676.58709
470.54656
213.69581
213.76669
470.70663
676.78198
857.47482
1850.7366
1850.5795
857.24297
676.54796
470.52228
213.7007
213.76121
470.65646
676.70332
857.3685
1850.4595
1850.2898
857.10008
676.44527
470.45774
213.68913
213.74952
470.599
676.61514
857.25108
1850.161
1849.9639
856.98468
676.34932
470.3901
213.67134
213.71653
470.48786
676.45525
857.05413
1849.7795
1849.544
856.73904
676.1491
470.25069
213.62845
213.67045
470.33953
676.24449
856.79967
1849.3388
1849.2128
856.49296
675.95095
470.11486
213.58854
213.65721
470.28231
676.16549
856.7114
1849.2648
1849.4313
856.55329
675.9871
470.13584
213.602
213.69671
470.38432
676.31525
856.91087
1849.8051
1850.194
856.99438
676.30777
470.33498
213.66465
213.69452
470.41274
676.40513
857.08051
1850.5036
1850.3472
856.85254
676.08083
470.11166
213.56594
210.4961
459.84324
660.77218
837.5471
1831.8384
1831.7195
837.9813
661.20487
460.16887
210.62168
210.62995
460.14456
661.0953
837.76628
1831.0965
1830.6486
837.49309
660.8373
459.91953
210.54356
210.56996
459.96937
660.84859
837.44762
1830.3092
1830.2519
837.32311
660.71039
459.83043
210.50642
210.56702
459.98816
660.875
837.47023
1830.237
1830.4626
837.49276
660.85473
459.9322
210.53325
210.61501
460.14816
661.10387
837.74877
1830.7118
1831.0758
837.82257
661.12284
460.11861
210.59087
210.67456
460.33941
661.37986
838.08999
1831.339
1831.6836
838.15446
661.38881
460.30159
210.64736
210.72173
460.49651
661.60884
838.37719
1831.8993
1832.1749
838.43464
661.60563
460.4469
210.68828
210.7527
460.61709
661.78894
838.61004
1832.4228
1832.8149
838.68237
661.79256
460.56912
210.717
210.77287
460.71873
661.94444
838.81648
1832.9473
1833.1026
838.80721
661.88411
460.62752
210.72066
210.75925
460.73533
661.97579
838.86497
1833.1325
1833.2096
838.82227
661.88596
460.6216
210.69505
210.71348
460.68153
661.90613
838.78627
1833.07
1832.9172
838.66711
661.75298
460.52256
210.62816
210.63139
460.56084
661.74536
838.59815
1832.7924
1832.5712
838.43022
661.55699
460.37825
210.52959
210.53118
460.45043
661.60684
838.44109
1832.3129
1832.1086
838.51421
661.60687
460.3915
210.45377
210.53364
460.7781
662.13115
839.13211
1832.0153
1832.1758
840.3072
662.9984
461.29719
210.61419
210.88024
462.39846
664.59346
842.27065
1832.2547
1832.4105
844.04033
665.89852
463.15983
210.99195
210.77163
463.05953
665.88478
844.10009
1832.159
1831.5447
839.45714
661.96718
460.17768
209.633
207.94542
455.45269
655.12047
830.84824
1831.2762
1877.5114
775.35249
608.55322
422.38301
196.79756
198.42494
426.41788
614.55295
783.15541
1877.187
1878.4935
788.02262
618.64753
429.45272
199.44916
199.73327
429.76476
618.85371
788.08981
1878.8653
1878.9122
786.17494
617.34913
428.79902
199.51355
199.3819
428.04081
616.13902
784.54964
1878.8444
1878.8438
783.29144
615.12004
427.35375
199.22129
199.25699
427.25298
614.91163
782.94918
1879.0088
1879.1631
782.58201
614.59908
427.03833
199.22304
199.34003
427.26104
614.88361
782.8788
1879.3994
1879.6529
782.83838
614.80909
427.19364
199.33622
199.44055
427.41213
615.08809
783.12446
1879.9088
1880.0748
783.06745
614.99746
427.33077
199.42282
199.50951
427.51712
615.22947
783.29121
1880.1478
1880.154
783.19099
615.10024
427.40594
199.47535
199.54089
427.54174
615.25777
783.31848
1880.1044
1879.9901
783.13815
615.06721
427.38943
199.48959
199.54315
427.49978
615.19033
783.22512
1879.8013
1879.554
782.97472
614.94475
427.30995
199.47685
199.51809
427.39185
615.03079
783.02183
1879.3321
1879.0225
782.65187
614.70271
427.15244
199.43525
199.47773
427.2487
614.81816
782.74911
1878.6996
1878.3447
782.34192
614.45785
426.98596
199.38516
199.42021
427.06247
614.5466
782.40833
1877.9791
1877.6271
781.98434
614.1747
426.79243
199.32572
199.36661
426.88699
614.2928
782.09264
1877.3182
1877.0676
781.72054
613.95553
426.63755
199.27899
199.32617
426.74477
614.08892
781.84662
1876.8778
1876.7262
781.54332
613.80915
426.53725
199.25448
199.31786
426.69856
614.01278
781.74829
1876.5917
1876.4061
781.64398
613.85635
426.54787
199.24947
199.21183
426.42631
613.65112
781.33931
1876.0378
1875.5127
781.0634
613.31279
426.13132
199.08972
1848.6185
855.5511
675.05329
469.41309
213.33458
213.49395
469.83351
675.58326
856.08801
1848.9616
1849.3979
856.52951
675.91895
470.03507
213.55492
213.62218
470.16779
676.00367
856.51321
1849.1538
1848.9956
856.58153
676.01118
470.12361
213.59276
213.65307
470.26455
676.13073
856.64368
1849.1329
1849.2753
856.79065
676.19823
470.25976
213.63461
213.70701
470.4355
676.37087
856.92698
1849.5176
1849.7927
857.12175
676.47211
470.45197
213.69578
213.7713
470.63948
676.66597
857.29188
1850.2006
1850.6293
857.58122
676.83266
470.69515
213.77086
213.84641
470.88278
677.02302
857.74198
1851.0989
1851.4512
857.97422
677.14412
470.9079
213.83539
213.89902
471.06403
677.2904
858.08298
1851.8108
1852.0311
858.2196
677.3375
471.03973
213.87046
213.91737
471.15148
677.42127
858.25369
1852.2089
1852.2526
858.26018
677.36774
471.05997
213.86498
213.89801
471.14174
677.4146
858.25698
1852.3192
1852.2929
858.22457
677.32966
471.02776
213.83476
213.85459
471.08134
677.33668
858.17174
1852.2675
1852.1053
858.07421
677.20115
470.93272
213.77545
213.77786
470.95091
677.15838
857.95965
1851.9516
1851.6583
857.8008
676.97463
470.7685
213.68071
213.67034
470.77512
676.91953
857.67422
1851.4167
1851.1199
857.67528
676.8526
470.66468
213.58418
213.59735
470.78459
676.96533
857.75542
1850.9871
1850.7025
858.20038
677.25257
470.91172
213.56766
213.71288
471.51782
678.09862
859.21488
1850.4645
1850.1182
860.85425
679.33688
472.27629
213.84351
214.02763
473.05006
680.52374
862.35525
1849.5089
1848.3675
861.92541
679.98257
472.43362
213.5824
212.00095
467.09299
673.02484
854.0499
1845.1714
1846.0965
846.85944
667.9809
464.28956
209.27986
209.86164
463.57004
667.25484
846.32802
1846.014
1846.3308
854.92524
673.77962
467.64482
212.17217
213.62025
472.4434
679.93889
861.83431
1848.6301
1849.3576
862.13912
680.27782
472.83491
213.93014
213.82619
472.20163
679.16089
860.58247
1849.6198
1849.7524
858.85219
677.7491
471.24255
213.60137
213.53983
470.79768
677.00895
857.83272
1849.9134
1850.1295
857.27325
676.52692
470.45354
213.47114
213.54649
470.51172
676.54569
857.21941
1850.2887
1850.4432
857.18888
676.47335
470.43544
213.54155
213.62901
470.57541
676.61759
857.29502
1850.602
1850.6844
857.30459
676.57815
470.5199
213.61965
213.6984
470.66077
676.72776
857.421
1850.763
1850.8354
857.39437
676.66097
470.5867
213.67611
213.74675
470.72189
676.80639
857.50865
1850.8384
1850.8152
857.44429
676.70723
470.62396
213.71157
213.77
470.73287
676.81265
857.50402
1850.7247
1850.6121
857.43086
676.70246
470.62399
213.72729
213.77297
470.70094
676.76045
857.43044
1850.5091
1850.4098
857.31579
676.62236
470.57598
213.72374
213.77272
470.67092
676.71069
857.3583
1850.2851
1850.1754
857.25447
676.56982
470.53726
213.71712
213.74398
470.56732
676.56058
857.17189
1849.933
1849.7148
857.00241
676.36794
470.39871
213.6762
213.6975
470.41577
676.34415
856.90852
1849.4809
1849.314
856.70164
676.12334
470.22957
213.62413
213.65461
470.27638
676.14895
856.67863
1849.1958
1849.2242
856.53401
675.97978
470.12765
213.59574
213.65885
470.26636
676.13788
856.6789
1849.3724
1849.7273
856.74591
676.14309
470.2427
213.64256
213.75402
470.53775
676.51598
857.1437
1850.2933
1850.8954
857.59704
676.78186
470.64188
213.76434
213.60692
470.20059
676.1577
856.87001
1850.7919
1201.6288
1243.8716
1201.6338
1243.8544
1364.0983
1278.7003
1212.7807
1242.8822
1301.3935
1278.7438
1456.6368
1456.9856
1301.4029
1379.2944
1520.6611
1529.3501
1521.2207
1727.0619
1736.8475
1898.2641
1625.5846
1614.9428
1900.5545
2018.4744
1678.9709
1433.6675
1448.0494
1675.5072
1612.6642
1619.9455
1526.4234
1726.5366
1720.135
1890.76
1885.5948
2000.956
1681.8702
1718.456
1711.1281
1725.876
1689.0979
2014.9495
2067.4707
2070.9575
1714.6416
1731.0252
1720.1574
1683.9017
2025.4293
2023.3508
2075.9695
2078.0101
2086.3418
2033.2369
1752.5585
1736.1043
1736.1341
1430.6518
1204.7464
1146.2266
1251.0076
1352.2095
1829.2826
828.05304
652.80807
453.83515
207.97701
209.4881
458.93619
660.17797
837.27411
1829.2605
1829.8952
841.96355
664.08209
461.76591
210.48227
210.85063
462.41659
664.81013
842.69488
1830.2145
1830.3504
840.8105
663.35242
461.50291
210.63559
210.51025
460.81764
662.2635
839.36978
1830.413
1830.6104
837.99497
661.16611
460.08686
210.3262
210.38802
460.09262
661.124
837.88041
1830.8451
1831.1489
837.55026
660.82925
459.88537
210.34884
210.46529
460.11559
661.12273
837.85374
1831.4248
1831.6748
837.69846
660.96911
460.00113
210.44384
210.55889
460.26141
661.31839
838.08795
1831.8933
1831.9937
837.85885
661.11127
460.11135
210.51872
210.6214
460.35521
661.44206
838.23124
1832.0705
1832.1107
837.93858
661.18556
460.17181
210.5655
210.65935
460.40299
661.50005
838.29042
1832.0645
1831.9707
837.97608
661.21749
460.19584
210.59048
210.66038
460.36138
661.43337
838.19978
1831.814
1831.5933
837.80149
661.09186
460.11824
210.57844
210.65039
460.29827
661.33138
838.05725
1831.3952
1831.157
837.69062
661.00153
460.05546
210.56462
210.61686
460.17791
661.15114
837.82383
1830.8476
1830.5677
837.44939
660.80559
459.91948
210.52328
210.56117
460.0013
660.89643
837.50884
1830.2279
1829.8674
837.07909
660.50952
459.71651
210.45919
210.50289
459.81674
660.63133
837.18451
1829.6346
1829.481
836.78171
660.27527
459.55798
210.41191
210.48655
459.74999
660.53537
837.07079
1829.4747
1829.6243
836.87305
660.32951
459.58848
210.42727
210.52342
459.83978
660.66191
837.2355
1829.9259
1830.3852
837.33074
660.67814
459.81686
210.50427
210.57189
460.00791
660.94079
837.62187
1830.9453
1831.5548
837.63574
660.81644
459.84554
210.4879
210.23697
459.05011
659.58275
835.99511
1828.0598
1828.8969
836.75337
660.23776
459.50549
210.39962
210.45943
459.6369
660.3567
836.83023
1829.0049
1829.1277
836.8518
660.32486
459.56209
210.4194
210.4987
459.77533
660.57235
837.1025
1829.5382
1830.0134
837.38332
660.74129
459.83803
210.50177
210.60266
460.10505
661.05155
837.69402
1830.6667
1831.2136
837.9398
661.19735
460.1567
210.60467
210.69999
460.40543
661.4821
838.22342
1831.6775
1832.2415
838.48005
661.63145
460.45725
210.70154
210.78828
460.67891
661.87416
838.7085
1832.6106
1832.8896
838.8317
661.91869
460.65962
210.76517
210.82942
460.82274
662.08371
838.97223
1833.1293
1833.3164
839.03828
662.0768
460.76443
210.79112
210.84296
460.89685
662.19918
839.12849
1833.5276
1833.6364
839.22553
662.20729
460.84357
210.80284
210.84768
460.96096
662.30491
839.27815
1833.9847
1833.8673
839.12432
662.13115
460.7931
210.76973
210.78496
460.83547
662.12775
839.06239
1833.6248
1833.4048
838.8863
661.92973
460.64587
210.69403
210.6912
460.6485
661.86829
838.74937
1833.1018
1832.9207
838.60766
661.69012
460.46684
210.59528
210.58453
460.46712
661.626
838.46506
1832.6024
1832.1668
838.26798
661.40947
460.26073
210.47211
210.4847
460.37678
661.5326
838.37936
1831.8381
1831.5439
838.77735
661.78006
460.47661
210.45286
210.61293
461.11275
662.68621
839.88347
1831.3828
1831.2189
841.56427
663.94647
461.8821
210.76647
210.96748
462.7228
665.25197
843.23464
1830.9582
1830.1827
842.85228
664.76571
462.18599
210.65529
209.71801
459.44281
660.94814
838.24001
1828.7421
1826.2828
829.0827
653.36125
453.93984
208.14086
204.23376
441.55771
636.76771
809.86288
1818.9433
1844.0818
864.82239
684.37377
477.12654
219.94649
209.17372
463.77149
667.11677
845.61866
1843.9035
1842.3052
851.65851
671.03497
465.66886
211.73727
213.45421
471.67987
678.78819
860.35881
1845.9229
1847.3273
860.72172
679.15049
472.07099
213.77938
213.73815
471.73799
678.49857
859.77175
1848.2365
1848.7066
857.98557
677.05551
470.77042
213.50057
213.47864
470.50189
676.59577
857.33527
1849.114
1849.4062
856.72159
676.07007
470.13379
213.39436
213.47682
470.24124
676.16758
856.76257
1849.5258
1849.6401
856.64836
676.02548
470.1229
213.45447
213.5493
470.30382
676.23879
856.83998
1849.863
1850.0888
856.68951
676.08519
470.18587
213.52079
213.62936
470.43772
676.41899
857.05359
1850.2049
1850.2382
856.85251
676.22553
470.29008
213.58477
213.67485
470.4986
676.49516
857.13556
1850.2491
1850.3383
856.90428
676.27548
470.33246
213.62024
213.7052
470.53809
676.54588
857.19151
1850.291
1850.1919
856.90143
676.28063
470.34091
213.63774
213.71398
470.52645
676.52045
857.14843
1850.1102
1850.0335
856.8424
676.24434
470.32281
213.64255
213.71937
470.51814
676.50289
857.11847
1849.9748
1849.8408
856.79669
676.20885
470.29795
213.63974
213.69801
470.44023
676.38971
856.97727
1849.6871
1849.4934
856.60467
676.05219
470.18914
213.60734
213.66099
470.31642
676.2086
856.7496
1849.2231
1849.0628
856.44459
675.91361
470.08889
213.57714
213.63242
470.21872
676.07353
856.59471
1849.0445
1849.1168
856.30856
675.80466
470.01558
213.55909
213.64446
470.23657
676.09966
856.63719
1849.2383
1849.4423
856.53014
675.96819
470.1252
213.60044
213.7058
470.39244
676.29504
856.85375
1849.5386
1849.3534
857.29733
676.54101
470.48469
213.7177
213.5419
469.93568
675.61464
856.09669
1848.6264
210.19986
458.93839
659.42245
835.79154
1827.6476
1828.6524
836.55972
660.07232
459.38434
210.35588
210.41682
459.52534
660.20549
836.65565
1828.8583
1829.0463
836.79864
660.27015
459.5185
210.39989
210.49859
459.78029
660.58074
837.11634
1829.5821
1830.1038
837.41159
660.76997
459.86337
210.51122
210.62438
460.16611
661.13381
837.79136
1830.7463
1831.1905
837.95428
661.22802
460.19141
210.62029
210.72026
460.45484
661.54544
838.29331
1831.6182
1832.0308
838.35483
661.55077
460.41288
210.69269
210.76957
460.62006
661.79289
838.611
1832.3502
1832.6365
838.59228
661.73513
460.53655
210.72439
210.79422
460.72584
661.94964
838.81429
1832.8481
1832.993
838.89068
661.95705
460.68126
210.7622
210.82269
460.8381
662.11783
839.0325
1833.3619
1833.6214
839.09712
662.10962
460.77923
210.78239
210.82667
460.89483
662.20857
839.15758
1833.7344
1833.594
838.92584
661.98143
460.69531
210.73936
210.75316
460.73657
661.98468
838.88458
1833.2649
1833.0022
838.61686
661.72356
460.50938
210.65116
210.65413
460.53403
661.70557
838.55065
1832.7249
1832.5453
838.32602
661.47563
460.32457
210.55135
210.5473
460.34767
661.45557
838.25571
1832.2021
1831.8536
838.03058
661.22608
460.13727
210.43551
210.45523
460.27368
661.38523
838.1978
1831.484
1831.3498
838.60148
661.64384
460.38457
210.42923
210.59434
461.03009
662.56584
839.73313
1831.09
1830.9359
841.36427
663.79326
461.78083
210.74496
210.9507
462.62892
665.11146
843.05799
1830.636
1829.7689
842.70739
664.65377
462.11769
210.65079
209.72105
459.40951
660.87875
838.14448
1828.5109
1826.169
829.16838
653.45609
454.03594
208.18024
204.60547
442.85391
638.31689
811.5361
1819.3001
1860.8895
746.19962
581.83499
400.86586
191.54541
211.91066
458.62223
659.83326
836.83787
1838.7658
1843.5348
838.9197
662.00837
460.8825
212.84542
207.88068
454.12483
653.30411
828.71321
1830.153
1829.8043
837.46441
660.30363
459.01748
209.47662
210.57295
462.09808
664.56022
842.53484
1830.2632
1830.4453
842.69273
664.77033
462.3715
210.80795
210.72302
461.78321
663.73315
841.24156
1830.5247
1830.4847
839.30417
662.17573
460.73976
210.46463
210.41424
460.34956
661.52043
838.38893
1830.5921
1830.7893
837.78255
661.00424
459.98809
210.33713
210.41917
460.07913
661.07475
837.79176
1831.0396
1831.3037
837.70763
660.96861
459.99038
210.41109
210.52178
460.21336
661.24562
837.98789
1831.5889
1831.8128
837.94015
661.16983
460.14368
210.50964
210.61143
460.36561
661.45051
838.22933
1831.9621
1832.0398
838.15842
661.34745
460.27017
210.58245
210.65275
460.41132
661.50833
838.29413
1832.0109
1831.977
838.11882
661.3254
460.26321
210.60272
210.66428
460.38962
661.4664
838.22856
1831.7613
1831.5834
838.02717
661.25941
460.22166
210.60379
210.64864
460.30394
661.33549
838.05672
1831.3466
1831.2041
837.79308
661.08723
460.11298
210.57996
210.63397
460.23277
661.22487
837.90786
1830.9574
1830.7361
837.65705
660.97856
460.03822
210.56113
210.60176
460.12044
661.05893
837.69642
1830.4934
1830.2235
837.44461
660.80155
459.91302
210.52237
210.55055
459.95673
660.82185
837.40213
1829.9155
1829.6508
837.17582
660.57812
459.75562
210.47286
210.50579
459.8119
660.61973
837.1655
1829.5868
1829.6067
836.95861
660.40575
459.64023
210.44172
210.52
459.83242
660.64986
837.21307
1829.8089
1830.1663
837.2522
660.63069
459.79572
210.501
210.62688
460.12683
661.05509
837.70323
1830.7915
1831.5218
838.25151
661.41462
460.30899
210.66907
210.56692
460.05108
661.07196
837.89313
1832.1828
1879.386
782.31162
614.28848
426.78443
199.30307
199.4105
427.01263
614.50843
782.42146
1878.6275
1877.6286
782.12961
614.27745
426.84021
199.35321
199.34638
426.77916
614.11701
781.85572
1876.9012
1876.3688
781.66837
613.92451
426.60016
199.27153
199.29507
426.64473
613.92236
781.60007
1876.1338
1876.1075
781.62506
613.89752
426.58154
199.25765
199.30822
426.70242
614.00229
781.68916
1876.1846
1876.5981
781.85702
614.08503
426.71015
199.29495
199.35412
426.85182
614.21787
781.95454
1876.716
1876.8651
782.00974
614.21599
426.80524
199.32452
199.3754
426.92834
614.32962
782.09435
1877.0127
1877.1967
782.14561
614.32172
426.87574
199.34193
199.3886
426.9912
614.42561
782.22085
1877.3419
1877.6021
782.32161
614.45094
426.95786
199.35894
199.40604
427.07908
614.56174
782.40303
1877.8474
1877.9062
782.55174
614.6182
427.06354
199.37958
199.42007
427.16952
614.70183
782.58943
1878.3664
1878.4374
782.67111
614.70691
427.1197
199.37979
199.40207
427.18134
614.7261
782.62659
1878.5347
1878.4034
782.51197
614.58672
427.03813
199.32796
199.32424
427.04199
614.53065
782.38588
1878.0766
1877.8721
782.24969
614.36909
426.87916
199.23562
199.22472
426.88841
614.32619
782.1445
1877.6127
1877.3984
782.1765
614.28779
426.802
199.14911
199.16202
426.92334
614.41293
782.2816
1877.3169
1877.0975
782.74019
614.70897
427.05826
199.13856
199.27686
427.644
615.54604
783.76963
1877.0105
1877.0299
785.47655
616.81865
428.42089
199.42153
199.62615
429.26495
618.12383
787.15653
1877.0554
1877.0229
787.11291
617.91822
428.92001
199.33937
198.35009
425.67584
613.53496
781.94641
1876.0433
1877.0737
774.52566
607.85888
421.85274
196.72431
1864.5028
738.18921
574.65078
395.41102
188.67895
196.73807
419.03992
604.45171
770.89793
1873.2101
1874.3273
781.18219
612.99309
425.37302
198.24537
199.33184
428.5428
617.29316
786.28405
1875.5228
1876.0227
786.44257
617.49246
428.801
199.49883
199.41777
428.26764
616.54148
785.09576
1876.344
1876.5015
783.40885
615.18124
427.35619
199.19347
199.14512
426.98756
614.55204
782.51098
1876.752
1877.0077
781.92779
614.06477
426.6536
199.07617
199.16245
426.77124
614.18057
781.99752
1877.2585
1877.494
781.92635
614.08582
426.6924
199.15707
199.26117
426.90279
614.34518
782.18138
1877.7474
1877.9459
782.20686
614.31241
426.856
199.25461
199.3358
427.01662
614.49699
782.36108
1878.0414
1878.1076
782.33774
614.42455
426.94123
199.31358
199.37997
427.07368
614.57232
782.45038
1878.1642
1878.145
782.32192
614.42855
426.95527
199.34105
199.40713
427.10099
614.60251
782.47634
1878.0927
1877.9399
782.33575
614.43977
426.96359
199.35744
199.4016
427.04638
614.51471
782.35511
1877.7075
1877.5313
782.19357
614.33108
426.89315
199.3441
199.37981
426.95916
614.38726
782.19539
1877.3486
1877.0527
781.91783
614.12315
426.75668
199.30604
199.34099
426.82711
614.19127
781.94468
1876.7476
1876.3899
781.65629
613.91236
426.61054
199.26087
199.28487
426.64674
613.92895
781.618
1876.0575
1875.8416
781.33064
613.65396
426.43568
199.20779
199.25157
426.53242
613.7647
781.41843
1875.7134
1875.7446
781.23958
613.57195
426.37605
199.19339
199.26136
426.54105
613.77844
781.4463
1875.9318
1876.2902
781.46677
613.74705
426.49857
199.24146
199.35381
426.796
614.12774
781.86655
1876.8468
1877.4821
782.35532
614.44307
426.94973
199.38687
199.28271
426.68177
614.07217
781.94622
1878.0093
213.54557