/*--------------------------------*- C++ -*----------------------------------*\
  =========                 |
  \\      /  F ield         | OpenFOAM: The Open Source CFD Toolbox
   \\    /   O peration     | Website:  https://openfoam.org
    \\  /    A nd           | Version:  7
     \\/     M anipulation  |
\*---------------------------------------------------------------------------*/
FoamFile
{
    version     2.0;
    format      ascii;
    class       volScalarField;
    location    "80";
    object      nut;
}
// * * * * * * * * * * * * * * * * * * * * * * * * * * * * * * * * * * * * * //

dimensions      [0 2 -1 0 0 0 0];

internalField   nonuniform List<scalar> 
25201
(
7.0004861
7.2249584
7.0004713
7.2249247
7.918535
7.4594002
7.1538625
7.1370299
7.4347311
7.882546
7.4345885
7.4593
7.7197222
8.3260842
8.2554522
8.1287697
8.2200651
8.2751985
8.3733415
8.3990811
8.3957303
8.2997359
8.2931749
8.333259
8.4161034
8.3914112
8.294305
8.2208312
8.1957151
8.3004017
8.3372149
8.3722449
8.2060778
8.2733323
8.3438981
8.2442754
8.2618861
8.2179708
8.1692507
8.0960692
8.1751109
8.150909
8.2778531
8.166965
8.0566471
7.9730929
8.0705716
8.1259124
7.8360373
7.7192483
7.6908622
7.8195759
8.1183854
8.1146676
8.0343778
8.0535767
8.0786113
8.1571912
8.1275809
8.1379484
8.1387373
8.2143281
8.1676568
8.1707929
8.1680852
8.0301289
8.1153769
8.1436184
8.1288924
7.9848135
7.9960034
8.0549846
8.1523084
8.1224955
8.0949883
7.8751105
7.9501638
8.0247166
8.1444094
8.1842463
8.2399236
8.239001
8.2864435
8.2178158
8.2076313
8.1492609
8.249688
8.3149491
8.3381266
8.3016328
8.2469471
8.1612569
8.2350565
8.3199783
8.3688589
8.3851203
8.4468587
8.4335028
8.375884
8.4120255
8.3532434
8.3241963
8.2740472
8.3107728
8.2448248
8.2242014
8.1242199
8.1773956
8.1894842
8.2900143
8.3389099
8.2843529
8.2322527
8.2817182
8.1545026
8.2355327
8.1802473
8.1079147
8.0614056
8.1807197
8.2381663
8.1428116
8.0883496
8.0138905
7.8684107
7.9818682
8.049565
8.1943701
8.3096916
8.1810955
8.1088761
8.0704416
7.9824541
8.0183892
8.0972389
8.1681116
8.2563937
8.2936637
8.2171065
8.0809664
8.0543472
8.1683279
8.1391204
8.141868
8.1610896
8.1288611
8.1152727
8.0346958
7.6909722
8.0304275
8.1683367
8.1708416
8.1294543
8.1438107
8.1156993
8.1216536
7.8198646
7.8368843
8.1569854
8.1242404
7.9977973
8.0588686
8.1530946
8.2476921
8.2458113
8.1926426
8.1532634
8.0289727
8.0433997
8.1003585
8.211155
8.2210068
8.189948
8.2081378
8.1681972
8.1744136
8.1878693
8.2467809
8.1377707
8.0697186
7.9325331
8.0316219
8.1260722
8.0635491
7.9856822
7.9363111
7.9975571
8.0557329
7.9714144
7.8306881
7.9511003
7.9872277
8.1401709
8.2515744
8.1666439
8.2555821
8.3490028
8.0720782
8.1521046
8.2482738
8.321353
8.2530174
8.2330722
8.2444629
8.331639
8.2849928
8.1917912
8.1323669
8.1844354
8.0941871
8.0211896
7.8739279
7.9857043
8.0359537
8.0742466
8.1401385
7.2252005
7.0007102
7.8102916
8.2219249
8.1958688
8.2779809
8.2740582
8.3378991
8.3009385
8.1755574
8.1509416
8.0565661
8.1669126
8.2058855
8.0962996
8.1698494
8.2185527
8.2629333
8.3733686
8.3445919
8.2451237
8.3161898
8.3012497
8.2213961
0.0015572049
0.010838427
0.026394674
0.044491654
0.54527633
0.55098725
0.045740969
0.027083719
0.011107819
0.0015958473
0.0016192953
0.011352221
0.027673115
0.046719158
0.55965278
0.56473654
0.046978032
0.027837314
0.011424854
0.0016279997
0.001630202
0.011438796
0.027860595
0.04699293
0.56786397
0.5695665
0.046906374
0.02781938
0.011426213
0.0016299089
0.0016299642
0.011421252
0.027802709
0.046865457
0.57048257
0.57098408
0.046824266
0.027781092
0.011414001
0.0016296917
0.0016300879
0.011416022
0.027785917
0.046828356
0.57126032
0.57145463
0.046815708
0.027778123
0.011413374
0.001630028
0.0016305001
0.011417535
0.027789416
0.046833171
0.57159256
0.57172038
0.046823275
0.027782903
0.011415331
0.0016304191
0.0016308655
0.01141985
0.027795441
0.046843472
0.57182853
0.57192762
0.046832198
0.027788004
0.011417239
0.0016307131
0.0016310785
0.011421062
0.027798736
0.046849275
0.57198734
0.57203697
0.046835162
0.027789682
0.011417832
0.0016308569
0.0016311693
0.011421168
0.027799085
0.046849779
0.57205833
0.57209021
0.046835622
0.027789913
0.011417831
0.0016309181
0.0016311869
0.011420833
0.027798508
0.046848835
0.57209739
0.57209775
0.046835193
0.027789296
0.011417309
0.0016308927
0.0016310668
0.011419175
0.027794935
0.04684324
0.57206263
0.57199416
0.046826107
0.027783743
0.01141488
0.0016307046
0.0016308262
0.011416134
0.027787837
0.046831502
0.57191197
0.57181554
0.046812925
0.027775679
0.011411432
0.0016304292
0.0016305342
0.011412585
0.027779664
0.046818337
0.57170344
0.57159078
0.046799006
0.027767073
0.011407702
0.0016301181
0.001630223
0.011408894
0.027771225
0.04680475
0.5714625
0.57132356
0.04678649
0.027759262
0.011404216
0.0016298265
0.001629962
0.01140561
0.027763687
0.046792325
0.57117296
0.57101766
0.046784053
0.02775721
0.011402677
0.0016296433
0.0016295747
0.011402417
0.027756798
0.046782131
0.57083192
0.57050294
0.046774556
0.027748527
0.011397763
0.0016289829
0.63667094
0.042336758
0.025355987
0.010497529
0.0015457702
0.0015464311
0.01050332
0.025367404
0.042350299
0.63708117
0.63726255
0.042347374
0.025366249
0.010503035
0.001546487
0.0015466976
0.010504322
0.025367856
0.042348383
0.6374443
0.63761582
0.04234501
0.025365637
0.010503415
0.0015465812
0.0015468732
0.010506658
0.025372909
0.042356491
0.63782787
0.63801128
0.042357137
0.025373285
0.010506794
0.0015468386
0.0015471758
0.010510483
0.025381663
0.042370488
0.63818721
0.63833787
0.042371871
0.025382474
0.010510795
0.0015471579
0.0015474911
0.010514473
0.025390861
0.042385266
0.63848354
0.63858813
0.042386808
0.025391714
0.010514754
0.0015474634
0.0015477465
0.010517729
0.025398279
0.042397031
0.63865072
0.63866095
0.042394009
0.025396365
0.010516904
0.0015476339
0.0015478417
0.010519078
0.025401109
0.042401439
0.63866746
0.63861809
0.042396671
0.02539807
0.010517741
0.0015476708
0.0015478123
0.010519234
0.025401075
0.042401039
0.63858123
0.63859638
0.042402732
0.02540136
0.010518972
0.0015476854
0.001547808
0.010520204
0.025403348
0.042404802
0.63854254
0.63845902
0.042398241
0.025399112
0.010518327
0.0015475614
0.0015475821
0.010518631
0.025398967
0.042397026
0.63830769
0.63814259
0.0423851
0.025391589
0.010515516
0.0015472133
0.0015471685
0.010515661
0.025391501
0.042384656
0.63799189
0.63780916
0.042374266
0.025384829
0.010512744
0.0015467654
0.0015467242
0.010513739
0.025387289
0.042379025
0.63761046
0.63730758
0.042381594
0.025387071
0.010513021
0.0015464053
0.0015465433
0.010518115
0.025401565
0.042410627
0.63679867
0.63597252
0.042460013
0.025424246
0.010524931
0.001546584
0.0015467015
0.010535036
0.025456537
0.042529397
0.63436468
0.63142193
0.042528537
0.025442435
0.010524143
0.0015445974
0.0015365899
0.010458389
0.025293351
0.0422976
0.62645301
0.61911437
0.041581756
0.024862694
0.010278534
0.0015165978
0.0014845708
0.009988951
0.024177926
0.040423564
0.61110777
0.5838871
0.037179502
0.022093149
0.0090837079
0.0014185014
0.0014842227
0.010014956
0.024241306
0.040510661
0.61246866
0.62027794
0.041628023
0.024891418
0.01029097
0.0015162413
0.0015366533
0.01046996
0.025320959
0.042341351
0.62727033
0.631917
0.042549848
0.025455493
0.010530092
0.0015445205
0.0015466881
0.010539989
0.025468771
0.042549141
0.63472831
0.63620186
0.042462919
0.025426002
0.010526176
0.0015464374
0.0015464922
0.010520388
0.025407736
0.042420849
0.63699826
0.6374059
0.042380905
0.025385993
0.010512724
0.0015462262
0.0015465443
0.010513488
0.025387687
0.042380191
0.6376557
0.63780935
0.042364429
0.02537804
0.010510031
0.0015464475
0.0015468608
0.010513423
0.025387351
0.042378669
0.63791219
0.63800105
0.042367213
0.02537985
0.010510725
0.0015467545
0.0015471341
0.010514325
0.025389764
0.042382709
0.63807459
0.63814641
0.04237096
0.025382064
0.010511551
0.0015469831
0.0015473195
0.010515027
0.025391707
0.042386058
0.63819996
0.63823866
0.042373002
0.025383219
0.010511933
0.0015471171
0.0015474038
0.010515013
0.025391815
0.042386273
0.6382601
0.63826642
0.042371723
0.025382495
0.010511613
0.0015471631
0.0015474271
0.010514576
0.025390783
0.042384415
0.63827034
0.63827121
0.042369903
0.02538145
0.010511143
0.0015471672
0.0015474046
0.010513988
0.025389494
0.042382141
0.63825312
0.63821148
0.04236909
0.025380512
0.010510477
0.0015471076
0.0015472424
0.010512017
0.025385184
0.042375637
0.63816328
0.63806631
0.042357311
0.025373429
0.010507551
0.001546885
0.0015470386
0.010509343
0.025378884
0.042365313
0.63796528
0.63785738
0.042348149
0.025367814
0.010505133
0.0015467052
0.0015468977
0.010507265
0.025374039
0.042357424
0.63775086
0.63765843
0.04234438
0.025365227
0.010503888
0.0015466426
0.0015469161
0.010506647
0.025372739
0.042355547
0.63758766
0.63754017
0.042349267
0.025368328
0.010505214
0.0015468113
0.0015472464
0.010510568
0.025381856
0.042370032
0.63748934
0.63744486
0.042384581
0.025388809
0.01051253
0.0015472487
0.0015468112
0.010509102
0.025382625
0.042377769
0.63741213
0.0016132075
0.011213401
0.027251676
0.045859036
0.56936824
0.56930636
0.045851396
0.027251296
0.011214848
0.0016135618
0.0016135114
0.011212433
0.027243352
0.045835757
0.5692539
0.56922728
0.045818798
0.027233107
0.011208219
0.0016131314
0.0016131944
0.011208693
0.027233968
0.045820045
0.56929593
0.56936271
0.045813245
0.0272297
0.011206812
0.0016129547
0.0016131594
0.011209179
0.027235143
0.045822066
0.56946878
0.56954576
0.045819222
0.027233341
0.011208341
0.0016130238
0.0016132801
0.011211037
0.027239409
0.045828873
0.56964167
0.56978126
0.045833271
0.027241522
0.011211595
0.0016132498
0.0016135435
0.011214489
0.02724777
0.045842837
0.56986215
0.56990583
0.045840503
0.027246235
0.011213793
0.0016134387
0.001613692
0.011216329
0.027251897
0.045849527
0.56994762
0.56993123
0.045844737
0.027248954
0.011215068
0.0016135365
0.0016137493
0.011217293
0.027253975
0.045852875
0.56996332
0.56996594
0.045849997
0.027251978
0.011216309
0.0016135929
0.001613782
0.011218334
0.027256412
0.045856977
0.56997544
0.56993414
0.045851272
0.027252839
0.011216769
0.0016135713
0.0016137107
0.011218423
0.027256407
0.045856866
0.56992196
0.56984205
0.045848882
0.027251549
0.011216366
0.0016134414
0.0016135216
0.011217629
0.027254162
0.04585289
0.56980161
0.56969797
0.045843724
0.027248594
0.011215288
0.0016131967
0.0016132271
0.011216447
0.02725098
0.045847443
0.5696387
0.56952707
0.045841197
0.02724689
0.011214614
0.0016128861
0.0016129179
0.011216639
0.027251684
0.045849725
0.56940275
0.56916978
0.045857773
0.027254626
0.011217208
0.0016126624
0.0016129211
0.011224326
0.027274355
0.045896471
0.56875066
0.568
0.045959849
0.027304418
0.011233931
0.0016131082
0.0016134064
0.011247593
0.027346476
0.046048414
0.56653006
0.56374198
0.046050147
0.027332951
0.011236926
0.0016110923
0.0016020075
0.011168178
0.027173512
0.0457973
0.55928451
0.55306002
0.044993385
0.026700912
0.010975197
0.0015788164
0.0015409854
0.010690199
0.026002561
0.043755484
0.5468407
0.54743483
0.044571625
0.026462931
0.010879122
0.0015556739
0.0015959558
0.011098323
0.027062116
0.045712943
0.5509003
0.55982062
0.046725964
0.027677122
0.011354627
0.0016192368
0.0016282855
0.011428485
0.027846592
0.046991696
0.56466716
0.56774482
0.046979162
0.027851883
0.011435689
0.0016298471
0.0016299658
0.011427605
0.027823535
0.046911405
0.56940973
0.57031505
0.046843463
0.02778884
0.011415945
0.0016294502
0.0016296465
0.011414013
0.027782075
0.04682428
0.57080871
0.57105546
0.04680184
0.027769395
0.01140964
0.0016295032
0.0016299319
0.011412643
0.027777342
0.046812655
0.57122839
0.57134144
0.046804696
0.027771564
0.011410524
0.001629865
0.0016302617
0.011413889
0.027780686
0.046818219
0.57144114
0.57151373
0.046810477
0.027774856
0.011411713
0.0016301437
0.0016304799
0.011414872
0.027783623
0.046823679
0.57159112
0.57161686
0.046811921
0.027775623
0.011411918
0.0016302792
0.0016305665
0.011414745
0.027783543
0.046823709
0.57164596
0.57162528
0.04680966
0.027774364
0.011411384
0.0016303192
0.0016305834
0.01141408
0.027781848
0.046820516
0.57162717
0.57160553
0.046808277
0.027773445
0.011410917
0.0016303284
0.0016305565
0.011413246
0.027779942
0.04681735
0.5716043
0.57157229
0.046803807
0.027770946
0.011409899
0.0016302831
0.0016305175
0.011412496
0.027778313
0.046814623
0.57155641
0.5715059
0.046802335
0.02776975
0.011409195
0.0016302308
0.0016304183
0.011411172
0.027775554
0.046810512
0.57146542
0.57137684
0.046796255
0.027765836
0.011407437
0.0016301044
0.0016302887
0.011409231
0.02777104
0.046803293
0.57128764
0.57118802
0.046787695
0.027760916
0.011405517
0.0016300048
0.0016302904
0.011408465
0.027769077
0.046799865
0.57113035
0.57108903
0.046789388
0.027761903
0.011405886
0.001630102
0.0016304772
0.01141018
0.027773456
0.046807184
0.57111342
0.57113364
0.046809873
0.027773487
0.011409883
0.0016303683
0.0016304949
0.011412181
0.027779932
0.046820147
0.57115135
0.57103381
0.04682428
0.027777493
0.011409469
0.0016300272
0.0016130372
0.011211281
0.027246236
0.045849615
0.56926915
0.56933901
0.045851367
0.027250607
0.011214269
0.0016134747
0.0016134722
0.011212365
0.027243728
0.045837101
0.56931432
0.56931361
0.045820579
0.027233773
0.011208326
0.0016131154
0.0016131905
0.011208865
0.027234594
0.045821332
0.56935178
0.56941827
0.045812401
0.027229076
0.011206553
0.0016129286
0.0016131445
0.011209086
0.027235032
0.045822062
0.56950263
0.56960436
0.045818799
0.027232933
0.011208155
0.0016130065
0.0016133124
0.011211578
0.027241055
0.04583214
0.56971649
0.56981328
0.045830106
0.02723974
0.011211007
0.0016132182
0.0016135379
0.011214481
0.027247887
0.04584336
0.56989291
0.56995354
0.045840736
0.027246223
0.011213771
0.0016134373
0.0016137247
0.011216819
0.027253281
0.045852136
0.56999618
0.57001746
0.045849442
0.027251438
0.011215977
0.0016136022
0.0016138532
0.011218661
0.02725754
0.045859147
0.57005682
0.57009255
0.045857659
0.027256253
0.011217965
0.0016137237
0.001613944
0.011220342
0.027261483
0.045865713
0.5700938
0.57007111
0.04586103
0.02725838
0.011218958
0.0016137516
0.0016139056
0.011220745
0.027262105
0.045866474
0.57004359
0.56998813
0.045861047
0.027258512
0.011219126
0.0016136679
0.0016137444
0.011220187
0.027260279
0.045862948
0.56991468
0.56980874
0.045855099
0.027255184
0.011217955
0.0016134249
0.0016134418
0.01121885
0.027256656
0.045856697
0.56973297
0.56959627
0.045848027
0.027251002
0.0112164
0.001613057
0.0016130636
0.011218156
0.027255151
0.045855289
0.56944794
0.56919383
0.045861012
0.027256595
0.011218118
0.0016127602
0.0016130275
0.011225542
0.027277348
0.045901633
0.56880253
0.56803638
0.045962183
0.027305773
0.011234552
0.0016131715
0.0016134602
0.011248362
0.027348276
0.046051402
0.56656678
0.5637953
0.046051596
0.027333838
0.011237336
0.0016111059
0.0016018883
0.011167235
0.027171151
0.04579315
0.55930645
0.55309718
0.044981474
0.026694572
0.01097272
0.0015785396
0.0015399819
0.010681531
0.025981468
0.043720552
0.54706171
0.61393076
0.040523401
0.024270324
0.010040251
0.001481979
0.0015159833
0.010282515
0.024869801
0.041591925
0.61986047
0.62729163
0.042339908
0.025319944
0.010470146
0.0015366346
0.0015451127
0.010535741
0.025469098
0.042570237
0.63201996
0.63483942
0.042550266
0.025468673
0.010540296
0.0015467609
0.0015469384
0.010531725
0.025440212
0.0424852
0.6363306
0.63710668
0.042420155
0.025406316
0.010520099
0.0015464921
0.0015466801
0.010517696
0.025398592
0.042400474
0.63754816
0.63777814
0.042377055
0.025385426
0.010513163
0.0015465642
0.0015470193
0.010516465
0.025394008
0.042389093
0.63795098
0.63808602
0.042383002
0.025389444
0.010514791
0.0015470024
0.001547402
0.010518201
0.025398486
0.042396466
0.63823209
0.63833363
0.042390765
0.025393924
0.01051647
0.0015473282
0.001547657
0.010519468
0.025401893
0.042402313
0.63842489
0.63848092
0.042395695
0.025396642
0.010517397
0.0015475182
0.0015477644
0.010519637
0.025402675
0.042403938
0.63853997
0.63856206
0.042394462
0.025395793
0.010516943
0.0015475591
0.0015477575
0.010518866
0.025401136
0.042401642
0.63857995
0.63855863
0.042389771
0.025392855
0.010515613
0.0015474932
0.0015476448
0.010517168
0.025397467
0.042396055
0.63855673
0.63850722
0.042379049
0.025386546
0.010513036
0.0015473184
0.0015474792
0.01051496
0.025392363
0.042387735
0.63845128
0.63836082
0.042369431
0.025380615
0.010510487
0.0015471227
0.001547266
0.010512085
0.025385687
0.04237697
0.63826318
0.63814303
0.042358087
0.025373684
0.010507536
0.0015469158
0.0015470927
0.010509571
0.025379916
0.042367663
0.63802979
0.63790805
0.042351231
0.025369207
0.010505473
0.0015467779
0.001546985
0.010507722
0.025375899
0.042361517
0.63780126
0.63767916
0.042348251
0.025367165
0.010504381
0.0015467326
0.0015469963
0.010507816
0.025376793
0.042363402
0.6375506
0.63737021
0.042361213
0.025373566
0.010506081
0.0015467517
0.0015466269
0.010504533
0.025368933
0.042351211
0.63713447
0.63679824
0.042347918
0.025363453
0.010501145
0.0015461817
0.57049051
0.046776149
0.027749701
0.011398457
0.0016291278
0.0016296994
0.011403617
0.027760026
0.046788415
0.57074291
0.57097763
0.046801394
0.027767253
0.011406219
0.0016299086
0.0016301429
0.011407179
0.027767102
0.046797952
0.57107411
0.5711291
0.046793793
0.027764402
0.011406066
0.0016300045
0.0016302038
0.011407876
0.027767591
0.046797696
0.57128535
0.57137943
0.046798405
0.027767583
0.011407658
0.001630105
0.0016303534
0.011410061
0.027772514
0.046805604
0.57152423
0.57160979
0.046807735
0.027773369
0.011410181
0.0016302897
0.0016305615
0.011412805
0.027778894
0.046816024
0.5717572
0.57184258
0.046822175
0.027781909
0.01141369
0.0016305526
0.0016308407
0.011416342
0.027787278
0.046829934
0.57196712
0.57199969
0.046833879
0.027789023
0.011416763
0.0016308058
0.0016310577
0.011419007
0.027793422
0.04684003
0.57206364
0.57204527
0.046840675
0.027793318
0.01141872
0.0016309598
0.0016311489
0.011420375
0.027796353
0.046844642
0.5720645
0.57200501
0.046840781
0.027793655
0.011419077
0.0016309594
0.0016310939
0.011420422
0.027796227
0.046844364
0.57199862
0.57192122
0.046839539
0.027792954
0.011418863
0.0016308621
0.0016309447
0.011419812
0.027794544
0.04684144
0.57188876
0.57177492
0.046834273
0.027789962
0.011417761
0.0016306511
0.0016306663
0.011418233
0.027790341
0.04683413
0.57170922
0.57155942
0.046825146
0.027784673
0.011415754
0.0016303024
0.001630267
0.011416229
0.02778522
0.046825672
0.5714569
0.57125493
0.046825339
0.027783889
0.011415217
0.0016299409
0.0016299845
0.011417761
0.027790386
0.046837916
0.57103511
0.57052323
0.046863588
0.027801612
0.01142095
0.0016298422
0.0016302683
0.011431238
0.027831638
0.046924852
0.56963782
0.56792662
0.046996849
0.027863299
0.011440225
0.0016301767
0.0016284969
0.011432119
0.027854485
0.047004467
0.56483363
0.55983269
0.046738035
0.027684251
0.01135712
0.0016192963
0.0015955195
0.011103844
0.027072036
0.045724691
0.55090042
0.546774
0.044533491
0.026441211
0.010869857
0.0015542308
0.001558141
0.010857161
0.026436137
0.044555891
0.54606151
0.55169363
0.045781532
0.027109561
0.011119084
0.0015961004
0.001619106
0.011355463
0.027679737
0.046728933
0.56002857
0.56489335
0.046988656
0.027843942
0.01142746
0.0016279036
0.0016300005
0.011438672
0.027859461
0.046989632
0.56790463
0.56951313
0.046909722
0.027821723
0.011427036
0.0016297974
0.0016297156
0.011419445
0.027797711
0.046856026
0.5704059
0.57087021
0.046819428
0.027778582
0.011412887
0.0016294924
0.0016297882
0.011413093
0.0277783
0.046814673
0.57111963
0.57125459
0.046807859
0.02777367
0.011411336
0.0016297687
0.0016300971
0.011413158
0.027778381
0.046813895
0.5713699
0.57143898
0.046810477
0.027775324
0.011411928
0.0016300569
0.0016303516
0.011413927
0.027780578
0.04681777
0.57151114
0.57156393
0.046813172
0.027776853
0.011412478
0.0016302607
0.0016305235
0.011414493
0.027782217
0.046820662
0.57160795
0.57162752
0.046814797
0.027777726
0.011412746
0.0016303842
0.0016306002
0.011414381
0.027781987
0.046820142
0.57163917
0.57162806
0.046814301
0.027777438
0.011412553
0.0016304317
0.0016305991
0.011413697
0.027780422
0.046817537
0.5716373
0.57163284
0.046809991
0.027775013
0.011411601
0.001630405
0.0016305828
0.011413155
0.027779228
0.046815434
0.57163395
0.57162499
0.046809496
0.027774391
0.011411101
0.0016303618
0.0016304532
0.011411599
0.027775859
0.046810233
0.57159126
0.57153835
0.046801583
0.027769453
0.011408938
0.001630184
0.0016302521
0.011409223
0.027770483
0.046801782
0.57147367
0.57138899
0.046790611
0.027762816
0.011406179
0.0016299629
0.0016300753
0.011406903
0.027764894
0.046792467
0.57130534
0.5712224
0.04678236
0.027758121
0.011404352
0.0016298584
0.0016301168
0.011406528
0.027763768
0.046790296
0.57116292
0.5711355
0.046789256
0.027762464
0.011406179
0.0016300868
0.0016305477
0.011411516
0.027776049
0.046810397
0.57116071
0.5711966
0.046835447
0.027788213
0.011415066
0.0016306329
0.0016300939
0.0114103
0.027778756
0.046823674
0.57112481
6.9975783
7.1708887
6.9976015
7.1707961
7.6233653
7.3676946
7.1044559
7.0919979
7.336576
7.3678703
7.8467801
7.8026001
7.3365577
7.587236
7.9764796
8.0033907
8.0059435
8.1812271
8.1894393
8.1931583
8.1128692
8.103903
8.163282
8.0299245
8.1215953
7.7630527
7.7487434
8.1393787
8.1010309
8.10748
7.9666381
8.2123102
8.2015632
8.2224253
8.2590935
8.1613744
8.1540918
8.1576865
8.1371997
8.1237706
8.1356662
8.0681222
7.9555067
7.9128844
8.1068737
8.0992784
8.0970031
8.1191145
7.9854592
8.0028833
7.8829278
7.8640772
7.8770183
7.9547689
8.1308643
8.0968422
8.097244
7.8374147
7.2253037
7.0008924
7.4609319
7.7210181
0.54850791
0.043705408
0.025976605
0.010679742
0.001544063
0.0015792011
0.010954672
0.0266506
0.04490602
0.55299916
0.55870968
0.045697896
0.027113429
0.011143503
0.0016010853
0.0016106347
0.011222317
0.027298715
0.045994178
0.56307052
0.56589243
0.045985741
0.027307521
0.0112315
0.0016125409
0.0016127721
0.011225238
0.027283948
0.045926351
0.56742681
0.56829672
0.045851799
0.027246547
0.01121304
0.001612227
0.0016124981
0.011212629
0.027243901
0.045839933
0.56876322
0.56905341
0.045818087
0.027231602
0.01120848
0.0016123565
0.0016128008
0.011212043
0.027241071
0.045831532
0.56924458
0.56938636
0.045820757
0.027234084
0.011209637
0.0016127165
0.0016131519
0.011213941
0.027246088
0.04584003
0.56950795
0.56959467
0.045826795
0.027237683
0.011211017
0.0016129942
0.0016133807
0.011215147
0.027249383
0.045845811
0.56966566
0.56972719
0.04583015
0.027239588
0.011211715
0.001613162
0.0016135144
0.01121574
0.027251049
0.045848618
0.56975694
0.56977397
0.045832934
0.027240997
0.011212082
0.0016132461
0.0016135073
0.011215043
0.027249637
0.045846517
0.56977206
0.56974928
0.045827075
0.027237655
0.01121075
0.0016131907
0.0016134611
0.011214044
0.027247221
0.045842209
0.56972402
0.56968561
0.045825212
0.027236242
0.011209952
0.0016131314
0.00161333
0.011212332
0.027243298
0.045835725
0.56962617
0.56956308
0.045819207
0.027232296
0.011208115
0.0016129753
0.0016131241
0.01120985
0.027237704
0.045826909
0.56947682
0.56935707
0.045807416
0.027225153
0.011205125
0.0016127431
0.0016129204
0.011207107
0.027231143
0.045816178
0.56925574
0.56915168
0.045796017
0.027218665
0.011202611
0.0016125876
0.0016128883
0.011206013
0.027228219
0.045810883
0.56906844
0.56901515
0.045798497
0.02722006
0.011203129
0.0016126821
0.0016130702
0.011207423
0.027231282
0.045815331
0.56899558
0.56900875
0.045816487
0.027230968
0.01120731
0.0016130228
0.0016133084
0.011211322
0.027241385
0.045832828
0.56905381
0.56910802
0.045846352
0.027244736
0.011210922
0.0016130238
0.0016120258
0.011199051
0.02721554
0.045797046
0.56857658
0.56888842
0.045814524
0.027227936
0.011204598
0.0016126132
0.0016128121
0.011205312
0.027227906
0.045812302
0.56904984
0.56917337
0.045804756
0.027223371
0.011203473
0.0016126323
0.0016129088
0.011206534
0.027230315
0.04581599
0.56939398
0.56955811
0.045820938
0.027232825
0.011207345
0.0016128991
0.0016132655
0.011211197
0.027241245
0.045833726
0.5697802
0.56991177
0.045836527
0.027242699
0.011211723
0.00161326
0.001613616
0.011215353
0.027250537
0.045848348
0.57004866
0.57014484
0.045852569
0.027252737
0.01121612
0.0016136208
0.0016139551
0.011219457
0.027259836
0.045863064
0.57023014
0.57023528
0.045862293
0.027259103
0.011219067
0.0016138738
0.0016141279
0.011221476
0.027264185
0.04586987
0.57026822
0.57023631
0.045867616
0.027262367
0.011220546
0.0016139915
0.0016141989
0.011222601
0.02726667
0.045873991
0.57025515
0.57019411
0.045873644
0.027265745
0.011221902
0.0016140551
0.0016142348
0.011223729
0.027269362
0.04587859
0.57023875
0.5701239
0.045867974
0.027262888
0.011221066
0.0016139457
0.001614011
0.011221854
0.027264181
0.045869344
0.57002446
0.56989324
0.04585914
0.027257726
0.011219062
0.0016136711
0.0016136668
0.011219285
0.0272576
0.045858132
0.5697881
0.56965458
0.045850218
0.02725221
0.011216792
0.0016133062
0.0016132693
0.01121704
0.027252145
0.045849472
0.56952464
0.56928665
0.04584077
0.027245957
0.011214203
0.0016128413
0.0016128817
0.011216707
0.02725303
0.045855151
0.56902542
0.56852293
0.045878886
0.027262857
0.011219248
0.0016127244
0.0016131755
0.01122953
0.027293717
0.04594263
0.56768789
0.5660781
0.046012033
0.027323192
0.011237426
0.0016130483
0.001611081
0.011226761
0.02730967
0.046013815
0.56317898
0.55839608
0.045730894
0.027130237
0.011148819
0.0016016975
0.0015797517
0.010960084
0.026669749
0.044949137
0.55198495
0.54516109
0.043685926
0.025937426
0.010657943
0.0015433698
0.0014880484
0.010104465
0.024603463
0.041453671
0.52996333
0.54819101
0.045842522
0.027139583
0.01108577
0.0015756075
0.0015589592
0.010895402
0.026490107
0.044609401
0.54877222
0.55059074
0.045644363
0.027025235
0.011085028
0.0015960098
0.001619109
0.011345865
0.027655251
0.046684749
0.55940864
0.56418227
0.046932167
0.027810662
0.011414211
0.0016275914
0.0016297685
0.011430214
0.027839445
0.046956749
0.56734766
0.56905536
0.046872454
0.0277993
0.011417953
0.0016294473
0.001629489
0.011413662
0.027784391
0.046834584
0.57002966
0.57054617
0.046796682
0.027764359
0.011406878
0.0016291976
0.0016295183
0.011408223
0.027767158
0.046796816
0.57081577
0.57096528
0.04678737
0.027760756
0.011405883
0.0016294334
0.0016297911
0.01140864
0.027768148
0.046797776
0.57110189
0.57121853
0.046787572
0.027761324
0.011406263
0.0016296789
0.001630087
0.011410407
0.027772801
0.046805729
0.57129947
0.57134753
0.046793761
0.027765004
0.011407639
0.0016299121
0.001630249
0.011411096
0.027774635
0.046808789
0.57139105
0.57144515
0.046795746
0.027766112
0.011408056
0.0016300353
0.0016303518
0.011411551
0.027775969
0.046811171
0.57146553
0.57146274
0.046795764
0.027766152
0.011408031
0.001630089
0.0016303712
0.011411213
0.02777514
0.046809647
0.57146776
0.57146697
0.046793656
0.027765025
0.011407596
0.0016300918
0.0016303766
0.011411048
0.027774925
0.046809334
0.57147366
0.57145059
0.046793613
0.027764818
0.011407321
0.0016300695
0.001630289
0.011409973
0.02777268
0.046805964
0.57142274
0.57136807
0.046788346
0.027761401
0.011405781
0.0016299468
0.0016301588
0.01140817
0.027768381
0.046798722
0.57128496
0.5712122
0.04678395
0.027758522
0.011404447
0.0016298537
0.0016300799
0.011406862
0.027765491
0.046794372
0.57117323
0.57114091
0.046779163
0.027755806
0.011403391
0.0016298222
0.0016301695
0.011407287
0.027766537
0.046796094
0.57111564
0.57110177
0.046788501
0.027761249
0.01140544
0.001630028
0.0016304549
0.011410316
0.027773547
0.046806352
0.57106228
0.57093561
0.046834468
0.027787406
0.011414555
0.0016305323
0.0016299035
0.011411898
0.027771179
0.046802858
0.57067927
0.0016118754
0.011197105
0.027210527
0.045787878
0.56851822
0.56889007
0.045805442
0.027222686
0.011202491
0.0016124342
0.0016126374
0.011203392
0.02722313
0.045804169
0.56907456
0.56921099
0.045803808
0.027222415
0.011202953
0.0016125514
0.0016129107
0.011206917
0.027231543
0.045818418
0.56944794
0.56961709
0.045824533
0.027234809
0.011208098
0.0016129484
0.0016133737
0.011212636
0.027245026
0.045840456
0.56981976
0.56991945
0.045840097
0.027244917
0.011212709
0.001613356
0.0016137353
0.011216684
0.027254057
0.045854655
0.57002964
0.57008638
0.045849264
0.027250945
0.011215499
0.0016136285
0.0016139198
0.011218555
0.027257894
0.045860449
0.57014017
0.57015387
0.045853241
0.027253682
0.011216935
0.0016137465
0.0016140129
0.011220122
0.027261117
0.045865312
0.57018666
0.57015888
0.045863647
0.027259839
0.011219445
0.0016138938
0.001614129
0.01122188
0.027265218
0.045871936
0.57020906
0.57019122
0.045870034
0.027263568
0.011220995
0.0016139812
0.0016141569
0.011222751
0.027267056
0.045874776
0.57016709
0.57005581
0.04586083
0.027258811
0.011219486
0.0016138309
0.0016138902
0.011220299
0.027260449
0.045863225
0.56993245
0.56980314
0.045849346
0.02725204
0.01121683
0.0016135077
0.0016135242
0.011217517
0.027253532
0.045851719
0.56970176
0.56957053
0.045840118
0.027246355
0.011214461
0.0016131369
0.0016131251
0.011215136
0.027247761
0.045842505
0.56942626
0.56921326
0.045832425
0.027240986
0.011212148
0.0016126997
0.0016127673
0.011214983
0.027249093
0.045848898
0.56893453
0.56846473
0.045872524
0.027259024
0.011217623
0.0016126319
0.0016131004
0.011228003
0.027290138
0.045936763
0.56759484
0.56599837
0.04600367
0.027318297
0.011235437
0.0016129562
0.0016109987
0.011225017
0.027305441
0.046006706
0.56310885
0.55837731
0.045727028
0.02712808
0.011147966
0.001601669
0.0015798391
0.010960872
0.026671561
0.044952088
0.55210743
0.54555767
0.043713039
0.025953581
0.010664851
0.0015439693
0.0014904934
0.010147492
0.02470571
0.04161836
0.53149544
0.5894982
0.037857769
0.022536643
0.0092727385
0.0014326334
0.0015364657
0.010635499
0.025910921
0.043598307
0.54080908
0.54710699
0.043674909
0.025965999
0.010659079
0.0015352005
0.0015432619
0.010676384
0.02596992
0.043698569
0.5482951
0.55306775
0.044906931
0.026650893
0.010955385
0.0015788882
0.0016012982
0.011148219
0.027126499
0.0457198
0.55882021
0.56322433
0.045991407
0.027296488
0.01122186
0.0016104119
0.0016128489
0.011236569
0.027320799
0.046006793
0.5660294
0.56752245
0.045920556
0.027280014
0.011224116
0.0016125894
0.0016125609
0.011217815
0.027259172
0.045871504
0.56835979
0.56880786
0.045833114
0.027239103
0.011211019
0.0016123041
0.0016126258
0.011211937
0.027240626
0.045831149
0.5690858
0.56926069
0.045821889
0.027234738
0.011209903
0.0016125951
0.0016130147