/*--------------------------------*- C++ -*----------------------------------*\
  =========                 |
  \\      /  F ield         | OpenFOAM: The Open Source CFD Toolbox
   \\    /   O peration     | Website:  https://openfoam.org
    \\  /    A nd           | Version:  7
     \\/     M anipulation  |
\*---------------------------------------------------------------------------*/
FoamFile
{
    version     2.0;
    format      ascii;
    class       volScalarField;
    location    "80";
    object      T;
}
// * * * * * * * * * * * * * * * * * * * * * * * * * * * * * * * * * * * * * //

dimensions      [0 0 0 1 0 0 0];

internalField   nonuniform List<scalar> 
25201
(
299.99555
299.99564
299.99557
299.9957
299.99951
299.9979
299.99656
299.99585
299.99809
300.00148
299.99807
299.99787
299.99873
299.98897
299.9877
299.99547
299.99382
299.99231
299.9896
299.98457
299.98802
299.99173
299.99286
299.99063
299.98639
299.98315
299.98859
299.99284
299.99205
299.98487
299.9856
299.98686
299.98011
299.98119
299.98273
299.98793
299.99098
299.99029
299.98703
299.98641
299.98989
299.98965
299.98436
299.97957
299.98613
299.9914
299.99309
299.99691
299.99941
299.99881
299.99997
300.00175
300.00331
300.00268
300.00192
300.00079
299.99809
299.99744
300.00096
300.00038
299.99793
299.99686
300.00067
300.00272
300.00482
300.00323
300.00456
300.00567
300.00322
300.00353
300.00032
299.99734
299.99718
300.00126
300.00143
300.00041
299.99716
299.99709
299.99352
299.99395
299.99442
299.99512
299.99359
299.99668
299.99603
299.99741
299.99297
299.98913
299.98594
299.98847
299.98876
299.99105
299.98775
299.98477
299.98212
299.9835
299.98045
299.97889
299.97609
299.97763
299.9811
299.9796
299.98286
299.9839
299.98692
299.98584
299.98441
299.98563
299.98533
299.9783
299.97494
299.97885
299.97704
299.97299
299.96971
299.97161
299.97629
299.97443
299.97869
299.98076
299.98209
299.97998
299.98387
299.98259
299.98099
299.98246
299.98233
299.98527
299.98837
299.98671
299.98597
299.98557
299.99096
299.99115
299.99157
299.99207
299.99283
299.99349
299.99681
299.99802
300.00074
300.00064
300.00031
299.99782
299.99731
300.00088
300.00262
300.00189
299.99993
300.00321
300.00481
300.00271
300.00319
300.00564
300.00453
300.00546
300.00167
299.99926
299.99697
300.00114
300.00021
299.99717
299.99727
299.99426
299.99501
299.99374
299.99324
299.99687
299.99523
299.99558
299.99591
299.9966
299.99594
299.99539
300.00007
299.99821
299.99601
299.99223
299.9902
299.99444
299.99332
299.99096
299.98807
299.98722
299.9902
299.98882
299.98958
299.98662
299.9859
299.9846
299.98547
299.98838
299.99015
299.99215
299.99093
299.98863
299.98583
299.97852
299.97985
299.98197
299.98378
299.98679
299.98569
299.9876
299.98462
299.98271
299.9806
299.98426
299.98551
299.98377
299.98244
299.98085
299.98238
299.97808
299.97396
299.97397
299.99572
299.9956
299.99623
299.99295
299.99209
299.98439
299.98139
299.98574
299.98496
299.98998
299.98968
299.98617
299.97961
299.98024
299.98652
299.98719
299.99041
299.99114
299.98704
299.98296
299.98813
299.98935
299.99191
299.99397
300.11283
300.12596
300.12463
300.12026
300.08892
300.03598
300.01567
300.01013
300.00252
299.99224
300.04316
300.04196
300.04229
300.0428
300.0437
300.03206
300.0303
300.02987
300.02971
300.02961
300.02804
300.02754
300.02735
300.02748
300.02808
300.02241
300.0216
300.02144
300.02154
300.02177
300.01849
300.01819
300.01805
300.01814
300.01856
300.01502
300.01457
300.01447
300.01457
300.01479
300.01202
300.01182
300.01174
300.01183
300.01225
300.00997
300.00951
300.00942
300.00949
300.00966
300.00777
300.00762
300.00757
300.00767
300.00819
300.00685
300.00627
300.00617
300.00621
300.00637
300.0053
300.00515
300.00513
300.00524
300.00592
300.00538
300.00463
300.00451
300.00453
300.0047
300.00442
300.00425
300.00423
300.00436
300.00522
300.00544
300.00447
300.00431
300.00433
300.00456
300.00506
300.0048
300.00477
300.00494
300.00605
300.00707
300.00581
300.00562
300.00566
300.00598
300.00732
300.00693
300.00688
300.0071
300.00852
300.01044
300.00888
300.00865
300.00874
300.00922
300.0116
300.01102
300.01091
300.01117
300.01287
300.01586
300.01404
300.01378
300.01394
300.01467
300.0183
300.01743
300.01721
300.01749
300.01944
300.02364
300.02159
300.0213
300.02158
300.02263
300.02772
300.02649
300.02613
300.02642
300.02848
300.03399
300.03203
300.03177
300.03223
300.0337
300.04032
300.03867
300.03811
300.03834
300.04018
300.047
300.04537
300.04518
300.04586
300.04772
300.05598
300.05392
300.05313
300.05326
300.05451
300.06283
300.06245
300.06248
300.06347
300.06597
300.07757
300.07442
300.07302
300.07271
300.07179
300.08088
300.083
300.08352
300.08512
300.0884
300.08042
300.0841
300.08479
300.08666
300.09034
300.07898
300.07553
300.07394
300.0735
300.07129
300.06236
300.06277
300.06286
300.06394
300.06659
300.05561
300.05366
300.05292
300.05307
300.0541
300.04663
300.0451
300.04493
300.04562
300.04741
300.04024
300.03856
300.03796
300.03816
300.03984
300.03369
300.03192
300.03171
300.03224
300.03377
300.02785
300.02652
300.02609
300.02632
300.02821
300.0234
300.02148
300.02125
300.02161
300.02276
300.01843
300.01744
300.01715
300.01737
300.01923
300.01568
300.01391
300.01369
300.0139
300.0147
300.01161
300.01097
300.01082
300.01104
300.01273
300.01033
300.00876
300.00854
300.00865
300.00915
300.0073
300.00689
300.0068
300.007
300.00842
300.00697
300.00572
300.00554
300.0056
300.00593
300.00507
300.00478
300.00472
300.00487
300.00595
300.00533
300.00437
300.00423
300.00427
300.0045
300.0044
300.00419
300.00414
300.00425
300.00508
300.00522
300.00448
300.00437
300.0044
300.00457
300.00518
300.00501
300.00496
300.00506
300.00571
300.0066
300.00602
300.00593
300.00597
300.00613
300.00753
300.00735
300.00728
300.00736
300.00786
300.00953
300.00911
300.00903
300.0091
300.00928
300.01156
300.01134
300.01123
300.0113
300.01165
300.01421
300.01384
300.01376
300.01387
300.0141
300.01755
300.01722
300.01706
300.01712
300.01744
300.0209
300.0202
300.02007
300.02021
300.02051
300.02575
300.0253
300.0251
300.02521
300.0258
300.02924
300.02768
300.02739
300.02741
300.02768
300.03514
300.03511
300.03549
300.03603
300.03789
300.03428
300.02964
300.02822
300.02642
300.02428
300.01061
299.99995
300.00155
300.007
300.06349
300.04337
299.69063
299.64372
299.60009
299.55636
300.03634
300.02866
300.03158
300.03793
300.09707
300.05612
300.05384
300.05266
300.05113
300.04923
300.04776
300.04832
300.04889
300.04955
300.05142
300.03794
300.03636
300.03602
300.036
300.03611
300.03133
300.03104
300.03089
300.03104
300.03166
300.02496
300.02416
300.024
300.0241
300.0243
300.01998
300.01975
300.01964
300.01974
300.02022
300.01621
300.01572
300.01562
300.0157
300.01588
300.01266
300.0125
300.01243
300.01253
300.01301
300.01051
300.00998
300.00988
300.00994
300.01008
300.00796
300.00784
300.0078
300.00791
300.00851
300.00706
300.0064
300.00629
300.00632
300.00645
300.00526
300.00513
300.00511
300.00523
300.006
300.0054
300.00457
300.00444
300.00446
300.00462
300.00427
300.00412
300.0041
300.00423
300.00516
300.00534
300.00428
300.00412
300.00415
300.00437
300.00485
300.00458
300.00455
300.00471
300.00589
300.00688
300.00561
300.00543
300.00549
300.00582
300.00713
300.00673
300.00666
300.00685
300.00828
300.01018
300.00864
300.00844
300.00855
300.00907
300.01147
300.01083
300.01068
300.0109
300.01256
300.01551
300.01379
300.01358
300.0138
300.01461
300.01821
300.01724
300.01695
300.01718
300.01902
300.02314
300.02124
300.02102
300.02138
300.02252
300.02752
300.0262
300.02577
300.026
300.02788
300.03329
300.03159
300.0314
300.03193
300.03348
300.03989
300.03821
300.03759
300.03777
300.03933
300.046
300.04465
300.04451
300.0452
300.04697
300.05487
300.05297
300.05225
300.05237
300.05329
300.06138
300.06172
300.0618
300.06283
300.0654
300.07719
300.07389
300.07237
300.07197
300.07009
300.07899
300.08226
300.08289
300.08467
300.08816
300.09915
300.09557
300.09366
300.09282
300.0878
300.09803
300.0946
300.09282
300.09208
300.08838
300.07945
300.08161
300.08212
300.08375
300.08706
300.07589
300.07291
300.07159
300.07133
300.07046
300.0617
300.0615
300.06155
300.0626
300.06518
300.05494
300.05293
300.0522
300.05235
300.0535
300.04612
300.04453
300.04434
300.04502
300.04684
300.0396
300.03793
300.03737
300.0376
300.03943
300.03336
300.03137
300.03111
300.03158
300.03307
300.02715
300.02589
300.02553
300.02582
300.02793
300.02316
300.02108
300.0208
300.02109
300.02215
300.01791
300.01701
300.01679
300.01707
300.01904
300.01552
300.01372
300.01346
300.01364
300.01439
300.01139
300.01078
300.01066
300.0109
300.01257
300.01019
300.00866
300.00843
300.00851
300.009
300.00715
300.00675
300.00669
300.0069
300.00829
300.00689
300.00563
300.00543
300.00547
300.00578
300.00488
300.00461
300.00458
300.00476
300.0059
300.00536
300.00431
300.00414
300.00415
300.00436
300.00431
300.00415
300.00413
300.00427
300.00517
300.00543
300.0046
300.00446
300.00447
300.00462
300.00533
300.00519
300.00517
300.00529
300.00603
300.00712
300.00646
300.00634
300.00636
300.00649
300.00807
300.00793
300.00789
300.00799
300.00858
300.01063
300.01008
300.00997
300.01002
300.01016
300.01284
300.01266
300.01258
300.01268
300.01318
300.01645
300.01592
300.01581
300.01589
300.01607
300.02031
300.02005
300.01993
300.02004
300.02058
300.02555
300.02466
300.02449
300.02457
300.02475
300.03223
300.03194
300.03177
300.03192
300.03261
300.03985
300.03865
300.03839
300.03849
300.03852
300.05878
300.05846
300.05768
300.0573
300.05477
300.06639
300.07616
300.07828
300.08168
300.08574
300.11419
300.10436
300.10512
300.10669
300.1069
300.10035
300.19328
300.20479
300.21082
300.20167
299.99511
300.00676
300.0145
300.01975
300.03656
300.04797
300.04667
300.04607
300.04568
300.04698
300.03166
300.03198
300.03214
300.03255
300.03424
300.02981
300.02912
300.02899
300.02922
300.02988
300.02266
300.02251
300.02244
300.02263
300.02356
300.01939
300.0189
300.0188
300.01892
300.0192
300.01523
300.01505
300.01497
300.01507
300.0156
300.01265
300.01218
300.01209
300.01216
300.01235
300.00979
300.00964
300.00959
300.0097
300.01023
300.00835
300.00778
300.00768
300.00772
300.00786
300.00629
300.00617
300.00615
300.00627
300.00693
300.00593
300.00519
300.00506
300.00507
300.00519
300.0045
300.00436
300.00436
300.0045
300.00534
300.00513
300.00419
300.00404
300.00405
300.00421
300.00428
300.00409
300.00409
300.00426
300.00532
300.0059
300.00473
300.00454
300.00456
300.0048
300.00569
300.00539
300.00537
300.00558
300.0069
300.00833
300.00688
300.00666
300.0067
300.00708
300.00891
300.00845
300.00839
300.00863
300.01024
300.01265
300.0109
300.01064
300.01075
300.01133
300.01429
300.01359
300.01344
300.01372
300.0156
300.01914
300.01717
300.01689
300.01711
300.01798
300.02235
300.0213
300.02101
300.02129
300.0233
300.02809
300.02614
300.02589
300.02628
300.02758
300.03353
300.03202
300.03152
300.03175
300.03355
300.03966
300.03808
300.03791
300.03853
300.04029
300.04766
300.04571
300.04498
300.04511
300.04643
300.05383
300.05288
300.05282
300.05368
300.05586
300.06489
300.06246
300.06144
300.06141
300.06185
300.07036
300.07081
300.07101
300.07224
300.07502
300.08604
300.0829
300.08142
300.08099
300.0792
300.08809
300.09165
300.09239
300.09417
300.0976
300.09845
300.09499
300.09318
300.09243
300.08868
300.07971
300.08192
300.08244
300.08408
300.08741
300.07614
300.07315
300.07182
300.07156
300.07066
300.06186
300.06165
300.0617
300.06275
300.06532
300.055
300.05301
300.05228
300.05244
300.05363
300.04622
300.04459
300.0444
300.04505
300.04685
300.03961
300.03797
300.03742
300.03766
300.03952
300.03343
300.03144
300.03118
300.03165
300.03312
300.02721
300.02595
300.0256
300.02589
300.02799
300.02322
300.02116
300.02088
300.02118
300.02225
300.01802
300.01711
300.01688
300.01715
300.01909
300.01557
300.01381
300.01356
300.01374
300.01451
300.0115
300.01088
300.01075
300.01099
300.01262
300.01022
300.00872
300.0085
300.0086
300.00909
300.00723
300.00682
300.00675
300.00695
300.00832
300.00691
300.00566
300.00547
300.00551
300.00583
300.0049
300.00464
300.00461
300.00478
300.00592
300.00536
300.00432
300.00415
300.00415
300.00436
300.00433
300.00416
300.00414
300.00428
300.00518
300.00542
300.0046
300.00446
300.00447
300.00462
300.00533
300.00518
300.00517
300.00529
300.00602
300.00709
300.00644
300.00633
300.00635
300.00647
300.00806
300.00791
300.00787
300.00797
300.00856
300.01058
300.01005
300.00994
300.00999
300.01014
300.01281
300.01262
300.01254
300.01263
300.01311
300.01636
300.01586
300.01576
300.01585
300.01605
300.02032
300.02003
300.01989
300.01999
300.02046
300.02537
300.02457
300.02442
300.02453
300.02476
300.03234
300.03195
300.03173
300.03185
300.03241
300.03951
300.03837
300.03815
300.03831
300.03845
300.0588
300.05835
300.05754
300.05715
300.05462
300.06506
300.07357
300.0755
300.07881
300.08267
300.12251
300.11398
300.11386
300.11409
300.10864
300.1095
300.11846
300.11953
300.12082
300.12544
300.03931
300.04361
300.04596
300.04778
300.05312
300.05131
300.05265
300.05259
300.05278
300.05339
300.03565
300.03561
300.03559
300.03587
300.03705
300.03108
300.03075
300.03065
300.03085
300.03122
300.02383
300.02364
300.02354
300.02369
300.02442
300.01987
300.01951
300.01942
300.01956
300.01981
300.01564
300.01545
300.01536
300.01546
300.0159
300.01285
300.01244
300.01235
300.01244
300.01263
300.00998
300.00983
300.00977
300.00986
300.01036
300.00844
300.0079
300.0078
300.00785
300.00799
300.00641
300.00628
300.00625
300.00635
300.007
300.00599
300.00527
300.00516
300.00518
300.00533
300.00462
300.00446
300.00444
300.00457
300.0054
300.00519
300.00429
300.00416
300.00419
300.00436
300.00443
300.0042
300.00418
300.00433
300.00538
300.00596
300.00482
300.00466
300.0047
300.00497
300.00587
300.00555
300.00549
300.00567
300.00695
300.00838
300.00698
300.0068
300.00688
300.00728
300.00913
300.00864
300.00853
300.00874
300.01027
300.01268
300.01105
300.01083
300.01099
300.01162
300.01465
300.01386
300.01365
300.01388
300.01564
300.01917
300.0173
300.01708
300.01736
300.01832
300.02251
300.02141
300.02107
300.02131
300.0233
300.02807
300.02613
300.0259
300.02632
300.02764
300.03351
300.032
300.03148
300.0317
300.03351
300.0396
300.03801
300.03784
300.03845
300.04015
300.04723
300.04546
300.04477
300.04492
300.04631
300.0537
300.05286
300.05276
300.05351
300.05546
300.06608
300.06351
300.06246
300.06237
300.0619
300.07076
300.07281
300.07324
300.07479
300.07814
300.08935
300.08574
300.08392
300.08327
300.07981
300.08875
300.09384
300.09472
300.09668
300.10035
300.08968
300.09343
300.09419
300.096
300.0995
300.08814
300.08492
300.08334
300.08284
300.08065
300.07154
300.07258
300.07292
300.07435
300.07747
300.06602
300.0635
300.06248
300.06245
300.06266
300.0544
300.05328
300.05319
300.05404
300.05621
300.04782
300.04588
300.04518
300.04536
300.04691
300.04012
300.03826
300.03804
300.03863
300.04036
300.03359
300.03209
300.03163
300.03191
300.03396
300.02846
300.02628
300.02598
300.02634
300.02759
300.02246
300.02143
300.02117
300.02148
300.02363
300.01945
300.01741
300.01712
300.01733
300.01819
300.01459
300.01387
300.01372
300.01399
300.01587
300.01287
300.01114
300.01089
300.011
300.01158
300.00921
300.00872
300.00863
300.00887
300.01044
300.00852
300.00709
300.00688
300.00694
300.00733
300.00599
300.00565
300.00561
300.0058
300.00707
300.00606
300.00493
300.00475
300.00478
300.00504
300.00456
300.00433
300.0043
300.00446
300.00546
300.00526
300.00437
300.00423
300.00424
300.00442
300.00473
300.00455
300.00453
300.00465
300.00545
300.00602
300.00531
300.00519
300.00521
300.00535
300.00646
300.0063
300.00626
300.00637
300.007
300.00841
300.00783
300.00773
300.00777
300.00792
300.00989
300.00971
300.00965
300.00974
300.01027
300.01267
300.01218
300.01209
300.01217
300.01236
300.01529
300.01507
300.01497
300.01507
300.01561
300.01941
300.01888
300.01878
300.01892
300.01921
300.0228
300.02261
300.02252
300.02269
300.02364
300.02993
300.02923
300.02913
300.02939
300.03009
300.0321
300.03239
300.03252
300.03291
300.03473
300.04817
300.04791
300.04767
300.04773
300.04938
299.99802
300.00983
300.01751
300.02266
300.03985
300.10225
300.18692
300.19744
300.20277
300.1937
300.12567
300.139
300.13803
300.13399
300.10463
300.04556
300.02525
300.01982
300.01213
300.00116
300.04799
300.04752
300.04826
300.0491
300.05107
300.0364
300.03455
300.03415
300.03399
300.03378
300.03074
300.03033
300.03016
300.03031
300.03111
300.02451
300.02349
300.0233
300.02337
300.02354
300.01974
300.01947
300.01934
300.01945
300.02002
300.01607
300.01549
300.01538
300.01546
300.01565
300.01259
300.01241
300.01234
300.01244
300.01297
300.01047
300.00991
300.00981
300.00986
300.01
300.00796
300.00782
300.00779
300.00791
300.00852
300.00707
300.00639
300.00628
300.0063
300.00642
300.00529
300.00515
300.00514
300.00527
300.00603
300.00543
300.00458
300.00444
300.00444
300.00458
300.00427
300.00411
300.0041
300.00426
300.0052
300.00539
300.00433
300.00416
300.00417
300.00437
300.00487
300.00462
300.0046
300.00478
300.00596
300.00695
300.00567
300.00547
300.00551
300.00583
300.0072
300.00681
300.00675
300.00696
300.00838
300.01029
300.00874
300.00852
300.0086
300.00909
300.01146
300.01087
300.01076
300.01101
300.0127
300.01567
300.01384
300.01357
300.01374
300.01446
300.01805
300.01718
300.01697
300.01725
300.01922
300.02337
300.02128
300.02099
300.02127
300.0223
300.02737
300.02613
300.02577
300.02606
300.02815
300.03361
300.03163
300.03137
300.03184
300.03332
300.03994
300.03826
300.03768
300.03791
300.03971
300.04643
300.04487
300.0447
300.04539
300.04727
300.05532
300.05326
300.05247
300.05259
300.05378
300.0619
300.06149
300.06151
300.06249
300.06496
300.07602
300.07299
300.07162
300.07134
300.07058
300.07941
300.08126
300.08173
300.08326
300.08637
300.09768
300.09429
300.09254
300.09181
300.08827
299.99479
299.99372
299.99479
299.99371
299.99873
299.99658
299.99483
299.99306
299.99345
299.99659
300.00116
299.9981
299.99345
299.9952
300.00223
300.00341
300.00331
300.00596
300.00735
300.00976
300.00607
300.0052
300.00773
300.00887
300.00646
300.00086
299.99737
300.00755
300.0055
300.00453
300.00058
300.00747
300.00751
300.01136
300.0123
300.01608
300.00696
300.00872
300.00898
300.00892
300.00775
300.01158
300.0127
300.00958
300.00728
300.00607
300.00358
300.00323
300.00347
300.00627
300.0067
300.0037
300.00026
299.99691
299.99662
300.00127
300.00128
299.99925
299.99565
299.99557
299.99789
299.99874
300.06666
300.06198
300.06041
300.06057
300.07568
300.06259
300.05783
300.05369
300.05106
300.0398
300.04016
300.04235
300.04278
300.04372
300.04452
300.0289
300.02866
300.02844
300.02857
300.02933
300.0257
300.0251
300.02498
300.02516
300.02553
300.01984
300.01963
300.01954
300.0197
300.02052
300.01712
300.01671
300.01662
300.01675
300.01704
300.01362
300.01342
300.01334
300.01343
300.01389
300.01138
300.01097
300.01089
300.01097
300.01116
300.00886
300.00872
300.00867
300.00876
300.00925
300.00762
300.00709
300.00699
300.00703
300.00717
300.00575
300.00563
300.00562
300.00573
300.00634
300.00547
300.00478
300.00466
300.00468
300.00481
300.00414
300.00401
300.00401
300.00415
300.00496
300.00481
300.0039
300.00375
300.00376
300.00391
300.00396
300.00378
300.00379
300.00396
300.00503
300.00563
300.00445
300.00426
300.00427
300.0045
300.00538
300.00511
300.00509
300.0053
300.00663
300.00806
300.0066
300.00637
300.00641
300.00677
300.00857
300.00813
300.00808
300.00833
300.00995
300.01235
300.01061
300.01035
300.01045
300.01101
300.01399
300.0133
300.01316
300.01343
300.01529
300.0188
300.01692
300.01665
300.01687
300.01774
300.02215
300.02109
300.02079
300.02105
300.02294
300.02772
300.02593
300.0257
300.02611
300.02741
300.03335
300.03183
300.03131
300.03151
300.03316
300.03925
300.03782
300.03766
300.0383
300.04008
300.0474
300.04543
300.04468
300.04479
300.04599
300.05336
300.05252
300.05248
300.05336
300.05557
300.06449
300.06204
300.06101
300.06097
300.06133
300.06979
300.07029
300.07049
300.07172
300.0745
300.08538
300.08226
300.08079
300.08039
300.07861
300.08747
300.09102
300.09174
300.09349
300.09692
300.08898
300.08553
300.08383
300.08327
300.08077
300.07159
300.07269
300.07299
300.07438
300.07744
300.06616
300.06356
300.0625
300.06246
300.06263
300.05429
300.05304
300.05289
300.05363
300.05567
300.04719
300.04541
300.04477
300.04499
300.04671
300.03986
300.03798
300.03774
300.0383
300.03994
300.03329
300.03185
300.0314
300.03167
300.03366
300.02815
300.02609
300.02581
300.02617
300.0274
300.0223
300.02126
300.02098
300.02127
300.02331
300.01912
300.01717
300.01689
300.01711
300.01799
300.01439
300.01366
300.0135
300.01376
300.01558
300.01268
300.01096
300.0107
300.01082
300.01139
300.00906
300.00858
300.0085
300.00873
300.01029
300.00838
300.00699
300.00678
300.00684
300.00722
300.00589
300.00556
300.00551
300.00569
300.00691
300.00588
300.00482
300.00466
300.00469
300.00496
300.00443
300.00419
300.00415
300.0043
300.00524
300.005
300.00421
300.00409
300.00412
300.0043
300.00452
300.00433
300.00429
300.00441
300.00511
300.00559
300.00496
300.00485
300.00488
300.00505
300.00596
300.00579
300.00574
300.00584
300.0064
300.00766
300.00716
300.00706
300.00711
300.00727
300.00894
300.00876
300.00868
300.00877
300.00921
300.01127
300.01089
300.01081
300.0109
300.01112
300.0135
300.01325
300.01314
300.01322
300.01363
300.01672
300.01631
300.01623
300.01637
300.01669
300.01929
300.019
300.01888
300.01902
300.01983
300.02447
300.02368
300.02353
300.02369
300.02408
300.0265
300.02624
300.02613
300.02636
300.0276
300.03579
300.0363
300.03636
300.03679
300.03711
300.05126
300.0473
300.04429
300.04246
300.03478
300.05321
300.03176
300.02698
300.02465
300.03497
299.7535
299.80209
299.84535
299.87942
300.0088
299.95328
300.00691
300.01304
300.02884
300.06444
300.19077
300.19846
300.19186
300.17972
300.08167
300.02156
300.0047
299.99947
299.99173
299.98013
300.03732
300.03537
300.03541
300.03585
300.0374
300.02623
300.02487
300.02454
300.02446
300.02434
300.02419
300.02359
300.02332
300.02338
300.02382
300.01903
300.01809
300.01791
300.01797
300.01814
300.01575
300.01546
300.01534
300.01543
300.01593
300.01299
300.01251
300.01242
300.01251
300.01272
300.01045
300.01025
300.01017
300.01025
300.01067
300.00884
300.00837
300.00828
300.00834
300.0085
300.00682
300.00668
300.00665
300.00675
300.00729
300.00614
300.00552
300.00542
300.00545
300.00558
300.00464
300.00451
300.00449
300.00462
300.00532
300.00491
300.00412
300.00399
300.004
300.00415
300.00389
300.00374
300.00374
300.00388
300.00479
300.00508
300.00403
300.00386
300.00386
300.00406
300.00458
300.00435
300.00434
300.00453
300.0057
300.00676
300.00546
300.00526
300.00528
300.00558
300.00696
300.00659
300.00655
300.00677
300.00822
300.01017
300.00858
300.00834
300.00842
300.00889
300.01129
300.01071
300.01061
300.01087
300.01259
300.01557
300.01375
300.01348
300.01365
300.01438
300.01804
300.01716
300.01694
300.01721
300.01911
300.02328
300.02137
300.02111
300.02142
300.0225
300.02761
300.02633
300.02594
300.02619
300.02808
300.03353
300.03175
300.03153
300.03203
300.03353
300.04014
300.03843
300.03783
300.03802
300.03963
300.0464
300.04504
300.04491
300.04563
300.04759
300.05573
300.05355
300.0527
300.05277
300.05379
300.06178
300.06134
300.06138
300.06241
300.06489
300.07494
300.07215
300.07091
300.07071
300.07027
300.07915
300.08091
300.08135
300.08284
300.08593
300.09746
300.09413
300.0924
300.09167
300.0881
300.08811
300.08488
300.08333
300.08285
300.08066
300.07153
300.0723
300.07255
300.07385
300.07672
300.06609
300.06353
300.06246
300.06241
300.06268
300.05442
300.05349
300.05344
300.05435
300.05664
300.04815
300.04614
300.04539
300.04552
300.04681
300.0399
300.03836
300.03818
300.03881
300.04057
300.03376
300.03224
300.03174
300.03196
300.03367
300.02815
300.02633
300.02609
300.02651
300.02783
300.02241
300.02131
300.02103
300.02131
300.02327
300.01901
300.0168
300.01643
300.0165
300.01718
300.01334
300.01286
300.01283
300.0132
300.01547
300.01266
300.01067
300.01037
300.01042
300.01086
300.00934
300.00874
300.00859
300.00879
300.01033
300.0084
300.00713
300.00695
300.00704
300.00752
300.00599
300.00563
300.00556
300.00574
300.00688
300.00584
300.00481
300.00465
300.00469
300.00495
300.0044
300.00416
300.00413
300.00428
300.00519
300.00494
300.00417
300.00405
300.00408
300.00426
300.00447
300.00428
300.00424
300.00434
300.00502
300.00548
300.00488
300.00478
300.00482
300.00499
300.00585
300.00567
300.00561
300.0057
300.00624
300.00747
300.00699
300.0069
300.00695
300.00711
300.00869
300.0085
300.00843
300.00851
300.00892
300.0109
300.01055
300.01048
300.01057
300.01079
300.01304
300.01278
300.01266
300.01274
300.01311
300.01606
300.01571
300.01564
300.01579
300.01612
300.01848
300.01818
300.01804
300.01818
300.01892
300.02335
300.02277
300.02267
300.02289
300.02339
300.02526
300.02495
300.02481
300.02502
300.02613
300.03389
300.03442
300.03452
300.03503
300.0355
300.04871
300.0444
300.04133
300.03958
300.0324
300.05006
300.02954
300.02498
300.02241
300.03266
299.75721
299.8059
299.84904
299.88189
300.00533
300.00724
299.7037
299.65868
299.61749
299.5786
300.0212
299.98199
299.95903
299.95376
300.00793
299.97582
300.0336
300.05032
300.07376
300.11373
300.09546
300.08293
300.08117
300.08056
300.0744
300.04148
300.05001
300.05207
300.05553
300.05963
300.04648
300.04572
300.04486
300.04447
300.04239
300.03081
300.02988
300.02973
300.02996
300.03027
300.02678
300.02633
300.02612
300.02623
300.02686
300.02144
300.02061
300.02047
300.02059
300.02085
300.0177
300.0174
300.01726
300.01735
300.01779
300.01442
300.01394
300.01384
300.01394
300.01414
300.01148
300.01129
300.01122
300.01131
300.01175
300.00955
300.00905
300.00895
300.009
300.00915
300.00732
300.00719
300.00715
300.00726
300.00782
300.00652
300.00588
300.00577
300.00579
300.00591
300.00484
300.00472
300.00472
300.00485
300.00559
300.00506
300.00423
300.00409
300.00409
300.00423
300.00394
300.0038
300.0038
300.00395
300.00488
300.00509
300.00403
300.00386
300.00387
300.00405
300.00454
300.00431
300.0043
300.00449
300.00568
300.00668
300.00537
300.00517
300.00519
300.00548
300.00682
300.00646
300.00642
300.00665
300.0081
300.00999
300.0084
300.00816
300.00824
300.00869
300.01105
300.01049
300.01039
300.01064
300.01238
300.01532
300.01347
300.01321
300.01336
300.01407
300.01771
300.01685
300.01663
300.01691
300.01882
300.02296
300.02103
300.02077
300.02107
300.02213
300.02728
300.02601
300.02561
300.02586
300.02773
300.03317
300.03144
300.03124
300.03175
300.03326
300.03993
300.0382
300.03757
300.03775
300.03925
300.04599
300.04476
300.04464
300.04539
300.04735
300.05545
300.05327
300.0524
300.05246
300.05337
300.06135
300.06096
300.061
300.06204
300.06452
300.07444
300.07167
300.07045
300.07026
300.06981
300.07863
300.08042
300.08084
300.08233
300.08542
300.09702
300.0936
300.09184
300.09112
300.08752
300.08724
300.09223
300.09306
300.09495
300.09857
300.08673
300.08345
300.08185
300.08133
300.07842
300.06969
300.07097
300.07126
300.07262
300.07556
300.06534
300.06273
300.06161
300.0615
300.06127
300.05333
300.05287
300.05289
300.05385
300.05618
300.04791
300.04583
300.04501
300.04508
300.04597
300.03925
300.038
300.03789
300.0386
300.04045
300.03369
300.03207
300.0315
300.03166
300.03319
300.02777
300.02602
300.02582
300.02628
300.02765
300.02242
300.02128
300.02093
300.02116
300.02302
300.01891
300.01703
300.01679
300.01706
300.01799
300.01432
300.01354
300.01335
300.01359
300.01541
300.01248
300.01076
300.01053
300.01067
300.01128
300.0089
300.00839
300.00828
300.00849
300.01009
300.0082
300.00673
300.00653
300.0066
300.00699
300.00563
300.0053
300.00524
300.00543
300.00676
300.00578
300.00455
300.00438
300.0044
300.00465
300.00415
300.00393
300.0039
300.00406
300.00518
300.00498
300.004
300.00386
300.00386
300.00401
300.00432
300.00417
300.00415
300.00428
300.00516
300.00573
300.00496
300.00483
300.00484
300.00497
300.00608
300.00594
300.0059
300.00601
300.00668
300.00805
300.00748
300.00738
300.00742
300.00755
300.00947
300.0093
300.00924
300.00932
300.00982
300.01213
300.01171
300.01162
300.0117
300.01188
300.01465
300.01444
300.01434
300.01443
300.01489
300.01847
300.01806
300.01798
300.01812
300.0184
300.02169
300.02146
300.02135
300.02149
300.0223
300.02803
300.02752
300.02742
300.02763
300.02809
300.03075
300.03065
300.0306
300.03085
300.03205
300.04417
300.04541
300.04538
300.04563
300.04645
300.01915
300.02454
300.02782
300.03031
300.03896
300.09019
300.10834
300.11143
300.11516
300.12216
300.0452
299.72889
299.68437
299.64335
299.5997
300.01435
300.00459
300.00592
300.01105
300.06456
300.03348
300.03299
300.03237
300.03166
300.03096
300.03552
300.03542
300.0356
300.036
300.03701
300.02759
300.02655
300.02634
300.02646
300.0268
300.02454
300.02413
300.02392
300.02402
300.02446
300.01966
300.01894
300.01881
300.01893
300.01917
300.01643
300.01614
300.016
300.01608
300.01641
300.01339
300.01301
300.01293
300.01303
300.01324
300.01079
300.0106
300.01052
300.0106
300.01098
300.009
300.00854
300.00845
300.00851
300.00867
300.00694
300.0068
300.00676
300.00686
300.0074
300.00621
300.00558
300.00548
300.00551
300.00563
300.00465
300.00452
300.0045
300.00462
300.00536
300.0049
300.00406
300.00393
300.00394
300.00408
300.00383
300.00369
300.00368
300.00381
300.00477
300.00502
300.00389
300.00373
300.00374
300.00394
300.00445
300.00421
300.0042
300.00437
300.00563
300.00665
300.00527
300.00508
300.00512
300.00541
300.00678
300.0064
300.00635
300.00656
300.00809
300.01
300.00835
300.00813
300.00822
300.00869
300.01112
300.01053
300.0104
300.01064
300.0124
300.01535
300.01352
300.01329
300.01348
300.01423
300.01795
300.01704
300.01678
300.01701
300.01886
300.023
300.02121
300.02099
300.02135
300.02248
300.0277
300.02635
300.0259
300.02609
300.02776
300.03318
300.03171
300.03156
300.03214
300.03374
300.04041
300.0386
300.03791
300.03802
300.03925
300.04596
300.04507
300.04501
300.04583
300.04788
300.05604
300.05376
300.05282
300.05282
300.05329
300.06121
300.06139
300.06151
300.06263
300.06522
300.0753
300.07241
300.07108
300.07081
300.0696
300.07835
300.08112
300.08164
300.08322
300.08644
300.09824
300.09468
300.09281
300.092
300.08714
300.09723
300.09385