/*--------------------------------*- C++ -*----------------------------------*\
  =========                 |
  \\      /  F ield         | OpenFOAM: The Open Source CFD Toolbox
   \\    /   O peration     | Website:  https://openfoam.org
    \\  /    A nd           | Version:  7
     \\/     M anipulation  |
\*---------------------------------------------------------------------------*/
FoamFile
{
    version     2.0;
    format      ascii;
    class       volScalarField;
    location    "350";
    object      alphat;
}
// * * * * * * * * * * * * * * * * * * * * * * * * * * * * * * * * * * * * * //

dimensions      [1 -1 -1 0 0 0 0];

internalField   nonuniform List<scalar> 
25201
(
7.9982826
7.9834151
7.9983054
7.9834651
7.8378688
7.9457659
7.9708574
8.0152452
7.9962881
7.9119652
7.9962699
7.9457437
7.8950819
7.1849681
7.0532982
7.732662
7.6195398
7.5116475
7.4588293
7.1556378
7.3719523
7.3805541
7.4694136
7.3128657
7.2947065
7.0954258
7.2353855
7.5204643
7.4485556
7.1566833
7.2126125
7.288934
6.8274074
6.9128849
7.0238881
7.0534378
7.2941425
7.2160946
6.9453525
6.858905
7.1579494
7.1253897
7.1243943
6.7820999
6.8147621
6.8710079
7.1520672
7.5193071
7.8294039
7.8951294
7.9557109
7.8990902
7.6983492
7.7759496
7.8575298
7.8145124
7.778671
7.676978
7.7232981
7.4312754
7.4713753
7.577207
7.6206283
7.68828
7.7284063
7.8930912
7.8138092
7.5529616
7.491211
7.2839328
7.2210271
7.2864243
7.5849737
7.6409154
7.5784169
7.0825849
7.1454516
7.2254522
7.2448444
7.3157856
7.4091648
7.491944
7.3509906
7.3692122
7.2770016
7.4049516
7.2314359
7.1850058
7.036039
7.1202366
7.0217163
6.9686361
6.952417
6.9547011
6.9378822
7.0230495
7.0171313
6.9328357
6.7776341
6.8821974
6.8900164
6.7916989
6.8114033
6.9094815
6.9192115
6.8378138
6.6574159
6.7724085
6.8451505
6.8276172
6.7346371
6.7461011
6.6229341
6.6075969
6.4220056
6.5660757
6.5745702
6.437838
6.4558874
6.6396742
6.7619602
6.5961076
6.6056791
6.4731624
6.2710202
6.4395313
6.568542
6.8450479
7.1201615
6.9451951
6.8587363
6.8145605
6.870915
6.9113243
6.9994761
7.0982951
7.2314033
7.3509504
7.5771811
7.7786406
7.8144893
7.620603
7.4312124
7.4713137
7.6769202
7.7232462
7.775893
7.8574992
7.9556692
7.8930636
7.7283807
7.6882359
7.491161
7.5528719
7.8137409
7.7402867
7.8990235
7.8293171
7.5848939
7.6408483
7.2209401
7.2863078
7.4048935
7.409077
7.491877
7.315664
7.2447089
7.2253354
7.0503389
7.1337496
7.2769351
7.3691711
7.1953421
7.3088367
7.3756883
7.2299309
7.1953225
7.1663775
6.8980913
6.9275083
6.683246
6.7594539
6.7815689
6.6648369
6.6624518
6.5260721
6.6383227
6.6304194
6.4952115
6.2922279
6.4635533
6.6130546
6.8980003
7.166342
6.9685933
7.0215894
7.0357982
6.4557611
6.5960033
6.7618775
6.9093375
6.9191876
6.8377879
6.952333
6.954504
6.8111607
6.6396104
6.6573568
6.7723492
6.6056653
6.473136
6.2710014
6.4394816
6.4265224
6.4053498
6.5405767
7.9833416
7.9980968
7.8288868
7.5204117
7.4485345
7.1244344
6.9128833
7.2125495
7.1566506
7.1579721
7.1253606
6.8147492
6.7820059
6.8273269
6.8588767
6.9453137
7.2160324
7.2940951
7.2888314
7.0238146
7.053341
7.1849387
7.3804475
7.6194263
0.0012874518
0.0058275998
0.013970635
0.024128935
0.32307801
0.33027426
0.025064163
0.014489019
0.0060354325
0.001323725
0.0013411253
0.006210814
0.014932292
0.025804073
0.33809672
0.34280313
0.026101862
0.0151172
0.0062884221
0.0013501627
0.0013536586
0.006323298
0.015199616
0.026223342
0.34586466
0.34798354
0.026296793
0.015251052
0.0063451922
0.0013557505
0.0013574528
0.0063666269
0.01530416
0.026377591
0.34967075
0.35116219
0.026474911
0.015364389
0.0063901432
0.0013591854
0.0013609554
0.0064156066
0.015430404
0.026583866
0.35256811
0.35395216
0.026700167
0.015499764
0.0064421173
0.0013627553
0.0013645862
0.0064695682
0.015571445
0.026820339
0.35533584
0.35673924
0.026943705
0.015644693
0.0064975452
0.001366436
0.00136832
0.0065262514
0.015719567
0.027069386
0.35816386
0.35961688
0.02719772
0.015795816
0.0065554414
0.0013702285
0.0013721779
0.0065853532
0.01587365
0.027328296
0.3610958
0.36260613
0.027461656
0.015952975
0.0066158021
0.001374159
0.0013761859
0.0066469801
0.016033929
0.027597378
0.36414564
0.36571944
0.027736008
0.016116472
0.0066787419
0.0013782519
0.0013803689
0.0067112628
0.016200709
0.027877151
0.36732501
0.36896628
0.028021453
0.016286723
0.0067444466
0.0013825332
0.0013847523
0.006778436
0.016374527
0.028168426
0.37064151
0.3723551
0.028318666
0.016464185
0.0068131224
0.0013870187
0.0013893384
0.0068486136
0.01655564
0.028471641
0.37410631
0.37589923
0.028627895
0.01664894
0.0068847944
0.0013917057
0.0013941296
0.0069218185
0.016744144
0.028787095
0.37773135
0.37960129
0.028949592
0.016841252
0.0069595742
0.0013966049
0.0013991442
0.0069982027
0.016940325
0.02911515
0.38150854
0.38345822
0.029284481
0.017041593
0.0070376846
0.00140175
0.0014044342
0.0070781468
0.017145153
0.029457479
0.38545412
0.38750463
0.029634936
0.017251348
0.0071196336
0.0014071913
0.0014100179
0.0071623042
0.017360048
0.02981612
0.38960899
0.39175346
0.030000384
0.017470424
0.0072055863
0.0014129111
0.43923172
0.027068262
0.015913825
0.006639237
0.0013544065
0.0013517876
0.0066000757
0.015813961
0.026902836
0.43684674
0.43449834
0.026739005
0.015714733
0.0065610466
0.0013492213
0.0013466945
0.0065226377
0.015616495
0.026576449
0.43218936
0.4299405
0.026417936
0.01552086
0.0064853399
0.0013442248
0.0013418229
0.0064489368
0.01542733
0.026262716
0.42774808
0.42561013
0.026111295
0.015335985
0.0064133567
0.0013394816
0.0013371958
0.006378597
0.015246468
0.0259627
0.4235216
0.42148383
0.025817816
0.015159108
0.0063446607
0.0013349625
0.0013327859
0.0063116228
0.015073781
0.025676026
0.41949487
0.41755078
0.02553797
0.014990615
0.0062793934
0.0013306626
0.0013285896
0.0062478368
0.014908913
0.025402073
0.41564405
0.4137767
0.025269157
0.014828881
0.0062168946
0.0013265611
0.0013245796
0.0061866261
0.014750273
0.025138258
0.41194758
0.41015906
0.025010506
0.014673417
0.0061569922
0.0013226403
0.0013207472
0.0061280264
0.014597958
0.024884663
0.40840565
0.40669226
0.024762055
0.014524245
0.0060996692
0.0013188934
0.0013170793
0.0060719216
0.014451755
0.024640993
0.40500999
0.40336332
0.024522963
0.014380854
0.0060447085
0.0013152959
0.0013135469
0.0060180938
0.014311124
0.024406365
0.40174446
0.400157
0.024292707
0.014242889
0.0059919603
0.0013118218
0.0013101236
0.0059664289
0.014175852
0.02418054
0.39859345
0.3970515
0.024071783
0.014110472
0.005941415
0.0013084439
0.0013067869
0.0059171843
0.014046902
0.023965887
0.39551412
0.39395928
0.023867057
0.013986558
0.0058939208
0.0013051544
0.0013035438
0.0058723495
0.013931095
0.0237779
0.39232862
0.39052406
0.02370381
0.013881958
0.0058524549
0.0013019279
0.0012999158
0.0058321653
0.013833861
0.023635215
0.38830708
0.38518305
0.023525848
0.013758393
0.0057995856
0.0012963924
0.0012882165
0.0057311935
0.013593457
0.023263439
0.38039805
0.3734241
0.022718192
0.013268304
0.0055984675
0.001271701
0.0012480431
0.0053925078
0.012776459
0.021886618
0.36504743
0.34132778
0.019521727
0.011265083
0.0047753632
0.0012016395
0.0012461767
0.0054020341
0.012800453
0.021921614
0.36569594
0.37412813
0.022751097
0.013289231
0.005606599
0.0012707388
0.0012878181
0.0057395535
0.013614022
0.023295647
0.38097706
0.38562977
0.023550714
0.013774252
0.0058060938
0.0012961738
0.0012998188
0.0058374321
0.013846906
0.023655985
0.3886862
0.39084784
0.023720302
0.013892302
0.0058566448
0.0013018833
0.0013035334
0.0058758218
0.013939842
0.023792082
0.39261052
0.39420012
0.023878694
0.013993737
0.0058967843
0.0013051615
0.0013068084
0.0059196488
0.014053185
0.023976198
0.39572453
0.39723713
0.02408049
0.014115792
0.0059435203
0.0013084722
0.0013101593
0.0059683012
0.014180675
0.024188539
0.39875758
0.40030353
0.024299597
0.014247073
0.0059936079
0.0013118609
0.0013135913
0.006019606
0.014315044
0.024412902
0.40187663
0.40348338
0.024528733
0.014384357
0.0060460894
0.0013153435
0.0013171318
0.0060732521
0.014455199
0.024646733
0.4051217
0.40679627
0.024767308
0.014527447
0.0061009302
0.0013189489
0.0013208068
0.0061293001
0.014601249
0.024890139
0.408505
0.41025185
0.025015632
0.014676534
0.0061582185
0.0013226987
0.0013246358
0.0061878446
0.014753416
0.025143482
0.41203521
0.41385846
0.025274093
0.014831865
0.0062180615
0.0013266108
0.0013286329
0.0062489914
0.014911921
0.025407103
0.41572029
0.41762405
0.025542952
0.014993613
0.0062805522
0.0013306967
0.0013328108
0.0063128153
0.015076895
0.025681222
0.4195691
0.42156001
0.02582265
0.015161993
0.0063457654
0.0013349752
0.0013371988
0.0063795727
0.015249084
0.025967173
0.42359991
0.42569145
0.026115182
0.015338245
0.0064141969
0.0013394773
0.0013418174
0.0064496772
0.015429365
0.026266273
0.42783309
0.43002832
0.026421083
0.015522672
0.006486006
0.0013442227
0.001346702
0.0065233065
0.015618309
0.026579581
0.43227842
0.43458678
0.026742383
0.01571677
0.0065618243
0.0013492454
0.0013518303
0.0066010629
0.015816499
0.026906962
0.43693891
0.4393316
0.02707327
0.015916909
0.0066404533
0.0013544691
0.0013572074
0.006680877
0.016019995
0.027244062
0.44179892
0.0014052925
0.0071358101
0.017261735
0.029582593
0.39346296
0.39126906
0.029397775
0.017150857
0.0070922596
0.0014023606
0.0013995089
0.0070494184
0.017041787
0.029216131
0.3891242
0.38702982
0.029038649
0.016935203
0.007007601
0.0013967366
0.0013940136
0.0069664484
0.016830019
0.028863347
0.38497412
0.38297194
0.028692228
0.016727406
0.0069263603
0.0013913501
0.001388756
0.0068872443
0.016627065
0.028524686
0.3810182
0.37911118
0.028361283
0.016529114
0.0068490397
0.0013862287
0.0013837669
0.0068117537
0.016433203
0.028201002
0.37724568
0.37542542
0.028044789
0.016339647
0.006775371
0.0013813689
0.0013790353
0.0067398349
0.016247965
0.027891386
0.37364344
0.3719021
0.027741709
0.016158387
0.0067050834
0.0013767597
0.0013745401
0.006671081
0.016070436
0.027594429
0.37019561
0.36852651
0.027450525
0.015984365
0.0066377711
0.0013723687
0.0013702472
0.0066051878
0.015899842
0.027308833
0.36689108
0.36529246
0.027170565
0.015817192
0.0065732743
0.0013681692
0.0013661377
0.0065420652
0.01573602
0.027034341
0.36372531
0.36219317
0.026901482
0.015656655
0.0065114893
0.0013641443
0.0013621933
0.0064816058
0.015578725
0.026770545
0.36069088
0.35922186
0.026642966
0.015502563
0.0064523294
0.0013602762
0.0013583962
0.0064237327
0.01542778
0.026517145
0.35778036
0.35636941
0.026394687
0.015354724
0.0063957155
0.0013565437
0.0013547211
0.0063683891
0.015283078
0.026274035
0.35498173
0.35361735
0.026157458
0.015213445
0.0063417157
0.0013529197
0.0013511465
0.0063159964
0.015146037
0.026044438
0.35225796
0.35088549
0.025940024
0.015082621
0.0062915163
0.0013494042
0.0013476978
0.0062691673
0.015025293
0.02584762
0.34944129
0.34783252
0.025773918
0.014976088
0.006249144
0.0013460008
0.0013438725
0.0062289978
0.014928837
0.025707786
0.34582711
0.34293138
0.025592355
0.014849528
0.0061950348
0.0013399497
0.0013304522
0.0061224375
0.01467165
0.025303338
0.33852989
0.33233532
0.024695117
0.014317784
0.005981755
0.0013109413
0.0012798977
0.0057858805
0.013825457
0.023818501
0.32532023
0.32429519
0.02419628
0.014033863
0.0058646967
0.0012827189
0.0013240414
0.0060278676
0.014463551
0.02502778
0.33010307
0.33831717
0.025826583
0.014946332
0.0062161553
0.0013411279
0.0013503225
0.0062917852
0.015124933
0.026114127
0.34292208
0.34599974
0.026235683
0.015207107
0.0063262542
0.0013537304
0.0013558131
0.0063476762
0.015257141
0.026306306
0.34810229
0.34978583
0.026386367
0.015309417
0.0063686521
0.0013574955
0.0013592378
0.0063921093
0.015369269
0.026482535
0.35126791
0.35266832
0.026591287
0.015434821
0.0064172899
0.001361003
0.0013628127
0.0064438183
0.015503998
0.026706798
0.35404177
0.35542185
0.02682693
0.015575353
0.0064710478
0.0013646387
0.0013664971
0.0064990566
0.015648471
0.026949657
0.35681839
0.35824114
0.027075366
0.015723096
0.0065275847
0.0013683764
0.0013702924
0.0065568343
0.015799299
0.027203246
0.35969001
0.36116808
0.027333933
0.015876978
0.0065866094
0.0013722379
0.0013742261
0.0066171249
0.015956286
0.027466937
0.3626749
0.36421423
0.027602888
0.016037192
0.0066482183
0.0013762501
0.0013783217
0.006680077
0.016119799
0.027741324
0.36578502
0.36739047
0.027882861
0.016204109
0.0067125567
0.0013804341
0.0013825989
0.0067458164
0.01629015
0.028026971
0.36902961
0.37070426
0.028174317
0.016378002
0.0067797472
0.0013848102
0.0013870796
0.0068144948
0.016467688
0.028324458
0.37241351
0.37416023
0.02847799
0.016559308
0.0068499787
0.0013894031
0.0013917893
0.0068863014
0.016652815
0.028634418
0.37594329
0.37776585
0.028794345
0.016748332
0.0069233946
0.0013942342
0.0013967452
0.0069613711
0.016845848
0.028957381
0.37962938
0.38153863
0.029124109
0.016945534
0.0070001981
0.0013993175
0.0014019535
0.0070399422
0.017047312
0.029294132
0.38349553
0.3855046
0.029467793
0.017151211
0.0070805097
0.001404647
0.0014074037
0.0071220167
0.017257266
0.029644888
0.38756785
0.38968437
0.029826116
0.017365783
0.0071644943
0.0014102257
0.0014131257
0.0072081237
0.017476825
0.030011185
0.39185124
0.39406597
0.030200143
0.01759015
0.007252645
0.0014161011
0.0014052543
0.0071354068
0.017260725
0.029580911
0.39344879
0.39125991
0.029396204
0.017149915
0.007091883
0.0014023188
0.0013994644
0.0070490456
0.017040861
0.029214578
0.3891184
0.38702467
0.029036966
0.016934189
0.007007184
0.00139669
0.0013939663
0.006966006
0.016828932
0.028861536
0.38496857
0.38296387
0.028690321
0.016726265
0.0069258995
0.0013913054
0.0013887154
0.0068867681
0.016625879
0.028522694
0.38100609
0.37909543
0.028359247
0.016527916
0.0068485694
0.0013861935
0.0013837376
0.0068112933
0.016432022
0.028198998
0.37722747
0.37540453
0.028042746
0.016338445
0.0067749053
0.0013813433
0.0013790127
0.0067393872
0.01624681
0.027889447
0.37362171
0.37188061
0.027739863
0.016157277
0.0067046493
0.0013767393
0.0013745212
0.0066706754
0.016069404
0.027592731
0.37017515
0.36850767
0.027448977
0.015983413
0.0066373935
0.0013723509
0.0013702303
0.006604841
0.015898976
0.027307431
0.3668733
0.36527662
0.027169303
0.015816403
0.0065729575
0.0013681538
0.0013661241
0.0065417798
0.015735311
0.027033205
0.36371065
0.36217941
0.026900423
0.015655986
0.0065112169
0.0013641321
0.0013621828
0.006481359
0.015578107
0.026769557
0.36067689
0.3592088
0.026642054
0.015501983
0.0064520953
0.0013602676
0.0013583889
0.0064235021
0.015427201
0.026516221
0.35776699
0.35635509
0.026393774
0.015354142
0.00639548
0.0013565372
0.0013547155
0.0063681499
0.015282482
0.026273087
0.35496741
0.3536022
0.026156432
0.015212795
0.0063414583
0.001352915
0.001351142
0.0063157206
0.015145344
0.026043343
0.35224225
0.3508688
0.025938807
0.015081861
0.0062912189
0.0013493995
0.0013476926
0.0062688868
0.015024562
0.025846437
0.34942669
0.34781934
0.025772583
0.01497528
0.0062488346
0.0013459914
0.0013438528
0.0062287897
0.014928206
0.0257066
0.34581925
0.3429361
0.025591127
0.014848889
0.0061948049
0.0013399157
0.0013303214
0.0061216659
0.014669847
0.025300151
0.33854119
0.33238118
0.024690595
0.014315417
0.005980844
0.0013108008
0.0012789876
0.0057826831
0.013819831
0.023808358
0.32549394
0.36664554
0.021978198
0.012857982
0.0054332099
0.0012415323
0.0012706474
0.005601496
0.01326935
0.022719061
0.37384396
0.38100068
0.023298701
0.013615851
0.0057400947
0.0012877882
0.0012963491
0.0058065237
0.0137745
0.023550787
0.38562799
0.3886549
0.023654376
0.013845675
0.0058369381
0.0012998757
0.0013019138
0.0058560332
0.013890564
0.023717235
0.39079194
0.39254625
0.023788894
0.013937711
0.0058749496
0.0013035311
0.0013051575
0.0058960657
0.013991781
0.023875234
0.39413422
0.3956619
0.023973146
0.014051195
0.0059188405
0.0013067919
0.0013084594
0.0059428862
0.014114051
0.024077391
0.39717452
0.39870108
0.024185869
0.014178936
0.0059675931
0.0013101374
0.0013118427
0.0059930308
0.014245485
0.024296784
0.40024942
0.40182734
0.02441044
0.014313449
0.0060189601
0.0013135656
0.0013153205
0.0060455468
0.014382857
0.024526081
0.40343499
0.40507697
0.024644369
0.014453673
0.0060726342
0.0013171009
0.0013189188
0.0061003776
0.014525929
0.024764657
0.40675217
0.40846366
0.024887662
0.014599662
0.006128657
0.0013207686
0.0013226593
0.0061576076
0.014674874
0.025012778
0.41021026
0.41199499
0.025140664
0.014751625
0.006187119
0.0013245865
0.00132656
0.006217333
0.01482992
0.025270808
0.41381725
0.41567889
0.025403765
0.014909824
0.0062481476
0.0013285752
0.0013306429
0.0062797127
0.014991394
0.025539232
0.41757987
0.41952418
0.025677673
0.015074676
0.0063119279
0.0013327598
0.0013349402
0.0063449507
0.015159841
0.025819064
0.42151363
0.42355454
0.025964113
0.015247169
0.0063788153
0.0013371815
0.001339486
0.0064136074
0.015336627
0.026112475
0.42564644
0.42779075
0.026264374
0.015428181
0.0064492269
0.0013418477
0.0013442733
0.0064857407
0.015521816
0.026419579
0.42998709
0.43223859
0.02657855
0.01561769
0.0065230968
0.0013467574
0.0013492951
0.0065615926
0.015716004
0.026741041
0.43454614
0.43689497
0.026905505
0.01581559
0.0066007232
0.0013518627
0.0013544818
0.0066400034
0.015915591
0.027071002
0.43928182
0.44173964
0.027241436
0.016018438
0.0066802987
0.0013572004
0.39396863
0.030192091
0.017585398
0.0072507892
0.0014159762
0.0014129838
0.0072061922
0.017471836
0.030002631
0.39175636
0.38960847
0.029818683
0.017361562
0.0071628867
0.0014100958
0.0014072698
0.0071201751
0.017252627
0.029636974
0.38749876
0.38544445
0.029459482
0.017146318
0.0070785873
0.0014045012
0.0014017971
0.0070379754
0.017042249
0.029285458
0.38344364
0.38149339
0.029115655
0.016940602
0.0069982765
0.0013991594
0.0013965903
0.0069595027
0.016841016
0.028949032
0.37958777
0.37772606
0.028786424
0.01674373
0.0069216085
0.0013940863
0.0013916482
0.0068845784
0.016648357
0.02862672
0.37590333
0.37412129
0.02847109
0.016555298
0.0068484238
0.0013892753
0.0013869664
0.006813067
0.016463978
0.028318052
0.37237399
0.37066316
0.028168732
0.016374727
0.0067784726
0.0013847127
0.0013825128
0.0067446272
0.016287061
0.028021673
0.36898611
0.36734513
0.027878152
0.016201322
0.0067114696
0.0013803587
0.0013782529
0.0066790294
0.016117068
0.027736656
0.36573672
0.36416366
0.027598601
0.016034648
0.0066472235
0.001376187
0.0013741654
0.0066161254
0.015953665
0.027462448
0.36262162
0.36111365
0.027329731
0.015874488
0.0065856397
0.0013721802
0.0013702345
0.0065558355
0.015796672
0.027198739
0.35963392
0.35818579
0.027071159
0.015720611
0.0065266165
0.0013683201
0.0013664398
0.0064980575
0.015645836
0.026945139
0.35676255
0.35536648
0.026822696
0.015572843
0.0064700713
0.0013645831
0.0013627561
0.0064428164
0.015501348
0.026702245
0.35398613
0.35261267
0.02658722
0.015432401
0.0064163476
0.0013609489
0.0013591826
0.0063911698
0.015366758
0.026478177
0.35121398
0.3497358
0.026382653
0.015307242
0.0063678167
0.0013574434
0.0013557615
0.0063470143
0.015255261
0.026302872
0.34805617
0.34595951
0.026233363
0.015205801
0.0063257812
0.0013536819
0.0013502517
0.0062921175
0.015125493
0.026114596
0.34290551
0.33829596
0.025824277
0.014944064
0.0062150834
0.0013409589
0.0013233001
0.0060315957
0.014472016
0.025039238
0.33016793
0.32406197
0.024188035
0.014030103
0.0058635071
0.0012818416
0.0012875173
0.0058425627
0.014004471
0.024179164
0.3236142
0.33061858
0.025083101
0.014501602
0.0060409474
0.0013233404
0.0013408039
0.0062148174
0.014941601
0.025818262
0.33837848
0.34303642
0.026115207
0.015125541
0.0062917926
0.0013500064
0.0013536005
0.0063265928
0.015207767
0.026236331
0.34606913
0.34815441
0.026308706
0.015258447
0.0063481245
0.0013557468
0.0013574753
0.0063692509
0.015310734
0.026388088
0.34981997
0.35129365
0.026484413
0.015370298
0.0063924764
0.001359223
0.0013610001
0.0064176789
0.01543564
0.026592259
0.35268448
0.35405432
0.026707931
0.015504577
0.00644401
0.0013628046
0.0013646361
0.0064712562
0.015575725
0.026827211
0.35542836
0.35682387
0.026950243
0.015648732
0.0064991216
0.001366489
0.0013683744
0.0065276956
0.015723234
0.027075297
0.35824252
0.35969169
0.027203502
0.015799371
0.0065568287
0.0013702858
0.0013722367
0.0065866575
0.015876982
0.027333703
0.36116764
0.36267616
0.027467066
0.015956286
0.0066170913
0.0013742217
0.0013762503
0.0066482397
0.016037134
0.027602594
0.3642151
0.3657889
0.027741364
0.016119739
0.00668002
0.0013783181
0.0013804337
0.0067125372
0.01620395
0.027882445
0.36739627
0.36904133
0.02802687
0.016290012
0.0067457326
0.0013825923
0.0013848006
0.0067796785
0.016377731
0.028173756
0.37072207
0.37244225
0.028323961
0.016467312
0.0068143161
0.0013870543
0.00138936
0.006849707
0.016558533
0.028476595
0.37419798
0.37599138
0.028632568
0.016651645
0.0068858083
0.001391716
0.0013941309
0.0069227419
0.016746613
0.028791343
0.37782182
0.37969159
0.028953712
0.016843668
0.0069604795
0.0013966035
0.0013991455
0.0069991245
0.01694277
0.029119264
0.38160088
0.38355642
0.029289016
0.017044326
0.0070387256
0.00140176
0.0014044543
0.0070793504
0.017148303
0.029462703
0.38556348
0.38762456
0.029640855
0.017254925
0.0071210107
0.0014072237
0.0014100659
0.0071638247
0.017363929
0.029822517
0.38973063
0.39187171
0.030007046
0.017474401
0.0072071314
0.0014129763
0.0014159953
0.007251806
0.017588096
0.030196694
0.39407688
8.0821097
8.0775945
8.0820878
8.0775501
8.0164207
8.0455608
8.0571086
8.1019496
8.0952306
8.045577
7.9832979
8.0517329
8.0952155
8.074745
8.0109374
7.9710387
7.9350542
7.7932083
7.8367762
7.686682
7.9063751
7.8662563
7.6200376
7.4303228
7.7998311
7.9745083
8.0430422
7.9028567
7.956723
7.9979336
8.0465055
7.9447322
7.8994055
7.7562549
7.8240788
7.6735876
7.9499434
7.9107858
7.8608323
7.7965407
7.8451414
7.5090067
7.3884109
7.3035615
7.7497605
7.6838996
7.6417076
7.69825
7.2837935
7.3537737
7.221724
7.1478812
7.0824095
7.145328
7.5191818
7.5783031
7.5783276
7.8292981
7.9833037
7.9980675
7.9455705
7.8949316
0.32618716
0.023799429
0.013817323
0.0057819632
0.0012846877
0.0013125675
0.0059722928
0.014292317
0.02464913
0.33236244
0.33827807
0.025260735
0.014645716
0.0061120358
0.0013308851
0.0013401421
0.0061873096
0.014830226
0.025561168
0.34264593
0.34559064
0.025687184
0.014915404
0.0062234606
0.0013439605
0.0013460645
0.0062452451
0.014966392
0.025758702
0.34764197
0.34930012
0.025837259
0.015018251
0.0062662307
0.0013477336
0.0013494351
0.0062894191
0.01507733
0.025931745
0.35077149
0.35217319
0.02603887
0.015142103
0.0063143348
0.0013511648
0.0013529407
0.0063405597
0.015210475
0.026152815
0.35355077
0.35493295
0.026271166
0.015280913
0.0063674496
0.0013547347
0.0013565618
0.006395098
0.015353104
0.026392167
0.35633024
0.35775207
0.026515837
0.015426655
0.0064232205
0.0013584096
0.0013602942
0.0064520352
0.015501751
0.026641712
0.35919809
0.36067423
0.026770195
0.015578242
0.006481352
0.0013622073
0.0013641632
0.006511393
0.015656349
0.026901024
0.36217722
0.36371208
0.027034591
0.015735953
0.0065419813
0.0013661536
0.0013681909
0.0065733096
0.015817217
0.027170613
0.36527739
0.36687672
0.027309561
0.015900113
0.0066052456
0.0013702693
0.0013723987
0.0066379628
0.015984776
0.027451181
0.36850846
0.37017614
0.027595873
0.016071174
0.006671328
0.001374573
0.0013768024
0.0067054945
0.016159376
0.027743317
0.37187892
0.3736195
0.027894008
0.01624943
0.0067403668
0.0013790823
0.0013814205
0.0067760659
0.016341354
0.028047577
0.37539724
0.37721529
0.028204513
0.016435219
0.0068125107
0.0013838138
0.0013862698
0.0068498222
0.016531048
0.028364517
0.37907471
0.38097864
0.028528002
0.016628923
0.0068879292
0.0013887849
0.0013913666
0.0069269505
0.016728886
0.028694788
0.38292861
0.3849283
0.028865251
0.016831026
0.0069668307
0.0013940117
0.0013967269
0.0070076674
0.016935342
0.029039136
0.38697873
0.38908127
0.029217065
0.01704208
0.0070494741
0.0013995129
0.0014023754
0.0070922869
0.017151099
0.0293986
0.39123604
0.39344474
0.029584322
0.017262622
0.0071360946
0.0014053144
0.0014022949
0.007091263
0.017148304
0.029393535
0.39119072
0.38905318
0.029213201
0.01704
0.0070487045
0.0013994546
0.0013966836
0.0070069302
0.016933428
0.029035625
0.386962
0.38490974
0.028860275
0.01682807
0.0069656244
0.0013939533
0.0013912846
0.0069254066
0.016724984
0.028688214
0.38290852
0.38095811
0.028520461
0.016624427
0.006886157
0.0013886828
0.0013861498
0.0068478311
0.016525977
0.02835598
0.37905273
0.37719029
0.028195529
0.016429845
0.0068103971
0.0013836811
0.0013812818
0.0067739211
0.016335839
0.028038295
0.37536703
0.3735871
0.02788548
0.016244383
0.0067384194
0.0013789495
0.0013766815
0.0067038055
0.016154934
0.027735713
0.37184658
0.37014203
0.027589369
0.016067336
0.0066698507
0.0013744653
0.0013723013
0.0066365449
0.015981112
0.027444995
0.36846843
0.36683074
0.027304012
0.01589677
0.0066039322
0.001370183
0.0013681128
0.0065720439
0.015813928
0.027165077
0.36522493
0.36365309
0.027029438
0.015732852
0.0065407709
0.0013660823
0.0013640943
0.0065101645
0.01565314
0.026895604
0.36211382
0.36060672
0.026764969
0.015575107
0.0064801314
0.0013621411
0.001360227
0.0064507522
0.015498397
0.026636025
0.35912646
0.35767722
0.026510297
0.015423329
0.0064219222
0.0013583434
0.0013564939
0.0063937155
0.015349487
0.026386039
0.35624989
0.35485071
0.026265249
0.015277351
0.0063660577
0.0013546682
0.0013528728
0.0063390664
0.015206575
0.02614624
0.35346401
0.3520835
0.026032281
0.015138127
0.0063127819
0.0013510977
0.0013493666
0.0062877268
0.015072929
0.025924376
0.35067644
0.3491989
0.025829923
0.015013783
0.0062644732
0.0013476709
0.0013460064
0.006243333
0.014961494
0.025750584
0.34753233
0.34546136
0.025679661
0.014910654
0.0062215287
0.0013439374
0.0013401587
0.0061853359
0.014825885
0.025555085
0.34247042
0.3379281
0.025256042
0.014640218
0.0061089607
0.0013310212
0.0013126331
0.005968495
0.014288401
0.024652934
0.33166614
0.324461
0.023770875
0.013782103
0.0057638804
0.0012843361
0.0012413914
0.0053956514
0.012850669
0.022209362
0.31127928
0.32561598
0.025584401
0.014723812
0.0060798128
0.001310881
0.0012865797
0.0058907473
0.014091361
0.0242835
0.3259042
0.33033739
0.02503014
0.014467946
0.0060308721
0.0013255342
0.0013415358
0.0062131792
0.014937928
0.025810724
0.33828791
0.34277166
0.026096507
0.015114059
0.0062875146
0.0013505429
0.0013538746
0.0063230198
0.015198853
0.02622205
0.34584216
0.34795334
0.026295151
0.015249881
0.0063446936
0.0013559063
0.001357565
0.0063663522
0.015303572
0.026376851
0.34965067
0.35114935
0.026474758
0.015364147
0.0063899992
0.0013592763
0.0013610326
0.0064156119
0.01543052
0.026584249
0.35256333
0.35395269
0.026701148
0.01550024
0.0064422673
0.001362825
0.0013646498
0.0064698251
0.015572177
0.026821692
0.35534437
0.35675378
0.026945482
0.015645686
0.0064979039
0.0013664971
0.0013683797
0.0065267008
0.015720772
0.027071485
0.35818223
0.35963822
0.027200164
0.015797234
0.0065559757
0.001370288
0.0013722374
0.0065859566
0.015875245
0.027331018
0.36112066
0.36263545
0.02746467
0.015954747
0.0066164765
0.0013742194
0.0013762471
0.0066477275
0.016035883
0.02760068
0.36417735
0.365752
0.027739593
0.016118605
0.0066795637
0.0013783127
0.0013804269
0.0067121644
0.016203045
0.027881061
0.3673581
0.36899917
0.028025543
0.016289155
0.0067453816
0.0013825826
0.0013847918
0.0067793817
0.016377028
0.028172682
0.37067281
0.37238312
0.028322959
0.016466677
0.0068140538
0.001387049
0.0013893642
0.0068495429
0.016558168
0.028476071
0.37413023
0.37591781
0.028632523
0.016651577
0.0068857612
0.0013917332
0.0013941662
0.0069228299
0.016746916
0.028791976
0.37774469
0.37961473
0.028954976
0.01684432
0.0069607057
0.0013966596
0.0013992204
0.0069995016
0.016943816
0.029121227
0.38152744
0.38348584
0.029291248
0.01704554
0.0070391689
0.0014018466
0.0014045467
0.0070798432
0.017149562
0.029464879
0.3854906
0.38754548
0.029642776
0.01725615
0.0071215386
0.0014073197
0.0014101786
0.0071644887
0.017365541
0.029824937
0.3896506
0.39180809
0.03001235
0.017478561
0.007209175
0.0014131286
0.0014161516
0.0072570301
0.017595609
0.030202902
0.39401806
0.0014022851
0.0070908371
0.017147437
0.029392368
0.39119595
0.38904327
0.029210016
0.017037948
0.0070478636
0.0013994158
0.0013966222
0.0070059685
0.01693092
0.029031516
0.38694515
0.38490386
0.028857964
0.016826852
0.0069652509
0.0013939084
0.0013912714
0.0069255205
0.01672508
0.028688068
0.38291305
0.38096967
0.02852228
0.016625679
0.006886703
0.0013887054
0.0013862078
0.006848776
0.016528258
0.028359548
0.37906922
0.37721224
0.028200698
0.016433084
0.0068117086
0.0013837722
0.001381401
0.0067753867
0.0163396
0.028044474
0.37539218
0.37359907
0.027889971
0.016246909
0.0067393124
0.0013790578
0.0013767584
0.0067041543
0.016156022
0.027737915
0.37184333
0.37012971
0.027589575
0.016067276
0.0066697916
0.0013745032
0.0013723225
0.0066365956
0.015981184
0.027445188
0.36846133
0.36682724
0.027304343
0.015896943
0.006604005
0.0013701973
0.001368124
0.0065721159
0.015814139
0.027165487
0.36522462
0.36365442
0.027029836
0.015733067
0.0065408466
0.0013660927
0.001364106
0.0065102355
0.015653339
0.02689595
0.36211309
0.36060377
0.026765131
0.015575212
0.0064801712
0.0013621537
0.0013602408
0.0064507532
0.015498399
0.026636029
0.35912065
0.35766815
0.02651002
0.01542317
0.0064218595
0.0013583574
0.0013565084
0.0063936029
0.015349211
0.0263856
0.35623795
0.35483454
0.026264468
0.015276874
0.0063658633
0.0013546833
0.00135289
0.0063388091
0.015205956
0.026145262
0.35344335
0.35205869
0.026031035
0.015137344
0.0063124549
0.0013511184
0.0013493929
0.0062873509
0.015072025
0.025922943
0.35064595
0.34916546
0.025828257
0.015012733
0.0062640346
0.0013477046
0.0013460498
0.0062428716
0.014960364
0.025748756
0.34749637
0.34542786
0.025677371
0.014909233
0.0062209317
0.0013439876
0.0013402224
0.0061848973
0.014824776
0.025553196
0.34245963
0.33797261
0.025256412
0.014640588
0.0061091569
0.001331122
0.0013128463
0.0059702905
0.014292854
0.024660193
0.33182968
0.32475183
0.023787313
0.013790837
0.0057673191
0.0012848077
0.0012426754
0.0054268567
0.012930409
0.0223373
0.31258654
0.34602247
0.020005486
0.011571543
0.004895928
0.0012126749
0.0012829209
0.0057344691
0.013722655
0.02364298
0.31925783
0.32374348
0.023793895
0.013819488
0.0057740599
0.0012805895
0.0012833108
0.0057764355
0.01380411
0.023780368
0.32596507
0.33235242
0.024652335
0.014294204
0.0059732883
0.0013122205
0.0013306203
0.0061118557
0.014645636
0.025260831
0.33830088
0.34273081