/*--------------------------------*- C++ -*----------------------------------*\
  =========                 |
  \\      /  F ield         | OpenFOAM: The Open Source CFD Toolbox
   \\    /   O peration     | Website:  https://openfoam.org
    \\  /    A nd           | Version:  7
     \\/     M anipulation  |
\*---------------------------------------------------------------------------*/
FoamFile
{
    version     2.0;
    format      ascii;
    class       volScalarField;
    location    "350";
    object      p;
}
// * * * * * * * * * * * * * * * * * * * * * * * * * * * * * * * * * * * * * //

dimensions      [1 -1 -2 0 0 0 0];

internalField   nonuniform List<scalar> 
25201
(
101314.97
101314.3
101315.02
101314.44
101313.68
101313.76
101313.93
101313.77
101313.48
101312.99
101313.45
101313.68
101313.31
101316.57
101317.25
101312.89
101313.85
101313.88
101312.33
101316.1
101313.89
101314.22
101312.89
101315.99
101316.09
101314.88
101313.86
101313.72
101314.27
101314.37
101314.63
101313.36
101318.67
101317.89
101316.92
101317.74
101313.76
101314.66
101318.71
101319.35
101314.47
101314.8
101314.92
101319.14
101319.75
101319.45
101317.21
101315.95
101313.48
101313.48
101312.95
101312.84
101314.06
101313.92
101313.57
101313.33
101313.92
101315.07
101313.94
101315.43
101312.48
101315.47
101314.04
101314.12
101311.85
101312.17
101312.11
101312.32
101313.89
101314.15
101316
101312.96
101315.33
101314.03
101314.28
101316.42
101313.53
101314.03
101316.91
101315.77
101316.11
101314.83
101317.54
101315.74
101317.97
101314
101317.43
101316.93
101315.63
101315.48
101312.71
101319.31
101316
101318.74
101316.27
101312.53
101313.98
101317.78
101317.98
101318.83
101317.63
101318.55
101320.01
101319.98
101317.96
101321.57
101320.08
101316.74
101318.46
101319.22
101316.65
101315.78
101319.22
101318.69
101320.84
101322.43
101320.24
101321.39
101322.19
101320.04
101318.29
101323.26
101320.39
101322.12
101323.18
101319.43
101319.54
101318.37
101315.35
101318.13
101318.7
101319.1
101319.15
101318.7
101318.38
101317.41
101317.16
101317.3
101315.35
101313.75
101313.26
101313.99
101315.35
101312.33
101314.83
101313.84
101313.88
101313.51
101312.88
101312.14
101311.83
101314.09
101313.88
101312.32
101312.09
101312.03
101312.75
101313.16
101314.98
101313.86
101315.93
101312.71
101313.83
101315.81
101314.53
101315.34
101316.49
101313.83
101318.99
101317.27
101317.86
101315.67
101315.51
101315.7
101314.84
101316.93
101315.56
101317.35
101320.8
101317.8
101320.15
101314.88
101319.41
101321.72
101317.98
101323.2
101319.33
101323.19
101322.83
101323.25
101321.94
101320.64
101320.67
101317.14
101319.12
101312.49
101315.16
101321.86
101322.91
101317.8
101319.56
101317.88
101321.32
101315.66
101318.3
101319.6
101319.65
101319.83
101316.55
101320.28
101321.91
101323.03
101319.38
101321.17
101318.24
101318.9
101314.39
101314.93
101313.02
101313.53
101314.25
101314.93
101317.52
101314.44
101314.16
101314.31
101314.81
101319.67
101319.05
101318.41
101319.13
101318.38
101314.52
101313.49
101313.03
101316.45
101317.32
101316.47
101313.95
101313.64
101339.82
101340.26
101340.63
101341.44
101353.78
101383.19
101382.25
101381.63
101381
101380.46
101358.04
101358.09
101358.04
101358.1
101359.51
101355.75
101355.46
101355.4
101355.34
101355.3
101345.99
101346.01
101346.03
101346.06
101346.49
101341.22
101340.99
101340.96
101340.95
101340.92
101335.92
101335.94
101335.96
101335.98
101336.11
101332.31
101332.3
101332.28
101332.27
101332.25
101329.05
101329.07
101329.08
101329.1
101329.04
101326.37
101326.48
101326.47
101326.46
101326.44
101324.2
101324.22
101324.22
101324.23
101324.09
101322.15
101322.31
101322.31
101322.3
101322.28
101320.62
101320.63
101320.64
101320.64
101320.46
101318.98
101319.17
101319.17
101319.16
101319.15
101317.84
101317.85
101317.86
101317.86
101317.65
101316.45
101316.67
101316.67
101316.67
101316.65
101315.57
101315.58
101315.59
101315.58
101315.36
101314.34
101314.57
101314.58
101314.57
101314.56
101313.62
101313.63
101313.63
101313.63
101313.39
101312.49
101312.73
101312.74
101312.73
101312.72
101311.85
101311.86
101311.86
101311.86
101311.61
101310.77
101311.02
101311.03
101311.02
101311.01
101310.21
101310.23
101310.23
101310.22
101309.96
101309.13
101309.39
101309.4
101309.39
101309.38
101308.56
101308.57
101308.57
101308.57
101308.31
101307.49
101307.76
101307.76
101307.76
101307.75
101306.94
101306.95
101306.95
101306.95
101306.67
101305.8
101306.09
101306.09
101306.09
101306.08
101305.05
101305.06
101305.07
101305.07
101304.81
101303.95
101304.12
101304.11
101304.1
101304.07
101303.74
101303.74
101303.74
101303.73
101303.36
101302.25
101302.58
101302.59
101302.59
101302.58
101302.36
101302.85
101302.87
101302.89
101302.89
101303.89
101303.89
101303.89
101303.87
101303.43
101304.01
101304.16
101304.15
101304.13
101304.09
101304.85
101304.88
101304.9
101304.91
101304.73
101305.75
101306.09
101306.09
101306.09
101306.08
101306.94
101306.95
101306.96
101306.96
101306.64
101307.45
101307.76
101307.76
101307.76
101307.74
101308.56
101308.57
101308.58
101308.58
101308.27
101309.1
101309.42
101309.43
101309.43
101309.42
101310.23
101310.24
101310.24
101310.24
101309.92
101310.74
101311.03
101311.04
101311.03
101311.02
101311.85
101311.86
101311.87
101311.86
101311.58
101312.46
101312.75
101312.75
101312.75
101312.74
101313.62
101313.63
101313.63
101313.63
101313.35
101314.29
101314.55
101314.55
101314.55
101314.54
101315.52
101315.53
101315.53
101315.53
101315.29
101316.37
101316.59
101316.59
101316.59
101316.58
101317.74
101317.75
101317.75
101317.75
101317.54
101318.84
101319.03
101319.03
101319.02
101319.01
101320.44
101320.45
101320.45
101320.46
101320.3
101321.94
101322.07
101322.07
101322.06
101322.05
101323.89
101323.91
101323.91
101323.92
101323.83
101326.03
101326.07
101326.06
101326.05
101326.04
101328.51
101328.53
101328.54
101328.55
101328.59
101331.72
101331.57
101331.56
101331.55
101331.53
101334.95
101334.97
101334.98
101335.01
101335.33
101340.12
101339.62
101339.59
101339.57
101339.55
101344.23
101344.26
101344.27
101344.3
101345.05
101353.31
101352.43
101352.38
101352.37
101352.33
101356.72
101356.77
101356.79
101356.86
101357.83
101374.61
101370.51
101370.15
101369.89
101369.66
101357.93
101358.86
101359.57
101360.21
101365.12
101377.7
101271.3
101258.4
101246.48
101232.61
101390.74
101391.72
101392.85
101393.73
101397.75
101394.6
101391.13
101390.84
101390.67
101390.55
101370.72
101370.7
101370.68
101370.68
101370.61
101362.05
101361.72
101361.72
101361.73
101361.73
101350.78
101350.77
101350.76
101350.76
101351.1
101344.5
101344.28
101344.27
101344.28
101344.27
101338.46
101338.47
101338.47
101338.48
101338.58
101334.2
101334.23
101334.22
101334.22
101334.21
101330.61
101330.62
101330.62
101330.62
101330.52
101327.56
101327.71
101327.71
101327.71
101327.7
101325.23
101325.24
101325.24
101325.24
101325.05
101322.94
101323.15
101323.16
101323.15
101323.14
101321.34
101321.35
101321.35
101321.35
101321.12
101319.53
101319.77
101319.78
101319.78
101319.77
101318.37
101318.38
101318.38
101318.38
101318.12
101316.85
101317.12
101317.13
101317.12
101317.11
101315.97
101315.98
101315.99
101315.98
101315.7
101314.64
101314.93
101314.93
101314.93
101314.92
101313.94
101313.95
101313.95
101313.95
101313.65
101312.72
101313.02
101313.03
101313.03
101313.02
101312.14
101312.15
101312.15
101312.14
101311.84
101310.99
101311.32
101311.33
101311.33
101311.32
101310.51
101310.51
101310.51
101310.51
101310.16
101309.29
101309.63
101309.63
101309.63
101309.62
101308.72
101308.74
101308.74
101308.74
101308.42
101307.58
101307.89
101307.89
101307.88
101307.87
101307.04
101307.05
101307.06
101307.05
101306.73
101305.82
101306.16
101306.17
101306.16
101306.15
101304.92
101304.95
101304.96
101304.97
101304.8
101304.07
101304.23
101304.22
101304.2
101304.16
101303.99
101303.99
101303.98
101303.97
101303.51
101302.5
101303.03
101303.05
101303.06
101303.07
101301.61
101301.62
101301.61
101301.61
101301.23
101301.51
101301.53
101301.53
101301.52
101301.22
101302.48
101302.87
101302.88
101302.89
101302.89
101303.66
101303.68
101303.69
101303.68
101303.38
101304.08
101304.3
101304.3
101304.29
101304.27
101304.9
101304.93
101304.94
101304.95
101304.78
101305.83
101306.11
101306.12
101306.12
101306.1
101307.01
101307.02
101307.03
101307.02
101306.74
101307.58
101307.85
101307.85
101307.85
101307.84
101308.69
101308.7
101308.7
101308.7
101308.43
101309.29
101309.57
101309.58
101309.58
101309.57
101310.42
101310.43
101310.44
101310.43
101310.15
101310.98
101311.26
101311.26
101311.26
101311.25
101312.07
101312.08
101312.08
101312.08
101311.82
101312.7
101312.96
101312.96
101312.96
101312.95
101313.88
101313.89
101313.89
101313.89
101313.64
101314.63
101314.87
101314.87
101314.87
101314.86
101315.91
101315.92
101315.92
101315.92
101315.69
101316.84
101317.06
101317.07
101317.07
101317.06
101318.31
101318.32
101318.32
101318.32
101318.11
101319.52
101319.72
101319.72
101319.72
101319.71
101321.29
101321.3
101321.3
101321.3
101321.12
101322.94
101323.11
101323.11
101323.11
101323.1
101325.2
101325.21
101325.21
101325.21
101325.06
101327.58
101327.7
101327.7
101327.69
101327.68
101330.62
101330.63
101330.63
101330.63
101330.57
101334.29
101334.28
101334.28
101334.28
101334.26
101338.6
101338.61
101338.61
101338.62
101338.76
101344.86
101344.6
101344.59
101344.59
101344.58
101351.56
101351.55
101351.54
101351.54
101351.93
101363.87
101363.77
101363.79
101363.83
101363.86
101377.17
101376.98
101376.81
101376.65
101375.76
101407.4
101410.51
101410.92
101411.33
101411.83
101439.23
101438.23
101437.32
101436.37
101430.08
101355.13
101351.57
101352.68
101354.39
101356.66
101395.63
101396.29
101396.91
101397.53
101397.09
101364.17
101362.86
101362.84
101362.87
101362.87
101359.19
101359.22
101359.27
101359.32
101359.51
101348.99
101348.56
101348.53
101348.53
101348.52
101342.91
101342.93
101342.95
101342.97
101343.18
101337.62
101337.5
101337.48
101337.47
101337.46
101333.5
101333.51
101333.52
101333.54
101333.53
101330.03
101330.1
101330.1
101330.09
101330.07
101327.29
101327.31
101327.31
101327.32
101327.19
101324.78
101324.94
101324.94
101324.93
101324.92
101322.9
101322.91
101322.91
101322.91
101322.74
101320.96
101321.15
101321.15
101321.15
101321.13
101319.6
101319.61
101319.62
101319.62
101319.41
101318.03
101318.24
101318.25
101318.24
101318.23
101317
101317.01
101317.01
101317.01
101316.78
101315.64
101315.88
101315.88
101315.88
101315.87
101314.83
101314.84
101314.84
101314.84
101314.6
101313.62
101313.87
101313.87
101313.87
101313.86
101312.94
101312.95
101312.95
101312.95
101312.69
101311.81
101312.07
101312.08
101312.08
101312.06
101311.22
101311.23
101311.23
101311.23
101310.96
101310.13
101310.4
101310.41
101310.41
101310.39
101309.57
101309.58
101309.58
101309.57
101309.3
101308.47
101308.75
101308.75
101308.75
101308.74
101307.91
101307.92
101307.92
101307.92
101307.64
101306.79
101307.08
101307.08
101307.08
101307.07
101306.2
101306.21
101306.21
101306.21
101305.92
101305.01
101305.28
101305.28
101305.28
101305.27
101304.39
101304.41
101304.41
101304.41
101304.13
101303.29
101303.59
101303.59
101303.59
101303.57
101302.58
101302.6
101302.6
101302.6
101302.29
101301.18
101301.46
101301.46
101301.46
101301.44
101301.52
101301.54
101301.54
101301.53
101301.23
101302.49
101302.88
101302.9
101302.91
101302.9
101303.68
101303.7
101303.7
101303.7
101303.38
101304.06
101304.27
101304.27
101304.26
101304.24
101304.86
101304.89
101304.9
101304.91
101304.76
101305.79
101306.06
101306.07
101306.06
101306.05
101306.95
101306.96
101306.97
101306.97
101306.7
101307.54
101307.8
101307.8
101307.8
101307.79
101308.63
101308.65
101308.65
101308.65
101308.39
101309.25
101309.53
101309.54
101309.53
101309.52
101310.38
101310.39
101310.39
101310.39
101310.11
101310.95
101311.22
101311.22
101311.22
101311.21
101312.03
101312.04
101312.05
101312.04
101311.79
101312.67
101312.92
101312.93
101312.92
101312.91
101313.84
101313.85
101313.85
101313.85
101313.6
101314.59
101314.83
101314.83
101314.83
101314.82
101315.86
101315.87
101315.88
101315.87
101315.64
101316.79
101317
101317.01
101317
101316.99
101318.25
101318.26
101318.26
101318.26
101318.05
101319.45
101319.64
101319.65
101319.64
101319.63
101321.2
101321.21
101321.21
101321.21
101321.03
101322.84
101323.01
101323.01
101323.01
101322.99
101325.07
101325.09
101325.09
101325.09
101324.95
101327.44
101327.55
101327.55
101327.55
101327.54
101330.45
101330.46
101330.46
101330.47
101330.41
101334.1
101334.09
101334.09
101334.08
101334.07
101338.39
101338.39
101338.4
101338.4
101338.55
101344.63
101344.38
101344.37
101344.37
101344.37
101351.32
101351.31
101351.29
101351.29
101351.66
101363.68
101363.6
101363.62
101363.66
101363.7
101376.87
101376.68
101376.51
101376.36
101375.45
101408.56
101411.33
101411.73
101412.12
101412.63
101439.94
101439.06
101438.24
101437.29
101429.85
101392.62
101399.97
101401.09
101402.22
101403.55
101397.02
101397.11
101397.39
101397.69
101399.33
101369.6
101369.93
101369.99
101370.05
101370.12
101361.08
101361.06
101361.04
101361.04
101361.16
101350.06
101349.76
101349.76
101349.78
101349.78
101343.44
101343.45
101343.44
101343.45
101343.62
101337.84
101337.76
101337.76
101337.75
101337.75
101333.62
101333.63
101333.63
101333.64
101333.59
101330.02
101330.13
101330.13
101330.13
101330.12
101327.29
101327.3
101327.3
101327.3
101327.13
101324.7
101324.89
101324.9
101324.89
101324.88
101322.85
101322.86
101322.86
101322.86
101322.64
101320.86
101321.09
101321.1
101321.09
101321.09
101319.55
101319.55
101319.56
101319.55
101319.31
101317.93
101318.19
101318.19
101318.19
101318.18
101316.95
101316.96
101316.96
101316.96
101316.69
101315.56
101315.84
101315.84
101315.84
101315.83
101314.79
101314.8
101314.81
101314.8
101314.52
101313.54
101313.84
101313.84
101313.84
101313.83
101312.91
101312.92
101312.92
101312.92
101312.62
101311.74
101312.05
101312.05
101312.05
101312.04
101311.23
101311.24
101311.24
101311.23
101310.91
101310.08
101310.42
101310.43
101310.43
101310.42
101309.55
101309.56
101309.56
101309.56
101309.21
101308.35
101308.67
101308.68
101308.67
101308.66
101307.82
101307.83
101307.83
101307.83
101307.52
101306.68
101307
101307
101307
101306.99
101306.09
101306.11
101306.11
101306.1
101305.77
101304.73
101304.9
101304.89
101304.87
101304.84
101304.1
101304.14
101304.16
101304.17
101304.01
101303.49
101303.94
101303.96
101303.96
101303.96
101303.02
101303.02
101303
101302.98
101302.46
101301.18
101301.55
101301.56
101301.56
101301.55
101301.12
101301.4
101301.4
101301.39
101301.38
101302.63
101302.64
101302.64
101302.64
101302.3
101303.39
101303.75
101303.76
101303.76
101303.76
101304.07
101304.09
101304.11
101304.12
101303.95
101304.8
101305.06
101305.07
101305.06
101305.04
101306.09
101306.1
101306.1
101306.1
101305.8
101306.69
101306.96
101306.97
101306.96
101306.95
101307.78
101307.79
101307.79
101307.79
101307.52
101308.34
101308.61
101308.61
101308.61
101308.6
101309.44
101309.45
101309.45
101309.44
101309.18
101310.03
101310.29
101310.3
101310.29
101310.28
101311.08
101311.09
101311.1
101311.09
101310.84
101311.68
101311.93
101311.93
101311.93
101311.92
101312.8
101312.81
101312.81
101312.8
101312.57
101313.49
101313.72
101313.72
101313.72
101313.71
101314.67
101314.68
101314.68
101314.68
101314.45
101315.48
101315.69
101315.7
101315.7
101315.68
101316.79
101316.8
101316.8
101316.8
101316.6
101317.82
101318.01
101318.01
101318.01
101318
101319.34
101319.35
101319.36
101319.35
101319.18
101320.71
101320.86
101320.87
101320.86
101320.85
101322.57
101322.58
101322.59
101322.59
101322.46
101324.47
101324.57
101324.57
101324.57
101324.56
101326.89
101326.9
101326.9
101326.91
101326.85
101329.64
101329.64
101329.64
101329.63
101329.62
101332.99
101333
101333
101333.01
101333.1
101337.17
101336.93
101336.92
101336.92
101336.91
101342.31
101342.31
101342.32
101342.33
101342.71
101348.63
101347.98
101347.98
101347.99
101348
101358.64
101358.64
101358.65
101358.67
101359.2
101364.8
101363.24
101363.27
101363.32
101363.34
101395.26
101395.88
101396.46
101396.98
101397.32
101363.88
101362.52
101364
101366.19
101368.91
101358.52
101358.85
101359.21
101359.92
101371.82
101395.28
101394.24
101393.77
101393.35
101392.75
101365.55
101365.51
101365.45
101365.46
101366.93
101361.04
101360.57
101360.53
101360.5
101360.49
101349.66
101349.66
101349.66
101349.66
101350.22
101344.02
101343.72
101343.71
101343.7
101343.7
101338.03
101338.04
101338.05
101338.05
101338.23
101333.97
101333.94
101333.93
101333.93
101333.92
101330.39
101330.4
101330.4
101330.4
101330.36
101327.44
101327.54
101327.54
101327.54
101327.53
101325.09
101325.1
101325.11
101325.11
101324.97
101322.88
101323.04
101323.04
101323.04
101323.03
101321.25
101321.26
101321.26
101321.26
101321.07
101319.49
101319.69
101319.69
101319.69
101319.68
101318.29
101318.31
101318.31
101318.3
101318.09
101316.83
101317.06
101317.06
101317.06
101317.05
101315.91
101315.92
101315.92
101315.92
101315.69
101314.63
101314.87
101314.87
101314.87
101314.86
101313.88
101313.89
101313.9
101313.89
101313.64
101312.71
101312.97
101312.97
101312.97
101312.96
101312.08
101312.09
101312.09
101312.09
101311.83
101310.98
101311.24
101311.25
101311.25
101311.23
101310.43
101310.44
101310.44
101310.43
101310.15
101309.3
101309.58
101309.58
101309.58
101309.57
101308.73
101308.74
101308.74
101308.74
101308.45
101307.61
101307.9
101307.91
101307.9
101307.89
101307.05
101307.07
101307.07
101307.06
101306.77
101305.89
101306.19
101306.19
101306.19
101306.18
101305.15
101305.17
101305.17
101305.17
101304.9
101304.04
101304.22
101304.21
101304.19
101304.16
101303.8
101303.81
101303.8
101303.79
101303.42
101302.34
101302.66
101302.67
101302.67
101302.66
101301.44
101301.45
101301.45
101301.45
101301.17
101313.8
101312.51
101313.78
101312.45
101311.17
101312.04
101312.36
101311.87
101311.27
101312.05
101311.21
101309.27
101311.26
101309.74
101308.65
101309.97
101311.46
101311.17
101308.91
101308.73
101309.57
101311.41
101310.57
101310.38
101311.37
101310.93
101309.15
101307.99
101308.31
101306.84
101307.45
101305.86
101307.81
101306.79
101304.83
101303.86
101306.13
101306.01
101307.99
101309.16
101309.27
101308.31
101308.21
101310.39
101311.47
101312.06
101314.32
101314
101314.16
101312.38
101312.53
101314.45
101316.45
101313.23
101315.59
101314.18
101314.14
101313.08
101314.21
101314.81
101313.41
101313.07
101385.67
101389.53
101390.05
101390.53
101391.1
101388.33
101387.95
101387.64
101387.33
101384.67
101361.07
101361.71
101361.81
101361.94
101362.08
101354.53
101354.53
101354.52
101354.53
101354.75
101345.61
101345.1
101345.07
101345.07
101345.06
101340.07
101340.09
101340.1
101340.13
101340.48
101335.58
101335.35
101335.33
101335.32
101335.3
101331.84
101331.85
101331.86
101331.88
101331.95
101328.81
101328.82
101328.81
101328.8
101328.78
101326.28
101326.3
101326.31
101326.31
101326.24
101324.03
101324.14
101324.14
101324.13
101324.12
101322.25
101322.27
101322.27
101322.28
101322.14
101320.48
101320.65
101320.65
101320.64
101320.63
101319.18
101319.2
101319.2
101319.2
101319.02
101317.71
101317.91
101317.91
101317.9
101317.89
101316.72
101316.73
101316.73
101316.73
101316.53
101315.44
101315.66
101315.66
101315.66
101315.64
101314.64
101314.66
101314.66
101314.66
101314.43
101313.48
101313.72
101313.72
101313.72
101313.71
101312.81
101312.83
101312.83
101312.83
101312.58
101311.72
101311.97
101311.97
101311.97
101311.96
101311.13
101311.14
101311.15
101311.14
101310.89
101310.07
101310.34
101310.34
101310.34
101310.32
101309.52
101309.54
101309.54
101309.53
101309.26
101308.45
101308.73
101308.74
101308.74
101308.72
101307.92
101307.93
101307.93
101307.93
101307.64
101306.8
101307.1
101307.1
101307.1
101307.09
101306.24
101306.25
101306.25
101306.25
101305.95
101305.07
101305.36
101305.37
101305.36
101305.35
101304.44
101304.46
101304.46
101304.46
101304.17
101303.25
101303.53
101303.53
101303.53
101303.51
101302.5
101302.52
101302.52
101302.52
101302.24
101301.15
101301.41
101301.41
101301.4
101301.39
101302.72
101302.73
101302.72
101302.7
101302.33
101303.3
101303.59
101303.6
101303.59
101303.58
101304.28
101304.3
101304.31
101304.31
101304.07
101304.79
101304.96
101304.96
101304.94
101304.91
101306.04
101306.06
101306.06
101306.05
101305.77
101306.65
101306.93
101306.93
101306.92
101306.91
101307.7
101307.71
101307.72
101307.72
101307.46
101308.25
101308.51
101308.51
101308.5
101308.49
101309.3
101309.32
101309.32
101309.32
101309.06
101309.84
101310.1
101310.1
101310.1
101310.09
101310.9
101310.91
101310.91
101310.91
101310.67
101311.53
101311.77
101311.77
101311.77
101311.76
101312.64
101312.65
101312.65
101312.65
101312.42
101313.27
101313.49
101313.49
101313.49
101313.48
101314.4
101314.41
101314.41
101314.41
101314.19
101315.18
101315.39
101315.39
101315.39
101315.37
101316.42
101316.43
101316.43
101316.43
101316.24
101317.39
101317.57
101317.57
101317.57
101317.55
101318.8
101318.82
101318.82
101318.82
101318.65
101320.06
101320.21
101320.21
101320.2
101320.19
101321.75
101321.77
101321.77
101321.78
101321.66
101323.47
101323.57
101323.56
101323.56
101323.54
101325.61
101325.62
101325.63
101325.64
101325.58
101328.03
101328.02
101328.01
101328
101327.98
101330.85
101330.87
101330.88
101330.9
101330.99
101334.39
101334.14
101334.12
101334.11
101334.09
101338.44
101338.46
101338.47
101338.5
101338.89
101343.5
101342.92
101342.89
101342.89
101342.87
101350.88
101350.89
101350.89
101350.92
101351.34
101356.42
101356.55
101356.59
101356.67
101356.75
101376.44
101376.18
101375.97
101375.8
101374.59
101374.53
101374.98
101375.18
101375.41
101375.6
101344.42
101348.45
101352.28
101356.84
101392.75
101678.72
101775.31
101784.26
101790.19
101795.34
101332.38
101330.17
101328.49
101327.48
101333.39
101384.23
101384.77
101384.18
101383.56
101382.89
101351.79
101351.79
101351.76
101351.77
101353.09
101351.51
101351.29
101351.24
101351.2
101351.16
101342.15
101342.17
101342.17
101342.2
101342.72
101338.42
101338.15
101338.12
101338.11
101338.08
101333.67
101333.69
101333.7
101333.72
101333.9
101330.62
101330.58
101330.56
101330.55
101330.53
101327.72
101327.73
101327.74
101327.76
101327.72
101325.35
101325.44
101325.43
101325.43
101325.41
101323.39
101323.41
101323.41
101323.42
101323.3
101321.53
101321.68
101321.67
101321.67
101321.65
101320.12
101320.14
101320.14
101320.14
101319.97
101318.59
101318.78
101318.78
101318.77
101318.76
101317.53
101317.55
101317.55
101317.55
101317.35
101316.22
101316.43
101316.43
101316.43
101316.42
101315.39
101315.4
101315.4
101315.4
101315.18
101314.2
101314.44
101314.44
101314.43
101314.42
101313.52
101313.53
101313.53
101313.53
101313.29
101312.42
101312.67
101312.67
101312.67
101312.65
101311.82
101311.83
101311.84
101311.83
101311.58
101310.76
101311.02
101311.03
101311.02
101311.01
101310.21
101310.22
101310.23
101310.22
101309.95
101309.15
101309.43
101309.43
101309.43
101309.42
101308.62
101308.63
101308.63
101308.63
101308.35
101307.54
101307.82
101307.82
101307.82
101307.81
101306.99
101307.01
101307.01
101307
101306.72
101305.88
101306.17
101306.17
101306.17
101306.15
101305.29
101305.31
101305.31
101305.31
101305.02
101304.13
101304.42
101304.42
101304.42
101304.4
101303.47
101303.49
101303.49
101303.49
101303.2
101302.19
101302.47
101302.48
101302.47
101302.46
101301.35
101301.37
101301.37
101301.37
101301.1
101302.41
101302.43
101302.43
101302.43
101302.16
101303.17
101303.46
101303.46
101303.45
101303.43
101304.34
101304.36
101304.36
101304.36
101304.08
101304.94
101305.23
101305.24
101305.23
101305.22
101306.14
101306.15
101306.15
101306.15
101305.85
101306.69
101306.97
101306.98
101306.98
101306.96
101307.76
101307.77
101307.78
101307.77
101307.49
101308.29
101308.56
101308.57
101308.57
101308.55
101309.28
101309.29
101309.3
101309.3
101309.05
101309.68
101309.8
101309.79
101309.77
101309.74
101310.71
101310.73
101310.73
101310.73
101310.52
101311.48
101311.74
101311.74
101311.74
101311.73
101312.78
101312.78
101312.77
101312.76
101312.45
101313.25
101313.47
101313.47
101313.47
101313.45
101314.32
101314.34
101314.34
101314.34
101314.13
101315.1
101315.3
101315.3
101315.3
101315.29
101316.31
101316.32
101316.33
101316.33
101316.14
101317.26
101317.44
101317.44
101317.43
101317.42
101318.64
101318.65
101318.66
101318.66
101318.5
101319.88
101320.02
101320.01
101320.01
101319.99
101321.52
101321.54
101321.54
101321.55
101321.43
101323.19
101323.28
101323.27
101323.26
101323.24
101325.24
101325.26
101325.27
101325.28
101325.23
101327.58
101327.57
101327.55
101327.54
101327.52
101330.28
101330.3
101330.32
101330.33
101330.44
101333.68
101333.43
101333.4
101333.39
101333.37
101337.52
101337.54
101337.56
101337.59
101337.97
101342.32
101341.77
101341.74
101341.73
101341.72
101349.35
101349.35
101349.36
101349.38
101349.8
101354.47
101354.63
101354.67
101354.75
101354.83
101374.1
101373.82
101373.6
101373.41
101372.15
101372.46
101373.23
101373.32
101373.35
101373.32
101344.86
101348.53
101352.16
101356.36
101391.72
101378.59
101285.23
101273.87
101263.09
101250.23
101531.23
101531.32
101532.16
101531.89
101504.71
101582.95
101648.8
101654.38
101658.3
101662.29
101398.62
101398.12
101397.59
101396.96
101390.79
101388.79
101390.78
101391.06
101391.38
101391.76
101364.51
101364.36
101364.23
101364.12
101363.39
101356.52
101356.32
101356.32
101356.35
101356.36
101346.46
101346.46
101346.46
101346.47
101346.91
101341.46
101341.16
101341.14
101341.13
101341.12
101336.1
101336.11
101336.12
101336.13
101336.32
101332.53
101332.47
101332.46
101332.46
101332.44
101329.26
101329.27
101329.28
101329.28
101329.26
101326.59
101326.68
101326.68
101326.67
101326.66
101324.42
101324.43
101324.43
101324.44
101324.31
101322.37
101322.52
101322.52
101322.51
101322.5
101320.82
101320.83
101320.84
101320.84
101320.67
101319.17
101319.36
101319.36
101319.36
101319.35
101318.03
101318.04
101318.04
101318.04
101317.84
101316.63
101316.85
101316.85
101316.85
101316.83
101315.74
101315.75
101315.75
101315.75
101315.52
101314.5
101314.73
101314.73
101314.73
101314.72
101313.77
101313.78
101313.78
101313.78
101313.54
101312.63
101312.88
101312.88
101312.88
101312.87
101312
101312.02
101312.02
101312.01
101311.76
101310.91
101311.18
101311.18
101311.18
101311.17
101310.35
101310.36
101310.36
101310.36
101310.09
101309.27
101309.54
101309.55
101309.55
101309.53
101308.72
101308.73
101308.73
101308.73
101308.45
101307.63
101307.91
101307.91
101307.91
101307.9
101307.07
101307.09
101307.09
101307.08
101306.8
101305.94
101306.23
101306.23
101306.23
101306.21
101305.33
101305.34
101305.35
101305.34
101305.06
101304.17
101304.46
101304.46
101304.46
101304.44
101303.54
101303.55
101303.55
101303.55
101303.26
101302.27
101302.56
101302.56
101302.56
101302.54
101301.43
101301.45
101301.45
101301.45
101301.18
101301.18
101301.5
101301.51
101301.5
101301.49
101302.61
101302.62
101302.63
101302.62
101302.28
101303.28
101303.63
101303.64
101303.63
101303.62
101304.49
101304.5
101304.51
101304.5
101304.17
101305.05
101305.39
101305.39
101305.39
101305.38
101306.28
101306.29
101306.29
101306.29
101305.94
101306.81
101307.15
101307.15
101307.15
101307.14
101307.98
101307.99
101307.99
101307.99
101307.65
101308.47
101308.81
101308.82
101308.81
101308.8
101309.62
101309.63
101309.63
101309.63
101309.3
101310.12
101310.45
101310.45
101310.45
101310.44
101311.26
101311.27
101311.27
101311.27
101310.95
101311.8
101312.1
101312.11
101312.11
101312.09
101312.96
101312.97
101312.97
101312.97
101312.67
101313.59
101313.87
101313.88
101313.88
101313.87
101314.82
101314.83
101314.84
101314.83
101314.56
101315.6
101315.86
101315.86
101315.86
101315.85
101316.97
101316.98
101316.98
101316.98
101316.72
101317.95
101318.19
101318.19
101318.19
101318.18
101319.52
101319.53
101319.53
101319.53
101319.32
101320.85
101321.04
101321.04
101321.04
101321.03
101322.74
101322.75
101322.76
101322.76
101322.59
101324.59
101324.72
101324.72
101324.72
101324.7
101327.01
101327.02
101327.03
101327.03
101326.94
101329.7
101329.71
101329.71
101329.7
101329.68
101332.97
101332.98
101332.99
101333
101333.09
101337.04
101336.78
101336.76
101336.75
101336.73
101341.89
101341.91
101341.93
101341.95
101342.37
101347.96
101347.29
101347.27
101347.26
101347.25
101357.22
101357.25
101357.26
101357.29
101357.87
101363.38
101362.68
101362.67
101362.72
101362.75
101386.69
101386.96
101387.29
101387.67
101390.29
101369.84
101369.9
101370.35
101370.9
101371.46
101377.59
101281.97
101270.45
101259.86
101247.41
101360.23
101361.22
101362.28
101363.12
101367.11
101374.92
101372.21
101371.97
101371.84
101371.73
101356.73
101356.72
101356.73
101356.76
101356.82
101352.65
101352.27
101352.24
101352.24
101352.23
101343.83
101343.84
101343.84
101343.85
101344.26
101339.55
101339.28
101339.26
101339.25
101339.24
101334.68
101334.7
101334.71
101334.72
101334.87
101331.4
101331.39
101331.38
101331.37
101331.36
101328.41
101328.42
101328.43
101328.44
101328.36
101325.88
101326.01
101326.01
101326
101325.99
101323.89
101323.9
101323.9
101323.91
101323.74
101321.9
101322.09
101322.09
101322.09
101322.08
101320.48
101320.49
101320.5
101320.5
101320.28
101318.86
101319.09
101319.09
101319.09
101319.08
101317.81
101317.82
101317.82
101317.82
101317.57
101316.41
101316.67
101316.67
101316.67
101316.66
101315.6
101315.61
101315.61
101315.61
101315.34
101314.35
101314.63
101314.63
101314.63
101314.62
101313.69
101313.7
101313.71
101313.7
101313.41
101312.52
101312.82
101312.83
101312.82
101312.81
101311.97
101311.98
101311.98
101311.98
101311.67
101310.84
101311.16
101311.16
101311.16
101311.15
101310.34
101310.35
101310.36
101310.35
101310.03
101309.22
101309.55
101309.55
101309.55
101309.54
101308.74
101308.75
101308.75
101308.75
101308.42
101307.6
101307.94
101307.95
101307.94
101307.93
101307.11
101307.12
101307.13
101307.12
101306.78
101305.94
101306.28
101306.28
101306.28
101306.27
101305.4
101305.41
101305.42
101305.41
101305.07
101304.17
101304.52
101304.52
101304.52
101304.51
101303.58
101303.59
101303.6
101303.59
101303.24
101302.24
101302.59
101302.59
101302.59
101302.57
101301.47
101301.48
101301.48
101301.48