/*--------------------------------*- C++ -*----------------------------------*\
  =========                 |
  \\      /  F ield         | OpenFOAM: The Open Source CFD Toolbox
   \\    /   O peration     | Website:  https://openfoam.org
    \\  /    A nd           | Version:  7
     \\/     M anipulation  |
\*---------------------------------------------------------------------------*/
FoamFile
{
    version     2.0;
    format      ascii;
    class       volScalarField;
    location    "350";
    object      T;
}
// * * * * * * * * * * * * * * * * * * * * * * * * * * * * * * * * * * * * * //

dimensions      [0 0 0 1 0 0 0];

internalField   nonuniform List<scalar> 
25201
(
299.9971
299.99805
299.99714
299.99817
300.00504
300.00106
299.99869
299.9977
300.00006
300.00462
300.00003
300.001
300.00315
300.00149
300.00104
300.00387
300.0039
300.00315
300.0011
299.99826
300.00041
300.0035
300.00387
300.00267
299.99938
299.99736
300.00116
300.00402
300.00419
299.99985
299.9999
300.00005
299.99736
299.99736
299.99759
300.0016
300.0034
300.00343
300.00156
300.00167
300.00351
300.00356
299.99986
299.99742
300.00176
300.00514
300.00633
300.00788
300.00504
300.00327
300.00257
300.00485
300.01004
300.00878
300.00685
300.00678
300.00566
300.0067
300.00834
300.00965
300.00762
300.00673
300.00878
300.00964
300.00993
300.00647
300.00875
300.01202
300.01121
300.01229
300.01031
300.00806
300.00737
300.00935
300.01005
300.01084
300.00853
300.00832
300.00607
300.0059
300.0058
300.00582
300.00517
300.00724
300.00716
300.00782
300.00488
300.00193
299.99931
300.00116
300.00116
300.00303
300.00069
299.99869
299.9967
299.99742
299.99515
299.99438
299.99299
299.99377
299.99608
299.99531
299.99738
299.99806
299.99996
299.99935
299.99808
299.99883
299.99901
299.99509
299.99256
299.99496
299.99413
299.99178
299.99084
299.99149
299.99386
299.99315
299.99514
299.9962
299.99694
299.99583
299.99757
299.99686
299.99587
299.99659
299.99703
299.99885
300.0009
300.0009
300.00092
300.00096
300.00482
300.00469
300.00454
300.0045
300.00463
300.00496
300.00664
300.00554
300.00673
300.00875
300.00962
300.00749
300.0065
300.00827
300.00876
300.00682
300.00253
300.00646
300.00994
300.00964
300.01123
300.01207
300.00877
300.01027
300.00481
300.00483
300.0071
300.00928
300.01032
300.00788
300.00767
300.00551
300.0056
300.00556
300.00568
300.00814
300.00721
300.00702
300.00703
300.00714
300.00635
300.00619
300.00927
300.00798
300.00641
300.00409
300.00218
300.00458
300.00313
300.00195
300.00042
299.99977
300.00136
299.99992
300.00063
299.99913
299.99841
299.99726
299.99805
300.00007
300.0021
300.00394
300.00284
300.00082
299.99886
299.99476
299.99553
299.99657
299.99765
299.99967
299.99899
300.0003
299.99817
299.99689
299.99576
299.99777
299.99858
299.99738
299.9966
299.99568
299.99646
299.9947
299.9927
299.99289
299.99816
299.9971
300.00217
300.00397
300.00417
299.99986
299.9973
299.99987
299.99983
300.00346
300.00355
300.00174
299.9974
299.99732
300.0016
300.00146
300.00335
300.0033
300.00001
299.99753
300.00148
300.00179
300.00338
300.00382
300.11695
300.11621
300.11311
300.10854
300.07405
300.03773
300.03759
300.03722
300.03723
300.03693
300.04574
300.04213
300.04021
300.03939
300.03635
300.03004
300.03412
300.03524
300.03747
300.04102
300.04293
300.0387
300.03599
300.03444
300.02809
300.02632
300.03394
300.03571
300.03864
300.04317
300.04469
300.03988
300.03674
300.03477
300.02597
300.02628
300.03589
300.038
300.0413
300.04635
300.04854
300.04328
300.03983
300.03759
300.02729
300.02877
300.03967
300.04203
300.04561
300.05108
300.05395
300.04831
300.0446
300.04213
300.03066
300.03285
300.04489
300.04747
300.0513
300.05711
300.06049
300.05453
300.05057
300.04789
300.03529
300.03793
300.05109
300.05388
300.05795
300.06407
300.06778
300.06152
300.05734
300.05444
300.04073
300.04365
300.05793
300.06094
300.06523
300.07163
300.07557
300.06904
300.06463
300.06151
300.04666
300.04975
300.06519
300.06842
300.07294
300.07961
300.08372
300.07692
300.07228
300.06894
300.05291
300.05612
300.07276
300.07621
300.08096
300.08791
300.09212
300.08505
300.08019
300.07662
300.05937
300.06264
300.08052
300.08421
300.08919
300.0964
300.10074
300.09338
300.08829
300.08448
300.06595
300.06927
300.08846
300.0924
300.09761
300.10511
300.10954
300.10189
300.09654
300.09248
300.0726
300.07596
300.09657
300.10076
300.10624
300.11405
300.11864
300.11067
300.10505
300.10071
300.07934
300.08274
300.1049
300.10938
300.11515
300.12331
300.12806
300.11969
300.11375
300.10912
300.08614
300.08965
300.11348
300.11828
300.12439
300.133
300.13834
300.12948
300.12318
300.11818
300.0933
300.09689
300.12284
300.12803
300.13455
300.14363
300.09663
300.13075
300.13658
300.14381
300.15365
300.1478
300.13822
300.13124
300.12566
300.09303
300.08939
300.12054
300.12589
300.13263
300.14192
300.13654
300.12755
300.12103
300.11588
300.0859
300.08253
300.11149
300.11648
300.12282
300.13156
300.12662
300.11809
300.11193
300.10711
300.07914
300.07575
300.10276
300.10743
300.11345
300.1218
300.11707
300.10889
300.10303
300.0985
300.07238
300.06904
300.0943
300.0987
300.10443
300.11245
300.10784
300.09998
300.09439
300.09013
300.0657
300.06239
300.08598
300.09011
300.09558
300.10329
300.09876
300.09122
300.08588
300.08189
300.05912
300.05588
300.07785
300.08172
300.08694
300.09434
300.08992
300.08267
300.07759
300.07386
300.05266
300.04949
300.06991
300.07353
300.07849
300.0856
300.08131
300.07437
300.06954
300.06606
300.04639
300.04334
300.06227
300.06565
300.07036
300.07717
300.07307
300.06643
300.06186
300.05861
300.0404
300.03757
300.05506
300.0582
300.06266
300.06916
300.06534
300.05901
300.05469
300.05168
300.03491
300.03244
300.04848
300.05138
300.05559
300.06176
300.05834
300.05236
300.0483
300.04553
300.0302
300.02824
300.04284
300.0455
300.04944
300.05525
300.05242
300.04682
300.04304
300.04052
300.02666
300.02551
300.03851
300.04092
300.04456
300.04996
300.04788
300.04273
300.03926
300.03701
300.02499
300.02504
300.03568
300.03776
300.04106
300.04598
300.04475
300.04018
300.03714
300.03529
300.02624
300.02776
300.03459
300.03612
300.03886
300.04312
300.04319
300.03995
300.03783
300.03677
300.03198
300.03392
300.03841
300.03905
300.04036
300.04292
300.01423
300.01258
300.01441
300.01792
300.04483
300.01579
299.9868
299.98174
299.97883
299.97329
300.04263
300.04363
300.04623
300.04982
300.07352
300.05271
300.05918
300.05994
300.06121
300.06332
300.05399
300.05137
300.04953
300.04862
300.04402
300.0358
300.04278
300.04426
300.04687
300.05082
300.05
300.04564
300.04269
300.04088
300.03186
300.02908
300.03969
300.04173
300.04494
300.04969
300.05065
300.04561
300.04219
300.03996
300.02798
300.02778
300.04075
300.04314
300.04674
300.05204
300.05405
300.04852
300.04477
300.04225
300.02841
300.02962
300.04421
300.04686
300.05076
300.0565
300.05934
300.05341
300.04937
300.0466
300.03129
300.03332
300.04934
300.05223
300.0564
300.06252
300.06594
300.05966
300.05535
300.05235
300.03562
300.03815
300.05558
300.05871
300.06314
300.06958
300.07338
300.06678
300.06223
300.05899
300.04085
300.04369
300.06254
300.0659
300.07058
300.07733
300.08138
300.07448
300.06968
300.06621
300.04663
300.04966
300.06998
300.07357
300.07849
300.08554
300.08978
300.08258
300.07754
300.07382
300.05276
300.05592
300.07774
300.08158
300.08675
300.0941
300.09848
300.09098
300.08568
300.08172
300.05912
300.06236
300.08577
300.08986
300.09529
300.10295
300.10746
300.09966
300.0941
300.08987
300.06563
300.06892
300.09398
300.09834
300.10403
300.11198
300.11654
300.10843
300.1026
300.09811
300.07221
300.07552
300.10231
300.10694
300.11291
300.12119
300.12595
300.11749
300.11137
300.10658
300.07885
300.08218
300.1109
300.11584
300.12213
300.1308
300.13572
300.1268
300.12032
300.11521
300.0855
300.08893
300.11981
300.12511
300.13179
300.141
300.14685
300.13735
300.13042
300.12489
300.09256
300.09616
300.12998
300.13575
300.14292
300.15268
300.1583
300.14823
300.14082
300.13483
300.0996
300.15063
300.14124
300.13445
300.12901
300.10102
300.0975
300.12438
300.12962
300.1362
300.14533
300.13989
300.13099
300.12462
300.11958
300.09384
300.09018
300.11482
300.11966
300.12583
300.1345
300.12944
300.12102
300.11505
300.11038
300.08668
300.08332
300.10621
300.11073
300.11655
300.12476
300.12009
300.11207
300.1064
300.10203
300.07995
300.07658
300.09788
300.10212
300.10765
300.11552
300.111
300.10329
300.0979
300.0938
300.07323
300.06991
300.08977
300.09374
300.09902
300.10658
300.10217
300.09475
300.08961
300.08577
300.06659
300.06329
300.08178
300.0855
300.09053
300.09781
300.09348
300.08634
300.08144
300.07785
300.06001
300.05678
300.07397
300.07746
300.08226
300.08925
300.08506
300.07821
300.07354
300.07017
300.05359
300.05046
300.06643
300.0697
300.07427
300.08099
300.07696
300.07038
300.06593
300.06278
300.0474
300.04442
300.05922
300.06227
300.06662
300.07307
300.06924
300.06293
300.05871
300.05578
300.04155
300.03883
300.05247
300.0553
300.05942
300.0656
300.06207
300.05605
300.05206
300.04935
300.03628
300.03395
300.04644
300.04905
300.05294
300.05881
300.05575
300.05006
300.04631
300.04382
300.03191
300.03022
300.04153
300.04392
300.04755
300.05307
300.05074
300.04544
300.04196
300.03971
300.02902
300.0284
300.03836
300.0405
300.04384
300.04893
300.04771
300.0429
300.03974
300.03776
300.02866
300.02988
300.03779
300.03959
300.04255
300.04708
300.04789
300.0438
300.04113
300.03957
300.03296
300.03776
300.0429
300.0442
300.04659
300.05012
300.05862
300.0562
300.05428
300.05318
300.04782
300.06176
300.07101
300.07249
300.07447
300.07655
300.09574
300.09673
300.09653
300.09639
300.09074
300.10194
300.16648
300.17503
300.17977
300.1801
300.0464
300.04758
300.047
300.04685
300.04421
300.04073
300.04425
300.04518
300.04733
300.05151
300.04345
300.04023
300.03813
300.03696
300.03267
300.03007
300.03639
300.03794
300.04064
300.04487
300.04448
300.04001
300.03709
300.03533
300.02776
300.02707
300.03582
300.03779
300.04092
300.04572
300.0471
300.04207
300.03878
300.03668
300.02712
300.02794
300.03819
300.04042
300.04386
300.04912
300.05149
300.04604
300.04247
300.04012
300.02927
300.03104
300.04246
300.04492
300.04863
300.05426
300.0573
300.0515
300.04768
300.04511
300.03314
300.0355
300.04802
300.0507
300.05464
300.06059
300.06407
300.05798
300.05392
300.05114
300.03807
300.0408
300.05443
300.05731
300.06148
300.06772
300.07148
300.06511
300.06083
300.05784
300.04367
300.04663
300.06137
300.06447
300.06885
300.07536
300.07931
300.07267
300.06818
300.06498
300.04968
300.05279
300.06866
300.07198
300.07658
300.08335
300.08745
300.08055
300.07584
300.07242
300.05595
300.05916
300.07623
300.07977
300.08459
300.09163
300.09586
300.08868
300.08374
300.08009
300.0624
300.06566
300.084
300.08778
300.09284
300.10016
300.1045
300.09704
300.09186
300.08796
300.06895
300.07225
300.09195
300.09598
300.10129
300.10891
300.11337
300.1056
300.10016
300.096
300.07558
300.07893
300.10009
300.10439
300.10998
300.11791
300.12254
300.11442
300.10869
300.10424
300.08229
300.08568
300.10846
300.11306
300.11895
300.12727
300.13217
300.12363
300.11756
300.1128
300.08913
300.09269
300.11731
300.12225
300.12851
300.13728
300.14248
300.13346
300.12701
300.12188
300.09623
300.09972
300.12645
300.13179
300.13847
300.14775
300.15094
300.14153
300.13473
300.12927
300.10121
300.09767
300.12462
300.12987
300.13647
300.14562
300.14014
300.13121
300.12483
300.11979
300.09401
300.09032
300.115
300.11985
300.12603
300.13472
300.12963
300.12119
300.11521
300.11054
300.0868
300.08343
300.10636
300.11088
300.11671
300.12492
300.12026
300.11223
300.10656
300.10218
300.08006
300.07668
300.09803
300.10227
300.10781
300.11568
300.11117
300.10346
300.09806
300.09395
300.07332
300.06999
300.08993
300.09392
300.0992
300.10676
300.10237
300.09495
300.08979
300.08594
300.06668
300.06336
300.08195
300.08569
300.09074
300.09802
300.09368
300.08654
300.08162
300.078
300.06008
300.05683
300.07412
300.07762
300.08244
300.08945
300.08524
300.07837
300.07368
300.0703
300.05363
300.05048
300.06654
300.06982
300.07441
300.08115
300.07709
300.07049
300.06603
300.06287
300.0474
300.04442
300.05929
300.06235
300.06671
300.07318
300.06933
300.06301
300.05877
300.05583
300.04154
300.03879
300.0525
300.05534
300.05948
300.06567
300.06211
300.05608
300.05208
300.04935
300.03622
300.03388
300.04642
300.04905
300.05295
300.05882
300.05574
300.05004
300.04628
300.04378
300.03182
300.03011
300.04147
300.04387
300.04751
300.05303
300.05068
300.04537
300.04188
300.03962
300.02889
300.02825
300.03825
300.0404
300.04374
300.04884
300.04761
300.04278
300.03962
300.03763
300.02847
300.02966
300.03764
300.03945
300.04242
300.04696
300.04779
300.04368
300.04098
300.03941
300.03273
300.03746
300.04268
300.04401
300.04642
300.04994
300.05897
300.05644
300.05448
300.05337
300.04788
300.06134
300.07038
300.0718
300.07371
300.07553
300.10459
300.10569
300.10533
300.10479
300.09679
300.09552
300.10576
300.10662
300.10691
300.10732
300.05857
300.05833
300.05771
300.05742
300.05279
300.04406
300.05006
300.05122
300.05338
300.05648
300.04981
300.04599
300.04341
300.04195
300.03493
300.03112
300.0403
300.04214
300.04513
300.04957
300.04912
300.04436
300.04113
300.03908
300.02842
300.02744
300.03948
300.04173
300.04517
300.05023
300.05167
300.04636
300.04276
300.04037
300.02735
300.02807
300.04195
300.04447
300.04824
300.05378
300.05628
300.05053
300.04662
300.04397
300.02935
300.03108
300.04643
300.0492
300.05325
300.0592
300.06241
300.05629
300.05211
300.04921
300.03316
300.03551
300.05227
300.05529
300.0596
300.0659
300.06957
300.06312
300.05868
300.05555
300.03808
300.04082
300.059
300.06225
300.06681
300.07343
300.07741
300.07065
300.06596
300.06259
300.04369
300.04667
300.0663
300.06979
300.0746
300.08152
300.08571
300.07865
300.07371
300.07011
300.04974
300.05287
300.074
300.07773
300.08279
300.09001
300.09436
300.087
300.08181
300.07796
300.05605
300.05928
300.08198
300.08596
300.09128
300.0988
300.10331
300.09564
300.09019
300.08607
300.06255
300.06584
300.09021
300.09446
300.10004
300.10788
300.11244
300.10446
300.09874
300.09436
300.06914
300.07246
300.09853
300.10305
300.10891
300.11706
300.12176
300.11343
300.10743
300.10277
300.0758
300.07916
300.10708
300.1119
300.11806
300.12657
300.13146
300.12275
300.11642
300.11144
300.08252
300.08587
300.1158
300.12094
300.12745
300.13642
300.14176
300.1325
300.12577
300.12044
300.08935
300.09303
300.12558
300.13115
300.13812
300.14768
300.15357
300.14374
300.13653
300.13072
300.09665
300.10014
300.13563
300.14167
300.14914
300.15928
300.1004
300.1274
300.13278
300.1395
300.14885
300.14361
300.13454
300.12803
300.12284
300.09689
300.09328
300.11815
300.12314
300.12946
300.1383
300.13295
300.12435
300.11824
300.11345
300.08962
300.08613
300.1091
300.11373
300.11967
300.12805
300.12331
300.11514
300.10937
300.10489
300.08274
300.07936
300.10071
300.10504
300.11067
300.11866
300.11406
300.10624
300.10076
300.09657
300.07599
300.07264
300.09248
300.09654
300.10189
300.10956
300.10511
300.0976
300.09239
300.08847
300.06932
300.06601
300.08447
300.08828
300.09338
300.10075
300.09638
300.08916
300.08419
300.08052
300.06271
300.05944
300.07661
300.08017
300.08503
300.09212
300.08789
300.08094
300.07621
300.07277
300.05621
300.05301
300.06896
300.0723
300.07693
300.08375
300.07964
300.07296
300.06845
300.06524
300.04987
300.04679
300.06157
300.06468
300.06909
300.07564
300.07169
300.06528
300.061
300.058
300.0438
300.04091
300.05453
300.05743
300.06162
300.06789
300.06417
300.05805
300.05399
300.05121
300.03814
300.03554
300.04803
300.05071
300.05467
300.06065
300.05727
300.05146
300.04763
300.04507
300.03314
300.031
300.04236
300.04482
300.04853
300.05419
300.05133
300.04587
300.0423
300.03997
300.02918
300.02781
300.03796
300.04019
300.04364
300.04892
300.04681
300.04176
300.03848
300.03639
300.02695
300.02686
300.03546
300.03742
300.04055
300.04537
300.04406
300.03957
300.03668
300.03493
300.02754
300.02986
300.03597
300.03751
300.0402
300.04443
300.04313
300.03979
300.03763
300.03654
300.03264
300.041
300.0444
300.04538
300.04748
300.05132
300.04469
300.04593
300.04565
300.04574
300.04459
300.10286
300.16268
300.17066
300.17509
300.17551
300.13134
300.13031
300.12695
300.12204
300.08615
300.04717
300.0475
300.04738
300.04766
300.04723
300.05125
300.04793
300.04608
300.04532
300.04248
300.0343
300.03827
300.03943
300.04157
300.04497
300.04562
300.04147
300.03881
300.03728
300.03117
300.02859
300.03602
300.03778
300.04068
300.04517
300.0462
300.04142
300.0383
300.03635
300.02768
300.02759
300.03707
300.03917
300.04246
300.0475
300.04942
300.04417
300.04074
300.03851
300.0283
300.02957
300.04037
300.04272
300.0463
300.05175
300.05446
300.04884
300.04513
300.04268
300.03129
300.03335
300.04529
300.04786
300.05168
300.05749
300.06075
300.0548
300.05086
300.04819
300.03569
300.03823
300.05128
300.05406
300.05812
300.06422
300.06784
300.0616
300.05744
300.05455
300.04094
300.04379
300.05794
300.06094
300.06522
300.0716
300.07545
300.06894
300.06456
300.06146
300.04674
300.04977
300.06506
300.06826
300.07276
300.0794
300.08341
300.07665
300.07205
300.06874
300.05287
300.05603
300.07247
300.0759
300.08061
300.08751
300.09166
300.08463
300.07981
300.07628
300.05923
300.06246
300.08013
300.08378
300.08871
300.09588
300.10016
300.09286
300.08781
300.08404
300.06573
300.06901
300.08797
300.09186
300.09703
300.10448
300.10883
300.10125
300.09595
300.09194
300.07231
300.07562
300.09595
300.1001
300.10553
300.11328
300.11779
300.10989
300.10432
300.10004
300.07895
300.0823
300.10416
300.10859
300.1143
300.12239
300.12706
300.11876
300.11289
300.10831
300.08565
300.08909
300.11261
300.11735
300.12339
300.13192
300.13719
300.12842
300.12218
300.11725
300.09269
300.09626
300.12187
300.127
300.13344
300.14243
300.14756
300.13832
300.13168
300.12636
300.09972
299.99569
299.99559
299.99567
299.99554
300.00004
299.99782
299.99632
299.99483
299.99521
299.99784
300.00205
299.99806
299.9952
299.99655
300.00171
300.00377
300.00533
300.00938
300.0084
300.01163
300.00655
300.00784
300.01218
300.01425
300.00952
300.00219
299.99825
300.00629
300.00444
300.00197
299.99927
300.00416
300.0065
300.01022
300.00799
300.01114
300.00376
300.00504
300.00755
300.0096
300.00835
300.01414
300.01567
300.01554
300.01065
300.01131
300.01094
300.01005
300.01239
300.01364
300.01469
300.01322
300.01094
300.00836
300.00757
300.01002
300.01003
300.0048
299.998
299.997
300.00088
300.00307
300.05196
300.05444
300.0545
300.05516
300.05671
300.05534
300.05207
300.04975
300.04817
300.03928
300.03422
300.03984
300.04105
300.04319
300.04606
300.04159
300.03776
300.0353
300.03395
300.02868
300.02671
300.03351
300.03513
300.03791
300.04217
300.04285
300.03823
300.03522
300.03339
300.02533
300.02525
300.0345
300.03652
300.03972
300.04461
300.0465
300.04138
300.03801
300.03586
300.02578
300.02695
300.03775
300.04005
300.04355
300.04889
300.05155
300.04603
300.04238
300.03998
300.02855
300.03053
300.04256
300.04508
300.04885
300.05456
300.05779
300.05193
300.04803
300.04541
300.0328
300.03531
300.04849
300.05123
300.05524
300.06127
300.06489
300.05872
300.05459
300.05175
300.03799
300.04083
300.05516
300.05812
300.06236
300.06867
300.07255
300.0661
300.06175
300.05869
300.04378
300.04683
300.06232
300.06549
300.06995
300.07655
300.0806
300.07388
300.06931
300.06603
300.04995
300.05313
300.06981
300.0732
300.07789
300.08475
300.08894
300.08195
300.07715
300.07365
300.05635
300.05962
300.07755
300.08116
300.08608
300.09321
300.09752
300.09025
300.08522
300.08149
300.06292
300.06625
300.08547
300.08933
300.09448
300.1019
300.10632
300.09876
300.09349
300.08951
300.06959
300.07296
300.09359
300.0977
300.10311
300.11082
300.11539
300.10752
300.10197
300.09773
300.07635
300.07976
300.10192
300.10631
300.11199
300.12004
300.12479
300.11655
300.11071
300.10618
300.08319
300.08665
300.11051
300.11521
300.12121
300.12964
300.13463
300.12598
300.1198
300.11494
300.09016
300.09372
300.11948
300.12453
300.1309
300.13979
300.14509
300.13594
300.12937
300.12413
300.09728
300.10083
300.12883
300.13429
300.14109
300.1505
300.1457
300.13652
300.12991
300.12464
300.09763
300.09402
300.1199
300.12497
300.13137
300.1403
300.13493
300.12623
300.12004
300.11517
300.09038
300.08684
300.11067
300.11537
300.12138
300.12984
300.12506
300.11682
300.11097
300.10643
300.08341
300.07997
300.10218
300.10658
300.11229
300.12035
300.11568
300.10779
300.10223
300.09798
300.07654
300.07313
300.09383
300.09795
300.10338
300.11112
300.10661
300.09902
300.09373
300.08974
300.06974
300.06637
300.08567
300.08955
300.09473
300.10217
300.09776
300.09046
300.08541
300.08167
300.06304
300.05976
300.07773
300.08136
300.0863
300.09345
300.08914
300.08212
300.07731
300.07381
300.05649
300.05323
300.06991
300.07331
300.07801
300.0849
300.08068
300.07394
300.06936
300.06609
300.05002
300.04687
300.06233
300.0655
300.06998
300.07659
300.07253
300.06606
300.06171
300.05866
300.04378
300.0408
300.05508
300.05803
300.06228
300.06862
300.06476
300.05858
300.05445
300.05162
300.03793
300.0352
300.0483
300.05103
300.05505
300.0611
300.05753
300.05166
300.04777
300.04516
300.03265
300.03032
300.04224
300.04475
300.04852
300.05425
300.05113
300.04559
300.04197
300.03958
300.02826
300.02656
300.03724
300.03952
300.04302
300.04838
300.04582
300.04069
300.03734
300.03521
300.02525
300.02452
300.03361
300.03562
300.03882
300.04374
300.04165
300.03699
300.034
300.0322
300.0243
300.02515
300.03167
300.03326
300.03603
300.04036
300.03887
300.03492
300.03248
300.03121
300.0264
300.03026
300.03467
300.03574
300.03782
300.04092
300.04606
300.04324
300.04129
300.04008
300.03352
300.04021
300.03777
300.03732
300.03797
300.04047
300.01994
300.02463
300.02828
300.03166
300.03929
299.99797
299.92012
299.90032
299.88608
299.88188
300.16592
300.16501
300.15997
300.15109
300.08509
300.03083
300.03258
300.03258
300.03302
300.03204
300.0425
300.03812
300.03582
300.03473
300.03073
300.025
300.02929
300.03045
300.03271
300.03623
300.03939
300.03501
300.03223
300.03063
300.02417
300.02311
300.03075
300.03255
300.03551
300.04012
300.04226
300.03738
300.0342
300.03221
300.02338
300.02415
300.03377
300.0359
300.03923
300.04434
300.04686
300.04155
300.03809
300.03584
300.02554
300.0273
300.03819
300.04055
300.04415
300.04964
300.0527
300.04705
300.04333
300.04086
300.02939
300.03175
300.04377
300.04634
300.05018
300.056
300.05947
300.05351
300.04955
300.04687
300.03431
300.03704
300.05015
300.05294
300.05701
300.06312
300.06688
300.06063
300.05646
300.05356
300.0399
300.04286
300.05709
300.06009
300.06437
300.07076
300.07471
300.0682
300.06381
300.0607
300.04592
300.04904
300.06439
300.06761
300.07211
300.07876
300.08286
300.07608
300.07147
300.06815
300.05221
300.05543
300.07196
300.0754
300.08012
300.08703
300.09125
300.0842
300.07937
300.07582
300.05868
300.06196
300.07972
300.08339
300.08834
300.09553
300.09985
300.09252
300.08745
300.08367
300.06526
300.06858
300.08766
300.09156
300.09676
300.10424
300.10867
300.10104
300.09572
300.09168
300.07192
300.07528
300.09576
300.09993
300.10539
300.11319
300.11777
300.1098
300.1042
300.09989
300.07865
300.08206
300.10408
300.10854
300.11429
300.12244
300.12722
300.11886
300.11294
300.10833
300.08549
300.08897
300.11268
300.11745
300.12354
300.13211
300.13714
300.12834
300.12208
300.11713
300.09248
300.09598
300.12166
300.1268
300.13325
300.14225
300.14748
300.13829
300.13165
300.12631
300.09949
300.1452
300.13605
300.12947
300.12422
300.09733
300.09379
300.11962
300.12467
300.13105
300.13994
300.13478
300.12612
300.11993
300.11506
300.09022
300.08669
300.11061
300.11531
300.12133
300.12979
300.12492
300.11667
300.11082
300.10627
300.08322
300.07977
300.10199
300.1064
300.1121
300.12017
300.11549
300.10759
300.10204
300.09778
300.07634
300.07293
300.09362
300.09774
300.10317
300.11091
300.10627
300.09868
300.0934
300.08942
300.06951
300.06612
300.0853
300.08915
300.0943
300.10173
300.09742
300.09015
300.08512
300.0814
300.06284
300.05961
300.07759
300.08121
300.08614
300.09327
300.08905
300.08204
300.07723
300.07372
300.05635
300.05306
300.06974
300.07314
300.07785
300.08475
300.0805
300.07374
300.06916
300.06589
300.04983
300.04666
300.06211
300.06528
300.06976
300.07638
300.0723
300.06583
300.06148
300.05843
300.04357
300.04057
300.05484
300.05779
300.06203
300.06837
300.0645
300.05832
300.0542
300.05137
300.03769
300.03494
300.04804
300.05077
300.05478
300.06082
300.05725
300.05138
300.04749
300.04488
300.03235
300.02998
300.04193
300.04444
300.04822
300.05394
300.05079
300.04525
300.04161
300.03922
300.02786
300.02607
300.03682
300.03911
300.04263
300.04799
300.04537
300.04022
300.03686
300.03471
300.02466
300.02378
300.033
300.03502
300.03825
300.04319
300.04099
300.03629
300.03327
300.03143
300.02338
300.02398
300.0307
300.03233
300.03514
300.03952
300.03781
300.03378
300.03127
300.02995
300.0249
300.02836
300.03302
300.03415
300.0363
300.03951
300.04468
300.04164
300.03956
300.03826
300.03122
300.03863
300.03645
300.03602
300.03666
300.03922
300.02583
300.02932
300.03225
300.03463
300.03612
300.00215
299.95775
299.95042
299.94633
299.94186
299.91619
299.91501
299.919
299.92757
299.99308
299.9981
299.95736
299.9519
299.94963
299.95264
300.06967
300.06902
300.06833
300.06788
300.06259
300.04224
300.05011
300.05147
300.05352
300.05615
300.04791
300.04502
300.0429
300.04177
300.03655
300.03022
300.03524
300.03657
300.03896
300.04276
300.0431
300.03886
300.03612
300.03453
300.02791
300.02626
300.03419
300.036
300.03898
300.04359
300.04516
300.0403
300.03712
300.03512
300.02599
300.02637
300.03635
300.03849
300.04184
300.04695
300.04923
300.04391
300.04042
300.03815
300.02743
300.02895
300.0403
300.0427
300.04633
300.05184
300.05479
300.0491
300.04533
300.04283
300.03087
300.03308
300.04563
300.04825
300.05214
300.05801
300.06143
300.05541
300.0514
300.04867
300.03554
300.0382
300.0519
300.05475
300.05888
300.06505
300.0688
300.06249
300.05825
300.0553
300.041
300.04393
300.05881
300.06187
300.06623
300.07268
300.07665
300.07006
300.0656
300.06243
300.04697
300.05007
300.06613
300.06941
300.07398
300.0807
300.08482
300.07797
300.07328
300.0699
300.05324
300.05645
300.07372
300.07722
300.08202
300.08901
300.09324
300.08613
300.08122
300.0776
300.0597
300.06299
300.08153
300.08526
300.09029
300.09755
300.10189
300.0945
300.08935
300.0855
300.0663
300.06964
300.08951
300.09349
300.09876
300.1063
300.11076
300.10307
300.09767
300.09357
300.07299
300.07637
300.09768
300.10192
300.10745
300.11531
300.11994
300.11191
300.10623
300.10186
300.07977
300.08319
300.1061
300.11063
300.11645
300.12467
300.12953
300.1211
300.11511
300.11043
300.08665
300.09015
300.11486
300.11972
300.12589
300.13454
300.13973
300.13084
300.12447
300.11944
300.09371
300.09727
300.12409
300.12933
300.13591
300.14505
300.15048
300.14106
300.13426
300.12881
300.10082
300.09953
300.13494
300.14096
300.14842
300.15856
300.15272
300.14291
300.13572
300.12994
300.09604
300.09252
300.12501
300.13057
300.13752
300.14704
300.1415
300.13226
300.12554
300.12019
300.089
300.08555
300.11554
300.1207
300.12723
300.13621
300.1311
300.12235
300.11602
300.11104
300.08216
300.07878
300.10662
300.11144
300.1176
300.12614
300.12128
300.11294
300.10695
300.1023
300.07543
300.07209
300.09803
300.10254
300.10839
300.11655
300.11188
300.1039
300.0982
300.09384
300.06878
300.06549
300.08969
300.09392
300.09949
300.10732
300.10278
300.09512
300.08969
300.0856
300.06222
300.05897
300.08155
300.08552
300.09082
300.09834
300.09393
300.08657
300.0814
300.07757
300.05576
300.05259
300.07363
300.07735
300.08241
300.08963
300.08535
300.07829
300.07336
300.06977
300.04946
300.04641
300.06597
300.06945
300.07427
300.0812
300.07708
300.07031
300.06563
300.06227
300.04341
300.04053
300.05867
300.06192
300.06649
300.07313
300.06925
300.06277
300.05834
300.05522
300.03777
300.03518
300.05191
300.05493
300.05925
300.06558
300.06204
300.05589
300.05171
300.04882
300.0328
300.03067
300.04597
300.04875
300.05281
300.05879
300.05576
300.04998
300.04607
300.04343
300.02885
300.02744
300.04125
300.04379
300.04757
300.05316
300.05084
300.04548
300.04186
300.03948
300.02651
300.0263
300.03827
300.04053
300.04399
300.04912
300.04753
300.04268
300.03943
300.03738
300.02678
300.02872
300.03781
300.03965
300.04267
300.04712
300.04614
300.04212
300.03947
300.03799
300.03111
300.03792
300.04366
300.04486
300.04714
300.05063
300.0497
300.04889
300.04768
300.04699
300.04208
300.0792
300.09135
300.09248
300.09304
300.0943
300.03504
300.01744
300.01436
300.01315
300.00951
300.00861
300.00956
300.01249
300.01657
300.04379
300.03376
300.04188
300.04307
300.04494
300.04799
300.04242
300.03928
300.03718
300.03611
300.03087
300.02659
300.03389
300.03546
300.03823
300.04254
300.04394
300.03937
300.03631
300.03445
300.02517
300.02407
300.03485
300.03694
300.04024
300.04516
300.04718
300.04203
300.03855
300.03628
300.02415
300.02479
300.03788
300.04029
300.04393
300.04931
300.05188
300.04629
300.0425
300.03997
300.02603
300.02769
300.04236
300.04502
300.04895
300.05474
300.0579
300.05194
300.04787
300.04509
300.02971
300.032
300.04807
300.05098
300.05517
300.06132
300.06493
300.05863
300.05431
300.05129
300.03451
300.0372
300.05468
300.05781
300.06226
300.06873
300.07264
300.06603
300.06146
300.05822
300.04003
300.04298
300.06187
300.06524
300.06992
300.07669
300.08082
300.07391
300.06911
300.06563
300.04601
300.04912
300.06946
300.07306
300.07799
300.08505
300.08934
300.08214
300.07709
300.07337
300.05229
300.0555
300.07733
300.08118
300.08635
300.09371
300.09812
300.09062
300.08532
300.08136
300.05874
300.06202
300.08543
300.08952
300.09495
300.1026
300.10714
300.09933
300.09377
300.08955
300.06532
300.06864
300.09371
300.09808
300.10378
300.11175
300.11642
300.10828
300.10244
300.09794
300.07198
300.07534
300.10222
300.10687
300.11287
300.12119
300.12606
300.11754
300.11139
300.10658
300.07872
300.08211
300.11101
300.11599
300.12232
300.13105
300.13617
300.12721
300.1207
300.11554
300.08554
300.089
300.12018
300.12553
300.13225
300.14146
300.14696
300.13747
300.13053
300.12498
300.09251
300.09603
300.12989
300.13566
300.14285
300.15264
300.15849
300.14837
300.14093
300.13491
300.09953