/*--------------------------------*- C++ -*----------------------------------*\
  =========                 |
  \\      /  F ield         | OpenFOAM: The Open Source CFD Toolbox
   \\    /   O peration     | Website:  https://openfoam.org
    \\  /    A nd           | Version:  7
     \\/     M anipulation  |
\*---------------------------------------------------------------------------*/
FoamFile
{
    version     2.0;
    format      ascii;
    class       volScalarField;
    location    "250";
    object      alphat;
}
// * * * * * * * * * * * * * * * * * * * * * * * * * * * * * * * * * * * * * //

dimensions      [1 -1 -1 0 0 0 0];

internalField   nonuniform List<scalar> 
24866
(
9.3762418
9.384252
9.3805229
9.6001547
9.7933386
9.7907819
9.7860149
9.7910198
9.7901616
9.7844526
9.7847584
9.7848014
9.7844801
9.7902014
9.7911171
9.7859974
9.7905765
9.7920958
9.7910842
9.7857707
9.7739768
9.7908954
9.8266715
9.8118701
9.7816686
9.7770322
9.7862462
9.8144383
9.808867
9.777732
9.7885069
9.7921083
9.7921095
9.7885167
9.777788
9.8089228
9.8145646
9.7863546
9.7769055
9.7814653
9.8117915
9.8266187
9.7908843
9.77398
9.7858001
9.7911431
9.7921195
9.790665
9.7860085
9.7910273
9.7902992
9.7845936
9.7847555
9.7847726
9.7845502
9.7901598
9.7908803
9.7858784
9.7907397
9.7933943
9.7979267
9.7941326
9.7979166
9.7940616
9.7867511
9.7899697
9.7968133
9.7928427
9.7839361
9.7839224
9.7839511
9.7839405
9.7929033
9.7968708
9.7899784
9.7865976
9.7934646
9.7966997
9.7925734
9.793895
9.7877387
9.7787257
9.7767898
9.7894125
9.7937377
9.7999123
9.7818352
9.777216
9.7862635
9.800467
9.7936424
9.7881327
9.7869473
9.7878825
9.7859504
9.7828679
9.7858449
9.7846216
9.7888356
9.7859976
9.7834251
9.7830376
9.7830917
9.7838383
9.7846754
9.7846781
9.7844655
9.7878164
9.7867209
9.7863633
9.7823925
9.7906494
9.7953421
9.7927438
9.7879172
9.7851814
9.7841813
9.7835931
9.7840087
9.7843827
9.7843004
9.7836916
9.7841616
9.783265
9.7827086
9.7834474
9.7857926
9.7829135
9.7820893
9.7823678
9.7834233
9.784454
9.7850674
9.7847671
9.7848712
9.7845062
9.7840128
9.7844714
9.784184
9.7867254
9.7879207
9.782402
9.7906532
9.7953442
9.6716666
9.6677624
9.5851069
9.5913467
9.5992736
9.5992699
9.5913369
9.5886095
9.5517969
9.6982488
9.7014058
9.5593191
9.5885189
9.5907809
9.5838515
9.5533458
9.5047907
9.522614
9.576462
9.58954
9.597927
9.5974245
9.5964526
9.594087
9.5930868
9.5899415
9.5874733
9.5781716
9.5781252
9.5874591
9.5898297
9.5927771
9.5945607
9.5961336
9.5880628
9.5970404
9.6736022
9.6715821
9.5882628
9.512604
9.5983857
9.6003698
9.5908285
9.7894415
9.7855437
9.7894497
9.7860547
9.7833831
9.7857386
9.7828865
9.7820554
9.7823191
9.7833484
9.7843482
9.7849422
9.7850729
9.7851939
9.7848767
9.784392
9.7846887
9.7869565
9.7878224
9.7936552
9.7863756
9.5911671
9.6024162
9.6284668
9.6983162
9.5517426
9.588586
9.3923437
9.3780102
9.380018
9.3800136
9.3780009
9.3923547
9.3520538
9.351262
9.3739085
9.3985702
9.3731133
9.3462394
9.3300952
9.3494666
9.3795488
9.3774257
9.3788554
9.3774866
9.3845253
9.3979509
9.3778772
9.3749301
9.392456
9.3820692
9.3821383
9.3925639
9.3749019
9.3775812
9.3984838
9.2051733
9.1936974
9.1864185
9.1866933
9.1933875
9.3839098
9.5958345
9.594691
9.5925841
9.5899249
9.5874514
9.5781451
9.5781497
9.5876139
9.5896596
9.593248
9.5941032
9.5967119
9.5973493
9.5980978
9.5895125
9.576509
9.5226703
9.6617125
9.7154361
9.7004439
9.5534616
9.5840099
9.5908979
9.58836
9.5590647
9.7014447
9.6362683
9.5594013
9.5558358
9.5107868
9.5887507
9.5836024
9.6211071
9.6666171
9.800521
9.7863044
9.7771921
9.788139
9.7937258
9.7878932
9.7846911
9.7843155
9.7847782
9.7841776
9.784464
9.7843527
9.7838371
9.7830719
9.7826096
9.7834965
9.7828719
9.783075
9.7833564
9.7834363
9.783284
9.7830624
9.7837121
9.78386
9.7859677
9.7894072
9.7768014
9.7828974
9.7831205
9.7846554
9.7834538
9.7827291
9.7823828
9.7823306
9.7826154
9.7834962
9.786048
9.7833924
9.7820701
9.7821073
9.7834676
9.7860306
9.7888804
9.7926063
9.7858821
9.778764
9.7877882
9.7939399
9.6698619
9.5937256
9.5816498
9.6653288
9.5839038
9.5945164
9.5080732
9.373956
9.3773838
9.3796042
9.3495155
9.33013
9.5049674
9.535591
9.547511
9.6071021
9.6165971
9.6286053
9.5865502
9.5082171
9.5509677
9.3545062
9.3462701
9.3731325
9.3985948
9.3738889
9.3512579
9.3520754
9.1710613
9.1991173
9.1871975
9.1860771
9.1860733
9.1871917
9.1991296
9.1710486
9.1651645
9.1816594
9.2081376
9.1811342
9.1585885
9.1562579
9.1783858
9.1902556
9.1863034
9.1846584
9.1837345
9.1938814
9.2046651
9.187781
9.1845738
9.2038017
9.1975321
9.1974925
9.2038238
9.1846092
9.1875731
9.0162545
9.0290524
9.0217465
9.0143966
9.0146069
9.0214899
9.0291862
9.205332
9.3986352
9.3774029
9.3750744
9.3923511
9.3820807
9.3822067
9.3926451
9.3748066
9.3781158
9.3978558
9.3848231
9.3773946
9.3790514
9.184819
9.1862543
9.1903047
9.1784385
9.1562804
9.1586189
9.1811738
9.2081765
9.1816188
9.165135
8.9988741
9.0055401
9.023587
9.0156271
9.01396
9.0139565
9.015623
9.0235973
9.0055297
8.9988995
9.0102149
9.03394
9.0091166
8.9908506
8.9947182
9.0152792
9.0175817
9.0145554
9.0123996
9.0119862
9.0217109
9.0285505
9.0163709
9.0136584
9.029744
9.0258654
9.0258909
9.0298558
9.0137384
8.8583616
8.8602423
8.8687685
8.8648566
8.8584672
8.8586189
8.864655
8.8688686
8.8601092
8.8583747
9.013808
9.1847309
9.2036707
9.1975559
9.1975708
9.2038447
9.1845207
9.1880517
9.2045513
9.1941477
9.1836494
9.0119174
9.0125182
9.0145061
9.0176185
9.0153272
8.9947284
8.9908735
9.0091571
9.0339801
9.0101772
8.8548674
8.8471864
8.8534137
8.8642016
8.8594326
8.8578801
8.8578762
8.8594293
8.8642091
8.853406
8.8472086
8.8549005
8.8745921
8.853
8.8384012
8.8450137
8.8629321
8.8604363
8.8582732
8.8562976
8.8562389
8.8645833
8.8682611
8.8602657
8.8582343
8.87051
8.8682253
8.8682827
8.8706733
8.725911
8.7169277
8.7182025
8.7234926
8.7218827
8.7167823
8.7168873
8.7217276
8.7235599
8.7180795
8.7168873
8.7256175
8.8703964
9.0296213
9.025895
9.0259652
9.0298347
9.013659
9.0166403
9.0284479
9.0219262
8.8647495
8.8561864
8.8563789
8.858227
8.860461
8.8629724
8.8450173
8.8384187
8.8530396
8.8746312
8.7295122
8.7138889
8.7086907
8.7140005
8.7198662
8.7172718
8.7160782
8.7160741
8.7172686
8.7198707
8.7139953
8.7087102
8.713917
8.7294757
8.7112703
8.6998056
8.7072797
8.7223677
8.7177799
8.7161354
8.7145307
8.7146818
8.7214001
8.7229685
8.7181394
8.7167629
8.7257159
8.7244714
8.724549
8.5936429
8.5943911
8.5880055
8.5887739
8.5917946
8.5916126
8.587791
8.5878616
8.5914933
8.5918335
8.5886567
8.5879209
8.5940952
8.5935638
8.7244885
8.8682513
8.8683434
8.8706326
8.858283
8.8605214
8.8681881
8.7229274
8.7215267
8.714643
8.7145829
8.7160933
8.7177942
8.7223995
8.7072796
8.6998192
8.7113078
8.5824569
8.5975409
8.5856164
8.5821183
8.5863734
8.5890289
8.5878018
8.5870205
8.5870165
8.5877984
8.5890309
8.5863701
8.5821353
8.5856395
8.5975074
8.582422
8.5735524
8.5809477
8.5933893
8.5881311
8.5867569
8.5855303
8.5857866
8.5909585
8.5912452
8.5886321
8.5878103
8.5941768
8.5935536
8.4738799
8.473975
8.4743916
8.4699292
8.4702987
8.4718015
8.4724448
8.469743
8.4697891
8.4723518
8.471817
8.470184
8.4698109
8.4741013
8.4738855
8.4739972
8.5936746
8.7245933
8.7258596
8.7168515
8.7183788
8.5888558
8.5912331
8.5910558
8.5857585
8.5855612
8.5867189
8.5881372
8.593413
8.5809457
8.5735632
8.4579276
8.4647194
8.4771084
8.4682595
8.4659273
8.4691611
8.4697822
8.4693619
8.4689529
8.468949
8.4693583
8.4697821
8.4691592
8.465942
8.4682782
8.4770781
8.4646873
8.4579187
8.4648119
8.4749305
8.4696939
8.4684437
8.4675292
8.4678188
8.4716564
8.4712219
8.4700864
8.4697083
8.4741662
8.363914
8.3637905
8.363889
8.3641478
8.3610657
8.361131
8.3616557
8.3627295
8.360942
8.360971
8.362655
8.3616523
8.3610163
8.3609224
8.3638658
8.3637925
8.3639018
8.3640826
8.4743301
8.5943333
8.5879305
8.4698517
8.4702966
8.471234
8.4717333
8.467799
8.4675454
8.4684094
8.4696936
8.474947
8.4648088
8.3574767
8.3512607
8.3563733
8.3665073
8.3601134
8.3585785
8.3609002
8.3602696
8.3602853
8.360172
8.3601684
8.3602814
8.3602679
8.3608991
8.3585912
8.3601283
8.3664799
8.3563441
8.3512532
8.3574805
8.3656255
8.3607194
8.3595099
8.3588207
8.3590943
8.3618409
8.3610447
8.3608563
8.3608211
8.2597619
8.2619023
8.2618423
8.2619425
8.2621423
8.2600284
8.2598686
8.2597894
8.2610402
8.2599647
8.2599818
8.2609785
8.259771
8.2597524
8.2598672
8.2618701
8.2618419
8.2619466
8.2620733
8.2599333
8.3609812
8.3610555
8.3610763
8.3619042
8.3590807
8.3588269
8.3594786
8.3607142
8.365636
8.264197
8.2576875
8.2521756
8.2559602
8.2642364
8.2597507
8.2587555
8.2603016
8.2589346
8.2591464
8.2592457
8.2592423
8.2591421
8.2589317
8.260301
8.2587663
8.2597623
8.2642118
8.2559336
8.2521693
8.2576918
8.2641916
8.2597335
8.258517
8.257971
8.2581968
8.2600814
8.2591488
8.2595398
8.1650313
8.1654399
8.1669312
8.1668838
8.1669848
8.1671758
8.1657265
8.1654064
8.1649773
8.1662464
8.1657035
8.1657123
8.1661933
8.1649466
8.1652878
8.165553
8.166914
8.166882
8.1669809
8.1671027
8.1656185
8.1652143
8.2597301
8.2591957
8.2601359
8.2581878
8.2579703
8.258488
8.2597245
8.1655688
8.1695674
8.1644157
8.1595874
8.1623306
8.1690887
8.1660562
8.1654195
8.1663302
8.1645635
8.1648208
8.1650572
8.1650539
8.1648162
8.1645597
8.1663298
8.1654286
8.1660651
8.1690665
8.1623066
8.1595819
8.1644204
8.1695663
8.1655807
8.1643314
8.1638613
8.1640208
8.165242
8.1643105
8.0755925
8.0764775
8.0770155
8.0780757
8.078019
8.07812
8.0783236
8.0773205
8.0768918
8.0762814
8.0774739
8.0773144
8.0773175
8.0774263
8.0762409
8.0767705
8.077139
8.0780725
8.0780166
8.0781089
8.0782461
8.077198
8.0766543
8.0756602
8.1643691
8.165291
8.1640153
8.1638561
8.1643041
8.0760554
8.0773606
8.0809047
8.0768593
8.072666
8.0745998
8.0801222
8.0781771
8.0777722
8.0781783
8.0762301
8.0764428
8.0767542
8.0767511
8.0764381
8.0762256
8.0781779
8.0777797
8.0781837
8.0801022
8.0745781
8.0726613
8.0768645
8.0809072
8.0773749
8.0760814
8.0756372
8.0757216
8.0764438
7.9929983
7.9922696
7.9932111
7.9938337
7.9946173
7.9945467
7.9946471
7.9948679
7.9941554
7.9936584
7.9929763
7.9940386
7.9941436
7.9941427
7.9939946
7.9929279
7.9935345
7.9939693
7.9946272
7.9945444
7.9946298
7.9947854
7.9940177
7.9933827
7.9923441
7.9930423
8.0764895
8.0757187
8.0756289
7.9926259
7.9930638
7.9944137
7.9975411
7.9943899
7.9907726
7.9920836
7.9966018
7.9954556
7.9951932
7.9952103
7.9932196
7.9933375
7.9936763
7.9936733
7.9933327
7.9932148
7.9952099
7.9951994
7.9954604
7.9965838
7.9920642
7.9907688
7.9943957
7.9975467
7.99443
7.993089
7.9926362
7.9926438
7.9142558
7.9143448
7.9137574
7.9146876
7.9153603
7.9159744
7.9158939
7.9159936
7.9162269
7.9156967
7.9151623
7.9144777
7.9153834
7.9156613
7.9156575
7.9153413
7.9144228
7.9150363
7.9155087
7.9159966
7.9158924
7.9159707
7.9161391
7.9155439
7.9148545
7.9138369
7.9143878
7.9142562
7.9926428
7.9967939
8.0004307
7.9968961
7.997873
7.9998614
7.998663
7.9992879
7.9998146
8.0006522
8.0007389
7.9991476
7.9204541
7.9171783
7.9169045
7.914958
7.9149566
7.9152889
7.9152861
7.914952
7.9149534
7.9169045
7.9171841
7.9173637
7.9179158
7.9142126
7.9133895
7.9165019
7.9189366
7.9161921
7.914805
7.9143223
7.8402397
7.8401042
7.8400055
7.8395629
7.8404409
7.841137
7.8416539
7.8415703
7.8416688
7.8419075
7.841486
7.8409376
7.8402924
7.8410327
7.8414156
7.8414099
7.8409919
7.8402324
7.8408099
7.8412981
7.8416874
7.8415698
7.8416411
7.8418145
7.8413186
7.8406033
7.8396459
7.8400479
7.8401057
7.8402267
7.9143106
7.9147801
7.9161739
7.9189281
7.9164949
7.9133919
7.9142292
7.9179312
7.9173597
7.8434371
7.8432954
7.842812
7.8409616
7.8408332
7.841137
7.8411348
7.8408295
7.8409582
7.8428136
7.8433025
7.8434425
7.8435934
7.8405546
7.8400868
7.8427451
7.8446079
7.8421924
7.8407634
7.7705604
7.7699911
7.7697934
7.7695645
7.7692614
7.7700643
7.7707646
7.7712316
7.7711519
7.7712492
7.7714857
7.7711239
7.7705783
7.769996
7.7705727
7.7710115
7.7710043
7.7705327
7.769932
7.7704498
7.7709378
7.7712755
7.7711526
7.7712171
7.7713872
7.7709428
7.770222
7.7693462
7.769606
7.7697947
7.7699759
7.7705325
7.840738
7.8421715
7.8445956
7.8427352
7.8400859
7.8405667
7.8436045
7.7731871
7.7732957
7.7731668
7.772539
7.7708135
7.770561
7.7708236
7.7708222
7.7705598
7.770814
7.7725458
7.77318
7.7733078
7.7731856
7.7706887
7.7704847
7.7727455
7.774153
7.7720255
7.7053324
7.7038355
7.7032203
7.7029671
7.7026501
7.702477
7.7031935
7.7038837
7.7043321
7.7042632
7.7043591
7.7045859
7.704251
7.7037201
7.7032123
7.7036329
7.7040929
7.7040847
7.7035933
7.7031455
7.7035916
7.7040681
7.7043855
7.7042655
7.7043233
7.7044821
7.7040572
7.7033459
7.7025619
7.7026895
7.7029662
7.7032004
7.7038009
7.7052961
7.7719998
7.7741337
7.7727284
7.7704758
7.7706912
7.7042437
7.7062962
7.7065847
7.7064508
7.7057303
7.7041441
7.7037758
7.7039916
7.7039922
7.7037809
7.7041548
7.7057512
7.7064815
7.7066163
7.7063173
7.7042636
7.7042515
7.7061643
7.7072095
7.643444
7.6417825
7.6402535
7.6395935
7.6392905
7.6389146
7.6388623
7.6394874
7.6401571
7.640609
7.6405583
7.6406525
7.6408618
7.64053
7.6400221
7.639594
7.6398657
7.6403234
7.6403144
7.6398265
7.6395252
7.6398944
7.6403513
7.6406708
7.6405618
7.6406131
7.6407525
7.6403245
7.6396335
7.6389451
7.6389496
7.6392832
7.6395629
7.6402028
7.6417226
7.6433766
7.7071753
7.7061294
7.7042225
7.6410082
7.6408912
7.6425792
7.6429753
7.6428229
7.6420508
7.6406107
7.6401359
7.6403055
7.6403109
7.640156
7.6406457
7.6421061
7.6428969
7.6430551
7.6426524
7.6409625
7.641084
7.6426887
7.5820165
7.5825345
7.5810542
7.5794841
7.5787787
7.5784287
7.5780129
7.5780749
7.5786064
7.5792471
7.5797199
7.5796945
7.579787
7.579971
7.5796235
7.579145
7.578798
7.5789252
7.5793653
7.579356
7.5788865
7.5787281
7.5790188
7.5794496
7.579789
7.5796992
7.5797442
7.5798563
7.5794076
7.5787455
7.5781533
7.5780398
7.5784083
7.578726
7.579399
7.580944
7.582396
7.5818491
7.6426123
7.6454869
7.6462502
7.6466449
7.6472422
7.6469822
7.6452228
7.5844263
7.581955
7.5811649
7.5798745
7.5793012
7.5794306
7.5794466
7.5793541
7.5799633
7.5812969
7.5821262
7.582325
7.5818754
7.5804847
7.5806914
7.5228032
7.5238613
7.5241732
7.522835
7.5212003
7.5204421
7.5200431
7.5195978
7.5197728
7.5202094
7.5208144
7.5213254
7.5213334
7.521424
7.5215742
7.5211926
7.5207481
7.5204822
7.5204631
7.5208752
7.5208655
7.5204249
7.5204117
7.5206241
7.5210242
7.5214011
7.5213395
7.5213785
7.5214549
7.520968
7.5203411
7.5198445
7.5196114
7.5199981
7.5203469
7.5210465
7.5226239
7.5238917
7.5235089
7.5224154
7.5805129
7.5803019
7.5816883
7.5821376
7.5237408
7.5235142
7.5227334
7.5215957
7.5209281
7.5210285
7.521066
7.5210482
7.5217944
7.5230227
7.5238854
7.5241486
7.5236992
7.5225553
7.4669521
7.4671963
7.4679798
7.4680901
7.4668424
7.4650976
7.4642666
7.4638088
7.4633373
7.4636316
7.4639717
7.4645371
7.4651082
7.4651599
7.4652483
7.4653542
7.464916
7.4645082
7.4643227
7.4641458
7.4645214
7.4645116
7.464108
7.464252
7.4643865
7.4647535
7.4651902
7.4651683
7.4652018
7.4652314
7.4646842
7.4640963
7.4636941
7.4633297
7.4637208
7.4640948
7.4648169
7.4664435
7.46754
7.4672781
7.4664138
7.4661169
7.522146
7.5232808
7.4670394
7.467474
7.4671836
7.4664333
7.4654524
7.4646879
7.4647744
7.4648523
7.4649337
7.465857
7.467019
7.4679321
7.4682975
7.4678925
7.4143243
7.4135518
7.4137445
7.4142229
7.4141032
7.4128722
7.4109441
7.4100016
7.4094648
7.4089653
7.4093928
7.4096354
7.4101611
7.4108195
7.4109287
7.4110158
7.4110642
7.4105419
7.4101698
7.4100636
7.4097085
7.4100388
7.4100288
7.4096705
7.4099923
7.4100502
7.4103849
7.4109086
7.41094
7.4109682
7.4109376
7.410303
7.4097539
7.4094443
7.4089274
7.4093097
7.4097043
7.410449
7.4121513
7.4130887
7.4129143
7.4122766
7.4119797
7.4127209
7.4130979
7.4127173
7.412011
7.4111897
7.4103185
7.4104085
7.4105553
7.4107777
7.4119464
7.4131075
7.4141179
7.4146399
7.363239
7.3630572
7.3624232
7.3625163
7.3626431
7.3622251
7.3608973
7.3586882
7.3575756
7.3569293
7.3563989
7.3569729
7.3571247
7.3576188
7.3583911
7.3585723
7.3586594
7.3586385
7.3580066
7.3576629
7.3576289
7.3570771
7.3573522
7.3573417
7.3570381
7.3575558
7.357544
7.3578535
7.358489
7.3585856
7.3586086
7.3585059
7.3577582
7.3572403
7.357015
7.3563256
7.3566846
7.3570972
7.3578699
7.3596765
7.3604753
7.3603691
7.3599574
7.3596806
7.3602644
7.3605584
7.3600624
7.3594011
7.3587328
7.357744
7.3578512
7.3581031
7.358526
7.3600334
7.3613016
7.3624936
7.3134739
7.314506
7.314487
7.3139666
7.3139283
7.313659
7.3128136
7.3112044
7.3086071
7.3072527
7.3064671
7.3059088
7.3066222
7.3067181
7.3072058
7.3080989
7.3083566
7.3084463
7.3083557
7.3076103
7.3072746
7.3072827
7.3065442
7.3067562
7.3067449
7.3065028
7.3072059
7.3071539
7.3074582
7.3082092
7.3083726
7.3083902
7.3082131
7.3073476
7.3068387
7.3066649
7.305809
7.3061309
7.3065585
7.3073705
7.3092922
7.3100068
7.3099785
7.3097682
7.3095045
7.3099462
7.310148
7.3095342
7.3088986
7.3083438
7.3072418
7.307368
7.3077559
7.3084488
7.3103987
7.3119556
7.2658579
7.2679696
7.26933
7.2694535
7.2690229
7.2688717
7.2681885
7.2666651
7.2644316
7.2613404
7.2596862
7.2587565
7.2581772
7.2589631
7.2591187
7.259654
7.2606216
7.2609538
7.2610506
7.2608988
7.2600903
7.2597163
7.2596629
7.2588233
7.2589836
7.2589709
7.2587779
7.25958
7.2595908
7.2599339
7.2607491
7.2609748
7.2609886
7.2607417
7.2598072
7.2592583
7.2590291
7.2580875
7.2583768
7.2588168
7.25967
7.2616646
7.2624681
7.2625795
7.2624641
7.2621295
7.2624368
7.262568
7.2618983
7.2612292
7.2606545
7.2594959
7.2596317
7.2601573
7.2611732
7.2636711
7.2204947
7.2240905
7.2272862
7.2289372
7.2290907
7.228733
7.2285824
7.2275377
7.2248654
7.2212382
7.2175436
7.2156007
7.2145695
7.2139538
7.2145471
7.2151591
7.21581
7.2166601
7.2171878
7.2173114
7.2169846
7.2162911
7.2158166
7.2153254
7.2146813
7.2148556
7.2148409
7.2146303
7.2152344
7.2156849
7.2161253
7.2168092
7.217216
7.2172433
7.2168106
7.2159848
7.2153334
7.2146719
7.2139415
7.2142637
7.2147155
7.2155751
7.2174404
7.2188947
7.2192406
7.218915
7.2182779
7.218557
7.2186005
7.2180778
7.21725
7.2162175
7.2152536
7.2154082
7.2160217
7.2173412
7.1771694
7.1808449
7.1878908
7.1932936
7.1946556
7.1945278
7.1942474
7.1944174
7.193597
7.188646
7.1815939
7.1774024
7.1754388
7.1744025
7.1736503
7.1733424
7.1755164
7.176307
7.176592
7.1777816
7.1778851
7.1769223
7.176833
7.1762317
7.174217
7.17448
7.1748411
7.1748253
7.1744238
7.1741168
7.1760913
7.1766583
7.1767641
7.1778157
7.1778124
7.1767282
7.1765062
7.1757357
7.1735614
7.1737817
7.1743149
7.174807
7.1755202
7.1768123
7.1806112
7.1809152
7.1794454
7.1783413
7.1791617
7.1785999
7.1785335
7.1775257
7.1750171
7.174922
7.1752063
7.1757971
7.1449875
7.1452369
7.1480461
7.1586503
7.167848
7.1677645
7.1674063
7.1671504
7.1676357
7.1682249
7.159405
7.1488603
7.1455426
7.1447807
7.143707
7.1423684
7.142108
7.1432571
7.144079
7.1440149
7.1436618
7.1437908
7.1443875
7.1446425
7.1440109
7.1430549
7.1432763
7.1442561
7.1442411
7.1432073
7.1429326
7.1438487
7.1444765
7.1441927
7.1437048
7.1437216
7.1441788
7.1443288
7.1435261
7.1423832
7.1426399
7.1438003
7.1445593
7.1446257
7.1466621
7.1531743
7.1546268
7.1492966
7.1464878
7.1456021
7.1461413
7.1463303
7.1452422
7.1438011
7.1435544
7.1444784
7.119496
7.1198117
7.1206044
7.1227245
7.1209637
7.1213549
7.1218787
7.1216403
7.1216557
7.1215048
7.1236171
7.1209686
7.1197156
7.1187457
7.1180588
7.119309
7.1181473
7.1188165
7.1204881
7.1199629
7.1201028
7.1208718
7.1193781
7.1189382
7.1202897
7.1190721
7.1194444
7.1194244
7.1189942
7.1201763
7.1187658
7.1191902
7.1206737
7.1200038
7.1200298
7.1206558
7.1190451
7.1184726
7.1196475
7.1184811
7.1191145
7.1199883
7.12092
7.123422
7.119315
7.1189049
7.1238822
7.1237277
7.1223854
7.1227792
7.1211703
7.1201308
7.1210006
7.1192035
7.1164933
7.1155403
7.1238978
7.1339522
7.141902
7.1478519
7.1469482
7.146686
7.146543
7.1417202
7.1348227
7.1240767
7.1154034
7.1163261
7.1238499
7.1344829
7.1465589
7.1565316
7.1522423
7.1294678
7.1290153
7.1521889
7.1566674
7.1459362
7.1341819
7.1256526
7.1183798
7.115865
7.1295972
7.1310577
7.1438917
7.1446181
7.1585815
7.1433709
7.1423144
7.1494559
7.1429822
7.1575696
7.1427186
7.1291461
7.1292723
7.1419185
7.1418357
7.1478195
7.1241146
7.1275472
7.1339504
7.1350405
7.1350752
7.1311394
7.1281854
7.1259151
7.1181428
7.1163599
7.1296758
7.1301094
7.1427535
7.157649
7.1422531
7.1431339
7.1433876
7.1491218
7.153284
7.1505499
7.1639897
7.1539904
7.154437
7.1502534
7.14407
7.1375154
7.1368737
7.1441089
7.1505662
7.1487771
7.1646825
7.1512291
7.148221
7.138089
7.1214789
7.1262986
7.1262535
7.1249247
7.1177866
7.1174947
7.1308014
7.1437794
7.1452275
7.1611058
7.1447987
7.1311064
7.1442328
7.1495558
7.1830331
7.1828826
7.1870235
7.1800817
7.1787594
7.182734
7.1800144
7.2205661
7.2651384
7.271267
7.2642346
7.2193728
7.2255848
7.2369714
7.2228077
7.2682517
7.2747085
7.2664665
7.2221834
7.2242576
7.2689405
7.269815
7.2251043
7.1845853
7.1502968
7.1600332
7.1576362
7.152809
7.1680342
7.1568602
7.1921617
7.2060737
7.2151212
7.1928216
7.1963359
7.2158478
7.1751016
7.175314
7.1787965
7.1845431
7.1717172
7.157648
7.1505321
7.184173
7.1933844
7.2075662
7.192996
7.1921637
7.1622857
7.1439193
7.1428226
7.1428155
7.1425682
7.1429299
7.1444472
7.1627832
7.1634344
7.1634127
7.1635543
7.1633891
7.1948283
7.1954439
7.2012538
7.1993057
7.1592661
7.1314821
7.145114
7.1511907
7.0975661
7.0286078
7.0174645
7.0178575
7.0293481
7.0983514
7.1115283
7.1482914
7.1541376
7.1548795
7.1496243
7.1142794
7.1014807
7.0320433
7.0214698
7.0215085
7.0321153
7.1016558
7.1145857
7.1504682
7.155982
7.1560078
7.1582384
7.1435384
7.128344
7.1168134
7.116907
7.1244463
7.1260845
7.1260879
7.1243838
7.1167508
7.1166142
7.1280864
7.1432951
7.1579704
7.1551849
7.1546802
7.1487944
7.1112936
7.0973583
7.0248825
7.0129038
7.0119226
7.0236241
7.0965791
7.1106221
7.1482192
7.1539383
7.1534378
7.1474369
7.110956
7.0766948
7.0482805
6.9601839
6.7729157
6.5513292
6.41494
6.4161505
6.555187
6.7773764
6.9630987
7.0501126
7.0789776
7.1149416
7.1553663
7.1508967
7.1357471
7.1381064
7.151656
7.1340847
7.0340618
7.1022325
7.0555151
6.9980665
6.7815837
6.6051233
6.4687856
6.2791439
6.1559852
6.0300415
5.9818434
5.9812844
6.0285172
6.1537353
6.2745144
6.4633387
6.600251
6.7753731
6.4645645
6.306518
6.0931233
5.9550674
5.8065932
5.7499696
5.7505144
5.8084408
5.9579345
6.0975265
6.3125248
6.4700548
6.2839292
6.5653867
6.8505356
6.9364361
6.9189411
7.0238344
7.0240924
7.1341706
7.1516618
7.1381149
7.1358301
7.1509591
7.1554307
7.1026545
7.034478
6.9371169
6.9189938
6.8139828
6.8136963
6.4330776
6.0409633
6.1635705
5.9649563
6.1013685
5.9096736
5.730693
5.573434
5.4932034
5.4929625
5.5710117
5.7266942
5.9054575
6.0946056
6.2774088
6.5574799
6.1564951
5.9570683
5.7281773
5.4948625
5.3070418
5.2064541
5.2066455
5.3087019
5.498872
5.7338292
5.578612
5.8177747
5.7613925
5.9925694
5.9921994
6.4330845
6.0395232
5.8174684
5.7610823
5.4996544
5.5003898
5.2108232
5.3112817
5.0954052
4.9768987
4.9767349
5.0944757
5.3081901
5.5732126
5.8095506
6.032828
6.4229659
5.9851467
5.7525928
5.4943367
5.2067397
4.9770247
4.8504856
4.8504626
4.9784467
4.9778656
5.2105357
5.3106175
5.5771705
5.7326516
5.9644021
6.1628694
6.5663921
6.8514175
6.998989
7.0560279
7.07965
7.1153062
7.1505892
7.1463629
7.1304436
7.0509559
6.9651098
6.7840358
6.4725162
6.2836311
6.1017819
5.9093722
5.7301706
5.4966859
5.3073851
5.0932102
4.9752233
4.8495246
4.8490877
4.9757794
5.2065719
5.4936629
5.7530607
5.9853608
6.4240064
6.0326584
5.8093771
5.5715718
5.3060544
5.0916151
4.9742682
5.2052107
5.2052823
5.4928889
5.5720091
5.8110678
5.9605141
6.09962
6.3152331
6.4715573
6.6065055
6.7825352
6.5623322
6.2806498
6.158347
6.0327749
5.9847022
5.7534012
5.753412
5.4919797
5.5712027
5.3053754
5.4938965
5.7271145
5.9572543
6.1570635
6.5594973
6.279211
6.0960872
5.9053963
5.7269436
5.9582473
5.8094955
6.0320606
5.9841128
6.4262788
6.4265097
6.8089583
6.8470126
6.9973373
7.0499791
7.0784176
7.1461927
7.1539132
7.1614313
7.1559543
7.0727469
7.05469
6.9072346
6.8940274
6.8940031
6.9069256
7.0544644
7.0725921
7.1545437
7.1497806
7.1449804
7.1527606
7.1446962
7.0763113
7.0514325
6.9280292
6.9084616
6.9068119
6.9257112
7.0498183
7.0746751
7.1433606
7.1514181
7.1432003
7.126652
7.0456318
6.9903022
6.8375734
6.7978307
6.7996848
6.8401284
6.9929991
7.0476254
7.1285368
7.1417168
7.1545178
7.0702764
7.0515115
6.9002382
6.8863036
6.8843332
6.897825
7.0498632
7.068723
7.1530181
7.1590156
7.17915
7.1530411
7.1399451
7.0549348
7.0776082
7.0112574
6.8477897
6.8916444
6.8179896
6.4438325
6.5760554
6.7907155
6.9772014
7.0576538
7.0712959
7.0804788
7.0527219
7.0525275
6.9945231
6.8475575
6.934249
6.9160563
6.8095357
6.8109097
6.9166579
6.9353462
6.8490897
6.9966586
6.7795035
6.6034216
6.4675295
6.2778919
6.1570337
6.5603996
6.7800317
6.9635912
7.0496428
7.0774995
7.0537061
7.0536909
6.9082716
6.8949903
6.8943719
6.9074175
6.9021869
6.8576445
7.0151603
6.7936023
6.5893118
6.5007051
6.447227
6.4155141
6.4704827
6.3111886
6.4716895
6.415826
6.3261442
6.0554011
6.1383375
6.2500573
6.1516216
6.0584345
6.0483839
5.961842
5.9542015
6.0765697
5.8973591
6.078201
6.2534418
6.5828934
6.1398541
6.05014
6.0557144
5.9635417
6.0590943
6.1541269
5.9561488
5.7939574
6.0102518
6.4526902
6.8292505
6.8306625
6.9027593
6.8587236
7.0166909
7.0808225
7.0714886
7.0581362
6.9792199
6.7962171
6.5838187
6.4535217
5.9715531
5.9711941
5.8445546
5.8756149
5.7889055
5.7736362
5.7357971
5.7434062
5.4849334
5.5635698
5.7210948
5.7172783
5.8936694
5.7165458
5.7193359
5.4794901
5.4634437
5.2668554
5.5558801
5.7720603
5.8733502
6.0053341
5.9672365
5.8421324
5.7863517
5.7331089
5.7407361
5.7908221
5.5611273
5.4835643
5.4770543
5.1628829
5.1851463
5.2873059
5.070036
5.2887537
5.2672311
5.55733
5.4782423
5.1629318
5.1853192
4.9502548
4.9185493
5.0410154
4.91928
4.9496677
4.8210171
4.7861664
4.7486971
4.8855214
5.1372419
5.4736418
5.5530691
5.7171233
5.8977128
5.8860134
5.6955716
5.4271842
5.6972429
5.7176303
5.4455288
5.2433443
5.2188874
5.5333591
5.4483082
5.1098023
5.086129
5.4588911
5.7670802
6.5147959
6.648278
6.847661
7.0226458
7.0026524
6.8355592
6.6359186
6.51331
6.5154374
6.893969
6.8199053
6.8499255
7.0136577
7.079144
7.0563208
6.9791793
6.7943848
6.5795555
6.4448549
5.9677231
5.842312
5.7866444
5.8729123
6.0066607
5.7925516
5.7412837
5.7334454
5.7719918
5.9647774
6.060161
6.1533139
6.2541197
6.1406842
6.0503358
6.0566108
6.0800592
5.9565661
5.723193
5.5636565
5.4835682
5.4769848
5.5573464
5.2675928
5.1622124
5.1851967
5.2886967
5.4831546
5.466764
5.7186977
5.8963509
5.9002896
5.7260017
5.7213062
5.5609834
5.2699284
5.0423195
4.918801
4.9498045
5.0704853
4.9514554
4.8207637
4.7856232
4.9191646
5.1655575
5.1887423
5.2911026
5.5674971
5.4898878
5.4820771
5.7435479
5.7813437
5.970501
6.0622763
6.3314781
6.4206306
6.4752642
6.5938574
6.7966442
6.50458
6.4512134
6.4199797
6.4768626
6.3162639
6.0841675
6.2596711
6.5859999
6.1451371
6.0557386
6.0645901
6.1609442
5.962924
5.8010669
6.0179735
6.4564313
5.8821041
5.7956345
5.8494519
5.9780796
5.7508919
5.750887
5.488602
5.1888417
4.9506523
4.8199251
4.8194241
4.9488666
5.1854112
5.4840477
5.7441246
5.736578
5.8443695
5.7888831
5.8744404
6.0096291
5.7936012
5.7732003
5.9635237
6.0592451
6.1543758
5.9557613
6.0786175
6.2541622
6.1390038
6.0488341
6.0546451
5.8918862
5.7156722
5.5557553
5.4771976
5.1615984
5.2647108
5.2860642
5.5614584
5.7193137
5.4779685
5.4611749
5.7140045
5.7185124
5.895972
6.0792192
6.0957267
6.3101515
6.4683117
6.4750227
6.4182999
6.4483043
6.3278499
6.3136558
6.4743298
6.794436
6.5917552
6.5009611
6.4167645
6.1384908
6.0557506
6.048439
5.9622961
5.9560787
6.1544206
6.5804194
6.252913
6.0572045
5.8726614
5.7721465
5.5534038
5.2631664
5.0386409
4.9169642
4.7842734
4.9158753
4.9469549
5.0666479
5.2849331
5.18321
5.1584284
5.4735323
5.4808729
5.5599202
5.7923842
5.7429798
5.7340537
5.7854956
5.8398111
6.449262
6.0083496
5.9694103
5.9698758
5.7429769
5.4817479
5.1833473
4.9478308
4.9155074
4.7846425
4.9184677
5.0390422
5.06802
5.2903336
5.2676287
5.1642
5.48036
5.5591326
5.5659444
5.7238739
5.4801074
5.2868158
5.2638505
5.1584255
5.4732935
5.5534083
5.5605608
5.7213072
5.7155178
5.462396
5.7180759
5.893699
5.8988567
6.0832936
5.9620069
5.8004596
5.7795023
5.7419575
5.7935646
5.8482255
6.4561967
5.9774005
6.0159913
5.8791762
6.063291
5.9679028
6.0525962
6.0585313
6.1415083
6.5859603
6.1596059
6.2580475
6.4784551
6.3180376
6.0809172
5.9581219
5.7937203
5.772274
5.7338935
5.78533
5.839832
6.4493884
6.0089809
5.8715428
6.0590419
5.9640293
6.0490322
6.055918
6.1383242
6.581734
6.1552137
6.2549559
6.477716
6.7960214
6.420059
6.3315056
6.450334
6.420195
6.797616
6.5945852
6.5033843
6.9797856
7.004771
6.8409871
6.644063
6.5240794
6.5244258
6.644704
6.8409517
7.0043756
6.8386049
6.6392024
6.6505502
6.5159268
5.7672754
6.0478753
6.0532596
6.688714
6.9267818
7.1965985
7.215071
7.1941636
7.1834711
7.1502845
7.1586238
7.1555133
7.1908419
7.1851538
7.1841799
7.1863616
7.1806125
7.1920558
7.2053257
7.2137763
7.1739033
7.174444
7.1504479
7.1500304
7.1962192
7.2257595
7.2294091
7.2120488
7.2294292
7.1840148
7.1556365
7.1411708
7.1293208
7.1566877
7.1683453
7.1742963
7.2161938
7.2167196
7.1737835
7.1440665
7.1305926
7.1306495
7.1440379
7.1320797
7.1321736
7.1600641
7.1599861
7.2011668
7.195298
7.1948041
7.1993235
7.1593503
7.1316706
7.1451297
7.1512518
7.1556939
7.1413707
7.1297462
7.126158
7.1344345
7.1461197
7.157472
7.1546685
7.1329289
7.1330273
7.1550462
7.1581662
7.1471643
7.1348877
7.12434
7.1168531
7.1157361
7.1242027
7.1349143
7.1435643
7.1508961
7.1513636
7.1512652
7.1505702
7.1429603
7.1340462
7.1237026
7.1159707
7.1186536
7.131086
7.1296108
7.1423043
7.143352
7.1446069
7.1585111
7.1439468
7.1799441
7.1845547
7.193353
7.1926309
7.2292625
7.231774
7.2326611
7.232832
7.2318482
7.2288174
7.270862
7.3168045
7.3657453
7.3730954
7.3665841
7.3623558
7.3125427
7.3190497
7.3119075
7.3619446
7.3688111
7.3821889
7.3657809
7.3159573
7.3224152
7.313988
7.3640079
7.3663516
7.3164685
7.3173078
7.367085
7.3835022
7.3801891
7.3720642
7.3984855
7.3482353
7.3324172
7.284076
7.2991108
7.2510256
7.229229
7.2364413
7.2826098
7.2856914
7.2392625
7.2635199
7.2616769
7.311183
7.3143492
7.3660926
7.3338292
7.3305696
7.3615929
7.4129005
7.4186079
7.4374465
7.451125
7.4375232
7.4084274
7.3824895
7.3329097
7.3172385
7.2701923
7.225692
7.2380989
7.2848456
7.3003563
7.2773971
7.2333573
7.2527567
7.2635227
7.2410661
7.285587
7.2737881