/*--------------------------------*- C++ -*----------------------------------*\
  =========                 |
  \\      /  F ield         | OpenFOAM: The Open Source CFD Toolbox
   \\    /   O peration     | Website:  https://openfoam.org
    \\  /    A nd           | Version:  7
     \\/     M anipulation  |
\*---------------------------------------------------------------------------*/
FoamFile
{
    version     2.0;
    format      ascii;
    class       volScalarField;
    location    "250";
    object      T;
}
// * * * * * * * * * * * * * * * * * * * * * * * * * * * * * * * * * * * * * //

dimensions      [0 0 0 1 0 0 0];

internalField   nonuniform List<scalar> 
24866
(
299.99997
299.99996
299.99996
299.99998
300
300
300
300
300
300
300
300
300
300
300
300
300
300
300
300
300
300
300
300
300
300
300
300
300
300
300
300
300
300
300
300
300
300
300
300
300
300
300
300
300
300
300
300
300
300
300
300
300
300
300
300
300
300
300
300
300
300
300
300
300
300
300
300
300
300
300
300
300
300
300
300
300
300
300
300
300
300
300
300
300
300
300
300
300
300
300
300
300
300
300
300
300
300
300
300
300
300
300
300
300
300
300
300
300
300
300
300
300
300
300
300
300
300
300
300
300
300
300
300
300
300
300
300
300
300
300
300.00001
300.00001
300.00001
300.00001
300
300
300
300
300
300
300
300
300
300
300
299.99999
299.99998
299.99998
299.99998
299.99998
299.99999
299.99999
300
299.99999
299.99999
299.99999
299.99999
299.99999
299.99999
299.99998
299.99998
299.99998
299.99998
299.99998
299.99998
299.99998
299.99999
299.99998
299.99998
299.99998
299.99998
299.99998
299.99998
299.99998
299.99998
299.99999
299.99998
299.99999
299.99999
300
300
299.99999
299.99998
299.99999
299.99999
300
300
300
300
300
300
300
300
300
300
300
300.00001
300.00001
300.00001
300.00001
300.00001
300
300
300
300
300
300
299.99999
299.99999
299.99999
300
299.99999
299.99999
299.99997
299.99996
299.99996
299.99996
299.99996
299.99997
299.99997
299.99997
299.99997
299.99997
299.99997
299.99997
299.99996
299.99996
299.99997
299.99996
299.99996
299.99996
299.99996
299.99996
299.99996
299.99996
299.99996
299.99996
299.99996
299.99996
299.99996
299.99996
299.99996
299.99993
299.99993
299.99993
299.99993
299.99993
299.99996
299.99998
299.99999
299.99998
299.99998
299.99998
299.99998
299.99998
299.99998
299.99998
299.99998
299.99999
299.99998
299.99998
299.99998
299.99998
299.99999
299.99998
299.99999
300
300
299.99999
299.99999
299.99999
299.99999
299.99999
299.99999
299.99999
299.99999
299.99999
299.99998
299.99999
299.99999
299.99999
299.99999
300
300
300
300
300
300
300
300
300.00001
300
300.00001
300.00001
300
300
300
300
300
300
300
300
300
300
300
300
300
300
300
300
300
300
300
300
300
300
300
300
300
300
300
300
300
300
300
300
300
300
300
300
300
299.99999
299.99999
300
299.99999
299.99999
299.99998
299.99997
299.99996
299.99997
299.99996
299.99996
299.99998
299.99999
299.99999
299.99999
299.99999
299.99999
299.99999
299.99998
299.99999
299.99998
299.99997
299.99997
299.99997
299.99997
299.99997
299.99997
299.99994
299.99994
299.99993
299.99993
299.99993
299.99993
299.99994
299.99994
299.99993
299.99994
299.99994
299.99994
299.99994
299.99994
299.99994
299.99994
299.99993
299.99993
299.99993
299.99993
299.99993
299.99993
299.99993
299.99993
299.99993
299.99993
299.99993
299.99993
299.99993
299.99989
299.99989
299.99989
299.99989
299.99989
299.99989
299.99989
299.99993
299.99996
299.99996
299.99996
299.99996
299.99996
299.99996
299.99996
299.99996
299.99996
299.99996
299.99996
299.99996
299.99996
299.99993
299.99993
299.99994
299.99994
299.99994
299.99994
299.99994
299.99994
299.99994
299.99993
299.9999
299.9999
299.9999
299.99989
299.99989
299.99989
299.99989
299.9999
299.9999
299.9999
299.9999
299.9999
299.9999
299.9999
299.9999
299.9999
299.9999
299.99989
299.99989
299.99989
299.99989
299.99989
299.99989
299.99989
299.9999
299.9999
299.9999
299.9999
299.99989
299.99984
299.99984
299.99984
299.99983
299.99983
299.99983
299.99983
299.99984
299.99984
299.99984
299.99989
299.99993
299.99993
299.99993
299.99993
299.99993
299.99993
299.99993
299.99993
299.99993
299.99993
299.99989
299.99989
299.99989
299.9999
299.9999
299.9999
299.9999
299.9999
299.9999
299.9999
299.99986
299.99985
299.99985
299.99985
299.99984
299.99984
299.99984
299.99984
299.99985
299.99985
299.99985
299.99985
299.99986
299.99986
299.99985
299.99985
299.99985
299.99985
299.99984
299.99984
299.99984
299.99983
299.99984
299.99984
299.99984
299.99985
299.99985
299.99985
299.99985
299.99978
299.99977
299.99977
299.99977
299.99976
299.99976
299.99976
299.99976
299.99977
299.99977
299.99977
299.99978
299.99985
299.9999
299.9999
299.9999
299.9999
299.99989
299.99989
299.99989
299.99989
299.99984
299.99984
299.99984
299.99984
299.99985
299.99985
299.99985
299.99986
299.99986
299.99986
299.99979
299.99979
299.99978
299.99978
299.99978
299.99977
299.99977
299.99977
299.99977
299.99978
299.99978
299.99978
299.99979
299.99979
299.99979
299.99979
299.99978
299.99977
299.99978
299.99976
299.99976
299.99976
299.99976
299.99977
299.99977
299.99977
299.99978
299.99978
299.99978
299.99969
299.99968
299.99967
299.99967
299.99967
299.99965
299.99965
299.99965
299.99965
299.99967
299.99967
299.99967
299.99968
299.99969
299.99978
299.99985
299.99985
299.99985
299.99984
299.99984
299.99984
299.99977
299.99976
299.99976
299.99976
299.99976
299.99978
299.99978
299.99978
299.99979
299.99979
299.9997
299.9997
299.9997
299.99968
299.99968
299.99968
299.99967
299.99967
299.99967
299.99967
299.99968
299.99968
299.99968
299.99969
299.9997
299.9997
299.99969
299.99968
299.99968
299.99968
299.99966
299.99966
299.99966
299.99966
299.99967
299.99967
299.99967
299.99968
299.99969
299.99957
299.99957
299.99956
299.99954
299.99954
299.99954
299.99952
299.99952
299.99952
299.99952
299.99954
299.99954
299.99954
299.99956
299.99957
299.99957
299.99969
299.99978
299.99978
299.99977
299.99977
299.99967
299.99967
299.99966
299.99966
299.99966
299.99966
299.99968
299.99968
299.99968
299.9997
299.99957
299.99958
299.99958
299.99957
299.99956
299.99955
299.99955
299.99954
299.99954
299.99953
299.99954
299.99955
299.99955
299.99955
299.99957
299.99958
299.99958
299.99957
299.99955
299.99955
299.99955
299.99953
299.99953
299.99953
299.99953
299.99954
299.99954
299.99954
299.99956
299.9994
299.99941
299.99941
299.9994
299.99938
299.99938
299.99938
299.99936
299.99936
299.99936
299.99936
299.99938
299.99938
299.99938
299.9994
299.99941
299.99941
299.9994
299.99956
299.99968
299.99967
299.99955
299.99954
299.99955
299.99953
299.99953
299.99953
299.99953
299.99955
299.99955
299.99956
299.9994
299.99942
299.99943
299.99943
299.99942
299.9994
299.99939
299.99939
299.99938
299.99938
299.99938
299.99938
299.99939
299.99939
299.9994
299.99941
299.99942
299.99942
299.99941
299.99939
299.99939
299.99939
299.99937
299.99937
299.99937
299.99937
299.99938
299.99938
299.99939
299.99921
299.99922
299.99923
299.99922
299.99922
299.9992
299.9992
299.99919
299.99919
299.99918
299.99918
299.99919
299.99919
299.9992
299.9992
299.99922
299.99923
299.99923
299.99922
299.99921
299.99939
299.99938
299.99938
299.99937
299.99937
299.99937
299.99938
299.99939
299.99939
299.99921
299.99922
299.99924
299.99924
299.99924
299.99924
299.99922
299.99922
299.99921
299.99921
299.9992
299.9992
299.99921
299.99921
299.99921
299.99922
299.99923
299.99924
299.99924
299.99923
299.99922
299.99921
299.99921
299.9992
299.99919
299.99919
299.99919
299.9992
299.9992
299.99903
299.99904
299.99904
299.99904
299.99904
299.99904
299.99904
299.99903
299.99903
299.99903
299.99903
299.99903
299.99903
299.99903
299.99903
299.99904
299.99904
299.99904
299.99904
299.99904
299.99905
299.99904
299.9992
299.9992
299.9992
299.9992
299.9992
299.9992
299.99921
299.99905
299.99905
299.99906
299.99906
299.99906
299.99906
299.99906
299.99906
299.99905
299.99905
299.99906
299.99905
299.99905
299.99906
299.99905
299.99905
299.99906
299.99905
299.99905
299.99905
299.99905
299.99905
299.99904
299.99904
299.99905
299.99904
299.99904
299.99904
299.99903
299.99894
299.99895
299.99895
299.99893
299.99892
299.99892
299.99893
299.99895
299.99894
299.99893
299.99896
299.99895
299.99895
299.99896
299.99893
299.99894
299.99895
299.99893
299.99892
299.99893
299.99894
299.99896
299.99895
299.99895
299.99904
299.99905
299.99904
299.99905
299.99905
299.99898
299.99896
299.99896
299.99897
299.99896
299.99895
299.99895
299.99896
299.99897
299.99896
299.99896
299.99898
299.99898
299.99897
299.99898
299.99895
299.99896
299.99897
299.99895
299.99894
299.99894
299.99895
299.99896
299.99895
299.99895
299.99897
299.99896
299.99896
299.99897
299.99904
299.999
299.99901
299.99902
299.99899
299.99897
299.99897
299.99898
299.99901
299.999
299.99899
299.99903
299.99902
299.99902
299.99903
299.99899
299.999
299.99901
299.99898
299.99897
299.99897
299.99899
299.99902
299.99901
299.99901
299.99905
299.99898
299.99897
299.99897
299.99904
299.99905
299.99902
299.99903
299.99904
299.99901
299.999
299.999
299.99901
299.99904
299.99903
299.99902
299.99906
299.99905
299.99905
299.99905
299.99901
299.99902
299.99903
299.999
299.99898
299.99898
299.999
299.99903
299.99902
299.99901
299.99904
299.99903
299.99903
299.99927
299.99928
299.99924
299.99924
299.99925
299.99922
299.9992
299.9992
299.99921
299.99924
299.99924
299.99923
299.99927
299.99926
299.99926
299.99927
299.99923
299.99924
299.99924
299.99922
299.9992
299.9992
299.99922
299.99925
299.99925
299.99925
299.99929
299.99928
299.99904
299.9989
299.99875
299.9989
299.99878
299.99864
299.99885
299.99875
299.99869
299.99869
299.99875
299.99885
299.99906
299.99927
299.99927
299.99926
299.9993
299.99929
299.99929
299.99929
299.99925
299.99926
299.99926
299.99923
299.99922
299.99921
299.99923
299.99926
299.99925
299.99924
299.99928
299.99927
299.99965
299.99965
299.99965
299.99961
299.99962
299.99962
299.99959
299.99958
299.99958
299.99959
299.99962
299.99962
299.99961
299.99964
299.99964
299.99964
299.99964
299.99961
299.99962
299.99962
299.99959
299.99958
299.99958
299.9996
299.99963
299.99963
299.99963
299.99967
299.99966
299.99966
299.99929
299.99929
299.99926
299.99927
299.99927
299.99925
299.99923
299.99923
299.99925
299.99962
299.99965
299.99965
299.99964
299.99967
299.99967
299.99967
299.99967
299.99963
299.99964
299.99964
299.99961
299.99959
299.99959
299.99961
299.99963
299.99963
299.99962
299.99966
300.00013
300.00013
300.00012
300.00012
300.00009
300.0001
300.00009
300.00007
300.00005
300.00005
300.00006
300.00009
300.00009
300.00008
300.00012
300.00012
300.00012
300.00012
300.00009
300.00009
300.00009
300.00007
300.00005
300.00006
300.00007
300.0001
300.00011
300.0001
300.00014
300.00014
300.00014
300.00014
299.99967
299.99964
299.99965
299.99965
299.99962
299.99961
299.99961
300.00008
300.00009
300.00012
300.00012
300.00011
300.00014
300.00014
300.00014
300.00014
300.00011
300.00011
300.00011
300.00008
300.00007
300.00006
300.00008
300.0001
300.0001
300.0001
300.00064
300.00067
300.00067
300.00067
300.00067
300.00064
300.00065
300.00064
300.00062
300.0006
300.0006
300.00061
300.00064
300.00064
300.00064
300.00066
300.00066
300.00066
300.00066
300.00064
300.00064
300.00064
300.00062
300.00061
300.00061
300.00062
300.00065
300.00066
300.00065
300.00068
300.00068
300.00068
300.00068
300.00066
300.00011
300.00012
300.00012
300.0001
300.00008
300.00063
300.00063
300.00064
300.00066
300.00066
300.00066
300.00068
300.00068
300.00068
300.00068
300.00065
300.00066
300.00065
300.00063
300.00062
300.00061
300.00063
300.00065
300.00065
300.00124
300.00123
300.00125
300.00125
300.00125
300.00124
300.00123
300.00124
300.00123
300.00121
300.00121
300.00121
300.00121
300.00122
300.00123
300.00123
300.00124
300.00125
300.00125
300.00124
300.00123
300.00124
300.00123
300.00122
300.00121
300.00121
300.00122
300.00123
300.00124
300.00124
300.00125
300.00126
300.00126
300.00125
300.00124
300.00124
300.00066
300.00066
300.00064
300.00123
300.00122
300.00122
300.00123
300.00124
300.00124
300.00124
300.00125
300.00126
300.00126
300.00125
300.00124
300.00124
300.00123
300.00122
300.00122
300.00122
300.00122
300.00123
300.0018
300.00181
300.0018
300.00181
300.00181
300.00181
300.00181
300.0018
300.00181
300.00179
300.00179
300.00179
300.00179
300.00179
300.00179
300.00181
300.0018
300.00181
300.00181
300.00181
300.00181
300.0018
300.00181
300.00179
300.00179
300.00179
300.00179
300.00179
300.00179
300.00181
300.0018
300.00181
300.00181
300.00181
300.0018
300.0018
300.0018
300.00179
300.00124
300.00112
300.00106
300.00102
300.00102
300.00105
300.00112
300.00173
300.00179
300.0018
300.0018
300.0018
300.00181
300.00181
300.00181
300.0018
300.00181
300.0018
300.00179
300.00179
300.00179
300.00179
300.0023
300.0023
300.00231
300.00231
300.00231
300.00232
300.00232
300.00231
300.00231
300.00231
300.0023
300.0023
300.00231
300.00231
300.0023
300.0023
300.00232
300.00231
300.00231
300.00232
300.00232
300.00231
300.00231
300.00231
300.0023
300.0023
300.0023
300.0023
300.0023
300.0023
300.00231
300.00231
300.0023
300.00231
300.00231
300.0023
300.0023
300.0023
300.00229
300.00229
300.00179
300.00179
300.00179
300.00179
300.00229
300.00229
300.0023
300.0023
300.0023
300.00231
300.00231
300.0023
300.00231
300.00231
300.0023
300.0023
300.0023
300.0023
300.00275
300.00275
300.00274
300.00276
300.00276
300.00275
300.00276
300.00276
300.00275
300.00276
300.00276
300.00274
300.00275
300.00275
300.00275
300.00275
300.00275
300.00276
300.00276
300.00275
300.00276
300.00276
300.00275
300.00276
300.00276
300.00274
300.00274
300.00275
300.00274
300.00274
300.00273
300.00275
300.00274
300.00274
300.00275
300.00274
300.00274
300.00274
300.00274
300.00273
300.00273
300.00273
300.00229
300.00229
300.00273
300.00273
300.00273
300.00274
300.00274
300.00274
300.00275
300.00275
300.00274
300.00275
300.00275
300.00274
300.00274
300.00275
300.00313
300.00313
300.00313
300.00312
300.00314
300.00314
300.00313
300.00314
300.00314
300.00313
300.00314
300.00314
300.00313
300.00313
300.00314
300.00314
300.00313
300.00313
300.00314
300.00314
300.00313
300.00314
300.00314
300.00313
300.00314
300.00314
300.00312
300.00313
300.00313
300.00313
300.00312
300.00311
300.00313
300.00312
300.00312
300.00312
300.00312
300.00311
300.00312
300.00312
300.00311
300.00311
300.00311
300.00311
300.00311
300.00311
300.00312
300.00312
300.00312
300.00312
300.00313
300.00312
300.00313
300.00313
300.00312
300.00312
300.00344
300.00345
300.00345
300.00345
300.00344
300.00346
300.00346
300.00345
300.00346
300.00346
300.00346
300.00346
300.00346
300.00345
300.00345
300.00346
300.00346
300.00346
300.00345
300.00346
300.00346
300.00345
300.00346
300.00346
300.00345
300.00346
300.00346
300.00345
300.00345
300.00345
300.00345
300.00344
300.00344
300.00345
300.00345
300.00344
300.00344
300.00344
300.00344
300.00344
300.00344
300.00343
300.00343
300.00343
300.00343
300.00343
300.00343
300.00344
300.00344
300.00344
300.00344
300.00345
300.00344
300.00345
300.00345
300.00344
300.0037
300.0037
300.00371
300.00371
300.00371
300.00371
300.00372
300.00372
300.00372
300.00372
300.00372
300.00372
300.00373
300.00373
300.00372
300.00372
300.00372
300.00372
300.00372
300.00372
300.00372
300.00373
300.00372
300.00372
300.00372
300.00372
300.00372
300.00372
300.00371
300.00371
300.00372
300.00371
300.00371
300.0037
300.00371
300.00371
300.0037
300.00371
300.00371
300.0037
300.00371
300.00371
300.0037
300.0037
300.0037
300.0037
300.0037
300.0037
300.00371
300.00371
300.00371
300.00371
300.00371
300.00371
300.00371
300.00371
300.00392
300.00391
300.00391
300.00392
300.00392
300.00391
300.00391
300.00393
300.00393
300.00393
300.00394
300.00394
300.00394
300.00394
300.00394
300.00393
300.00393
300.00394
300.00394
300.00393
300.00393
300.00394
300.00394
300.00393
300.00393
300.00393
300.00393
300.00393
300.00393
300.00392
300.00393
300.00393
300.00393
300.00392
300.00392
300.00393
300.00393
300.00392
300.00392
300.00392
300.00392
300.00392
300.00392
300.00392
300.00392
300.00392
300.00392
300.00392
300.00392
300.00393
300.00393
300.00393
300.00393
300.00393
300.00392
300.00393
300.00409
300.00408
300.00406
300.00407
300.00407
300.00408
300.00407
300.00407
300.00408
300.00409
300.00409
300.00409
300.0041
300.0041
300.0041
300.0041
300.00409
300.0041
300.0041
300.0041
300.00409
300.00409
300.0041
300.0041
300.00409
300.00409
300.00409
300.00409
300.0041
300.00409
300.00408
300.00409
300.00409
300.00409
300.00409
300.00408
300.00409
300.00409
300.00409
300.00409
300.00409
300.00409
300.00409
300.00409
300.00408
300.00409
300.00409
300.00409
300.00409
300.00409
300.00409
300.0041
300.00409
300.00409
300.00409
300.00409
300.0042
300.0042
300.00418
300.00417
300.00417
300.00418
300.00418
300.00417
300.00417
300.00418
300.0042
300.0042
300.00421
300.00421
300.00421
300.00421
300.00421
300.00421
300.00421
300.00421
300.00421
300.00421
300.0042
300.00421
300.00421
300.0042
300.0042
300.0042
300.0042
300.00421
300.00421
300.0042
300.0042
300.0042
300.0042
300.0042
300.0042
300.00421
300.00421
300.0042
300.0042
300.0042
300.0042
300.00421
300.00421
300.0042
300.00421
300.00421
300.00421
300.00421
300.00421
300.00422
300.00421
300.00421
300.00421
300.00421
300.00428
300.00426
300.00425
300.00427
300.00424
300.00425
300.00426
300.00426
300.00425
300.00424
300.00426
300.00425
300.00425
300.00427
300.00427
300.00425
300.00426
300.00428
300.00426
300.00426
300.00427
300.00427
300.00426
300.00425
300.00427
300.00426
300.00424
300.00426
300.00426
300.00424
300.00426
300.00427
300.00425
300.00426
300.00427
300.00427
300.00426
300.00425
300.00428
300.00426
300.00425
300.00428
300.00428
300.00426
300.00426
300.00426
300.00425
300.00427
300.00427
300.00428
300.00427
300.00427
300.00428
300.00427
300.00426
300.00429
300.00428
300.00428
300.00428
300.00431
300.00432
300.00434
300.00435
300.00435
300.00433
300.00431
300.00431
300.00427
300.00427
300.00427
300.00427
300.0043
300.00428
300.00428
300.00431
300.00432
300.00431
300.00431
300.00428
300.00428
300.00429
300.00426
300.00426
300.00426
300.00426
300.00429
300.00427
300.00428
300.0043
300.00431
300.00431
300.00431
300.00428
300.00428
300.00431
300.00428
300.00427
300.00428
300.00428
300.00432
300.0043
300.00429
300.00432
300.00433
300.00433
300.00433
300.0043
300.00431
300.00432
300.00428
300.00434
300.00434
300.00445
300.00469
300.00508
300.00557
300.00594
300.00588
300.00547
300.00502
300.00467
300.00444
300.00433
300.00433
300.00444
300.00468
300.00523
300.00625
300.00755
300.00861
300.00867
300.00767
300.00631
300.00524
300.00467
300.00444
300.00434
300.00434
300.0043
300.00429
300.00429
300.00432
300.00425
300.00432
300.0043
300.00438
300.00432
300.00425
300.00432
300.00429
300.0043
300.00431
300.0043
300.00438
300.00445
300.00455
300.00474
300.00488
300.00483
300.00465
300.00452
300.00444
300.00433
300.00434
300.0043
300.00429
300.00429
300.00425
300.0043
300.00432
300.00432
300.00437
300.00446
300.00433
300.00423
300.0043
300.00429
300.00433
300.00429
300.00428
300.00429
300.00429
300.00434
300.00439
300.00428
300.00433
300.00437
300.00435
300.00441
300.00449
300.0045
300.00446
300.00437
300.00438
300.00433
300.00433
300.00436
300.00428
300.00435
300.00431
300.00431
300.00438
300.00431
300.00427
300.00438
300.0043
300.00425
300.00431
300.00425
300.00412
300.00395
300.00397
300.00395
300.00412
300.00417
300.00427
300.00415
300.00397
300.004
300.00396
300.00414
300.00417
300.00398
300.004
300.0042
300.00435
300.00443
300.00481
300.00466
300.00448
300.00499
300.00459
300.00447
300.00481
300.00537
300.00454
300.00467
300.00588
300.00606
300.00558
300.00861
300.00656
300.00518
300.00459
300.00436
300.00429
300.00447
300.0048
300.00436
300.00424
300.00433
300.00429
300.00431
300.00433
300.00433
300.00431
300.00429
300.00433
300.00436
300.00439
300.00439
300.00436
300.00428
300.00432
300.00466
300.00453
300.00459
300.00461
300.0054
300.00746
300.01197
300.01324
300.01382
300.01382
300.01328
300.01205
300.01069
300.00916
300.00789
300.0079
300.00921
300.01078
300.01218
300.01343
300.01401
300.01401
300.01345
300.01221
300.01083
300.00927
300.00797
300.00796
300.0064
300.00511
300.00455
300.00436
300.00435
300.00445
300.00449
300.00449
300.00445
300.00436
300.00436
300.00454
300.00507
300.00629
300.0078
300.0078
300.00907
300.0106
300.012
300.01328
300.01385
300.01388
300.01334
300.01211
300.01072
300.00915
300.00785
300.00784
300.0091
300.01061
300.01326
300.01577
300.01709
300.01587
300.01259
300.00975
300.0098
300.0127
300.01598
300.01712
300.01575
300.01324
300.01063
300.00766
300.00557
300.00474
300.0049
300.006
300.00873
300.01331
300.01203
300.01495
300.01712
300.01608
300.01322
300.00907
300.0052
300.00056
299.9974
299.99527
299.99523
299.9973
300.00038
300.00499
300.00884
300.01303
300.01594
300.00888
300.00295
299.99629
299.98986
299.98478
299.98196
299.98201
299.98491
299.99008
299.99656
300.00326
300.00916
300.00539
300.01301
300.01694
300.0163
300.0168
300.0139
300.01392
300.00876
300.00601
300.00491
300.00475
300.00562
300.00776
300.01217
300.01338
300.01637
300.01681
300.01687
300.01687
300.01028
299.99777
300.00086
299.99027
299.99667
299.98744
299.9787
299.97166
299.96771
299.96766
299.9715
299.97844
299.9871
299.99627
300.00502
300.01274
300.0004
299.9898
299.97838
299.96741
299.95854
299.95358
299.95364
299.95871
299.96769
299.97877
299.97175
299.98515
299.98225
299.99566
299.99562
300.01025
299.99765
299.98496
299.98217
299.9677
299.96778
299.95363
299.95873
299.94803
299.94193
299.94187
299.94785
299.95842
299.97131
299.98462
299.99725
300.00991
299.99513
299.9817
299.96734
299.95331
299.94171
299.93502
299.93508
299.94189
299.94177
299.95351
299.95843
299.97151
299.97845
299.99003
300.00071
300.01299
300.01699
300.01724
300.0151
300.01344
300.01081
300.00926
300.01139
300.01387
300.01593
300.01729
300.01616
300.00912
300.00527
299.99646
299.98715
299.97835
299.96731
299.95828
299.9477
299.94157
299.93494
299.93489
299.94158
299.9532
299.96727
299.98165
299.99511
300.00991
299.9972
299.98449
299.97112
299.95815
299.94753
299.94152
299.95314
299.95318
299.96731
299.97126
299.98469
299.98988
299.9964
300.00316
300.0091
300.01327
300.01615
300.01293
300.0052
300.00056
299.99741
299.9953
299.98179
299.98177
299.96728
299.97116
299.95814
299.96707
299.97813
299.98965
300.00034
300.01278
300.00501
299.99617
299.98691
299.97817
299.98975
299.98462
299.99737
299.99529
300.01011
300.01012
300.01689
300.01701
300.01726
300.01594
300.01346
300.0114
300.00958
300.00929
300.01136
300.01387
300.01566
300.01731
300.01766
300.01762
300.01723
300.01547
300.01359
300.01111
300.00909
300.0112
300.00938
300.01118
300.01321
300.01491
300.0162
300.01665
300.01665
300.01623
300.01498
300.01331
300.01126
300.00944
300.01124
300.01372
300.01578
300.01705
300.01671
300.01654
300.01656
300.01674
300.01704
300.01573
300.01366
300.01339
300.01107
300.01351
300.01536
300.01703
300.01738
300.0174
300.01706
300.01543
300.01362
300.01114
300.00906
300.00979
300.01112
300.01343
300.016
300.01523
300.0176
300.01745
300.01784
300.01745
300.01199
300.01451
300.01733
300.018
300.01598
300.01356
300.01519
300.0154
300.01495
300.01709
300.01685
300.01626
300.01674
300.01675
300.01677
300.01675
300.01631
300.01692
300.01721
300.01608
300.01317
300.00898
300.0051
300.00048
300.0129
300.01612
300.01727
300.0159
300.01336
300.01504
300.01553
300.01716
300.01751
300.01748
300.0171
300.01793
300.01757
300.01764
300.0174
300.01404
300.01556
300.01409
300.01139
300.01007
300.00412
300.01011
300.01143
300.00568
299.9988
300.00764
300.00619
300.0018
300.00289
300.004
299.99259
299.99093
299.99734
299.98813
299.99733
300.00624
300.01466
300.00768
300.004
299.99879
299.99251
300.0029
300.00183
299.99086
299.98557
299.9986
300.01216
300.01762
300.01765
300.018
300.01763
300.01776
300.01538
300.01372
300.01615
300.0182
300.01751
300.01469
300.01216
299.99651
299.99654
299.99762
299.99977
299.99576
299.98703
299.98427
299.98266
299.96783
299.97193
299.97913
299.98032
299.98992
299.9804
299.97921
299.96775
299.96846
299.95903
299.97344
299.98721
299.99981
299.99862
299.99663
299.99775
299.99588
299.98456
299.98294
299.98574
299.97213
299.96816
299.96925
299.95366
299.95341
299.95858
299.94744
299.95845
299.95888
299.97323
299.96889
299.95333
299.95311
299.94099
299.94064
299.94739
299.94083
299.94116
299.93407
299.93336
299.933
299.9409
299.9543
299.97015
299.9745
299.98157
299.99129
299.99337
299.98326
299.97101
299.98317
299.98149
299.96959
299.95988
299.96091
299.97623
299.97158
299.95507
299.95592
299.97361
299.99958
300.01674
300.01886
300.02062
300.01967
300.01853
300.01868
300.01636
300.01408
300.01413
300.01782
300.01747
300.01746
300.01759
300.01515
300.01595
300.01801
300.01741
300.0146
300.01204
299.99667
299.99779
299.99596
299.99992
299.99873
299.98587
299.98299
299.98461
299.98734
299.99277
300.00304
300.00196
300.00638
300.00781
300.00418
299.99903
299.99758
299.99113
299.97944
299.97228
299.96822
299.9693
299.97359
299.9592
299.95371
299.95346
299.95875
299.96802
299.96871
299.98063
299.99019
299.98842
299.97947
299.98063
299.97358
299.95916
299.94757
299.94089
299.94122
299.94761
299.94117
299.93413
299.93342
299.94082
299.95361
299.9534
299.95874
299.9723
299.96821
299.96924
299.98466
299.98742
299.99285
299.99908
300.00591
300.01157
300.01026
300.0142
300.01749
300.0157
300.01425
300.01163
300.01035
300.00438
299.99766
300.00654
300.01481
300.00794
300.00427
300.00322
300.0022
299.99126
299.98601
299.999
300.01235
300.00012
299.99608
299.99798
299.99695
299.98311
299.98303
299.96811
299.95328
299.94102
299.93397
299.93391
299.94085
299.953
299.96774
299.98261
299.98422
299.99759
299.99569
299.99968
299.99853
299.98543
299.98689
299.9923
300.00279
300.00174
299.99067
299.99717
300.00619
300.0076
300.00386
299.9986
299.98962
299.98
299.973
299.96881
299.95322
299.95857
299.95815
299.97171
299.97884
299.96737
299.96803
299.97998
299.97884
299.98787
299.9972
299.99622
300.00296
300.00894
300.01013
300.01142
300.01412
300.00558
300.00405
300.01015
300.01752
300.01414
300.01564
300.01142
300.00762
299.9986
300.00383
299.9923
299.99071
300.00181
300.01472
300.00623
300.00281
299.99968
299.98686
299.97294
299.95851
299.947
299.94049
299.9332
299.94039
299.94077
299.94707
299.95812
299.95289
299.95307
299.96868
299.96767
299.9717
299.98546
299.98261
299.98415
299.99559
299.99758
300.01219
299.99859
299.99656
299.99657
299.98263
299.9677
299.95293
299.94082
299.94044
299.93325
299.94066
299.94715
299.94722
299.9584
299.95879
299.95348
299.96914
299.97328
299.97204
299.97911
299.96757
299.95824
299.95862
299.9531
299.9687
299.97301
299.97178
299.979
299.9801
299.9682
299.98022
299.98977
299.98806
299.99738
299.99097
299.9858
299.9872
299.98458
299.99595
299.99793
300.01232
299.9969
299.99886
299.99996
300.00302
299.99254
300.00402
299.99877
300.00775
300.01478
300.00201
300.00638
300.01025
300.00419
299.99733
299.99081
299.98551
299.9869
299.98417
299.99562
299.99758
300.0122
299.99862
299.99971
300.00286
299.99238
300.00389
299.99871
300.00768
300.01474
300.00186
300.00631
300.01023
300.01754
300.01148
300.00569
300.01417
300.01151
300.01755
300.01421
300.01569
300.01822
300.01876
300.0189
300.01659
300.01436
300.01438
300.01661
300.01882
300.01854
300.01874
300.01644
300.01894
300.01678
299.99966
300.00784
300.0115
300.02078
300.01973
300.00989
300.00586
300.00466
300.00434
300.00441
300.00477
300.00461
300.00453
300.0043
300.00427
300.00437
300.0043
300.00447
300.0048
300.00533
300.00551
300.00602
300.01014
300.01019
300.00993
300.00819
300.00618
300.00493
300.00617
300.00653
300.00625
300.00501
300.00452
300.00445
300.00496
300.00549
300.00536
300.00588
300.00593
300.00569
300.00837
300.00839
300.0057
300.00468
300.00468
300.0047
300.0047
300.00466
300.00432
300.00428
300.00454
300.00461
300.00462
300.00542
300.00751
300.0063
300.00503
300.00452
300.00444
300.00468
300.00527
300.00637
300.00777
300.00882
300.00882
300.00779
300.00641
300.0053
300.0047
300.00444
300.00432
300.00432
300.00445
300.0047
300.00511
300.00563
300.00605
300.00604
300.00563
300.00511
300.0047
300.00445
300.00433
300.00433
300.00428
300.00429
300.0043
300.00432
300.00431
300.00425
300.00429
300.00425
300.0043
300.00438
300.00424
300.00413
300.00417
300.0042
300.0042
300.00416
300.00413
300.00395
300.00373
300.00346
300.00343
300.00345
300.00345
300.00372
300.00372
300.00372
300.00345
300.00343
300.0034
300.00344
300.00373
300.00373
300.00373
300.00345
300.00346
300.00374
300.00376
300.00347
300.00345
300.00343
300.00342
300.00343
300.00383
300.00373
300.00403
300.00421
300.00454
300.00421
300.00434
300.00408
300.00416
300.00445
300.00553
300.00505
300.00462
300.00504
300.00447
300.00382
300.00377
300.00409
300.00358
300.00383
300.00603
300.00477
300.00376
300.00341
300.0034
300.00374
300.00373
300.00397
300.00415
300.00427
300.00403
300.00421
300.004
300.00421
300.00455
300.00507
300.00434
300.00408
300.00398
300.00401
300.00377
300.00375
300.00347
300.00348
300.00348
300.00344
300.00378
300.00374
300.00384
300.00343
300.0036
300.00412
300.00465
300.00512
300.00418
300.00447
300.00559
300.00966
300.00773
300.00572
300.00462
300.00425
300.00512
300.0057
300.00914
300.0099
300.01589
300.01975
300.02072
300.02177
300.02
300.01594
300.00818
300.0085
300.01006
300.00997
300.01997
300.02089
300.02185
300.02071
300.01876
300.01652
300.01903
300.00768
300.01686
300.01958
300.02257
300.02398
300.02136
300.0241
300.02388
300.01531
300.01135
300.00331
300.01915
300.01693
300.01427
300.01428
300.01693
299.99938
299.99946
299.97799
299.98538
299.99554
300.00766
300.01132
300.01527
300.02367
300.02206
300.01895
300.00341
300.00757
299.98528
299.99321
300.00363
300.0014
299.9994
299.99731
299.98698
299.98546
299.9725
299.9741
299.98689
299.97939
299.96303
299.96182
299.96075
299.97602
299.97429
299.95973
299.95396
299.96977
299.9712
299.95471
299.95554
299.97322
299.97428
299.95644
299.94084
299.94919
299.96319
299.97961
299.9782
299.96199
299.94863
299.94819
299.94777
299.94069
299.94072
299.93257
299.94095
299.94099
299.9411
299.95683
299.97468
299.97667
299.98155
299.98914
299.9909
299.97741
299.99081
299.98906