/*--------------------------------*- C++ -*----------------------------------*\
  =========                 |
  \\      /  F ield         | OpenFOAM: The Open Source CFD Toolbox
   \\    /   O peration     | Website:  https://openfoam.org
    \\  /    A nd           | Version:  7
     \\/     M anipulation  |
\*---------------------------------------------------------------------------*/
FoamFile
{
    version     2.0;
    format      ascii;
    class       volVectorField;
    location    "250";
    object      U;
}
// * * * * * * * * * * * * * * * * * * * * * * * * * * * * * * * * * * * * * //

dimensions      [0 1 -1 0 0 0 0];

internalField   nonuniform List<vector> 
24866
(
(120.00024 -0.00060417319 -0.00073141731)
(120.00036 -0.00038171122 -0.00055278082)
(120.00034 -0.00044291197 -0.00046009937)
(120.00013 -0.00023548165 -0.00023638624)
(120.00003 -6.570297e-05 -6.9328064e-05)
(120.00003 -6.0745936e-05 -8.3295898e-05)
(120.00002 -4.8439631e-05 -9.4856781e-05)
(120.00003 -4.8157814e-05 -8.8760949e-05)
(120.00003 -2.9210444e-05 -9.5666075e-05)
(120.00003 -2.0241873e-05 -0.0001082847)
(120.00003 -6.4660507e-06 -0.00010700905)
(120.00003 5.8141034e-06 -0.00010695152)
(120.00003 1.9791689e-05 -0.0001081027)
(120.00003 2.9148438e-05 -9.5401798e-05)
(120.00003 4.8476499e-05 -8.8754438e-05)
(120.00002 4.9166822e-05 -9.3589042e-05)
(120.00003 6.2980496e-05 -8.2410532e-05)
(120.00003 6.7763422e-05 -6.6908814e-05)
(120.00003 7.3200533e-05 -6.5117345e-05)
(120.00003 9.109115e-05 -5.5931884e-05)
(120.00003 0.00010987214 -5.3056703e-05)
(120.00004 0.00012303738 -3.9688655e-05)
(120.00003 0.0001100965 -2.6222829e-05)
(120.00004 9.6875058e-05 -4.2178612e-05)
(120.00003 0.00012258796 -1.1649328e-05)
(120.00003 0.00013247794 2.0035322e-06)
(120.00003 0.00011438502 1.632943e-05)
(120.00005 8.9502488e-05 4.5870786e-05)
(120.00005 0.00010415656 2.8024368e-05)
(120.00003 0.00010564041 5.481278e-05)
(120.00003 8.4802115e-05 5.526399e-05)
(120.00003 7.0359582e-05 6.6156217e-05)
(120.00003 6.761414e-05 6.9217117e-05)
(120.00003 5.6807547e-05 8.3714602e-05)
(120.00003 5.6425978e-05 0.00010436269)
(120.00005 2.9321518e-05 0.00010305653)
(120.00005 4.7369649e-05 8.88228e-05)
(120.00003 1.7890554e-05 0.00011352778)
(120.00003 3.5169909e-06 0.00013182189)
(120.00003 -1.0005464e-05 0.0001219959)
(120.00004 -4.0905278e-05 9.6487781e-05)
(120.00003 -2.5509982e-05 0.00010972724)
(120.00004 -3.9014191e-05 0.00012250637)
(120.00003 -5.2496822e-05 0.00010933273)
(120.00003 -5.5550092e-05 9.0440024e-05)
(120.00003 -6.493736e-05 7.2719501e-05)
(120.00002 -6.6629167e-05 6.7004331e-05)
(120.00003 -8.2332804e-05 6.2284948e-05)
(120.00002 -9.3373018e-05 4.8296396e-05)
(120.00002 -8.8785732e-05 4.7771813e-05)
(120.00003 -9.5018119e-05 2.8275763e-05)
(120.00003 -0.00010788566 1.8795508e-05)
(120.00003 -0.00010668815 4.9048868e-06)
(120.00003 -0.00010656813 -7.477675e-06)
(120.00003 -0.00010748966 -2.1360891e-05)
(120.00003 -9.5208439e-05 -3.0415906e-05)
(120.00003 -8.8060304e-05 -4.9331277e-05)
(120.00002 -9.4035904e-05 -4.9714289e-05)
(120.00003 -8.216242e-05 -6.185375e-05)
(120.00003 -6.8536065e-05 -6.7086654e-05)
(120.00003 -0.00012236544 -9.6017547e-05)
(120.00001 -0.00012381865 -0.00012490148)
(120.00003 -9.4960674e-05 -0.00012346172)
(120.00003 -9.8632437e-05 -0.00011748034)
(120.00001 -0.00010223373 -0.00015815917)
(120.00002 -7.5269894e-05 -0.00017562567)
(120.00002 -6.3998248e-05 -0.00015966081)
(120.00002 -5.4495718e-05 -0.00014415784)
(120.00001 -4.098645e-05 -0.00018215594)
(120.00001 -1.431282e-05 -0.0001927935)
(120.00001 1.3629724e-05 -0.00019276351)
(120.00001 4.0567823e-05 -0.00018205124)
(120.00002 5.4439949e-05 -0.00014393405)
(120.00002 6.4114424e-05 -0.00015946028)
(120.00002 7.5660897e-05 -0.00017520602)
(120.00001 0.00010365022 -0.0001573313)
(120.00003 0.00010086831 -0.00011667997)
(120.00003 9.6831725e-05 -0.00012142348)
(120.00001 0.00012722072 -0.00012293658)
(120.00003 0.00012734394 -9.6365258e-05)
(120.00003 0.0001255009 -0.00010059544)
(120.00001 0.00017529549 -0.00010711179)
(120.00002 0.00020507839 -8.7905071e-05)
(120.00002 0.00021173846 -6.4951181e-05)
(120.00002 0.00020959052 -1.3253756e-05)
(120.00001 0.00019017426 -2.7482053e-05)
(120.00002 0.00018909877 -1.2890469e-05)
(120 0.00019601892 1.002198e-05)
(120.00002 0.0001738439 3.1925035e-05)
(120.00001 0.0001748895 4.8512132e-05)
(120.00002 0.00019315152 4.4251603e-05)
(120.00001 0.00022020974 1.5406369e-05)
(120.00001 0.00025306276 2.3899899e-05)
(120.00001 0.00025301644 -3.137564e-05)
(120.00001 0.00023646333 -8.423406e-05)
(120.00001 0.00021272107 -0.00012155894)
(120.00001 0.00017034579 -0.00013166664)
(120.00001 0.00017666312 -0.00017432472)
(120.00001 0.00013369489 -0.00016501249)
(120.00001 0.00011851791 -0.00021101087)
(120.00001 0.00015216883 -0.00021249458)
(120 0.00018650774 -0.00018691855)
(120.00001 0.00021482808 -0.00015297163)
(120.00001 0.00024312914 -0.00010695996)
(120.00001 0.00025885134 -4.0615262e-05)
(120 0.00025845475 3.3467257e-05)
(120.00001 0.00024158068 0.0001015691)
(120.00001 0.00023738092 7.6225206e-05)
(120.00001 0.00020725491 0.00011688862)
(120.00002 0.00018463795 7.9561741e-05)
(120.00001 0.0001681154 0.00010433345)
(120.00003 0.00011820586 9.6783782e-05)
(120.00003 0.0001233641 9.5316032e-05)
(120.00001 0.00012406084 0.0001227359)
(120.00001 0.00016685757 0.00013001059)
(120.00001 0.00017497362 0.0001734933)
(120.00001 0.00021256241 0.00014942791)
(120 0.00018550834 0.00018392976)
(120 0.00021249306 0.00012527214)
(119.99999 0.00022779784 4.2431403e-05)
(119.99999 0.00022823927 -4.9115922e-05)
(120 0.0002130034 -0.0001301388)
(119.99998 0.00014674969 -0.00014877141)
(119.99999 0.00012807277 -0.00021359557)
(120.00001 0.00010488206 -0.00024348137)
(120.00001 7.999996e-05 -0.00024265757)
(120.00001 5.7063778e-05 -0.00021065488)
(120.00002 2.2359671e-05 -0.00023035501)
(120.00001 2.8545108e-05 -0.00026075418)
(120 3.7062659e-05 -0.0002607245)
(119.99999 4.5537473e-05 -0.00022897162)
(119.99997 5.2224078e-05 -0.00015960792)
(119.99996 5.60597e-05 -5.9580777e-05)
(119.99997 0.00015750188 -5.5677071e-05)
(119.99997 0.00015714427 4.9671501e-05)
(119.99998 0.00014599938 0.0001443446)
(120 0.00012687994 0.00021088194)
(120.00001 0.00010311601 0.00024008276)
(120.00001 0.00015097407 0.00021106871)
(120.00001 0.00011838345 0.00020589678)
(120.00001 0.00013149931 0.00016543386)
(120.00001 0.00010592361 0.00016691419)
(120.00003 9.8277505e-05 0.00011709586)
(120.00003 9.6461954e-05 0.00012201047)
(120.00003 0.00018499312 0.00025148999)
(120.00003 0.00020727788 0.00023616111)
(120.00006 0.00029235806 0.00035389387)
(120.00014 0.00018886593 0.00028579997)
(120.00012 0.00023715635 0.0002345523)
(120.00012 0.00023821411 0.00023307732)
(120.00014 0.00028899772 0.00018414328)
(120.00012 0.0003239941 0.0001466555)
(120.00012 0.00038100897 0.00016020724)
(120.00004 0.0002247057 6.9543006e-05)
(120.00005 0.00019213046 8.8957508e-05)
(120.00012 0.00039311216 0.00011914849)
(120.00012 0.00038364346 7.3970702e-05)
(120.00011 0.0003937917 8.6134501e-06)
(120.00012 0.00040924487 -5.4717696e-05)
(120.00011 0.0004321556 -0.00011458964)
(120.00015 0.0005197118 -0.00012716547)
(120.00014 0.00043884652 -0.00018954222)
(120.00012 0.00033969863 -0.00014254488)
(120.00014 0.00030296904 -0.00018664768)
(120.00012 0.00024805714 -0.00023252812)
(120.00012 0.00024362462 -0.00022992966)
(120.00014 0.00020619123 -0.00027758121)
(120.00011 0.00015766726 -0.00028984049)
(120.00013 0.00016890548 -0.00031033942)
(120.00013 9.190524e-05 -0.00033926329)
(120.00013 6.7547576e-05 -0.00035034956)
(120.00013 2.0259931e-05 -0.00036861488)
(120.00013 -2.2100671e-05 -0.00036876542)
(120.00013 -6.8720505e-05 -0.00035066482)
(120.00013 -9.2075695e-05 -0.00034009201)
(120.00013 -0.00016806522 -0.00031107466)
(120.00011 -0.00015498743 -0.00029213385)
(120.00014 -0.00020008528 -0.0002809678)
(120.00007 -0.00029598525 -0.00035332377)
(120.00007 -0.00027110419 -0.00033413853)
(120.00003 -0.00018366586 -0.00025562381)
(120.00003 -0.00020813042 -0.00023761885)
(120.00006 -0.00035613336 -0.00038121752)
(120.00013 -0.0003493819 -0.00041966997)
(120.00007 -0.00029513347 -0.00038914298)
(120.00005 -0.00035751563 -0.00036052775)
(120.00001 -0.00051451652 -0.00042066823)
(120.00001 -0.00016502341 -0.00013308807)
(120.00001 -0.00017342195 -0.00017472887)
(120.00001 -0.00013180029 -0.00016619482)
(120.00001 -0.00011783086 -0.00021158935)
(120.00001 -8.0007025e-05 -0.00024290072)
(120.00001 -5.7264271e-05 -0.00021083925)
(120.00002 -2.2950447e-05 -0.00023037551)
(120.00001 -2.9030423e-05 -0.00026081145)
(120 -3.748919e-05 -0.00026075412)
(119.99999 -4.608393e-05 -0.00022891384)
(119.99997 -5.3145863e-05 -0.00015943692)
(119.99996 -5.7542518e-05 -5.9315353e-05)
(119.99996 -5.7921203e-05 5.4244765e-05)
(119.99996 5.5692932e-05 5.3965989e-05)
(119.99997 5.1302146e-05 0.00015542395)
(119.99999 4.399129e-05 0.00022615737)
(120 3.4962e-05 0.00025695836)
(120.00001 2.5314251e-05 0.0002517527)
(120.00001 7.7727435e-05 0.0002360509)
(120.00002 4.5735527e-05 0.00019194134)
(120.00002 8.1073359e-05 0.00018348324)
(120.00005 0.00022616584 0.00053107828)
(120.00011 0.00018107269 0.00051338913)
(120.00005 0.00010089874 0.0003302146)
(120.00004 7.2402962e-05 0.00022268432)
(120.00012 0.0001648795 0.00037789605)
(120.00011 0.00015103496 0.00032054624)
(120.00029 0.00031487437 0.00063545174)
(120.00034 0.00037366074 0.00055970344)
(120.00032 0.00044686791 0.000457088)
(120.00032 0.00046340184 0.0004393263)
(120.00034 0.00056591755 0.00036571311)
(120.00029 0.00064157871 0.00030727117)
(120.0003 0.00066032289 0.00030073748)
(120.0003 0.00071811542 0.00020017552)
(120.0003 0.00072192114 0.0001349747)
(120.00029 0.00075638165 2.4021398e-05)
(120.0003 0.00075908701 -8.5950522e-05)
(120.00028 0.00077594199 -0.00018849689)
(120.00031 0.00083534457 -0.00022922944)
(120.00031 0.00072959963 -0.00034019836)
(120.0003 0.00067174486 -0.00031010444)
(120.00035 0.00058674228 -0.00036501224)
(120.00033 0.00047686133 -0.00043791827)
(120.00033 0.00045694307 -0.00045302846)
(120.00036 0.0003913823 -0.0005478412)
(120.00031 0.00032456602 -0.00060349467)
(120.00034 0.00030526765 -0.00060099255)
(120.00035 0.00018515467 -0.00066823063)
(120.00033 0.00013473549 -0.00070814847)
(120.00034 3.7509857e-05 -0.00074857203)
(120.00034 -4.0562907e-05 -0.00074861784)
(120.00033 -0.00013699606 -0.00070842236)
(120.00035 -0.00018580038 -0.0006690496)
(120.00034 -0.00030370566 -0.00060235188)
(120.00032 -0.00032033907 -0.00060648277)
(120.00064 -0.00058335171 -0.0010852118)
(120.0007 -0.00069475427 -0.0010142955)
(120.00067 -0.00081666573 -0.0008455885)
(120.00067 -0.00083788148 -0.0008259467)
(120.0007 -0.0010062351 -0.0007040152)
(120.00036 -0.00054763496 -0.00038804813)
(120.00014 -0.0002781793 -0.00020382204)
(120.00011 -0.00028925036 -0.00015840073)
(120.00013 -0.00030884504 -0.00017150844)
(120.00013 -0.00033852312 -9.5764786e-05)
(120.00013 -0.00034872177 -7.2124526e-05)
(120.00013 -0.00036736514 -2.5347175e-05)
(120.00013 -0.00036754599 1.7221457e-05)
(120.00013 -0.00034935696 6.4514563e-05)
(120.00013 -0.00033834742 8.9149843e-05)
(120.00013 -0.00030967825 0.00016618489)
(120.00011 -0.00028921753 0.00015514105)
(120.00014 -0.00027679772 0.00020378847)
(120.00012 -0.0002291192 0.00024132793)
(120.00012 -0.00023151124 0.00024620247)
(120.00014 -0.00018540106 0.00030096348)
(120.00012 -0.00014109982 0.00033793754)
(120.00014 -0.00018700063 0.00043667345)
(120.00006 -7.5602005e-05 0.00025727013)
(120.00002 -6.1853453e-05 0.00026418862)
(120.00004 -7.0285478e-05 0.00022559407)
(120.00011 -0.00011142844 0.00042995657)
(120.00012 -5.1260965e-05 0.00040660475)
(120.00011 1.2786243e-05 0.0003916255)
(120.00012 7.8305916e-05 0.00038162335)
(120.00012 0.00012371887 0.00039057285)
(120.00005 9.1899637e-05 0.00019060284)
(120.00004 0.00010480316 0.00030119546)
(120.00009 0.00014954917 0.00047672269)
(120.00011 0.00020577604 0.00049233802)
(120.00014 0.00019620571 0.000581697)
(120.0001 0.00013895375 0.00051724285)
(120.0001 0.00010750967 0.00054963795)
(120.00009 8.7584645e-05 0.00060700406)
(120.00003 4.9012391e-05 0.00041494807)
(120.00001 5.0040344e-05 0.00017373107)
(120.00002 3.3769883e-05 0.00017266894)
(120 1.1418178e-05 0.00019505459)
(120.00001 1.6786536e-05 0.00021908206)
(120.00002 -1.2117864e-05 0.00020868548)
(120.00001 -3.008932e-05 0.00025176142)
(120.00001 -3.9238775e-05 0.00025738587)
(119.99999 -4.7663016e-05 0.00022658693)
(119.99997 -5.4134313e-05 0.00015572946)
(119.99998 -0.00014736586 0.00014496762)
(119.99997 -0.00015808382 5.0373915e-05)
(119.99997 -0.00015779218 -5.4976598e-05)
(119.99998 -0.00014665366 -0.00014837023)
(119.99999 -0.00012774972 -0.00021351182)
(120.00001 -0.00010466195 -0.0002436484)
(120.00001 -0.000151017 -0.00021293357)
(120 -0.00018526364 -0.00018679206)
(119.99999 -0.00021197578 -0.0001294564)
(119.99999 -0.00022745558 -4.7881705e-05)
(119.99999 -0.00022763281 4.3737835e-05)
(119.99999 -0.00021237048 0.00012635947)
(120 -0.00018579512 0.00018494504)
(120 -0.00012883884 0.00021136762)
(120.00001 -0.00010573261 0.00024169071)
(120.00001 -8.3075132e-05 0.00023526379)
(120.00002 -6.3825242e-05 0.00021073883)
(120.00002 -8.6950889e-05 0.00020402787)
(120.00001 -0.00012057451 0.00021155885)
(120.00001 -0.00015192097 0.00021345088)
(120.00001 -0.00017346477 0.00017539116)
(120.00001 -0.00021155743 0.000150732)
(120.00001 -0.00024243595 0.00010332483)
(120 -0.00025957977 3.541662e-05)
(120 -0.0002594981 -3.9145183e-05)
(120.00001 -0.00024232656 -0.00010623985)
(120.00001 -0.00021159227 -0.00015248368)
(120.00001 -0.00021046514 -0.00011919859)
(120.00001 -0.00024178456 -8.142704e-05)
(120.00001 -0.00025973892 -3.0473563e-05)
(120.00001 -0.00025977668 2.7121433e-05)
(120.00001 -0.0002417748 7.8648056e-05)
(120.00001 -0.00021023166 0.00011723787)
(120.00001 -0.00016436064 0.00013256185)
(120.00001 -0.00012238338 0.00012631031)
(120.00001 -0.00013092836 0.0001692968)
(120.00001 -0.00010633992 0.00017431323)
(120.00003 -0.00010003109 0.00012465779)
(120.00003 -9.5912585e-05 0.00012653123)
(120.00003 -0.00018235177 0.00025910873)
(120.00006 -0.00026794028 0.00033940177)
(120.00007 -0.00029539117 0.00037314103)
(120.00003 -0.00020943612 0.000249271)
(120.00006 -0.0003574843 0.00040208171)
(120.00006 -0.00029368163 0.00039185237)
(120.00012 -0.0003496097 0.00043395639)
(120.00022 -0.00060003059 0.00075069028)
(120.00035 -0.00036282174 0.00058318283)
(120.0003 -0.00030731524 0.00066833067)
(120.00031 -0.00033605627 0.00072611102)
(120.00031 -0.00022479819 0.00083184491)
(120.00015 -0.00012435061 0.00051725936)
(120.00008 -0.00021728352 0.00062882339)
(120.00014 -0.00016417504 0.00056199758)
(120.00013 -0.0001319365 0.00057737501)
(120.00005 -7.3969496e-05 0.00041038196)
(120.00003 -7.2643266e-05 0.0003765389)
(120.0001 -8.7335628e-05 0.00058390874)
(120.00015 -0.00014458323 0.00064637765)
(120.00008 -0.00011330373 0.00053859914)
(120.00019 -0.00023673204 0.0010631421)
(120.00027 -0.00018321251 0.0007723824)
(120.00029 -7.9924816e-05 0.00075542603)
(120.00029 3.0979137e-05 0.00075282535)
(120.0003 0.00014225784 0.00071784863)
(120.0003 0.00020765739 0.00071303041)
(120.0003 0.00030867778 0.00065527435)
(120.00059 0.00054717328 0.0011119432)
(120.00059 0.0005790699 0.0011099224)
(120.00066 0.00069179492 0.0010188484)
(120.00064 0.00082168777 0.00083880633)
(120.00064 0.00084850401 0.00081003147)
(120.00066 0.0010289237 0.00068006959)
(120.00059 0.0011192797 0.00056761102)
(120.00059 0.0011195066 0.00053523059)
(120.00062 0.0012631035 0.0003399498)
(120.0006 0.0012745757 0.00023149693)
(120.00059 0.0013208573 5.3523195e-05)
(120.00058 0.0013231707 -0.00011832427)
(120.00057 0.0013209372 -0.00029594474)
(120.00061 0.0013473725 -0.00038203021)
(120.00059 0.001171458 -0.0005682872)
(120.00059 0.0011461804 -0.0005801603)
(120.00068 0.0010507435 -0.00068697753)
(120.00065 0.00086302365 -0.00081318745)
(120.00066 0.00083403726 -0.00083905875)
(120.00069 0.00070611504 -0.0010082349)
(120.00063 0.0005876096 -0.0010818423)
(120.00065 0.00054808373 -0.0010687031)
(120.00067 0.00033679979 -0.0012126423)
(120.00064 0.0002398523 -0.0012471665)
(120.00063 7.2107819e-05 -0.001290154)
(120.00063 -7.7493463e-05 -0.0012907433)
(120.00064 -0.00024405796 -0.0012480006)
(120.00068 -0.0003386733 -0.0012132863)
(120.00065 -0.00054711154 -0.0010703666)
(120.00106 -0.00088395516 -0.0017277824)
(120.00103 -0.00095136297 -0.0017358878)
(120.00114 -0.0011414 -0.0016483583)
(120.0011 -0.0013356372 -0.001385448)
(120.0011 -0.0013748207 -0.0013481801)
(120.00114 -0.0016372073 -0.0011538814)
(120.00103 -0.0017257893 -0.00096377553)
(120.00063 -0.0010777984 -0.00059247316)
(120.00032 -0.00060154492 -0.00032642828)
(120.00034 -0.00059858695 -0.00030999386)
(120.00035 -0.00066560655 -0.00019201063)
(120.00033 -0.00070535352 -0.0001430567)
(120.00034 -0.00074604059 -4.6581986e-05)
(120.00034 -0.00074610242 3.1745528e-05)
(120.00033 -0.0007059446 0.00012931993)
(120.00035 -0.00066644204 0.00018018472)
(120.00034 -0.0005995625 0.0003002552)
(120.00031 -0.00060222998 0.00032008728)
(120.00035 -0.00054644056 0.00038710879)
(120.00033 -0.00045151647 0.0004529239)
(120.00032 -0.00043617284 0.00047345841)
(120.00065 -0.0008100222 0.00085725861)
(120.00067 -0.0006832555 0.0010447672)
(120.00059 -0.0005755232 0.0011405626)
(120.00059 -0.00056208042 0.0011661125)
(120.00061 -0.00037528151 0.0013418425)
(120.00057 -0.00028786217 0.0013151872)
(120.00058 -0.00010914218 0.0013173066)
(120.00059 6.3736961e-05 0.0013148779)
(120.00059 0.00024234922 0.0012680298)
(120.00062 0.00035140159 0.0012551027)
(120.00101 0.00056292966 0.001997762)
(120.00098 0.00087924097 0.0017588782)
(120.00096 0.00094767476 0.0017546971)
(120.00108 0.0011405981 0.001649262)
(120.00104 0.0013412814 0.0013735991)
(120.00104 0.001387311 0.0013250766)
(120.00108 0.0016636886 0.0011245313)
(120.00097 0.0017678031 0.00093188718)
(120.00099 0.0017696377 0.00086275329)
(120.00102 0.002009256 0.00054708085)
(120.00097 0.0020266696 0.00037743114)
(120.00095 0.0020850595 9.7910177e-05)
(120.00094 0.0020877711 -0.00016629211)
(120.00095 0.0020615502 -0.0004463891)
(120.00101 0.0020682868 -0.00059758117)
(120.00098 0.0018071931 -0.00090132054)
(120.00097 0.0017889229 -0.00095834683)
(120.00109 0.001681018 -0.0011424602)
(120.00107 0.0013996262 -0.0013370528)
(120.00108 0.0013530738 -0.0013802552)
(120.00112 0.0011519622 -0.0016428191)
(120.00102 0.00095385631 -0.0017329549)
(120.00105 0.00088269529 -0.0017264126)
(120.00108 0.00055721878 -0.0019645631)
(120.00102 0.00039465662 -0.0019933571)
(120.00101 0.00012190587 -0.002047523)
(120.00101 -0.00013073712 -0.0020478052)
(120.00103 -0.00040189156 -0.0019938022)
(120.00109 -0.0005617361 -0.0019645697)
(120.00165 -0.00087410824 -0.0029856854)
(120.00162 -0.0013407197 -0.0026320579)
(120.00157 -0.0014571646 -0.0026224668)
(120.00172 -0.0017544288 -0.0025040228)
(120.00168 -0.0020396347 -0.0021242359)
(120.00168 -0.002110395 -0.0020556484)
(120.00172 -0.0024895856 -0.0017704151)
(120.00157 -0.0026094051 -0.0014731793)
(120.00161 -0.0026209585 -0.0013576558)
(120.00165 -0.0029744738 -0.00089130328)
(120.00109 -0.0019561152 -0.00057490295)
(120.00067 -0.0012074781 -0.00034819042)
(120.00064 -0.0012426879 -0.00025321619)
(120.00062 -0.0012859866 -8.6410458e-05)
(120.00062 -0.0012866866 6.3469776e-05)
(120.00063 -0.0012440607 0.00023145059)
(120.00067 -0.0012096813 0.00032880165)
(120.00064 -0.0010661726 0.00053998195)
(120.00062 -0.0010794226 0.00058040425)
(120.00068 -0.0010056829 0.00069919473)
(120.00065 -0.00083629868 0.00082734636)
(120.00107 -0.0013759364 0.0013431331)
(120.00106 -0.0013321223 0.0013909329)
(120.00108 -0.0011368488 0.0016720879)
(120.00096 -0.00095154644 0.0017806232)
(120.00097 -0.00089264303 0.001799417)
(120.00099 -0.0005881762 0.0020601578)
(120.00094 -0.0004351977 0.0020531581)
(120.00093 -0.00015363157 0.0020791973)
(120.00094 0.00011190075 0.0020762069)
(120.00096 0.00039235548 0.0020171045)
(120.00146 0.00060637507 0.003033145)
(120.00155 0.00086656196 0.0030070291)
(120.00151 0.0013330903 0.0026514798)
(120.00148 0.0014536266 0.0026317715)
(120.00164 0.0017548349 0.0024983524)
(120.0016 0.0020461606 0.0021057323)
(120.0016 0.0021242026 0.0020247131)
(120.00164 0.0025177547 0.0017336563)
(120.00149 0.0026493017 0.0014328004)
(120.00152 0.0026661211 0.0013113842)
(120.00156 0.0030225893 0.00084568727)
(120.00147 0.0030462875 0.00058677903)
(120.00145 0.0031223612 0.00016164079)
(120.00144 0.0031251778 -0.00023745107)
(120.00146 0.0030717925 -0.00066212119)
(120.00155 0.0030621086 -0.0009065727)
(120.00153 0.0026918129 -0.0013616115)
(120.0015 0.002663738 -0.0014728685)
(120.00167 0.002529135 -0.0017636301)
(120.00163 0.0021322802 -0.0020478301)
(120.00164 0.0020541678 -0.0021209546)
(120.0017 0.0017618825 -0.0025003942)
(120.00155 0.0014561519 -0.0026209131)
(120.0016 0.0013354346 -0.0026317546)
(120.00164 0.00086514631 -0.0029868949)
(120.00155 0.00061029659 -0.0030158352)
(120.00152 0.0001897627 -0.00308905)
(120.00153 -0.0002035359 -0.0030890752)
(120.00156 -0.00062229961 -0.0030157311)
(120.0023 -0.00092401179 -0.0043985298)
(120.00243 -0.0013001743 -0.0043591875)
(120.00239 -0.001956007 -0.0038542299)
(120.00233 -0.0021402766 -0.0038145345)
(120.00254 -0.0025774171 -0.0036470653)
(120.00248 -0.0029815899 -0.0031158441)
(120.00248 -0.0030985853 -0.0030013009)
(120.00254 -0.003629116 -0.0025971453)
(120.00233 -0.0037982123 -0.0021601321)
(120.00239 -0.0038401261 -0.0019771612)
(120.00243 -0.0043448113 -0.0013218002)
(120.0023 -0.004386351 -0.00094569571)
(120.00155 -0.0030062955 -0.00063935111)
(120.00102 -0.0019865983 -0.00041478154)
(120.001 -0.0020413204 -0.00014327463)
(120.001 -0.0020419722 0.00010964121)
(120.00102 -0.0019883168 0.00038243651)
(120.00107 -0.0019600925 0.00054556948)
(120.00104 -0.0017226339 0.0008709302)
(120.00101 -0.0017291206 0.00094334622)
(120.00111 -0.0016388114 0.0011417435)
(120.00168 -0.0024946277 0.0017476838)
(120.00163 -0.002114778 0.0020403278)
(120.00162 -0.0020408667 0.0021200328)
(120.00165 -0.0017558336 0.0025166483)
(120.00148 -0.0014636114 0.0026521636)
(120.00151 -0.0013500839 0.0026809855)
(120.00153 -0.00089409547 0.0030507691)
(120.00144 -0.00064739442 0.0030601708)
(120.00142 -0.0002208523 0.0031133025)
(120.00143 0.00017998345 0.0031100891)
(120.00213 0.00027420261 0.0045109382)
(120.00218 0.00090175551 0.0044055726)
(120.00231 0.0012859629 0.0043674731)
(120.00227 0.0019456404 0.0038618754)
(120.00221 0.0021361748 0.003812743)
(120.00243 0.0025787123 0.0036323905)
(120.00237 0.0029891648 0.003089224)
(120.00237 0.003113256 0.0029616008)
(120.00243 0.0036575623 0.0025515222)
(120.00222 0.0038354849 0.0021094783)
(120.00228 0.0038811207 0.0019179011)
(120.00232 0.0043878239 0.0012592886)
(120.0022 0.0044229533 0.0008767946)
(120.00215 0.0045272855 0.0002508858)
(120.00215 0.004529732 -0.00033858184)
(120.00219 0.0044407058 -0.00096286984)
(120.00232 0.0044120979 -0.0013336909)
(120.00229 0.003896788 -0.0019824768)
(120.00225 0.0038426555 -0.0021635269)
(120.00247 0.0036618948 -0.0025948677)
(120.00242 0.0031158087 -0.0029978122)
(120.00243 0.0029910656 -0.0031150723)
(120.00251 0.0025798803 -0.0036464799)
(120.00231 0.0021340907 -0.0038153157)
(120.00237 0.0019448561 -0.0038557783)
(120.00242 0.0012847908 -0.0043621203)
(120.00229 0.00090525622 -0.0043994168)
(120.00225 0.00028279677 -0.004502053)
(120.00225 -0.00030352909 -0.0045017741)
(120.00325 -0.00043797706 -0.0063619415)
(120.00332 -0.0013259574 -0.0062142651)
(120.00349 -0.0018640929 -0.006158689)
(120.00345 -0.0027594727 -0.0054595874)
(120.00337 -0.0030350134 -0.0053682959)
(120.00364 -0.0036516525 -0.0051338508)
(120.00356 -0.0042066268 -0.004409486)
(120.00356 -0.0043886217 -0.0042302384)
(120.00364 -0.0051121228 -0.0036753063)
(120.00337 -0.0053484126 -0.0030589058)
(120.00344 -0.0054421618 -0.0027851453)
(120.00349 -0.0061405999 -0.0018904829)
(120.00331 -0.0061987135 -0.0013526578)
(120.00323 -0.006347449 -0.00046545336)
(120.00224 -0.0044905331 -0.0003255423)
(120.00152 -0.0030804463 -0.00022054764)
(120.00152 -0.0030812227 0.00017296266)
(120.00154 -0.0030085575 0.00059356068)
(120.00163 -0.0029804947 0.00084906337)
(120.00159 -0.0026262279 0.0013193216)
(120.00154 -0.0026153706 0.0014416283)
(120.00229 -0.0038077585 0.0021147177)
(120.00248 -0.0036386925 0.002560886)
(120.00241 -0.003106745 0.0029724878)
(120.0024 -0.0029885677 0.0030992565)
(120.00245 -0.0025846093 0.0036450848)
(120.00222 -0.0021515277 0.0038270708)
(120.00227 -0.0019677314 0.0038822003)
(120.0023 -0.0013177276 0.0043968402)
(120.00217 -0.00094412022 0.004425159)
(120.00212 -0.00031750149 0.0045138758)
(120.00309 -0.00044950333 0.0063608034)
(120.0031 0.00040117572 0.006358555)
(120.00317 0.0012964766 0.0062099668)
(120.00334 0.0018437814 0.0061545185)
(120.0033 0.0027459199 0.0054560688)
(120.00322 0.0030296401 0.0053554737)
(120.0035 0.0036534326 0.0051091699)
(120.00343 0.0042153387 0.0043736988)
(120.00343 0.0044042356 0.0041805679)
(120.00351 0.0051410974 0.0036191541)
(120.00323 0.0053843523 0.0029960653)
(120.00331 0.0054807286 0.0027111252)
(120.00336 0.0061805147 0.0018103616)
(120.00319 0.0062323637 0.0012653152)
(120.00312 0.0063797483 0.00037214497)
(120.00312 0.0063814527 -0.00047570674)
(120.00319 0.0062434868 -0.0013662418)
(120.00337 0.0061924236 -0.001901252)
(120.00333 0.0054872897 -0.0027924752)
(120.00327 0.0053836091 -0.0030657541)
(120.00356 0.0051372297 -0.0036776863)
(120.00349 0.0044000978 -0.0042317637)
(120.00351 0.0042095209 -0.0044121369)
(120.0036 0.0036475972 -0.0051374663)
(120.00333 0.0030220497 -0.0053724183)
(120.00342 0.0027405913 -0.0054638274)
(120.00348 0.0018401853 -0.0061639669)
(120.00331 0.0012981983 -0.0062162325)
(120.00324 0.00040794275 -0.0063626136)
(120.00455 0.00057071443 -0.0087258008)
(120.00455 -0.00061271244 -0.008724654)
(120.00465 -0.0018427739 -0.0085126623)
(120.00487 -0.0025850184 -0.0084327503)
(120.00481 -0.0037640762 -0.0074948017)
(120.00472 -0.0041625622 -0.0073146145)
(120.00504 -0.0050028415 -0.0069952151)
(120.00495 -0.0057378514 -0.0060371918)
(120.00495 -0.0060125496 -0.0057655328)
(120.00504 -0.0069694186 -0.0050305848)
(120.00472 -0.007290803 -0.0041906219)
(120.00481 -0.0074736699 -0.0037944885)
(120.00486 -0.0084103132 -0.0026164898)
(120.00464 -0.0084929701 -0.0018748742)
(120.00454 -0.0087060803 -0.00064621881)
(120.00453 -0.0087080266 0.00053619625)
(120.00323 -0.0063488741 0.00038007773)
(120.00224 -0.0044915631 0.00026078677)
(120.00228 -0.0043895333 0.00088326153)
(120.0024 -0.0043534516 0.0012634822)
(120.00235 -0.0038480863 0.001923461)
(120.0034 -0.0054535009 0.0027127643)
(120.00331 -0.0053625098 0.0029968098)
(120.00357 -0.0051273802 0.0036227725)
(120.00347 -0.0044013928 0.0041851382)
(120.00346 -0.0042200042 0.0043783006)
(120.00352 -0.0036647055 0.0051151242)
(120.00324 -0.0030507148 0.0053630872)
(120.0033 -0.0027741206 0.0054681017)
(120.00334 -0.0018813549 0.0061723859)
(120.00316 -0.0013429134 0.0062231983)
(120.00446 -0.001857916 0.008504966)
(120.00437 -0.00062213612 0.0087103886)
(120.00438 0.00056656782 0.0087091349)
(120.00447 0.001805067 0.0084974837)
(120.00469 0.002558511 0.0084173435)
(120.00463 0.003747126 0.0074809884)
(120.00455 0.0041557124 0.0072914352)
(120.00488 0.0050051465 0.0069604286)
(120.00479 0.0057482098 0.0059916418)
(120.00479 0.006029821 0.0057049358)
(120.00489 0.0070003356 0.0049624669)
(120.00456 0.0073275678 0.0041139939)
(120.00466 0.0075120009 0.003703972)
(120.00472 0.0084499856 0.0025171284)
(120.0045 0.0085257636 0.0017666375)
(120.00441 0.0087360583 0.00053090542)
(120.00441 0.0087367502 -0.00065423694)
(120.00451 0.0085309579 -0.001886439)
(120.00473 0.0084512108 -0.0026277013)
(120.00469 0.0075100334 -0.0038048553)
(120.00461 0.0073182275 -0.0042015081)
(120.00495 0.0069871065 -0.0050381676)
(120.00487 0.0060177505 -0.0057729033)
(120.00489 0.0057332675 -0.0060445352)
(120.00499 0.0049910832 -0.0070043155)
(120.00468 0.0041412581 -0.0073233052)
(120.00478 0.0037355758 -0.0075027397)
(120.00485 0.0025503577 -0.0084412164)
(120.00463 0.0018035315 -0.0085162104)
(120.00628 0.0024135413 -0.011258229)
(120.00618 0.00076963798 -0.011549704)
(120.00619 -0.00082631707 -0.011547787)
(120.0063 -0.0024667719 -0.011252303)
(120.00654 -0.0034561501 -0.011145807)
(120.00648 -0.0049352943 -0.0099393837)
(120.00638 -0.0055016262 -0.0096095329)
(120.00671 -0.0066094283 -0.0091933497)
(120.00662 -0.0075403457 -0.0079785586)
(120.00662 -0.007949871 -0.0075723033)
(120.00671 -0.0091631153 -0.0066414119)
(120.00638 -0.0095813802 -0.0055339835)
(120.00647 -0.0099140159 -0.0049706603)
(120.00653 -0.011118268 -0.0034930272)
(120.00628 -0.011227592 -0.002504722)
(120.00617 -0.011524041 -0.00086663534)
(120.00616 -0.011526788 0.00072732772)
(120.00625 -0.011236962 0.0023696038)
(120.00461 -0.008499628 0.0017682496)
(120.00329 -0.0062033347 0.0012700934)
(120.00345 -0.0061526522 0.0018127001)
(120.00482 -0.0084266776 0.0025155065)
(120.00475 -0.007489233 0.0036999055)
(120.00464 -0.0073106457 0.0041088423)
(120.00495 -0.0069916182 0.0049591286)
(120.00485 -0.0060310859 0.0057017625)
(120.00483 -0.0057583898 0.0059895187)
(120.0049 -0.0050222079 0.0069584877)
(120.00456 -0.0041831619 0.0072916764)
(120.00464 -0.0037825061 0.0074852354)
(120.00469 -0.002603413 0.0084253856)
(120.00633 -0.0034766779 0.011120005)
(120.00609 -0.0024810338 0.01122957)
(120.00598 -0.00083367321 0.011521319)
(120.00598 0.00076898586 0.011521404)
(120.00609 0.0024199102 0.011227677)
(120.00633 0.0034232782 0.011121061)
(120.00627 0.004915236 0.00991662)
(120.00617 0.0054938034 0.0095772925)
(120.00651 0.0066132333 0.0091492097)
(120.00643 0.0075539286 0.0079232079)
(120.00643 0.0079704949 0.0075003158)
(120.00653 0.0091984835 0.0065604291)
(120.0062 0.0096219138 0.0054422232)
(120.0063 0.0099549853 0.0048619099)
(120.00636 0.011161326 0.0033723985)
(120.00613 0.011262683 0.0023728462)
(120.00603 0.011554892 0.00072551236)
(120.00603 0.01155429 -0.00087264688)