/*--------------------------------*- C++ -*----------------------------------*\
  =========                 |
  \\      /  F ield         | OpenFOAM: The Open Source CFD Toolbox
   \\    /   O peration     | Website:  https://openfoam.org
    \\  /    A nd           | Version:  7
     \\/     M anipulation  |
\*---------------------------------------------------------------------------*/
FoamFile
{
    version     2.0;
    format      ascii;
    class       volScalarField;
    location    "150";
    object      k;
}
// * * * * * * * * * * * * * * * * * * * * * * * * * * * * * * * * * * * * * //

dimensions      [0 2 -2 0 0 0 0];

internalField   nonuniform List<scalar> 
25201
(
1118.6486
1134.3122
1118.6514
1134.3198
1204.4759
1138.3629
1114.8313
1147.3675
1168.0486
1224.4722
1168.0343
1138.3533
1169.7726
1439.3194
1470.498
1221.033
1264.975
1311.2019
1332.3639
1447.8816
1363.6727
1362.786
1333.4153
1395.8118
1399.5246
1473.0948
1412.6926
1293.3655
1309.3138
1413.7059
1403.4603
1386.1737
1518.2966
1505.1428
1482.8461
1468.3512
1383.8194
1400.065
1488.4004
1500.4227
1409.6732
1414.9421
1419.2981
1524.2116
1505.8735
1486.7469
1408.0082
1302.7431
1195.2542
1169.7502
1196.699
1221.3075
1298.6291
1275.5918
1242.0894
1235.5838
1223.6315
1262.9242
1271.0621
1374.9166
1343.6578
1306.953
1314.6047
1316.7213
1330.7047
1255.9111
1289.9874
1390.8521
1381.5879
1425.7005
1418.6527
1388.6376
1288.6651
1294.376
1307.848
1438.0326
1412.0185
1401.4484
1393.6473
1379.0866
1358.3979
1331.7814
1388.7128
1388.3946
1416.6067
1365.6285
1424.5505
1437.2288
1497.0578
1463.7164
1493.747
1508.3213
1516.0953
1523.5221
1533.503
1504.3236
1511.3685
1541.7367
1596.5899
1561.8449
1553.4876
1585.7403
1573.575
1543.5147
1533.686
1559.4107
1612.2024
1580.0618
1549.8621
1560.3886
1608.4098
1598.7074
1636.2784
1647.8904
1695.9476
1656.1042
1647.0569
1684.5361
1673.2912
1624.4953
1589.1816
1636.9671
1629.3033
1662.9619
1709.6885
1672.2765
1629.8665
1550.9532
1465.3214
1490.7124
1502.951
1508.6056
1488.2484
1483.2401
1471.6922
1453.9439
1425.4622
1389.8147
1307.2923
1223.8767
1235.6411
1314.6304
1375.0809
1343.9162
1263.3574
1271.1909
1275.647
1242.1
1196.6895
1255.9197
1330.7011
1316.6793
1381.7304
1390.8849
1290.0136
1312.7157
1221.3183
1195.3296
1289.2296
1294.5793
1418.9408
1389.1355
1365.9826
1359.4966
1332.7185
1380.3677
1395.035
1402.0244
1460.4125
1445.2664
1416.9768
1388.7112
1449.0774
1402.3262
1404.0668
1448.2691
1448.83
1451.9066
1535.0097
1528.786
1590.6252
1570.4587
1572.9029
1603.4444
1596.2284
1639.9509
1611.7504
1619.6201
1652.2338
1700.6064
1663.7287
1616.0634
1535.4483
1452.658
1509.211
1495.3557
1499.5577
1676.2344
1639.503
1591.7537
1546.0578
1535.2718
1561.1466
1517.834
1526.1925
1576.2518
1627.3555
1613.9468
1581.5388
1630.6247
1664.6317
1710.9833
1673.1414
1681.5738
1692.2394
1644.556
1134.2157
1118.3104
1154.2825
1293.4079
1309.3049
1419.3136
1505.3283
1403.5194
1413.7865
1409.7101
1414.9559
1505.8855
1524.226
1518.3068
1500.5272
1488.5523
1400.1096
1383.8656
1386.3011
1482.9982
1468.5232
1437.3575
1362.881
1264.9722
145.9954
273.79231
387.06152
490.20411
1071.7556
1074.281
496.54463
392.05364
277.45993
148.02662
148.87442
280.7331
396.58372
501.79818
1077.8769
1080.1011
502.71602
397.39428
281.43851
149.22103
149.29711
281.49196
397.3851
502.63791
1081.8402
1083.3983
502.21937
397.0528
281.29914
149.3117
149.41492
281.44441
397.22916
502.41424
1084.9597
1086.6376
502.7495
397.47931
281.6201
149.51115
149.68746
282.06182
398.10999
503.52934
1088.4158
1090.3615
504.2652
398.6697
282.43814
149.82914
150.03482
283.01112
399.50458
505.31155
1092.42
1094.6492
506.22595
400.20522
283.48025
150.19702
150.42293
284.13977
401.17406
507.44769
1097.0255
1099.5647
508.51598
401.99512
284.68837
150.60509
150.85187
285.42578
403.08038
509.88514
1102.2398
1105.0962
511.1205
404.03402
286.06344
151.05936
151.33305
286.89249
405.25486
512.65971
1108.1193
1111.3535
514.09025
406.36126
287.63169
151.57071
151.87173
288.5512
407.71622
515.79828
1114.7433
1118.3092
517.41246
408.96414
289.38351
152.1376
152.46244
290.377
410.42605
519.25164
1122.0045
1125.8474
521.01705
411.79678
291.29377
152.75558
153.10791
292.37343
413.38545
523.01496
1129.839
1133.9772
524.93325
414.87832
293.37339
153.42787
153.8059
294.53204
416.58323
527.07627
1138.2293
1142.6055
529.12286
418.17969
295.60266
154.1487
154.5466
296.8234
419.97607
531.37972
1147.0468
1151.5362
533.5229
421.64911
297.9451
154.90587
155.31478
299.195
423.48385
535.8192
1156.0197
1160.4709
538.04546
425.21501
300.3456
155.6813
156.05911
301.51116
426.92921
540.18825
1164.7976
1168.8406
542.23857
428.50641
302.55494
156.38716
1186.7111
495.64278
389.96912
275.65592
147.36231
147.07927
274.74486
388.57952
493.82217
1182.6851
1178.1529
491.78648
386.98037
273.66792
146.73638
146.39536
272.59349
385.35302
489.69082
1173.5215
1168.9053
487.59237
383.68618
271.45605
146.02285
145.6876
270.40712
382.10302
485.55676
1164.3623
1159.8903
483.53578
380.50091
269.31482
145.33108
145.01383
268.32049
378.99698
481.59846
1155.4894
1151.2078
479.69082
377.48661
267.29123
144.67767
144.38398
266.36815
376.08613
477.88112
1147.0448
1143.0251
476.11935
374.69331
265.41951
144.07476
143.80633
264.57212
373.40226
474.44375
1139.1116
1135.3427
472.80655
372.1086
263.69035
143.51878
143.27302
262.91462
370.92519
471.26821
1131.7273
1128.2576
469.77907
369.74711
262.10952
143.00927
142.7874
261.41117
368.67782
468.38316
1124.9647
1122.0254
467.12804
367.67594
260.71922
142.55671
142.36411
260.11683
366.74636
465.90386
1119.1592
1116.4678
464.75487
365.83342
259.4871
142.15204
141.97706
258.95003
365.00316
463.65883
1113.8226
1111.3532
462.60668
364.16703
258.37121
141.77737
141.61818
257.90287
363.44528
461.65543
1109.0535
1106.9177
460.75566
362.72612
257.39924
141.43527
141.29591
257.02202
362.14621
459.99016
1104.9447
1103.1232
459.34979
361.62366
256.64352
141.1409
141.04347
256.45219
361.33313
458.96188
1101.3864
1099.9487
458.96613
361.29648
256.38173
140.96421
140.95224
256.55425
361.57838
459.32435
1098.4612
1096.9601
459.66523
361.7784
256.60559
140.90007
140.67325
256.08066
361.12002
458.90339
1095.0037
1092.3192
455.4583
358.25573
253.96919
140.02542
139.2962
249.8998
352.62096
448.64745
1088.8285
1079.6249
427.52997
333.5141
235.32813
135.02941
139.10146
250.25817
353.07875
449.15036
1090.0847
1093.0037
455.74185
358.48614
254.11117
139.84964
140.59989
256.24882
361.3639
459.19364
1095.4045
1097.084
459.73748
361.84787
256.6666
140.83358
140.91007
256.60785
361.65514
459.41671
1098.5279
1099.9154
458.89477
361.24905
256.3662
140.91892
141.01541
256.46542
361.35414
458.99298
1101.4116
1103.0401
459.2584
361.54836
256.60295
141.10446
141.2635
256.98257
362.09133
459.93038
1104.8228
1106.7507
460.57313
362.57779
257.3094
141.39221
141.57943
257.8238
363.33326
461.5264
1108.8118
1111.0497
462.35513
363.96361
258.24381
141.72728
141.93247
258.83936
364.84384
463.46982
1113.4532
1116.0473
464.45703
365.59824
259.34108
142.10028
142.32654
260.01794
366.60209
465.73071
1118.8087
1121.7548
466.87954
367.48321
260.60368
142.51742
142.76722
261.36315
368.61078
468.31036
1124.8751
1128.1802
469.62609
369.62383
262.03721
142.98413
143.26023
262.88442
370.88255
471.22328
1131.6655
1135.3326
472.70897
372.02923
263.64752
143.50423
143.80523
264.57531
373.40817
474.45806
1139.1477
1143.11
476.10411
374.67595
265.41683
144.07317
144.39279
266.40083
376.13593
477.95181
1147.2115
1151.418
479.70743
377.49674
267.30837
144.68361
145.03071
268.37476
379.07926
481.7108
1155.7497
1160.1984
483.59975
380.54734
269.35532
145.3455
145.71277
270.48403
382.21993
485.71393
1164.7262
1169.3246
487.71371
383.77486
271.52293
146.04644
146.42982
272.69277
385.50183
489.88762
1173.954
1178.5975
491.95997
387.12419
273.78157
146.77993
147.16978
274.99085
388.90262
494.18355
1183.1661
1187.6287
496.35752
390.58508
276.09335
147.51512
147.80207
276.99262
391.92629
498.07919
1191.9411
155.05829
297.97459
421.63533
533.56467
1164.0368
1159.6521
531.57936
420.10688
296.95664
154.73549
154.35249
295.75187
418.29966
529.27426
1154.9906
1150.2793
526.9333
416.42775
294.46581
153.93308
153.54672
293.26213
414.62586
524.63712
1145.6158
1141.0065
522.34832
412.79809
292.00692
153.13282
152.76127
290.85147
411.06471
520.13277
1136.435
1131.9404
517.93872
409.31641
289.65244
152.36738
152.01593
288.5561
407.6662
515.822
1127.5155
1123.3618
513.80968
406.05936
287.4512
151.65186
151.32841
286.437
404.52539
511.83188
1119.1912
1115.1649
509.90385
402.99257
285.38654
150.98443
150.68562
284.4479
401.57221
508.07179
1111.2487
1107.4751
506.28355
400.15147
283.47353
150.36611
150.0936
282.6189
398.85615
504.60981
1103.8892
1100.5057
503.01091
397.58332
281.74263
149.80416
149.56137
280.98385
396.42881
501.51283
1097.2679
1094.2056
500.07745
395.28637
280.19579
149.29879
149.08369
279.53043
394.27102
498.75557
1091.3285
1088.6109
497.48874
393.26191
278.83169
148.84682
148.65673
278.25587
392.38007
496.33585
1086.0793
1083.6966
495.233
391.49966
277.64252
148.44243
148.27402
277.15349
390.74848
494.24641
1081.5089
1079.4872
493.32931
390.01185
276.63382
148.0815
147.9354
276.24715
389.41584
492.54056
1077.6007
1075.8797
491.89655
388.88962
275.86363
147.77197
147.67195
275.68939
388.62008
491.52838
1074.2347
1072.8937
491.58746
388.63419
275.65488
147.59029
147.5786
275.89521
389.00623
492.04123
1071.5177
1070.1183
492.41008
389.23965
275.97122
147.49019
147.17601
275.48761
388.63222
491.69613
1068.4607
1066.3056
488.18183
385.72234
273.36938
146.33097
145.31202
270.28573
381.0728
482.24557
1063.8672
1072.9341
490.93931
387.87287
274.44798
145.13585
147.83966
277.04572
391.45841
495.90254
1073.8797
1077.3859
501.52261
396.35832
280.56126
148.73491
149.18323
281.3871
397.2981
502.5652
1079.4626
1081.2117
502.31215
397.11477
281.30323
149.21224
149.28679
281.25069
396.96577
502.08136
1082.7879
1084.4055
502.08908
396.95535
281.25264
149.33942
149.49061
281.56883
397.3888
502.60894
1086.1084
1087.9003
503.20887
397.84203
281.87516
149.61775
149.81375
282.39596
398.5939
504.14404
1089.8502
1091.9253
505.01096
399.24971
282.8319
149.96891
150.1819
283.43597
400.12856
506.10738
1094.1286
1096.5082
507.13558
400.91059
283.95512
150.35653
150.58981
284.64142
401.9156
508.39574
1099.0621
1101.7546
509.56881
402.81559
285.24098
150.78635
151.04628
286.02148
403.96225
511.01063
1104.6373
1107.6774
512.36699
405.00821
286.71942
151.27184
151.56141
287.59861
406.3009
513.99247
1110.935
1114.3637
515.55246
407.50451
288.40103
151.81844
152.13593
289.36991
408.92872
517.34104
1117.9804
1121.7537
519.07007
410.26986
290.26653
152.42267
152.76971
291.33035
411.83642
521.04106
1125.6961
1129.7572
522.93325
413.3041
292.31099
153.08284
153.45147
293.44014
414.96485
525.01881
1133.9381
1138.2199
527.03242
416.53149
294.48913
153.78738
154.17914
295.68763
418.29312
529.2426
1142.6016
1147.0835
531.36528
419.95346
296.80381
154.53794
154.95457
298.07899
421.82818
533.71725
1151.6631
1156.2859
535.94218
423.57064
299.25055
155.33126
155.75823
300.55853
425.49165
538.3462
1160.9346
1165.5011
540.64072
427.27719
301.74617
156.13571
156.52052
302.92832
429.01695
542.81706
1169.8964
1173.9482
544.85612
430.57987
303.95935
156.84524
155.04493
297.93174
421.56916
533.47693
1163.8234
1159.6165
531.55838
420.08464
296.93831
154.72829
154.3496
295.746
418.29399
529.27126
1155.0207
1150.361
526.94135
416.43115
294.46663
153.93286
153.54788
293.26568
414.63236
524.64727
1145.6666
1141.0462
522.33717
412.78867
292.00082
153.13152
152.75993
290.84589
411.05767
520.12579
1136.451
1131.9798
517.92021
409.30055
289.64145
152.36453
152.01599
288.55603
407.66936
515.83088
1127.5881
1123.3335
513.7535
406.01753
287.42497
151.6448
151.32204
286.41652
404.49735
511.79994
1119.1594
1115.1499
509.86637
402.96158
285.36504
150.97778
150.68159
284.43601
401.55703
508.05594
1111.2457
1107.5247
506.28645
400.15012
283.47084
150.36491
150.09656
282.62943
398.87432
504.63625
1103.9726
1100.6755
503.06515
397.62187
281.76654
149.81141
149.57314
281.0212
396.48649
501.58919
1097.4576
1094.4396
500.1704
395.35592
280.24105
149.31332
149.10146
279.58531
394.35403
498.86316
1091.5762
1088.9399
497.63314
393.37048
278.90232
148.86944
148.68152
278.33117
392.49247
496.47927
1086.3964
1084.0281
495.39776
391.62461
277.72468
148.46935
148.30178
277.23678
390.87267
494.40479
1081.8607
1079.8061
493.4684
390.11984
276.70651
148.10635
147.95846
276.31395
389.51493
492.66644
1077.8796
1076.1094
491.99318
388.96487
275.91471
147.79031
147.69101
275.74483
388.70426
491.63863
1074.5082
1073.1277
491.66866
388.69704
275.69761
147.60585
147.59574
275.94528
389.0813
492.13893
1071.7693
1070.4046
492.51033
389.31709
276.02432
147.5095
147.18492
275.52255
388.68915
491.77178
1068.7124
1066.5267
488.19856
385.74122
273.39565
146.34539
145.19309
270.2085
381.03822
482.23021
1064.4043
1091.6177
450.3894
354.37351
251.26969
138.68396
139.87553
254.16068
358.45712
455.69586
1093.2956
1095.8534
459.35217
361.47281
256.30425
140.58385
140.90481
256.85771
362.11069
460.04568
1097.581
1099.0393
459.56926
361.75325
256.66428
140.92807
140.98447
256.54534
361.50823
459.20751
1100.4087
1101.8861
459.11456
361.42729
256.50524
141.02982
141.1642
256.76472
361.77984
459.53312
1103.5294
1105.292
460.03814
362.16278
257.02597
141.27941
141.45983
257.50003
362.85221
460.90121
1107.2275
1109.3221
461.69434
363.44844
257.89444
141.60229
141.79534
258.43977
364.24741
462.69725
1111.5729
1113.9703
463.63758
364.95759
258.90827
141.95373
142.16323
259.52393
365.86324
464.77634
1116.5125
1119.2311
465.8698
366.6921
260.07017
142.34155
142.57079
260.75887
367.70748
467.14797
1122.1203
1125.1922
468.39327
368.65701
261.38613
142.77229
143.02603
262.15912
369.79972
469.83486
1128.4263
1131.843
471.23599
370.87273
262.86924
143.25246
143.53159
263.72581
372.14212
472.84127
1135.4578
1139.2207
474.37414
373.32589
264.5135
143.78307
144.0914
265.46483
374.73997
476.16827
1143.1492
1147.2217
477.84913
376.04104
266.33155
144.36815
144.70158
267.35835
377.56648
479.783
1151.4271
1155.7555
481.59862
378.97729
268.30065
145.00401
145.36158
269.40115
380.61071
483.6673
1160.1911
1164.7086
485.59838
382.1134
270.40587
145.68379
146.05724
271.55328
383.81237
487.74467
1169.2749
1173.8481
489.74707
385.37405
272.59866
146.39402
146.77411
273.76787
387.10041
491.91667
1178.3837
1182.8153
493.98488
388.69831
274.82164
147.10354
147.43306
275.83764
390.19819
495.86666
1187.0637
1191.1095
497.77135
391.65442
276.7951
147.73609
1173.6684
544.50077
430.30116
303.77242
156.78644
156.46125
302.75501
428.77176
542.52756
1169.5581
1165.3716
540.4715
427.13397
301.63587
156.09589
155.72731
300.46694
425.3624
538.18678
1160.7702
1156.124
535.92124
423.54949
299.22169
155.31905
154.94112
298.03884
421.76738
533.63349
1151.5659
1147.0061
531.40535
419.98566
296.81357
154.5391
154.17473
295.67062
418.26282
529.19202
1142.5191
1138.1148
527.06531
416.56364
294.50221
153.79145
153.44897
293.427
414.94018
524.97561
1133.8561
1129.7225
523.01141
413.36929
292.34474
153.09333
152.77885
291.35374
411.86728
521.06977
1125.7457
1121.8863
519.25616
410.41709
290.35381
152.45009
152.16304
289.44876
409.04129
517.47195
1118.2088
1114.6484
515.80362
407.70846
288.52893
151.85979
151.59933
287.70883
406.45852
514.17834
1111.2555
1108.0002
512.64972
405.23814
286.8656
151.31983
151.08687
286.13787
404.12747
511.20356
1104.9483
1102.0619
509.85634
403.05011
285.39018
150.83556
150.63061
284.75838
402.0819
508.59008
1099.3769
1096.834
507.41357
401.13952
284.10101
150.40472
150.2232
283.5557
400.30018
506.31013
1094.4797
1092.2482
505.28806
399.47894
282.9784
150.01724
149.85524
282.5169
398.76687
504.34786
1090.2008
1088.2789
503.55685
398.12031
282.05095
149.67402
149.54208
281.7227
397.61005
502.87274
1086.5759
1084.9103
502.45688
397.25581
281.44686
149.40191
149.34542
281.43012
397.22312
502.38971
1083.3463
1081.7889
502.71863
397.44906
281.52344
149.28194
149.24956
281.60988
397.61353
502.93954
1080.0707
1077.9602
501.9891
396.73065
280.80407
148.80382
147.89925
277.41322
391.93882
496.42921
1074.3626
1073.1384
491.4112
388.31172
274.80483
145.31203
145.89394
274.01629
387.35839
490.51268
1072.0762
1074.3144
496.61981
392.12661
277.50425
147.91846
148.77979
280.67441
396.49353
501.66964
1077.5859
1079.6286
502.64093
397.33957
281.3991
149.16028
149.23975
281.40794
397.24784
502.44329
1081.2836
1082.8113
502.11943
396.97884
281.24874
149.27189
149.36894
281.34912
397.07637
502.20391
1084.3972
1086.0792
502.60214
397.37003
281.54812
149.47493
149.64696
281.96298
397.95273
503.3149
1087.8552
1089.7609
504.12448
398.56143
282.36388
149.796
149.99174
282.89455
399.32276
505.06844
1091.8156
1093.9961
506.05873
400.07369
283.38899
150.16079
150.37693
284.00724
400.96869
507.17505
1096.3635
1098.9132
508.33029
401.85097
284.59005
150.56875
150.81118
285.30551
402.89341
509.63582
1101.63
1104.5325
510.97097
403.91751
285.98333
151.02993
151.3
286.79343
405.10002
512.452
1107.608
1110.871
513.98239
406.27689
287.57278
151.54887
151.84613
288.47205
407.59102
515.62905
1114.3214
1117.9489
517.32968
408.90628
289.34665
152.12481
152.45345
290.34822
410.37416
519.17257
1121.7394
1125.688
521.04752
411.82362
291.31087
152.75912
153.10824
292.37551
413.38265
523.00236
1129.7352
1133.9112
525.00261
414.93411
293.4085
153.43715
153.81022
294.54531
416.59931
527.09054
1138.2033
1142.6056
529.20279
418.24481
295.64492
154.16175
154.55939
296.85722
420.02107
531.42926
1147.0956
1151.6727
533.64973
421.75743
298.02115
154.93262
155.3525
299.29859
423.62661
535.98835
1156.2994
1160.9666
538.30674
425.44442
300.51869
155.74418
156.17455
301.83788
427.36867
540.70078
1165.6335
1170.1642
543.11124
429.23801
303.06695
156.56193
156.8702
304.02297
430.64819
544.90301
1174.2286
1184.0552
1194.417
1184.0525
1194.4017
1217.5916
1192.8928
1175.7371
1212.7624
1226.3272
1192.9087
1245.8629
1268.5329
1226.3298
1247.4907
1283.6178
1276.2465
1262.281
1334.565
1348.1753
1406.9677
1308.9869
1294.7186
1398.4443
1442.4523
1316.8807
1238.7826
1267.0325
1335.5556
1314.4437
1327.4225
1297.1601
1363.5861
1351.6298
1413.3965
1420.1008
1462.6228
1347.847
1360.0929
1347.7745
1343.6474
1330.8573
1450.525
1470.035
1461.8938
1329.3653
1325.8475
1311.4836
1298.734
1425.828
1434.6653
1454.0495
1445.1142
1438.368
1412.7083
1303.4099
1308.1191
1308.1056
1195.309
1134.2141
1118.3051
1138.1371
1169.7083
1062.6852
480.34063
379.49034
269.17085
145.43816
146.35817
272.59349
384.55171
486.74263
1064.9106
1067.1982
490.43548
387.56804
274.74069
147.08042
147.44526
275.51646
388.56721
491.59478
1069.0104
1070.5959
491.26427
388.33958
275.42206
147.48608
147.55087
275.37784
388.21252
491.0661
1072.106
1073.7165
491.00966
388.16972
275.36882
147.59732
147.75133
275.71337
388.6519
491.5997
1075.4387
1077.2982
492.20049
389.10789
276.02356
147.87683
148.07186
276.55106
389.87238
493.15322
1079.2772
1081.3938
493.99381
390.51528
276.98248
148.22473
148.43885
277.59842
391.41915
495.13304
1083.6502
1086.0244
496.10886
392.17047
278.10229
148.60896
148.84357
278.79869
393.19722
497.40722
1088.5814
1091.3065
498.53953
394.07299
279.38639
149.03689
149.29772
280.17537
395.23917
500.01532
1094.1943
1097.2538
501.32978
396.25504
280.85473
149.51741
149.80111
281.71907
397.53139
502.94244
1100.4781
1103.8618
504.41754
398.67867
282.48915
150.04919
150.36455
283.45641
400.10873
506.22517
1107.436
1111.1617
507.89027
401.40141
284.32174
150.6418
150.98003
285.35934
402.93233
509.81943
1115.0133
1119.0227
511.64101
404.34721
286.3063
151.2832
151.64421
287.41316
405.9789
513.69422
1123.13
1127.3524
515.63766
407.49438
288.43033
151.97089
152.35691
289.61321
409.23779
517.83074
1131.708
1136.1575
519.88609
410.8495
290.69893
152.70689
153.11783
291.958
412.70514
522.22032
1140.6922
1145.2815
524.3981
414.41071
293.10526
153.48749
153.90996
294.39552
416.30459
526.76642
1149.8878
1154.475
529.04224
418.08198
295.5821
154.28965
154.68433
296.79374
419.86762
531.27803
1158.9823
1163.3514
533.38519
421.48438
297.85946
155.01922
154.58096
296.49742
419.43659
530.76429
1158.205
1154.1508
528.88003
417.96349
295.50162
154.26266
153.89139
294.33353
416.20847
526.63835
1149.6819
1145.1304
524.37879
414.39837
293.08727
153.48252
153.11134
291.93482
412.67081
522.17246
1140.6544
1136.2204
520.01846
410.94477
290.74591
152.71984
152.36923
289.64975
409.29388
517.89779
1131.9186
1127.6322
515.81773
407.63357
288.50973
151.99543
151.66444
287.47204
406.06647
513.79933
1123.4108
1119.3579
511.86315
404.52141
286.41084
151.31658
151.01163
285.45083
403.06453
509.97746
1115.3624
1111.4828
508.15052
401.60944
284.45191
150.68433
150.40118
283.56118
400.25819
506.40063
1107.7534
1104.1819
504.72784
398.92358
282.64222
150.09905
149.84397
281.84128
397.70505
503.14532
1100.8058
1097.5893
501.67583
396.52714
281.0256
149.57316
149.34946
280.32663
395.45852
500.2795
1094.6753
1091.7747
498.91593
394.3722
279.57659
149.09926
148.89657
278.95107
393.41517
497.66474
1089.0132
1086.4393
496.46825
392.45744
278.28479
148.66937
148.48754
277.73661
391.61579
495.36275
1084.0154
1081.8373
494.35925
390.80444
277.16434
148.2843
148.1242
276.70272
390.09211
493.41646
1079.7491
1077.7527
492.5407
389.38308
276.19859
147.93539
147.80362
275.86261
388.86956
491.86293
1075.931
1074.2464
491.42283
388.49367
275.57214
147.66537
147.61663
275.56056
388.48066
491.39342
1072.7138
1071.2408
491.73958
388.71302
275.65958
147.57299
147.5406
275.75224
388.91794
492.0302
1069.689
1067.7659
491.10033
388.07461
275.05413
147.22299
146.55594
272.99121
385.17703
487.55503
1065.2216
1061.8731
481.28552
380.05804
269.39647
145.66728
143.33275
261.70093
369.2959
468.71677
1055.5266
1069.5981
502.39682
397.99381
282.30049
153.2099
145.32804
274.54861
387.85026
490.71426
1071.7629
1072.4934
494.96371
390.74272
276.60418
147.86601
148.75808
280.30292
395.93694
500.95954
1076.3631
1078.6579
501.91051
396.75582
281.02008
149.14513
149.22991
281.1548
396.87785
501.99679
1080.5966
1082.2877
501.6564
396.60419
280.99899
149.24953
149.35417
281.17659
396.83096
501.91448
1083.9927
1085.7248
502.30111
397.11654
281.3728
149.45046
149.62193
281.8123
397.7401
503.06396
1087.4943
1089.4027
503.84935
398.33074
282.20462
149.76397
149.963
282.76213
399.1373
504.85106
1091.5181
1093.7944
505.79051
399.85679
283.24353
150.12702
150.35486
283.91365
400.84021
507.02788
1096.1972
1098.7534
508.12815
401.6858
284.47796
150.54063
150.78977
285.22446
402.78269
509.50948
1101.4925
1104.4522
510.78326
403.7657
285.88167
151.00276
151.28166
286.72942
405.01563
512.36031
1107.55
1110.8204
513.80634
406.13623
287.47975
151.52304
151.83085
288.42132
407.52477
515.55776
1114.281
1117.9178
517.18436
408.7895
289.26926
152.10264
152.44001
290.30579
410.32004
519.11634
1121.7218
1125.6529
520.90778
411.7138
291.23935
152.73858
153.09756
292.34183
413.33992
522.95835
1129.7146
1133.8854
524.88014
414.8392
293.34802
153.41995
153.80315
294.52395
416.57124
527.05912
1138.142
1142.5295
529.12646
418.18352
295.60548
154.14966
154.55163
296.83752
419.99582
531.40211
1147.0244
1151.5741
533.54631
421.67764
297.97001
154.91574
155.33745
299.26135
423.57559
535.92737
1156.1316
1160.6687
538.16096
425.32862
300.44112
155.71707
156.14646
301.74392
427.22162
540.50411
1165.0807
1169.2659
542.921
429.09459
302.98204
156.54125
156.85081
303.92356
430.40515
544.53648
1173.1211
154.56391
296.44032
419.35584
530.66342
1157.9783
1153.9922
528.78347
417.8794
295.43878
154.24105
153.8672
294.2704
416.12384
526.54055
1149.5685
1145.0609
524.32716
414.35077
293.05093
153.46629
153.10558
291.92465
412.65702
522.15726
1140.6589
1136.2651
520.02597
410.95379
290.75513
152.72222
152.38005
289.68193
409.33537
517.94511
1131.9638
1127.649
515.85098
407.67103
288.54354
152.00887
151.6827
287.51568
406.12236
513.86127
1123.4198
1119.3003
511.85262
404.5239
286.41937
151.32533
151.01256
285.44437
403.05541
509.96646
1115.2839
1111.4059
508.07783
401.55482
284.41554
150.6735
150.38957
283.52907
400.21487
506.35092
1107.6651
1104.0748
504.68473
398.88726
282.61594
150.0898
149.83799
281.82478
397.68379
503.12256
1100.7803
1097.6306
501.6466
396.50478
281.01078
149.56849
149.34512
280.31135
395.43615
500.25195
1094.6241
1091.6988
498.85515
394.32771
279.54871
149.09187
148.8873
278.91704
393.36446
497.60097
1088.8843
1086.2773
496.36169
392.37706
278.23294
148.6553
148.47354
277.68598
391.54211
495.27226
1083.8472
1081.6471
494.22758
390.70453
277.09924
148.26704
148.10798
276.64065
390.00142
493.30448
1079.5387
1077.5721
492.41611
389.28619
276.13418
147.9197
147.79056
275.80337
388.78262
491.75553
1075.7283
1074.1137
491.32269
388.41481
275.51957
147.65625
147.61084
275.51082
388.40551
491.29922
1072.537
1071.058
491.62201
388.62265
275.60164
147.56793
147.54012
275.69688
388.83027
491.91827
1069.4839
1067.5184
491.01207
388.0078
275.01707
147.23262
146.57374
272.98028
385.14336
487.50467
1065.0873
1061.8301
481.3381
380.10877
269.44515
145.69436
143.53898
262.51106
370.31433
469.81665
1055.8039
1079.7433
431.54696
337.25907
238.22519
136.44523
148.40835
271.13008
382.49491
484.22019
1066.6645
1069.3433
485.66377
383.97518
272.64771
148.80704
145.28304
269.26064
379.70339
480.6444
1063.1279
1065.1145
486.827
384.61113
272.63851
146.33068
147.09348
274.86986
387.76889
490.68134
1067.3398
1069.1099
491.59609
388.55285
275.49827
147.41435
147.50973
275.53738
388.50315
491.4518
1070.6685
1072.1295
491.0405
388.17863
275.34764
147.52539
147.62574
275.47677
388.32059
491.17918
1073.7028
1075.4006
491.56038
388.60439
275.67256
147.72736
147.90063
276.10228
389.21118
492.30278
1077.2333
1079.2086
493.08935
389.80822
276.50116
148.04851
148.25186
277.06548
390.62612
494.10977
1081.333
1083.5919
495.07067
391.35966
277.55355
148.41909
148.64085
278.19767
392.30055
496.25079
1085.9899
1088.5378
497.37158
393.1557
278.76371
148.82705
149.06488
279.46946
394.18779
498.66622
1091.2335
1094.1164
499.93364
395.16137
280.11651
149.27441
149.54057
280.91919
396.33878
501.41231
1097.1293
1100.3503
502.86688
397.45872
281.66321
149.77893
150.07095
282.54967
398.75962
504.50144
1103.7379
1107.3347
506.11967
400.01433
283.38749
150.33923
150.6651
284.38373
401.48084
507.96647
1111.0686
1114.9657
509.76137
402.87308
285.31281
150.96187
151.31151
286.38215
404.44571
511.73863
1118.9977
1123.1447
513.68258
405.95382
287.38841
151.63297
152.00337
288.51914
407.61324
515.76253
1127.3806
1131.7336
517.836
409.22472
289.59584
152.34799
152.73995
290.79136
410.97856
520.03272
1136.2191
1140.7732
522.19214
412.66845
291.92646
153.10514
153.52326
293.20181
414.53984
524.53635
1145.3948
1150.0412
526.81005
416.3223
294.40005
153.90911
154.34222
295.71847
418.24591
529.2002
1154.7077
1159.292
531.62085
420.13063
296.96349
154.73764
155.05668
297.9632
421.61476
533.51707
1163.6756
1192.5945
498.21623
391.99244
277.01339
147.80398
147.50965
276.06743
390.54248
496.3101
1188.1217
1183.3584
494.19046
388.8765
274.94519
147.14834
146.79194
273.8234
387.17839
492.00517
1178.5676
1173.7753
489.8413
385.45691
272.64756
146.40738
146.0562
271.54863
383.7972
487.70715
1169.0634
1164.4298
485.63471
382.15029
270.42377
145.68805
145.3556
269.38022
380.56986
483.59616
1159.8753
1155.5246
481.6569
379.02834
268.32642
145.01064
144.69965
267.3465
377.53865
479.72752
1151.1433
1146.8754
477.85416
376.05503
266.33513
144.36985
144.07855
265.41713
374.65927
476.04609
1142.7347
1138.7508
474.31038
373.28442
264.47863
143.7719
143.50568
263.63939
372.00532
472.64946
1134.9149
1131.2934
471.09115
370.76863
262.79253
143.22767
142.99094
262.0469
369.62775
469.60343
1127.8522
1124.5309
468.24159
368.54267
261.3
142.74355
142.53536
260.64676
367.53692
466.92024
1121.5738
1118.6685
465.71836
366.57818
259.98447
142.31328
142.12837
259.41131
365.69157
464.54696
1115.9636
1113.3475
463.4415
364.81362
258.80492
141.92164
141.75181
258.29319
364.02255
462.39691
1110.8355
1108.5408
461.43305
363.2522
257.7554
141.56072
141.40815
257.32125
362.58129
460.54514
1106.3885
1104.4024
459.80002
361.97517
256.88727
141.2396
141.11482
256.57798
361.49565
459.15789
1102.632
1100.9058
458.76984
361.16393
256.32021
140.98398
140.92847
256.29961
361.13551
458.72115
1099.31
1097.808
459.07493
361.37213
256.40073
140.87513
140.84711
256.50723
361.58307
459.3709
1096.2622
1094.5552
458.6154
360.88319
255.88881
140.51886
139.87454
253.61789
357.64463
454.70386
1092.0016
1090.4745
449.43059
353.5618
250.64899
138.61333
1080.959
426.55061
332.88382
234.90002
134.37203
139.13135
249.35428
351.68756
447.43085
1088.5526
1091.3801
454.44578
357.4671
253.45772
139.8537
140.57372
255.72322
360.56771
458.19637
1093.9151
1095.811
459.0131
361.26357
256.27342
140.80937
140.88491
256.30567
361.20642
458.8592
1097.4883
1099.0611
458.51762
360.93394
256.14716
140.89959
140.98947
256.26384
361.05781
458.62796
1100.7267
1102.4812
458.97554
361.31901
256.44642
141.08348
141.24655
256.85868
361.90683
459.69875
1104.3505
1106.3529
460.43751
362.46434
257.22951
141.38311
141.57019
257.75214
363.22513
461.38799
1108.5086
1110.8021
462.30928
363.91777
258.20725
141.72446
141.92404
258.78673
364.76411
463.36669
1113.2175
1115.8178
464.43015
365.56787
259.31504
142.0968
142.3165
259.9704
366.5305
465.63874
1118.6037
1121.5539
466.83641
367.44546
260.57535
142.51138
142.75796
261.32471
368.55232
468.2335
1124.6836
1127.9647
469.60135
369.59716
262.01406
142.97739
143.24491
262.83103
370.80196
471.11807
1131.396
1135.0337
472.6479
371.97358
263.60516
143.49046
143.78319
264.50368
373.30201
474.32354
1138.8331
1142.7523
475.9732
374.57463
265.34859
144.05199
144.37112
266.33031
376.02806
477.80992
1146.8116
1150.9869
479.60047
377.41113
267.24885
144.66356
145.00253
268.28957
378.94964
481.54175
1155.2864
1159.7179
483.44575
380.42665
269.27394
145.31703
145.68024
270.39018
382.07824
485.53039
1164.2431
1168.8581
487.54431
383.64341
271.43437
146.01451
146.39631
272.60416
385.37009
489.71738
1173.5275
1178.2253
491.83094
387.01773
273.7054
146.74963
147.14603
274.91755
388.7971
494.05282
1182.9168
1187.5131
496.30195
390.53892
276.06044
147.50744
147.79806
276.97456
391.90023
498.04807
1191.8965