/*--------------------------------*- C++ -*----------------------------------*\
  =========                 |
  \\      /  F ield         | OpenFOAM: The Open Source CFD Toolbox
   \\    /   O peration     | Website:  https://openfoam.org
    \\  /    A nd           | Version:  7
     \\/     M anipulation  |
\*---------------------------------------------------------------------------*/
FoamFile
{
    version     2.0;
    format      ascii;
    class       volScalarField;
    location    "150";
    object      nut;
}
// * * * * * * * * * * * * * * * * * * * * * * * * * * * * * * * * * * * * * //

dimensions      [0 2 -1 0 0 0 0];

internalField   nonuniform List<scalar> 
25201
(
6.8609472
6.9213095
6.8609629
6.9213499
7.120483
6.9772977
6.8882776
6.9072108
6.9925811
7.1384125
6.9925152
6.9772509
7.0536444
7.0423079
6.9506899
7.1581666
7.155504
7.145831
7.1634509
7.0557812
7.1372786
7.1064031
7.1402027
7.0998861
7.1216416
7.0309094
7.0470158
7.116737
7.07526
6.9993296
7.0412749
7.0912439
6.8171073
6.8884328
6.9718593
6.9454856
7.0518425
6.9974262
6.8616047
6.7873416
6.9515837
6.925751
6.9742488
6.7775038
6.7484089
6.7466863
6.9097824
7.0855936
7.0769232
7.0535519
7.0706085
7.1044052
7.1744361
7.1952803
7.1815856
7.1719312
7.1601409
7.1593325
7.1772338
7.0912251
7.0919688
7.1572251
7.1694838
7.2048737
7.2317742
7.197207
7.2186123
7.1761288
7.1283727
6.9815536
6.939022
6.9767678
7.1235741
7.1481937
7.1134541
6.8228934
6.8671142
6.9374117
6.984983
7.0337276
7.0990578
7.131579
7.1024572
7.090388
7.0473164
7.0709348
7.0366556
7.0370768
6.9844288
7.0064569
6.9376157
6.8815582
6.9020779
6.9405178
6.954601
6.998932
7.0249433
6.983101
6.8921721
6.9537871
6.9290031
6.8731309
6.8590511
6.9191928
6.894804
6.8497634
6.7217005
6.7980169
6.8328586
6.8692313
6.8571408
6.8350396
6.7571084
6.7757615
6.6356246
6.7362873
6.7115612
6.617934
6.6031013
6.7398019
6.8207574
6.7038053
6.6834118
6.5892053
6.4308465
6.5598215
6.6452261
6.8353116
7.0103354
6.8670587
6.7931994
6.754724
6.7506034
6.7858114
6.8629821
6.9399445
7.039541
7.1056392
7.158356
7.1610331
7.1721629
7.1696806
7.0916189
7.0931704
7.1608073
7.177638
7.1954216
7.1816404
7.0705769
7.1972533
7.2318081
7.2048311
7.1285525
7.1761503
7.2186658
7.202799
7.1043906
7.0771514
7.125327
7.1487488
6.9396335
6.9782327
7.072389
7.1023357
7.134468
7.0372401
6.9886558
6.9390003
6.8724271
6.9354643
7.0486868
7.091663
7.0073161
7.0557703
7.0863405
7.0250919
7.0064966
7.009658
6.8394182
6.8301768
6.654473
6.7273447
6.7800931
6.6984371
6.663172
6.5823402
6.6607529
6.6816882
6.5813499
6.4240427
6.5581114
6.6412177
6.8405055
7.0117897
6.8838954
6.9416891
6.9898767
6.6088464
6.7087812
6.8260668
6.9246295
6.8987685
6.8540654
6.906552
6.9464
6.8647105
6.7456484
6.7257303
6.8014807
6.6863265
6.5928746
6.4336428
6.5617606
6.57935
6.5887093
6.6747169
6.9213776
6.8609383
7.0553693
7.1171386
7.0753034
6.9742968
6.8888063
7.0415724
6.9995731
6.9517267
6.9257496
6.7483503
6.7774831
6.8170238
6.7874321
6.8618709
6.9976323
7.0522445
7.0917534
6.9722451
6.9458987
7.0376984
7.1070701
7.1560112
0.0013004298
0.0077667075
0.018990322
0.032326734
0.40754512
0.41334598
0.033320145
0.019538196
0.007986009
0.0013345692
0.0013531967
0.0081804951
0.020014976
0.034111426
0.42087514
0.42518684
0.034344264
0.020162211
0.0082452893
0.0013611454
0.0013635732
0.0082627451
0.020196517
0.034382499
0.42780166
0.42929687
0.034347242
0.020184083
0.0082610575
0.0013641986
0.0013648154
0.0082635472
0.020186408
0.034341219
0.43024218
0.4309184
0.034342304
0.020189553
0.008265978
0.0013653111
0.0013661464
0.0082743859
0.020209811
0.034373552
0.43147394
0.43200205
0.03440033
0.020225822
0.0082812619
0.0013668206
0.0013677818
0.0082925751
0.020254115
0.034447013
0.43253065
0.43309244
0.03448268
0.020275152
0.008301427
0.0013685469
0.0013695987
0.0083145382
0.020308001
0.034537354
0.43368933
0.4343287
0.034579528
0.020332934
0.0083249919
0.001370454
0.0013715999
0.0083396116
0.020369314
0.034639938
0.43500347
0.43572897
0.034688884
0.020398406
0.0083518053
0.001372569
0.0013738349
0.0083681892
0.02043898
0.03475611
0.43650389
0.43734487
0.034813534
0.020473094
0.0083823952
0.0013749396
0.0013763279
0.00840053
0.02051791
0.034887808
0.43823839
0.43919016
0.034953382
0.02055672
0.0084165778
0.0013775595
0.0013790523
0.0084360584
0.02060464
0.035032643
0.44018973
0.4412388
0.035104169
0.020647129
0.0084536566
0.0013803992
0.0013820041
0.0084747013
0.020698847
0.035189765
0.44235077
0.44351915
0.035267448
0.02074497
0.0084937773
0.0013834567
0.0013851593
0.0085162217
0.020800168
0.035358938
0.44474056
0.44601472
0.035441853
0.020849383
0.0085365417
0.0013866965
0.0013884734
0.0085600556
0.02090731
0.035538081
0.44733089
0.44868516
0.035625443
0.020959004
0.008581292
0.0013900752
0.0013918974
0.0086053212
0.021018213
0.035723756
0.45007437
0.4514923
0.03581713
0.021073037
0.0086274568
0.0013935288
0.0013952044
0.0086500671
0.021128111
0.035908335
0.45292148
0.45429078
0.035997166
0.021178994
0.0086702447
0.0013966565
0.50838953
0.032537831
0.019322703
0.0079778348
0.0013319538
0.0013306856
0.0079600438
0.019278332
0.032461572
0.50681369
0.5051417
0.032373903
0.019225553
0.0079383315
0.0013291468
0.0013276153
0.0079167173
0.019172243
0.032285255
0.50348162
0.50186164
0.032195023
0.019117521
0.0078941902
0.0013259373
0.0013244252
0.0078736091
0.019067152
0.032111484
0.50031449
0.49881428
0.032025844
0.019015138
0.0078520872
0.0013228141
0.0013213733
0.0078325405
0.018967436
0.031946906
0.49737381
0.49599041
0.03186621
0.018918374
0.0078122133
0.0013198404
0.0013184904
0.0077940623
0.018874097
0.031792949
0.49467871
0.49342239
0.031718628
0.018828871
0.007775283
0.0013170627
0.0013158137
0.0077584478
0.018787727
0.03165044
0.49222004
0.49106715
0.031580437
0.018745127
0.0077407795
0.0013144753
0.0013133239
0.0077252762
0.018707211
0.03151763
0.48998589
0.48895341
0.031453768
0.018668309
0.0077091195
0.0013120909
0.0013110484
0.0076951556
0.01863404
0.031396814
0.48799857
0.48714977
0.031343862
0.018601367
0.0076813831
0.0013099665
0.0013090577
0.0076693069
0.018571477
0.031293737
0.48633262
0.48556404
0.031243999
0.018541106
0.0076566484
0.0013080603
0.0013072319
0.0076458614
0.018514264
0.031198854
0.4848166
0.48411626
0.031152534
0.018486096
0.0076341851
0.0013062914
0.0013055341
0.0076248645
0.018463015
0.031113976
0.48347318
0.48285829
0.031074618
0.018438909
0.0076148003
0.0013046683
0.0013039974
0.0076074695
0.018421012
0.031045358
0.48227143
0.48165299
0.031020305
0.018404467
0.0076001524
0.0013032458
0.001302725
0.0075968669
0.01839812
0.031013661
0.4809291
0.48000494
0.031025922
0.018399762
0.0075955077
0.0013021738
0.0013014811
0.0075960067
0.018407327
0.031051262
0.47853721
0.47600977
0.031024279
0.01837985
0.0075805804
0.0012990684
0.0012918211
0.0075225195
0.018246595
0.030816738
0.47174691
0.46524446
0.030241168
0.017900652
0.0073783854
0.0012752004
0.0012498529
0.0071496481
0.017356868
0.029321938
0.45781416
0.43406081
0.02666609
0.015643997
0.00641998
0.001199279
0.0012484153
0.0071653767
0.017395414
0.029374381
0.45865032
0.46596171
0.030268892
0.017918714
0.0073861439
0.0012742099
0.0012913996
0.0075299667
0.018264271
0.030844093
0.47225214
0.47632516
0.031037872
0.018388699
0.0075846969
0.0012987243
0.0013012713
0.0075994188
0.018415605
0.031064352
0.47877749
0.48017449
0.031028931
0.018401894
0.0075967992
0.001301961
0.0013025946
0.0075986387
0.018402808
0.031021478
0.48108451
0.4817499
0.031021284
0.018404761
0.0076004162
0.0013030789
0.0013038499
0.0076076916
0.018422095
0.031047622
0.48233359
0.48289141
0.031070192
0.018435824
0.007613669
0.001304472
0.0013053575
0.0076239805
0.018461461
0.031112079
0.48346085
0.48406996
0.031143852
0.018480448
0.0076320273
0.0013060632
0.0013070291
0.0076440721
0.018510332
0.0311929
0.48472596
0.48543945
0.031231465
0.018533462
0.0076538346
0.0013078252
0.0013088865
0.0076675537
0.018567378
0.03128714
0.48620726
0.48703492
0.031332463
0.018594645
0.0076790298
0.0013097868
0.0013109532
0.0076943938
0.018632472
0.031394498
0.48792466
0.48887954
0.031446743
0.018663986
0.0077076324
0.0013119693
0.0013132517
0.0077247274
0.018705998
0.031515646
0.48990521
0.49099985
0.031575131
0.018741876
0.0077397384
0.0013143861
0.001315775
0.0077583959
0.018787683
0.031650265
0.4921574
0.49337616
0.031716728
0.018827524
0.0077749457
0.0013170104
0.0013184747
0.0077945269
0.0188754
0.031795137
0.49466199
0.49599902
0.031865298
0.018917693
0.0078121742
0.0013198039
0.0013213818
0.0078333217
0.018969512
0.031950385
0.49740662
0.49888034
0.032026462
0.019015372
0.0078524107
0.0013228103
0.0013244725
0.0078747449
0.019070056
0.032116317
0.50041642
0.50201232
0.032197581
0.019118839
0.0078949531
0.0013259827
0.0013277162
0.0079180627
0.019175373
0.032290404
0.50366514
0.50536689
0.032376144
0.019227219
0.00793959
0.0013292976
0.0013310576
0.0079638655
0.019286249
0.032472446
0.5070851
0.50881244
0.032565722
0.019341301
0.0079858691
0.0013326155
0.0013339047
0.0080036815
0.019385511
0.032641021
0.51055571
0.0013862614
0.0085517747
0.020850165
0.035377743
0.45519403
0.45363638
0.035288364
0.020799262
0.0085317489
0.001384838
0.0013831415
0.0085079979
0.020740046
0.03518793
0.45207061
0.45052965
0.035086395
0.020679198
0.0084830831
0.0013812764
0.0013795503
0.008459805
0.020622034
0.034990857
0.44905055
0.44760762
0.034892926
0.020563196
0.008435609
0.0013776938
0.0013760201
0.008413433
0.020508827
0.034802005
0.44622312
0.44487296
0.03470864
0.020452669
0.0083902793
0.0013742418
0.0013726477
0.0083691279
0.020400777
0.034621824
0.44358287
0.4423753
0.034537003
0.020349446
0.0083478182
0.0013709937
0.0013695185
0.0083281584
0.020301041
0.034455746
0.44119634
0.4400629
0.034373416
0.020251443
0.0083076957
0.0013679486
0.001366578
0.0082894339
0.020206596
0.034298374
0.43898991
0.43795477
0.034221595
0.020160357
0.0082703592
0.0013651126
0.0013638559
0.0082536963
0.020119453
0.034153219
0.43700241
0.43610289
0.034084734
0.020078068
0.0082365459
0.0013625214
0.0013613949
0.0082217268
0.020041602
0.034023638
0.43526758
0.43447333
0.033961677
0.020004213
0.0082062521
0.0013601777
0.0013591731
0.0081932627
0.019972204
0.033908002
0.43375231
0.43306065
0.033852962
0.019939029
0.0081795389
0.0013580702
0.0013571774
0.0081683381
0.019911327
0.033806377
0.43243965
0.43184146
0.033758171
0.019882298
0.008156336
0.001356176
0.0013553811
0.0081469266
0.01985894
0.033718814
0.43131047
0.43079672
0.033679233
0.019834921
0.0081369213
0.0013544771
0.0013537823
0.0081297635
0.019817273
0.033649964
0.4303066
0.4297811
0.033626412
0.019801685
0.0081228461
0.0013530043
0.0013524917
0.008120545
0.01979788
0.033624386
0.42915672
0.42832229
0.03364489
0.019803847
0.0081208096
0.0013519635
0.0013512898
0.0081234185
0.019817217
0.033681702
0.42697298
0.4245719
0.0336534
0.019788454
0.0081075876
0.0013485644
0.0013401542
0.0080463437
0.019644852
0.033424018
0.42067271
0.41498579
0.032775835
0.019264968
0.0078920342
0.0013204896
0.0012890008
0.0076723024
0.018721523
0.031808635
0.40904001
0.40886987
0.032377658
0.019040908
0.0077994788
0.0012972845
0.001334367
0.0079722068
0.019502623
0.033268528
0.41294418
0.42084602
0.034109471
0.02001429
0.0081805713
0.0013529097
0.0013611459
0.0082459202
0.020163511
0.034345208
0.42502484
0.42764842
0.034369856
0.020188869
0.0082599672
0.0013632676
0.0013641149
0.0082609628
0.020184098
0.034346134
0.42914102
0.43009827
0.034326223
0.020177104
0.0082600058
0.0013644835
0.0013652206
0.0082655037
0.020188734
0.034339992
0.43078224
0.43133424
0.034358042
0.020200281
0.0082707696
0.001365833
0.0013667513
0.0082808846
0.020225302
0.034398518
0.43186262
0.43239024
0.034432385
0.020244996
0.0082890695
0.0013674852
0.0013684795
0.0083009592
0.0202745
0.034480837
0.43294475
0.43353433
0.034521866
0.020298405
0.0083108613
0.0013693009
0.0013703856
0.0083244127
0.020331993
0.034577261
0.43417395
0.43484443
0.034623797
0.020359441
0.0083358618
0.0013713059
0.0013725097
0.00835125
0.020397462
0.034686565
0.43557274
0.43634157
0.03474063
0.020429531
0.0083646175
0.0013735588
0.0013748933
0.0083819124
0.020472142
0.03481096
0.43718276
0.43807636
0.03487403
0.020509424
0.008397342
0.0013760809
0.0013775386
0.0084163327
0.020556094
0.034951024
0.43903961
0.44005459
0.035021168
0.020597724
0.0084335651
0.0013788574
0.0013804457
0.0084544045
0.020649064
0.035106219
0.44113665
0.44226414
0.035183718
0.020694889
0.0084732804
0.0013818823
0.0013835661
0.0084952963
0.020748995
0.0352733
0.44345017
0.44467244
0.035355556
0.020797702
0.0085153854
0.0013851019
0.0013868836
0.0085386027
0.020854698
0.035449968
0.44594728
0.44727263
0.035536227
0.020905987
0.0085598274
0.0013885125
0.0013903889
0.0085844323
0.020966575
0.035636898
0.44866447
0.45010756
0.035727908
0.021020513
0.0086066291
0.0013920754
0.0013939722
0.0086318197
0.021082759
0.035831502
0.45160918
0.45312937
0.035928257
0.021139419
0.0086546189
0.0013956363
0.0013973236
0.0086775082
0.021195585
0.036021875
0.45465446
0.45610661
0.036111641
0.021246583
0.0086975604
0.0013987387
0.0013861906
0.0085508391
0.020847657
0.035373264
0.45514766
0.45365098
0.035287982
0.02079874
0.0085314186
0.0013847899
0.0013831081
0.0085078826
0.02074
0.035188171
0.4520987
0.45056763
0.035086859
0.020679292
0.008483038
0.0013812515
0.0013795302
0.0084597632
0.020622043
0.034990978
0.44907104
0.44762277
0.034891729
0.020562458
0.0084353158
0.0013776638
0.0013759928
0.0084131524
0.020508177
0.034800969
0.44622501
0.44488202
0.034707086
0.020451699
0.0083898901
0.0013742117
0.0013726353
0.0083690159
0.020400651
0.034621866
0.44359708
0.44236429
0.034533477
0.020347464
0.0083471054
0.0013709534
0.0013694845
0.0083276665
0.020299883
0.03445398
0.44118423
0.44005901
0.03437156
0.020250262
0.0083072109
0.0013679159
0.0013665587
0.0082891966
0.02020613
0.034297794
0.43898842
0.43797227
0.034222082
0.020160448
0.0082703276
0.0013651068
0.0013638687
0.0082539469
0.020120254
0.034154814
0.43702903
0.43615326
0.034087706
0.020079596
0.0082370709
0.0013625536
0.0013614476
0.0082225145
0.020043735
0.034027449
0.43531943
0.43453812
0.033966159
0.020006675
0.0082071724
0.001360243
0.0013592531
0.0081943752
0.019975071
0.033912953
0.43381619
0.43314404
0.033859769
0.019942842
0.008180985
0.0013581724
0.0013572895
0.008169835
0.019915063
0.033812619
0.43251145
0.43191427
0.033765426
0.019886458
0.0081579636
0.0013562977
0.0013555065
0.0081485447
0.019862917
0.033725379
0.43138103
0.43085438
0.033684663
0.019838181
0.0081382793
0.00135459
0.001353887
0.0081309932
0.019820185
0.033654645
0.4303497
0.42981143
0.033629637
0.019803688
0.0081237286
0.0013530874
0.0013525765
0.0081215756
0.019800407
0.03362864
0.42920301
0.42836284
0.033647575
0.019805486
0.0081215263
0.0013520273
0.0013513492
0.0081243524
0.019819463
0.033685387
0.42702217
0.42464147
0.033656976
0.019790631
0.008108484
0.0013486086
0.0013401013
0.0080463488
0.019644964
0.033424054
0.42073069
0.41506287
0.032771317
0.019262923
0.0078913408
0.0013203588
0.0012882068
0.0076674693
0.018710653
0.031790164
0.40925713
0.45990692
0.029419949
0.017444504
0.0071948398
0.0012454171
0.0012742077
0.0073816153
0.017903802
0.030244702
0.46575143
0.47240469
0.030852195
0.01826912
0.0075320746
0.0012915137
0.0012992088
0.0075896283
0.018400536
0.03105629
0.47649936
0.47893047
0.031070134
0.018418641
0.0076007986
0.0013014351
0.001302292
0.0076006833
0.01841186
0.031044831
0.48030641
0.481192
0.031023828
0.018403709
0.007599145
0.001302671
0.0013033539
0.0076036577
0.018412968
0.03103411
0.48186347
0.48243345
0.031048319
0.018422443
0.0076081391
0.0013039227
0.0013047796
0.0076175399
0.018445579
0.031085415
0.48299788
0.48358163
0.031116258
0.018463729
0.0076251058
0.0013054611
0.0013063724
0.0076360774
0.018490787
0.031160267
0.48421027
0.48487154
0.03119774
0.018512862
0.0076452419
0.0013071257
0.0013081109
0.0076576737
0.018543375
0.031247325
0.48558153
0.48634105
0.031291317
0.018569387
0.0076684512
0.0013089541
0.0013100278
0.0076823404
0.018603335
0.031346454
0.48716428
0.48804388
0.031396614
0.018633185
0.0076947359
0.001310975
0.0013121565
0.0077103055
0.018671211
0.031458494
0.48898869
0.48999133
0.031514963
0.018704948
0.0077243202
0.0013132128
0.0013145057
0.0077415203
0.018746985
0.031583615
0.49107432
0.49221202
0.031644856
0.018783932
0.0077569773
0.0013156717
0.0013170939
0.0077760514
0.018830698
0.031721598
0.49342073
0.49468982
0.031788853
0.018871263
0.0077929987
0.0013183726
0.0013199083
0.0078134598
0.018921443
0.031871317
0.49602829
0.49743147
0.031944507
0.018965624
0.0078318903
0.001321304
0.0013229459
0.0078538654
0.019019555
0.032033265
0.49890544
0.50043766
0.032111896
0.019066906
0.0078735517
0.0013244248
0.0013261285
0.0078963884
0.019122953
0.032204193
0.50202893
0.50366114
0.032286713
0.01917257
0.0079169036
0.0013276579
0.0013293695
0.0079404157
0.019230161
0.032381036
0.50532773
0.50698495
0.032468283
0.019281966
0.00796147
0.0013308448
0.0013323133
0.0079810574
0.019328773
0.032544325
0.50862953
0.51023982
0.032625589
0.019375732
0.0079997494
0.0013336564
0.4558452
0.036092076
0.021235675
0.0086934488
0.00139846
0.0013970334
0.0086738988
0.021186721
0.036007234
0.45441424
0.45300431
0.035921431
0.021135285
0.008652662
0.0013954262
0.0013937955
0.0086299719
0.021078474
0.03582466
0.45152578
0.45005561
0.035726888
0.021019927
0.0086060166
0.0013919733
0.0013902744
0.0085833277
0.020963646
0.035631711
0.44866683
0.44729261
0.035536824
0.020906611
0.0085598221
0.0013884599
0.0013868065
0.0085378481
0.020852382
0.035445479
0.44598526
0.44470476
0.035355205
0.020797985
0.0085153641
0.0013850656
0.0013835048
0.0084946273
0.020746891
0.035269303
0.44350504
0.44233929
0.035186439
0.020696758
0.0084738113
0.0013818859
0.0013804523
0.0084546523
0.020649449
0.035106759
0.44125071
0.44018738
0.035030032
0.020602979
0.0084353464
0.001378955
0.0013776427
0.0084177951
0.020559554
0.034956788
0.43919967
0.43823802
0.034885728
0.020516562
0.0083999529
0.0013762552
0.0013750566
0.0083839992
0.020477026
0.034818983
0.43735353
0.43649662
0.034753324
0.020437355
0.0083675607
0.0013737696
0.0013726892
0.0083534147
0.020402353
0.034694337
0.43572372
0.43498188
0.034636339
0.020367284
0.0083388483
0.0013715253
0.0013705677
0.0083265783
0.020336836
0.03458489
0.43431808
0.43367289
0.034533832
0.020306006
0.0083137797
0.0013695163
0.0013686637
0.008303217
0.020279627
0.034489054
0.4330981
0.43253019
0.034444364
0.020252647
0.0082920212
0.0013677016
0.0013669374
0.0082832065
0.020230575
0.034406953
0.43202139
0.43149494
0.034374131
0.020210086
0.0082744541
0.0013660859
0.0013654518
0.0082685786
0.020195897
0.03435152
0.43097659
0.43029937
0.034343142
0.020187668
0.0082640899
0.0013647638
0.0013643759
0.0082646984
0.020192861
0.034360331
0.42937164
0.42787706
0.034389041
0.020200854
0.0082646743
0.0013635725
0.0013614145
0.00825095
0.020175369
0.034364362
0.42528508
0.42104719
0.034129477
0.020025847
0.0081848703
0.0013530936
0.0013341056
0.0079810831
0.019522223
0.033297113
0.41321716
0.40872646
0.032376335
0.019041609
0.0077997231
0.0012965152
0.0013005789
0.0077805414
0.019019873
0.032369837
0.40799056
0.41362436
0.033332309
0.019546752
0.0079900131
0.0013341498
0.0013527177
0.0081810622
0.020015134
0.034110008
0.4210081
0.42521767
0.034345885
0.02016356
0.0082458622
0.0013608344
0.0013632996
0.0082622186
0.020194468
0.034377757
0.42778344
0.42923684
0.034347416
0.020184452
0.0082611578
0.0013640146
0.0013646077
0.0082624226
0.020183125
0.034334811
0.43017743
0.43083928
0.034338936
0.020187842
0.0082652824
0.0013651486
0.0013659655
0.0082729297
0.020205777
0.034365972
0.43138516
0.43188875
0.034396736
0.020223831
0.008280366
0.0013666722
0.0013675877
0.0082905884
0.020248816
0.034437419
0.43241139
0.43294791
0.034477199
0.020271969
0.0083000338
0.0013683837
0.0013693922
0.0083120756
0.020301417
0.034525521
0.43353424
0.43416184
0.034572132
0.020328757
0.0083232899
0.0013702905
0.0013714164
0.0083372774
0.020362987
0.034628426
0.43484083
0.43556752
0.034682543
0.02039487
0.0083503739
0.0013724359
0.0013736838
0.0083662004
0.020433486
0.034745976
0.43635228
0.43719114
0.034808522
0.020470357
0.0083812959
0.0013748354
0.0013762015
0.0083988038
0.020513015
0.034878712
0.43810136
0.43906847
0.034948177
0.020554152
0.008415693
0.0013774812
0.00137898
0.0084351829
0.020601812
0.035026883
0.44010124
0.44118929
0.035104032
0.02064732
0.00845376
0.0013803712
0.0013819507
0.0084743116
0.020697434
0.03518675
0.44232678
0.44351242
0.035268528
0.020745773
0.0084940844
0.0013834339
0.0013851073
0.0085158968
0.020798986
0.035356496
0.44475028
0.44602972
0.035442364
0.020849925
0.0085368069
0.0013866796
0.0013884555
0.0085599787
0.020906536
0.035536102
0.44735984
0.44873504
0.035626542
0.020960251
0.008582046
0.0013901228
0.0013919993
0.0086064876
0.02102011
0.035725873
0.45016331
0.45164049
0.035822265
0.021077252
0.0086298303
0.001393752
0.0013956726
0.008655517
0.021140203
0.035926448
0.45316384
0.45468378
0.036032947
0.021201726
0.0086796665
0.0013973996
0.001398774
0.0086983394
0.021248027
0.036112437
0.45615598
6.9103293
6.9543447
6.9103158
6.954273
7.070381
6.9941032
6.9218513
6.944028
7.0066544
6.9941795
7.1493681
7.1504818
7.0066571
7.0774188
7.209495
7.2121044
7.2006609
7.2643274
7.2920079
7.2759634
7.2537634
7.2322569
7.2251658
7.1039286
7.226005
7.1111072
7.1261374
7.2703871
7.2599842
7.2724548
7.2128259
7.3337894
7.3142112
7.3215601
7.3632848
7.2996664
7.2894292
7.2866818
7.2627621
7.2393061
7.2543929
7.1716091
7.0795076
7.0032109
7.2068503
7.176523
7.1460554
7.1746304
6.9817556
7.0401504
6.9323075
6.8687255
6.8235046
6.8688088
7.0874918
7.1141182
7.1142446
7.0773329
6.9213789
6.8609524
6.9777555
7.0541157
0.40995547
0.031753684
0.018691022
0.0076596286
0.0012926278
0.0013214379
0.0078741082
0.019220047
0.032698804
0.41477152
0.42010159
0.033342763
0.019595278
0.0080260959
0.001339888
0.0013483854
0.0080941747
0.01975623
0.033601369
0.42395781
0.42641222
0.033631704
0.019785828
0.0081105085
0.0013508754
0.0013517871
0.0081128357
0.01978452
0.033613715
0.42783338
0.42876996
0.03359129
0.019777028
0.0081120755
0.0013521559
0.001352912
0.0081184846
0.019791112
0.033609346
0.42945058
0.43003316
0.033628047
0.019803179
0.0081240281
0.0013535188
0.0013544345
0.0081344923
0.019829088
0.033669929
0.43057997
0.43113158
0.033702684
0.019848501
0.0081426938
0.0013551594
0.0013561605
0.0081550594
0.019879473
0.03375408
0.43170813
0.43230823
0.033792444
0.019902312
0.0081647094
0.0013569632
0.0013580561
0.0081786657
0.01993716
0.033850389
0.43295376
0.43364564
0.03389504
0.019963869
0.0081899506
0.001358963
0.001360173
0.0082057428
0.02000319
0.033960344
0.434382
0.43517089
0.034012926
0.020034524
0.0082188583
0.0013611972
0.0013625076
0.0082360357
0.020077033
0.034083378
0.43601248
0.43690622
0.034142271
0.020112353
0.0082508621
0.0013636573
0.0013651066
0.0082700602
0.020159873
0.034221122
0.43786429
0.43887787
0.03428865
0.020200094
0.0082867758
0.0013663828
0.0013679302
0.0083072416
0.020250536
0.034372121
0.43994222
0.44106603
0.034446409
0.02029466
0.0083255107
0.0013693184
0.001370962
0.0083472106
0.020348031
0.034534704
0.44223608
0.44345143
0.034613563
0.020395012
0.008366709
0.0013724487
0.0013741965
0.0083897684
0.020451719
0.034707528
0.44472912
0.44605724
0.034790518
0.020501396
0.0084104466
0.0013757785
0.0013776268
0.0084349046
0.020561666
0.034890624
0.44744115
0.44887738
0.034979474
0.02061454
0.0084567519
0.0013792849
0.0013811716
0.0084817331
0.020675941
0.035081083
0.45036217
0.45188663
0.03517647
0.020732322
0.0085046303
0.0013828608
0.0013846099
0.0085282637
0.020790338
0.035272952
0.4534408
0.45499804
0.035367022
0.020843955
0.0085492976
0.0013860878
0.0013841471
0.008523365
0.020779167
0.035256809
0.45322005
0.45182642
0.035175628
0.020731588
0.0085040012
0.0013827367
0.0013810831
0.0084810439
0.0206746
0.035079265
0.45036593
0.44890381
0.034980771
0.020615278
0.0084566368
0.0013792536
0.0013775844
0.0084343655
0.020560493
0.034889015
0.4475225
0.44616677
0.034797085
0.020504986
0.0084114153
0.0013758188
0.0013742303
0.0083902165
0.020452818
0.03470943
0.4448888
0.44362031
0.034620388
0.020399136
0.0083680681
0.0013725346
0.0013710283
0.0083479595
0.020349597
0.034537115
0.4424075
0.44124281
0.034454957
0.020299962
0.0083274264
0.0013694455
0.0013680534
0.0083088665
0.020254146
0.03437776
0.44013166
0.43904746
0.034299673
0.020206966
0.0082893606
0.0013665591
0.0013652606
0.0082719416
0.020164083
0.034227691
0.43803534
0.43706159
0.03415597
0.020120629
0.0082539325
0.0013638741
0.001362696
0.0082382814
0.020082055
0.034091172
0.43617285
0.43531705
0.034028324
0.020043769
0.0082223108
0.0013614451
0.0013604038
0.0082086229
0.02000993
0.033971251
0.43457384
0.43381486
0.033911563
0.019973934
0.0081937762
0.0013592423
0.0013582933
0.0081814933
0.019943518
0.033860234
0.43311408
0.43245103
0.033807657
0.019911709
0.008168323
0.0013572339
0.0013563789
0.0081575604
0.019884924
0.033762305
0.43184686
0.43128415
0.033718454
0.019858116
0.0081463391
0.0013554272
0.0013546703
0.0081373296
0.019835562
0.033680179
0.43075157
0.43019427
0.033642238
0.019812094
0.0081274781
0.0013537827
0.0013531475
0.0081212671
0.019797532
0.033619732
0.42963766
0.428959
0.033609637
0.019788002
0.0081161835
0.0013524621
0.0013520807
0.0081163042
0.019792783
0.033627284
0.42805615
0.42661807
0.03365313
0.019798476
0.0081152404
0.0013512621
0.0013488044
0.0080986929
0.019767855
0.033621801
0.42413866
0.42003741
0.033373936
0.019611144
0.0080311778
0.0013404818
0.0013220495
0.0078796301
0.019239341
0.032741101
0.41426874
0.40789418
0.03175301
0.018668884
0.0076459977
0.0012925402
0.0012479455
0.0072108893
0.017603712
0.029976481
0.39480179
0.40943955
0.033607414
0.019683574
0.0079954538
0.0013164442
0.0013008764
0.0078193212
0.019079423
0.032433618
0.41015086
0.41284305
0.033231594
0.019483797
0.007965849
0.0013352209
0.0013531508
0.0081741798
0.019998223
0.034080084
0.42058633
0.42467162
0.034303284
0.020137946
0.0082357748
0.0013609885
0.0013633457
0.0082551564
0.020177624
0.034350728
0.42733806
0.42886015
0.034318498
0.02016675
0.0082540047
0.0013639462
0.0013645507
0.0082573552
0.020171278
0.034316166
0.42986242
0.43056817
0.034320485
0.020176136
0.0082603847
0.0013650403
0.0013658525
0.0082688443
0.02019624
0.034350989
0.43113689
0.43165961
0.034380925
0.020213832
0.0082762276
0.0013665281
0.001367459
0.0082872278
0.020240992
0.034425244
0.43220892
0.43278589
0.034462221
0.020262798
0.008296391
0.0013682327
0.0013692933
0.0083097536
0.02029614
0.034517476
0.4333884
0.43402579
0.034561139
0.020321986
0.0083205679
0.0013701645
0.0013713202
0.008335365
0.020358673
0.0346219
0.4347157
0.43546776
0.034672635
0.020388791
0.0083479692
0.0013723127
0.0013735997
0.0083647431
0.020430382
0.034741617
0.43626316
0.43711027
0.034799358
0.020464781
0.0083791249
0.0013747169
0.0013761287
0.0083976726
0.020510649
0.034875449
0.43802167
0.43899138
0.034940777
0.020549598
0.008413908
0.0013773763
0.001378915
0.0084342666
0.020600011
0.035024616
0.44002334
0.44110234
0.035097151
0.020643152
0.0084521478
0.0013802782
0.0013819092
0.0084736734
0.020696305
0.035185574
0.44223741
0.44341853
0.035263338
0.020742599
0.0084928696
0.0013833748
0.0013851106
0.0085157212
0.020798912
0.035356837
0.44464552
0.44593308
0.03544113
0.02084889
0.0085363489
0.0013866801
0.0013884921
0.00856018
0.020907564
0.035538634
0.44728265
0.44867743
0.03562573
0.020959424
0.0085816461
0.0013901307
0.0013920198
0.0086065563
0.021020873
0.03572804
0.45011095
0.4515759
0.035820057
0.021075479
0.0086289812
0.0013937137
0.0013956216
0.0086542307
0.021137224
0.035921621
0.45304945
0.45449086
0.036030593
0.02120067
0.0086793911
0.0013973694
0.0013987316
0.0087007702
0.021245592
0.036101321
0.45587957
0.0013840636
0.0085218724
0.020775606
0.035250948
0.45317038
0.45179406
0.035169475
0.020727596
0.0085022988
0.0013826302
0.0013809651
0.0084794015
0.02067061
0.035072904
0.45034512
0.4489055
0.03497821
0.020613639
0.0084559644
0.0013791751
0.0013775595
0.0084344301
0.020560687
0.034889316
0.44755007
0.44620945
0.03479927
0.020506354
0.0084119789
0.0013758393
0.001374299
0.0083913544
0.020455663
0.034714141
0.44492966
0.44365292
0.034624677
0.020401943
0.008369284
0.0013726243
0.0013711446
0.0083493901
0.020353222
0.034543191
0.44243105
0.44123509
0.034455915
0.020300605
0.0083277083
0.0013695191
0.0013680876
0.0083086389
0.020253798
0.034377697
0.44009924
0.43901034
0.03429558
0.020204466
0.008288387
0.0013665339
0.0013652245
0.0082713232
0.020162613
0.034225548
0.43799854
0.4370254
0.034154425
0.0201196
0.0082534828
0.0013638431
0.0013626756
0.0082380192
0.020081586
0.034090666
0.4361573
0.43532027
0.034027297
0.020043116
0.0082220297
0.0013614277
0.0013603864
0.0082082898
0.020009144
0.033969976
0.43454154
0.43377601
0.033908331
0.019972152
0.0081931186
0.0013592102
0.0013582526
0.0081807052
0.019941524
0.03385688
0.4330565
0.43238736
0.033802058
0.019908528
0.0081671195
0.0013571715
0.0013563159
0.0081564243
0.019882175
0.033757873
0.43178127
0.43121156
0.033711737
0.019854255
0.008144841
0.0013553492
0.0013545967
0.0081359111
0.019832161
0.033674695
0.43066927
0.43012219
0.033636033
0.019808382
0.0081259664
0.0013537118
0.0013530886
0.0081198508
0.019794189
0.033614392
0.42955518
0.42889301
0.033604509
0.019784854
0.0081148559
0.0013524205
0.0013520528
0.0081149868
0.019789636
0.033622154
0.42797069
0.42653637
0.033646381
0.019794477
0.0081136151
0.0013512325
0.0013487887
0.0080972286
0.019764238
0.03361571
0.42406968
0.42001553
0.033370852
0.01960943
0.0080305077
0.0013405176
0.0013221952
0.0078804771
0.019241315
0.032744204
0.41437092
0.40818663
0.031772429
0.018680062
0.0076505679
0.0012930403
0.0012497557
0.0072473345
0.017692469
0.030117713
0.39611646
0.43877625
0.027215781
0.016001749
0.006567138
0.001210477
0.0012872115
0.0076231567
0.018641922
0.031667763
0.40333262
0.40824829
0.031764712
0.018707593
0.0076511509
0.0012850429
0.0012915665
0.0076563866
0.018684214
0.031745517
0.40977574
0.4148037
0.032700147
0.019220913
0.0078749534
0.0013210897
0.0013398366
0.0080285502
0.019602388
0.033354943
0.42017174
0.42407998