/*--------------------------------*- C++ -*----------------------------------*\
  =========                 |
  \\      /  F ield         | OpenFOAM: The Open Source CFD Toolbox
   \\    /   O peration     | Website:  https://openfoam.org
    \\  /    A nd           | Version:  7
     \\/     M anipulation  |
\*---------------------------------------------------------------------------*/
FoamFile
{
    version     2.0;
    format      ascii;
    class       volVectorField;
    location    "150";
    object      U;
}
// * * * * * * * * * * * * * * * * * * * * * * * * * * * * * * * * * * * * * //

dimensions      [0 1 -1 0 0 0 0];

internalField   nonuniform List<vector> 
25201
(
(120.03483 0.016597819 0.011613654)
(120.03678 0.022241842 0.0054385893)
(120.03456 0.011934785 0.016341605)
(120.03586 0.005401595 0.021816184)
(120.01885 0.018516412 0.017989531)
(120.0325 0.012644214 0.016457064)
(120.03504 0.014572965 0.014084729)
(120.03791 0.019768452 0.019529923)
(120.03697 0.014395097 0.01933795)
(120.02331 0.013398988 0.013337717)
(120.03719 0.019601037 0.014299522)
(120.03297 0.016919656 0.012125704)
(120.02598 0.023371219 0.010867866)
(119.99484 0.086382578 0.047418884)
(119.98693 0.1038982 0.045994398)
(120.02399 0.024300903 0.032968177)
(120.01712 0.024766916 0.043505157)
(120.01438 0.039098855 0.050360053)
(120.02192 0.039454444 0.065504986)
(120.01115 0.054752321 0.096093563)
(120.01789 0.039583528 0.078702639)
(120.00093 0.034476538 0.0700689)
(120.00626 0.034895614 0.058709681)
(119.9976 0.047327738 0.07148909)
(120.01555 0.054300099 0.081383407)
(120.01026 0.072657524 0.098026046)
(120.00468 0.068948194 0.067263119)
(120.01122 0.020316494 0.057339029)
(120.00498 0.0078794137 0.067620844)
(120.00308 0.021144129 0.1172772)
(120.00742 0.030981926 0.10710308)
(120.01372 0.037639434 0.092347651)
(119.98583 0.030759812 0.15345831)
(119.99425 0.044787593 0.1369289)
(120.00336 0.053255503 0.11773772)
(119.98277 0.044572085 0.10013625)
(119.99574 0.031863801 0.080785361)
(119.98911 0.025865138 0.092218169)
(119.97372 0.036828722 0.11421463)
(119.96563 0.024751683 0.12603762)
(119.98451 0.017330329 0.099596454)
(119.98106 0.0056197172 0.10454205)
(119.99945 0.0070438895 0.12396659)
(119.98066 0.010536871 0.16196613)
(119.96096 0.0083062406 0.13194)
(119.95174 0.0062441066 0.10577595)
(119.97006 0.0046114292 0.085471758)
(119.98769 0.0057782325 0.050497502)
(120.01682 0.0044485703 0.029423347)
(120.02486 0.01099102 0.022614249)
(120.02954 0.010533748 0.021652381)
(120.02171 0.0034194142 0.023481781)
(119.99146 0.0061557532 0.022320708)
(119.99882 0.0095279522 0.020275025)
(120.0109 0.011555297 0.018183041)
(120.00897 0.014506522 0.022492993)
(120.01317 0.020102164 0.029382694)
(120.00182 0.019672698 0.036298647)
(119.99662 0.013360739 0.028051737)
(119.97576 0.019793511 0.034368481)
(119.9879 0.024424077 0.0423376)
(119.99601 0.02896592 0.038980489)
(119.98932 0.020191377 0.026302871)
(119.99079 0.012546415 0.01694375)
(119.99557 0.0072136522 0.010209488)
(120.01587 0.0086031409 0.013960982)
(120.00416 0.0065693431 0.014365941)
(119.98152 0.0056278673 0.010825439)
(119.97582 0.010453086 0.019486629)
(119.96485 0.0074208252 0.022835537)
(119.96367 0.014632678 0.042999298)
(119.97574 0.020953019 0.055874866)
(119.99427 0.014723537 0.044756498)
(119.9891 0.0092301247 0.032448459)
(119.98306 0.0033950023 0.035622605)
(119.9558 0.0053496489 0.047733851)
(119.96553 0.010686103 0.065620146)
(119.96944 0.016549478 0.062251573)
(119.97761 0.021426249 0.076694131)
(119.98403 0.026499249 0.068122339)
(119.98954 0.029162993 0.060188001)
(119.99605 0.030004994 0.051322877)
(119.98571 0.039812567 0.061084114)
(119.97758 0.032747348 0.04970092)
(119.97097 0.031321358 0.058579409)
(119.98095 0.023758722 0.05007167)
(119.97934 0.037985381 0.071361707)
(119.99165 0.047038936 0.083823651)
(119.99314 0.063540801 0.098888626)
(119.99059 0.061823653 0.083208873)
(119.98447 0.057460598 0.089580247)
(119.96888 0.052052945 0.082163515)
(119.97849 0.056030381 0.099344609)
(119.98765 0.061783872 0.10918509)
(119.99762 0.067334235 0.11826551)
(120.0027 0.068648376 0.1067467)
(120.01558 0.074370586 0.11476631)
(120.01071 0.073041533 0.12697723)
(120.00344 0.085129226 0.14184687)
(120.00877 0.086353715 0.1285022)
(119.99586 0.079582351 0.11912059)
(119.99058 0.078446882 0.1317474)
(119.98088 0.071091761 0.12010818)
(119.98584 0.07329871 0.10935357)
(119.97724 0.066753756 0.09867874)
(119.97196 0.064947616 0.10908719)
(119.96346 0.074078471 0.11704182)
(119.97028 0.07467503 0.10618718)
(119.97614 0.082529597 0.099465938)
(119.99573 0.10059877 0.11974951)
(120.00126 0.10042324 0.14053552)
(119.98774 0.091538667 0.12902382)
(119.98 0.093391942 0.14439466)
(119.99278 0.10238451 0.1571786)
(119.97886 0.11957796 0.17214756)
(119.98892 0.11918448 0.15340613)
(119.97594 0.10768356 0.13980048)
(119.96641 0.10817752 0.15693761)
(119.95776 0.095658131 0.14151024)
(119.9704 0.083341162 0.13092304)
(119.97813 0.083358976 0.11822196)
(119.96661 0.0971516 0.12748676)
(119.96006 0.086226338 0.11375882)
(119.95201 0.085152321 0.12632407)
(119.9386 0.099237063 0.13356945)
(119.95044 0.098750578 0.11906854)
(119.96099 0.10805935 0.10781244)
(119.9771 0.10077541 0.08246955)
(119.99228 0.085075183 0.061582847)
(119.97881 0.11964566 0.039350151)
(119.97138 0.13376551 0.028327102)
(119.96712 0.14217823 0.012512221)
(119.95457 0.1154855 0.010728455)
(119.95845 0.10911439 0.023066237)
(119.96556 0.098663676 0.03208313)
(119.97302 0.086903315 0.037745726)
(119.98143 0.073756493 0.039326239)
(119.98724 0.062703976 0.040347811)
(119.99678 0.039945037 0.028841532)
(120.01418 0.030349307 0.019751427)
(120.00953 0.023212201 0.014737623)
(119.98965 0.026748679 0.020683709)
(119.97624 0.03556445 0.021237703)
(119.98916 0.043790077 0.025195877)
(120.00372 0.037757982 0.020006562)
(119.9975 0.029293957 0.014205227)
(119.99916 0.021170649 0.010431637)
(120.01119 0.018658616 0.011951018)
(120.02996 0.022248415 0.010807441)
(120.01599 0.014267223 0.0090257346)
(119.99558 0.010239079 0.0077853958)
(119.9909 0.017129497 0.013148228)
(119.97584 0.020161795 0.01179241)
(119.98136 0.011179956 0.0067035201)
(120.00421 0.014968997 0.0073658478)
(119.9972 0.015825232 0.0052686944)
(120.02218 0.024787752 0.0041985875)
(120.0187 0.031149222 0.0051142258)
(119.99682 0.047317193 0.015915932)
(119.99013 0.034612825 0.010685474)
(119.96399 0.045796331 0.017206838)
(119.9775 0.058776852 0.022876288)
(119.98248 0.052131199 0.025068603)
(119.99197 0.062434208 0.029991017)
(119.99789 0.052958982 0.030224416)
(119.98694 0.07123834 0.0279508)
(119.98093 0.081101604 0.02358662)
(119.97125 0.066355527 0.019070917)
(119.95723 0.079458271 0.025938282)
(119.96462 0.070542783 0.030378939)
(119.9722 0.060623654 0.033056325)
(119.97854 0.05101542 0.033812569)
(119.97086 0.055502993 0.042148461)
(119.9816 0.047428941 0.047044848)
(119.97311 0.029002166 0.029284554)
(119.96698 0.032382797 0.043349756)
(119.97026 0.040997884 0.054571841)
(119.97797 0.051506991 0.068899208)
(119.96468 0.064503749 0.079826934)
(119.95927 0.05170279 0.061763237)
(119.9507 0.051069425 0.073110889)
(119.95994 0.05799773 0.083921646)
(119.96419 0.066665367 0.09589533)
(119.95679 0.065541133 0.10504204)
(119.95327 0.057669618 0.09283158)
(119.94542 0.06581487 0.098785907)
(119.95172 0.067038474 0.089343287)
(119.95521 0.076035989 0.10161797)
(119.94825 0.073924299 0.11144443)
(119.93682 0.085291666 0.11704956)
(119.9471 0.08641555 0.10561712)
(119.95274 0.082852184 0.083302318)
(119.9653 0.080569234 0.065271884)
(119.97906 0.070292747 0.052138552)
(119.97043 0.084394707 0.053910369)
(119.98683 0.091962665 0.058137824)
(119.99603 0.10135171 0.063554425)
(119.95991 0.14383726 0.09757372)
(119.96819 0.12921815 0.098035141)
(119.98019 0.12034497 0.083913506)
(119.98835 0.11166115 0.073607587)
(119.97922 0.10082607 0.067705712)
(119.97438 0.11181603 0.06653984)
(119.98124 0.10219977 0.057308395)
(119.99112 0.11209612 0.062398141)
(119.98395 0.12296594 0.072087501)
(119.97302 0.13360885 0.08477713)
(119.96546 0.11951799 0.076080964)
(119.97186 0.10803635 0.075865295)
(119.96123 0.11515605 0.087698401)
(119.95357 0.12834436 0.087585125)
(119.9397 0.13489003 0.10208249)
(119.95118 0.11983256 0.1003453)
(119.95716 0.13559972 0.11326916)
(119.96598 0.15026486 0.1260303)
(119.98041 0.13422393 0.13267328)
(120.03576 -0.0055766998 0.021658981)
(120.03454 -0.012036988 0.016037108)
(120.03339 -0.011942704 0.018664763)
(120.01047 -0.020329963 0.056642325)
(120.00476 -0.0079074227 0.067357832)
(119.99928 -0.0068895268 0.12372034)
(119.99319 -0.044515392 0.13536798)
(120.00647 -0.030714352 0.10608581)
(120.00249 -0.020919986 0.11656887)
(119.98416 -0.017514482 0.098862979)
(119.98096 -0.0058756258 0.10429915)
(119.96087 -0.00885339 0.13155417)
(119.98047 -0.01066067 0.16155002)
(119.98521 -0.030687431 0.15235501)
(119.96532 -0.025131393 0.12499521)
(119.97316 -0.036993794 0.11267147)
(119.98855 -0.025967124 0.091144548)
(119.99496 -0.031903209 0.07944033)
(120.01244 -0.037381709 0.09111188)
(120.00191 -0.052890044 0.11593844)
(119.98198 -0.044567739 0.098296982)
(119.99071 -0.046996855 0.081753947)
(120.00005 -0.034519677 0.06852314)
(120.01617 -0.024912323 0.04248389)
(99.516238 0.10377834 0.22440796)
(107.39194 0.12215109 0.24382968)
(110.19416 0.12920573 0.2535611)
(111.7059 0.1305555 0.25982872)
(117.57023 0.045841149 0.20991785)
(118.08694 -0.16247838 0.12603503)
(112.89942 -0.17180323 0.26050823)
(111.4713 -0.16851564 0.28808915)
(108.72355 -0.16826389 0.31330699)
(100.75596 -0.18050295 0.32546112)
(100.70611 -0.067454284 0.10032263)
(108.57033 -0.070404109 0.10834739)
(111.31371 -0.069415466 0.10472985)
(112.76557 -0.067931455 0.09931423)
(118.11212 -0.079154041 0.062118173)
(118.24613 -0.067815782 0.042930918)
(112.93757 -0.069169356 0.077586694)
(111.49174 -0.070028964 0.084053781)
(108.75333 -0.071889912 0.090146824)
(100.88562 -0.074476918 0.096424452)
(100.93275 -0.045584125 0.05732335)
(108.79174 -0.046095918 0.056462007)
(111.5287 -0.04548477 0.053684931)
(112.97481 -0.04505509 0.050371864)
(118.31207 -0.048763952 0.028571062)
(118.37783 -0.038205248 0.021271656)
(113.03557 -0.035826355 0.038998724)
(111.59142 -0.036084007 0.041964628)
(108.85555 -0.036642641 0.044737181)
(100.99421 -0.037321372 0.047052433)
(101.03451 -0.027496067 0.034429096)
(108.89524 -0.027478854 0.033350868)
(111.63059 -0.027221698 0.031434488)
(113.07369 -0.027120219 0.029295077)
(118.42328 -0.029509241 0.016135429)
(118.46071 -0.023368664 0.012629815)
(113.1103 -0.021558076 0.02284959)
(111.66797 -0.021567411 0.02459513)
(108.9332 -0.021725469 0.026222635)
(101.07199 -0.021877587 0.027360555)
(101.10331 -0.017255725 0.021486882)
(108.96312 -0.017190509 0.020643776)
(111.69729 -0.017101147 0.019366684)
(113.13888 -0.017121866 0.018003444)
(118.4891 -0.018520333 0.010134342)
(118.51183 -0.014816364 0.0082727976)
(113.16324 -0.013805544 0.01439371)
(111.72206 -0.013771645 0.01548438)
(108.9886 -0.01382518 0.016524738)
(101.12993 -0.013882734 0.017231158)
(101.15361 -0.011248601 0.013903769)
(109.00969 -0.01120591 0.013333396)
(111.74229 -0.011169368 0.012494432)
(113.18281 -0.011198511 0.01162791)
(118.52969 -0.011896446 0.0068633927)
(118.54397 -0.009605107 0.0057653772)
(113.19894 -0.0091650937 0.009470859)
(111.75878 -0.009141372 0.010163158)
(109.02715 -0.0091656554 0.010846789)
(101.17337 -0.0092016573 0.011317302)
(101.19187 -0.0075861196 0.0092708598)
(109.04202 -0.0075533614 0.0088782221)
(111.77249 -0.0075358794 0.0083183027)
(113.21197 -0.0075524281 0.0077658103)
(118.55525 -0.0077758785 0.0049029256)
(118.56422 -0.006308632 0.0042266822)
(113.22268 -0.0062684218 0.0064177503)
(111.78358 -0.0062592241 0.0068591633)
(109.05435 -0.0062747732 0.0073225029)
(101.20746 -0.0063108911 0.0076620081)
(101.22285 -0.0052916864 0.0063828908)
(109.06519 -0.0052527996 0.006082827)
(111.79299 -0.0052362895 0.0056962758)
(113.23136 -0.0052381049 0.005344219)
(118.57122 -0.0051173818 0.0036968763)
(118.57669 -0.0041452213 0.0032770989)
(113.23857 -0.0044111141 0.0044964226)
(111.80065 -0.0044169454 0.0047787778)
(109.07439 -0.0044349794 0.0051046338)
(101.23624 -0.0044724724 0.0053687602)
(101.25011 -0.0038109768 0.0045727391)
(109.08282 -0.0037759989 0.0043398865)
(111.80735 -0.0037568166 0.0040603468)
(113.24448 -0.0037423323 0.0038305985)
(118.58085 -0.0033430078 0.0029372752)
(118.58398 -0.0026741201 0.0026611021)
(113.24946 -0.0031954592 0.0033253491)
(111.81287 -0.0032188621 0.0035188234)
(109.09019 -0.0032375529 0.0037637291)
(101.2626 -0.0032722147 0.0039648021)
(101.27588 -0.0028674618 0.0034737917)
(109.0972 -0.0028440703 0.0033038723)
(111.81786 -0.0028265265 0.0030876035)
(113.25359 -0.0027927629 0.0029204113)
(118.58619 -0.0021454822 0.0024287612)
(118.58769 -0.0017371369 0.002276406)
(113.2572 -0.0025105057 0.0026601529)
(111.82211 -0.0025534458 0.0028141275)
(109.10358 -0.002568983 0.0030155317)
(101.28815 -0.0025882775 0.0031612247)
(101.30151 -0.0024312958 0.0029476004)
(109.11 -0.0024056678 0.0028065088)
(111.82627 -0.0023839614 0.0026120461)
(113.26042 -0.0023305016 0.0024671429)
(118.58861 -0.0014356703 0.0021814572)
(118.58904 -0.0011827016 0.0020163416)
(113.26338 -0.0021564184 0.0021747313)
(111.82998 -0.0022112168 0.0023022802)
(109.11611 -0.0022291049 0.0024835973)
(101.31423 -0.0022550774 0.0026297942)
(101.32796 -0.0021230246 0.0024225269)
(109.12228 -0.0020953875 0.002254852)
(111.83364 -0.0020762019 0.0020640324)
(113.266 -0.0020147414 0.0019378829)
(118.58897 -0.00094918217 0.0018259331)
(118.5886 -0.00066756906 0.0017010964)
(113.26866 -0.0017769595 0.0018660216)
(111.83715 -0.001838858 0.0019984662)
(109.12841 -0.0018500464 0.0021998445)
(101.34123 -0.0019008668 0.0023512669)
(101.35577 -0.0018575702 0.0022791065)
(109.13485 -0.0018076257 0.0021205299)
(111.84087 -0.0017857011 0.0019078868)
(113.27125 -0.0017120122 0.0017664549)
(118.58799 -0.00049786168 0.0015787459)
(118.58711 -0.00040001558 0.0014150916)
(113.27364 -0.0016364048 0.0015219918)
(111.84417 -0.0017015751 0.0016602619)
(109.14095 -0.0017106563 0.0018658391)
(101.36953 -0.0017353591 0.0020161681)
(101.38431 -0.0015430537 0.0017197564)
(109.14724 -0.0015818575 0.0016067701)
(111.84759 -0.0016115669 0.0014231498)
(113.27588 -0.0015676849 0.0012925173)
(118.58593 -0.00037173522 0.0012726916)
(118.58471 -0.00039446524 0.0011451075)
(113.27842 -0.0013936144 0.0010570036)
(111.85113 -0.0013873464 0.0011756157)
(109.1537 -0.0013036649 0.0013394304)
(101.39863 -0.0012326621 0.0014762468)
(101.41462 -0.00060621258 0.00068955153)
(109.16108 -0.00071891865 0.00072226219)
(111.85548 -0.00090369728 0.00061025828)
(113.28149 -0.001012159 0.00054025769)
(118.58367 -0.00046332377 0.00087992489)
(118.58214 -0.0008311974 0.00014922057)
(113.28407 -0.00090047292 -0.00091232251)
(111.85916 -0.00071880661 -0.00096980932)
(109.16794 -0.00038551417 -0.00098005446)
(101.42998 -0.00030875183 -0.001194044)
(101.44306 -0.0015665133 -0.0021491385)
(109.17226 -0.0020624552 -0.0021438183)
(111.8606 -0.002339948 -0.0020881585)
(113.28445 -0.0024607987 -0.0019825531)
(118.57923 -0.0016090294 -0.00041709296)
(118.57638 -0.00063936927 0.00027831454)
(113.2856 -0.0010022917 -0.00070006786)
(111.86299 -0.00088113181 -0.00076173846)
(109.1771 -0.00066090722 -0.00079009895)
(101.4536 -0.00033703875 -0.00083444428)
(118.65674 -0.0010083195 0.00013061257)
(112.4083 -0.0026953244 -0.0013232173)
(110.95622 -0.0027692172 -0.0014743435)
(108.20551 -0.0027103666 -0.0015834091)
(100.35529 -0.002190777 -0.001496735)
(100.34571 -0.0047646975 -0.0009259513)
(108.20146 -0.0052318889 -0.0010977393)
(110.95454 -0.0052098238 -0.0010863391)
(112.40779 -0.0050021334 -0.001010261)
(118.65978 -0.001930206 0.00014244699)
(118.66297 -0.00064960876 0.00040391579)
(112.4082 -0.0023922134 -0.0005669063)
(110.95402 -0.0024540446 -0.00063495995)
(108.19806 -0.0023605485 -0.0006605988)
(100.33287 -0.0025716179 -0.00089158459)
(100.31587 0.00024854211 0.00055628903)
(108.19056 0.00059880657 0.00073007495)
(110.95009 0.00034816353 0.00067513726)
(112.40539 0.00022607298 0.00065690142)
(118.66464 0.0004273772 0.00097139173)
(118.66559 0.00033088361 0.0010969466)
(112.40099 9.0009996e-05 0.0010803074)
(110.94429 0.00024049192 0.0011740906)
(108.18142 0.00044427922 0.0013107286)
(100.29732 0.00049713206 0.0013474091)
(100.28082 0.00029732537 0.0015258195)
(108.17338 0.00020143446 0.0014516613)
(110.93957 -1.2297452e-06 0.0013095584)
(112.39739 -0.00014845281 0.0012068177)
(118.66686 0.00012528804 0.0011399328)
(118.66816 4.1172664e-06 0.0012516521)
(112.39435 -0.00026399741 0.001440786)
(110.9353 -0.00012120368 0.0015622231)
(108.16606 7.3984703e-05 0.0017260289)
(100.26442 0.00015100957 0.0018149452)
(100.24863 2.1349284e-05 0.002186134)
(108.15856 -5.6929705e-05 0.0020763426)
(110.93097 -0.00025200235 0.0019002499)
(112.39105 -0.00039705794 0.0017654482)
(118.66916 -0.00016690845 0.0014169218)
(118.66989 -0.00044281553 0.0015763733)
(112.38774 -0.00074494178 0.0019264197)
(110.92647 -0.00061988756 0.0020604615)
(108.15119 -0.00044332397 0.0022336846)
(100.2327 -0.00031354468 0.0023688497)
(100.21806 -0.0010005834 0.002754912)
(108.14412 -0.0011143517 0.0025824326)
(110.92231 -0.0012255445 0.0024076518)
(112.38452 -0.0012799557 0.0022756984)
(118.6704 -0.00070761266 0.0018751773)
(118.67054 -0.00087473642 0.0022125151)
(112.38162 -0.001603597 0.0027800455)
(110.91839 -0.0016035178 0.0029220486)
(108.13765 -0.0015390405 0.0031021328)
(100.20371 -0.0014890793 0.0032242648)
(100.19003 -0.0016429352 0.0035623976)
(108.13098 -0.0016617146 0.0034848629)
(110.91437 -0.0017126998 0.00330418)
(112.37839 -0.0017027097 0.0031541232)
(118.67015 -0.0010325468 0.0024603857)
(118.66929 -0.0013850091 0.0025795245)
(112.37504 -0.0018842186 0.0033747741)
(110.91009 -0.0018725125 0.0035413833)
(108.12437 -0.0018037305 0.0037477071)
(100.1761 -0.0017788749 0.003876987)
(100.16301 -0.002036834 0.004384554)
(108.11762 -0.0020654696 0.0042201785)
(110.90572 -0.0021354409 0.0039858644)
(112.37137 -0.0021586041 0.0037975463)
(118.66793 -0.0018493506 0.0028152087)
(118.66588 -0.0024052404 0.0031383239)
(112.36725 -0.0024894457 0.0043313716)
(110.90078 -0.0024514424 0.0045421273)
(108.11064 -0.0023763633 0.0048012941)
(100.14945 -0.0023446927 0.0049812552)
(100.13618 -0.0027046158 0.005717756)
(108.10288 -0.0027352495 0.005522509)
(110.89512 -0.0028192561 0.0052344793)
(112.36221 -0.0028771718 0.0049950176)
(118.66296 -0.0030725955 0.0035432404)
(118.65901 -0.0038698975 0.0040356778)
(112.35638 -0.003347055 0.0058076499)
(110.88859 -0.0032641454 0.0060842405)
(108.09469 -0.0031628431 0.0064070072)
(100.12249 -0.0031253473 0.0066164102)
(100.10865 -0.0036356042 0.007736666)
(108.08532 -0.0036878183 0.0075133555)
(110.88095 -0.0038146705 0.0071464193)
(112.34928 -0.0039297376 0.006819645)
(118.65382 -0.0048397219 0.0046376723)
(118.64713 -0.0060380422 0.0053897827)
(112.34082 -0.0046709984 0.0081230955)
(110.87183 -0.0045169563 0.0085195563)
(108.07481 -0.0043574396 0.0089446562)
(100.09348 -0.0042831804 0.0091848933)
(100.07743 -0.0051081845 0.011048988)
(108.06238 -0.0052139037 0.010789183)
(110.86088 -0.00541321 0.010286754)
(112.33034 -0.0056132585 0.0097966186)
(118.63859 -0.0075178041 0.0063331442)
(118.62784 -0.00937332 0.0075201593)
(112.31768 -0.0068165847 0.011954261)
(110.84758 -0.0065634836 0.01257052)
(108.04792 -0.0063199793 0.013180898)
(100.0591 -0.0061819787 0.013481927)
(100.03908 -0.007526914 0.01650585)
(108.0306 -0.0077025876 0.0161618)
(110.83148 -0.0079958628 0.015418411)
(112.30204 -0.0083114291 0.01464803)
(118.61426 -0.011687745 0.0090075959)
(118.59731 -0.014631064 0.01089412)
(112.28326 -0.01020769 0.018057166)
(110.81207 -0.0098132888 0.019022876)
(108.01031 -0.0094578203 0.019940191)
(100.01593 -0.0092419879 0.020357709)
(99.989739 -0.011408167 0.025232078)
(107.98563 -0.011676092 0.024746527)
(110.78833 -0.012089077 0.0236275)
(112.26002 -0.012563839 0.022428535)
(118.57581 -0.018350728 0.013353351)
(118.54906 -0.023209074 0.016593061)
(112.23308 -0.015716809 0.028235884)
(110.76065 -0.015140654 0.02976147)
(107.95734 -0.014652623 0.03118233)
(99.959823 -0.014347837 0.031855381)
(99.924188 -0.017897454 0.03988766)
(107.92166 -0.018345019 0.03928882)
(110.72579 -0.018854604 0.037615151)
(112.19912 -0.019491284 0.035747566)
(118.51411 -0.029268722 0.020970676)
(118.47177 -0.037745984 0.027019089)
(112.16373 -0.025439535 0.046693686)
(110.68914 -0.024677087 0.049240231)
(107.88436 -0.024092212 0.051627272)
(99.886354 -0.023787397 0.053068425)
(99.832324 -0.028502499 0.063874932)
(107.82956 -0.029570624 0.063830135)
(110.63575 -0.030193615 0.061473828)
(112.11232 -0.031050339 0.058619592)
(118.41214 -0.047273233 0.035073047)
(118.34964 -0.064355071 0.048579274)
(112.06587 -0.045581295 0.085317471)
(110.5874 -0.044442122 0.090322121)
(107.77859 -0.043517385 0.095201499)
(99.775646 -0.043493666 0.097267709)
(99.658471 -0.033402114 0.088525394)
(107.67481 -0.036641531 0.09313911)
(110.48793 -0.038585099 0.090247887)
(111.96745 -0.040888887 0.085235144)
(118.24252 -0.069783091 0.056595819)
(118.18622 -0.10666268 0.10844588)
(111.85401 -0.055974178 0.175691)
(110.36914 -0.051953667 0.18312978)
(107.5436 -0.050723835 0.18804727)
(99.511299 -0.056094965 0.18532378)
(99.726559 0.048311989 -0.14365043)
(107.72019 0.061535509 -0.11332469)
(110.49092 0.052569195 -0.094314501)
(111.92564 0.043311936 -0.078064956)
(118.01791 0.0080261429 0.017982144)
(118.22547 -0.31764039 0.63274355)
(112.35335 0.50536091 1.8962435)
(110.92361 0.63487648 2.1104771)
(107.99097 0.72247169 2.3274382)
(99.337952 0.34728264 2.3068045)
(99.447418 0.78523021 0.32589027)
(107.44644 0.73684952 0.32465022)
(110.21361 0.68621363 0.30652353)
(111.64385 0.63785302 0.28422298)
(117.71468 0.31303425 0.19866791)
(117.98139 0.099615255 0.001489881)
(111.62915 0.11573077 0.073638666)
(110.14388 0.11919538 0.07975823)
(107.3221 0.12404773 0.081378455)
(99.305368 0.12943517 0.077819457)
(99.543592 0.11983559 0.056740848)
(107.5531 0.11359117 0.051898885)
(110.36396 0.10673104 0.048484611)
(111.84258 0.10072613 0.043813157)
(118.11574 0.070378129 0.0061848221)
(118.2654 0.039041148 -0.0122602)
(111.97873 0.035511721 0.0098016131)
(110.50037 0.035797611 0.011857711)
(107.69306 0.036199936 0.013186853)
(99.695853 0.035303676 0.014442588)
(99.779095 0.029404114 0.012271033)
(107.77253 0.029020085 0.010902576)
(110.57758 0.028143949 0.0099799128)
(112.05386 0.02736781 0.0086607302)
(118.35413 0.02750712 -0.0084760218)
(118.43064 0.019214744 -0.0085166127)
(112.12197 0.016786463 0.0040180992)
(110.64744 0.016933002 0.0051030296)
(107.84329 0.017083962 0.0059109889)
(99.847835 0.01678315 0.0066493324)
(99.896287 0.012699791 0.0050258666)
(107.89182 0.012831318 0.0044372563)
(110.69542 0.012666551 0.0038050825)
(112.16863 0.012521587 0.0029755699)
(118.48403 0.014200464 -0.006590005)
(118.52657 0.010703344 -0.0054100076)
(112.21007 0.0092053985 0.0017448774)
(110.73761 0.0092395945 0.002461443)
(107.93451 0.0092874054 0.0030399145)
(99.938124 0.0091430495 0.0035118314)
(99.97279 0.0069933137 0.0026348713)
(107.96806 0.0070981057 0.0022541422)
(110.77066 0.0070689648 0.001781864)
(112.24236 0.0070528957 0.0012135183)
(118.55863 0.0081788909 -0.0041525276)
(118.58395 0.0063227588 -0.0031922466)
(112.26932 0.005468468 0.00080196992)
(110.79798 0.0054662877 0.0012614254)
(107.99607 0.0054729354 0.0016596816)
(100.00175 0.0053866933 0.001971802)
(100.02741 0.0042498055 0.0015111814)
(108.01911 0.004313973 0.00125729)
(110.82017 0.0043107992 0.00093393734)
(112.29084 0.004313371 0.00057536781)
(118.60371 0.0049206601 -0.0023719797)
(118.61939 0.0038481586 -0.0017222497)
(112.30847 0.0034344462 0.00040668434)
(110.83813 0.0034316775 0.0006857152)
(108.0381 0.0034304866 0.00095072232)
(100.04871 0.003380747 0.0011558136)
(100.06865 0.002735316 0.00088615783)
(108.05423 0.0027735591 0.00072065391)
(110.85307 0.0027754129 0.00050414081)
(112.3227 0.0027747875 0.00029027575)
(118.63175 0.0030171354 -0.0011892633)
(118.64151 0.0023716648 -0.00075841654)
(112.33439 0.0022893501 0.00020982744)
(110.86514 0.0022962168 0.00037369271)
(108.06767 0.0022962126 0.00055455068)
(100.08554 0.0022679124 0.00069352142)
(100.10225 0.001865339 0.00051954119)
(108.07953 0.0018905469 0.00040661813)
(110.87546 0.0018930964 0.00025582801)
(112.34393 0.001884162 0.00013348289)
(118.64916 0.0018537566 -0.00041547836)
(118.65512 0.0014403973 -0.0001439568)
(112.35188 0.0015834996 7.232594e-05)
(110.88386 0.0015968868 0.0001633887)
(108.08962 0.0015930523 0.00029183369)
(100.11683 0.001568166 0.00038544957)
(100.13191 0.0012731368 0.00025971482)
(108.09888 0.0013088747 0.00018263774)
(110.89127 0.0013214424 7.2456719e-05)
(112.35844 0.0013093494 6.7651849e-06)
(118.65967 0.0010974402 7.0493545e-05)
(118.66309 0.00081785337 0.00024097939)
(112.36401 0.0010864264 -5.264111e-05)
(110.89738 0.0010969531 -6.6183967e-06)
(108.10701 0.0010750513 8.9869219e-05)
(100.14548 0.0010277544 0.00015368978)
(100.16002 0.00078672975 5.0122565e-05)
(108.11479 0.00084567561 -4.4223335e-06)
(110.90299 0.00088043229 -9.2292333e-05)
(112.36869 0.00087625359 -0.00012369147)
(118.66556 0.00058663861 0.00036511133)
(118.66726 0.00039908027 0.00044563817)
(112.37279 0.00067972743 -0.00020672184)
(110.90772 0.00067303962 -0.0001864146)
(108.12186 0.0006235084 -0.00010255078)
(100.17345 0.00055737942 -5.6332738e-05)
(100.1881 0.00034411795 -0.00016820671)
(108.12891 0.0004180733 -0.00021999415)
(110.91228 0.00048219996 -0.00030230996)
(112.37633 0.00050279566 -0.0003158818)
(118.66827 0.00025114807 0.00047237517)
(118.6687 0.00010304014 0.00047531448)
(112.37954 0.00028796245 -0.00043282867)
(110.91623 0.00024673708 -0.0004203319)
(108.13549 0.00016507782 -0.00033681143)
(100.20179 6.3025766e-05 -0.00023646186)
(100.21675 -0.00043424618 -3.2912314e-05)
(108.14238 -0.00029675398 -0.00017933849)
(110.92045 -0.00018913427 -0.00027297827)
(112.38267 -0.00011368623 -0.00030608758)
(118.66863 -0.00012775075 0.00055987761)
(118.66835 -0.00039226757 0.00077413731)
(112.38625 -0.00051979239 0.00012603773)
(110.92492 -0.00062159321 0.00019594946)
(108.14972 -0.0007556609 0.00032329696)
(100.23165 -0.00086926251 0.00042488581)
(100.2485 -0.001179299 0.00063856369)
(108.15787 -0.0011074901 0.00061747445)
(110.93007 -0.00095462129 0.0004706226)
(112.3901 -0.00083358663 0.00038543619)
(118.66787 -0.00061066272 0.00093558738)
(118.66709 -0.00069510225 0.00098059211)
(112.39388 -0.00086586067 0.00041646162)
(110.93486 -0.00098224611 0.00050680733)
(108.16581 -0.0011320895 0.00065658894)
(100.26469 -0.0012000798 0.00067599922)
(100.282 -0.0010804908 0.00076723855)
(108.17393 -0.0010239739 0.00072184914)
(110.93983 -0.00090149633 0.0005623675)
(112.39749 -0.00079911958 0.0004617479)
(118.66601 -0.00072861569 0.00099261844)
(118.66492 -0.00072008853 0.0010579566)
(112.40158 -0.00072652332 0.00063188473)
(110.94502 -0.00081881532 0.00074082963)
(108.18239 -0.00094323427 0.00091584236)
(100.29887 -0.00095922209 0.00092610316)
(100.31825 0.00020597752 0.00072133961)
(108.19224 -9.2696813e-06 0.0010958038)
(110.95144 3.2152994e-06 0.00083883104)
(112.40652 -1.1816675e-05 0.00071623693)
(118.66413 -0.00047715887 0.0010963427)
(118.6626 0.00048541775 2.4426412e-05)
(112.40966 0.0020195981 -0.0017360761)
(110.9557 0.0021768379 -0.0017650448)
(108.20013 0.0022862772 -0.0016249763)
(100.33599 0.0025632957 -0.0018305436)
(100.35006 0.002875952 -0.0040162759)
(108.20393 0.0030491576 -0.0045158086)
(110.95622 0.0029745299 -0.0045291026)
(112.40908 0.0028014599 -0.0043387805)
(118.65929 0.0010401809 -0.0012461848)
(118.65634 0.00089708227 -0.00044507055)
(112.40989 0.0028257293 -0.0023100628)
(110.95808 0.0030045495 -0.0022954118)
(108.20895 0.0031535154 -0.0021267101)
(100.36335 0.0030911097 -0.0014771571)
(100.3771 0.00048043743 -0.00020321682)
(108.21723 0.0005356494 -0.00036798994)
(110.96401 0.00056822211 -0.00049045035)
(112.41444 0.00057136709 -0.00053070351)
(118.65464 0.00012322062 0.00043374169)
(101.31834 -1.9576624e-05 -0.00050003569)
(109.04566 2.5278673e-05 -0.0006570292)
(111.736 5.3112459e-05 -0.0007575873)
(113.15972 6.4777395e-05 -0.00076771634)
(118.559 7.7687527e-06 4.1713798e-05)
(118.56074 0.00013163166 -0.001070331)
(113.15664 0.00026077791 -0.0029213483)
(111.73167 0.00024836449 -0.0029585205)
(109.03902 0.00019211107 -0.0028484429)
(101.306 6.5567636e-05 -0.0025237857)
(101.29197 -0.0015823193 -0.003324409)
(109.0334 -0.0012676102 -0.003518994)
(111.72924 -0.0010366862 -0.0036234645)
(113.15535 -0.00086206589 -0.0035771699)
(118.56352 -0.00011165576 -0.0016838384)
(118.56663 -0.00013633391 -0.00096666035)
(113.15509 -0.00039288181 -0.002462261)
(111.72782 -0.00047710822 -0.0024966774)
(109.02885 -0.00060833246 -0.0023681238)
(101.27794 -0.00070394743 -0.0023602713)
(101.26172 -0.00055059294 0.00011690438)
(109.02182 -0.00054562863 0.00030545795)
(111.72419 -0.00047750707 0.00012564472)
(113.15263 -0.00044001131 5.3296821e-05)
(118.56825 -0.00036580337 0.00061924386)
(118.56896 -0.00043661938 0.00096909765)
(113.14844 -0.00043694721 0.00034963748)
(111.71862 -0.00046345279 0.00043459792)
(109.01302 -0.00051313829 0.00061352661)
(101.24374 -0.00055573164 0.00065256758)
(101.22753 -0.00056615791 0.00064109898)
(109.00504 -0.00052140532 0.00055338093)
(111.71385 -0.00047997251 0.0004163271)
(113.14485 -0.00045617171 0.00035253522)
(118.56997 -0.00048732495 0.0010637997)
(118.57099 -0.00052390642 0.0011319091)
(113.14173 -0.00044870594 0.0004174375)
(111.70948 -0.00046597789 0.00047311929)
(108.99769 -0.00050783881 0.00059764535)
(101.21141 -0.00055079653 0.00065763446)
(101.19587 -0.00054392622 0.00062770455)
(108.99021 -0.00048725687 0.00056101967)
(111.70507 -0.00044672788 0.00044870332)
(113.13843 -0.00043692394 0.00040093151)
(118.5717 -0.00053951329 0.0010901993)
(118.57212 -0.00051253365 0.00088873993)
(113.13527 -0.0003897656 0.0001397049)
(111.70079 -0.00039569108 0.00016843516)
(108.98318 -0.00043661065 0.0002621392)
(101.18066 -0.00050626073 0.00035434336)