/*--------------------------------*- C++ -*----------------------------------*\
  =========                 |
  \\      /  F ield         | OpenFOAM: The Open Source CFD Toolbox
   \\    /   O peration     | Website:  https://openfoam.org
    \\  /    A nd           | Version:  7
     \\/     M anipulation  |
\*---------------------------------------------------------------------------*/
FoamFile
{
    version     2.0;
    format      ascii;
    class       volScalarField;
    location    "30";
    object      alphat;
}
// * * * * * * * * * * * * * * * * * * * * * * * * * * * * * * * * * * * * * //

dimensions      [1 -1 -1 0 0 0 0];

internalField   nonuniform List<scalar> 
24789
(
0.002265771
0.017100689
0.041490446
0.069620652
0.8451239
0.8440305
0.069525339
0.041435302
0.0170801
0.0022640759
0.0022639099
0.017077047
0.041427707
0.0695084
0.8434943
0.84319069
0.069472389
0.041405719
0.017068943
0.0022632095
0.0022634591
0.017071089
0.041411951
0.069480066
0.84297823
0.84280864
0.069456846
0.041396838
0.017065419
0.0022629363
0.002263188
0.017067459
0.041402698
0.069463876
0.84265476
0.84250139
0.069442434
0.041388517
0.017062142
0.0022627036
0.0022630035
0.017064678
0.041395835
0.069452301
0.84237257
0.8422302
0.069429991
0.041381211
0.017059275
0.0022625413
0.002262925
0.017062545
0.041390362
0.069443087
0.842065
0.84192899
0.069421261
0.041376424
0.017057649
0.002262559
0.0022631611
0.017063084
0.041390979
0.06944377
0.84180363
0.84173311
0.069430261
0.041381956
0.017060263
0.0022630227
0.0022639034
0.017068148
0.041402049
0.069461926
0.84169061
0.84175149
0.06946224
0.041401348
0.017068915
0.0022641571
0.0022655349
0.017081328
0.041431903
0.069511344
0.84191332
0.84225958
0.069536556
0.041446025
0.017088332
0.002266445
0.0022685904
0.01710813
0.041493738
0.069614083
0.84279816
0.84360181
0.06967764
0.041530619
0.017124645
0.0022704471
0.0022735836
0.017153954
0.041600333
0.069791776
0.84469504
0.84615459
0.069900668
0.041664577
0.017182258
0.0022766594
0.0022812206
0.017225593
0.04176699
0.070069369
0.84802058
0.85040871
0.070239515
0.041868477
0.017270045
0.0022859519
0.0022924505
0.017332605
0.042015617
0.070482733
0.85338701
0.85709415
0.070739629
0.042169843
0.017399975
0.0022994631
0.0023086002
0.017490503
0.042379768
0.071084426
0.86160032
0.8669393
0.071465739
0.042609896
0.017591231
0.0023186522
0.0023305874
0.017718856
0.04290694
0.071962618
0.87296409
0.87984604
0.072408457
0.043171658
0.017836228
0.0023415305
0.0023527317
0.017916638
0.043342993
0.072696717
0.88740477
0.8963638
0.073032114
0.04349861
0.017982037
0.0023705501
0.0024012771
0.018119712
0.044026324
0.074094617
0.91355257
0.94924791
0.077287926
0.045955642
0.01893572
0.0024758081
0.0025042613
0.019045447
0.04592417
0.076843035
0.9760056
0.98829404
0.07874591
0.047199663
0.019607103
0.0025584873
0.0025821152
0.020549505
0.050133751
0.084559041
0.95750217
1.0647847
0.073073126
0.044543591
0.018733843
0.0024848061
0.0024166274
0.018182706
0.04353995
0.072222094
1.066231
1.0422334
0.068449461
0.041195186
0.017131755
0.0023248019
0.0022654271
0.01671282
0.040151442
0.066789897
1.0163347
1.0020822
0.066279007
0.039906035
0.016637259
0.0022395556
0.0022249242
0.016581043
0.039781926
0.066025927
0.99262527
0.98367909
0.065744379
0.039597071
0.016490966
0.0022145225
0.0022034168
0.016368673
0.039317693
0.065277476
0.97573805
0.96886904
0.064822711
0.039042735
0.016248703
0.0021920828
0.0021825971
0.016152347
0.038824187
0.06446774
0.96278819
0.9576765
0.064166629
0.038638473
0.016070362
0.002174272
0.0021676321
0.016004989
0.038488447
0.063920503
0.95344006
0.95008543
0.063712383
0.038360728
0.015948994
0.0021617609
0.0021572189
0.01590467
0.038258354
0.063543513
0.94735919
0.94522963
0.063397271
0.038168726
0.015865471
0.002153056
0.0021500523
0.015836594
0.038102057
0.063287128
0.94356639
0.94229191
0.063186474
0.038040501
0.015809757
0.002147152
0.0021453266
0.015792791
0.038001713
0.063122558
0.94142076
0.94077797
0.063060614
0.037963751
0.015776134
0.0021434459
0.0021424723
0.015767386
0.037943636
0.063026905
0.94040732
0.94029652
0.062999672
0.037926264
0.015759289
0.0021414163
0.0021410575
0.015756168
0.03791869
0.062986036
0.94025565
0.94035659
0.062972055
0.037909522
0.015751778
0.0021404277
0.0021403892
0.015751493
0.037908387
0.062969037
0.94040763
0.9405501
0.062960351
0.037902551
0.01574867
0.0021399588
0.0021401135
0.015750259
0.037906086
0.06296553
0.94068326
0.94089862
0.062966814
0.03790598
0.015749707
0.0021398956
0.002140193
0.015752485
0.037912127
0.062976121
0.94110573
0.94120943
0.062976154
0.037911466
0.015751871
0.0021400093
0.0021403461
0.01575494
0.037918345
0.062986771
0.94145356
0.94157649
0.062983338
0.037915769
0.015753649
0.0021401287
0.0021404736
0.015756899
0.0379234
0.062995695
0.94172512
0.94189602
0.06299522
0.037922492
0.015756221
0.0021403044
0.0021407731
0.015761048
0.037934313
0.063015036
0.94217571
0.94275439
0.063038092
0.037946614
0.015765314
0.0021409887
0.0021421968
0.015779347
0.037982364
0.063100104
0.94370442
0.94491059
0.063153859
0.038011328
0.015790354
0.0021429924
0.0021417954
0.015774105
0.037968715
0.063074864
0.94332477
0.9424832
0.063018954
0.037935105
0.015761363
0.0021407275
0.0021407426
0.01576069
0.037933814
0.063013481
0.94204743
0.94175665
0.062986103
0.037916113
0.015753919
0.0021401406
0.0021403372
0.015755541
0.037920918
0.062991507
0.94153434
0.94129919
0.062965385
0.037904187
0.015749296
0.002139807
0.0021401253
0.015752171
0.037912076
0.062976067
0.94108994
0.9408794
0.062954172
0.037897983
0.015747044
0.0021397115
0.002140157
0.015751113
0.037908647
0.062969451
0.94072042
0.94058553
0.062956515
0.037899501
0.015747844
0.0021399096
0.002140463
0.01575271
0.037911991
0.062975132
0.94050487
0.94046386
0.062964917
0.037904912
0.015750625
0.0021403928
0.0021412946
0.015759074
0.03792608
0.062998118
0.9404693
0.94055818
0.063001415
0.037927076
0.015760412
0.002141583
0.0021429018
0.015772579
0.037956526
0.063048064
0.94078117
0.94116493
0.063070638
0.037969547
0.015779244
0.0021437646
0.0021458132
0.015798606
0.038015605
0.063144467
0.94178798
0.94268223
0.063203261
0.038050307
0.015814371
0.0021475599
0.0021505065
0.015842362
0.03811587
0.0633089
0.94393315
0.94557632
0.063409993
0.03817625
0.015869232
0.002153379
0.0021576125
0.015909992
0.03827119
0.063563882
0.94770552
0.95040162
0.063719926
0.03836544
0.015951719
0.002161996
0.002168007
0.016010264
0.038501371
0.063941244
0.95378108
0.95796205
0.064174737
0.038643417
0.016073009
0.0021744785
0.0021829215
0.016157099
0.038835951
0.064486471
0.96305013
0.96908246
0.064830646
0.039048206
0.016251567
0.0021923122
0.0022039155
0.016374993
0.039333077
0.0653019
0.97588281
0.9836335
0.06577064
0.039612358
0.016497854
0.0022150718
0.002225604
0.016590287
0.039803025
0.066064342
0.99226725
1.0014369
0.066256816
0.039892744
0.016634693
0.002240151
0.0022703562
0.01673847
0.04017409
0.066816145
1.015648
1.0432356
0.06886264
0.04142859
0.017203638
0.0023356887
0.0024292095
0.018389756
0.044189791
0.07372171
1.0697872
1.068408
0.069147038
0.042398213
0.017933812
0.0024183026
0.0025492634
0.020238442
0.049337733
0.082923432
0.95948093
1.002981
0.079444654
0.047105189
0.019417719
0.0025112284
0.0025560713
0.019858423
0.048357743
0.081643992
0.97812129
0.94379032
0.075643501
0.045156789
0.018629403
0.0024633455
0.0023850984
0.017894247
0.043255059
0.072566355
0.91012512
0.89471663
0.071673374
0.042792887
0.017735617
0.0023486816
0.0023303383
0.017666187
0.042644729
0.071367521
0.8860759
0.87808645
0.07106207
0.04244988
0.017570332
0.0023183702
0.0023065349
0.017443855
0.042162908
0.070580585
0.87106418
0.86492699
0.070085417
0.041867136
0.017316001
0.002294355
0.002284178
0.017213773
0.041632982
0.069701341
0.85954798
0.85499404
0.069368435
0.041430302
0.017125458
0.0022751955
0.0022680879
0.017055987
0.041269391
0.069101951
0.85125867
0.84831303
0.068874724
0.041131812
0.016996413
0.0022618037
0.0022569699
0.016949655
0.041022862
0.06869338
0.84591977
0.84403159
0.068532651
0.040925689
0.016907722
0.0022525042
0.0022493425
0.016877736
0.040856229
0.068417397
0.84262109
0.84151929
0.068309533
0.040791066
0.016849611
0.002246279
0.0022443526
0.016831788
0.040749939
0.06824127
0.84075253
0.84019358
0.068174755
0.040709663
0.016814295
0.0022423634
0.0022413408
0.016805145
0.040688628
0.068139705
0.8398879
0.83964657
0.068098786
0.040663845
0.016794363
0.0022400634
0.0022396408
0.016790885
0.040656084
0.068085889
0.83961193
0.83956342
0.068061536
0.040641282
0.016784413
0.0022388291
0.0022388012
0.016784668
0.040642336
0.068063463
0.83967478
0.83976033
0.068051338
0.040634814
0.016781273
0.0022383116
0.0022385114
0.016783477
0.040640222
0.068060307
0.83990758
0.84001764
0.068053289
0.040635754
0.016781416
0.0022381796
0.0022384843
0.016784448
0.040642978
0.068065142
0.8401693
0.84040518
0.068070196
0.04064518
0.016784871
0.0022383637
0.0022387728
0.016788608
0.040653727
0.068083891
0.8405812
0.84075409
0.068083505
0.040653003
0.016788067
0.002238612
0.0022391271
0.016793278
0.040665854
0.068105441
0.84101723
0.84137499
0.068119431
0.04067325
0.016795812
0.0022392112
0.0022402779
0.016807891
0.040704324
0.06817392
0.8421756
0.84364599
0.068277695
0.040761684
0.016829101
0.002241835
0.0022665169
0.017108972
0.041511285
0.069656608
0.84563852
0.84432374
0.069551054
0.041450016
0.017085786
0.0022645636
0.0022641288
0.017079509
0.041433942
0.069519128
0.84361856
0.84320954
0.069476389
0.041408008
0.017069856
0.0022633016
0.0022634846
0.017071168
0.04141214
0.06948054
0.84295782
0.84275541
0.069451126
0.041393906
0.017064564
0.0022629232
0.0022633001
0.017068072
0.04140359
0.069464699
0.84259997
0.8424249
0.069445612
0.04139084
0.017063354
0.0022628775
0.0022632362
0.017066233
0.041398686
0.06945616
0.84232191
0.84220517
0.069437267
0.041386369
0.017061914
0.002262899
0.0022634634
0.017066937
0.04139959
0.06945694
0.84210226
0.84203221
0.06944877
0.041393037
0.017064752
0.0022633234
0.0022640255
0.017070606
0.041407678
0.069470358
0.84198615
0.84198796
0.069471961
0.041406982
0.01707095
0.0022641718
0.0022652506
0.017080222
0.041429466
0.069506605
0.84208875
0.84228085
0.069524765
0.041439029
0.017085099
0.0022658972
0.0022676312
0.017100734
0.041476596
0.069584876
0.84268343
0.84325437
0.069629679
0.041502512
0.017112753
0.0022690396
0.0022717171
0.017137771
0.041562286
0.069727033
0.8440971
0.84521019
0.069813406
0.041613019
0.017160301
0.002274189
0.0022780336
0.017196583
0.041698833
0.069954095
0.8467016
0.848597
0.070092456
0.041781184
0.017232818
0.0022819201
0.0022874344
0.017285636
0.041905638
0.070297604
0.85101664
0.85402289
0.07051295
0.042033807
0.01734126
0.0022932647
0.0023009439
0.017415378
0.042206886
0.07079813
0.85777227
0.86232153
0.071117711
0.042399087
0.017499202
0.0023094552
0.002320153
0.017606273
0.042646471
0.071523553
0.86779634
0.87391297
0.072003353
0.04293039
0.017728954
0.0023316518
0.0023433447
0.017854761
0.04321936
0.072489743
0.88089755
0.88854989
0.072744087
0.043368493
0.017926317
0.0023536982
0.0023714981
0.017982282
0.043506058
0.073055224
0.89736192
0.91494028
0.074070899
0.04401496
0.018128127
0.0024041381
0.0024793442
0.018946149
0.04600559
0.077362215
0.95253427
0.97863537
0.078411507
0.046727702
0.019343935
0.0025299531
0.0025569398
0.019593278
0.047144303
0.078643545
0.99091023
0.96155357
0.085017534
0.050358427
0.020602648
0.0025863907
0.73896525
0.09855748
0.056939499
0.022959695
0.0028550492
0.0026531252
0.020654767
0.050238885
0.08537547
0.94390791
1.0962528
0.071335083
0.043352614
0.018309102
0.0024710371
0.0024810892
0.01901937
0.045897439
0.077118497
1.017683
1.0033979
0.081377737
0.048114087
0.019774172
0.0025390243
0.0025317656
0.019565705
0.047533957
0.079955485
0.97795556
0.94189897
0.075166397
0.04485905
0.018524226
0.0024515482
0.002381066
0.017881834
0.043230874
0.072533222
0.91021107
0.89540732
0.071749697
0.042843749
0.017756209
0.0023490029
0.0023311826
0.017680503
0.042678945
0.071421877
0.88648979
0.87830302
0.071065255
0.042452867
0.017571502
0.0023186067
0.0023063987
0.017441696
0.042157296
0.070570369
0.87112623
0.8649541
0.070081501
0.041864132
0.017314643
0.0022942244
0.0022840753
0.017212625
0.041630363
0.069697291
0.85951607
0.85494149
0.069360835
0.041425558
0.01712351
0.0022750358
0.0022679423
0.017054354
0.041265879
0.069096773
0.85119675
0.848198
0.068861731
0.041123804
0.01699311
0.0022615376
0.00225672
0.01694688
0.041016644
0.068683748
0.84578488
0.84392277
0.068521704
0.040918678
0.016904663
0.0022522324
0.0022490999
0.016875142
0.040850471
0.06840843
0.84248581
0.84140203
0.068301614
0.040785834
0.016847247
0.0022460563
0.0022441934
0.016830244
0.040746776
0.06823666
0.8406784
0.84014095
0.068169889
0.040706311
0.016812745
0.0022422132
0.0022412242
0.016804004
0.040686234
0.068136105
0.83982668
0.8396079
0.06809789
0.040662811
0.016793729
0.0022399899
0.0022395952
0.01679046
0.04065529
0.068084779
0.83957954
0.83956899
0.06806212
0.04064121
0.016784236
0.0022388046
0.0022387886
0.016784546
0.040642171
0.068063269
0.8396557
0.83979043
0.06805488
0.040636461
0.016781773
0.0022383441
0.002238568
0.016784149
0.040642008
0.068063423
0.83993604
0.84008718
0.068057162
0.040637741
0.016782142
0.0022382427
0.0022385812
0.016785583
0.040646018
0.068070645
0.84023823
0.84038254
0.068063768
0.04064151
0.016783593
0.0022382888
0.0022387027
0.01678785
0.040652043
0.068081416
0.84053928
0.8407136
0.068078552
0.040649868
0.016786775
0.0022384999
0.0022390261
0.016792261
0.040663578
0.068101886
0.84095325
0.84133412
0.068110926
0.040668088
0.016793739
0.0022390331
0.0022400954
0.016805954
0.040699823
0.068166664
0.84206383
0.84366738
0.068270606
0.040756897
0.016826973
0.0022416309
0.0021425248
0.015783523
0.037993901
0.063120003
0.94406341
0.9428644
0.063036611
0.037944929
0.015764975
0.0021410023
0.0021408315
0.015762169
0.0379382
0.063021999
0.94226767
0.94189155
0.06298612
0.037916122
0.015753919
0.0021401354
0.0021403682
0.015756057
0.03792237
0.062994243
0.94164587
0.94143031
0.0629692
0.037906362
0.015750101
0.0021398531
0.0021401539
0.015752893
0.037914172
0.062979973
0.94125871
0.94107232
0.062957366
0.037899686
0.015747587
0.0021397121
0.0021401021
0.015751239
0.037909539
0.062971466
0.9409038
0.94071279
0.062956818
0.037899119
0.015747297
0.0021397642
0.0021401477
0.015750279
0.03790677
0.062966718
0.94054809
0.94036138
0.062956013
0.037898757
0.015747423
0.0021399473
0.0021405384
0.015752343
0.037911088
0.062974135
0.94030515
0.94025098
0.062967457
0.037906251
0.015751271
0.0021405858
0.0021416344
0.015760873
0.037929824
0.063004459
0.94032183
0.94049772
0.063016286
0.0379362
0.015764581
0.0021421757
0.0021437967
0.01577957
0.037972018
0.06307316
0.94087795
0.94144314
0.063116898
0.037997062
0.015790923
0.0021450771
0.0021474025
0.015812295
0.038046822
0.063196032
0.94232552
0.94350214
0.063275598
0.038093873
0.015833264
0.0021496711
0.0021531684
0.015866286
0.038170473
0.06339883
0.94515278
0.94725861
0.063529822
0.03824901
0.015900911
0.0021568062
0.0021618527
0.01594941
0.038361166
0.063711302
0.94999018
0.95339257
0.063912387
0.038482345
0.016002433
0.0021673097
0.0021743856
0.016071532
0.038641365
0.064170276
0.95765763
0.96278729
0.064459988
0.038818164
0.016149589
0.0021822259
0.0021920471
0.016248695
0.039043619
0.064823597
0.96887353
0.97581171
0.065258207
0.039305308
0.016363266
0.002202864
0.0022145598
0.01648941
0.03959365
0.065736292
0.98382255
0.99285503
0.066042209
0.039788745
0.016582924
0.0022250349
0.0022399786
0.016646267
0.039934124
0.06633039
1.0025619
1.0168609
0.066798982
0.040140925
0.016708467
0.002263962
0.002320812
0.017085387
0.041097212
0.068321707
1.0434067
1.0669062
0.070889841
0.042854789
0.017941252
0.0024010863
0.0024774148
0.018665838
0.044348771
0.072651942
1.0652843
0.95656197
0.085849442
0.05073384
0.020794115
0.0026103229
0.0025770467
0.01979944
0.047757904
0.079800478
0.98810833
0.97591205
0.075158282
0.045048705
0.018722394
0.0024840145
0.0024817412
0.019023456
0.046223685
0.07789777
0.94962946
0.9138183
0.07422295
0.044101853
0.018143619
0.0024042594
0.0023719809
0.017987839
0.043509324
0.073046382
0.89616282
0.88690534
0.072652784
0.043313204
0.01790398
0.0023523229
0.0023410309
0.017828968
0.043152856
0.072372199
0.87962223
0.87283017
0.071941432
0.042893795
0.01771333
0.0023299141
0.0023188021
0.017593661
0.042616957
0.071476641
0.86687173
0.86151479
0.071076211
0.042374778
0.017488532
0.0023083184
0.0022997446
0.017402862
0.042177225
0.070750021
0.85703595
0.85329781
0.070472006
0.042009132
0.017330137
0.0022921686
0.002286239
0.017272728
0.041875272
0.070248865
0.85033965
0.84790292
0.070055966
0.041758978
0.017222571
0.0022808961
0.0022769147
0.017184493
0.041670091
0.069907534
0.84607661
0.84460388
0.069782651
0.041594514
0.017151651
0.0022732983
0.0022707681
0.017127592
0.041537877
0.069687321
0.84357963
0.84275248
0.069607323
0.041489293
0.017106389
0.002268355
0.0022668613
0.01709235
0.041455985
0.06955076
0.84224659
0.84182053
0.0694992
0.041424693
0.017078704
0.0022652511
0.002264509
0.017072067
0.041409141
0.069472784
0.84167612
0.8415482
0.069445727
0.041392435
0.017064559
0.0022635367
0.002263327
0.017062972
0.041388838
0.069439444
0.84163287
0.84168134
0.069428696
0.04138187
0.017059597
0.0022627866
0.0022628993
0.017060893
0.041384809
0.069433109
0.84186429
0.84196519
0.069429643
0.041382239
0.017059459
0.0022625842
0.0022628643
0.017062164
0.041388433
0.06943949
0.84217767
0.84226227
0.06944214
0.041389426
0.017062171
0.0022627019
0.0022630203
0.017064798
0.041394923
0.06945028
0.84246738
0.84257115
0.069458177
0.041398619
0.017065753
0.0022629428
0.0022633097
0.0170687
0.041404776
0.06946731
0.84281156
0.84293422
0.069474163
0.041407908
0.017069489
0.0022632358
0.0022637072
0.017073826
0.041417953
0.069490518
0.84323146
0.84353343
0.069506421
0.041426245
0.017076614
0.0022638063
0.0022649438
0.017089622
0.041459923
0.06956582
0.84435822
0.84565192
0.069649751
0.041505793
0.017106904
0.002266225
0.0022648508
0.017088164
0.041455792
0.069556947
0.84431231
0.84357113
0.069509517
0.041427204
0.017077168
0.0022638616
0.002263691
0.017073575
0.041417694
0.069489483
0.84318616
0.84290442
0.069468979
0.041404302
0.017068394
0.0022631791
0.0022632661
0.017067878
0.041402787
0.069463054
0.84269398
0.84251224
0.069449446
0.041393498
0.017064356
0.002262911
0.0022631359
0.0170653
0.041395641
0.069449892
0.84235481
0.84221616
0.069444339
0.041390563
0.017063279
0.0022629101
0.002263201
0.017064651
0.041393613
0.069446207
0.84211719
0.84199777
0.069444234
0.041390823
0.017063634
0.0022630945
0.0022635402
0.017066443
0.041397531
0.069452883
0.84195102
0.84186687
0.069454823
0.041397398
0.017066749
0.0022636146
0.0022643713
0.017072477
0.04141102
0.069475241
0.8419043
0.84198801
0.069490066
0.041418719
0.017076234
0.0022648325
0.0022661101
0.017086861
0.041443722
0.069529349
0.84220144
0.84257811
0.069567974
0.041465747
0.017096753
0.002267222
0.0022692869
0.017115155
0.041509179
0.069638131
0.84318015
0.84400806
0.069710744
0.041551701
0.01713381
0.0022712948
0.0022743758
0.01716213
0.041618287
0.06981963
0.8451313
0.8465775
0.069936936
0.041687715
0.017192351
0.0022775803
0.0022820525
0.017234204
0.041785542
0.070097468
0.8484534
0.85084356
0.070279622
0.041893877
0.017281
0.0022869293
0.0022932751
0.017341275
0.042034595
0.070511793
0.85383563
0.85753127
0.070778632
0.042194356
0.017410409
0.0023003939
0.0023093726
0.017498406
0.042397558
0.071112222
0.86204928
0.86739051
0.071500652
0.042632598
0.017600939
0.0023195645
0.0023315573
0.017728452
0.04292941
0.071998471
0.87336812
0.88008254
0.072463867
0.043203934
0.017849251
0.002342615
0.0023530066
0.017921528
0.043351473
0.072707324
0.88737913
0.89544671
0.072955503
0.043451888
0.017967206
0.0023700784
0.0024045326
0.018113161
0.043925403
0.073911041
0.91212102
0.95017025
0.07729874
0.046004641
0.018950264
0.0024819355
0.0025440974
0.019583209
0.047426955
0.079827016
0.97965973
0.9920213
0.076996111
0.046247168
0.01926696
0.0025223113
2.1817
3.6543251
2.7466238
1.0690418
0.072907777
0.044473604
0.018701732
0.0024840183
0.0025608665
0.019986223
0.048756526
0.082619778
1.0009079
0.0028251078
0.022632347
0.055971495
0.096642285
0.73613184
0.64563738
0.09434799
0.054387123
0.021903406
0.0027238834
0.0027198182
0.02167106
0.053928372
0.09375812
0.64208117
0.86195979
0.090269534
0.052588774
0.021369722
0.0026738574
1.5130576
1.7706158
3.3183806
2.7419645
8.7922096
8.5761087
9.4057563
8.791864
10.272303
10.100931
9.6845912
9.8606025
0.0022418722
0.016828721
0.040761431
0.06827715
0.84348543
0.84211104
0.068157898
0.040692777
0.016803007
0.0022397668
0.0022394287
0.01679812
0.040680741
0.068133465
0.84139396
0.84101642
0.068087489
0.040652993
0.016787869
0.0022385743
0.0022388244
0.016790271
0.040660243
0.06809712
0.84074563
0.84054816
0.068066371
0.040641106
0.016783254
0.0022382229
0.002238555
0.01678659
0.040650965
0.06808118
0.84039332
0.84023046
0.068049988
0.040631735
0.016779699
0.002238003
0.0022384852
0.016784574
0.040645411
0.06807122
0.84007822
0.83994854
0.068045499
0.040629352
0.016778984
0.0022380676
0.0022386892
0.016785051
0.040645665
0.068070941
0.83982604
0.83973807
0.068052557
0.040634039
0.016781353
0.0022384764
0.0022393502
0.016789669
0.040655417
0.068086228
0.83969979
0.83972679
0.068082428
0.040652259
0.016789419
0.0022394854
0.002240713
0.0168008
0.040680399
0.068127006
0.83983771
0.84007595
0.068143021
0.040688976
0.016805493
0.0022413626
0.002243182
0.016822481
0.040730045
0.068208967
0.84048306
0.84107681
0.068250605
0.040754543
0.016834165
0.0022445698
0.0022472919
0.016860157
0.040816915
0.068352332
0.84191866
0.8430291
0.068434069
0.040865316
0.016881934
0.0022496987
0.0022535295
0.016918417
0.040951587
0.068575205
0.8444806
0.84637559
0.068708643
0.041031518
0.016953889
0.0022573456
0.0022628607
0.01700726
0.041157343
0.068915634
0.84879315
0.85183858
0.06912844
0.041284246
0.017062457
0.002268623
0.0022762524
0.017136865
0.041457914
0.069413871
0.85560923
0.86021391
0.069724771
0.041646155
0.017219542
0.0022846086
0.0022952124
0.01732667
0.041894399
0.070133152
0.86567248
0.87187556
0.070589703
0.042165873
0.017444941
0.0023063835
0.0023182215
0.017567315
0.042442594
0.071049626
0.87903268
0.88718869
0.071340887
0.04261734
0.017652286
0.0023304717
0.0023524612
0.017766208
0.042879265
0.071824892
0.89752356
0.91578174
0.073072204
0.043554027
0.017981062
0.0023888295
0.0024629905
0.018810015
0.045555263
0.076444733
0.94852379
0.97738699
0.076976421
0.04602833
0.019043481
0.0024900588
0.0025634802
0.020010423
0.048852956
0.082784261
0.99831609
0.070998294
0.043139949
0.018221391
0.0024623005
0.0024206579
0.017551377
0.041425986
0.068088796
1.0840849
0.92697952
0.080008295
0.04721616
0.019462418
0.0025728219
0.002694653
0.021639401
0.053371865
0.091993528
0.85961558
1.0143125
0.078870041
0.046759674
0.019340605
0.0025039446
0.002563405
0.020002288
0.048821341
0.082713798
0.99941887
0.97816891
0.076850759
0.045961981
0.019020697
0.0024883095
0.0024616491
0.018796375
0.045516673
0.076374601
0.94900784
0.91561818
0.073048472
0.043536403
0.017972968
0.0023882739
0.0023522015
0.017762811
0.042869238
0.071808523
0.89722429
0.88687955
0.071344174
0.042621064
0.017654645
0.0023306267
0.0023183848
0.017567625
0.042440835
0.07104646
0.87865837
0.87139864
0.070590055
0.042166462
0.017445248
0.0023065607
0.0022949981
0.017321693
0.041880704
0.070110159
0.86520226
0.8596773
0.069709103
0.041636968
0.017215384
0.0022843346
0.0022757119
0.017129411
0.04143932
0.069383507
0.85514372
0.85131505
0.069107183
0.041271369
0.017056411
0.0022681129
0.0022621881
0.016998926
0.041137603
0.068884538
0.8483618
0.84587776
0.068690638
0.041020127
0.016948119
0.0022568087
0.0022528133
0.016909765
0.040930774
0.068541626
0.84402245
0.84248687
0.068406236
0.04084884
0.016874422
0.002249019
0.0022464969
0.016850898
0.04079449
0.068315885
0.8414512
0.84062843
0.068235078
0.040745213
0.016829335
0.002244059
0.0022426315
0.016816218
0.040714529
0.06818324
0.84017158
0.83978975
0.068135853
0.040685339
0.016803295
0.0022410909
0.0022404076
0.016797184
0.040670808
0.068110598
0.83967152
0.83956166
0.06808895
0.04065684
0.016790644
0.0022395167
0.0022393148
0.016788816
0.04065195
0.068079294
0.8396606
0.83964551
0.068060077
0.040639915
0.01678351
0.0022386383
0.002238702
0.016784403
0.040642073
0.068063171
0.83977477
0.83989399
0.068057499
0.040637826
0.016782172
0.0022383149
0.0022386082
0.016785249
0.04064515
0.06806925
0.84011348
0.84025441
0.068069519
0.040644546
0.016784597
0.0022383975
0.002238762
0.016787967
0.040652167
0.068081404
0.84044913
0.84050232
0.068074145
0.040647405
0.016785853
0.0022384692
0.0022388343
0.016789376
0.040655883
0.06808813
0.84066454
0.84075692
0.068084426
0.040653071
0.016787957
0.0022385956
0.0022390435
0.016792435
0.040664085
0.068102962
0.84096985
0.84121276
0.068112573
0.040668725
0.016793804
0.0022390274
0.0022397491
0.016801319
0.040687315
0.068144074
0.84167315
0.84245513
0.068199993
0.040717737
0.016812377
0.002240497
0.84467089
0.069569871
0.041458042
0.017087566
0.0022645627
0.0022637645
0.017076698
0.041429785
0.069515847
0.84364504
0.84308868
0.069461155
0.041397511
0.017064791
0.0022627634
0.0022629225
0.017065927
0.041401326
0.069464901
0.8427779
0.8425716
0.069434132
0.041382298
0.017058976
0.002262324
0.0022626578
0.017062131
0.041391375
0.069447233
0.84241551
0.84227779
0.069421798
0.041375326
0.017056342
0.0022621707
0.0022626058
0.017060565
0.041387103
0.069439527
0.84216339
0.8420458
0.069418137
0.041373414
0.017055675
0.002262201
0.0022626789
0.017060063
0.041385446
0.069436451
0.84192703
0.84179215
0.069417328
0.041373277
0.017055927
0.0022623834
0.0022630452
0.017061796
0.041388474
0.06944064
0.84169976
0.84169364
0.069433492
0.041383165
0.017060482
0.0022630464
0.0022640544
0.017069709
0.041406438
0.069470502
0.84175563
0.84189055
0.069474074
0.041408074
0.017071632
0.0022644335
0.0022659926
0.017086237
0.04144406
0.069532377
0.84215116
0.842556
0.069560687
0.041460378
0.017094328
0.0022670052
0.0022692694
0.017115625
0.041511879
0.069644734
0.8431828
0.84401481
0.069706026
0.041548048
0.017132198
0.0022711551
0.002274416
0.017163157
0.041621894
0.069827127
0.8451524
0.84662189
0.069934872
0.041685965
0.017191629
0.0022775122
0.0022821414
0.017235955
0.041790844
0.0701076
0.84852789
0.85093552
0.070279169
0.041893166
0.017280679
0.0022868762
0.002293356
0.017343203
0.042040293
0.07052231
0.85393605
0.8576689
0.070781672
0.042195566
0.017410722
0.0023003286
0.0023093379
0.017500399
0.042404152
0.071124934
0.86220569
0.86756373
0.071499435
0.042629951
0.017599082
0.0023191316
0.0023307123
0.017722356
0.042916803
0.071979354
0.87357374
0.88037888
0.072398121
0.043166856
0.017834113
0.0023414404
0.0023533577
0.017916229
0.043345269
0.072706646
0.88774225
0.89697581
0.07308836
0.043533667
0.017996939
0.0023724951
0.0024048766
0.01815541
0.044133182
0.0742739
0.91437287
0.94955496
0.077917211
0.046229129
0.019022843
0.0024812172
0.0024828306
0.01870793
0.045015536
0.075103298
0.97551251
0.98729934
0.079731408
0.047719328
0.019783151
0.0025758593
0.0026096008
0.020767227
0.050714882
0.085844985
0.9557425
1.0644746
0.072696931
0.044367948
0.018669734
0.0024777288
0.0025389276
0.019776787
0.048127723
0.08141108
1.0027216
1.002176
0.079391197
0.047069601
0.019401492
0.0025087812
0.002418554
0.017939047
0.042427433
0.069208824
1.0681194
0.99219575
0.077193433
0.046348895
0.019298876
0.0025249844
0.0025592781
0.019615398
0.047215527
0.078777888
0.99155022
1.0697686
0.072791626
0.044413079
0.018678144
0.0024827557
0.0025567495
0.019928587
0.048597892
0.082323465
1.0020343
0.9799418
0.075946722
0.045449433
0.018816491
0.0024740895
0.0024578269
0.018783426
0.04551819
0.076441717
0.95120263
0.91745789
0.073159917
0.043598232
0.017996322
0.0023887565
0.0023530793
0.017775884
0.042902667
0.071868342
0.89846305
0.88770977
0.071367317
0.042633059
0.017659596
0.0023311573
0.0023187277
0.017570993
0.042448405
0.071059846
0.8792732
0.8718522
0.070601527
0.04217301
0.017448088
0.0023068539
0.0022953152
0.017324948
0.041888684
0.070124208
0.86554081
0.85993863
0.069717523
0.04164205
0.017217643
0.0022845796
0.0022759207
0.017131405
0.041444008
0.069391498
0.85530734
0.85143763
0.069108947
0.041272634
0.017057154
0.0022682247
0.002262278
0.01699972
0.041139438
0.068887714
0.84842273
0.84593107
0.06869176
0.041020857
0.016948517
0.0022568619
0.0022528671
0.016910335
0.040932171
0.06854406
0.84405719
0.84255863
0.068412349
0.040852223
0.01687571
0.0022491227
0.0022466187
0.01685231
0.040798068
0.068322076
0.84153312
0.84073092
0.068239277
0.040747598
0.016830327
0.0022441547
0.0022427379
0.016817424
0.040717673
0.068188904
0.84025241
0.83985081
0.06813008
0.040682217
0.016802283
0.0022410418
0.0022403478
0.01679649
0.040669337
0.068108672
0.83965084
0.83954868
0.068072461
0.040647452
0.016787122
0.0022392511
0.0022390673
0.016786217
0.040646105
0.068070382
0.83954427
0.83958613
0.068049463
0.040633377
0.016780746
0.0022383822
0.0022385144
0.016782689
0.040638652
0.068058482
0.83971716
0.83980608
0.068052266
0.040634388
0.016780602
0.0022381553
0.0022384848
0.016784114
0.040642927
0.068066258
0.84007303
0.84018649
0.06805608
0.040636628
0.016781479
0.002238139
0.0022385137
0.016785403
0.040646404
0.068072496
0.84033468
0.84046794
0.068065852
0.040642115
0.016783522
0.0022382401
0.0022386431
0.01678756
0.040652049
0.068082478
0.84059716
0.84079335
0.068082056
0.040651145
0.016786907
0.0022384712
0.0022389479
0.016791616
0.040662655
0.068101313
0.84096384
0.8412008
0.068100625
0.040661677
0.016791028
0.002238798
0.0022395492
0.016799369
0.0406832
0.068138229
0.84162759
0.84245008
0.068186226
0.040709397
0.016808934
0.0022401938
0.84363173
0.068276944
0.040760147
0.016828717
0.0022418387
0.0022404197
0.016809663
0.040709659
0.068183023
0.8422241
0.8414673
0.068127911
0.040676521
0.016797067
0.0022393207
0.0022392209
0.016794522
0.040669912
0.068112534
0.84105094
0.84076506
0.068087953
0.040654183
0.016788568
0.0022386688
0.0022388467
0.016789515
0.040656918
0.068089584