/*--------------------------------*- C++ -*----------------------------------*\
  =========                 |
  \\      /  F ield         | OpenFOAM: The Open Source CFD Toolbox
   \\    /   O peration     | Website:  https://openfoam.org
    \\  /    A nd           | Version:  7
     \\/     M anipulation  |
\*---------------------------------------------------------------------------*/
FoamFile
{
    version     2.0;
    format      ascii;
    class       volScalarField;
    location    "30";
    object      p;
}
// * * * * * * * * * * * * * * * * * * * * * * * * * * * * * * * * * * * * * //

dimensions      [1 -1 -2 0 0 0 0];

internalField   nonuniform List<scalar> 
24789
(
101287.21
101287.21
101287.2
101287.21
101287.54
101285.43
101285.27
101285.27
101285.26
101285.26
101282.98
101282.98
101282.99
101283
101283.16
101280.75
101280.58
101280.56
101280.56
101280.56
101277.96
101277.96
101277.97
101277.98
101278.18
101275.44
101275.21
101275.2
101275.19
101275.19
101272.22
101272.23
101272.23
101272.25
101272.51
101269.38
101269.09
101269.07
101269.06
101269.05
101265.67
101265.68
101265.69
101265.71
101266.06
101262.49
101262.08
101262.05
101262.04
101262.03
101258.13
101258.14
101258.16
101258.18
101258.66
101254.58
101254.03
101254
101253.98
101253.98
101249.55
101249.56
101249.57
101249.61
101250.24
101245.62
101244.9
101244.86
101244.84
101244.83
101239.83
101239.84
101239.86
101239.9
101240.73
101235.59
101234.63
101234.57
101234.56
101234.54
101228.78
101228.8
101228.82
101228.88
101230
101223.78
101222.52
101222.44
101222.41
101222.39
101215.44
101215.46
101215.49
101215.56
101216.99
101209.7
101208.09
101208
101207.97
101207.95
101199.83
101199.86
101199.89
101199.99
101201.81
101193.16
101191.13
101191.02
101190.98
101190.96
101181.14
101181.16
101181.2
101181.32
101183.56
101172.76
101170.32
101170.19
101170.14
101170.11
101157.55
101157.58
101157.63
101157.78
101160.39
101146
101143.25
101143.08
101143.02
101142.99
101125.52
101125.52
101125.57
101125.75
101128.85
101108.11
101103.71
101103.56
101103.62
101103.68
101072.32
101072.15
101071.86
101071.91
101079.41
101038.68
101026.25
101026.24
101026.73
101026.97
100999.33
100999.3
100999.59
101000.73
101020.92
100955.57
100948.17
100946.85
100946.31
100945.73
100324.71
100349.75
100368.98
100390.7
100590.08
101041.31
101021.33
101014.2
101006.12
100994.01
101244.34
101257.49
101261.22
101265.35
101249.24
101426.02
101477.61
101474.22
101467.28
101451.97
101789.91
101816.03
101833.54
101845.36
101802.7
101333.09
101204.73
101186.79
101172.61
101144.9
101326.1
101327.53
101325.28
101320.86
101269.04
100927.62
100705.74
100676.91
100648.19
100611.13
100502.79
100511.27
100515.61
100523.87
100652.29
100955.37
100931
100929.98
100929.75
100929.44
100991.77
100991.84
100991.79
100992.4
101015.61
101036.91
101025.04
101025.02
101025.44
101025.64
101072.76
101072.63
101072.45
101072.48
101078.48
101107.49
101103.64
101103.51
101103.53
101103.57
101125.19
101125.21
101125.26
101125.4
101128.45
101145.75
101142.86
101142.72
101142.67
101142.63
101157.31
101157.34
101157.39
101157.51
101160.29
101172.73
101170.16
101170.05
101170.01
101169.98
101181.09
101181.12
101181.15
101181.26
101183.59
101193.21
101191.08
101190.98
101190.95
101190.93
101199.8
101199.82
101199.85
101199.93
101201.87
101209.76
101208
101207.93
101207.9
101207.88
101215.35
101215.37
101215.39
101215.46
101217.04
101223.8
101222.4
101222.33
101222.31
101222.29
101228.67
101228.69
101228.71
101228.76
101230.03
101235.68
101234.58
101234.53
101234.51
101234.5
101239.88
101239.89
101239.91
101239.95
101240.89
101245.79
101245
101244.96
101244.94
101244.94
101249.65
101249.66
101249.67
101249.7
101250.38
101254.66
101254.08
101254.05
101254.04
101254.03
101258.15
101258.16
101258.17
101258.19
101258.69
101262.51
101262.07
101262.05
101262.04
101262.03
101265.67
101265.68
101265.68
101265.7
101266.08
101269.42
101269.09
101269.08
101269.07
101269.06
101272.24
101272.24
101272.25
101272.26
101272.55
101275.47
101275.22
101275.21
101275.21
101275.2
101277.97
101277.97
101277.98
101277.99
101278.2
101280.76
101280.58
101280.57
101280.57
101280.56
101282.98
101282.98
101282.99
101282.99
101283.16
101285.45
101285.29
101285.29
101285.28
101285.28
101287.16
101287.16
101287.15
101287.15
101287.52
101285.37
101284.97
101284.96
101284.97
101284.98
101282.95
101282.96
101282.96
101282.97
101283.14
101280.71
101280.52
101280.51
101280.5
101280.5
101277.95
101277.95
101277.96
101277.97
101278.17
101275.44
101275.2
101275.19
101275.19
101275.18
101272.24
101272.24
101272.25
101272.26
101272.54
101269.42
101269.1
101269.08
101269.08
101269.07
101265.68
101265.69
101265.7
101265.72
101266.09
101262.51
101262.08
101262.06
101262.05
101262.05
101258.16
101258.17
101258.18
101258.2
101258.7
101254.64
101254.06
101254.03
101254.02
101254.02
101249.62
101249.63
101249.64
101249.67
101250.35
101245.77
101244.97
101244.94
101244.92
101244.91
101239.86
101239.88
101239.89
101239.93
101240.86
101235.64
101234.56
101234.52
101234.5
101234.48
101228.7
101228.72
101228.74
101228.8
101230.02
101223.84
101222.47
101222.4
101222.38
101222.36
101215.42
101215.44
101215.47
101215.54
101217.08
101209.78
101208.04
101207.96
101207.93
101207.91
101199.81
101199.83
101199.86
101199.94
101201.88
101193.2
101191.05
101190.96
101190.93
101190.9
101181.04
101181.07
101181.1
101181.21
101183.58
101172.7
101170.09
101169.97
101169.94
101169.91
101157.28
101157.32
101157.36
101157.49
101160.29
101145.8
101142.97
101142.82
101142.77
101142.73
101125.48
101125.5
101125.56
101125.71
101128.55
101107.55
101104.1
101103.97
101103.98
101104.01
101073.9
101073.77
101073.59
101073.63
101079.22
101036.98
101026.1
101026.21
101026.7
101026.93
100986.29
100986.29
100986.07
100986.48
101008.28
100971.65
100941.64
100940.04
100939.38
100938.7
100619.55
100625.18
100627.36
100632.56
100707.25
100699.13
100286.43
100241.04
100199.3
100144.98
102076.17
102053.84
102031.59
102003.13
101691.42
101284.48
101178.72
101160.94
101147.04
101120.76
101749.83
101782.97
101804.23
101821.04
101750.27
101473.19
101569.41
101578.19
101584.4
101582.96
101968.11
101951.36
101933.84
101909.55
101671.79
100712.65
100396.18
100352.57
100309.67
100256.61
100571.37
100581.67
100587.86
100596.47
100678.8
100960.9
100946.43
100945.14
100945.04
100944.76
100993.24
100993.06
100992.88
100993.3
101007.03
101036.32
101027.47
101027.62
101028.12
101028.39
101074.72
101074.56
101074.34
101074.36
101079.37
101107.67
101104.76
101104.63
101104.65
101104.7
101126.15
101126.16
101126.23
101126.39
101128.66
101145.76
101143.44
101143.28
101143.2
101143.16
101157.52
101157.56
101157.63
101157.78
101160.19
101172.59
101170.27
101170.14
101170.08
101170.04
101181.13
101181.16
101181.21
101181.34
101183.47
101193.1
101191.17
101191.06
101191.02
101190.99
101199.89
101199.92
101199.96
101200.06
101201.78
101209.68
101208.14
101208.05
101208.02
101207.99
101215.51
101215.53
101215.57
101215.65
101217.02
101223.77
101222.57
101222.5
101222.47
101222.45
101228.8
101228.82
101228.85
101228.91
101229.94
101235.58
101234.68
101234.63
101234.61
101234.59
101239.95
101239.97
101239.99
101240.04
101240.82
101245.68
101245.02
101244.98
101244.96
101244.94
101249.59
101249.61
101249.62
101249.66
101250.23
101254.53
101254.03
101254
101253.98
101253.97
101258.12
101258.13
101258.14
101258.17
101258.61
101262.45
101262.09
101262.06
101262.05
101262.04
101265.7
101265.7
101265.72
101265.74
101266.06
101269.4
101269.13
101269.11
101269.1
101269.1
101272.26
101272.26
101272.27
101272.28
101272.51
101275.41
101275.22
101275.2
101275.19
101275.19
101277.94
101277.95
101277.95
101277.97
101278.14
101280.68
101280.51
101280.5
101280.49
101280.49
101282.92
101282.93
101282.94
101282.95
101283.1
101285.32
101284.98
101284.97
101284.98
101284.98
101284.99
101284.98
101284.97
101284.98
101285.34
101283.12
101282.95
101282.94
101282.93
101282.93
101280.47
101280.48
101280.48
101280.5
101280.69
101278.15
101277.95
101277.94
101277.93
101277.92
101275.16
101275.16
101275.17
101275.18
101275.41
101272.49
101272.24
101272.22
101272.21
101272.21
101269.05
101269.06
101269.07
101269.08
101269.37
101266.05
101265.7
101265.68
101265.67
101265.66
101262.04
101262.05
101262.06
101262.09
101262.49
101258.67
101258.19
101258.17
101258.15
101258.14
101253.97
101253.98
101253.99
101254.03
101254.58
101250.23
101249.6
101249.56
101249.55
101249.54
101244.8
101244.81
101244.83
101244.87
101245.6
101240.68
101239.85
101239.81
101239.79
101239.77
101234.49
101234.51
101234.53
101234.58
101235.52
101229.96
101228.88
101228.81
101228.79
101228.77
101222.43
101222.45
101222.48
101222.55
101223.78
101216.99
101215.59
101215.51
101215.48
101215.46
101207.97
101207.99
101208.02
101208.11
101209.69
101201.79
101200
101199.91
101199.87
101199.85
101190.96
101190.98
101191.02
101191.12
101193.12
101183.51
101181.29
101181.17
101181.13
101181.1
101170.05
101170.08
101170.12
101170.25
101172.69
101160.32
101157.68
101157.54
101157.49
101157.45
101142.91
101142.94
101143.01
101143.17
101145.93
101128.8
101125.79
101125.61
101125.56
101125.54
101104
101103.94
101103.91
101104.07
101108.17
101079.95
101072.82
101072.76
101073.03
101073.18
101027.4
101027.18
101026.7
101026.73
101039.47
101017.88
100997.74
100996.89
100996.89
100996.89
100944.23
100945.21
100946.22
100948.23
100961.6
100625.61
100487.07
100470.73
100457.29
100439.2
100702.43
100731.72
100752.02
100773.59
100929.79
101492.33
101671.59
101681.14
101685.96
101686.28
101280.62
101298.29
101305.09
101310.39
101322.86
101828.67
101875.02
101863.17
101846.41
101818.44
102237.85
102481.06
102511.58
102532.64
102541.28
102618.28
102610.81
102603.78
102579.42
102161.56
101946.59
102064.27
102059.17
102049.6
102027.68
101837.99
101845.35
101847.59
101845.11
101743.6
101567.09
101706.91
101721.51
101731.03
101739.54
101515.27
101524.33
101528.98
101528.57
101468.48
100766.85
100564.31
100536.69
100511.21
100471.77
100538.31
100548.89
100555.91
100565.87
100670.97
100957.58
100942.48
100941.56
100941.85
100941.93
100995.29
100995.07
100994.9
100995.31
101008.58
101036.21
101027.66
101027.76
101028.2
101028.46
101074.32
101074.18
101073.99
101074.02
101079.12
101107.58
101104.39
101104.27
101104.29
101104.34
101125.98
101125.99
101126.05
101126.2
101128.6
101145.75
101143.4
101143.24
101143.17
101143.13
101157.54
101157.58
101157.64
101157.79
101160.19
101172.59
101170.28
101170.14
101170.09
101170.05
101181.14
101181.17
101181.22
101181.34
101183.48
101193.1
101191.16
101191.05
101191
101190.97
101199.85
101199.88
101199.93
101200.03
101201.77
101209.67
101208.12
101208.03
101207.99
101207.97
101215.48
101215.5
101215.53
101215.61
101217
101223.77
101222.56
101222.49
101222.46
101222.44
101228.79
101228.81
101228.84
101228.9
101229.94
101235.58
101234.68
101234.62
101234.6
101234.58
101239.95
101239.97
101239.99
101240.04
101240.82
101245.69
101245.02
101244.98
101244.96
101244.94
101249.6
101249.61
101249.62
101249.66
101250.24
101254.53
101254.03
101254
101253.98
101253.97
101258.13
101258.14
101258.16
101258.18
101258.61
101262.46
101262.08
101262.06
101262.04
101262.04
101265.7
101265.7
101265.72
101265.74
101266.06
101269.41
101269.13
101269.12
101269.11
101269.1
101272.26
101272.27
101272.27
101272.29
101272.52
101275.42
101275.23
101275.21
101275.2
101275.2
101277.96
101277.96
101277.97
101277.98
101278.15
101280.7
101280.54
101280.53
101280.52
101280.52
101282.97
101282.97
101282.97
101282.98
101283.13
101285.34
101285.01
101285
101285.01
101285.02
101284.96
101284.96
101284.95
101284.96
101285.34
101283.15
101282.99
101282.98
101282.97
101282.97
101280.52
101280.52
101280.53
101280.54
101280.74
101278.19
101277.98
101277.97
101277.97
101277.96
101275.2
101275.2
101275.21
101275.22
101275.46
101272.55
101272.27
101272.26
101272.25
101272.24
101269.08
101269.08
101269.09
101269.1
101269.43
101266.09
101265.72
101265.7
101265.69
101265.68
101262.05
101262.06
101262.07
101262.09
101262.52
101258.7
101258.2
101258.18
101258.17
101258.16
101254.03
101254.04
101254.05
101254.07
101254.66
101250.37
101249.69
101249.66
101249.64
101249.63
101244.93
101244.94
101244.96
101245
101245.79
101240.9
101239.97
101239.93
101239.91
101239.9
101234.53
101234.54
101234.56
101234.61
101235.69
101230.04
101228.8
101228.75
101228.72
101228.71
101222.33
101222.34
101222.37
101222.43
101223.84
101217.07
101215.49
101215.42
101215.4
101215.38
101207.9
101207.92
101207.95
101208.03
101209.79
101201.89
101199.94
101199.86
101199.83
101199.81
101190.94
101190.96
101190.99
101191.09
101193.23
101183.61
101181.24
101181.14
101181.11
101181.08
101170
101170.03
101170.07
101170.18
101172.77
101160.34
101157.57
101157.45
101157.4
101157.37
101142.75
101142.78
101142.83
101142.97
101145.85
101128.58
101125.54
101125.39
101125.35
101125.33
101103.69
101103.66
101103.65
101103.78
101107.69
101078.96
101073.18
101073.14
101073.31
101073.42
101027.44
101027.25
101026.87
101026.84
101036.92
101014.35
100992.1
100991.37
100991.37
100991.23
100934.46
100935.14
100935.56
100937.03
100965.35
100671.75
100554.65
100546.59
100542.07
100533.23
100521.3
100556.73
100583.06
100611.49
100863.87
101333.52
101427.36
101430.27
101431.31
101424.05
101108.79
101141.88
101169.13
101194.31
101369.07
101920.17
102353.35
102402.21
102443.04
102481.91
101362.66
101384.47
101397.92
101407.39
101426.49
101174.68
101140.16
101129.26
101119.61
101095.86
101144.4
101145.69
101144.64
101142.16
101095.65
100590.04
100361.86
100336.03
100313.18
100284.66
100955.16
100956.08
100957.05
100958.51
100961.05
101022.71
101004.28
101002.98
101002.49
101002.47
101027.81
101027.63
101027.23
101027.28
101039.18
101079.66
101072.04
101072.01
101072.3
101072.45
101103.6
101103.53
101103.47
101103.61
101108.15
101128.87
101125.78
101125.6
101125.56
101125.56
101143.02
101143.05
101143.11
101143.28
101146
101160.36
101157.77
101157.62
101157.56
101157.53
101170.06
101170.09
101170.14
101170.27
101172.71
101183.52
101181.28
101181.16
101181.12
101181.09
101190.93
101190.95
101191
101191.1
101193.13
101201.79
101199.98
101199.88
101199.85
101199.82
101207.94
101207.97
101208
101208.09
101209.69
101216.98
101215.56
101215.48
101215.45
101215.43
101222.4
101222.42
101222.45
101222.52
101223.77
101230
101228.89
101228.83
101228.8
101228.79
101234.55
101234.56
101234.58
101234.64
101235.58
101240.73
101239.91
101239.86
101239.84
101239.83
101244.83
101244.84
101244.85
101244.9
101245.61
101250.23
101249.6
101249.57
101249.55
101249.54
101253.97
101253.98
101253.99
101254.03
101254.58
101258.66
101258.19
101258.16
101258.15
101258.14
101262.04
101262.05
101262.06
101262.08
101262.49
101266.05
101265.71
101265.68
101265.67
101265.67
101269.06
101269.06
101269.07
101269.09
101269.38
101272.51
101272.25
101272.24
101272.23
101272.22
101275.19
101275.19
101275.2
101275.21
101275.43
101278.18
101277.98
101277.97
101277.96
101277.96
101280.54
101280.54
101280.55
101280.56
101280.74
101283.16
101283.01
101283
101282.99
101282.99
101285.01
101285
101285
101285.01
101285.33
101285.34
101284.99
101284.98
101284.99
101284.99
101282.94
101282.94
101282.95
101282.96
101283.13
101280.7
101280.51
101280.5
101280.5
101280.49
101277.94
101277.94
101277.95
101277.96
101278.16
101275.42
101275.2
101275.18
101275.17
101275.17
101272.22
101272.22
101272.23
101272.25
101272.5
101269.38
101269.09
101269.07
101269.06
101269.06
101265.69
101265.7
101265.71
101265.73
101266.06
101262.49
101262.09
101262.07
101262.05
101262.05
101258.15
101258.16
101258.17
101258.2
101258.67
101254.59
101254.04
101254.01
101254
101253.99
101249.55
101249.56
101249.57
101249.61
101250.24
101245.61
101244.89
101244.85
101244.83
101244.82
101239.81
101239.82
101239.84
101239.88
101240.7
101235.53
101234.59
101234.54
101234.52
101234.5
101228.81
101228.83
101228.85
101228.92
101229.99
101223.81
101222.57
101222.5
101222.47
101222.45
101215.5
101215.52
101215.55
101215.63
101217.02
101209.73
101208.15
101208.06
101208.03
101208.01
101199.89
101199.91
101199.95
101200.04
101201.83
101193.16
101191.15
101191.04
101191
101190.98
101181.1
101181.13
101181.18
101181.3
101183.55
101172.72
101170.23
101170.1
101170.05
101170.02
101157.46
101157.5
101157.56
101157.71
101160.36
101146
101143.27
101143.11
101143.04
101143
101125.66
101125.68
101125.74
101125.93
101128.85
101108.01
101104.01
101103.85
101103.88
101103.93
101073.42
101073.24
101072.97
101073.02
101079.9
101038.95
101026.85
101026.9
101027.45
101027.71
100992.41
100992.43
100992.39
100993.2
101013.57
100969.42
100952.91
100950.81
100950.09
100949.22
100498.82
100514.06
100525.84
100539
100649.64
100784.73
100549.19
100516.79
100488.54
100448.24
101988.36
101972.99
101955.4
101931.38
101673
101215.84
101139.15
101129.92
101124.32
101103.62
101425.92
101270.82
101377.33
101360.18
101259.42
101240.78
101222.02
101194.29
101753.86
101746.53
101736.78
101722.82
101594.44
102162.73
102169.19
102167.75
102155.96
102071.83
101737.06
101854.46
101860.32
101860.19
101840.04
101336.2
101370
101382.18
101396.05
101470.49
101765.64
101884.33
101893.93
101897.24
101897.63
101802.93
102115.55
101639.78
101758.79
101309.62
101314.26
101305.45
101309.63
101305.52
101303.88
101305.78
101306.29
101284.88
101284.87
101284.87
101284.87
101285.24
101283.03
101282.85
101282.84
101282.83
101282.83
101280.41
101280.41
101280.42
101280.43
101280.61
101278.09
101277.9
101277.89
101277.88
101277.88
101275.14
101275.14
101275.15
101275.17
101275.37
101272.48
101272.24
101272.23
101272.22
101272.21
101269.06
101269.07
101269.07
101269.09
101269.37
101266.02
101265.7
101265.67
101265.66
101265.66
101262.01
101262.01
101262.03
101262.05
101262.43
101258.59
101258.16
101258.13
101258.12
101258.11
101253.95
101253.96
101253.97
101254
101254.5
101250.2
101249.62
101249.58
101249.57
101249.56
101244.91
101244.92
101244.94
101244.98
101245.66
101240.78
101239.99
101239.95
101239.93
101239.91
101234.54
101234.56
101234.58
101234.63
101235.54
101229.9
101228.87
101228.8
101228.78
101228.76
101222.43
101222.45
101222.48
101222.55
101223.75
101216.98
101215.6
101215.52
101215.48
101215.46
101207.92
101207.95
101207.98
101208.07
101209.64
101201.71
101199.95
101199.85
101199.81
101199.79
101190.89
101190.93
101190.97
101191.08
101193.04
101183.39
101181.23
101181.11
101181.06
101181.02
101169.92
101169.96
101170.01
101170.15
101172.52
101160.1
101157.64
101157.49
101157.43
101157.39
101143.07
101143.1
101143.17
101143.34
101145.74
101128.62
101126.15
101125.99
101125.93
101125.93
101104.52
101104.47
101104.42
101104.53
101107.78
101078.81
101073.32
101073.33
101073.58
101073.73
101029.34
101029.11
101028.72
101028.63
101036.69
101017.78
101004.31
101003.37
101003.05
101003.11
100938.9
100939.24
100939.7
100940.77
100944.18
100599.88
100400.96
100380.9
100364.02
100341.67
101131.4
101137.54
101136.69
101135.73
101105.26
101100.9
100989.1
100970.33
100953.35
100919.75
101641.25
101645.03
101649.88
101647.48
101592.18
101965.29
101971.21
101975.26
101965.75
101768.29
101790.2
101792.6
101795.34
101660.92
101645.6
101750.93
101740.95
101730.33
101702.67
102824.55
102774.67
102729.97
102671.2
102231.52
102093.02
102373.94
102401.5
102421.35
102440.46
101640.57
101644.6
101649.96
101648
101590.3
101098.18
100987.57
100968.45
100950.92
100916.88
101125.69
101131.94
101131.24
101130.48
101101.72
100596.19
100395.01
100374.84
100357.94
100335.7
100935.05
100935.57
100936.09
100937.23
100942.27
101016.39
101001.85
101000.91
101000.64
101000.72
101028.41
101028.16
101027.73
101027.62
101036.14
101078.44
101072.91
101072.93
101073.19
101073.36
101104.4
101104.34
101104.29
101104.4
101107.63
101128.52
101126.1
101125.94
101125.89
101125.89
101143.07
101143.11
101143.17
101143.33
101145.73
101160.15
101157.72
101157.58
101157.52
101157.48
101170.05
101170.09
101170.14
101170.27
101172.6
101183.47
101181.32
101181.2
101181.15
101181.12
101190.97
101191
101191.05
101191.16
101193.11
101201.77
101200.01
101199.91
101199.87
101199.84
101207.94
101207.97
101208
101208.09
101209.66
101216.97
101215.57
101215.49
101215.46
101215.44
101222.42
101222.44
101222.47
101222.54
101223.76
101229.95
101228.89
101228.83
101228.8
101228.78
101234.6
101234.62
101234.64
101234.7
101235.61
101240.84
101240.04
101240
101239.98
101239.96
101244.97
101244.98
101245
101245.04
101245.72
101250.26
101249.69
101249.65
101249.64
101249.63
101253.99
101254
101254.01
101254.04
101254.54
101258.59
101258.15
101258.12
101258.11
101258.1
101262
101262.01
101262.02
101262.05
101262.43
101266.03
101265.7
101265.68
101265.66
101265.66
101269.08
101269.09
101269.1
101269.11
101269.39
101272.52
101272.28
101272.26
101272.25
101272.25
101275.2
101275.2
101275.21
101275.22
101275.42
101278.15
101277.97
101277.96
101277.95
101277.95
101280.54
101280.54
101280.55
101280.56
101280.72
101283.12
101282.97
101282.96
101282.96
101282.95
101285.28
101285.29
101285.29
101285.3
101285.42
101287.47
101287.19
101287.18
101287.19
101287.2
101285.23
101284.89
101284.89
101284.89
101284.9
101282.88
101282.88
101282.89
101282.9
101283.06
101280.66
101280.47
101280.46
101280.45
101280.45
101277.89
101277.89
101277.9
101277.91
101278.12
101275.38
101275.15
101275.14
101275.13
101275.13
101272.17
101272.18
101272.19
101272.2
101272.47
101269.34
101269.05
101269.03
101269.02
101269.01
101265.64
101265.64
101265.65
101265.68
101266.01
101262.46
101262.06
101262.03
101262.02
101262.01
101258.1
101258.11
101258.13
101258.15
101258.63
101254.55
101254
101253.96
101253.95
101253.94
101249.5
101249.51
101249.53
101249.56
101250.2
101245.57
101244.85
101244.81
101244.79
101244.78
101239.75
101239.76
101239.78
101239.82
101240.65
101235.46
101234.53
101234.48
101234.46
101234.44
101228.74
101228.75
101228.78
101228.84
101229.93
101223.8
101222.54
101222.47
101222.44
101222.42
101215.43
101215.46
101215.49
101215.57
101217.01
101209.69
101208.07
101207.98
101207.95
101207.92
101199.77
101199.8
101199.84
101199.94
101201.78
101193.1
101191.05
101190.94
101190.9
101190.87
101180.99
101181.02
101181.07
101181.19
101183.47
101172.62
101170.14
101170
101169.95
101169.92
101157.37
101157.41
101157.47
101157.62
101160.28
101145.91
101143.11
101142.94
101142.88
101142.84
101125.38
101125.39
101125.43
101125.61
101128.82
101108.01
101103.41
101103.25
101103.31
101103.36
101072.63
101072.49
101072.23
101072.29
101079.73
101039.67
101028.26
101028.19
101028.56
101028.73
101004.46
101004.48
101004.94
101006.22
101023.89
100962.08
100959.72
100958.31
100957.37
100956.5
100289.33
100317.72
100340.39
100365.97
100592.66
101098.93
101145.92
101148.5
101149.61
101148.33
101099.57
101123.36
101133.06
101143.97
101177.3
101430.19
101413.03
101403.44
101389.74
101367.94
102483.41
102444.56
102403.64
102354.54
101923.07
101370.1
101192.57
101167.4
101140.28
101107.48
101734.92
101726.63
101717.14
101702.65
101566.54
101473.24
101565.45
101573.92
101579.83
101578.27
101119.58
101145.88
101159.88
101177.43
101284.48
101211.81
101130.06
101120.95
101115.62
101094.86
101276.79
101294.59
101300.98
101305.97
101320.36
101360.21
101262.92
101243.73
101224.14
101195.98
101763.17
101756.37
101747.8
101734.79
101597.38
101119.66
101019.37
100997.99
100975.28
100940.41
101096.19
101102.02
101101.85
101101.99
101095.59
100588.92
100389.16
100369.44
100352.78
100330.14
100936.04
100937.15
100937.73
100938.98
100942.91
101016.09
101001.82
101000.81
101000.47
101000.42
101028.29
101028.06
101027.66
101027.54
101035.74
101078.38
101072.73
101072.73
101072.98
101073.15
101104.4
101104.34
101104.29
101104.4
101107.57
101128.45
101126.03
101125.88
101125.83
101125.82
101143.03
101143.06
101143.13
101143.29
101145.69
101160.13
101157.69
101157.54
101157.48
101157.45
101170.03
101170.06
101170.12
101170.25
101172.59
101183.46
101181.3
101181.17
101181.13
101181.09
101190.96
101190.99
101191.03
101191.14
101193.1
101201.76
101199.99
101199.9
101199.86
101199.83
101207.94
101207.96
101208
101208.09
101209.66
101216.97
101215.57
101215.49
101215.46
101215.44
101222.42
101222.44
101222.47
101222.54
101223.76
101229.96
101228.91
101228.85
101228.83
101228.81
101234.61
101234.62
101234.65
101234.7
101235.61
101240.84
101240.04
101239.99
101239.97
101239.96
101244.96
101244.97
101244.99
101245.03
101245.72
101250.25
101249.67
101249.63
101249.62
101249.6
101253.96
101253.97
101253.98
101254.01
101254.52
101258.58
101258.14
101258.11
101258.1
101258.09
101261.99
101262
101262.02
101262.04
101262.42
101266.03
101265.71
101265.69
101265.67
101265.67
101269.07
101269.08
101269.09
101269.11
101269.39
101272.51
101272.27
101272.26
101272.25
101272.24
101275.19
101275.19
101275.2
101275.22
101275.42
101278.15
101277.97
101277.96
101277.95
101277.95
101280.56
101280.56
101280.56
101280.57
101280.72
101283.13
101282.99
101282.98
101282.98
101282.97
101285.3
101285.3
101285.31
101285.32
101285.43
101287.44
101287.14
101287.14
101287.14
101287.15
101285.3
101284.96
101284.95
101284.96
101284.97
101282.89
101282.89
101282.9
101282.91
101283.07
101280.64
101280.47
101280.46
101280.45
101280.45
101277.9
101277.91
101277.91
101277.93
101278.1
101275.38
101275.18
101275.17
101275.16
101275.16
101272.23
101272.24
101272.24
101272.26
101272.49
101269.38
101269.11
101269.09
101269.08
101269.07
101265.68
101265.69
101265.7
101265.72
101266.04
101262.43
101262.06
101262.04
101262.02
101262.02
101258.11
101258.12
101258.13
101258.16
101258.59
101254.52
101254.02
101253.99
101253.98
101253.97
101249.6
101249.61
101249.62
101249.66
101250.23
101245.67
101244.99
101244.95
101244.93
101244.92
101239.91
101239.92
101239.94
101239.99
101240.79
101235.55
101234.64
101234.58
101234.56
101234.54
101228.77
101228.79
101228.81
101228.88
101229.91
101223.75
101222.55
101222.48
101222.45
101222.43
101215.5
101215.52
101215.55
101215.63
101217
101209.66
101208.11
101208.02
101207.98
101207.96
101199.84
101199.87
101199.91
101200.01
101201.75
101193.06
101191.11
101191
101190.96
101190.93
101181.06
101181.1
101181.14
101181.26
101183.42
101172.54
101170.19
101170.06
101170.01
101169.97
101157.44
101157.48
101157.54
101157.69
101160.12
101145.7
101143.26
101143.1
101143.03
101143
101125.82
101125.82
101125.87
101126.02
101128.56
101107.69
101104.3
101104.19
101104.24
101104.3
101073.25
101073.1
101072.86
101072.88
101078.66
101035.95
101028.18
101028.29
101028.64
101028.83
101002.35
101002.4
101002.81
101003.86
101017.2
100944.62
100943.08
100942.01
100941.56
100940.64
100335.45
100358.23
100375.04
100394.78
100592.45
101098.83
101107.44
101107.58
101108.23
101102.78
100937.27
100971.78
100993.81
101014.65
101119.4
101259.03
101227.67
101219.77
101209.55
101193.4
100833.48
100854.29
100865.65
100879.03
100982.38
100653.8
100475.91
100461.78
100451.38
100436.12
100938.04
100938.6
100938.94
100939.93
100957.36
101016.16
100996.11
100995.4
100995.36
100995.45
101026.49
101026.31
101025.94
101025.94
101037.15
101078.87
101072.61
101072.57
101072.75
101072.86
101103.69
101103.66
101103.64
101103.77
101107.69
101128.5
101125.4
101125.26
101125.22
101125.2
101142.62
101142.65
101142.7
101142.84
101145.79
101160.28
101157.48
101157.35
101157.31
101157.28
101169.94
101169.97
101170.01
101170.12
101172.72
101183.58
101181.22
101181.11
101181.08
101181.05
101190.92
101190.94
101190.97
101191.07
101193.21
101201.88
101199.95
101199.86
101199.83
101199.81
101207.91
101207.93
101207.96
101208.03
101209.78
101217.06
101215.51
101215.44
101215.41
101215.39
101222.33
101222.35
101222.37
101222.43
101223.82
101230.01
101228.78
101228.73
101228.7
101228.69
101234.48
101234.49
101234.51
101234.56
101235.65
101240.87
101239.93
101239.89
101239.87
101239.86
101244.91
101244.92
101244.94
101244.97
101245.78
101250.36
101249.69
101249.66
101249.65
101249.64
101254.04
101254.04
101254.05
101254.08
101254.65
101258.7
101258.21
101258.18
101258.17
101258.17
101262.04
101262.05
101262.06
101262.08
101262.51
101266.08
101265.71
101265.69
101265.68
101265.67
101269.07
101269.07
101269.08
101269.1
101269.42
101272.53
101272.25
101272.24
101272.23
101272.23
101275.17
101275.17
101275.17
101275.19
101275.43
101278.15
101277.94
101277.92
101277.92
101277.92
101280.44
101280.45
101280.45
101280.46
101280.68
101283.1
101282.89
101282.88
101282.87
101282.87
101284.89
101284.88
101284.87
101284.87
101285.32
101285.27
101284.86
101284.86
101284.87
101284.87
101282.86
101282.86
101282.87
101282.88
101283.07
101280.66
101280.45
101280.44
101280.43
101280.43
101277.9
101277.9
101277.9
101277.92
101278.13
101275.41
101275.17
101275.16
101275.15
101275.15
101272.21
101272.21
101272.22
101272.23
101272.51
101269.39
101269.07
101269.05
101269.04
101269.04
101265.65
101265.65
101265.66
101265.68
101266.06
101262.49
101262.05
101262.03
101262.02
101262.02
101258.14
101258.14
101258.15
101258.18
101258.67
101254.62
101254.05
101254.03
101254.01
101254.01
101249.62
101249.62
101249.64
101249.67
101250.32
101245.74
101244.97
101244.93
101244.92
101244.91
101239.86
101239.87
101239.89
101239.93
101240.84
101235.61
101234.55
101234.5
101234.48
101234.47
101228.68
101228.7
101228.72
101228.78
101229.99
101223.83
101222.45
101222.39
101222.36
101222.35
101215.4
101215.42
101215.44
101215.52
101217.08
101209.76
101208.01
101207.93
101207.9
101207.88
101199.75
101199.77
101199.8
101199.89
101201.86
101193.18
101191
101190.9
101190.87
101190.84
101180.97
101180.99
101181.03
101181.14
101183.54
101172.67
101170.07
101169.94
101169.9
101169.87
101157.27
101157.31
101157.36
101157.49
101160.27
101145.8
101142.97
101142.81
101142.75
101142.72
101125.36
101125.38
101125.43
101125.59
101128.58
101107.63
101103.8
101103.67
101103.68
101103.71
101073.2
101073.08
101072.91
101072.96
101078.87
101037.63
101026.47
101026.47
101026.87
101027.06
100994.36
100994.42
100994.39
100995
101017.15
100956.99
100933.85
100932.9
100932.72
100932.43
100509.03
100517.53
100521.93
100530.16
100656.53
100932.69
100712.43
100683.56
100654.73
100617.64
101333.51
101335.09
101333.01
101328.75
101274.35
101338.59
101213.42
101195.18
101180.73
101152.9
101791.36
101817.67
101835.58
101847.61
101806.78
101429.94
101483.81
101480.02
101472.51
101457.08
101249.05