/*--------------------------------*- C++ -*----------------------------------*\
  =========                 |
  \\      /  F ield         | OpenFOAM: The Open Source CFD Toolbox
   \\    /   O peration     | Website:  https://openfoam.org
    \\  /    A nd           | Version:  7
     \\/     M anipulation  |
\*---------------------------------------------------------------------------*/
FoamFile
{
    version     2.0;
    format      ascii;
    class       surfaceScalarField;
    location    "390";
    object      phi;
}
// * * * * * * * * * * * * * * * * * * * * * * * * * * * * * * * * * * * * * //

dimensions      [1 0 -1 0 0 0 0];

internalField   nonuniform List<scalar> 
76358
(
36.220915
-0.010857584
2.0235822
1.4730465
-1.4800987
-2.0330807
0.060484061
-34.801385
0.00031430856
2.1429041
2.1295069
-2.0922162
-2.0992557
-1.4917438
1.47292
2.0310858
-2.057191
-0.059527209
-36.221071
-1.4919315
1.4726992
-2.05724
2.031051
-34.675236
-2.0404137
2.0188008
-2.0331076
1.9930775
0.0011955352
-34.801909
2.1294926
-2.0922747
-2.0987925
2.143534
0.00094685801
0.01041411
0.00050929685
-2.0829708
2.0765283
2.0780441
-2.0871447
1.4729112
2.0235577
-2.0331294
-1.4801954
2.0765178
2.0776785
-2.0871164
-2.0828864
0.00027832806
-0.05374482
10.408475
0.36953847
-0.37444914
-0.53861756
0.53255118
-0.0095721208
-8.2576635
-0.0056264886
9.6651648
-0.0075965468
-7.6821044
10.340042
0.0057985808
-7.4055091
7.4254856
-0.034682129
-0.034437067
0.00078097216
0.0010732269
-9.2584756
0.37594425
-0.38794437
-0.52744674
0.51584254
-0.060938653
-36.220856
1.4731893
2.0313114
-1.4915132
-2.0569724
-2.0992415
2.1428913
2.1296999
-2.0919951
-34.801339
0.010065567
-2.4922206
-2.5117768
-2.1923973
-2.3387426
0.38492325
-0.38293111
-0.39072224
0.53365647
-2.5293158
-2.4594445
-2.1989816
-2.2188921
-0.38862414
0.54367593
0.54245685
-0.38398236
0.0001140936
-0.42591381
-0.015722015
-2.0484152
-0.00033480215
-0.038929988
0.010501169
-7.8092089
-0.52214064
-0.50308235
0.41254451
8.8838123e-05
0.12987335
0.32537295
-0.37548339
-0.52815079
0.41887337
-8.2470826
-7.6927451
-0.13140566
-0.023956882
-0.095496554
0.024211995
9.3825365
0.37610016
0.368417
-0.38043664
-0.38639234
-0.38654693
-0.38060781
0.3682184
0.37593227
-9.3853895
7.6927892
-0.095022069
-9.6652321
-0.13171891
-0.12929063
0.33160077
-0.37588989
0.41556521
-0.36765477
-0.36748858
-0.37568158
0.41573426
0.33180303
-1.8166185
-0.0035852182
-0.015043097
-0.04716153
-0.04539652
-2.4754338
2.086536
0.08669122
-0.09783653
-0.13077173
0.10674392
-2.6282829
0.0016076795
-0.025674682
0.019370421
-0.63969168
-0.61829447
-0.55979892
-0.61097113
0.022507745
0.16880607
-2.0831214
0.16427135
0.083724714
-0.096752036
0.10148818
-0.12930341
-0.1119957
-2.3433345
-0.47671721
0.0019330773
0.0055083831
-0.0041727046
-0.0022464829
-0.66488659
0.52141095
0.00015814776
-0.65508763
-0.0014259011
0.0068159856
0.0049774932
0.00026264308
-0.57152553
0.0047655858
0.013514368
-0.51612226
0.01241034
-0.013263772
-0.62328327
-0.011125109
-0.57665571
-0.00010871352
-0.007866733
-0.00083396136
-0.57604412
0.010903018
-0.02400581
0.020577747
-0.032553435
0.025617081
-0.00031622964
-0.12863151
0.0014816732
-0.52788884
-0.0008829146
-0.52626623
-0.0066331
-0.0065044943
0.095150477
-0.097509305
-0.13153781
-2.0836139
-0.0094237317
-0.37300295
0.36642383
-0.53658343
0.53345584
0.5123707
-0.51879443
-0.53927327
0.0001223796
-9.9057696
2.526433
-0.13223595
0.1307491
0.1334987
-0.13514814
-0.0023525619
-1.9941214
0.0029753393
0.10748418
-0.13141159
-0.13453075
0.11296773
2.0131113
-0.13416953
0.11249973
0.10740748
-0.12966179
-2.4693017
7.547301e-06
-0.034127442
3.8635238e-06
-0.0058835434
-0.64134071
-0.61830419
-0.5645515
-0.57427998
0.1712585
-7.6506661e-06
-0.62645568
-0.64167752
-0.57401929
-0.56882008
0.16977466
-0.52582553
0.0050913557
0.0067401708
9.7752815e-05
0.00082945209
-0.65959023
0.53210745
0.00084305199
0.00021617192
-0.66759967
0.0069424293
0.0015465759
-0.0045864544
-0.57702136
0.0016291521
0.012901803
-0.57512292
0.013222143
0.0012868604
-0.56319763
-0.012491409
0.00045915719
-0.56287736
-0.012473243
-0.00095312378
-0.00033273673
0.57603942
-0.012242391
-0.56205202
0.530946
0.000308053
-0.66616054
-0.0033681226
0.0070197221
-0.52151727
0.0072549588
-2.5262527e-06
0.0010164205
-0.65188487
-2.5570072e-06
0.5727105
-0.012046468
-0.55997603
-4.3150737e-06
0.0024929006
0.012925328
-4.2730417e-06
0.01290122
-0.0016024145
0.58434136
0.010477466
-0.5775998
-0.0027153881
-0.0048960443
0.58411768
-0.57842337
0.010501124
-0.004188283
0.58016492
-0.57857612
0.010925584
0.0019643446
0.57212734
-0.57545631
0.010690712
-0.10008868
0.62549805
-0.52048266
0.0094479756
0.1121927
2.2123563
-2.3689738
-0.12834691
-0.093046557
0.087380723
-0.092991856
-0.12826826
0.10016936
0.087443915
0.045476129
2.0831371
0.08380286
0.10155673
-0.12924171
-0.096676035
-2.3433509
0.37556369
1.8166349
-0.046944465
-2.4754595
10.416706
0.32530711
0.41892145
-0.52809432
-8.2472056
-0.0098688465
8.3786934
-0.20148893
-0.0094941713
-0.063681306
-0.013038386
-9.2586172
-0.0037997963
0.51584738
0.37579684
-0.38810678
-0.52748854
0.011062084
0.5336317
0.38474846
-0.38311433
-0.39080105
-2.3388185
-2.4922663
-2.5117647
-2.1924083
0.30136642
8.8016084
-0.38868156
0.54373426
-0.3837261
0.54293881
0.00084070119
-2.5294576
-2.2190323
-2.4595185
-2.1990105
8.3865363
0.00070580419
-10.128477
-0.075592661
0.00068375626
0.51888015
-0.52787555
0.51652001
-0.52427272
0.00069956871
-0.0031395462
-2.0949721
0.0023998591
0.0009735295
-0.0045391448
0.00067747819
-2.0932365
-1.8942509
0.0043768641
-0.0031486796
-0.0029743015
-2.6641791
2.0931657
0.0031323609
-2.6276383
0.00078324103
-2.3252541
0.0025445702
-0.0029966316
-2.3267067
0.0038964656
-2.6277294
0.001033427
-0.0063247549
0.01247909
-2.1038151
0.0035630529
-1.9069723
0.0061401613
-0.015817477
-0.015623138
-2.6415771
2.1037398
-0.013929959
-0.001212586
-2.495137
0.012639373
0.0032587214
-2.3078708
0.0032330703
0.0030494895
0.014099148
-0.0010578365
-0.00122698
-2.3336151
-0.00094605631
-2.495194
2.1047392
-0.0022276775
0.0022890357
-2.4944281
2.6292458
0.021619958
0.0011707693
0.006520772
0.00091079154
2.3141794
0.0018715096
-2.3136964
0.0016599991
-0.002487975
-2.304588
0.0003148477
-2.0881008
0.00027216021
0.007062872
-2.6188568
0.00033113065
-2.3042732
0.00036725605
-0.0018081072
-2.2890858
-0.023120961
0.00042929965
0.0093123492
-2.2993785
0.008727068
0.0027152281
0.0069006768
-2.31228
-0.0013093636
0.00050094745
0.0095121887
-2.2950743
2.0982321
0.00038432983
-2.4813628
0.00036390078
-0.54321446
2.6185592
0.023903198
-2.0979817
-0.00090239307
0.30021365
8.801173
-0.010432081
-0.38326217
-0.38772802
0.54449345
-2.4596288
-2.1989759
-2.5294592
-2.2187676
2.0327887
8.3864943
0.010185385
-10.128549
1.9934077
2.0197819
-2.0394457
-34.675517
0.0013592629
-2.0925558
-0.51638382
-0.0050200675
0.0029991261
-0.0016217663
-2.3242783
0.0014713237
-0.0035194178
-2.3130629
-0.0030616886
-2.303965
-0.51673779
-0.00074809913
-2.0878721
0.074470473
0.0043004294
0.51953096
-0.52696562
-0.52393056
0.01371646
-8.3787135
-0.062026094
-0.19983335
-10.416887
9.2581642
0.53442506
0.38535536
-0.38245161
-0.38984909
-2.511851
-2.1921868
-2.3387009
-2.4923545
0.51653804
-0.52653817
0.37636434
-0.38740453
0.0032823598
-2.0927408
-0.0048257875
-2.0944888
0.00065229221
0.0077464699
-2.6286548
-0.0011984113
0.0077399851
-0.0016687958
-2.3035656
-2.3125288
-0.0043894137
0.0016317239
-0.022934427
-2.2981775
0.010778274
-0.0038268794
-2.288329
0.010727585
-0.0022813627
-0.0025683759
0.011182302
-2.2941606
-0.0019959691
-2.4811449
2.1042592
0.00074320949
-0.00076103226
-2.4939653
-0.0037390041
2.6271478
-0.0066498119
-2.1033737
0.013561838
0.0040154857
0.0026548676
-0.00373244
-2.3257057
0.5266165
0.0024608604
-2.6269214
0.37617239
-0.38757845
-9.257812
-1.8939483
-2.6638156
-0.38518795
-1.9067391
0.0068170188
-0.38259021
0.53426076
-0.38995564
0.011329059
-2.3387013
-2.1920983
-2.5117726
-2.4923378
-0.015255444
-0.015104498
-2.641421
-0.012932212
-2.4948029
-0.00034542635
2.3068758
0.013204644
-2.2520785e-05
-2.3326447
0.0091464814
-2.3109988
0.01106033
0.013466913
2.2675791
-0.0085405919
-2.2744193
-0.0014016752
2.2226586
0.021377748
-2.2203921
-0.011322603
0.017631041
2.2248337
-2.2230316
-0.0071935594
2.2704204
0.0099286815
-2.2775774
0.0021336857
0.0022825148
2.2989403
-2.3117771
2.1044891
0.0019217475
-2.4941139
0.00081783889
0.021626342
-2.0977846
0.022669825
-2.444098e-05
0.00100021
-2.4808166
-2.8896101e-05
2.2875539
0.0090782443
-2.2932886
-6.0844727e-05
-0.0013702856
0.008601687
-4.7586783e-05
0.0089216775
0.0077547533
0.0090800004
-2.2202888
0.011926275
-0.00053377992
0.016367808
-2.2171381
-0.00051155671
1.9894768
-0.0019101387
-1.9494988
-0.0040689935
-0.013326813
-0.0016747603
-0.0034219236
0.001196973
0.016469286
-0.0087279777
-1.9935363
-0.013524126
-0.0019290407
-0.017148572
-1.9546408
-0.0022793103
2.2143863
-0.0098464728
-2.210023
0.0018015725
-0.011135523
-0.0096904634
0.0014209437
-0.010149553
-0.0041842008
-2.2971063
0.0022507077
-0.022662208
-0.013279121
-2.1031848
0.0040620315
-0.00047557921
-2.4945647
-0.0010338524
0.38775275
2.1036088
0.0024173263
-2.4932206
0.0031738608
-2.3098771
2.2849989
-0.0019803994
-2.2903245
0.00063338617
-0.023703033
0.00054924219
-0.54307391
-0.0013155748
-2.0966728
0.00029488896
0.54419737
-0.38300043
0.0005180219
-2.2185323
-2.198428
-2.5293356
-2.4593698
-2.4795296
0.00029331947
0.008787765
0.00033161232
-0.57236694
-0.57893977
-0.0054849914
-0.58418631
-0.575564
-0.17210695
0.017538282
0.00073572142
-0.56517243
-0.56876655
-0.0064130132
-0.58177023
-0.57768853
0.02390437
0.0020935817
-0.016724598
-0.56372569
-0.55503642
-0.5283713
-0.55462471
0.0021354807
-0.0027682983
-0.030309422
-0.53215647
-0.49777162
-0.38302805
-0.48683809
-0.024051624
-0.0048815015
-0.02487268
-0.49763974
-0.53353095
-0.48819332
-0.37419353
-0.016476516
-0.00041233326
-0.013595053
-0.55733698
-0.5650797
-0.5562737
-0.53201547
-0.0077521268
-0.0054130214
-0.56966614
-0.58228177
-0.57834035
-0.56627276
-3.8923883e-05
-0.0049960682
-0.57932914
-0.57577492
-0.572849
-1.9690742e-05
-0.013924022
-0.57854778
-0.57944602
0.0068650806
0.050544337
-0.59916748
-0.57456784
-0.01943856
-0.16408587
-0.050319285
0.015115409
-0.01914845
-0.00340584
-2.0865546
-0.025704328
0.016009805
0.08666753
-0.097864305
-0.13075958
0.1067532
-2.6283195
0.0019293273
0.63971015
0.0054892578
-0.47672484
0.0019958238
-0.61099844
-0.61829028
-0.55979835
0.022827597
0.16870855
-0.51612927
-0.0001931757
0.012370004
0.0022671039
-0.013185292
-0.6232891
-0.011163696
-0.0041012436
-0.66489683
0.52141852
0.00014540599
-0.65509644
-0.0013283053
0.0068042234
0.0050730465
-0.57153658
0.0048637179
0.013485559
-0.5766628
-2.0952578e-05
-0.0078927116
0.01081739
-0.57605096
-0.00082338952
-0.00021603678
-0.024018234
0.020566999
-0.032553714
0.025615141
-0.12422538
0.00085443887
-0.48129168
-0.0078090806
-0.0049744887
-2.0751492
0.091110718
-0.095446327
-0.12897847
0.12196161
-0.36635927
-1.7523655
0.0067077123
-0.37306934
-0.53652919
0.52634174
-0.0089300895
-10.408675
-0.011860373
-0.017675919
-2.4763352
0.093474987
-0.093767231
-0.12650533
0.12666177
-0.13065636
-2.3426097
-0.097976652
0.66462372
0.0011992796
-0.47516917
0.00079780142
2.0836591
-0.00084564633
0.13195064
-0.13043366
-0.096759087
-2.6397531
0.095127083
-0.097535289
-0.13152006
0.12864998
-0.0063326456
-0.47639619
-0.0014084038
-0.0021015644
-0.0026525165
-0.0016772837
-0.60480896
-0.0058854713
0.0014111772
-0.00057643732
-0.57751948
0.023281652
0.031861777
-0.032352043
-0.023834891
0.5278965
-0.0016444605
-0.65901344
-0.00078175797
-0.13075063
0.65960707
0.0022416189
-0.53253509
0.00065527085
-0.53353903
2.5265028
-0.1322384
-0.13508635
0.13356076
-0.0020900366
-1.9941931
7.8094451
0.512693
-0.51854409
-0.53922231
0.00053668856
-9.90617
0.42599583
-0.52209649
-0.50279201
0.41284421
0.00068139349
-2.0484692
-0.038873542
-0.00010928008
0.10748765
-0.13141985
-0.13448102
0.11302031
0.0032594173
0.62649218
0.0067420395
-0.52584035
0.0051668281
-0.56886288
-0.64168968
-0.5740238
0.0062233697
0.16976697
-0.57514215
0.0046745949
0.013210428
-0.00083398445
0.0013852825
-0.56321136
-0.012503039
0.00018457817
0.5321239
0.00086904136
0.00032846957
-0.66761785
0.0069643015
0.0016570591
-0.57704954
0.0017502326
0.012914408
0.00056670783
-0.56289709
-0.012464837
-0.0010138462
0.57607576
-0.00022134876
-0.56207778
-0.012196074
0.13413309
0.53097118
0.00039982499
-0.66618947
2.0131741
0.11255678
0.10752568
-0.12955442
-2.4693988
0.0002970966
-0.033879672
0.00027027763
-0.64140215
-0.5743291
-0.56454281
-0.61833619
0.1715961
0.00034730727
0.0070704733
-0.0032876048
-0.0023918776
0.012959241
-0.007348572
-0.57274867
0.013050609
0.00011194586
-0.52154124
9.4551905e-05
0.0011228179
-0.65191413
9.5484205e-05
-0.56000347
-0.011941425
9.7694254e-05
-0.00017611846
-0.0026325964
0.00010728408
-0.54465737
-0.032466067
0.026111593
0.02611691
-0.032407102
-0.00040046673
-0.0025306981
-0.54651506
-0.032566165
0.026100006
-0.032471458
0.026129938
-0.00053340704
-0.0023965373
-0.032645845
0.026004961
0.026112452
-0.032551304
-0.54728788
-0.54827872
-0.032736815
0.025895896
0.02602163
-0.032621172
0.0011849467
-0.5493591
-0.0325565
0.032082757
0.031945355
-0.032359686
0.00020706887
-0.00065819427
-0.66457481
0.53606092
-0.67075416
-0.0011149878
6.3682112e-05
0.00026255744
-0.13324149
-0.53470871
-0.00050741597
-1.9566035
-0.13459296
-0.13003259
0.12892232
0.00026938367
-0.0016063662
0.1359218
-0.13398064
0.13151105
-0.12948517
-2.4777357
0.0002274693
0.1334348
-0.13174411
-0.13443742
0.13629622
-2.5394169
-0.0006869826
-0.53189891
0.00070278105
0.0007431013
-0.52714447
0.0005939671
0.0010760739
0.00071021337
-0.00076193829
-0.65860248
-0.00011488875
-0.66450452
0.48115006
0.00049774332
-0.0037283155
-0.60453971
8.4309795e-05
0.0037163546
-0.57722582
0.00011176537
0.032465193
0.02383091
-0.023733097
-0.032290147
0.00022141776
0.023899256
0.032571594
-0.032319888
-0.023769397
-0.57662085
-0.00079188295
0.54927946
0.032734026
0.00019419264
0.032635699
-0.032576405
-0.03240307
-0.5488506
-0.00055381839
-0.66464302
0.53479729
4.6555264e-05
0.00086794547
-0.67070303
0.00084675631
0.00019537019
-0.00022995364
0.5477854
0.00027142183
-0.54770786
-0.032303451
0.032601385
0.032656218
-0.032226403
0.032708003
-0.03248823
-0.032287052
0.032612551
-0.0001764473
-0.13133271
0.00016540041
0.16394643
0.00010532575
-0.00023178149
0.16349753
0.00012149822
-0.1310985
-0.02354605
0.16519856
-0.11861168
0.00055829927
-0.13113852
0.64878575
-0.00065152299
-0.51333152
-0.023551588
-0.032779189
0.032836901
0.13047141
2.1286387
0.098680231
-0.098189999
-0.13084947
0.13104525
-0.13093938
0.098606704
-0.098265441
-2.3909929
0.011796616
2.0751298
0.093395966
-0.093837157
0.12659095
-0.12657087
-2.3425808
1.7523412
-0.017859533
-2.4762958
0.0050451803
0.091031998
-0.095524926
-0.12904677
0.1241585
0.12215394
-0.47638805
-0.00083438943
-0.0027281989
-0.0020831128
-0.66461097
-0.0014038125
-0.0017497477
-0.65900129
0.0017654022
0.023293212
-0.023823258
-0.032353626
0.031860455
-0.00067801514
-0.57751211
0.481287
-0.0058487701
-0.60480271
-0.0077691395
-0.13194845
-0.51136617
-0.024017062
0.019810837
0.6464611
0.025717524
-0.033135404
0.00070848139
-0.13216695
0.10133491
-0.09938064
0.10139754
0.13203542
-0.13207656
-0.099311662
0.023106227
0.00031141727
0.032334772
-0.03276596
-0.023587102
-0.64878124
0.16449291
0.00030770048
-0.11845903
5.785641e-05
0.11804503
-0.0007931623
-0.00078182699
0.1559903
0.0016778869
0.00076542224
0.015336339
0.0073283293
-0.15542838
-0.15414323
-0.14247728
0.0020514857
0.0018427643
0.5272407
-0.015519394
-0.030820591
-0.57210451
-0.0019145527
0.026816479
-0.57952564
0.010393836
0.0033401224
0.0067998355
-0.15366762
-0.15632741
-0.14457094
-0.14270843
0.0027578519
0.012853771
0.58125476
-0.00059640365
-0.14792627
-0.15571008
-0.14320353
0.003188059
-0.14306047
0.030888987
-0.012782178
0.58313385
-0.61920748
-0.0017996295
0.527248
-0.015442696
-0.57210854
0.52049087
-0.015255039
-0.64646742
0.62551684
0.0094077609
-0.001894368
-0.59920266
-0.57458445
-0.57212079
-0.01962592
0.014245879
-0.0018503478
0.026747359
-0.010653467
-0.57954703
0.010333674
0.0034320192
-0.57547249
0.0042894217
0.0072845141
-0.15599532
-0.15543719
-0.15414077
-0.14247723
0.0021457613
0.006740073
-0.14456692
-0.15633284
-0.15367754
-0.14271083
0.0028428472
0.5812754
-0.00066879776
0.0032669772
-0.14319954
-0.15571449
-0.14793721
-0.14306444
0.00033810989
0.58566355
0.0023383586
0.0032690555
0.63743419
-0.00039839053
-0.58567392
-0.57844345
0.0073782385
0.0071572688
0.0023940143
0.003182266
-0.58125045
0.0038079159
0.0037314633
-0.15631369
0.0033055171
0.0032261485
-0.14443393
-0.14442675
-0.14387295
-0.0061526279
-0.0061279411
0.00099287081
-0.14603977
0.0010137748
-0.0010819182
-0.022173187
-0.13199377
0.0011699749
-0.0019055822
0.0012501583
-0.13022831
-0.025908259
-0.00099464628
-0.025532064
-0.13016517
0.0011186798
-0.0018222092
0.00099188725
-0.13121816
-0.025273575
-0.13073049
0.00087531614
-0.00071237521
3.3023755e-05
-0.16397971
0.0004419186
0.14367134
0.00045844034
-0.14549058
0.0002065072
0.13013552
-0.16294064
-8.8227528e-05
0.0014510984
0.00092369947
0.0021398858
0.001380589
-0.14413818
0.0010834054
0.0016156084
0.00076464159
0.00054711606
-0.14527371
0.00028221721
0.033036919
-0.16379499
0.00033757278
-0.49416953
-0.032329893
0.038669591
0.032184149
-0.032597885
-0.031943421
0.031861583
-0.032397141
-0.56034604
-0.00027888127
-0.13156986
0.00030197922
-6.4073194e-05
-0.13154067
-7.5443561e-05
0.00047068659
0.00011480612
-0.00015802619
-0.1647341
-0.00020242984
-0.16519627
0.13092694
9.2232573e-05
-0.16349657
-7.8662691e-05
-7.3691838e-05
-2.1695508e-05
-0.14580507
0.00013985362
2.5500914e-05
0.00017288885
-0.1458587
8.7774641e-05
-0.00014686461
0.00023497371
0.14555302
-0.14559843
0.00013019701
7.1766728e-05
-0.16454441
0.13004283
7.3673986e-05
0.00018532665
-0.16217348
0.16182561
0.00039138526
-1.0610759e-05
-0.00066476104
0.00033288564
0.14376972
0.00052711071
-0.14476371
0.0003492351
0.0015397233
0.0017236496
-0.14308791
0.00095056801
0.0017236991
0.00037472151
0.00039084053
-0.14376035
0.00043398997
0.032363059
-0.16197973
9.5968945e-05
-0.038588634
0.025934421
-0.032335889
-0.023952904
0.02219398
-0.52553582
-0.023971431
-0.00065967154
-0.49417285
0.02530036
-0.033010154
-0.032310508
0.025553191
-0.51137085
-0.023991028
0.019835807
0.025739991
-0.033114674
0.00026341782
0.032357874
0.023134195
-0.023559742
-0.032742879
0.032214033
-0.032567842
-0.0319203
0.031883895
-0.56034776
-0.032483118
-0.00026483199
0.16379755
-3.6165545e-05
-0.13157104
0.00028851852
-0.00029893046
0.16398191
-4.8338573e-05
-0.1315416
0.16449552
8.1793057e-05
-0.1184604
0.11804732
-0.00080209159
-0.00075897094
0.0016697724
0.00078503664
-0.1307329
0.00089692071
0.0018085487
-0.00068686808
1.9108096e-05
0.00044963213
0.14367407
0.00044795025
-0.14549258
0.00023405808
0.13013721
-0.16294225
-5.8011017e-05
0.0014439227
0.00095268965
0.0021281927
0.0014094952
-0.001013624
0.0010717033
-0.14414135
0.0016445418
-0.13122073
0.00098317615
0.00032447803
-0.00073870189
0.13016776
-0.00063887452
-0.16182789
0.00031297699
0.0011399187
0.001886663
-0.1437734
0.0015222262
0.0017519708
-0.00053387801
-0.14476624
0.00051075746
0.00037708858
-0.14527598
0.00031000003
-0.00012965812
-0.14555431
0.00027518577
9.6635672e-05
8.0903443e-05
-0.14580638
5.4893778e-05
-0.13092779
1.0014051e-05
0.00017745267
8.5655706e-05
-4.5406957e-05
-0.00047901552
0.00014345354
-0.00017169408
-0.16473525
0.00016319513
-0.14585959
0.00011912852
-0.00017683214
0.00022190367
-0.14559899
0.0001628106
5.8283937e-05
-0.16454569
0.13004359
0.00021625251
-0.16217404
5.218162e-05
1.7659998e-05
0.00037045692
-0.14491713
0.00029739743
0.00014633557
-0.14494407
0.00025971706
0.00020537435
-0.00011192551
-0.00018662683
-0.1450488
0.00022212785
0.00018116141
-0.032247092
-0.00019632702
-0.13017421
0.00033165978
-0.49557659
-0.032625119
0.032715258
-0.032011651
0.032931958
-0.00083449235
-0.032560156
0.032925199
0.032399208
-0.032013353
-0.03239392
-0.56128908
0.023854657
-0.023460417
-0.032679889
0.033137345
-0.6495955
0.16520792
0.0004325062
-0.11847828
0.00059175909
-0.00043800358
-0.00025044118
0.13171198
1.9510913e-05
-0.16477852
-0.00017015876
1.1549647e-05
0.00036037923
-0.14598247
0.00015340053
0.00010252566
-0.00010979799
-0.14606886
0.00012395368
9.1747067e-05
-0.16371809
-3.0800952e-05
-0.13103424
9.7221809e-05
0.00022303039
0.00011812667
5.4179913e-05
-3.6927434e-05
-0.16348951
-0.00046240112
-0.16512756
0.1316302
0.00016975378
-0.00022661407
-0.16471563
0.00020670116
0.0003740831
-0.14597772
9.969518e-05
0.00011308422
5.0279997e-05
8.4008821e-05
-0.14588807
-0.00015582671
4.6697228e-05
0.14572665
8.9620524e-05
-0.14565686
0.13167269
-4.7284812e-05
-0.164568
0.16460129
0.00017254303
0.00019814432
0.13172954
5.8239766e-05
1.8231498e-05
6.3155833e-05
-0.14570938
0.00014031333
0.00014573758
-0.1457927
0.00011978056
-9.4985277e-05
-0.14513102
0.00017119882
0.00015173506
-0.16227459
1.1976622e-05
-0.13016484
0.00019357576
0.00026842346
0.00014648388
-0.00011307975
-0.16225888
0.14508599
4.2774551e-05
9.6909493e-05
-0.14503249
-0.00010594825
0.0001129205
0.00014157672
0.00012584034
-0.00010873057
-0.14438848
0.00012057822
0.14438487
0.00011760093
-0.00010133319
0.14566221
9.765618e-05
-0.14565418
0.1640604
9.1772066e-05
-0.13129645
0.00014379847
6.4864074e-05
0.14562045
0.00011752629
0.0001597757
0.14555329
0.00013431652
0.00020077346
-0.00012055436
0.14544583
0.00020601862
0.00014112001
0.13115475
6.9219437e-05
0.1632128
-7.2149966e-05
0.00010687847
0.13078397
-0.0005198797
0.00015387847
0.15581126
0.0015059048
0.00031539477
0.57860757
0.0072078908
0.0020958332
-0.14417516
-0.14326168
-0.15502049
0.58022332
0.010897674
0.0049864296
-0.57863162
-0.58415423
-0.57952604
0.0067278555
0.005392048
-0.58016053
0.004132223
0.011726386
0.002234624
0.0064378759
-0.14501062
-0.14617258
-0.14439303
-0.14320606
-0.007076171
0.57854689
0.0061916646
0.0010601473
-0.14489597
-0.14518781
-0.14337103
-0.14303311
0.57847475
0.00083626836
-0.15519374
-0.14340937
-0.14314214
-0.15501093
0.010488321
0.0017330354
0.011840847
0.0018005475
-0.0029847613
0.58322464
-0.57503221
0.0046860619
0.0019471153
0.58577318
0.0041079286
-0.57787043
-0.57666343
-0.57143515
0.0058850158
0.013037519
-0.57562185
0.0025072925
0.0043669695
-0.0047769147
0.002828711
-0.14372333
-0.14452498
-0.14321181
-0.14261561
0.003707601
0.0024141456
-0.14358651
-0.14486324
-0.14404847
-0.14285842
0.0048021236
0.0014980619
-0.14338796
-0.14376635
-0.14300487
-0.1425674
0.57220458
0.0023877378
-0.14274281
-0.1433744
-0.14288474
-0.14216049
0.0042009562
0.0027373288
0.0052254535
-0.0048762445
0.57021119
0.001880544
-0.5699305
0.0054523395
-0.011919114
-0.00011313164
0.58262895
-0.57352583
-0.01050384
0.57949299
-0.57750605
-0.0016016662
0.58446395
-0.0026042639
-0.57767125
-0.5758559
-0.57295739
0.0079288353
0.00046673491
-0.57613214
0.010592137
0.00013044898
7.7835962e-05
0.0074314774
-0.15485671
-0.14307638
-0.14301739
-0.15475375
0.00012134714
0.0072596807
-0.1550581
-0.143193
-0.15489437
-0.14306743
0.00025250843
0.0063991131
-0.14484239
-0.14497396
-0.14309753
-0.14292396
0.57635077
0.0067104036
0.00014053889
-0.14287145
-0.14295186
-0.14487655
-0.14481788
0.012223377
0.00016047158
0.57871088
0.0056407438
-0.57244329
0.00020191188
-0.5670363
0.00066725681
0.016659574
-0.56791479
0.00035921102
0.0080405604
-0.0019405511
-0.0060734078
-0.14153147
-0.1426916
0.00030279943
0.0075107967
-0.14102037
-0.14247098
-0.0053036317
-0.1422146
-0.14299892
-0.14263097
-0.14160062
0.0052654311
0.00080831407
-0.14328148
-0.14348157
-0.1426371
-0.14234046
-0.14334006
-0.14237487
0.00018382665
-0.1432474
-0.14221948
-0.00025210549
0.001100459
-0.14285846
0.00012796189
-0.0014579246
-0.0002584174
-0.0014023795
-0.1429089
0.001036109
-0.00039176069
-0.0013291548
0.00094589076
-0.14296496
-0.00035756146
-0.0012661448
-0.14303463
0.00087861153
-0.00062541523
-0.0012240002
0.00083025565
-0.14310476
-0.00060569573
-0.0011998129
-0.14321785
0.00081142923
-0.0017519144
0.00096560053
-0.14330339
-0.0013792356
-0.0012711648
0.00093404624
-0.14309211
-0.13023082
0.0010662553
7.7205848e-05
-0.0003488947
-0.16198205
0.13199567
-2.922404e-05
-0.0091329883
-0.14670915
0.0011907507
-0.14373337
0.0011939445
0.0015997763
-0.00037109792
0.00035099885
-0.144271
0.00052850772
-0.14376328
0.00046193468
-0.00012740927
-0.14387443
0.00030944476
0.00022651016
-0.032321016
-0.12957278
0.0001547921
0.032290151
-0.032248611
-0.59139384
-0.024087208
0.024481173
-0.024064564
-0.03221658
0.024502384
-0.12957195
0.00017493714
9.8816925e-05
0.00023937159
-0.16223078
0.00024451763
-0.00027690601
-0.14390457
0.14387283
0.00022666507
0.0003213544
0.14491578
-0.14494374
0.00017135387
-0.0002884754
0.0003142749
0.00011566303
6.6610263e-05
-0.0001737468
0.00034306333
0.1438974
0.00017751612
-0.14417762
6.7683701e-05
0.14510063
0.00012725291
-0.14544381
-0.032090223
0.16320931
7.9391773e-05
-0.13115249
0.0011998192
9.2084782e-05
0.54826866
-0.54934951
0.031937368
-0.032368175
-0.032548477
0.53252151
-0.00075179875
-0.66455559
0.00056480868
0.0022326607
-0.53604652
0.0023642964
0.00014606314
-0.0011564081
-0.67073351
-5.6542662e-05
0.54727322
-0.54777278
-0.03237258
0.031937019
0.031988554
-0.032305503
0.00018774873
-0.00042033933
-0.03264069
0.026006301
0.026100725
-0.032563139
0.00027729591
0.025902818
-0.032727309
-0.032626172
0.026017778
0.15580262
-0.13078053
0.00029308767
0.0015113394
0.0019892848
0.0072391843
-0.15501992
-0.14325966
-0.14416232
0.007091617
0.00071700208
-0.15518023
-0.15500618
-0.14339246
-0.14313707
-0.0021392661
0.578454
0.00095034019
0.0062386196
-0.14488576
-0.14516855
-0.14334433
-0.14301344
0.58011149
0.0064912899
-0.14616203
-0.14500928
-0.14319747
-0.14437622
0.0040503363
0.011779074
0.0016739146
0.011885532
-0.5773613
-0.001722328
0.011905868
-0.0072380457
0.00011875868
0.0064190664
-0.14305598
-0.14494167
-0.14482073
-0.14289237
-0.00020864126
-0.14317154
-0.15503798
-0.1548844
-0.14306068
0.57605558
0.0073356968
-0.14305511
-0.15483129
-0.15473995
-0.14301541
-4.6228639e-06
0.010495951
-5.3518288e-06
-0.57618283
0.012114466
-7.0180325e-06
0.0066427563
-0.14290191
-0.14483262
-0.14478918
-0.1428439
-3.5100338e-06
-0.00066058957
0.57205507
0.0060556771
-0.14225244
-0.14325139
-0.14317407
-0.14212042
-9.0702031e-06
-0.0013960789
0.0053803051
0.57323186
-0.14255529
-0.14342327
-0.14322549
-0.14225355
-0.0023262517
0.57487426
0.0048809542
-0.14373761
-0.14336202
-0.14252378
-0.14296301
0.57780156
0.004852227
-0.14485093
-0.1435804
-0.14284198
-0.14402738
0.58568543
0.0029088439
0.0041686227
-0.58309795
-0.57122075
-0.57655089
0.013387298
0.0047550347
0.0018156507
-0.0024372728
-0.57197773
0.0026032117
0.0053460734
-0.57555348
0.0044654026
0.0027298559
-0.14451338
-0.14320373
-0.14370282
-0.14259814
0.0038131046
0.0022648992
-0.14268653
-0.1433334
-0.14283813
-0.14209572
0.0043219554
0.56937404
0.001708654
-0.14289155
-0.14250532
-0.14207104
-0.14141826
0.0054486653
-0.004914035
0.0016802357
0.0055449058
-0.00024242778
0.0056060461
-1.9285273e-05
-0.56692406
0.0080157754
-7.8195472e-05
-0.14248261
-0.14121829
-0.14227255
-0.14070797
0.0075663448
-4.4649767e-05
-0.0015510494
-0.00046222488
0.0014566481
-0.14214529
0.00021930918
-0.0011020947
-0.00032109894
-0.14252365
0.00014335436
-0.0014469955
-0.14278528
-0.00020800645
8.6792035e-05
-0.0011772038
-0.00014673577
5.8396049e-05
-0.14308337
-0.0025242084
-9.5431351e-05
-0.143424
3.3819226e-05
-0.0017427966
-6.5444179e-05
2.0227863e-05
-0.14379131
-0.026087398
-3.2584342e-05
-0.13045425
1.4134224e-07
-0.0025180303
-4.9850635e-05
-0.54463217
-0.032482874
-0.032448037
0.026072797
-5.2621276e-06
-0.12879997
0.00060183728
-0.52620261
-2.1672533e-06
-1.9564965
0.13319017
-0.13463916
-0.13015145
1.3452293e-05
-0.0013784928
0.13585618
-0.13403138
-0.1295976
0.13137562
2.6927079e-05
-2.4775422
0.0011159394
-0.13174629
0.13342495
0.13622178
-0.13450078
-2.5392888
0.097996129
-0.09673766
-0.13045274
0.13192537
-2.639672
-0.47515836
0.001125132
0.00081435597
-0.0011463325
-0.00010048678
-0.66448636
0.52713114
0.00071016502
-0.00086047853
-0.6585799
0.00059718769
0.00058316615
5.2390799e-06
-0.57721453
6.4967393e-06
0.032462044
0.023841421
-0.023722013
-0.032293571
-0.48114317
0.0037510092
0.00040931984
-0.0036966633
-0.60452719
0.00011624456
0.023908804
-0.023759429
-0.032324402
0.032566427
-0.57660269
-0.00076549917
7.3635759e-05
0.54926519
0.032620617
0.032737657
-0.032571471
-0.032417704
-0.54882619
0.53187952
-0.0006416228
-0.66461017
0.00061044779
0.00072160735
-0.53477476
0.00079582069
7.7663636e-05
0.00080911976
-6.4010333e-05
-0.67066228
0.54768937
7.5681013e-05
0.032637242
0.032619226
-0.032420731
-0.032390521
-0.54732751
-0.00010992503
0.00014194747
-0.032304899
0.032600122
0.032634835
-0.032249669
0.03271387
-0.03248197
-0.032299323
0.032601283
-0.00014193626
0.16394379
-0.13133051
7.5030343e-05
0.00016749777
-0.00020609292
-0.13109761
0.0001272449
-0.023517607
-0.11860961
0.00056626985
-0.51332624
-0.023580711
-0.032804773
0.03281238
-0.00060324134
0.023824651
0.00088145137
0.033110479
-0.032705553
-0.023488509
-0.64958481
0.16520476
0.00059885722
-0.11847572
0.0004055577
-0.00027713002
-0.00043044155
0.00011471493
-0.16371634
-6.6691011e-05
1.2075215e-05
0.14598154
-0.14606758
0.00013210286
5.6570556e-05
0.13171082
-0.16477693
-0.00015702299
-1.8485358e-05
0.00037385252
0.00016237408
6.922825e-05
-3.119239e-05
-0.14570907
0.00019924817
0.00010495091
-0.032683226
-0.13172841
0.00020989171
-0.49557431
-0.032038725
-0.032658483
0.032221944
0.033023762
0.032890191
-0.032594158
-0.032042252
0.032370453
-0.032298773
-0.56128375
-0.00038678828
-0.13167108
0.00018581026
0.16459972
0.00016252479
-0.13162862
0.00017423767
0.00045591574
0.00013700493
-0.00021471969
-0.16471238
-0.00014505394
-0.16512269
0.13103211
5.7433661e-05
-7.3657632e-05
-0.16348534
0.00010121279
0.00018654179
-0.14597556
7.6536571e-05
0.00010689905
5.66433e-05
4.6775277e-05