/*--------------------------------*- C++ -*----------------------------------*\
  =========                 |
  \\      /  F ield         | OpenFOAM: The Open Source CFD Toolbox
   \\    /   O peration     | Website:  https://openfoam.org
    \\  /    A nd           | Version:  7
     \\/     M anipulation  |
\*---------------------------------------------------------------------------*/
FoamFile
{
    version     2.0;
    format      ascii;
    class       volVectorField;
    location    "390";
    object      U;
}
// * * * * * * * * * * * * * * * * * * * * * * * * * * * * * * * * * * * * * //

dimensions      [0 1 -1 0 0 0 0];

internalField   nonuniform List<vector> 
25278
(
(120.02643 0.0074485233 0.0073264923)
(120.01555 -0.0035633785 -0.018439077)
(120.01504 -0.0026844589 -0.0069411154)
(120.01571 -0.0064254727 -0.0053019333)
(119.98818 -0.020101174 -0.009633747)
(120.01771 -0.020583908 -0.0076245243)
(120.0317 0.0052650302 0.00069063797)
(120.0271 0.0077761681 0.0060508854)
(120.02948 0.0023130717 0.006106314)
(120.03544 0.0022716607 -0.00067964213)
(120.03265 0.00073280717 -0.00036144949)
(120.02828 0.0036885641 0.0018750804)
(120.02136 -0.0066542762 -0.0091355127)
(120.00772 -0.012798769 -0.015776888)
(119.88873 -0.03366964 -0.06046446)
(120.01546 0.0018315175 -0.0088438124)
(120.0155 0.0013308721 -0.019256519)
(119.92211 -0.047302703 -0.082479177)
(119.86245 -0.018431071 -0.12225064)
(119.95398 -0.025787478 -0.10892125)
(119.99653 -0.010138574 -0.058210244)
(120.00135 -0.019057125 -0.043787576)
(120.0057 -0.020110091 -0.0298851)
(120.02613 -0.013243714 -0.019532412)
(120.0385 -0.027137696 -0.032515436)
(120.02718 -0.017766074 -0.017734185)
(120.00647 -0.027772444 -0.025462905)
(120.00148 -0.042924614 -0.049226711)
(119.97949 -0.038479867 -0.069071181)
(120.00798 -0.039254215 -0.069676611)
(120.00855 -0.039297349 -0.088669594)
(119.96905 -0.038598751 -0.093457748)
(119.94798 -0.078862876 -0.14363768)
(119.96667 -0.072270618 -0.1001919)
(120.01179 -0.067746773 -0.10172029)
(119.99788 -0.062104808 -0.11853164)
(120.02054 -0.059718539 -0.11564205)
(120.01897 -0.058973804 -0.13676063)
(119.98983 -0.060114064 -0.14186547)
(119.97594 -0.089252877 -0.17727766)
(119.98688 -0.089544876 -0.14329548)
(120.02018 -0.084907159 -0.14141094)
(120.01634 -0.084966003 -0.1697484)
(120.05813 -0.077080064 -0.15109292)
(120.04813 -0.052186355 -0.12134105)
(120.04458 -0.030349541 -0.070552332)
(120.03019 -0.011095433 -0.029760793)
(120.03514 -0.0088559007 -0.041197473)
(120.04763 -0.023879586 -0.08792283)
(120.00067 -0.029179133 -0.10874908)
(119.9935 -0.011282047 -0.12298663)
(119.9413 -0.009068046 -0.11860683)
(119.87558 -0.018251189 -0.20519783)
(119.91263 -0.057689229 -0.19106821)
(119.9792 -0.053026368 -0.15866244)
(120.01179 -0.05323234 -0.15686925)
(120.00407 -0.042456206 -0.17939734)
(119.96592 -0.039529104 -0.1806526)
(119.93508 -0.064558844 -0.23742029)
(119.95717 -0.08215037 -0.20514247)
(120.00173 -0.080847784 -0.203853)
(119.98806 -0.066734586 -0.23546004)
(119.96727 -0.044549401 -0.26002711)
(119.99448 -0.027536775 -0.19363883)
(119.95418 -0.024895677 -0.1886129)
(119.9468 -0.0078002623 -0.19773079)
(119.98939 -0.0089479532 -0.20350497)
(119.95821 -0.014909778 -0.27340629)
(119.89787 -0.01456822 -0.26283093)
(119.91084 -0.041028539 -0.24997927)
(119.82461 -0.060378556 -0.32003805)
(119.87123 -0.092711431 -0.30342979)
(119.91104 -0.11577531 -0.25444428)
(119.94234 -0.12499252 -0.21547801)
(119.96561 -0.11689471 -0.16664524)
(120.00034 -0.11605524 -0.12749723)
(120.01259 -0.095195273 -0.079794263)
(120.0092 -0.066607865 -0.050087224)
(120.00301 -0.044453792 -0.027547799)
(119.97155 -0.041885169 -0.02874349)
(119.95127 -0.03123286 -0.023426256)
(119.89079 -0.058054945 -0.043905498)
(119.92392 -0.07939124 -0.058471763)
(119.86834 -0.13082444 -0.035278695)
(119.95941 -0.057104592 -0.019909612)
(119.93423 -0.040697628 -0.015512108)
(119.8295 -0.094810599 -0.024401706)
(119.61048 -0.13298802 -0.066745591)
(119.72186 -0.087196108 -0.085387087)
(119.81924 -0.063259983 -0.07055231)
(119.83502 -0.080988641 -0.088884457)
(119.73436 -0.095090989 -0.10853334)
(119.71783 -0.074056779 -0.090356024)
(119.53957 -0.12584331 -0.13374999)
(119.56474 -0.14297547 -0.1528817)
(119.73875 -0.10401232 -0.10733521)
(119.76887 -0.12354634 -0.12051043)
(119.85749 -0.088583973 -0.097162177)
(119.88565 -0.10928492 -0.1187907)
(119.79831 -0.13571063 -0.16567055)
(119.76467 -0.10767499 -0.12919148)
(119.58983 -0.17745713 -0.18881505)
(119.63131 -0.22095334 -0.23165235)
(119.80245 -0.15867826 -0.14867096)
(119.70556 -0.24395603 -0.12059521)
(119.66741 -0.18783989 -0.09445609)
(119.63169 -0.15660759 -0.083701099)
(119.26858 -0.28662837 -0.12548518)
(119.23258 -0.24474196 -0.1139476)
(118.88475 -0.25810071 -0.056330053)
(119.50176 -0.12113769 -0.02665375)
(119.51901 -0.13291584 -0.034349577)
(118.91021 -0.29132478 -0.067045066)
(118.91325 -0.37192129 -0.093505782)
(119.30323 -0.35941952 -0.14663199)
(119.36627 -0.43957676 -0.19719069)
(118.92752 -0.48520592 -0.14886326)
(119.58641 -0.23015893 -0.058246003)
(119.5563 -0.15632412 -0.040833388)
(119.54402 -0.18090062 0.007856884)
(119.86508 -0.15321305 0.013750982)
(119.96018 -0.065565533 0.0027161994)
(119.98928 -0.025062599 0.0016240195)
(119.68667 -0.11331638 0.1196643)
(119.4932 -0.1816643 0.16462239)
(119.18022 -0.31651123 0.12854923)
(118.85638 -0.29999016 0.023657641)
(119.48991 -0.13993118 0.0015812548)
(119.82361 -0.1149843 0.0057604335)
(119.93343 -0.0492597 -0.0003802329)
(119.95072 -0.04593127 0.018906514)
(119.97319 -0.056340254 0.024034279)
(119.92115 -0.10859904 0.06226287)
(119.88398 -0.086178032 0.048442923)
(119.69657 -0.12984573 0.099816664)
(119.58601 -0.17758237 0.066355176)
(119.60703 -0.20629368 0.084292468)
(119.50699 -0.15455011 0.0042176053)
(118.87868 -0.34213073 0.029376909)
(119.21451 -0.36547928 0.14304335)
(119.24745 -0.44561749 0.17269715)
(118.87743 -0.43226835 0.049451667)
(118.88726 -0.55954889 0.097769147)
(119.57394 -0.26238389 0.019872266)
(119.6815 -0.30302906 0.1241033)
(119.64396 -0.24045459 0.09582242)
(119.7469 -0.17238563 0.13711609)
(119.71392 -0.15050331 0.12314081)
(119.51736 -0.2040127 0.184852)
(119.70361 -0.137312 0.14005284)
(119.87912 -0.055812822 0.080764237)
(119.80164 -0.097929691 0.089317061)
(119.81902 -0.11777733 0.10970061)
(119.84416 -0.12522638 0.1181644)
(119.918 -0.068895967 0.10298047)
(119.87481 -0.14779806 0.14152609)
(119.78249 -0.21241123 0.1678803)
(119.58386 -0.29085873 0.27114343)
(119.3064 -0.53513462 0.23204989)
(118.42665 -0.61484787 0.58114553)
(116.18418 -0.50996216 0.66240517)
(116.29051 -0.43370246 -0.79272066)
(118.57344 -0.47632363 -0.49870289)
(119.34156 -0.19163947 -0.44769656)
(119.69053 -0.1064195 -0.2454998)
(119.65377 -0.079677384 -0.18656876)
(119.53244 -0.013072255 -0.13810181)
(119.55829 -0.02811544 -0.21496213)
(118.84367 -0.10292758 -0.4638383)
(118.84057 -0.050824403 -0.34189797)
(119.28148 -0.13976683 -0.36149685)
(118.41176 -0.39145452 -0.40942091)
(116.16194 -0.4560009 -0.2443675)
(116.02008 -0.65599891 -0.41301102)
(103.56975 -1.6054986 -1.4870386)
(105.27121 -1.1785672 -1.0739088)
(116.3734 -0.28730885 -0.58498529)
(116.27753 -0.36322634 0.4699663)
(105.49424 -1.4515993 1.2387189)
(103.77907 -1.9684532 1.6483412)
(115.69352 -0.90314096 0.3936136)
(115.88702 -0.69290025 0.26819592)
(118.27992 -0.51854752 0.47667581)
(119.19481 -0.18702107 0.42409353)
(119.54185 -0.2441008 0.22368163)
(119.73648 -0.1498912 0.1623303)
(119.77138 -0.17961096 0.20221903)
(119.6454 -0.13822646 0.29635302)
(119.25211 -0.24069837 0.51103068)
(118.69666 -0.16286298 0.53550514)
(118.71533 -0.1056304 0.41811445)
(119.47493 -0.041134332 0.17873031)
(119.8485 -0.032800155 0.15382768)
(119.60937 -0.11193342 0.23346733)
(119.49651 -0.056892497 0.25823222)
(119.60281 -0.072840895 0.35066965)
(118.76731 -0.25123588 0.6937719)
(115.51855 -1.1431216 0.81949116)
(101.59571 -2.7362555 2.2157213)
(101.38854 -2.2063078 -2.105847)
(115.92789 -0.92123259 -0.80267187)
(118.92783 -0.18467677 -0.6249602)
(119.66198 -0.045323468 -0.29870853)
(119.78269 -0.12262183 -0.2874208)
(119.87358 -0.14416233 -0.19103007)
(119.93707 -0.11144378 -0.12190083)
(119.96747 -0.093553552 -0.083427992)
(119.98063 -0.065819263 -0.048953916)
(119.97087 -0.093346065 -0.05202438)
(120.01054 -0.088678302 -0.053322296)
(119.99961 -0.11479973 -0.076996241)
(119.95039 -0.13986106 -0.093967188)
(119.98845 -0.13734546 -0.10479782)
(120.02142 -0.13551161 -0.10106541)
(120.0222 -0.11215646 -0.075179979)
(120.02114 -0.13549428 -0.076307884)
(119.99216 -0.14031709 -0.076846076)
(119.97857 -0.17311734 -0.10669004)
(120.01828 -0.16567788 -0.10339928)
(120.05974 -0.14746512 -0.096707367)
(120.05611 -0.12102033 -0.091713638)
(120.0567 -0.074303783 -0.063936264)
(120.03597 -0.052475077 -0.039534593)
(120.03272 -0.030435971 -0.018194185)
(120.05069 -0.029000707 -0.022689747)
(120.0822 -0.038717665 -0.037503356)
(120.0846 -0.059501736 -0.04471593)
(120.06954 -0.042236062 -0.027446814)
(120.04734 -0.071051183 -0.043870855)
(120.04623 -0.099581721 -0.067309781)
(120.06964 -0.080599183 -0.05684928)
(120.09013 -0.099109149 -0.077996256)
(120.10086 -0.12206069 -0.084066317)
(120.07888 -0.099370282 -0.061051806)
(120.05035 -0.12064 -0.069818609)
(120.04932 -0.14313579 -0.068028389)
(120.05165 -0.094025677 -0.039574631)
(120.04039 -0.047862181 -0.017065464)
(119.99977 -0.065512369 -0.020374616)
(119.95704 -0.11352983 -0.040943194)
(120.00408 -0.11434015 -0.045245035)
(119.98272 -0.16029455 -0.071231778)
(119.91777 -0.1935774 -0.075764049)
(119.96154 -0.20439887 -0.10145224)
(120.00508 -0.20345525 -0.10154731)
(120.01494 -0.15900595 -0.072272816)
(120.00824 -0.18641471 -0.063069367)
(119.97059 -0.18714582 -0.059373199)
(119.94164 -0.2411799 -0.086327358)
(119.99295 -0.23954677 -0.08978115)
(119.97404 -0.27231108 -0.069177891)
(120.00003 -0.20672314 -0.048731201)
(119.9986 -0.13764787 -0.027708628)
(119.94533 -0.13258573 -0.02513996)
(119.88357 -0.22138147 -0.040884053)
(119.96017 -0.20086924 -0.045468672)
(119.9193 -0.26172532 -0.064421853)
(119.9071 -0.28574777 -0.038467547)
(119.95337 -0.21911877 -0.027499634)
(119.99592 -0.22557861 -0.029179269)
(119.96594 -0.29639417 -0.039938395)
(120.03135 -0.28572265 -0.040826259)
(120.03778 -0.25974483 -0.071072254)
(120.0484 -0.22362384 -0.089530344)
(120.05599 -0.18605211 -0.098408921)
(120.10674 -0.15656527 -0.087506705)
(120.08304 -0.11955137 -0.060124147)
(120.08675 -0.14542705 -0.055956018)
(120.04699 -0.1701842 -0.060533001)
(120.04325 -0.19149222 -0.047961143)
(120.05496 -0.11745328 -0.025990691)
(120.09364 -0.074472965 -0.020400833)
(120.08195 -0.056550898 -0.025445742)
(120.10718 -0.087188664 -0.04792785)
(120.09868 -0.07183711 -0.048084282)
(120.10853 -0.036427253 -0.031613577)
(120.09137 -0.029211106 -0.027108014)
(120.1235 -0.033421571 -0.035374098)
(120.113 -0.070383584 -0.059343736)
(120.13123 -0.08498326 -0.063351922)
(120.1466 -0.043240162 -0.040250726)
(120.1684 -0.058171939 -0.044999971)
(120.12029 -0.045348408 -0.031777923)
(120.13404 -0.059213948 -0.03388442)
(120.11645 -0.10820477 -0.04693766)
(120.15739 -0.14098845 -0.068902565)
(120.14636 -0.1111526 -0.069148475)
(120.15751 -0.14179469 -0.094846695)
(120.15104 -0.1238127 -0.091386769)
(120.13957 -0.1081944 -0.086846336)
(120.13782 -0.081453559 -0.075143269)
(120.12076 -0.042693921 -0.054797296)
(120.08075 -0.026163471 -0.044388297)
(120.04868 -0.013488351 -0.031432987)
(120.03447 -0.029420226 -0.055243824)
(120.05581 -0.052072589 -0.080498018)
(120.04452 -0.051843733 -0.10277012)
(120.06754 -0.041172344 -0.08331329)
(120.07625 -0.043000095 -0.099338542)
(120.09917 -0.063346801 -0.12490646)
(120.08882 -0.060646191 -0.10435569)
(120.055 -0.075086677 -0.12672873)
(120.05864 -0.10375006 -0.15479135)
(120.075 -0.093467188 -0.10561323)
(120.10471 -0.084044081 -0.12639799)
(120.09683 -0.091799277 -0.15538768)
(120.07349 -0.10086702 -0.17052563)
(120.04812 -0.10687639 -0.1812212)
(119.9982 -0.12733492 -0.21548053)
(120.01024 -0.1167511 -0.16777919)
(119.99522 -0.1678246 -0.20999928)
(119.93355 -0.16998515 -0.20304034)
(119.89788 -0.18389236 -0.26880606)
(119.97392 -0.18422675 -0.27081081)
(119.91487 -0.26866088 -0.33271582)
(119.96265 -0.22627657 -0.24071616)
(119.9962 -0.19820409 -0.18326523)
(120.01146 -0.15909849 -0.13283715)
(119.96728 -0.15829634 -0.1319363)
(119.87694 -0.18305193 -0.15846029)
(119.93496 -0.1920088 -0.18384786)
(119.90234 -0.25888291 -0.19972392)
(119.94589 -0.20866592 -0.14242069)
(120.00067 -0.20828902 -0.14593545)
(119.97684 -0.26014756 -0.20194293)
(119.91788 -0.3189807 -0.28524228)
(119.82726 -0.30669846 -0.26181408)
(119.89039 -0.2157916 -0.2287374)
(119.72161 -0.26703773 -0.27836913)
(119.82291 -0.24686366 -0.31862822)
(119.72419 -0.36113943 -0.37464828)
(119.84726 -0.38150439 -0.39747174)
(119.98017 -0.32547008 -0.34352655)
(119.99954 -0.27879213 -0.32082612)
(120.01878 -0.22753385 -0.28263647)
(120.03226 -0.19107041 -0.25728585)
(120.04216 -0.15362762 -0.22885137)
(120.04614 -0.12963464 -0.20677737)
(120.07776 -0.12184873 -0.19482094)
(120.07734 -0.12514817 -0.22045424)
(120.07431 -0.10231969 -0.19198966)
(120.04354 -0.10803269 -0.20403311)
(120.0416 -0.13345132 -0.23549255)
(120.03378 -0.1641471 -0.26377987)
(120.07499 -0.15769205 -0.24992664)
(120.07823 -0.14708013 -0.21645188)
(120.06049 -0.15286158 -0.19555674)
(120.12767 -0.12683767 -0.1644931)
(120.11218 -0.13461254 -0.19859366)
(120.10615 -0.11128006 -0.17695816)
(120.13433 -0.096145067 -0.154861)
(120.11991 -0.078446947 -0.1348025)
(120.12788 -0.080883296 -0.15278922)
(120.10105 -0.09294927 -0.17523515)
(120.10914 -0.11380064 -0.20022925)
(120.14123 -0.10006417 -0.17620575)
(120.15341 -0.12707981 -0.20165671)
(120.14609 -0.11682393 -0.1735134)
(120.16044 -0.1455966 -0.19850946)
(120.11877 -0.16693598 -0.22576299)
(120.07739 -0.18133189 -0.24558271)
(120.07225 -0.19206111 -0.28413585)
(120.02185 -0.2025712 -0.30047709)
(120.00111 -0.24711655 -0.33369649)
(120.06009 -0.23986034 -0.32053972)
(120.06996 -0.22007863 -0.27189827)
(120.05089 -0.21572131 -0.23211546)
(120.06099 -0.18291412 -0.16985533)
(120.05942 -0.14592365 -0.12073034)
(120.10544 -0.11774691 -0.10226866)
(120.12789 -0.15099899 -0.14598999)
(120.1128 -0.18793104 -0.15668178)
(120.10697 -0.16853963 -0.13285082)
(120.09801 -0.14918009 -0.11276367)
(120.07485 -0.16405904 -0.12111511)
(120.04974 -0.17451958 -0.12612969)
(120.04767 -0.19814507 -0.1489004)
(120.0789 -0.18626246 -0.14238384)
(120.07883 -0.21298662 -0.1472356)
(120.07591 -0.18679282 -0.12404145)
(120.0456 -0.19850662 -0.12869404)
(120.04378 -0.22781926 -0.15419587)
(120.03619 -0.25429815 -0.18482536)
(120.04373 -0.21845718 -0.1728069)
(120.07935 -0.20592648 -0.16778932)
(120.07841 -0.23261395 -0.20206687)
(120.03384 -0.24478698 -0.20994925)
(120.02457 -0.28869617 -0.22288877)
(120.07389 -0.27210149 -0.21444009)
(120.07653 -0.2403929 -0.1800186)
(120.11561 -0.22003848 -0.16832221)
(120.11013 -0.19313657 -0.13732191)
(120.10235 -0.1704977 -0.11564328)
(120.12905 -0.14865343 -0.10470988)
(120.12109 -0.12902643 -0.1003794)
(120.13498 -0.14672015 -0.11900883)
(120.14188 -0.16957728 -0.1250428)
(120.15363 -0.1925975 -0.15329323)
(120.14644 -0.16294408 -0.14054319)
(120.16046 -0.18477566 -0.17014987)
(120.11921 -0.2123642 -0.18935352)
(120.11929 -0.24931975 -0.2015034)
(120.16614 -0.21882783 -0.18387709)
(120.20811 -0.18026301 -0.15851079)
(120.19551 -0.15279331 -0.14547519)
(120.17791 -0.10154893 -0.10490374)
(120.20392 -0.039866479 -0.056957349)
(120.1539 -0.033872539 -0.043092743)
(120.16474 -0.056143189 -0.055867555)
(120.15554 -0.080659154 -0.070045445)
(120.17811 -0.091241147 -0.083501609)
(120.15826 -0.12134235 -0.10226152)
(120.16938 -0.13906101 -0.10805883)
(120.19238 -0.10708621 -0.090820499)
(120.16976 -0.094342646 -0.075968487)
(120.18161 -0.065099337 -0.059757527)
(120.18745 -0.031591653 -0.040241421)
(120.16882 -0.025621031 -0.035181755)
(120.19576 -0.027125244 -0.041480721)
(120.19017 -0.060484071 -0.064788914)
(120.20762 -0.069217163 -0.068685971)
(120.2155 -0.033287956 -0.047182454)
(120.24622 -0.032782867 -0.054141539)
(120.22104 -0.025955504 -0.046136363)
(120.21391 -0.065158676 -0.074453122)
(120.1989 -0.099854974 -0.097525207)
(120.17443 -0.13509631 -0.12009547)
(120.18796 -0.15882294 -0.13206762)
(120.21636 -0.11999992 -0.11007803)
(120.24362 -0.13541174 -0.13164975)
(120.22591 -0.11272605 -0.11747707)
(120.24557 -0.073439317 -0.088246158)
(120.2549 -0.026673639 -0.052851839)
(120.28163 -0.032971836 -0.062503964)
(120.26848 -0.085386489 -0.096705123)
(120.23601 -0.077161054 -0.082041775)
(120.2551 -0.094053321 -0.091620859)
(120.22332 -0.083761292 -0.075898511)
(120.19328 -0.075837152 -0.063218614)
(120.17913 -0.10912011 -0.079340689)
(120.20438 -0.12749072 -0.097323569)
(120.1776 -0.16393847 -0.11560377)
(120.14558 -0.19834406 -0.13107664)
(120.13275 -0.16945998 -0.10716996)
(120.10255 -0.1931229 -0.11739522)
(120.07268 -0.21077757 -0.12444921)
(120.03989 -0.22097497 -0.12816819)
(119.9751 -0.26153617 -0.14351824)
(119.91783 -0.25033585 -0.13506122)
(119.79603 -0.28428121 -0.13967292)
(119.85553 -0.31481297 -0.20039375)
(119.9305 -0.33774415 -0.21051761)
(119.88308 -0.42216984 -0.19692172)
(119.94877 -0.31787895 -0.12967781)
(119.8824 -0.30343509 -0.1150249)
(119.79236 -0.3940767 -0.1770937)
(119.63591 -0.50569886 -0.24263665)
(119.74617 -0.38503936 -0.27093049)
(119.49082 -0.50085045 -0.27746508)
(119.5916 -0.45316815 -0.41596307)
(119.71576 -0.52614177 -0.45774237)
(119.83313 -0.42839021 -0.30940384)
(119.74183 -0.55809601 -0.30734224)
(119.56876 -0.71032627 -0.49220893)
(119.39791 -0.62361951 -0.41490304)
(119.0672 -0.67950999 -0.437633)
(119.47802 -0.55890734 -0.20637095)
(119.71618 -0.42614186 -0.13734768)
(119.83966 -0.32869518 -0.085030673)
(119.68682 -0.31213863 -0.075519748)
(119.81648 -0.36466487 -0.050485904)
(119.8927 -0.40496258 -0.055536748)
(119.91087 -0.36613061 -0.098788745)
(119.81197 -0.49654665 -0.1562267)
(119.77588 -0.55910433 -0.084102195)
(119.66941 -0.4870877 -0.079730785)
(119.3685 -0.68095012 -0.12934263)
(119.02237 -0.63435539 -0.23484652)
(118.69704 -0.93181767 -0.35616039)
(118.93871 -1.1718123 -0.35119332)
(119.24997 -0.92723567 -0.50781336)
(119.58712 -0.68338787 -0.26516267)
(119.49419 -0.80300621 -0.1503383)
(119.73352 -0.74323075 -0.16267984)
(119.77199 -0.69228971 -0.22106453)
(119.81821 -0.62091391 -0.25524225)
(119.87223 -0.5615888 -0.27800837)
(119.91435 -0.4894024 -0.2862442)
(119.94971 -0.43090473 -0.28775365)
(119.97847 -0.36842046 -0.27565613)
(120.00419 -0.3199695 -0.26726568)
(120.02032 -0.26838987 -0.24613564)
(120.07098 -0.25674057 -0.24072421)
(120.06327 -0.29296527 -0.28786101)
(120.0007 -0.30453355 -0.29711982)
(119.9818 -0.36308812 -0.32144465)
(120.05214 -0.34563823 -0.31170596)
(120.062 -0.30597304 -0.26229286)
(120.11954 -0.28271189 -0.24666153)
(120.1203 -0.23597671 -0.22459102)
(120.14293 -0.17878431 -0.1976057)
(120.11991 -0.20202716 -0.25203957)
(120.16988 -0.17696901 -0.22230749)
(120.17656 -0.19687402 -0.26449175)
(120.16622 -0.15659923 -0.23106264)
(120.11857 -0.17676394 -0.26154175)
(120.11482 -0.14407767 -0.2294396)
(120.11197 -0.14900703 -0.26399592)
(120.10828 -0.11767133 -0.22923465)
(120.10088 -0.093169233 -0.19573417)
(120.10459 -0.063694428 -0.15455141)
(120.07976 -0.040111666 -0.11566536)
(120.04637 -0.048508508 -0.14026001)
(120.04305 -0.03944674 -0.16223224)
(120.08249 -0.034394018 -0.13589871)
(120.10551 -0.056405028 -0.18478534)
(120.0447 -0.06475132 -0.21810401)
(120.0535 -0.076126472 -0.18548842)
(120.03693 -0.10629709 -0.22481937)
(119.96987 -0.12258508 -0.26605135)
(119.9403 -0.10615733 -0.31820705)
(119.86806 -0.17478175 -0.42885566)
(119.92269 -0.19090745 -0.34704314)
(119.8454 -0.18333588 -0.32296243)
(119.77271 -0.15648329 -0.39984348)
(119.68647 -0.11324223 -0.42184811)
(119.78595 -0.13048276 -0.49560088)
(119.89796 -0.072607179 -0.35799034)
(119.87857 -0.026636569 -0.38223874)
(119.80026 -0.023370144 -0.34189447)
(119.63464 -0.047268798 -0.46609195)
(119.74564 -0.049907575 -0.54027589)
(119.41839 -0.1049528 -0.79278952)
(119.52879 -0.24130833 -0.69404809)
(119.71404 -0.2869223 -0.57259111)
(119.82114 -0.29123229 -0.4426067)
(119.73248 -0.25523729 -0.3969161)
(119.46419 -0.26552152 -0.51243986)
(119.60372 -0.22173052 -0.51806894)
(119.35127 -0.3931063 -0.64155249)
(119.5787 -0.40247281 -0.4687253)
(119.70378 -0.43868013 -0.54455281)
(119.52936 -0.46774244 -0.72964146)
(119.14021 -0.47937004 -0.94876219)
(118.95865 -0.41572722 -0.68542616)
(119.42188 -0.18338425 -0.5626682)
(119.29488 -0.08700801 -0.66561596)
(118.4979 -0.27140968 -0.92743262)
(118.74316 -0.2650181 -1.1736927)
(119.22207 -0.30064272 -1.1266153)
(119.50041 -0.19974965 -0.92237531)
(119.67821 -0.1281139 -0.7391406)
(119.80517 -0.091593352 -0.61602285)
(119.88351 -0.062901507 -0.50380023)
(119.93886 -0.046996585 -0.42722107)
(119.97132 -0.033852641 -0.34880169)
(120.02479 -0.014730553 -0.26076426)
(120.03487 -0.0084808565 -0.18792615)
(120.04857 -0.010465265 -0.10303588)
(120.08387 -0.0070859484 -0.06003997)
(120.07592 -0.011145908 -0.050071909)
(120.06549 -0.014860878 -0.041237419)
(120.08205 -0.029395043 -0.06186371)
(120.08809 -0.012391975 -0.031179752)
(120.10392 -0.014292036 -0.03518701)
(120.09531 -0.030247254 -0.071125608)
(120.12888 -0.041933567 -0.086866439)
(120.1112 -0.041915006 -0.075174608)
(120.12082 -0.018178962 -0.037682784)
(120.14275 -0.018891944 -0.044291119)
(120.1633 -0.019801681 -0.052995454)
(120.11445 -0.01247434 -0.039892537)
(120.10303 -0.028038715 -0.082410596)
(120.111 -0.025588291 -0.097495027)
(120.12619 -0.01319129 -0.047461905)
(120.18045 -0.020465975 -0.065215346)
(120.15368 -0.041066938 -0.13055536)
(120.14348 -0.04415902 -0.10739645)
(120.15605 -0.068202725 -0.14257539)
(120.1497 -0.066730105 -0.12730214)
(120.13823 -0.064426033 -0.11363201)
(120.13681 -0.056333292 -0.089872251)
(120.15197 -0.024021009 -0.041725464)
(120.16234 -0.032578109 -0.060674382)
(120.15371 -0.046888537 -0.085563295)
(120.1679 -0.05034335 -0.097065772)
(120.19135 -0.063064941 -0.11231485)
(120.17701 -0.05864423 -0.098618094)
(120.15755 -0.078520118 -0.1291857)
(120.16875 -0.081638537 -0.14499468)
(120.18802 -0.10379345 -0.16734562)
(120.17419 -0.09510958 -0.14558141)
(120.17767 -0.084286323 -0.11543741)
(120.20302 -0.035161987 -0.053786854)
(120.21288 -0.04706833 -0.075003687)
(120.1885 -0.039440088 -0.067451634)
(120.1932 -0.015841765 -0.033594794)
(120.16554 -0.011866352 -0.029653289)
(120.18357 -0.014096839 -0.033025781)
(120.17894 -0.033772317 -0.06715928)
(120.20582 -0.039971623 -0.073621029)
(120.21243 -0.018058031 -0.037059741)
(120.24404 -0.021425402 -0.039126018)
(120.21911 -0.018167877 -0.035315005)
(120.25372 -0.022159155 -0.040225905)
(120.24524 -0.058609074 -0.087284463)
(120.22596 -0.089126651 -0.12665249)
(120.19834 -0.071023221 -0.10995999)
(120.21617 -0.07985005 -0.12782755)
(120.24419 -0.099008735 -0.14696235)
(120.20873 -0.12852318 -0.19226628)
(120.19572 -0.11920946 -0.16674954)
(120.21216 -0.14505924 -0.18724065)
(120.21413 -0.11900944 -0.13996363)
(120.25341 -0.045640744 -0.067993099)
(120.2729 -0.068080027 -0.097375258)
(120.24877 -0.10785143 -0.1425643)
(120.27355 -0.12355419 -0.16912256)
(120.22936 -0.16194484 -0.22123767)
(120.25223 -0.19785379 -0.25443158)
(120.23556 -0.17826371 -0.21670423)
(120.18239 -0.21753802 -0.25732595)
(120.12193 -0.24614406 -0.28797567)
(120.06243 -0.26719558 -0.31068505)
(120.05019 -0.28890627 -0.36308493)
(119.97873 -0.30134772 -0.37927598)
(119.94909 -0.36033352 -0.41344438)
(120.02906 -0.35263587 -0.40309776)
(120.04943 -0.31589067 -0.3362351)
(120.03051 -0.38246932 -0.37586839)
(119.95138 -0.39515923 -0.38065276)
(119.91183 -0.43741879 -0.45878926)
(120.00702 -0.42425112 -0.44868656)
(120.10003 -0.39934714 -0.42775704)
(120.11123 -0.3295236 -0.38073935)
(120.11697 -0.2684272 -0.3384928)
(120.11871 -0.22138697 -0.29797862)
(120.10979 -0.23611739 -0.34938055)
(120.11306 -0.18778722 -0.30411563)
(120.05729 -0.20060601 -0.32841414)
(120.06473 -0.16016942 -0.28604393)
(120.07064 -0.12724435 -0.25133209)
(120.07043 -0.10135272 -0.21409192)
(120.06545 -0.099311817 -0.23992706)
(120.02708 -0.10307149 -0.25231076)
(120.01933 -0.13329015 -0.29673604)
(120.03151 -0.13407956 -0.26436103)
(120.01899 -0.1649279 -0.29708379)
(120.00151 -0.1663081 -0.337883)
(120.05327 -0.16277746 -0.32492228)
(120.06378 -0.12683664 -0.28100827)
(120.10444 -0.11786908 -0.25818363)
(120.09946 -0.091678526 -0.22056317)
(120.13417 -0.081599829 -0.19412237)
(120.13135 -0.081604452 -0.17120731)
(120.14485 -0.10407098 -0.20242363)
(120.14632 -0.10563713 -0.22925273)
(120.14403 -0.1047974 -0.26164338)
(120.13366 -0.078991704 -0.21595558)
(120.09534 -0.087687385 -0.24374623)
(120.05793 -0.093630532 -0.26381432)
(120.01793 -0.096250986 -0.27398815)
(120.00409 -0.084964552 -0.30069559)
(120.04876 -0.084452883 -0.28987038)
(120.03924 -0.11171406 -0.34650551)
(120.05137 -0.1217205 -0.31558675)
(120.0048 -0.12611064 -0.3277486)
(119.9872 -0.1142042 -0.36028886)
(119.95556 -0.1464603 -0.41736755)
(119.98054 -0.15897454 -0.37496571)
(120.03487 -0.15807636 -0.36696623)
(120.01571 -0.14892129 -0.40923789)
(119.98875 -0.19858456 -0.48599956)
(120.01546 -0.20610465 -0.43058983)
(120.04161 -0.20757079 -0.37703103)
(119.97781 -0.21512342 -0.39302316)
(120.00179 -0.20844423 -0.34093642)
(119.97267 -0.25448792 -0.3816707)
(120.03872 -0.2508826 -0.37336073)
(120.01536 -0.26421553 -0.4331653)
(119.93976 -0.2656288 -0.44379436)
(119.89905 -0.33977789 -0.5124484)
(119.94232 -0.31779115 -0.43614031)
(120.02163 -0.31045633 -0.42589835)
(119.99173 -0.33307847 -0.49794025)
(120.08193 -0.31878802 -0.47172972)
(120.09389 -0.25110514 -0.40873464)
(120.10215 -0.19605056 -0.35212093)
(120.10527 -0.15242498 -0.30214237)
(120.15653 -0.13747992 -0.26877704)
(120.15662 -0.13257532 -0.23319827)
(120.16828 -0.16791028 -0.27007466)
(120.16608 -0.17791617 -0.31517991)
(120.15737 -0.18376096 -0.36802958)
(120.15158 -0.13875201 -0.3094529)
(120.09398 -0.15121585 -0.34432382)
(120.09742 -0.11533197 -0.29218965)
(120.08768 -0.10679488 -0.32399064)
(120.08932 -0.07958996 -0.26986349)
(120.13176 -0.073176303 -0.24135028)
(120.13956 -0.098822919 -0.29265967)
(120.14301 -0.13480691 -0.35262705)
(120.07881 -0.1440507 -0.38806822)
(120.06192 -0.19460865 -0.46430335)
(120.08511 -0.19878656 -0.40631529)
(120.06878 -0.2602933 -0.4774299)
(119.97761 -0.26744801 -0.50025697)
(119.8983 -0.26330199 -0.50165187)
(119.94868 -0.20965497 -0.43958377)
(119.91305 -0.19876998 -0.49629611)
(119.87068 -0.17445552 -0.5391749)
(119.92598 -0.1255855 -0.44976473)
(119.96728 -0.096673121 -0.38660175)
(119.99109 -0.07129876 -0.31851442)
(120.03248 -0.044651405 -0.24578008)
(120.03811 -0.02636056 -0.17744512)
(120.08186 -0.023129116 -0.15069927)
(120.08131 -0.0080600012 -0.16146793)
(120.09826 -0.013365588 -0.22873562)
(120.10171 -0.040146478 -0.21274951)
(120.15866 -0.030487954 -0.15398435)
(120.1142 -0.017065927 -0.10950786)
(120.13226 -0.0086680677 -0.054321963)
(120.13645 -0.0048860593 -0.060491753)
(120.11642 -0.0069712043 -0.11862924)
(120.15996 -0.010510263 -0.16851375)
(120.19742 -0.0064571968 -0.089706922)
(120.19209 -0.016289594 -0.079557872)
(120.22654 -0.033963044 -0.12712996)
(120.2216 -0.038124244 -0.11310011)
(120.21211 -0.037608379 -0.097409312)
(120.20358 -0.03759343 -0.085944577)
(120.1903 -0.034828663 -0.074581158)
(120.1771 -0.051521854 -0.10880843)
(120.18743 -0.053470454 -0.1248191)
(120.16279 -0.069363664 -0.16252158)
(120.18308 -0.089416056 -0.19029942)
(120.17705 -0.086779887 -0.16684501)
(120.20351 -0.066748194 -0.12917883)
(120.21423 -0.070062174 -0.14822379)
(120.23584 -0.047507226 -0.097196921)
(120.22143 -0.043986246 -0.08413068)
(120.23026 -0.019829034 -0.041071339)
(120.19648 -0.014796071 -0.03591782)
(120.2117 -0.017755095 -0.041717042)
(120.24731 -0.023404233 -0.048011339)
(120.26232 -0.026859536 -0.058027029)
(120.22221 -0.018899929 -0.048097929)
(120.23411 -0.021110285 -0.058180676)
(120.27571 -0.029978829 -0.071209198)
(120.25786 -0.05155231 -0.13424337)
(120.24788 -0.050599571 -0.11457806)
(120.22207 -0.072041395 -0.17224709)
(120.19344 -0.053057905 -0.14060346)
(120.16539 -0.067719304 -0.18179623)
(120.16761 -0.063920378 -0.20503876)
(120.1996 -0.051401762 -0.16060645)
(120.22772 -0.070957668 -0.19748209)
(120.18641 -0.08671783 -0.24814473)
(120.18602 -0.090357444 -0.21919501)
(120.20591 -0.12051556 -0.26207768)
(120.20365 -0.11700995 -0.22522151)
(120.19741 -0.1108371 -0.19396724)
(120.2309 -0.08537711 -0.14838642)
(120.24336 -0.091846455 -0.17358131)
(120.27601 -0.11988506 -0.20419941)
(120.26149 -0.10873012 -0.17227626)
(120.21897 -0.14096146 -0.22549267)
(120.2251 -0.15229113 -0.26529524)
(120.22614 -0.16082254 -0.31364108)
(120.28653 -0.13004646 -0.24482053)
(120.25246 -0.096867636 -0.20442893)
(120.258 -0.098864443 -0.24000384)
(120.20421 -0.11972001 -0.30267932)
(120.2211 -0.16530653 -0.36875853)
(120.14308 -0.18403256 -0.42600056)
(120.12165 -0.17103257 -0.49031374)
(120.13004 -0.12184181 -0.39818789)
(120.13206 -0.087694429 -0.32659673)
(120.12794 -0.063557752 -0.26306667)
(120.08216 -0.068439919 -0.29174795)
(120.03794 -0.071456771 -0.31140548)
(120.02851 -0.054350194 -0.33150906)
(119.97849 -0.053769054 -0.33846947)
(119.95064 -0.074827941 -0.41149093)
(120.00903 -0.07431534 -0.40338561)
(120.02168 -0.095894181 -0.37885822)
(120.07581 -0.093494103 -0.35762387)
(120.06447 -0.072433878 -0.38403344)
(120.07482 -0.051836928 -0.31257648)
(120.12356 -0.048834084 -0.28425899)
(120.12458 -0.068738603 -0.35352885)
(120.1174 -0.044199319 -0.37619454)
(120.1199 -0.030965931 -0.29802842)
(120.06943 -0.032883529 -0.32585425)
(120.02157 -0.033945201 -0.34414147)
(120.01753 -0.0098827144 -0.35036098)
(119.9662 -0.0098637524 -0.35479463)
(119.93209 -0.014616997 -0.43492448)
(119.99174 -0.014251733 -0.43088453)
(119.99712 -0.046807149 -0.42315683)
(120.05508 -0.046316508 -0.40544076)
(120.05007 -0.013393444 -0.41405312)
(120.06607 -0.0090228785 -0.33250423)
(120.1175 -0.0083994167 -0.30501084)
(120.11364 -0.012366378 -0.38521212)