/*--------------------------------*- C++ -*----------------------------------*\
  =========                 |
  \\      /  F ield         | OpenFOAM: The Open Source CFD Toolbox
   \\    /   O peration     | Website:  https://openfoam.org
    \\  /    A nd           | Version:  7
     \\/     M anipulation  |
\*---------------------------------------------------------------------------*/
FoamFile
{
    version     2.0;
    format      ascii;
    class       volScalarField;
    location    "340";
    object      alphat;
}
// * * * * * * * * * * * * * * * * * * * * * * * * * * * * * * * * * * * * * //

dimensions      [1 -1 -1 0 0 0 0];

internalField   nonuniform List<scalar> 
25201
(
7.9983536
7.9836337
7.9983764
7.9836835
7.8393583
7.9462432
7.971034
8.0153506
7.9965809
7.912884
7.9965626
7.9462209
7.8960066
7.1949498
7.0643946
7.7354939
7.6236407
7.5173175
7.4656362
7.1670752
7.3799391
7.3875878
7.4754368
7.3211936
7.3041738
7.1079927
7.2447711
7.525374
7.4539088
7.1663925
7.2219999
7.2977203
6.8414986
6.9265449
7.036729
7.064455
7.3018435
7.2242971
6.9570212
6.8709131
7.1664156
7.1340052
7.1342715
6.796358
6.826908
6.8811876
7.1595455
7.5233633
7.8307556
7.8960534
7.9562786
7.8999252
7.7006446
7.7778877
7.8589173
7.8162639
7.7808853
7.680124
7.7257508
7.4362233
7.4762729
7.5815738
7.624126
7.6910151
7.7306338
7.894191
7.8153684
7.5561784
7.4952034
7.2887914
7.2270012
7.2925046
7.5887113
7.6437958
7.5815372
7.0889312
7.1520749
7.2318522
7.2519702
7.3225069
7.4153035
7.4972775
7.3582382
7.375545
7.284231
7.4104539
7.2398488
7.1949023
7.0488401
7.1312404
7.0336755
6.980317
6.9652868
6.9686391
6.9529073
7.0367445
7.0317886
6.9489096
6.7963235
6.8992458
6.906007
6.8091853
6.8276072
6.9243657
6.9329267
6.8526305
6.674648
6.7882185
6.8599035
6.8441318
6.7538735
6.7641804
6.6427923
6.6287144
6.445399
6.5875524
6.594906
6.4599476
6.4767014
6.6582212
6.7789156
6.6152649
6.6237322
6.4927124
6.2926798
6.4595068
6.5868594
6.8598367
7.1312251
6.9569499
6.87084
6.8268069
6.881152
6.9214523
7.009321
7.1076312
7.2398538
7.3582418
7.5815607
7.7808632
7.8162435
7.6241022
7.4361658
7.4762209
7.6800814
7.7257037
7.777833
7.8588873
7.956237
7.8941643
7.7306086
7.690968
7.4951592
7.5560875
7.8153001
7.7421344
7.8998593
7.8306705
7.5886522
7.6437375
7.2269257
7.2924041
7.4104103
7.4152558
7.4972451
7.3224318
7.2518852
7.2317544
7.0587524
7.1417692
7.284178
7.3755169
7.2037738
7.3161427
7.3814941
7.2375399
7.203739
7.1759208
6.9110209
6.9390063
6.6971068
6.773436
6.7964112
6.680942
6.6774485
6.5429993
6.6540988
6.6473363
6.5134838
6.3126715
6.4824212
6.6294042
6.9109392
7.1759143
6.9803092
7.0336033
7.0486835
6.4766894
6.6152622
6.778938
6.9243174
6.932966
6.8526743
6.9652674
6.9685365
6.8274539
6.6582744
6.6746558
6.7882149
6.623773
6.4927531
6.2927122
6.4594868
6.4476896
6.4277336
6.5609853
7.9835607
7.9981684
7.8304008
7.5253323
7.4538889
7.1343177
6.926567
7.2219461
7.1663684
7.16645
7.1339754
6.8268968
6.7962582
6.8414199
6.8708961
6.9570006
7.224243
7.3018126
7.2976325
7.0366768
7.0643781
7.1948601
7.3874962
7.6235376
0.0012899057
0.0058548469
0.014045018
0.024257625
0.32484295
0.33197886
0.025190151
0.014561563
0.006061987
0.0013261585
0.0013435059
0.0062366422
0.015002689
0.025926272
0.33975135
0.34439884
0.026218634
0.015184339
0.0063130379
0.0013524676
0.0013558805
0.0063466854
0.015263358
0.026334161
0.34739512
0.34944767
0.026401806
0.015311335
0.0063672856
0.0013578866
0.0013595094
0.00638757
0.015361273
0.026477054
0.35106715
0.35249303
0.026569175
0.01541839
0.0064099162
0.0013611616
0.0013628571
0.0064343304
0.015481515
0.026673083
0.35383385
0.35515593
0.026784618
0.015548021
0.0064597662
0.0013645811
0.0013663417
0.0064862484
0.015617038
0.026900139
0.35647827
0.35782337
0.027019082
0.015687643
0.0065132298
0.0013681197
0.0013699371
0.0065410423
0.01576006
0.027140473
0.35919084
0.36058964
0.027264735
0.015833881
0.0065693173
0.0013717781
0.0013736648
0.0065984091
0.015909458
0.027391363
0.36201556
0.36347589
0.027521005
0.015986572
0.0066280244
0.0013755827
0.0013775511
0.0066584592
0.016065477
0.027653137
0.36496689
0.36649524
0.027788421
0.016146033
0.0066894716
0.0013795582
0.0013816207
0.0067213239
0.016228424
0.027926322
0.3680568
0.36965681
0.028067614
0.016312652
0.0067538336
0.00138373
0.001385898
0.0067872164
0.016398781
0.028211642
0.3712922
0.37296868
0.028359189
0.016486846
0.0068213008
0.0013881135
0.0013903859
0.0068562542
0.016576815
0.028509547
0.37468432
0.3764444
0.028663398
0.016668692
0.0068918949
0.0013927058
0.0013950856
0.0069284334
0.016762557
0.028820242
0.3782441
0.38008384
0.028980587
0.016858396
0.0069657077
0.0013975173
0.0014000157
0.0070039053
0.016956283
0.029144054
0.38196206
0.38388461
0.029311491
0.017056437
0.0070429641
0.0014025813
0.0014052278
0.0070830531
0.01715896
0.029482645
0.38585431
0.38787986
0.029658461
0.017264201
0.0071241779
0.0014079474
0.0014107379
0.0071665098
0.017371958
0.029837963
0.3899611
0.39208346
0.030020656
0.017481426
0.0072094469
0.0014135948
0.43960394
0.027086023
0.015923345
0.0066425195
0.0013551174
0.0013525347
0.0066036693
0.015824301
0.02692201
0.43724409
0.43492153
0.02675968
0.015725919
0.0065649428
0.0013500039
0.0013475138
0.0065268553
0.015628526
0.026598559
0.43263951
0.43041943
0.026441694
0.015533815
0.0064898862
0.0013450811
0.001342718
0.0064538488
0.015441247
0.026288102
0.42825724
0.42615178
0.026138568
0.015350967
0.0064186493
0.0013404162
0.0013381724
0.0063843118
0.015262559
0.02599184
0.42409726
0.42209611
0.025849113
0.015176421
0.0063508139
0.001335982
0.0013338512
0.0063182629
0.015092372
0.025709462
0.42014545
0.41824231
0.025573851
0.015010596
0.0062865327
0.0013317745
0.0013297508
0.0062555202
0.014930327
0.025440345
0.41637799
0.41455578
0.025310145
0.014851841
0.006225133
0.0013277722
0.0013258433
0.0061954688
0.014774826
0.025181902
0.41277342
0.41103441
0.025057155
0.014699681
0.0061664487
0.0013239571
0.0013221201
0.0061381526
0.014625987
0.024934239
0.40933203
0.40767409
0.024815013
0.014554196
0.0061104834
0.0013203231
0.0013185692
0.0060834829
0.014483674
0.024697205
0.40604852
0.40446189
0.024582863
0.014414878
0.0060570255
0.0013168463
0.001315161
0.0060312275
0.014347299
0.024469812
0.40290386
0.40138041
0.024360122
0.014281334
0.0060059095
0.0013134995
0.0013118685
0.005981262
0.014216628
0.024251799
0.39988235
0.39840909
0.024147332
0.014153702
0.0059571288
0.0013102555
0.001308669
0.0059338566
0.014092662
0.024045603
0.39694182
0.39546018
0.023951442
0.01403499
0.0059115516
0.0013071069
0.0013055708
0.0058910228
0.013982282
0.02386682
0.39390278
0.39217569
0.023797942
0.013936114
0.0058721904
0.0013040302
0.0013020972
0.0058530585
0.013891088
0.02373442
0.3900342
0.38698553
0.023630625
0.013818792
0.0058216108
0.0012986517
0.001290546
0.0057543037
0.013656753
0.023372969
0.38226872
0.37535881
0.022831665
0.013333839
0.005622354
0.0012740838
0.0012504477
0.0054169349
0.012843486
0.0220023
0.36704154
0.34331379
0.01963282
0.01132877
0.0047981334
0.0012039959
0.0012485858
0.0054265416
0.012867701
0.022037675
0.36769832
0.3760676
0.022864488
0.013354697
0.0056304749
0.0012731199
0.0012901467
0.0057626613
0.013677314
0.023405243
0.38285152
0.38743401
0.023655304
0.013834512
0.0058280786
0.0012984304
0.0013019983
0.0058583013
0.013904076
0.023755172
0.39041546
0.39250102
0.023814224
0.013946311
0.0058763366
0.0013039827
0.0013055582
0.0058944738
0.013990983
0.023881005
0.39418704
0.39570209
0.023962914
0.014042041
0.0059143746
0.0013071109
0.0013086876
0.0059362884
0.014098869
0.024055859
0.3971531
0.39859529
0.024155825
0.014158869
0.0059591839
0.00131028
0.0013119007
0.005983092
0.014221349
0.024259695
0.40004648
0.4015264
0.024366763
0.014285347
0.0060075
0.0013135347
0.0013152022
0.006032695
0.014351106
0.024476219
0.40303519
0.40458087
0.024588386
0.01441822
0.006058354
0.0013168906
0.0013186195
0.006084782
0.014487038
0.02470286
0.40615987
0.40777821
0.024820093
0.014557283
0.006111709
0.0013203765
0.0013221785
0.0061394103
0.014629242
0.024939708
0.40943258
0.41112804
0.025062176
0.014702721
0.0061676517
0.0013240141
0.0013258987
0.0061966738
0.014777936
0.025187114
0.41286176
0.41463825
0.025314997
0.014854759
0.0062262797
0.001327821
0.001329794
0.0062566672
0.014933317
0.025445384
0.41645503
0.41831637
0.025578797
0.01501356
0.0062876826
0.0013318085
0.0013338765
0.0063194581
0.015095494
0.0257147
0.42022083
0.42217341
0.025853939
0.015179295
0.0063519202
0.0013359949
0.0013381756
0.0063852932
0.015265187
0.025996358
0.42417665
0.42623398
0.026142436
0.015353209
0.0064194874
0.0013404117
0.0013427124
0.0064545899
0.015443281
0.02629168
0.42834305
0.43050796
0.026444815
0.015535604
0.0064905475
0.0013450787
0.0013475214
0.0065275238
0.015630335
0.026601702
0.43272931
0.43501097
0.02676305
0.015727948
0.0065657224
0.0013500284
0.0013525789
0.0066046805
0.01582689
0.02692622
0.43733751
0.43970604
0.027091288
0.015926582
0.0066437972
0.0013551831
0.0013578863
0.0066839311
0.016028879
0.027260689
0.44215024
0.0014059459
0.0071392818
0.017271705
0.02960108
0.39377516
0.39160136
0.029417732
0.017161667
0.007096041
0.0014030491
0.0014002319
0.0070534932
0.01705337
0.029237419
0.38947697
0.3874046
0.029061469
0.016947638
0.007011978
0.0013974941
0.0013948072
0.0069711609
0.016843339
0.028887678
0.3853719
0.3833948
0.028718335
0.016741721
0.0069314279
0.0013921806
0.0013896257
0.0068927074
0.016642418
0.028552552
0.38146728
0.37958868
0.028391192
0.016545617
0.0068549152
0.0013871383
0.0013847191
0.0068180839
0.016450898
0.028232919
0.37775261
0.37596485
0.028079058
0.016358666
0.0067821753
0.0013823646
0.0013800773
0.0067471559
0.016268339
0.027927932
0.37421616
0.37251064
0.027780865
0.016180236
0.0067129329
0.0013778487
0.0013756788
0.0066795104
0.016093808
0.02763614
0.37084112
0.36921166
0.027495153
0.016009388
0.0066467934
0.0013735578
0.0013714899
0.0066148594
0.015926572
0.027356316
0.3676172
0.36606262
0.027221309
0.015845769
0.0065836092
0.0013694662
0.0013674923
0.0065531256
0.015766502
0.027088262
0.36454063
0.36305671
0.026959005
0.015689185
0.0065232853
0.0013655572
0.001363668
0.0064942011
0.015613355
0.026831566
0.36160382
0.36018736
0.026707938
0.01553944
0.006465732
0.0013618129
0.0013599988
0.0064380128
0.015466963
0.026585948
0.35879959
0.35744552
0.026467798
0.015396359
0.0064108766
0.0013582121
0.0013564595
0.0063845068
0.015327227
0.026351316
0.35611589
0.35481296
0.026239429
0.015260264
0.0063587925
0.0013547279
0.0013530287
0.0063341108
0.015195584
0.026130927
0.35351567
0.35220859
0.0260316
0.015135065
0.0063106708
0.0013513604
0.0013497326
0.0062894531
0.015080714
0.025944124
0.35082924
0.34928942
0.025876108
0.015034734
0.0062705852
0.0013481153
0.0013460713
0.0062516983
0.014990809
0.025815498
0.34735042
0.34452076
0.025706075
0.014914905
0.0062189534
0.0013422312
0.0013328096
0.0061475487
0.01474019
0.025422265
0.34018029
0.33404373
0.024818195
0.014388689
0.0060076951
0.0013133564
0.0012823427
0.0058125119
0.013898226
0.023944289
0.3270885
0.32606036
0.024324447
0.014107849
0.0058918012
0.0012851616
0.0013264704
0.0060542902
0.014535721
0.025153044
0.33179929
0.33996516
0.025948311
0.015016375
0.006241833
0.0013434991
0.0013526238
0.0063163497
0.015191866
0.026230401
0.34450961
0.34752367
0.026346111
0.015270547
0.0063495103
0.001355944
0.0013579454
0.0063697221
0.015317237
0.026410867
0.34955919
0.35117673
0.026485489
0.015366257
0.0063894739
0.0013595443
0.0013612101
0.0064118362
0.01542309
0.026576373
0.35259267
0.35392906
0.026680183
0.015485681
0.0064359013
0.0013628974
0.001364635
0.0064614256
0.015552092
0.026790862
0.35523947
0.35655918
0.026906436
0.015620715
0.0064876241
0.0013663873
0.0013681773
0.0065146994
0.015691261
0.027024661
0.3578964
0.35926294
0.027146164
0.01576337
0.0065422775
0.0013699871
0.0013718387
0.0065706689
0.01583721
0.02726991
0.36065715
0.36208321
0.027396728
0.015912582
0.0065995742
0.0013737189
0.0013756468
0.0066293107
0.015989743
0.027525968
0.36353956
0.36503118
0.027658404
0.016068558
0.0066596145
0.0013776099
0.001379625
0.0066907646
0.016149213
0.027793419
0.36655594
0.36811816
0.027931798
0.016231644
0.0067225344
0.0013816808
0.001383793
0.0067551578
0.016315929
0.028072821
0.36971574
0.37135129
0.028217324
0.016402096
0.0067884518
0.0013859517
0.0013881723
0.0068226296
0.01649021
0.028364702
0.37302301
0.37473458
0.028515705
0.016580334
0.0068575472
0.001390447
0.0013927878
0.0068933639
0.01667244
0.028669662
0.37648389
0.37827484
0.028827335
0.016766629
0.0069299548
0.0013951875
0.0013976566
0.0069674817
0.016862902
0.028988174
0.38010819
0.38198942
0.029152913
0.016961419
0.0070058666
0.0014001874
0.001402785
0.0070452226
0.017062123
0.029321034
0.38391996
0.38590495
0.029492989
0.017165022
0.0070854112
0.0014054404
0.0014081611
0.0071265835
0.01727015
0.029668439
0.38794576
0.39003997
0.029848159
0.017377787
0.0071687261
0.0014109468
0.0014138119
0.0072120378
0.017487945
0.030031656
0.39218518
0.3943792
0.030219166
0.01760044
0.007256245
0.0014167522
0.001405908
0.0071388798
0.017270698
0.029599402
0.39376109
0.39159264
0.029416181
0.017160734
0.0070956668
0.0014030076
0.0014001876
0.0070531225
0.017052452
0.029235886
0.38947174
0.38740021
0.029059819
0.016946642
0.0070115673
0.0013974479
0.0013947603
0.0069707253
0.016842271
0.028885901
0.38536709
0.38338754
0.028716462
0.0167406
0.0069309749
0.0013921363
0.0013895855
0.0068922394
0.016641253
0.028550598
0.38145593
0.37957373
0.028389183
0.016544434
0.0068544503
0.0013871035
0.0013846901
0.0068176272
0.01644973
0.028230946
0.37773535
0.37594447
0.028077002
0.016357454
0.0067817054
0.001382339
0.0013800546
0.0067467063
0.016267181
0.027925995
0.37419491
0.3724898
0.027779032
0.016179132
0.0067125015
0.0013778283
0.0013756602
0.0066791103
0.016092791
0.027634472
0.37082139
0.36919374
0.027493643
0.016008456
0.0066464221
0.0013735405
0.0013714736
0.0066145209
0.015925731
0.027354963
0.36760039
0.36604821
0.027220117
0.015845017
0.0065833042
0.0013694515
0.0013674797
0.0065528547
0.015765837
0.027087208
0.36452756
0.36304477
0.026958037
0.015688563
0.0065230291
0.001365546
0.0013636587
0.0064939756
0.015612796
0.026830687
0.36159178
0.36017686
0.026707173
0.015538939
0.0064655258
0.0013618059
0.0013599933
0.0064378145
0.015466473
0.026585183
0.3587889
0.35743399
0.026467071
0.015395879
0.0064106782
0.0013582078
0.0013564563
0.006384309
0.015326744
0.026350565
0.35610478
0.35480094
0.026238592
0.015259722
0.0063585757
0.0013547258
0.0013530269
0.0063338769
0.015195002
0.02613002
0.35350293
0.35219452
0.026030543
0.0151344
0.0063104099
0.0013513581
0.0013497299
0.006289211
0.015080086
0.025943123
0.35081775
0.34927909
0.025874921
0.015034012
0.0062703085
0.0013481081
0.0013460539
0.0062515266
0.014990278
0.025814491
0.34734568
0.34452912
0.025705047
0.014914379
0.0062187645
0.0013421998
0.0013326812
0.0061468102
0.014738483
0.025419251
0.34019494
0.33409323
0.024813856
0.014386437
0.0060068294
0.0013132178
0.001281435
0.005809328
0.013892613
0.02393417
0.32726601
0.36865711
0.022094394
0.012925247
0.0054577435
0.0012439431
0.0012730363
0.0056254506
0.013335003
0.022832635
0.37578662
0.38288098
0.023408662
0.013679276
0.0057632336
0.0012901194
0.001298613
0.005828628
0.013835032
0.023655698
0.38743755
0.39039003
0.023753934
0.013902986
0.0058578426
0.0013020579
0.0013040194
0.00587583
0.013944812
0.023811441
0.39244953
0.39412783
0.023878134
0.013988968
0.0058936288
0.0013055583
0.0013071127
0.0059137499
0.014040292
0.023959688
0.39564064
0.3970954
0.024053096
0.014096992
0.0059355093
0.0013086737
0.0013102732
0.0059586466
0.014157346
0.024152988
0.39853649
0.39999459
0.024257339
0.014219739
0.005982418
0.0013118816
0.0013135219
0.0060070097
0.014283956
0.024364191
0.40147604
0.40299003
0.024474029
0.014349618
0.0060320749
0.0013151787
0.0013168719
0.0060578818
0.014416875
0.024585918
0.40453534
0.40611813
0.024700711
0.014485589
0.0060841791
0.00131859
0.0013203498
0.0061112101
0.014555878
0.024817563
0.40773602
0.40939326
0.024937388
0.014627705
0.0061387727
0.0013221411
0.0013239771
0.0061670783
0.014701135
0.025059388
0.41108738
0.41282264
0.025184394
0.014776164
0.0061959422
0.0013258496
0.001327772
0.0062255767
0.014852858
0.025311736
0.41459757
0.4164144
0.025442093
0.014931215
0.0062558103
0.0013297359
0.0013317558
0.0062868587
0.015011359
0.025575061
0.41827239
0.42017634
0.025711179
0.015093262
0.0063185554
0.0013338251
0.0013359611
0.006351121
0.015177164
0.02585035
0.42212724
0.42413214
0.025993351
0.01526328
0.0063845296
0.0013381583
0.0013404217
0.0064189187
0.015351625
0.026139755
0.42618972
0.42830204
0.026289858
0.015442121
0.0064541389
0.0013427428
0.0013451305
0.0064903052
0.015534789
0.026443351
0.43046799
0.43269104
0.026600757
0.015629746
0.0065273163
0.0013475768
0.0013500785
0.0065655018
0.015727198
0.026761717
0.43497123
0.43729432
0.026924819
0.01582599
0.0066043315
0.0013526106
0.0013551954
0.0066433307
0.015925202
0.027088904
0.43965646
0.44209123
0.027258076
0.016027329
0.0066833566
0.0013578797
0.39428046
0.030211094
0.017595687
0.007254392
0.0014166277
0.0014136702
0.0072101086
0.017482955
0.030023074
0.39208817
0.38996189
0.029840702
0.017373559
0.0071671146
0.001410817
0.0014080269
0.0071247354
0.017265492
0.029660469
0.3878741
0.38584337
0.029484706
0.017160153
0.007083494
0.0014052948
0.0014026289
0.0070432628
0.017057078
0.029312364
0.38386733
0.38194396
0.029144553
0.016956552
0.007003966
0.0014000303
0.0013975026
0.0069656312
0.016858115
0.028979866
0.38006636
0.378235
0.028819524
0.016762105
0.0069281946
0.001395041
0.0013926479
0.0068916655
0.016668041
0.02866202
0.37644394
0.37469607
0.028508956
0.016576429
0.0068560299
0.001390321
0.0013880607
0.0068212344
0.016486579
0.028358385
0.37298416
0.37131124
0.028211941
0.016398951
0.0067872216
0.0013858565
0.0013837093
0.006754009
0.016312941
0.02806765
0.36967353
0.3680746
0.027927335
0.016229016
0.0067215023
0.0013816085
0.0013795594
0.006689769
0.016146613
0.027788922
0.36650954
0.36498274
0.027654406
0.016066199
0.006658684
0.0013775507
0.0013755898
0.0066283685
0.015987267
0.027521667
0.36348821
0.36203091
0.027392847
0.015910301
0.0065986766
0.0013736658
0.001371785
0.0065697335
0.015834743
0.027265608
0.36060308
0.35921001
0.027142294
0.015761104
0.006541385
0.0013699358
0.0013681246
0.0065137669
0.015688796
0.027020363
0.35784286
0.356506
0.026902548
0.015618436
0.0064867265
0.001366337
0.0013645832
0.0064604922
0.015549615
0.026786524
0.35518579
0.35387545
0.026676539
0.015483533
0.0064350507
0.0013628492
0.0013611606
0.0064109788
0.01542079
0.026572289
0.35254122
0.35112979
0.026482232
0.015364379
0.0063887398
0.0013594988
0.0013578999
0.0063691528
0.015315595
0.026407752
0.34951628
0.347487
0.026344297
0.01526957
0.0063491496
0.0013559029
0.0013525598
0.0063167882
0.015192701
0.026231246
0.34449666
0.33994741
0.0259466
0.015014488
0.0062408932
0.0013433389
0.0013257364
0.0060581323
0.014544474
0.025164875
0.33186614
0.32582758
0.024316684
0.014104408
0.0058907231
0.0012842937
0.0012899689
0.0058697575
0.014078676
0.024307527
0.32537381
0.33231725
0.025208762
0.014573964
0.0060674383
0.0013257708
0.0013431785
0.0062405531
0.015011729
0.025939968
0.34002549
0.34462405
0.026231645
0.015192497
0.0063163424
0.0013523066
0.0013558169
0.0063498996
0.01527127
0.026346698
0.34759162
0.34961081
0.02641342
0.015318565
0.0063701577
0.001357878
0.0013595263
0.0063901192
0.015367628
0.026487145
0.3512093
0.35261775
0.026578363
0.015424127
0.0064121875
0.0013611941
0.0013628965
0.0064363317
0.015486546
0.026681097
0.3539436
0.35525108
0.026792094
0.015552674
0.0064615992
0.0013646255
0.0013663862
0.0064878635
0.01562111
0.026906626
0.35656389
0.35790087
0.027025328
0.015691519
0.0065147461
0.0013681679
0.0013699865
0.0065424164
0.015763525
0.027146008
0.3592626
0.36065796
0.027270238
0.015837284
0.0065706495
0.001371831
0.0013737194
0.0065996544
0.015912619
0.027396449
0.3620814
0.3635403
0.027526181
0.015989755
0.006629267
0.0013756417
0.0013776118
0.0066596667
0.016068533
0.027658077
0.36503115
0.36655983
0.02779358
0.016149191
0.0066907095
0.0013796214
0.0013816823
0.00672255
0.016231531
0.027931372
0.36812379
0.36972832
0.02807285
0.016315838
0.0067550801
0.0013837867
0.0013859442
0.0067884216
0.016401888
0.028216802
0.37137025
0.37305338
0.028364362
0.016489899
0.0068224638
0.0013881473
0.0013904054
0.0068573079
0.016579604
0.028514327
0.37477329
0.37653314
0.02866792
0.016671308
0.0068928743
0.0013927144
0.0013950851
0.0069293206
0.016764928
0.028824319
0.37833144
0.38017126
0.028984575
0.016860738
0.006966585
0.0013975143
0.0014000156
0.0070048012
0.016958653
0.02914803
0.38205176
0.38398034
0.029315917
0.017059114
0.0070439869
0.0014025902
0.0014052472
0.0070842423
0.017162061
0.029487771
0.38596133
0.38799919
0.029664344
0.017267764
0.0071255541
0.0014079799
0.0014107873
0.0071680523
0.017375886
0.02984443
0.3900831
0.39220335
0.030027594
0.017485566
0.0072110553
0.0014136628
0.0014166462
0.0072554037
0.017598373
0.030215675
0.39438806
8.0821349
8.0776689
8.082113
8.0776245
8.0167568
8.045731
8.0571712
8.1019845
8.0953257
8.0457472
7.983845
8.0520409
8.0953107
8.0749324
8.0114314
7.9716937
7.9359065
7.7949215
7.8381312
7.6886614
7.907314
7.8674609
7.6225722
7.4334251
7.8012655
7.9750056
8.0433234
7.9037007
7.9574283
7.9984634
8.0468711
7.9455013
7.9004165
7.7577667
7.825218
7.6749914
7.9505787
7.9114772
7.8617495
7.7977551
7.84626
7.5114308
7.3909846
7.3068499
7.7513131
7.6858998
7.6441896
7.7005466
7.2886522
7.3576869
7.2258758
7.1530325
7.088759
7.1519754
7.5232583
7.581428
7.5814566
7.8306538
7.983523
7.9981394
7.946052
7.8958611
0.32795648
0.0239244
0.013889489
0.0058083587
0.0012871205
0.0013149733
0.0059980612
0.014362685
0.024771209
0.33406451
0.339922
0.025378896
0.014713675
0.0061369031
0.0013332292
0.0013424165
0.0062111031
0.014895196
0.02567412
0.34422796
0.34710872
0.02579442
0.014976968
0.0062459834
0.0013461497
0.0013481741
0.0062665975
0.015024725
0.025860283
0.34909322
0.35068564
0.025933481
0.015073387
0.0062863868
0.0013497614
0.0013513883
0.0063085207
0.015129562
0.026022897
0.35209116
0.35342937
0.026125198
0.015191443
0.0063323495
0.0013530415
0.0013547465
0.006357598
0.015257128
0.026234451
0.3547444
0.35606655
0.026348331
0.01532489
0.0063834816
0.0013564681
0.001358228
0.0064102253
0.015394593
0.02646499
0.35740502
0.35877061
0.026584513
0.015465671
0.0064374185
0.0013600073
0.0013618284
0.0064654027
0.015538482
0.026706399
0.36016205
0.36158651
0.026831086
0.015612713
0.0064938702
0.0013636773
0.0013655738
0.0065231553
0.015688741
0.02695828
0.36303922
0.36452655
0.027088401
0.015766296
0.0065529721
0.0013675039
0.0013694855
0.0065836122
0.015845664
0.027221104
0.36604592
0.36760198
0.027356935
0.015926713
0.0066148532
0.001371508
0.0013735856
0.006646956
0.016009682
0.027495582
0.36919206
0.37082055
0.02763749
0.016094433
0.0066797007
0.0013757078
0.0013778888
0.0067133135
0.016181104
0.027782242
0.37248556
0.37419078
0.027930443
0.016269687
0.0067476304
0.0013801203
0.0013824137
0.0067828355
0.016360245
0.028081605
0.37593461
0.37772095
0.028236334
0.016452811
0.0068187905
0.0013847623
0.0013871769
0.0068556678
0.016547439
0.028394217
0.37955027
0.38142607
0.028555757
0.016644175
0.0068933458
0.0013896509
0.0013921943
0.0069319899
0.016743094
0.028720693
0.38334929
0.38532411
0.028889469
0.016844248
0.0069714981
0.0013948015
0.0013974814
0.007012007
0.016947653
0.029061729
0.38735095
0.38943157
0.029238224
0.017053558
0.0070534983
0.0014002324
0.0014030613
0.007096025
0.017161773
0.029418315
0.39156566
0.39375498
0.029602699
0.017272529
0.0071395428
0.0014059662
0.0014029799
0.0070949694
0.017158918
0.029413154
0.39151948
0.38940398
0.029234424
0.017051524
0.007052744
0.0014001755
0.0013974398
0.0070112872
0.016945789
0.029058285
0.38733503
0.38530675
0.028884617
0.01684137
0.006970316
0.0013947453
0.0013921144
0.006930468
0.016739255
0.028714207
0.38333055
0.38140709
0.02854838
0.016639776
0.006891603
0.0013895512
0.0013870591
0.0068537025
0.016542442
0.028385787
0.37953007
0.37769816
0.028227533
0.016447547
0.0068167114
0.0013846322
0.0013822773
0.0067807242
0.01635482
0.028072451
0.37590648
0.37416089
0.027922135
0.016264774
0.0067457275
0.0013799905
0.0013777709
0.006711672
0.016176786
0.027774815
0.37245584
0.37078923
0.027631269
0.016090773
0.006678287
0.001375604
0.0013734921
0.0066455985
0.01600617
0.027489606
0.36915469
0.36755886
0.027351722
0.015923582
0.0066136151
0.0013714264
0.0013694121
0.0065824151
0.015842547
0.027215803
0.36599627
0.3644705
0.027083626
0.01576343
0.0065518442
0.0013674381
0.0013655103
0.0065220055
0.015685735
0.02695315
0.36297945
0.36152298
0.026826299
0.015609851
0.0064927444
0.0013636174
0.0013617675
0.006464207
0.015535352
0.026701028
0.36009423
0.35869987
0.026579444
0.015462641
0.0064362241
0.0013599481
0.0013581666
0.0064089334
0.015391205
0.026459173
0.35732803
0.35598847
0.026342913
0.01532164
0.006382197
0.0013564088
0.0013546854
0.0063562006
0.015253476
0.026228222
0.35466168
0.35334397
0.026119096
0.015187778
0.006330904
0.0013529817
0.0013513265
0.0063069253
0.015125413
0.026015877
0.35200032
0.35058916
0.025926717
0.015069275
0.0062847501
0.0013497065
0.0013481235
0.0062647976
0.015020121
0.025852583
0.34898866
0.34698526
0.025787558
0.014972625
0.0062441909
0.0013461354
0.0013424416
0.0062092639
0.014891212
0.025668565
0.3440583
0.33957747
0.025375048
0.014708682
0.0061339987
0.0013333756
0.0013150476
0.0059944308
0.014359234
0.024775741
0.33337108
0.32622322
0.023896579
0.013854645
0.0057903885
0.0012867773
0.0012438194
0.0054217727
0.0129226
0.022334113
0.3130636
0.32746696
0.025724288
0.014804868
0.006109578
0.0013135357
0.0012890177
0.0059177973
0.014165029
0.024410916
0.32766212
0.33202636
0.025154798
0.014539705
0.0060571267
0.0013279543
0.0013439032
0.0062387982
0.015007749
0.025931917
0.33992857
0.34435414
0.026212373
0.015180677
0.0063119403
0.0013528365
0.0013560859
0.0063462414
0.015262144
0.02633209
0.34736077
0.34940643
0.026399459
0.015309752
0.0063666335
0.0013580326
0.0013596121
0.0063871517
0.0153603
0.026475659
0.35103693
0.35247026
0.026568408
0.015417782
0.0064096333
0.0013612432
0.0013629251
0.0064341948
0.015481256
0.026672822
0.35381909
0.35514611
0.026785006
0.015548144
0.0064597814
0.001364642
0.0013663965
0.006486369
0.015617407
0.026900874
0.35647739
0.35782911
0.02702028
0.015688295
0.00651346
0.0013681726
0.0013699892
0.0065413715
0.015760944
0.027142022
0.35920079
0.360603
0.027266682
0.015835009
0.0065697426
0.0013718306
0.0013737179
0.006598912
0.015910784
0.02739362
0.36203321
0.3634991
0.027523604
0.015988101
0.006628608
0.0013756372
0.0013776068
0.0066591234
0.016067212
0.027656068
0.36499323
0.36652306
0.027791657
0.016147958
0.0066902147
0.001379614
0.0013816739
0.006722152
0.016230572
0.027929924
0.36808616
0.36968614
0.028071395
0.016314899
0.0067546969
0.0013837749
0.0013859333
0.0067880973
0.016401117
0.028215628
0.37131994
0.37299261
0.028363193
0.016489163
0.0068221644
0.0013881395
0.0013904073
0.0068571134
0.016579162
0.028513675
0.37470314
0.37645731
0.028667718
0.016671151
0.0068927952
0.0013927292
0.0013951185
0.0069293869
0.016765172
0.028824847
0.378252
0.38009224
0.028985724
0.016861326
0.0069667893
0.0013975684
0.0014000886
0.0070051618
0.016959653
0.029149913
0.38197658
0.38390847
0.029318053
0.017060273
0.0070444111
0.0014026745
0.0014053371
0.007084716
0.017163274
0.029489876
0.38588782
0.38791906
0.029666147
0.017268914
0.0071260518
0.0014080731
0.0014108972
0.0071686839
0.017377415
0.029846715
0.39000148
0.39213769
0.030032771
0.017489647
0.0072130676
0.0014138128
0.0014168007
0.0072606003
0.017605808
0.030221745
0.39432724
0.0014029693
0.0070945233
0.017158004
0.029411914
0.39152371
0.38939322
0.02923117
0.017049428
0.0070518841
0.0014001357
0.0013973776
0.0070103112
0.016943246
0.029054123
0.38731756
0.38530025
0.028882261
0.016840122
0.0069699303
0.0013946997
0.0013921006
0.0069305747
0.016739332
0.028714034
0.38333477
0.38141865
0.028550193
0.016641026
0.0068921488
0.0013895734
0.0013871171
0.0068546558
0.016544742
0.02838938
0.37954679
0.37772037
0.028232728
0.016450808
0.0068180341
0.0013847236
0.0013823969
0.0067822021
0.016358609
0.02807867
0.37593196
0.37417283
0.027926622
0.016267305
0.0067466242
0.0013800989
0.0013778478
0.006712019
0.016177868
0.027777005
0.37245231
0.37077653
0.027631424
0.016090684
0.0066782169
0.0013756414
0.0013735128
0.0066456395
0.016006216
0.027489759
0.36914711
0.36755449
0.027352004
0.015923724
0.0066136755
0.0013714401
0.0013694227
0.0065824775
0.015842736
0.027216183
0.36599559
0.36447199
0.027084003
0.015763631
0.0065519138
0.0013674481
0.0013655217
0.0065220718
0.015685923
0.026953482
0.36297852
0.36151966
0.02682642
0.015609933
0.0064927761
0.0013636296
0.0013617806
0.006464197
0.015535326
0.026700986
0.36008775
0.35868976
0.026579074
0.015462429
0.0064361418
0.0013599611
0.0013581799
0.0064088005
0.015390877
0.026458651
0.35731499
0.35597098
0.026342013
0.015321096
0.0063819792
0.0013564226
0.0013547012
0.0063559223
0.015252801
0.02622715
0.35463965
0.35331802
0.026117749
0.015186939
0.0063305565
0.001353001
0.0013513515
0.0063065298
0.015124457
0.026014357
0.35196846
0.35055501
0.025924982
0.015068184
0.0062842958
0.0013497389
0.0013481656
0.006264322
0.015018954
0.025850696
0.34895184
0.34695083
0.025785184
0.014971159
0.0062435776
0.0013461842
0.0013425037
0.0062088087
0.014890057
0.025666597
0.34404654
0.33962031
0.025375351
0.014709017
0.0061341835
0.0013334751
0.0013152598
0.0059962191
0.014363661
0.024782951
0.33353423
0.32651446
0.023913013
0.013863382
0.0057938332
0.001287249
0.0012451077
0.0054530952
0.013002631
0.022462484
0.31437576
0.348028
0.020118818
0.011636698
0.0049193501
0.0012150582
0.0012854637
0.0057628
0.013799808
0.023775745
0.32108865
0.32560072
0.023927319
0.013896743
0.005802365
0.0012831534
0.0012857454
0.005802859
0.01387632
0.023905304
0.32773192
0.33405474
0.024774541
0.014364578
0.0059990399
0.0013146257
0.0013329682
0.0061367823
0.014713701
0.025379041
0.33994355
0.344313
0.025678066
0.01489747