/*--------------------------------*- C++ -*----------------------------------*\
  =========                 |
  \\      /  F ield         | OpenFOAM: The Open Source CFD Toolbox
   \\    /   O peration     | Website:  https://openfoam.org
    \\  /    A nd           | Version:  7
     \\/     M anipulation  |
\*---------------------------------------------------------------------------*/
FoamFile
{
    version     2.0;
    format      ascii;
    class       volScalarField;
    location    "340";
    object      nut;
}
// * * * * * * * * * * * * * * * * * * * * * * * * * * * * * * * * * * * * * //

dimensions      [0 2 -1 0 0 0 0];

internalField   nonuniform List<scalar> 
25201
(
6.8136249
6.8011327
6.8136425
6.801169
6.6782916
6.7693371
6.7904345
6.8281799
6.812228
6.740977
6.8122138
6.7693218
6.7265716
6.1290017
6.0177339
6.5898166
6.494433
6.4038281
6.3599003
6.105263
6.2867676
6.2932841
6.368236
6.2365938
6.2220593
6.0550118
6.1716186
6.4107188
6.3497879
6.104801
6.1521533
6.2167576
5.8277434
5.9002407
5.9941666
6.0177684
6.2202693
6.1541359
5.9261874
5.852794
6.1048435
6.0772055
6.0773933
5.7892603
5.815283
5.8615621
6.0988453
6.4088992
6.670973
6.7266031
6.7779393
6.7299453
6.5600868
6.6259033
6.6949625
6.6586395
6.6284476
6.5425141
6.5814763
6.3346989
6.3689949
6.4585141
6.494875
6.5518686
6.5857705
6.7251041
6.6579551
6.4371004
6.3850464
6.2091689
6.1564122
6.2123886
6.4646178
6.5116487
6.4585875
6.0387582
6.0927119
6.1606458
6.1776024
6.2377749
6.3168055
6.3867401
6.2680846
6.2829577
6.2050267
6.3128119
6.1672326
6.1289485
6.0046094
6.0748098
5.9918562
5.9460224
5.9333853
5.9360773
5.9227988
5.9944761
5.9901609
5.9192954
5.7892829
5.8769123
5.8827575
5.8002281
5.8158622
5.8982836
5.905709
5.8371025
5.6855661
5.7825231
5.8434545
5.8299417
5.7532142
5.762062
5.6584412
5.6464573
5.4901781
5.6111748
5.6175834
5.5025648
5.5168146
5.6715604
5.7744899
5.6347774
5.6421664
5.5304707
5.3600235
5.5023466
5.6108104
5.8434004
6.0747998
5.9261453
5.8527513
5.815214
5.8615362
5.8958951
5.9707713
6.0545834
6.1672464
6.2680982
6.4585088
6.6284367
6.6586255
6.4948568
6.3346521
6.3689563
6.5424872
6.5814397
6.6258574
6.6949398
6.7779074
6.7250832
6.5857497
6.5518302
6.3850085
6.4370225
6.6578974
6.5955673
6.729893
6.670916
6.4645822
6.5116063
6.1563487
6.2123128
6.31278
6.3167764
6.3867271
6.2377289
6.1775446
6.1605677
6.0128694
6.0836978
6.2049834
6.2829351
6.1366324
6.232354
6.2880942
6.165324
6.1366015
6.1127809
5.8868865
5.910907
5.704708
5.7700299
5.7893527
5.690837
5.6880746
5.5732649
5.6681115
5.6621275
5.5481366
5.3770566
5.5217358
5.6470082
5.8868226
6.1127848
5.946021
5.9918012
6.0044967
5.5168153
5.6347896
5.774531
5.8982596
5.9057414
5.8371462
5.9333801
5.936005
5.815746
5.6716193
5.6855803
5.7825259
5.6422039
5.5305113
5.3600543
5.5023301
5.4921697
5.4753121
5.5887758
6.8010657
6.8134685
6.6706761
6.4106901
6.3497713
6.0774322
5.9002731
6.1521133
6.1047871
6.1048789
6.0771793
5.8152762
5.7891786
5.8276857
5.8527877
5.9261821
6.1540948
6.220253
6.2166935
5.9941392
6.0177188
6.1289303
6.2932156
6.4943519
0.0010990301
0.004988418
0.011966167
0.020666427
0.27668545
0.28262567
0.021445117
0.012396764
0.0051608201
0.0011290148
0.0011440624
0.0053108008
0.012775512
0.022077462
0.28931159
0.29326825
0.022326105
0.01293001
0.0053757811
0.0011516754
0.001154684
0.0054049026
0.012998417
0.0224264
0.29584306
0.29760158
0.022484799
0.013039738
0.0054226413
0.0011564348
0.001157867
0.0054401476
0.013082817
0.022549825
0.29899291
0.30021602
0.022628935
0.013131844
0.0054593394
0.0011593088
0.001160785
0.0054802816
0.013185962
0.02271804
0.30136599
0.30249874
0.022813546
0.013242903
0.0055020707
0.0011622803
0.0011638044
0.0055247406
0.013301959
0.022912403
0.30363108
0.30478222
0.023014135
0.013362343
0.0055478258
0.0011653411
0.0011669098
0.0055716123
0.013424255
0.023117925
0.30595205
0.30714827
0.023224142
0.013487353
0.0055957887
0.0011684977
0.0011701237
0.0056206575
0.013551939
0.023332361
0.30836741
0.30961575
0.023443142
0.013617832
0.0056459712
0.0011717759
0.0011734708
0.005671982
0.013685249
0.023556041
0.31089015
0.31219638
0.023671629
0.013754075
0.0056984863
0.001175199
0.0011769741
0.0057257061
0.013824464
0.023789448
0.31353089
0.31489825
0.023910164
0.013896424
0.0057534887
0.0011787897
0.0011806557
0.0057820177
0.01397001
0.024033224
0.31629587
0.31772859
0.02415929
0.014045252
0.0058111471
0.0011825626
0.0011845182
0.0058410188
0.014122122
0.024287762
0.31919479
0.32069909
0.024419235
0.014200633
0.0058714831
0.0011865156
0.0011885646
0.0059027153
0.014280846
0.024553271
0.32223732
0.32380982
0.024690307
0.014362751
0.0059345789
0.0011906585
0.00119281
0.0059672338
0.014446411
0.024830021
0.32541534
0.32705898
0.02497315
0.014532023
0.0060006305
0.0011950204
0.0011973021
0.0060349178
0.014619684
0.025119497
0.32874332
0.33047502
0.025269818
0.014709662
0.006070089
0.0011996464
0.0012020456
0.0061062632
0.014801728
0.025423192
0.33225374
0.33406962
0.025579509
0.014895391
0.0061430136
0.0012045132
0.37455828
0.02307923
0.013567934
0.0056600092
0.0011546989
0.0011524666
0.0056267556
0.013483193
0.022938901
0.37253928
0.37055434
0.022800198
0.013399136
0.0055936615
0.0011502898
0.0011481443
0.005561098
0.013315891
0.022662479
0.36860397
0.36670553
0.022528316
0.013234889
0.0055294683
0.0011460434
0.0011440061
0.0054986525
0.01315576
0.022397021
0.364857
0.36305725
0.022269211
0.013078599
0.0054685586
0.0011420227
0.0011400891
0.0054392027
0.013003042
0.02214381
0.36130114
0.35959064
0.022021825
0.012929424
0.0054105647
0.0011382015
0.0011363655
0.0053827383
0.012857599
0.021902484
0.3579234
0.35629691
0.021786604
0.012787724
0.0053556171
0.0011345768
0.0011328336
0.0053291097
0.012719138
0.021672529
0.35470363
0.35314631
0.021561274
0.012652074
0.0053031365
0.001131129
0.0011294677
0.0052777835
0.012586274
0.021451703
0.35162313
0.35013697
0.021345119
0.012522072
0.0052529814
0.001127843
0.0011262604
0.0052287971
0.012459109
0.0212401
0.34868204
0.34726494
0.021138225
0.012397769
0.0052051477
0.0011247119
0.0011232
0.0051820675
0.012337508
0.021037557
0.34587537
0.34451885
0.020939838
0.012278716
0.0051594491
0.0011217141
0.0011202599
0.0051373902
0.012220956
0.020843209
0.34318652
0.34188334
0.020749429
0.012164562
0.0051157367
0.0011188249
0.0011174147
0.0050946493
0.012109229
0.020656792
0.34060139
0.33933995
0.020567406
0.012055392
0.0050739915
0.0011160178
0.0011146417
0.0050540591
0.012003142
0.020480319
0.33808295
0.33681239
0.020399598
0.011953713
0.0050349303
0.0011132816
0.0011119419
0.0050173067
0.011908495
0.02032697
0.33547661
0.3339929
0.020267519
0.01186871
0.0050010693
0.001110585
0.0011088993
0.0049846022
0.011829958
0.020212734
0.33215782
0.32953852
0.020122868
0.011767522
0.0049574524
0.0011058821
0.0010989565
0.004900045
0.011629332
0.019903121
0.32551748
0.31958119
0.019439815
0.011353032
0.0047871459
0.0010848202
0.0010647594
0.00461247
0.010936117
0.018734889
0.31255661
0.29228426
0.01673419
0.0096570885
0.0040905201
0.0010265491
0.0010629077
0.0046195331
0.010954068
0.018760404
0.31303999
0.320139
0.019464904
0.01136911
0.0047933424
0.0010838333
0.0010984989
0.0049066492
0.011645636
0.019928562
0.3259837
0.3298995
0.020142495
0.011780089
0.004962612
0.0011056146
0.0011087591
0.0049888207
0.01184044
0.020229429
0.33246795
0.33425931
0.020280671
0.011876971
0.0050044207
0.001110504
0.0011119006
0.0050201103
0.011915588
0.020338514
0.33571073
0.33701226
0.020408953
0.011959473
0.0050372302
0.0011132615
0.0011146389
0.0050560477
0.012008234
0.020488727
0.33825805
0.33949463
0.020574377
0.012059637
0.0050756759
0.0011160239
0.0011174301
0.005096154
0.012113122
0.020663303
0.340738
0.34200504
0.020754907
0.012167875
0.0051170469
0.001118845
0.0011202866
0.0051386027
0.01222411
0.020848516
0.34329615
0.3446183
0.020944414
0.012281487
0.0051605488
0.0011217448
0.0011232367
0.0051831462
0.012340308
0.021042263
0.34596858
0.34735219
0.021142454
0.012400341
0.0052061671
0.001124752
0.0011263052
0.0052298463
0.01246183
0.02124467
0.34876639
0.35021556
0.021349317
0.012524615
0.0052539862
0.0011278871
0.0011295107
0.0052787914
0.012588881
0.02145607
0.35169734
0.3532156
0.02156534
0.01265452
0.0053040962
0.0011311668
0.0011328663
0.0053300683
0.012721642
0.021676749
0.35476827
0.35635898
0.021790743
0.012790203
0.0053565771
0.0011346014
0.0011363828
0.0053837373
0.012860214
0.021906872
0.35798666
0.35965565
0.022025872
0.012931833
0.00541149
0.0011382086
0.0011400883
0.0054400225
0.013005243
0.022147596
0.36136799
0.36312654
0.022272448
0.013080473
0.0054692569
0.0011420153
0.0011439979
0.0054992682
0.013157458
0.02240001
0.3649294
0.36678027
0.022530917
0.013236378
0.0055300161
0.001146038
0.0011481472
0.0055616513
0.013317396
0.022665095
0.36867978
0.37062984
0.022803005
0.013400825
0.0055943082
0.0011503068
0.0011524994
0.0056275948
0.013485348
0.022942405
0.37261796
0.37464398
0.023083599
0.013570622
0.0056610674
0.0011547484
0.0011570884
0.005695439
0.013658191
0.023228612
0.3767356
0.0011980274
0.0060833848
0.014717066
0.025222628
0.33551806
0.33365774
0.025065703
0.014622887
0.0060463617
0.0011955227
0.0011930946
0.0060099718
0.014530288
0.024911522
0.33184101
0.3300696
0.024761134
0.01443992
0.0059744805
0.0011907375
0.0011884256
0.0059395931
0.014350792
0.024612616
0.32833234
0.32664163
0.024467796
0.014263892
0.0059056046
0.0011861596
0.0011839584
0.005872497
0.014179009
0.024326082
0.32499368
0.32338782
0.024188168
0.014096277
0.0058401891
0.0011818164
0.0011797329
0.005808703
0.014015327
0.0240529
0.32181838
0.32029022
0.023921402
0.013936504
0.005778006
0.0011777051
0.0011757353
0.0057480714
0.013859315
0.023792256
0.31879555
0.3173379
0.023666588
0.013784035
0.0057188212
0.0011738166
0.0011719489
0.0056902577
0.013710192
0.023542936
0.31591114
0.31451857
0.023422473
0.013638065
0.005662297
0.001170123
0.0011683426
0.0056350051
0.013567308
0.02330385
0.31315589
0.31182723
0.023188496
0.013498271
0.0056082976
0.0011666002
0.0011649002
0.0055822437
0.013430543
0.023074814
0.31052634
0.30925785
0.022964361
0.013364477
0.0055567379
0.0011632332
0.001161605
0.0055318756
0.013299676
0.022855453
0.30801572
0.30680445
0.02274978
0.0132365
0.0055075347
0.0011600052
0.0011584395
0.0054838289
0.013174541
0.022645489
0.30561739
0.30445869
0.022544444
0.013114163
0.005460614
0.0011568958
0.0011553793
0.0054380442
0.013055021
0.022444789
0.30332035
0.30220401
0.022348996
0.012997696
0.0054160202
0.0011538779
0.0011524011
0.0053948625
0.012942285
0.022256031
0.30109168
0.29996946
0.022170766
0.01289035
0.0053747339
0.0011509442
0.0011495176
0.0053564792
0.012843624
0.022095518
0.29878453
0.29745894
0.022036517
0.012803837
0.0053401455
0.0011480823
0.0011462816
0.0053237888
0.012765785
0.021983802
0.29579302
0.29335498
0.021888376
0.012699835
0.0052953515
0.0011428902
0.001134771
0.0052341336
0.012550101
0.021645084
0.28963861
0.28433502
0.021124734
0.012247294
0.0051135585
0.0011178734
0.0010912653
0.0049465414
0.011827931
0.020377919
0.27838599
0.27774571
0.020726015
0.01202123
0.0050205098
0.0010951002
0.0011291306
0.0051536
0.012373146
0.021410692
0.28243753
0.28948483
0.022095591
0.0127868
0.0053150765
0.0011440288
0.0011517724
0.0053784375
0.012936028
0.022335451
0.29335399
0.29594713
0.022436171
0.013004304
0.00540721
0.001154717
0.001156467
0.0054246337
0.013044566
0.022492176
0.29769215
0.29908284
0.022556748
0.01308691
0.0054417058
0.0011578832
0.0011593388
0.0054609216
0.01313572
0.022634848
0.30029809
0.30144477
0.022723909
0.013189405
0.005481576
0.00116081
0.0011623182
0.0055034467
0.013246281
0.022818711
0.30256794
0.30369832
0.022917636
0.013305014
0.0055258803
0.0011638365
0.0011653841
0.0055490492
0.013365357
0.023018771
0.30484297
0.30601218
0.023122672
0.013427016
0.0055726401
0.0011669473
0.0011685445
0.0055969172
0.013490135
0.023228457
0.30720462
0.308424
0.023336848
0.013554552
0.0056216298
0.0011701656
0.0011718265
0.0056470478
0.013620488
0.023447293
0.30966904
0.31094404
0.023560456
0.013687831
0.0056729487
0.0011735173
0.0011752521
0.0056995701
0.013756741
0.023675817
0.31224725
0.31358239
0.023794046
0.013827168
0.0057267209
0.0011770219
0.0011788398
0.0057546
0.013899177
0.023914535
0.3149477
0.31634544
0.024037996
0.013972794
0.005783053
0.0011806978
0.0011826088
0.0058122613
0.014048077
0.024163918
0.3177741
0.31923685
0.024292942
0.014125081
0.0058421037
0.0011845668
0.0011865816
0.0058727163
0.014203784
0.0244245
0.32073195
0.32226272
0.024559243
0.014284273
0.0059039935
0.0011886477
0.0011907734
0.0059360722
0.014366547
0.0246967
0.32382981
0.32543791
0.024837501
0.014450747
0.0059688876
0.0011929528
0.0011951901
0.0060025362
0.014536824
0.024981209
0.32708831
0.32878545
0.025128217
0.014624793
0.0060369031
0.0011974783
0.0011998224
0.0060721098
0.014714664
0.025278211
0.33053025
0.33232067
0.025431854
0.014806682
0.0061081471
0.0012022225
0.0012046934
0.0061451976
0.01490089
0.025588789
0.33415536
0.33603235
0.025749216
0.014997133
0.0061830301
0.0012072319
0.001197996
0.0060830464
0.014716218
0.025221216
0.33550624
0.33365044
0.025064394
0.014622099
0.0060460461
0.0011954881
0.0011930574
0.0060096585
0.014529513
0.024910228
0.33183666
0.330066
0.024759743
0.01443908
0.0059741343
0.0011906989
0.0011883866
0.0059392265
0.014349893
0.024611121
0.32832844
0.32663565
0.02446622
0.014262949
0.0059052236
0.0011861229
0.0011839253
0.0058721038
0.014178029
0.024324438
0.32498423
0.3233753
0.024186477
0.014095281
0.0058397984
0.0011817879
0.0011797095
0.0058083199
0.014014346
0.024051241
0.32180389
0.32027305
0.023919671
0.013935484
0.0057776113
0.0011776845
0.0011757172
0.0057476938
0.013858341
0.023790625
0.31877764
0.31732032
0.023665045
0.013783106
0.0057184588
0.0011738004
0.0011719341
0.0056899218
0.013709338
0.023541533
0.31589449
0.31450345
0.023421203
0.013637282
0.0056619853
0.0011701092
0.0011683297
0.0056347211
0.013566602
0.023302713
0.31314171
0.31181509
0.023187496
0.01349764
0.005608042
0.0011665885
0.0011648903
0.005582017
0.013429986
0.023073932
0.31051536
0.30924785
0.022963553
0.013363958
0.0055565241
0.0011632246
0.0011615979
0.0055316874
0.013299209
0.022854719
0.30800563
0.30679569
0.022749146
0.013236084
0.0055073634
0.0011600002
0.0011584358
0.0054836646
0.013174134
0.022644856
0.3056085
0.30444911
0.022543845
0.013113766
0.00546045
0.0011568932
0.0011553778
0.0054378814
0.013054623
0.022444172
0.30331115
0.3021941
0.022348309
0.01299725
0.005415842
0.0011538774
0.0011524011
0.0053946706
0.012941807
0.022255289
0.3010812
0.29995791
0.0221699
0.012889803
0.0053745201
0.0011509441
0.0011495173
0.005356282
0.012843111
0.022094702
0.29877522
0.29745064
0.022035543
0.012803242
0.0053399183
0.001148078
0.0011462688
0.0053236521
0.012765356
0.021982986
0.29578954
0.29336237
0.021887519
0.012699395
0.0052951932
0.0011428638
0.0011346662
0.0052335253
0.012548698
0.021642606
0.28965214
0.28437353
0.021120831
0.012245252
0.0051127673
0.0011177421
0.0010905173
0.0049439473
0.011823434
0.020369775
0.27854397
0.31389829
0.018811507
0.011004639
0.0046466946
0.0010590678
0.0010836668
0.0047886747
0.011351432
0.019436253
0.31988284
0.32601242
0.019931753
0.011647471
0.004907208
0.0010984928
0.001105773
0.004963096
0.011780573
0.020142906
0.32990446
0.33244896
0.020228541
0.01183961
0.0049884719
0.0011088193
0.0011105422
0.0050040208
0.01187577
0.020278428
0.33421766
0.33566218
0.020336182
0.011913938
0.0050194192
0.001111907
0.0011132682
0.0050367212
0.011958038
0.020406299
0.33696149
0.33821021
0.020486452
0.012006682
0.0050554039
0.0011146315
0.0011160217
0.0050752346
0.012058378
0.020572026
0.33944567
0.34069476
0.020661353
0.012111785
0.0050955942
0.0011174169
0.0011188367
0.0051166413
0.012166718
0.020752765
0.34196298
0.34325842
0.020846696
0.012222869
0.0051380854
0.001120269
0.001121731
0.0051601561
0.012280365
0.020942351
0.34458018
0.34593362
0.021040468
0.012339095
0.0051826417
0.0011232135
0.0011247309
0.0052057502
0.012399163
0.021140332
0.3473168
0.34873342
0.021242726
0.012460539
0.0052293113
0.0011262751
0.0011278572
0.0052535052
0.012523282
0.021346972
0.35018142
0.35166448
0.021453784
0.012587389
0.005278176
0.0011294706
0.0011311267
0.0053035048
0.012652919
0.021562592
0.35318142
0.35473413
0.021673977
0.01271987
0.0053293467
0.0011328187
0.0011345583
0.0053558832
0.012788347
0.021787591
0.35632199
0.35794922
0.021903906
0.012858333
0.0053829769
0.0011363409
0.0011381817
0.0054108176
0.012930037
0.022022847
0.35961679
0.36133054
0.02214507
0.01300364
0.0054393812
0.0011400755
0.0011420258
0.0054687816
0.013079145
0.022270199
0.3630893
0.36489493
0.022398497
0.013156493
0.0054988946
0.0011440262
0.0011460846
0.005529821
0.013235709
0.022529713
0.36674672
0.36864774
0.02266434
0.013316925
0.005561488
0.0011481973
0.0011503524
0.0055941337
0.013400217
0.02280192
0.37059654
0.37258171
0.022941262
0.013484613
0.0056273116
0.0011525295
0.0011547626
0.0056606863
0.013569483
0.02308163
0.37460244
0.37668611
0.023226449
0.013656909
0.0056949668
0.0011570866
0.33594907
0.025742424
0.014993135
0.0061814734
0.0012071303
0.0012045762
0.0061435708
0.014896678
0.025581542
0.33407332
0.33225419
0.025425516
0.014803088
0.0061067768
0.0012021125
0.0011997141
0.0060705637
0.014710762
0.025271529
0.33047004
0.32873397
0.02512125
0.014620698
0.0060352931
0.0011973592
0.0011950607
0.0060008837
0.014532566
0.024973889
0.32704421
0.32539988
0.024830441
0.014446637
0.0059672845
0.0011928224
0.0011906456
0.0059345115
0.014362505
0.024689683
0.32379487
0.32222948
0.024552648
0.014280454
0.0059025094
0.0011885262
0.0011864656
0.0058712841
0.01420007
0.024418047
0.32069858
0.31920464
0.024287242
0.014121784
0.0058408238
0.0011844621
0.0011825167
0.0058110859
0.014045015
0.024158589
0.31774159
0.3163119
0.024033462
0.013970145
0.0057820179
0.0011806195
0.0011787711
0.0057536333
0.013896659
0.023910178
0.31491229
0.31354582
0.02379029
0.013824956
0.0057258529
0.0011769628
0.0011751986
0.0056987331
0.013754553
0.023672032
0.31220827
0.31090333
0.023557097
0.013685848
0.0056721673
0.0011734692
0.0011717804
0.0056462568
0.013618406
0.023443677
0.30962588
0.30838005
0.023333592
0.013552638
0.005620877
0.0011701228
0.0011685015
0.0055961333
0.013488064
0.023224847
0.30715921
0.30596775
0.02311943
0.013425118
0.0055718929
0.0011669063
0.0011653423
0.0055482693
0.013363292
0.023015172
0.30479807
0.30365378
0.02291439
0.01330311
0.0055251312
0.0011637968
0.0011622777
0.0055026684
0.013244212
0.022815088
0.30252302
0.30139997
0.022720882
0.013187619
0.0054808693
0.0011607726
0.0011593006
0.0054602109
0.013133809
0.022631455
0.30025516
0.29904374
0.022554061
0.01308536
0.0054411001
0.0011578484
0.0011564329
0.0054241711
0.013043224
0.022489622
0.2976565
0.29591636
0.022434698
0.01300351
0.0054069175
0.0011546847
0.001151722
0.0053788317
0.012936795
0.022336278
0.2933435
0.28946709
0.022093975
0.012785095
0.0053142326
0.0011438812
0.0011285064
0.0051568862
0.012380652
0.021420892
0.2824947
0.27752242
0.020716735
0.01201667
0.0050188709
0.0010941984
0.0010989234
0.0050003924
0.011993085
0.020705913
0.27709749
0.28288659
0.021458962
0.012406156
0.0051649681
0.0011285763
0.0011437212
0.0053138431
0.012782511
0.022087921
0.28952875
0.29344814
0.02233631
0.012936445
0.0053783807
0.0011514916
0.0011545971
0.0054074892
0.013004796
0.022436465
0.29600205
0.29773413
0.022494217
0.013045618
0.0054249708
0.0011564022
0.0011578622
0.0054422296
0.013088018
0.022558057
0.29910911
0.30031837
0.02263647
0.013136559
0.0054612023
0.0011593211
0.0011608062
0.0054819285
0.013190109
0.022724631
0.30145636
0.30257722
0.022819719
0.013246752
0.0055035841
0.0011623079
0.0011638338
0.0055260765
0.013305332
0.022917767
0.30370189
0.30484644
0.023019316
0.013365563
0.0055490833
0.0011653749
0.0011669457
0.0055727532
0.013427136
0.023122519
0.30601162
0.30720512
0.023228724
0.01349019
0.0055968977
0.0011685374
0.0011701654
0.0056216953
0.013554577
0.0233366
0.30842231
0.30966955
0.023447466
0.013620493
0.0056470088
0.0011718218
0.0011735186
0.0056729915
0.013687806
0.023560172
0.31094393
0.3122505
0.023675949
0.01375672
0.0056995223
0.0011752489
0.0011770229
0.0057267332
0.013827069
0.02379368
0.31358714
0.31495839
0.023914557
0.013899098
0.0057545333
0.0011788343
0.0011806913
0.0057830266
0.013972616
0.02403755
0.31636158
0.31779994
0.024163625
0.01404781
0.0058121194
0.0011825875
0.0011845308
0.0058418979
0.014124455
0.024291761
0.3192698
0.32077395
0.024423015
0.014202819
0.0058722989
0.001186519
0.0011885603
0.0059034528
0.014282823
0.024556673
0.32231102
0.32388363
0.024693634
0.014364703
0.0059353081
0.0011906521
0.0011928061
0.0059679788
0.014448388
0.024833339
0.32549112
0.32713989
0.024976847
0.014534259
0.0060014826
0.0011950239
0.0011973143
0.0060359104
0.014622278
0.025123786
0.32883379
0.33057593
0.02527475
0.014712649
0.00607124
0.0011996696
0.0012020827
0.0061075551
0.014805024
0.025428619
0.33235685
0.33417066
0.02558531
0.014898851
0.0061443555
0.0012045651
0.0012071411
0.0061823118
0.01499537
0.025746238
0.33603988
6.885048
6.881322
6.8850303
6.8812866
6.8295498
6.8541649
6.8638773
6.9020631
6.8964297
6.8541781
6.8015252
6.8597067
6.8964173
6.8791639
6.8251688
6.7912518
6.7606766
6.6405865
6.6775435
6.5502046
6.7364421
6.7023746
6.4937795
6.3326361
6.645984
6.7940074
6.8522861
6.7334557
6.7792016
6.8142401
6.8554188
6.7691983
6.7306707
6.6092045
6.66679
6.5388661
6.773498
6.7402021
6.6977228
6.6431374
6.6844496
6.3992304
6.2966199
6.2247966
6.6034244
6.5476562
6.5119701
6.5600053
6.2090482
6.2679801
6.1556723
6.0934882
6.0386068
6.0926385
6.4088222
6.4584964
6.4585228
6.6709043
6.8010412
6.8134478
6.7691866
6.7264547
0.27921752
0.020368041
0.0118246
0.0049447251
0.001095722
0.0011194383
0.0051062033
0.012227175
0.021088202
0.28439829
0.2894505
0.021610612
0.012528956
0.0052256708
0.0011352611
0.0011431287
0.0052890348
0.012683928
0.021862663
0.29312513
0.29560109
0.021966931
0.01275463
0.005319188
0.0011464065
0.0011481726
0.0053369335
0.012795749
0.022023786
0.29730147
0.29866929
0.022087006
0.012837708
0.0053540045
0.0011495719
0.0011509899
0.0053730038
0.012885904
0.022163763
0.29987466
0.30102211
0.022251464
0.012938942
0.0053934396
0.0011524286
0.0011539064
0.005415062
0.012995166
0.022344996
0.30214862
0.30328062
0.022442433
0.013053141
0.0054372173
0.0011553965
0.001156917
0.0054600956
0.013112745
0.022542199
0.30442599
0.3055941
0.022644383
0.013173509
0.0054833515
0.0011584529
0.0011600233
0.0055072772
0.013235739
0.022748562
0.30678399
0.30800183
0.022855118
0.013299173
0.0055316123
0.0011616169
0.0011632504
0.0055566422
0.013364135
0.022963803
0.30924363
0.31051486
0.023074981
0.013430397
0.0055821253
0.0011649127
0.0011666186
0.0056083097
0.013498204
0.02318836
0.3118134
0.31314321
0.023304408
0.013567447
0.0056350077
0.0011683596
0.0011701478
0.0056624412
0.013638329
0.023422861
0.31450207
0.31589375
0.023544104
0.013710736
0.0056904244
0.0011719745
0.0011738516
0.0057191497
0.013784785
0.023667779
0.31731666
0.31877397
0.023794408
0.013860471
0.0057484787
0.0011757725
0.0011777467
0.0057785682
0.01393785
0.023923574
0.32026436
0.32179116
0.024055799
0.014016951
0.0058093015
0.0011797689
0.001181848
0.0058408248
0.014097818
0.024190727
0.32335479
0.32495827
0.024328798
0.014180498
0.005873037
0.0011839791
0.0011861701
0.0059060776
0.014265049
0.024469783
0.32660242
0.32829084
0.024614069
0.014351523
0.005939862
0.0011884169
0.0011907267
0.005974505
0.014439929
0.024761347
0.33002385
0.33180297
0.02491226
0.014530482
0.0060099919
0.0011930984
0.0011955386
0.0060463727
0.01462303
0.025066285
0.3336282
0.3355011
0.025224032
0.014717783
0.0060836145
0.0011980464
0.0011954689
0.006045474
0.014620604
0.025061903
0.33358908
0.33177954
0.024909039
0.014528756
0.006009351
0.00119305
0.0011906932
0.0059739013
0.014438366
0.024758458
0.33001068
0.32827712
0.02461004
0.014349135
0.0059388822
0.0011883747
0.0011861055
0.0059047977
0.014261817
0.024464323
0.32658729
0.32494285
0.024322573
0.014176786
0.005871568
0.0011838974
0.0011817515
0.0058391684
0.014093602
0.024183614
0.32333838
0.32177258
0.024048369
0.014012507
0.0058075485
0.001179662
0.0011776342
0.0057767866
0.013933267
0.023915841
0.3202412
0.31874935
0.023787396
0.013856325
0.0057468745
0.0011756655
0.0011737547
0.0057177676
0.013781145
0.023661517
0.31729216
0.3158678
0.023538857
0.01370765
0.0056892338
0.001171889
0.0011700707
0.0056612967
0.013635365
0.023417818
0.31447089
0.31310721
0.023300021
0.013564811
0.0056339663
0.001168293
0.001166559
0.0056073036
0.013495581
0.0231839
0.31177187
0.31046792
0.023070971
0.013427989
0.0055811783
0.0011648595
0.0011631994
0.0055556775
0.013361609
0.022959494
0.30919354
0.3079486
0.022851105
0.013296773
0.0055306688
0.0011615691
0.001159975
0.0055062757
0.013233114
0.022744059
0.30672719
0.30553493
0.022640143
0.013170973
0.005482353
0.0011584064
0.0011568693
0.0054590165
0.013109911
0.022537333
0.30436162
0.30321547
0.022437916
0.013050429
0.0054361466
0.001155351
0.0011538602
0.0054138989
0.012992121
0.022339803
0.30207971
0.30095115
0.022246396
0.012935895
0.0053922393
0.0011523843
0.0011509455
0.0053716829
0.012882461
0.022157942
0.29979944
0.2985897
0.022081432
0.012834314
0.0053526551
0.0011495348
0.0011481428
0.0053354617
0.012791975
0.022017483
0.29721589
0.2955003
0.021961404
0.012751115
0.0053177376
0.0011464109
0.0011431812
0.0052876097
0.012680871
0.021858511
0.29298821
0.28916632
0.021608024
0.012525108
0.0052233696
0.0011354248
0.001119617
0.0051036213
0.012225419
0.021094056
0.28383204
0.27776298
0.020346108
0.011795988
0.0049299002
0.0010955427
0.0010593861
0.0046178405
0.011005773
0.019019302
0.26651633
0.27787966
0.021794635
0.012541624
0.0051751012
0.0011125636
0.0010986135
0.0050436907
0.012072407
0.02080389
0.27915846
0.28265614
0.021414063
0.012377607
0.0051564501
0.0011304899
0.0011444733
0.0053129633
0.012780584
0.022083572
0.28947842
0.29323903
0.022321448
0.012927283
0.0053750092
0.0011520244
0.0011548955
0.0054046928
0.012997786
0.022425328
0.29582249
0.29757268
0.022483288
0.013038674
0.0054222047
0.0011565848
0.0011579754
0.0054398882
0.013082221
0.022549034
0.29897221
0.30020043
0.022628582
0.013131501
0.0054591716
0.0011593941
0.0011608553
0.0054802239
0.013185879
0.022718055
0.3013564
0.30249266
0.022814059
0.013243115
0.0055021282
0.0011623418
0.0011638586
0.0055248782
0.013302356
0.022913172
0.30363211
0.30478848
0.023015265
0.013362962
0.0055480488
0.0011653919
0.0011669586
0.0055719134
0.013425058
0.023119329
0.30596156
0.30716043
0.023225863
0.013488351
0.0055961665
0.0011685457
0.0011701713
0.0056210972
0.013553096
0.02333433
0.30838301
0.3096359
0.023445388
0.013619153
0.005646476
0.001171824
0.0011735193
0.0056725525
0.013686737
0.023558557
0.31091282
0.31222018
0.023674394
0.013755718
0.0056991209
0.0011752468
0.0011770192
0.0057264106
0.013826291
0.023792514
0.31355589
0.31492312
0.023913374
0.013898331
0.0057542208
0.0011788272
0.0011806843
0.005782762
0.013971987
0.024036597
0.31631926
0.31774866
0.024162673
0.014047209
0.005811875
0.001182583
0.0011845347
0.0058417426
0.014124103
0.024291247
0.31921046
0.32070963
0.024422874
0.014202703
0.0058722393
0.0011865333
0.00118859
0.0059035155
0.014283045
0.024557146
0.32224353
0.32381644
0.024694635
0.014365218
0.005935488
0.0011906995
0.0011928696
0.0059682917
0.014449253
0.024834963
0.32542716
0.32707865
0.024978684
0.014535258
0.0060018491
0.001195097
0.0011973907
0.0060363118
0.014623305
0.025125567
0.32877086
0.33050757
0.025276268
0.014713617
0.0060716601
0.0011997483
0.0012021821
0.0061081202
0.014806387
0.02543066
0.33228825
0.33411538
0.025589782
0.014902366
0.0061460863
0.0012046963
0.0012072746
0.0061867502
0.015001731
0.025751453
0.33598848
0.0011954631
0.0060451089
0.014619858
0.025060897
0.33359314
0.33177076
0.024906292
0.014526987
0.0060086267
0.0011930179
0.0011906402
0.0059730696
0.014436198
0.024754906
0.3299958
0.32827104
0.024607974
0.014348035
0.0059385375
0.0011883324
0.0011860921
0.005904881
0.014261867
0.024464149
0.32659048
0.32495238
0.024324097
0.014177837
0.0058720266
0.001183915
0.0011817992
0.0058399729
0.014095545
0.02418665
0.32335231
0.32179119
0.02405277
0.014015268
0.0058086671
0.001179738
0.0011777348
0.00577804
0.013936484
0.023921123
0.32026272
0.31875992
0.023791268
0.013858512
0.0057476522
0.0011757609
0.0011738222
0.0057180728
0.013782087
0.023663415
0.3172896
0.3158572
0.023539003
0.013707583
0.0056891788
0.0011719218
0.0011700869
0.0056613251
0.01363539
0.023417924
0.31446429
0.31310348
0.023300264
0.013564935
0.0056340185
0.0011683049
0.0011665686
0.0056073593
0.013495748
0.023184233
0.31177139
0.31046933
0.023071304
0.013428167
0.0055812406
0.0011648687
0.00116321
0.0055557379
0.013361779
0.022959794
0.30919296
0.30794604
0.022851229
0.013296855
0.005530701
0.0011615806
0.0011599876
0.0055062738
0.013233107
0.02274405
0.30672202
0.30552674
0.022639862
0.013170813
0.0054822913
0.0011584193
0.0011568828
0.0054589134
0.013109656
0.022536929
0.30435102
0.3032012
0.022437202
0.013049997
0.0054359743
0.0011553656
0.0011538772
0.0054136783
0.012991585
0.022338955
0.30206174
0.30093006
0.022245332
0.012935229
0.0053919642
0.0011524053
0.0011509723
0.0053713715
0.012881707
0.022156749
0.29977356
0.2985622
0.022080082
0.012833459
0.0053523
0.0011495694
0.0011481874
0.0053350968
0.012791077
0.022016036
0.29718655
0.29547354
0.021959581
0.012749982
0.0053172643
0.0011464632
0.0011432481
0.0052872858
0.012680039
0.021857094
0.29298152
0.2892069
0.021608603
0.012525581
0.0052236056
0.0011355268
0.0011198152
0.0051052239
0.012229383
0.021100539
0.28397607
0.27801472
0.020360357
0.011803588
0.0049329037
0.0010959618
0.0010605018
0.0046446093
0.011073975
0.01912887
0.2676342
0.29628298
0.017143072
0.0099167259
0.0041925526
0.0010356501
0.0010920361
0.0048954712
0.01172377
0.020201224
0.27295909
0.27658011
0.020304194
0.011791055
0.0049230521
0.0010886811
0.0010945195
0.004939914
0.011813066
0.020351204
0.27902187
0.28438007
0.021090406
0.012228418
0.005106882
0.0011191077
0.0011350164
0.0052254654
0.012528737
0.021610327
0.28946406
0.29319346
0.021865698
0.012685671
0.0052897357