/*--------------------------------*- C++ -*----------------------------------*\
  =========                 |
  \\      /  F ield         | OpenFOAM: The Open Source CFD Toolbox
   \\    /   O peration     | Website:  https://openfoam.org
    \\  /    A nd           | Version:  7
     \\/     M anipulation  |
\*---------------------------------------------------------------------------*/
FoamFile
{
    version     2.0;
    format      ascii;
    class       volScalarField;
    location    "340";
    object      omega;
}
// * * * * * * * * * * * * * * * * * * * * * * * * * * * * * * * * * * * * * //

dimensions      [0 0 -1 0 0 0 0];

internalField   nonuniform List<scalar> 
25201
(
162.87582
163.08433
162.87583
163.08443
163.44343
161.77101
161.46601
165.84646
165.98935
167.11745
165.98938
161.77105
162.58911
172.0665
174.6646
161.89628
163.73083
165.39781
165.77513
171.39394
167.35084
168.47999
166.88497
169.63904
168.68833
172.46462
170.30096
165.38485
166.60622
171.31563
170.27016
168.86613
177.99083
176.23429
174.00137
174.65215
170.07165
171.51382
176.80887
178.57994
172.61391
173.22549
171.92252
178.93033
179.48904
179.56913
173.93548
167.67193
163.5421
162.58889
166.71115
167.55471
169.5331
168.24663
166.90808
165.33176
163.33551
165.01977
166.79415
171.63195
169.39498
166.60592
168.34237
169.6271
171.57124
168.99155
170.26596
174.6696
173.12819
177.00381
175.55581
172.82966
166.56047
168.18384
169.23936
178.26385
175.51654
173.9498
172.17783
170.87751
169.14848
167.64063
170.12343
171.14182
172.81313
170.59442
172.40949
172.05724
174.67576
173.25494
175.64616
177.53813
177.0778
176.36769
176.1274
174.34876
173.82829
175.60229
178.92159
176.62732
177.0903
179.21059
179.38935
177.26807
177.72122
179.43773
183.40038
180.83029
178.84199
177.94968
179.78779
180.162
182.94082
182.69766
187.01688
183.56449
183.99672
187.23308
187.41187
183.17084
180.40285
184.08787
184.52148
187.62204
192.5459
188.39733
184.97016
178.85118
173.26419
176.82275
178.59531
179.50652
179.57711
178.75698
176.96142
175.02024
172.41319
170.12816
166.6073
163.33626
165.33196
168.34285
171.63343
169.3968
165.02147
166.79498
168.24751
166.9084
166.71138
168.99184
171.57169
169.62791
173.12927
174.67159
170.26713
171.50194
167.55536
163.54285
166.56276
168.18496
175.55811
172.83331
170.59638
169.15377
167.64472
170.88412
172.1853
173.95381
177.20374
175.59434
172.81569
171.14362
174.27935
171.32362
172.71273
174.77368
174.27928
173.52317
178.93917
179.61598
184.91385
182.40154
181.21691
183.83968
184.56443
187.63456
185.06166
184.5577
187.72689
192.65925
188.43244
185.20055
178.94371
173.52683
177.54279
175.65689
174.69462
187.4369
184.10828
180.42087
177.28614
177.72999
179.44742
177.08809
176.38704
179.41187
183.19119
183.41219
180.84023
184.52998
187.63341
192.55521
188.40454
188.0616
187.98709
184.33243
163.06775
162.82609
159.27043
165.3692
166.60107
171.91854
176.21994
170.25749
171.30797
172.60422
173.22336
179.48616
178.93004
177.98397
178.57175
176.79483
171.5007
170.05206
168.84887
173.98273
174.63372
172.03136
168.45635
163.70581
94542.957
30033.778
16655.796
12065.139
1961.7442
1936.2112
11844.169
16371.141
29558.48
93501.951
92684.045
29129.826
16145.853
11688.445
1907.7086
1895.148
11638.987
16065.839
28973.071
92430.513
92390.982
28929.954
16051.677
11638.2
1890.6147
1890.8735
11654.741
16064.21
28937.585
92457.534
92554.129
28960.374
16084.889
11675.832
1893.429
1897.1544
11696.667
16107.342
28987.977
92663.916
92779.577
29017.135
16130.805
11717.889
1901.5153
1906.2008
11738.77
16154.586
29047.374
92897.567
93018.155
29078.274
16179.204
11760.484
1911.1174
1916.1682
11782.23
16204.186
29110.005
93139.821
93264.11
29142.461
16230.059
11804.938
1921.3609
1926.6562
11827.799
16256.368
29175.836
93389.886
93518.685
29210.06
16283.617
11851.637
1932.0802
1937.6042
11875.694
16311.355
29245.284
93649.547
93783.783
29281.491
16340.067
11900.719
1943.2523
1948.9988
11926.033
16369.327
29318.78
93920.462
94060.761
29357.131
16399.59
11952.306
1954.8679
1960.8408
11978.934
16430.46
29396.662
94203.932
94351.232
29437.377
16462.385
12006.535
1966.9384
1973.1423
12034.592
16495.029
29479.437
94502.029
94657.216
29522.867
16528.827
12063.675
1979.4717
1985.9085
12093.312
16563.471
29567.87
94816.348
94980.338
29614.313
16599.296
12123.979
1992.4812
1999.1938
12155.292
16636.058
29662.421
95148.487
95321.466
29712.168
16674.098
12187.684
2006.0617
2013.0662
12220.747
16713.106
29763.648
95498.878
95681.405
29816.715
16753.335
12254.83
2020.2054
2027.4587
12289.603
16794.486
29871.261
95868.483
96059.995
29927.372
16836.987
12325.539
2034.844
2042.4185
12362.671
16881.221
29986.697
96256.566
1851.8728
12565.515
16949.069
29936.637
95616.618
95432.413
29881.627
16906.25
12528.526
1844.9715
1838.2685
12493.07
16865.739
29830.946
95252.439
95074.442
29782.49
16827.185
12459.281
1831.7619
1825.3608
12426.06
16789.216
29734.517
94900.08
94730.569
29687.684
16752.211
12393.737
1819.0629
1812.8624
12361.969
16716.045
29642.446
94565.367
94404.698
29598.705
16681.087
12331.256
1806.7738
1800.7798
12301.066
16646.92
29556.381
94248.293
94096.966
29515.251
16613.777
12271.822
1794.8838
1789.0897
12243.057
16581.414
29475.629
93950.229
93807.723
29437.599
16550.339
12215.435
1783.4239
1777.8669
12188.306
16520.058
29400.983
93668.508
93532.913
29365.427
16490.807
12162.194
1772.4217
1767.0666
12136.385
16462.118
29330.96
93400.132
93270.581
29297.413
16434.386
12111.561
1761.824
1756.6736
12086.99
16407.193
29264.949
93143.64
93019.628
29233.333
16380.941
12063.421
1751.6364
1746.6879
12040.031
16355.163
29202.718
92897.752
92778.406
29172.794
16330.281
12017.643
1741.8535
1737.1134
11995.357
16305.818
29143.811
92660.628
92545.068
29115.42
16282.222
11974.08
1732.5012
1728.0116
11952.81
16259.011
29087.922
92430.722
92318.686
29061.027
16236.67
11932.481
1723.716
1719.6904
11911.929
16214.82
29035.471
92209.436
92106.544
29011.689
16194.278
11892.148
1716.1704
1713.5701
11872.897
16176.542
28994.275
92018.5
91966.781
28993.443
16168.027
11859.229
1712.7996
1715.8307
11864.168
16188.216
29046.521
92021.792
92324.279
29214.981
16273.129
11916.49
1725.5189
1744.1833
12049.427
16464.228
29571.064
93097.438
94627.224
30094.431
16730.326
12244.807
1767.8459
1862.2665
12953.813
17810.303
32108.503
96065.851
94546.386
30073.157
16716.023
12236.613
1766.6304
1742.2834
12044.977
16456.141
29550.925
93039.889
92297.611
29200.414
16266.655
11912.528
1723.9506
1714.6369
11861.325
16183.595
29035.681
92004.82
91957.32
28985.492
16164.45
11856.92
1711.7897
1712.7152
11871.102
16173.746
28988.056
92012.472
92103.343
29006.938
16192.091
11890.709
1715.4461
1719.0883
11910.84
16213.132
29031.749
92207.791
92318.382
29058.151
16235.34
11931.592
1723.2073
1727.5813
11952.16
16258.005
29085.661
92431.216
92546.336
29113.716
16281.457
11973.565
1732.1382
1736.8088
11995.015
16305.268
29142.475
92662.307
92780.636
29171.857
16329.906
12017.399
1741.5971
1746.4759
12039.936
16354.962
29202.038
92900.311
93022.816
29232.974
16380.888
12063.416
1751.4626
1756.5379
12087.118
16407.292
29264.825
93147.247
93274.926
29297.556
16434.619
12111.768
1761.7197
1766.9922
12136.713
16462.49
29331.319
93405.008
93538.623
29366.092
16491.336
12162.617
1772.3722
1777.8469
12188.891
16520.796
29401.991
93675.089
93815.37
29439.032
16551.302
12216.153
1783.4312
1789.1149
12243.889
16582.531
29477.342
93958.831
94106.443
29517.099
16614.939
12272.67
1794.911
1800.8039
12301.969
16648.138
29558.319
94258.011
94414.343
29600.803
16682.394
12332.219
1806.7953
1812.8798
12363.002
16717.407
29644.583
94574.598
94739.298
29689.865
16753.615
12394.807
1819.0747
1825.3715
12427.193
16790.658
29736.691
94908.229
95082.324
29784.703
16828.668
12460.445
1831.7768
1838.2948
12494.251
16867.221
29833.123
95260.213
95440.091
29883.602
16907.619
12529.62
1844.9958
1851.8906
12566.482
16950.252
29938.202
95624.3
95816.092
29994.959
16994.142
12604.313
1858.8694
96353.719
30021.458
16923.99
12418.441
2037.8956
2030.1569
12380.249
16878.637
29960.947
96152.514
95957.312
29903.372
16835.112
12343.43
2022.5892
2015.1717
12307.511
16792.828
29847.889
95767.937
95582.522
29794.99
16752.417
12273.095
2007.9602
2000.872
12239.396
16712.907
29743.307
95401.105
95225.057
29692.988
16674.502
12206.676
1993.911
1987.0687
12174.569
16637.022
29644.389
95053.797
94887.389
29597.367
16600.777
12143.528
1980.3664
1973.7768
12113.035
16565.366
29551.842
94725.384
94567.965
29507.721
16531.104
12083.566
1967.3187
1960.9692
12054.568
16497.604
29465.036
94414.586
94265.317
29423.715
16465.25
12026.615
1954.7547
1948.6479
11999.089
16433.615
29383.733
94119.337
93977.04
29344.873
16403.028
11972.574
1942.6705
1936.7915
11946.382
16373.049
29307.206
93837.786
93701.975
29270.552
16344.068
11921.187
1931.0377
1925.3765
11896.238
16315.625
29235.011
93568.904
93439.006
29200.372
16288.141
11872.286
1919.8404
1914.394
11848.503
16261.13
29166.745
93311.369
93186.536
29133.883
16235.035
11825.725
1909.0747
1903.8472
11803.04
16209.348
29101.925
93063.401
92942.58
29070.589
16184.53
11781.349
1898.7598
1893.7911
11759.612
16160.03
29040.037
92823.041
92705.662
29009.964
16136.308
11738.717
1889.0386
1884.5796
11717.373
16112.835
28980.891
92590.673
92481.234
28953.088
16090.28
11696.395
1880.7168
1877.9424
11675.283
16069.839
28930.69
92384.851
92322.344
28924.78
16058.33
11659.294
1877.382
1881.4796
11663.168
16077.197
28974.992
92364.354
92663.279
29144.693
16164.27
11717.765
1893.2164
1914.4019
11860.313
16365.299
29512.609
93482.174
95103.304
30065.158
16650.213
12073.366
1939.5649
1957.8044
12070.001
16651.569
29963.826
94102.746
93423.216
29587.626
16386.292
11853.259
1937.8495
1907.1194
11684.578
16139.738
29115.285
92634.068
92414.985
28968.284
16063.833
11637.897
1894.9665
1890.331
11636.804
16049.697
28925.8
92383.022
92456.258
28935.232
16063.395
11654.48
1890.6676
1893.2294
11675.27
16084.144
28958.831
92554.248
92666.097
28986.816
16107.086
11696.761
1897.0005
1901.3756
11717.583
16130.426
29016.357
92781.52
92900.688
29046.739
16154.58
11739.018
1906.1135
1911.0399
11760.345
16179.041
29077.91
93020.749
93143.249
29109.749
16204.364
11782.589
1916.126
1921.3244
11804.948
16230.091
29142.434
93267.043
93393.652
29175.891
16256.717
11828.265
1926.6498
1932.0792
11851.786
16283.824
29210.322
93522.029
93653.737
29245.661
16311.883
11876.274
1937.6328
1943.2867
11901.025
16340.471
29282.068
93787.774
93925.426
29319.482
16370.04
11926.731
1949.0627
1954.9398
11952.757
16400.186
29358.044
94065.785
94209.868
29397.686
16431.341
11979.73
1960.9374
1967.0448
12007.086
16463.131
29438.556
94357.003
94508.066
29480.614
16495.971
12035.397
1973.2805
1979.6305
12064.154
16529.504
29523.951
94662.445
94821.044
29568.621
16564.157
12093.901
1986.1148
1992.7235
12124.216
16599.652
29614.802
94983.455
95150.545
29662.534
16636.382
12155.584
1999.4657
2006.3252
12187.616
16674.055
29711.919
95322.096
95499.017
29763.044
16713.058
12220.76
2013.3089
2020.402
12254.691
16753.16
29816.062
95680.944
95868.435
29870.951
16794.68
12289.793
2027.6142
2034.9611
12325.737
16837.352
29927.841
96061.332
96260.391
29986.385
16881.327
12362.789
2042.4602
2050.1344
12400.932
16926.777
30047.451
96464.888
96352.835
30021.118
16923.73
12418.236
2037.8482
2030.0973
12380.071
16878.408
29960.646
96151.998
95957.208
29903.17
16834.938
12343.295
2022.5219
2015.1071
12307.443
16792.754
29847.882
95768.178
95582.927
29795.104
16752.418
12273.082
2007.9002
2000.8251
12239.423
16712.965
29743.523
95401.538
95225.382
29693.287
16674.608
12206.738
1993.8826
1987.0577
12174.638
16637.132
29644.679
95053.937
94887.268
29597.625
16600.874
12143.588
1980.3676
1973.7865
12113.069
16565.428
29552.037
94724.924
94567.239
29507.809
16531.114
12083.565
1967.3319
1960.9823
12054.53
16497.565
29465.041
94413.631
94264.256
29423.652
16465.173
12026.548
1954.7645
1948.6544
11999.003
16433.516
29383.638
94118.25
93976.029
29344.769
16402.92
11972.479
1942.6756
1936.7953
11946.292
16372.95
29307.114
93836.869
93701.197
29270.482
16343.979
11921.103
1931.04
1925.38
11896.169
16315.562
29234.992
93568.217
93438.439
29200.36
16288.092
11872.229
1919.8482
1914.4063
11848.471
16261.111
29166.783
93310.928
93186.216
29133.969
16235.047
11825.715
1909.0904
1903.8707
11803.055
16209.391
29102.068
93063.198
92942.492
29070.775
16184.598
11781.382
1898.7878
1893.8226
11759.66
16160.12
29040.258
92822.978
92705.664
29010.228
16136.417
11738.777
1889.0706
1884.6126
11717.439
16112.951
28981.174
92590.706
92481.46
28953.355
16090.393
11696.463
1880.7439
1877.9609
11675.37
16069.985
28931.051
92385.447
92323.835
28924.891
16058.396
11659.367
1877.3801
1881.4347
11663.3
16077.367
28975.545
92368.187
92667.598
29146.299
16165.214
11718.508
1893.1625
1914.2246
11861.278
16366.818
29518.249
93498.982
95077.572
30070
16655.693
12078.01
1939.1938
1764.1638
12247.464
16720.282
30027.325
94372.698
93043.025
29584.073
16471.349
12054.21
1743.5468
1723.7702
11910.975
16264.556
29195.35
92270.139
91995.501
29033.077
16182.072
11860.379
1714.523
1711.7696
11856.104
16163.599
28984.362
91950.805
92011.214
28988.067
16173.753
11871.241
1712.791
1715.5475
11890.539
16192.161
29007.554
92102.405
92208.047
29032.318
16213.471
11911.191
1719.203
1723.3039
11931.469
16235.45
29058.781
92317.78
92431.149
29086.084
16258.288
11952.462
1727.6819
1732.212
11973.39
16281.461
29114.118
92545.348
92661.72
29142.7
16305.435
11995.214
1736.8751
1741.6373
12017.154
16329.794
29172.034
92779.183
92899.224
29202.055
16355.001
12040.023
1746.5092
1751.4723
12063.093
16380.66
29232.95
93020.952
93145.655
29264.667
16407.216
12087.101
1756.5407
1761.7017
12111.378
16434.287
29297.363
93272.553
93402.854
29331.003
16462.309
12136.604
1766.9693
1772.3331
12162.175
16490.919
29365.762
93535.764
93672.303
29401.545
16520.527
12188.707
1777.8065
1783.3814
12215.662
16550.799
29438.543
93811.804
93955.069
29476.715
16582.152
12243.62
1789.071
1794.8612
12272.082
16614.282
29516.304
94101.61
94252.444
29557.24
16647.506
12301.51
1800.7559
1806.7354
12331.383
16681.387
29599.352
94407.193
94566.472
29642.706
16716.333
12362.208
1812.8141
1818.9908
12393.621
16752.127
29687.557
94729.808
94898.229
29733.961
16789.087
12426.025
1825.2772
1831.667
12458.993
16826.803
29781.736
95071.764
95249.916
29830.132
16865.482
12492.956
1838.1807
1844.8829
12528.233
16905.842
29880.84
95430.368
95615.892
29935.637
16948.701
12565.31
1851.7867
1858.7829
12603.207
16992.717
29992.785
95809.169
2050.1071
12400.24
16925.917
30046.412
96459.641
96255.096
29985.529
16880.637
12362.271
2042.4389
2034.8739
12325.01
16836.311
29926.333
96057.367
95865.389
29870.139
16793.927
12289.23
2027.5065
2020.2656
12254.329
16752.689
29815.686
95678.17
95496.345
29762.838
16712.747
12220.549
2013.1515
2006.1483
12187.446
16673.791
29711.748
95319.742
95148.319
29662.356
16636.129
12155.443
1999.2818
1992.5373
12124.065
16599.412
29614.657
94981.304
94818.698
29568.46
16563.91
12093.751
1985.9368
1979.4527
12063.915
16529.162
29523.626
94660.023
94505.362
29480.151
16495.549
12035.099
1973.1136
1966.8926
12006.719
16462.658
29438.032
94354.135
94206.688
29397.107
16430.845
11979.351
1960.8083
1954.8274
11952.345
16399.683
29357.46
94062.528
93922.041
29318.882
16369.546
11926.345
1948.9736
1943.2141
11900.633
16340.003
29281.536
93784.523
93650.407
29245.141
16311.449
11875.933
1937.5801
1932.0364
11851.445
16283.416
29209.869
93518.835
93390.365
29175.456
16256.345
11827.978
1926.6222
1921.2982
11804.649
16229.729
29142.051
93263.921
93140.084
29109.384
16204.045
11782.349
1916.1106
1911.0228
11760.09
16178.737
29077.613
93017.694
92897.502
29046.429
16154.299
11738.816
1906.1061
1901.3747
11717.372
16130.161
29016.1
92778.579
92663.135
28986.525
16106.834
11696.599
1897.0099
1893.2322
11675.072
16083.887
28958.578
92551.667
92454.005
28934.704
16063.042
11654.269
1890.6735
1890.335
11636.584
16049.437
28925.591
92381.792
92415.128
28966.785
16063.017
11637.359
1894.905
1907.1658
11685.474
16141.646
29119.934
92639.433
93444.116
29583.933
16385.436
11853.171
1937.5721
1959.4593
12079.789
16666.177
29994.877
94250.712
94445.76
29995.583
16641.097
12057.025
1960.4067
1935.4713
11843.368
16368.785
29548.717
93455.688
92663.158
29123.391
16144.107
11687.874
1907.0468
1894.5808
11638.375
16064.486
28968.959
92420.471
92385.887
28925.87
16050.05
11637.304
1890.1021
1890.4694
11654.029
16062.932
28934.483
92455.452
92553.781
28957.771
16083.791
11675.216
1893.0954
1896.8827
11696.235
16106.532
28986.014
92664.798
92781.107
29015.599
16130.19
11717.578
1901.2982
1906.0372
11738.594
16154.158
29046.204
92899.7
93020.582
29077.413
16178.92
11760.396
1910.9918
1916.0732
11782.251
16204.047
29109.417
93142.603
93266.997
29142.088
16230.041
11805.035
1921.2938
1926.6117
11827.998
16256.485
29175.701
93393.143
93522.197
29210.144
16283.854
11851.914
1932.0573
1937.6002
11876.075
16311.728
29245.591
93653.455
93788.097
29282.009
16340.567
11901.186
1943.2629
1949.022
11926.611
16369.98
29319.553
93925.426
94066.4
29358.18
16400.397
11952.986
1954.8972
1960.8676
11979.743
16431.453
29398.03
94210.514
94358.6
29439.076
16463.565
12007.468
1966.9555
1973.1481
12035.655
16496.394
29481.447
94510.109
94665.804
29525.17
16530.359
12064.852
1979.4708
1985.9153
12094.603
16565.154
29570.411
94825.438
94989.758
29617.04
16601.083
12125.351
1992.4989
1999.2153
12156.718
16637.906
29665.245
95158.232
95331.358
29715.028
16675.958
12189.121
2006.0786
2013.0655
12222.14
16714.898
29766.4
95508.896
95691.349
29819.228
16754.97
12256.105
2020.1689
2027.3845
12290.716
16795.887
29873.386
95878
96069.035
29929.15
16838.225
12326.553
2034.7765
2042.3842
12363.641
16882.416
29988.322
96265.158
96468.139
30048.991
16927.655
12401.606
2050.0934
171.2788
171.391
171.27875
171.3908
170.45181
169.87155
169.69374
174.55055
174.5775
169.87156
171.02312
175.21832
174.57748
175.07998
174.73729
172.87823
170.66075
173.03309
175.04152
177.74733
173.9589
171.8256
176.17412
179.76516
172.95131
171.09494
175.59495
176.65239
175.70593
177.92463
177.07734
178.74242
176.64769
179.31965
180.9821
183.90767
178.79104
179.50436
177.40559
175.87456
175.02023
181.13604
183.54075
182.27939
173.81816
172.4685
170.49525
169.53499
177.00724
178.41793
181.02466
179.67873
178.26902
175.52086
167.67558
169.24187
169.23526
163.53181
163.067
162.82495
161.72291
162.5612
1933.6335
12052.807
16617.385
30009.169
95041.645
93497.627
29513.97
16364.643
11861.222
1913.5516
1894.0154
11722.71
16171.213
29159.009
92681.244
92380.792
28988.395
16084.213
11668.225
1882.6091
1878.368
11662.517
16063.418
28934.868
92332.081
92392.082
28938.297
16074.027
11678.26
1878.7929
1881.3937
11698.22
16093.294
28958.96
92485.499
92594.348
28985.395
16115.501
11719.347
1885.1723
1889.5197
11739.873
16138.247
29013.658
92707.8
92825.309
29042.931
16161.872
11761.036
1894.2174
1899.1144
11782.115
16185.845
29073.053
92943.897
93065.047
29103.877
16210.685
11804.117
1904.1758
1909.3511
11826.248
16235.95
29135.575
93187.439
93312.715
29168.108
16262.14
11849.351
1914.6613
1920.0729
11872.661
16288.809
29201.607
93439.817
93570.201
29236.025
16316.431
11896.939
1925.6137
1931.2581
11921.486
16344.587
29271.505
93702.886
93839.168
29308.02
16373.733
11946.992
1937.0251
1942.8967
11972.835
16403.476
29345.687
93978.162
94121.071
29384.466
16434.237
11999.637
1948.8947
1955.001
12026.835
16465.65
29424.491
94267.044
94417.041
29465.724
16498.126
12054.999
1961.232
1967.5784
12083.64
16531.338
29508.302
94570.444
94728.184
29552.225
16565.673
12113.274
1974.0543
1980.6507
12143.475
16600.844
29597.645
94889.727
95055.884
29644.549
16637.215
12174.707
1987.3772
1994.2244
12206.593
16674.512
29693.086
95226.275
95401.666
29743.24
16713.076
12239.549
2001.2009
2008.2972
12273.24
16752.65
29795.119
95581.659
95766.956
29848.753
16793.57
12308.054
2015.5247
2022.8869
12343.706
16835.613
29904.252
95957.405
96153.486
29961.728
16879.128
12380.558
2030.3979
2038.0634
12418.449
16924.03
30021.556
96354.966
96148.621
29960.192
16878.018
12379.736
2030.2043
2022.6229
12342.666
16834.219
29902.295
95954.446
95765.448
29846.924
16792.135
12306.96
2015.2109
2007.9926
12272.508
16751.809
29794.428
95579.893
95398.629
29742.982
16712.631
12239.158
2000.9127
1993.943
12206.369
16674.233
29692.889
95222.364
95051.23
29644.422
16637.042
12174.61
1987.1077
1980.3947
12143.44
16600.754
29597.594
94884.538
94722.568
29552.095
16565.575
12113.263
1973.8201
1967.3516
12083.488
16531.054
29507.852
94564.993
94411.863
29464.908
16497.595
12054.671
1961.0051
1954.7826
12026.387
16465.03
29423.628
94262.221
94116.355
29383.782
16433.688
11999.218
1948.708
1942.7388
11972.41
16402.974
29345.122
93973.83
93834.977
29307.508
16373.278
11946.61
1936.9011
1931.1652
11921.114
16344.178
29271.1
93698.997
93566.368
29235.664
16316.071
11896.628
1925.5533
1920.0315
11872.355
16288.48
29201.325
93436.178
93309.041
29167.864
16261.854
11849.107
1914.6399
1909.3419
11825.999
16235.688
29135.408
93183.905
93061.335
29103.741
16210.465
11803.93
1904.1886
1899.1395
11781.926
16185.653
29072.998
92940.325
92821.588
29042.949
16161.754
11760.931
1894.2655
1889.5742
11739.775
16138.184
29013.816
92704.252
92590.793
28985.677
16115.536
11719.355
1885.2495
1881.4903
11698.255
16093.411
28959.451
92482.643
92390.129
28938.967
16074.25
11678.391
1878.921
1878.561
11662.592
16063.702
28935.879
92333.311
92386.752
28989.934
16084.542
11668.12
1882.9698
1895.1083
11723.342
16173.837
29166.171
92701.659
93551.747
29529.59
16370.257
11862.303
1916.158
1941.0981
12073.073
16657.725
30083.465
95188.705
97164.602
31194.693
17254.719
12495.891
1999.1125
1943.4987
11762.523
16355.428
29838.598
98008.724
94009.727
29890.576
16614.034
12043.806
1949.33
1936.2158
11847.04
16377.055
29575.966
93434.142
92652.142
29119.009
16140.918
11685.792
1906.9533
1895.4393
11639.979
16067.278
28976.67
92433.8
92397.991
28932.252
16052.732
11638.971
1890.8953
1891.2251
11655.874
16065.849
28940.946
92466.014
92561.767
28963.204
16086.373
11676.902
1893.7622
1897.4727
11697.7
16108.745
28990.545
92670.519
92785.142
29019.336
16132.061
11718.833
1901.805
1906.4739
11739.659
16155.736
29049.292
92902.431
93022.492
29079.955
16180.247
11761.305
1911.3671
1916.4037
11783.023
16205.175
29111.542
93143.845
93267.978
29143.886
16231.015
11805.721
1921.5904
1926.8833
11828.584
16257.314
29177.202
93393.754
93522.65
29211.413
16284.567
11852.43
1932.3051
1937.8242
11876.515
16312.341
29246.673
93653.744
93788.353
29282.955
16341.104
11901.58
1943.475
1949.2289
11926.939
16370.434
29320.355
93925.564
94066.624
29358.852
16400.78
11953.271
1955.1072
1961.0939
11979.966
16431.763
29398.589
94210.635
94358.625
29439.521
16463.803
12007.642
1967.2112
1973.4383
12035.743
16496.53
29481.741
94509.806
94665.146
29525.237
16530.351
12064.825
1979.7911
1986.2485
12094.399
16564.922
29570.12
94824.029
94987.209
29616.398
16600.641
12124.976
1992.8342
1999.5355
12156.133
16637.203
29664.166
95154.388
95326.472
29713.477
16674.983
12188.331
2006.3702
2013.3295
12221.208
16713.726
29764.489
95503.104
95685.185
29817.2
16753.762
12255.164
2020.4267
2027.6525
12289.828
16794.786
29871.683
95872.707
96066.595
29927.698
16836.941
12325.466
2035.0221
2042.5339
12361.66
16879.494
29983.945
96267.008
96472.698
30034.756
16921.689
12398.964
2050.2073
96149.236
29961.508
16878.764
12380.257
2030.2471
2022.7287
12343.505
16835.332
29903.971
95953.274
95762.516
29848.268
16793.213
12307.851
2015.3424
2008.0683
12272.89
16752.063
29794.23
95577.229
95397.345
29742.094
16712.303
12239.068
2000.9339
1993.9287
12205.981
16673.61
29691.808
95222.347
95052.256
29643.224
16636.244
12174.025
1987.0699
1980.3332
12142.676
16599.776
29596.209
94886.618
94725.982
29550.838
16564.568
12112.419
1973.7462
1967.338
12083.078
16530.765
29507.968
94568.019
94413.198
29465.862
16497.957
12054.76
1961.0657
1954.8889
12026.791
16465.713
29424.77
94261.64
94115.416
29383.991
16433.983
11999.456
1948.7887
1942.7982
11972.507
16403.051
29345.037
93973.302
93834.848
29307.485
16373.317
11946.66
1936.9471
1931.2056
11921.17
16344.243
29271.179
93699.253
93566.952
29235.857
16316.177
11896.708
1925.5953
1920.0793
11872.466
16288.633
29201.616
93436.968
93309.936
29168.231
16262.045
11849.24
1914.6937
1909.4051
11826.157
16235.917
29135.867
93184.826
93062.407
29104.263
16210.723
11804.104
1904.2606
1899.2232
11782.123
16185.951
29073.631
92941.511
92823.002
29043.688
16162.088
11761.146
1894.3619
1889.6864
11740.017
16138.568
29014.703
92705.958
92592.964
28986.683
16115.959
11719.618
1885.3811
1881.6367
11698.559
16093.906
28960.66
92485.512
92394.025
28940.268
16074.757
11678.701
1879.0683
1878.6897
11662.964
16064.327
28937.567
92338.543
92394.163
28991.124
16084.838
11668.292
1882.9811
1894.8437
11722.85
16173.127
29165.773
92711.266
93559.241
29524.836
16366.884
11859.896
1915.3191
1939.7419
12068.006
16651.119
30072.48
95169.19
97124.428
31107.525
17202.463
12459.471
1992.0641
1839.2675
12779.486
17550.813
31694.201
96128.72
97473.689
30309.777
16721.551
12130.494
1970.6022
1950.0933
12117.32
16707.05
30312.748
97762.19
94991.307
30030.867
16633.496
12064.039
1935.5006
1913.7634
11861.432
16365.186
29515.211
93501.594
92676.204
29159.794
16172.522
11723.869
1894.0221
1882.279
11667.369
16082.98
28985.458
92375.904
92327.683
28932.813
16062.87
11662.439
1878.1199
1878.5807
11677.634
16073.236
28936.587
92387.746
92482.887
28957.602
16092.92
11698.191
1881.2555
1885.046
11718.858
16114.955
28984.395
92591.599
92706.374
29012.766
16138.018
11739.893
1889.4281
1894.1251
11760.633
16161.457
29042.278
92823.54
92943.184
29072.43
16185.714
11782.177
1899.0468
1904.1064
11803.787
16210.363
29103.434
93063.912
93187.162
29135.169
16235.899
11826.344
1909.3066
1914.612
11849.075
16261.88
29167.806
93311.941
93439.629
29201.28
16288.784
11872.759
1920.0432
1925.5752
11896.699
16316.21
29235.794
93569.538
93702.801
29271.288
16344.604
11921.596
1931.2351
1936.9982
11946.801
16373.562
29307.882
93838.686
93978.22
29345.552
16403.528
11972.961
1942.8844
1948.8747
11999.503
16434.131
29384.437
94120.745
94267.21
29424.497
16465.785
12027.013
1954.9923
1961.2198
12054.969
16498.144
29465.874
94416.994
94570.98
29508.538
16531.6
12083.904
1967.574
1974.0411
12113.359
16565.836
29552.62
94728.726
94890.918
29598.114
16601.225
12143.815
1980.6356
1987.3461
12174.866
16637.47
29645.117
95057.147
95228.054
29693.616
16674.916
12206.944
1994.1836
2001.141
12239.708
16713.321
29743.773
95403.362
95583.633
29795.575
16753.009
12273.554
2008.2293
2015.4453
12308.183
16793.756
29849.142
95768.604
95959.051
29904.578
16835.905
12343.966
2022.8104
2030.3238
12380.646
16879.252
29961.998
96154.975
96356.192
30021.775
16924.197
12418.586
2038.0026
1858.8961
12603.756
16993.344
29993.523
95814.433
95620.962
29937.395
16949.794
12566.134
1851.9672
1845.1721
12529.556
16907.664
29883.661
95432.506
95249.446
29831.769
16866.96
12494.187
1838.4986
1831.9353
12459.638
16827.369
29781.715
95071.411
94898.746
29733.49
16789.192
12426.294
1825.5039
1819.1882
12393.705
16752.074
29687.064
94731.064
94568.339
29642.238
16716.238
12362.239
1812.9892
1806.8909
12331.387
16681.287
29598.958
94409.916
94255.66
29557.029
16647.49
12301.579
1800.9042
1795.0161
12272.271
16614.46
29516.48
94105.052
93958.332
29477.133
16582.505
12243.966
1789.238
1783.5528
12216.072
16551.227
29439.043
93814.934
93675.158
29402.051
16520.985
12189.174
1777.9777
1772.4987
12162.633
16491.378
29366.286
93538.53
93405.362
29331.522
16462.774
12137.092
1767.1331
1761.864
12111.852
16434.755
29297.916
93274.992
93147.822
29265.181
16407.685
12087.599
1756.7042
1751.6365
12063.569
16381.127
29233.502
93023.041
92901.151
29202.624
16355.496
12040.541
1746.6802
1741.8121
12017.652
16330.301
29172.672
92781.141
92663.461
29143.378
16305.985
11995.769
1737.0627
1732.4128
11973.943
16282.052
29114.936
92547.113
92432.831
29087.052
16258.974
11953.106
1727.9117
1723.5791
11932.172
16236.253
29060.03
92319.84
92210.38
29033.916
16214.479
11912.056
1719.5416
1715.9683
11891.542
16193.429
29009.775
92105.629
92016.083
28991.101
16175.428
11872.555
1713.3463
1712.4814
11857.78
16165.834
28988.644
91957.714
92006.047
29039.751
16185.394
11862.847
1715.4304
1724.414
11913.097
16267.145
29200.275
92270.99
93043.995
29581.729
16468.625
12052.679
1743.7357
1762.4428
12231.436
16696.486
29983.957
94237.865
1841.6178
12898.206
17711.444
31876.469
95422.893
94471.175
30042.34
16700.553
12226.739
1760.7136
1741.256
12045.457
16455.682
29552.893
93051.248
92322.669
29213.989
16272.875
11917.013
1724.7788
1715.7365
11865.582
16189.88
29048.884
92026.221
91971.995
28995.655
16169.421
11860.233
1712.8094
1713.5982
11873.733
16177.689
28995.955
92022.738
92110.282
29013.071
16195.228
11892.814
1716.1937
1719.7294
11912.583
16215.682
29036.608
92212.733
92321.905
29062.053
16237.446
11933.057
1723.7636
1728.0709
11953.411
16259.764
29088.827
92433.78
92548.198
29116.288
16282.927
11974.625
1732.5686
1737.1903
11995.937
16306.515
29144.612
92663.713
92781.617
29173.604
16330.957
12018.186
1741.9348
1746.78
12040.627
16355.864
29203.507
92901.106
93023.382
29234.186
16381.653
12064.006
1751.7358
1756.7893
12087.642
16407.954
29265.844
93147.714
93275.275
29298.409
16435.184
12112.221
1761.9534
1767.2108
12137.108
16462.975
29332.037
93405.284
93538.729
29366.653
16491.733
12162.938
1772.576
1778.0377
12189.145
16521.109
29402.424
93675.073
93815.2
29439.325
16551.509
12216.311
1783.6092
1789.2828
12243.93
16582.609
29477.495
93958.603
94106.099
29516.896
16614.787
12272.53
1795.0693
1800.9563
12301.652
16647.729
29557.663
94257.255
94412.665
29599.808
16681.82
12331.784
1806.955
1813.0558
12362.518
16716.756
29643.403
94571.897
94735.59
29688.475
16752.893
12394.296
1819.2714
1825.5935
12426.75
16789.958
29735.121
94903.411
95075.995
29783.343
16828.286
12460.282
1832.0335
1838.5859
12494.57
16867.62
29833.23
95253.171
95435.443
29884.829
16908.296
12529.985
1845.2581
1852.0481
12566.277
16950.126
29938.314
95622.671
95814.755
29993.99
16993.485
12603.804
1858.9711
96465.208