/*--------------------------------*- C++ -*----------------------------------*\
  =========                 |
  \\      /  F ield         | OpenFOAM: The Open Source CFD Toolbox
   \\    /   O peration     | Website:  https://openfoam.org
    \\  /    A nd           | Version:  7
     \\/     M anipulation  |
\*---------------------------------------------------------------------------*/
FoamFile
{
    version     2.0;
    format      ascii;
    class       volScalarField;
    location    "140";
    object      alphat;
}
// * * * * * * * * * * * * * * * * * * * * * * * * * * * * * * * * * * * * * //

dimensions      [1 -1 -1 0 0 0 0];

internalField   nonuniform List<scalar> 
25201
(
8.0671345
8.1551773
8.0671534
8.1552343
8.4472009
8.2395509
8.1114942
8.1300814
8.253428
8.4632647
8.2533389
8.2394865
8.3510174
8.4154482
8.309839
8.510771
8.5190349
8.5169108
8.5474275
8.4401193
8.5229999
8.4779642
8.5127429
8.4767441
8.5109056
8.4142514
8.4166048
8.4781047
8.430925
8.36521
8.4143381
8.4714645
8.164348
8.2482473
8.3450939
8.3029098
8.4153061
8.3521998
8.2048527
8.1170056
8.2980872
8.2676843
8.3358521
8.1175103
8.0708372
8.0575305
8.2405774
8.434061
8.3901338
8.3508893
8.3667279
8.4192803
8.5304492
8.5515184
8.5267495
8.5182119
8.5073743
8.5160482
8.5331147
8.4435535
8.4432625
8.5219175
8.5304546
8.5695388
8.5996031
8.5440366
8.5782074
8.537478
8.483097
8.3084401
8.2637926
8.3101727
8.4777023
8.5020171
8.4617819
8.1251895
8.1804789
8.2646891
8.3297325
8.3863435
8.4628
8.4970465
8.4734117
8.4521603
8.405464
8.4223296
8.3993542
8.4084863
8.3578068
8.3754829
8.2957297
8.2258606
8.2574778
8.31014
8.3324519
8.380017
8.4168069
8.3724803
8.2720646
8.3402573
8.3048174
8.2434623
8.2205606
8.2877688
8.2521871
8.2030057
8.0571159
8.1430247
8.1809685
8.2347076
8.2310793
8.198785
8.1118756
8.1400086
7.9787816
8.0933767
8.0580318
7.9519236
7.9283654
8.0851552
8.1763668
8.0435044
8.013337
7.9059266
7.7229386
7.8713093
7.9683628
8.1842324
8.380646
8.2121235
8.1248218
8.079266
8.0628032
8.1045771
8.1963166
8.2866058
8.4032211
8.477667
8.5234379
8.5085737
8.5185301
8.5307324
8.4440835
8.444888
8.5180336
8.5336623
8.5517136
8.5268297
8.3666914
8.5441106
8.5996614
8.5694934
8.4833287
8.537508
8.5782851
8.5629452
8.419256
8.3904313
8.4800566
8.5027623
8.2646115
8.3121412
8.4242998
8.4671938
8.5009111
8.3910473
8.3346591
8.2668309
8.1993474
8.2731216
8.4073225
8.4538849
8.3612368
8.4144345
8.442307
8.378206
8.3601271
8.3712437
8.1797724
8.1601464
7.9584187
8.0476664
8.1166376
8.023653
7.9751089
7.8859268
7.9751948
8.0062223
7.8907341
7.7093896
7.86435
7.953948
8.1812258
8.3740924
8.2290027
8.3011615
8.3650385
7.9359811
8.0501019
8.1834068
8.2949849
8.2574735
8.2087376
8.2634352
8.3179524
8.2280733
8.0929125
8.0624834
8.1476391
8.0172222
7.9108121
7.7266592
7.8738886
7.9006454
7.9171649
8.0142265
8.1552879
8.0671524
8.3626383
8.4786695
8.4309909
8.3359214
8.2487689
8.4147622
8.3655511
8.2983041
8.2676909
8.0707704
8.1174875
8.1642507
8.1171535
8.2052486
8.3525121
8.4158897
8.4721786
8.3456346
8.3035074
8.4093621
8.4788953
8.5197444
0.0015577181
0.0095259946
0.023292185
0.039594787
0.49703981
0.50405178
0.040821409
0.023971691
0.0097991485
0.0016001957
0.0016222811
0.01003052
0.024535792
0.041755798
0.51282019
0.51787894
0.042023152
0.024705312
0.010105477
0.0016315789
0.0016340363
0.010122003
0.024735635
0.042050743
0.52084702
0.52247588
0.041989584
0.024709387
0.010115378
0.0016343726
0.0016347387
0.010114152
0.024701948
0.041965183
0.52341905
0.52402823
0.041947908
0.024694521
0.010112515
0.001634951
0.0016356168
0.010118471
0.024708811
0.041968637
0.52447854
0.52488748
0.041981961
0.024716651
0.010122096
0.0016360563
0.0016368796
0.010131427
0.024740308
0.042020782
0.52528678
0.52571822
0.042044033
0.024753739
0.010137256
0.0016374275
0.0016383603
0.010148637
0.024782599
0.042092033
0.52618373
0.52669379
0.042122646
0.024800434
0.010156284
0.0016390162
0.0016400637
0.010169408
0.024833332
0.042177186
0.52723948
0.52784281
0.042215909
0.02485616
0.010179157
0.0016408638
0.001642067
0.010194476
0.024894236
0.042278843
0.52850232
0.52924234
0.042328459
0.024923532
0.010206832
0.0016430488
0.0016444207
0.010224487
0.02496723
0.042400706
0.53004634
0.53092456
0.042461472
0.025002986
0.010239394
0.0016455835
0.0016471089
0.010258989
0.025051153
0.042540909
0.53186469
0.53287144
0.042610555
0.025092396
0.010276212
0.0016484488
0.0016501525
0.010298199
0.025146321
0.042699553
0.53396376
0.53513565
0.042779014
0.025193415
0.010317822
0.0016516705
0.0016535477
0.010342178
0.025253144
0.042877754
0.5363858
0.53771701
0.042966637
0.025305884
0.01036411
0.001655234
0.0016572683
0.010390605
0.025370921
0.043074397
0.53911747
0.54058473
0.04317229
0.025428884
0.010414575
0.0016591057
0.0016612674
0.010442638
0.025497724
0.043286268
0.54211712
0.54371109
0.043395693
0.025562094
0.010468795
0.0016632283
0.0016653097
0.010496292
0.025628643
0.043505515
0.54534635
0.5469303
0.043613862
0.025690875
0.010521107
0.0016671144
0.61169839
0.03943006
0.023443865
0.0096813516
0.0015888626
0.0015872946
0.0096595026
0.023389535
0.039336971
0.60988113
0.60797579
0.039231056
0.023325651
0.0096330298
0.0015853799
0.0015835213
0.0096072718
0.02326252
0.039126289
0.60611877
0.6043405
0.039021869
0.023199018
0.0095809721
0.0015815329
0.0015797953
0.0095576506
0.023142284
0.038927972
0.60267612
0.60108965
0.038832627
0.02308426
0.0095334982
0.0015779578
0.0015763746
0.0095122979
0.023032788
0.038747553
0.59959553
0.59818772
0.038661128
0.022980169
0.0094903744
0.001574695
0.0015732815
0.009471587
0.022934525
0.038585617
0.59688186
0.59565511
0.038509261
0.022888001
0.0094521539
0.0015717787
0.0015705301
0.0094355001
0.022847418
0.038441936
0.59450337
0.59341813
0.038372527
0.022805135
0.0094178642
0.0015691717
0.0015680747
0.0094032339
0.022769426
0.038313278
0.59242576
0.59149306
0.038252556
0.022732397
0.0093877606
0.0015668703
0.0015659273
0.00937525
0.02270168
0.038201306
0.5906564
0.58995054
0.038154936
0.022672872
0.009362943
0.0015649291
0.0015641639
0.0093528545
0.022647728
0.038112348
0.58927636
0.58865478
0.038069653
0.022621605
0.0093418802
0.0015632724
0.001562607
0.0093333207
0.022600054
0.038032946
0.58804844
0.58749064
0.037993882
0.022576298
0.009323424
0.0015617816
0.0015612014
0.0093165468
0.022559079
0.037964818
0.58699448
0.58652146
0.037933666
0.022539924
0.0093084783
0.0015604659
0.0015599904
0.0093038637
0.022528613
0.037915265
0.58607293
0.58557416
0.037900906
0.022518291
0.0092989963
0.0015593989
0.0015591142
0.0092991467
0.0225206
0.037909261
0.58493324
0.58404408
0.037940396
0.022532499
0.009301587
0.0015588028
0.0015583447
0.0093063351
0.022551629
0.037987362
0.58247352
0.57963578
0.037971826
0.022528806
0.0092919727
0.0015558695
0.0015474478
0.0092250726
0.022375899
0.037734404
0.57466646
0.56712866
0.037052536
0.021965566
0.0090537129
0.0015277798
0.0014971049
0.0087777422
0.021309458
0.035943
0.55827835
0.53012999
0.032659677
0.019196939
0.0078741267
0.0014317324
0.0014960666
0.0088008594
0.021365856
0.036022149
0.55951044
0.5681173
0.037093385
0.021991686
0.0090649195
0.0015269514
0.0015471923
0.0092352597
0.022400122
0.037772331
0.57534688
0.58005258
0.037990566
0.02254078
0.0092974907
0.0015556064
0.0015581928
0.0093107724
0.022562433
0.038004608
0.5827804
0.58425154
0.037944071
0.022535022
0.0093031442
0.0015586048
0.0015590017
0.0093013245
0.022526402
0.037918985
0.58511848
0.58568142
0.037901598
0.02251827
0.0092991636
0.0015592192
0.0015598246
0.009303981
0.02252963
0.037917579
0.58613471
0.58654643
0.037927232
0.022535454
0.0093068014
0.0015602251
0.0015609813
0.0093152193
0.022556669
0.037961723
0.58696058
0.58741336
0.0379819
0.022568483
0.0093204006
0.0015614857
0.0015623409
0.009330796
0.022594522
0.03802454
0.58791321
0.58847513
0.038052537
0.022611108
0.009337965
0.001562957
0.0015639317
0.0093503426
0.022641891
0.038102972
0.58909529
0.58978264
0.038139135
0.022663482
0.0093595965
0.0015646812
0.001565793
0.0093740236
0.0226991
0.038197416
0.59054144
0.59137789
0.038242461
0.022726155
0.0093855599
0.0015666986
0.0015679707
0.0094022939
0.022767308
0.038309803
0.59230167
0.59331268
0.038364757
0.02280036
0.0094162831
0.0015690456
0.0015704749
0.0094352573
0.022846912
0.038440935
0.59440479
0.59557847
0.038506129
0.022885854
0.0094515611
0.0015717074
0.0015732613
0.0094720698
0.022935879
0.038587838
0.59684387
0.59818239
0.038659495
0.02297903
0.0094902302
0.0015746489
0.001576391
0.0095132698
0.023035321
0.038751709
0.59962288
0.60116205
0.038833378
0.023084563
0.0095339298
0.0015779611
0.0015798689
0.0095591884
0.023146154
0.038934319
0.6027973
0.60452762
0.03902563
0.023201022
0.0095820825
0.0015816061
0.0015836657
0.0096091358
0.023266866
0.039133428
0.60635221
0.60826752
0.039234144
0.023327955
0.0096347114
0.0015855836
0.0015877801
0.0096643987
0.023399769
0.03935117
0.610233
0.61224494
0.039464183
0.023466784
0.0096913811
0.0015897179
0.0015913598
0.0097139397
0.023522451
0.039558646
0.61430293
0.0016545954
0.010377903
0.025293803
0.042866039
0.54790269
0.54605453
0.042754196
0.025229817
0.010352565
0.001652774
0.0016506401
0.010323207
0.025157066
0.042631199
0.54422667
0.5424557
0.042508776
0.025083482
0.010292899
0.0016483268
0.0016462318
0.010265237
0.02501603
0.04239641
0.54078761
0.53918984
0.042282902
0.02494768
0.010236972
0.0016440266
0.0016420945
0.01021176
0.024886208
0.042180302
0.5376861
0.53624304
0.042075894
0.024823293
0.01018568
0.0016400566
0.0016382926
0.010162604
0.024766933
0.041981696
0.53489194
0.5336595
0.041891065
0.024711959
0.010139636
0.0016364767
0.0016349221
0.01011915
0.024661663
0.041806587
0.53247457
0.53135564
0.041721351
0.024610251
0.01009783
0.0016332586
0.0016318779
0.010079634
0.024565691
0.041646743
0.53031983
0.52933481
0.041570139
0.024519519
0.010060489
0.0016303807
0.0016291757
0.010044687
0.024480813
0.041505364
0.52845846
0.52764819
0.041440369
0.024441473
0.010028274
0.0016278702
0.0016268513
0.01001502
0.024408861
0.04138556
0.52691824
0.52623508
0.041329199
0.02437482
0.010000845
0.0016257084
0.0016248539
0.0099899605
0.024347946
0.041283924
0.52564053
0.52507376
0.041236117
0.024319128
0.0099779703
0.0016238602
0.0016231487
0.0099692578
0.024297453
0.041199394
0.52458995
0.52412342
0.041159593
0.024273496
0.0099592979
0.0016222815
0.0016216903
0.0099526558
0.024256817
0.041131185
0.52373386
0.52335457
0.041101368
0.024238643
0.0099450044
0.0016209439
0.0016204766
0.0099409351
0.024228477
0.041084507
0.52299642
0.52258538
0.041073581
0.024220199
0.0099369037
0.0016198926
0.0016196632
0.0099386226
0.02422654
0.041089272
0.5220436
0.5212435
0.041132281
0.024244717
0.0099434408
0.0016194334
0.0016190698
0.009951255
0.024272167
0.041195465
0.5198052
0.51711623
0.04118136
0.024249512
0.0099370939
0.0016163246
0.0016067286
0.0098675811
0.024086935
0.040922278
0.51261813
0.50612999
0.04016316
0.023642468
0.0096872076
0.0015840519
0.001546989
0.0094257042
0.022994511
0.039007454
0.49926602
0.49861466
0.039648873
0.023347722
0.0095625059
0.0015537244
0.0016001123
0.0097839055
0.023934796
0.040768753
0.5036419
0.51278267
0.041752321
0.024534187
0.010030316
0.0016219451
0.0016316158
0.010106249
0.024707035
0.042024529
0.51767347
0.52063999
0.042033379
0.024725046
0.010118098
0.0016336426
0.0016342736
0.010115038
0.024708962
0.041987456
0.52226181
0.52321719
0.041944464
0.024689055
0.010109203
0.001634296
0.0016348319
0.010111648
0.024692923
0.041944052
0.52383536
0.52427988
0.041947071
0.024695519
0.010113386
0.0016351892
0.001635959
0.010121342
0.024715391
0.041978641
0.52468883
0.52508671
0.042000359
0.024727559
0.010126495
0.0016364709
0.0016373314
0.01013642
0.0247524
0.042040824
0.52550948
0.52596576
0.042070575
0.02476928
0.010143501
0.001637948
0.0016389181
0.010155332
0.024798787
0.042118996
0.526477
0.52701708
0.04215497
0.024819705
0.010164198
0.0016396561
0.0016407768
0.010178249
0.024854538
0.042212241
0.52762436
0.52827579
0.042257526
0.024881191
0.010189514
0.0016416831
0.0016429792
0.010206026
0.024921909
0.042324467
0.5290163
0.52982081
0.042381703
0.024955507
0.010220056
0.001644078
0.001645549
0.010238907
0.025001788
0.042457763
0.53071487
0.53167526
0.042525018
0.025041561
0.010255511
0.0016468407
0.0016485089
0.010277072
0.025094605
0.042612652
0.53272628
0.53384086
0.04269104
0.025140812
0.010296229
0.0016499888
0.0016518188
0.010319781
0.02519855
0.04278637
0.53503973
0.536295
0.04287317
0.025249873
0.010341091
0.0016534742
0.0016554827
0.010366836
0.025312852
0.042977202
0.5376309
0.53904575
0.043072124
0.025369315
0.01039037
0.0016573199
0.0016595164
0.010418706
0.025438804
0.043187271
0.54056288
0.54216457
0.043291842
0.025500866
0.010444418
0.0016615032
0.0016638073
0.010474498
0.025574832
0.043414592
0.54386332
0.54561165
0.043530611
0.025642952
0.010502091
0.0016658583
0.0016679878
0.010530483
0.025712238
0.043645757
0.54739469
0.54911663
0.043757933
0.025776248
0.01055583
0.0016698061
0.0016545025
0.010376681
0.025290551
0.042860268
0.54784268
0.54606878
0.042753841
0.025229195
0.010352151
0.0016527138
0.0016505989
0.010323048
0.025156963
0.042631402
0.54425798
0.5425001
0.042509194
0.025083514
0.010292813
0.0016482953
0.0016462051
0.01026515
0.025015948
0.042396397
0.54081068
0.53920733
0.042281261
0.024946664
0.010236565
0.0016439861
0.0016420571
0.010211381
0.024885336
0.04217892
0.53768767
0.53625514
0.042073927
0.024822053
0.010185176
0.0016400158
0.0016382755
0.010162474
0.02476682
0.041981842
0.53491194
0.53364835
0.041886712
0.024709497
0.010138743
0.0016364234
0.0016348784
0.010118559
0.024660297
0.041804536
0.53246255
0.53135463
0.041719191
0.02460886
0.010097252
0.0016332174
0.0016318551
0.010079385
0.024565237
0.041646242
0.53032192
0.52936201
0.041571053
0.024519807
0.010060516
0.0016303767
0.001629197
0.010045082
0.024482019
0.041507697
0.52849698
0.52771744
0.041444434
0.024443594
0.010029019
0.001627917
0.001626925
0.010016105
0.024411765
0.041390715
0.52698907
0.52632305
0.041335254
0.024378168
0.010002108
0.0016257987
0.0016249636
0.0099914683
0.0243518
0.041290548
0.52572671
0.52518532
0.041245151
0.024324212
0.0099799133
0.0016239991
0.0016232995
0.009971251
0.024302393
0.04120762
0.52468568
0.5242205
0.04116914
0.024278989
0.009961461
0.0016224445
0.0016218571
0.0099547906
0.024262029
0.041139766
0.52382732
0.52343109
0.041108432
0.024242893
0.0099467861
0.0016210924
0.0016206133
0.009942547
0.024232273
0.041090601
0.52305402
0.52262652
0.041077799
0.024222817
0.0099380622
0.00162
0.0016197743
0.0099399886
0.024229876
0.041094886
0.52210588
0.52129774
0.041135854
0.024246898
0.0099444003
0.001619518
0.0016191514
0.0099524878
0.024275105
0.041200271
0.51986904
0.51720443
0.04118594
0.024252318
0.0099382727
0.0016163901
0.0016066662
0.0098675905
0.024087003
0.040922151
0.51268683
0.50622483
0.040157478
0.02363989
0.0096863593
0.0015839094
0.0015460098
0.0094191621
0.022979206
0.038981387
0.49950447
0.56096103
0.036066456
0.021418246
0.0088337154
0.0014924373
0.0015271621
0.0090606131
0.02197668
0.03706883
0.56789889
0.5755278
0.037781454
0.022405599
0.0092377264
0.0015473161
0.0015562252
0.0093038619
0.022556063
0.038014261
0.58027177
0.58297716
0.038011858
0.022566234
0.0093125332
0.0015583868
0.0015590369
0.0093083215
0.02254826
0.037965136
0.58442751
0.5852655
0.037922208
0.022527667
0.0093020399
0.0015590933
0.0015595843
0.0093035385
0.022529316
0.037918854
0.58583847
0.58627387
0.037918586
0.022530126
0.0093046039
0.0015599152
0.001560639
0.0093120167
0.022548546
0.037947633
0.58669402
0.58712675
0.037967327
0.022559718
0.0093167517
0.0015611178
0.001561906
0.0093258799
0.022582406
0.038003956
0.5876059
0.58811284
0.038031091
0.022597965
0.0093324068
0.0015624713
0.0015633484
0.0093431827
0.022624513
0.038073929
0.58867054
0.58927954
0.038108717
0.022644689
0.0093516082
0.0015640256
0.0015650141
0.0093641221
0.022675294
0.038158097
0.58996155
0.59070685
0.038200497
0.022700222
0.0093745656
0.0015658272
0.0015669604
0.0093892498
0.022736061
0.038258518
0.59153067
0.59242403
0.038309293
0.022766162
0.0094018621
0.0015679249
0.0015692158
0.0094187909
0.022807483
0.038376539
0.5934202
0.59448577
0.038434237
0.022842208
0.0094334781
0.0015703413
0.0015718245
0.0094531198
0.022890298
0.038512973
0.59564557
0.59688758
0.038579863
0.022930587
0.0094701093
0.0015731261
0.0015747873
0.0094919556
0.022984046
0.038667531
0.59822656
0.59965895
0.038744062
0.023030242
0.009511392
0.0015762824
0.0015781319
0.0095357939
0.023089927
0.038842065
0.60119599
0.60282398
0.038928334
0.023141916
0.0095575771
0.0015797946
0.0015817835
0.0095838479
0.023206101
0.039033744
0.60454685
0.606344
0.039128239
0.023263034
0.0096075675
0.0015835782
0.0015856703
0.0096357623
0.023331681
0.039240292
0.60821393
0.6101029
0.039345558
0.023394227
0.0096613871
0.001587503
0.0015893339
0.0096855104
0.023451677
0.039438606
0.61200931
0.61390432
0.039539001
0.023509999
0.009708912
0.0015910292
0.54877149
0.043731782
0.025761538
0.010550223
0.0016694116
0.0016675875
0.01052559
0.025700295
0.043626102
0.54708314
0.54544798
0.043521375
0.025637333
0.010499441
0.0016655809
0.0016635613
0.010471934
0.025568903
0.043405156
0.54375287
0.5420936
0.043289856
0.025499685
0.01044345
0.0016613558
0.001659357
0.010417139
0.025434736
0.043180201
0.54056178
0.53906826
0.04307252
0.025369863
0.01039025
0.0016572447
0.0016553772
0.010365782
0.025309729
0.042971314
0.53767835
0.53633727
0.042872752
0.025250208
0.010341033
0.0016534251
0.0016517391
0.010318923
0.025195914
0.042781464
0.5351137
0.53394348
0.042695045
0.025143484
0.010297002
0.00165
0.0016485253
0.010277498
0.025095402
0.042613929
0.5328814
0.5318555
0.042537157
0.025048765
0.010257979
0.0016469801
0.0016456965
0.010240946
0.025006616
0.042465838
0.53093109
0.53003965
0.042397549
0.024965189
0.010223626
0.00164432
0.0016432058
0.010208896
0.024928612
0.042335503
0.52924801
0.52848709
0.042274724
0.024891806
0.010193538
0.0016419745
0.0016410254
0.010181237
0.024861279
0.042222994
0.52783139
0.52720699
0.042172059
0.024830401
0.010168303
0.0016399598
0.0016391716
0.010158352
0.024805541
0.042129688
0.5266766
0.52615837
0.042087049
0.024779741
0.010147551
0.0016382486
0.0016375902
0.010139596
0.024759607
0.042052419
0.52572236
0.5252818
0.042016917
0.024738127
0.010130607
0.0016367742
0.0016362214
0.010124614
0.024722815
0.041990569
0.52490882
0.52450126
0.041968992
0.024708911
0.010118467
0.0016355427
0.0016351542
0.010115882
0.024702748
0.041959892
0.52409985
0.52348941
0.041967264
0.024703307
0.010114758
0.0016346844
0.0016346339
0.010120075
0.024720731
0.042006558
0.52257127
0.5209446
0.042058767
0.024740933
0.010124383
0.0016340632
0.0016319868
0.01011278
0.024722333
0.042049247
0.51801251
0.51304749
0.041778809
0.02454965
0.010036157
0.0016222374
0.0015998984
0.0097951047
0.023958677
0.040803534
0.50397886
0.49848264
0.039651687
0.023351544
0.00956428
0.0015531215
0.0015582246
0.0095442193
0.023331651
0.039653568
0.49767333
0.50446415
0.040841816
0.023985357
0.0098055463
0.0015999544
0.0016218121
0.010031558
0.024536896
0.041755741
0.51300919
0.51792247
0.042025976
0.024707407
0.010106331
0.0016312736
0.0016337335
0.010121181
0.024732707
0.042044286
0.52081671
0.52238653
0.041989241
0.024709479
0.010115333
0.0016341677
0.0016344831
0.010112416
0.024697065
0.041955929
0.52332082
0.5239099
0.041942608
0.0246917
0.010111348
0.0016347474
0.0016353794
0.010116265
0.024702849
0.041957674
0.52434695
0.5247231
0.041976252
0.024713414
0.010120652
0.0016358596
0.0016366167
0.010128531
0.024732699
0.042007181
0.52511485
0.52551351
0.042035936
0.024748992
0.010135177
0.0016372053
0.0016380759
0.010145127
0.024773337
0.042075552
0.52596559
0.52646027
0.042112065
0.024794395
0.010153802
0.0016387892
0.0016398068
0.010166068
0.024824408
0.042161127
0.52701155
0.5276156
0.042206693
0.024850953
0.01017703
0.0016406746
0.0016418515
0.010191592
0.0248864
0.042264575
0.52828772
0.52902409
0.042320967
0.024919373
0.010205146
0.0016428977
0.0016442385
0.01022196
0.024960202
0.042387824
0.52985012
0.53074844
0.042453744
0.024999058
0.010238
0.0016454686
0.0016470048
0.010257625
0.025046914
0.042532501
0.5317318
0.53278963
0.04260962
0.025092217
0.01027619
0.0016484094
0.0016500833
0.010297583
0.02514418
0.042695096
0.53391618
0.53511297
0.042780106
0.025194314
0.010318186
0.0016516471
0.0016534889
0.010341778
0.025251631
0.042874582
0.53638732
0.53772867
0.042967502
0.025306733
0.010364529
0.0016552248
0.0016572586
0.010390608
0.025370163
0.043072243
0.53914987
0.54064615
0.043174213
0.025430787
0.01041567
0.0016591826
0.0016614136
0.010444244
0.025500426
0.043289459
0.54222925
0.54389747
0.043402736
0.025567733
0.010471922
0.0016635295
0.0016659201
0.010503206
0.025643956
0.04352849
0.54565112
0.54742667
0.043658722
0.025719413
0.010533003
0.0016680796
0.0016698459
0.010556686
0.02577779
0.043758562
0.5491731
8.1198456
8.1846054
8.1198306
8.1845069
8.3586836
8.2475744
8.1423779
8.1647863
8.2572132
8.2476779
8.4713732
8.466911
8.2572159
8.3618161
8.5519955
8.5582307
8.5451461
8.6374572
8.6706874
8.6558389
8.6183755
8.5921842
8.5945755
8.4483344
8.5889457
8.4201343
8.4345854
8.6422231
8.6240585
8.6397501
8.5547534
8.72274
8.6975786
8.7121174
8.7657295
8.6885871
8.6666644
8.6663527
8.6352952
8.6071103
8.6235864
8.5291185
8.4170989
8.3263394
8.5673617
8.5326121
8.4977765
8.5307033
8.3086994
8.3745171
8.2445358
8.1731373
8.1260141
8.1827565
8.4365984
8.4626575
8.4628325
8.3906714
8.1552813
8.0671786
8.24019
8.351658
0.50016253
0.038920498
0.022945859
0.0094058876
0.001550534
0.0015846964
0.0096625729
0.023581014
0.040057913
0.50573217
0.51181847
0.040813752
0.024020899
0.0098405685
0.0016060086
0.0016158587
0.009919331
0.024206955
0.041112355
0.51629084
0.51905793
0.041128781
0.02423048
0.0099340835
0.0016183474
0.0016190762
0.0099328097
0.024219051
0.041090686
0.52059392
0.52152874
0.04104479
0.024198638
0.009927273
0.0016191163
0.0016196976
0.0099310253
0.024206013
0.04105054
0.52214424
0.52263029
0.041054814
0.024209485
0.0099331988
0.0016200625
0.0016208426
0.0099416943
0.024230738
0.041088648
0.52306349
0.52349269
0.041109191
0.024242669
0.0099469187
0.0016213531
0.0016222346
0.0099575579
0.024269667
0.041153945
0.52394353
0.52441363
0.041180472
0.024285274
0.0099643567
0.0016228354
0.0016238272
0.0099768152
0.024316687
0.041232698
0.52493125
0.52549945
0.041266509
0.024336788
0.0099855279
0.0016245564
0.001625697
0.010000221
0.024373609
0.041327608
0.52611572
0.52679295
0.041371357
0.024399511
0.010011239
0.0016265794
0.0016278533
0.010027701
0.024440364
0.041438948
0.5275329
0.52833697
0.041491066
0.024471563
0.010041004
0.0016289092
0.0016303793
0.010060234
0.024519224
0.041570025
0.5292228
0.53018082
0.041634273
0.024557371
0.010076244
0.0016316226
0.0016332454
0.010097407
0.024609477
0.04172028
0.5312074
0.53231607
0.041794897
0.024653678
0.010115851
0.001634669
0.0016364543
0.010139072
0.024710657
0.041888908
0.53349257
0.53473695
0.04197166
0.024759924
0.010159684
0.0016380526
0.0016400243
0.010185298
0.024822709
0.042075428
0.53607448
0.53749129
0.042166419
0.02487724
0.010208183
0.0016418057
0.0016439713
0.010236399
0.024946499
0.042281162
0.53899663
0.54058842
0.04238318
0.025007306
0.010261702
0.0016459238
0.0016482136
0.010291529
0.025080258
0.042503555
0.5422641
0.54401514
0.042617787
0.025147966
0.010319219
0.0016502923
0.0016524991
0.010348542
0.025219533
0.042736429
0.54583059
0.54767896
0.042853904
0.025286797
0.010375125
0.0016543981
0.0016518804
0.010342061
0.025204945
0.042715423
0.54552708
0.54391304
0.042615989
0.025146505
0.010318159
0.0016501159
0.0016480778
0.010290309
0.025077695
0.042499782
0.54224674
0.54060313
0.042383283
0.025007298
0.010261165
0.0016458482
0.0016438875
0.010235405
0.024944312
0.042278059
0.53908718
0.53762215
0.042174099
0.024881375
0.010209221
0.0016418378
0.0016400515
0.01018572
0.024823805
0.042077448
0.53627295
0.53495081
0.041980259
0.024765091
0.010161359
0.0016381537
0.0016365338
0.010140003
0.024712649
0.041892071
0.53371328
0.53254558
0.041806085
0.024660596
0.010118341
0.0016348329
0.0016334057
0.010099529
0.024614233
0.041727801
0.53145545
0.53040507
0.041648917
0.024566484
0.010079674
0.0016318572
0.0016305862
0.010062771
0.024524921
0.041578991
0.52945218
0.52854794
0.041509528
0.02448273
0.010045168
0.0016292036
0.0016281106
0.010030787
0.024447279
0.04144975
0.52775361
0.52699602
0.041392333
0.024412135
0.010015987
0.0016269211
0.0016260167
0.010004216
0.024382933
0.041342718
0.526381
0.52573499
0.041289067
0.024350565
0.0099908082
0.0016249438
0.0016241572
0.0099807632
0.02432555
0.041246487
0.52515667
0.52461665
0.04120151
0.024298283
0.0099693999
0.0016232133
0.0016225415
0.0099611242
0.024277464
0.041165822
0.52414309
0.52371045
0.041131107
0.024256062
0.0099520474
0.0016217297
0.0016211753
0.0099457459
0.024239977
0.041103336
0.52330724
0.52286025
0.041074735
0.024222002
0.0099380901
0.0016204341
0.0016200291
0.0099350321
0.02421525
0.041065525
0.52240886
0.52179419
0.041070256
0.024213924
0.0099330611
0.0016195432
0.0016194783
0.0099376946
0.024230621
0.041109669
0.5209021
0.51934076
0.041157776
0.024247685
0.0099405938
0.0016188638
0.0016163792
0.0099253178
0.02422219
0.041138971
0.51653522
0.51174994
0.040853681
0.024041459
0.0098472475
0.001606714
0.0015852398
0.0096687984
0.023603438
0.040107614
0.50508319
0.49756929
0.038917261
0.022917008
0.0093880861
0.0015500912
0.0014938343
0.008846425
0.021605625
0.03675414
0.48195196
0.50151174
0.041461179
0.024325457
0.0098861158
0.0015913213
0.0015574676
0.0095823574
0.023384026
0.039699376
0.49997693
0.50340249
0.040713644
0.023905906
0.0097737889
0.0016007982
0.0016219603
0.010020873
0.024510613
0.041709526
0.5123711
0.5171745
0.041967185
0.024672174
0.010092368
0.0016311843
0.001633576
0.01011133
0.024709226
0.042006328
0.5202083
0.52187754
0.041949662
0.02468536
0.01010556
0.0016339153
0.0016342865
0.010105501
0.024680889
0.041930243
0.52289661
0.52354685
0.041917511
0.024675887
0.010104726
0.0016345098
0.0016351567
0.010110776
0.024690041
0.041937401
0.52401629
0.5244197
0.041955077
0.024700079
0.010115118
0.0016356095
0.0016363986
0.010124045
0.024722274
0.041990864
0.52484717
0.52529988
0.042015963
0.024736785
0.010130311
0.0016369645
0.0016379138
0.010142037
0.024766325
0.042064792
0.52577384
0.52628175
0.042097411
0.024785396
0.010150177
0.0016385956
0.0016396601
0.010163553
0.024818737
0.042152485
0.52684778
0.52748651
0.042193683
0.024842986
0.010173874
0.0016404956
0.0016417305
0.010189728
0.024882442
0.042258983
0.52817358
0.52892192
0.042309133
0.024912179
0.010202342
0.0016427328
0.0016441393
0.010220552
0.024957272
0.042383776
0.52975043
0.53065303
0.04244431
0.024993264
0.010235731
0.001645328
0.0016469207
0.010256527
0.025044783
0.042529851
0.53163736
0.53268506
0.042600969
0.025086988
0.010274173
0.0016482883
0.0016500326
0.010296864
0.025142959
0.042693921
0.53381074
0.53500342
0.042773764
0.025190442
0.010316715
0.001651574
0.0016534994
0.010341669
0.025251774
0.042875345
0.53626438
0.5376162
0.042966266
0.025305656
0.010364061
0.0016552312
0.001657314
0.010391017
0.025371787
0.043075887
0.53906327
0.54058582
0.043173748
0.025430126
0.010415339
0.0016592026
0.0016614551
0.010444571
0.025501937
0.043293023
0.5421782
0.54383439
0.043400914
0.025566088
0.010471089
0.0016634928
0.0016658494
0.010501751
0.025640712
0.043523365
0.54552643
0.54720571
0.04365646
0.025718415
0.010532746
0.0016680406
0.0016697929
0.010559649
0.025774823
0.043745264
0.54884704
0.0016517578
0.010340071
0.025200104
0.04270732
0.54547444
0.54388469
0.042607857
0.025141286
0.010315934
0.0016499649
0.0016479242
0.010288295
0.025072901
0.042492282
0.54223171
0.54061491
0.042380747
0.025005629
0.010260466
0.0016457635
0.0016438705
0.010235601
0.024944829
0.042278889
0.53912825
0.53767965
0.042177036
0.024883224
0.010209996
0.0016418752
0.0016401484
0.010187193
0.024827434
0.042083411
0.5363265
0.53499067
0.041985688
0.024768644
0.010162914
0.0016382756
0.001636685
0.010141801
0.024717137
0.041899505
0.53373993
0.53253191
0.041806768
0.024661114
0.01011859
0.0016349105
0.0016334311
0.010099158
0.024613603
0.0417274
0.53141084
0.53035632
0.041643476
0.024563162
0.010078369
0.0016318096
0.0016305374
0.010061978
0.024523043
0.041576244
0.52940429
0.52850006
0.041507445
0.02448136
0.010044574
0.0016291608
0.001628081
0.010030425
0.024446608
0.04144897
0.52773139
0.52699888
0.041390789
0.024411168
0.010015577
0.0016268939
0.0016259881
0.010003731
0.024381783
0.041340844
0.52633672
0.52568328
0.041284625
0.024348098
0.0099898897
0.0016248941
0.0016240954
0.0099796885
0.024322856
0.041241972
0.52508091
0.52453374
0.041194048
0.024294026
0.0099677773
0.0016231212
0.0016224491
0.0099596132
0.024273835
0.041159985
0.52405797
0.52361698
0.04112225
0.024250958
0.0099500553
0.0016216154
0.0016210659
0.0099438726
0.02423551
0.04109614
0.52320058
0.52276712
0.041066525
0.024217089
0.0099360824
0.0016203253
0.0016199338
0.0099331504
0.024210823
0.04105844
0.5223013
0.52170787
0.041063342
0.024209695
0.0099312773
0.0016194669
0.0016194149
0.0099359051
0.024226351
0.041102686
0.52078868
0.51923129
0.041148607
0.024242263
0.0099383909
0.0016187931
0.0016163195
0.0099232762
0.024217152
0.041130475
0.51643758
0.51170532
0.040848644
0.024038631
0.0098461357
0.0016067122
0.0015853584
0.0096694093
0.023604775
0.040109558
0.50518162
0.49791172
0.03894002
0.022930275
0.009393605
0.0015506728
0.0014959672
0.0088894671
0.02171239
0.036922088
0.48349867
0.53573352
0.033347274
0.019636546
0.0080566722
0.0014459846
0.001548987
0.0093977401
0.022965243
0.038927241
0.49329592
0.49954935
0.039138231
0.023095168
0.0094457134
0.0015493158
0.0015493194
0.0094023165
0.022938782
0.038912758
0.49996613
0.50580096
0.040060999
0.023582844
0.0096639081
0.0015843426
0.0016060325
0.0098441626
0.024031062
0.040831025
0.51192174
0.51645303
0.041112778
0.02420695
0.0099196975
0.0016156698
0.0016185148
0.0099382264
0.02424124
0.041145864
0.51919743
0.52069584
0.04108809
0.024217267
0.0099324444
0.0016189455
0.0016193148
0.0099310137
0.024208488
0.041060237
0.52160197
0.52219722
0.041046763