/*--------------------------------*- C++ -*----------------------------------*\
  =========                 |
  \\      /  F ield         | OpenFOAM: The Open Source CFD Toolbox
   \\    /   O peration     | Website:  https://openfoam.org
    \\  /    A nd           | Version:  7
     \\/     M anipulation  |
\*---------------------------------------------------------------------------*/
FoamFile
{
    version     2.0;
    format      ascii;
    class       volScalarField;
    location    "140";
    object      k;
}
// * * * * * * * * * * * * * * * * * * * * * * * * * * * * * * * * * * * * * //

dimensions      [0 2 -2 0 0 0 0];

internalField   nonuniform List<scalar> 
25201
(
1120.7951
1140.011
1120.7978
1140.0189
1226.377
1147.5973
1119.0495
1150.9865
1176.4514
1244.4092
1176.4349
1147.5866
1185.1737
1503.3614
1539.6489
1249.5136
1300.9844
1355.0084
1380.3869
1514.6258
1416.8848
1414.3761
1380.1303
1452.7815
1458.5346
1543.8544
1473.0877
1334.2778
1353.0164
1475.4051
1463.389
1443.1494
1596.7577
1581.3272
1555.2867
1537.1593
1438.9153
1457.9301
1560.6023
1574.7183
1469.1953
1475.3899
1481.9747
1603.7259
1581.147
1557.5841
1465.9747
1342.8139
1215.5309
1185.1448
1210.915
1240.4401
1332.7987
1305.6893
1266.387
1261.2566
1250.0897
1296.0716
1302.8588
1424.0441
1389.199
1347.5147
1353.7768
1353.7764
1367.4849
1279.7416
1319.8377
1437.5338
1429.2475
1480.6014
1475.0065
1441.5908
1326.2689
1330.2184
1346.0562
1497.7057
1468.9549
1456.5953
1449.1314
1432.0796
1407.9627
1376.9559
1443.2639
1441.4305
1474.3395
1414.8254
1484.8876
1500.9388
1570.5758
1531.5826
1565.9611
1582.0109
1591.9229
1601.2651
1613.4048
1579.5992
1588.4414
1623.589
1686.8689
1646.762
1636.4499
1673.7645
1659.1194
1624.3356
1612.2755
1642.1421
1703.0496
1665.8425
1631.2831
1644.8365
1700.4992
1688.6672
1732.0721
1746.021
1801.4183
1755.5232
1744.4568
1787.7207
1774.1728
1717.8802
1677.0752
1732.2489
1722.7152
1761.6448
1815.5551
1772.2999
1723.7066
1632.5415
1533.4382
1563.2861
1577.6543
1584.3202
1559.3462
1553.4335
1539.88
1519.1032
1485.9577
1444.5468
1347.9115
1250.3778
1261.3267
1353.8102
1424.24
1389.5086
1296.5811
1303.0137
1305.7573
1266.4017
1210.9063
1279.7546
1367.4832
1353.7297
1429.4162
1437.5761
1319.872
1346.6057
1240.4543
1215.6223
1326.9328
1330.4611
1475.3493
1442.1788
1415.2487
1409.2446
1378.0479
1433.5732
1450.7502
1457.2756
1525.4466
1507.6876
1474.7812
1441.8077
1511.9127
1458.4595
1457.7493
1509.7763
1511.618
1516.6313
1612.8399
1604.2129
1675.8316
1653.3335
1656.9572
1692.3084
1683.2262
1733.8633
1701.1485
1710.9489
1748.6527
1804.4566
1761.8394
1706.4725
1613.35
1517.5077
1583.0519
1567.8275
1573.4557
1777.5529
1735.1598
1680.0333
1627.2644
1614.1161
1644.159
1593.9434
1604.3447
1662.2025
1721.1712
1705.0715
1667.5533
1724.2437
1763.5779
1817.0547
1773.3014
1783.6941
1796.5352
1741.9742
1139.9181
1120.461
1172.185
1334.3383
1353.0092
1481.9936
1581.5358
1463.4601
1475.4988
1469.2421
1475.4059
1581.16
1603.7397
1596.7637
1574.8369
1560.7769
1457.9865
1438.979
1443.3015
1555.4578
1537.3587
1501.0955
1414.4992
1301.001
152.22529
292.55274
414.95843
525.72316
1149.0892
1151.1354
532.19684
420.0469
296.26392
154.28215
155.1772
299.65797
424.6801
537.53156
1154.3607
1156.1237
538.21298
425.30828
300.24676
155.49214
155.5247
300.15178
425.07193
537.84022
1157.3561
1158.3786
537.0767
424.46522
299.77309
155.48156
155.5398
299.76867
424.41608
536.98083
1159.3786
1160.4817
537.00373
424.41792
299.77623
155.58342
155.71745
300.07745
424.83617
537.50882
1161.6642
1163.0053
537.93483
425.14927
300.28691
155.80661
155.96842
300.71552
425.76617
538.70007
1164.4425
1166.0462
539.29231
426.21032
301.01124
156.07572
156.25609
301.52236
426.95573
540.22737
1167.7922
1169.7049
540.96847
427.51559
301.89422
156.38199
156.58255
302.48201
428.37572
542.04965
1171.7568
1174.0085
542.96501
429.07327
302.94634
156.73465
156.96409
303.63258
430.07906
544.22969
1176.4471
1179.1337
545.3645
430.94777
304.21077
157.15008
157.41105
305.00133
432.10832
546.82499
1182.0099
1185.1089
548.18039
433.14661
305.69119
157.6309
157.92123
306.57368
434.44083
549.80665
1188.3827
1191.8609
551.3593
435.63782
307.37219
158.17605
158.50255
308.36807
437.09932
553.19656
1195.551
1199.4601
554.96346
438.46657
309.28234
158.79468
159.15814
310.39245
440.09664
557.01292
1203.5579
1207.8648
558.98235
441.62605
311.41719
159.48594
159.88256
312.63099
443.40924
561.2244
1212.3209
1216.9153
563.37496
445.08195
313.75197
160.24133
160.66344
315.04016
446.9702
565.74096
1221.5945
1226.3364
568.06908
448.77554
316.24023
161.04544
161.44981
317.48683
450.60709
570.363
1231.0425
1235.5419
572.59992
452.32388
318.62315
161.80674
1254.3636
523.23237
411.48416
290.08752
152.27225
151.96577
289.09835
409.97437
521.24912
1249.8777
1244.9477
519.07083
408.26622
287.94607
151.59906
151.24262
286.82078
406.56267
516.87238
1240.0146
1235.1956
514.7138
404.84891
285.64823
150.85826
150.52299
284.5974
403.26219
512.66768
1230.5481
1226.0631
510.66972
401.67918
283.51475
150.16895
149.86511
282.56037
400.23324
508.79976
1221.734
1217.6086
506.98731
398.79836
281.57862
149.54345
149.27461
280.73113
397.50835
505.31175
1213.6776
1209.9627
503.70704
396.23905
279.86214
148.99014
148.75573
279.11884
395.10054
502.21932
1206.413
1203.065
500.78508
393.96567
278.34011
148.50025
148.29518
277.68997
392.967
499.47641
1199.9212
1196.9644
498.22688
391.97563
277.00629
148.06903
147.89239
276.44854
391.11325
497.08924
1194.2229
1191.8905
496.1101
390.32505
275.89543
147.70439
147.5604
275.44466
389.61808
495.16401
1189.6385
1187.5797
494.29505
388.92199
274.95615
147.39157
147.26513
274.57158
388.31597
493.48031
1185.5582
1183.7189
492.7019
387.69124
274.13025
147.10713
146.99519
273.81172
387.19029
492.02897
1182.049
1180.5374
491.39639
386.67681
273.44163
146.85236
146.75858
273.21
386.31157
490.90218
1179.1792
1177.9597
490.52551
385.99146
272.9628
146.64258
146.59077
272.91827
385.91703
490.4107
1176.8005
1175.9499
490.70634
386.10405
272.99328
146.55459
146.5938
273.33141
386.62962
491.37202
1175.0119
1174.0506
492.01165
387.0582
273.52989
146.58446
146.38719
273.11241
386.56701
491.46687
1172.5812
1170.342
488.04035
383.69985
270.9817
145.72537
144.93535
266.77153
377.88435
481.02172
1167.2445
1158.0675
458.75506
357.66174
251.1423
140.31679
144.76012
267.18378
378.40905
481.59841
1168.6509
1171.0962
488.3463
383.94815
271.13849
145.55229
146.31635
273.28958
386.82209
491.77101
1173.0057
1174.1547
492.0669
387.11399
273.58393
146.51556
146.54904
273.37738
386.69463
491.45053
1175.0481
1175.868
490.59827
386.02742
272.96012
146.50393
146.55907
272.92018
385.92134
490.42202
1176.7854
1177.8211
490.39782
385.88627
272.90337
146.60026
146.72053
273.15316
386.2316
490.81253
1178.9987
1180.3076
491.16686
386.49004
273.327
146.8015
146.94923
273.71066
387.04679
491.86238
1181.735
1183.3355
492.39452
387.44226
273.9731
147.04753
147.21167
274.43418
388.11833
493.24524
1185.0991
1187.0612
493.9336
388.63556
274.77676
147.32912
147.51423
275.31991
389.43654
494.94583
1189.1995
1191.541
495.80377
390.08616
275.75026
147.65567
147.86599
276.38215
391.02002
496.98555
1194.0798
1196.8363
498.03087
391.81725
276.9114
148.03659
148.2772
277.64446
392.90234
499.40535
1199.8125
1203.0188
500.65489
393.8596
278.28046
148.48025
148.75157
279.1133
395.09372
502.21872
1206.423
1210.0325
503.67518
396.20743
279.85091
148.98563
149.28236
280.76157
397.55502
505.3796
1213.8463
1217.8323
506.99762
398.80274
281.59297
149.5483
149.88307
282.61898
400.32206
508.92124
1222.0218
1226.4126
510.74186
401.73144
283.56013
150.18482
150.5518
284.68613
403.39677
512.84797
1230.9692
1235.6893
514.85897
404.95539
285.72763
150.88587
151.28234
286.9365
406.7368
517.10317
1240.5348
1245.4936
519.27352
408.4324
288.07562
151.64824
152.06667
289.37326
410.33899
521.66212
1250.4716
1255.4407
524.01854
412.15997
290.5685
152.44119
152.7621
291.57682
413.66347
525.9525
1260.3514
160.41107
313.79528
445.0896
563.47699
1230.6765
1225.6905
561.25232
443.37888
312.65479
160.04946
159.63163
311.34125
441.41012
558.73633
1220.5138
1215.3876
556.22712
439.40669
309.96302
159.18143
158.77704
308.70306
437.52093
553.81839
1210.4128
1205.5911
551.45796
435.63832
307.40777
158.34917
157.97603
306.2465
433.8947
549.22225
1200.8991
1196.3747
547.04359
432.16012
305.05373
157.58312
157.24435
303.99554
430.56413
544.98806
1192.0029
1188.0031
543.0757
429.03694
302.9411
156.89542
156.59766
302.00483
427.61525
541.23237
1184.046
1180.3063
539.46381
426.20874
301.03635
156.27904
156.01591
300.20688
424.94716
537.82601
1176.7358
1173.3643
536.24863
423.69252
299.34101
155.7301
155.50099
298.62018
422.59258
534.81631
1170.2362
1167.3606
533.47303
421.52016
297.87517
155.25222
155.05872
297.26908
420.5887
532.25182
1164.6644
1162.1749
531.0985
419.66688
296.62582
154.84092
154.67847
296.12425
418.89102
530.07514
1159.8957
1157.79
529.10404
418.11265
295.57702
154.48827
154.35179
295.16876
417.47591
528.2576
1155.8833
1154.1262
527.45243
416.82701
294.70726
154.18394
154.0682
294.38377
416.31803
526.76944
1152.5676
1151.1698
526.14565
415.80869
294.01292
153.92079
153.82548
293.78686
415.44747
525.65159
1149.8936
1148.7731
525.29547
415.14384
293.54901
153.7058
153.65695
293.53758
415.11194
525.22559
1147.7029
1146.9481
525.60261
415.37228
293.66488
153.62389
153.67012
294.09035
416.01427
526.3944
1146.1245
1145.2681
527.08605
416.49697
294.32849
153.62938
153.35145
293.97292
416.08496
526.62329
1144.1292
1142.4737
523.15748
413.19646
291.85244
152.49668
151.45293
288.70673
408.46069
517.1145
1140.5245
1150.3209
526.46486
415.77567
293.21524
151.36842
154.06793
295.74176
419.38806
531.49717
1150.6799
1153.7721
537.19444
424.40321
299.45006
155.02471
155.44917
300.17604
425.18157
538.0198
1155.3581
1156.591
537.44069
424.73989
299.91941
155.42509
155.45085
299.70353
424.34479
536.8926
1157.6283
1158.6899
536.57899
424.0779
299.53132
155.44889
155.55686
299.70335
424.29334
536.81638
1159.821
1161.0192
537.11156
424.50396
299.84539
155.63241
155.78574
300.22487
425.0419
537.76983
1162.3659
1163.8241
538.3271
425.4503
300.49301
155.88779
156.05549
300.9486
426.10459
539.13356
1165.401
1167.1531
539.84338
426.6317
301.2948
156.17506
156.36175
301.82974
427.40835
540.81001
1169.0848
1171.1588
541.66284
428.05168
302.25528
156.50265
156.71696
302.88826
428.97599
542.81993
1173.4426
1175.9031
543.87126
429.7769
303.42009
156.88924
157.13668
304.16335
430.86442
545.23454
1178.6186
1181.5428
546.52283
431.84826
304.81648
157.3456
157.6263
305.66675
433.09302
548.08254
1184.704
1188.0712
549.5819
434.24748
306.43658
157.87206
158.19047
307.40784
435.67358
551.37467
1191.6692
1195.4471
553.09409
436.99867
308.29119
158.47195
158.8213
309.35718
438.56276
555.05776
1199.4161
1203.5579
556.96398
440.0382
310.34368
159.13681
159.52139
311.51657
441.75881
559.12344
1207.8808
1212.3905
561.21708
443.3902
312.61279
159.87364
160.2979
313.90841
445.29206
563.6052
1217.0923
1221.9312
565.89213
447.07765
315.10897
160.68386
161.13422
316.48637
449.0981
568.42396
1226.8956
1231.871
570.87837
451.00402
317.75502
161.53758
161.95888
319.04889
452.90668
573.26373
1236.7659
1241.3918
575.5434
454.65158
320.20094
162.32164
160.39554
313.74579
445.0136
563.37672
1230.435
1225.6426
561.22802
443.35347
312.63394
160.04129
159.62822
311.33378
441.40207
558.73022
1220.5373
1215.468
556.2326
439.40805
309.9625
159.18083
158.77789
308.70545
437.52568
553.82632
1210.4597
1205.6276
551.44286
435.62574
307.39953
158.34724
157.97415
306.23925
433.88532
549.21247
1200.9106
1196.4149
547.02212
432.14179
305.04099
157.5797
157.24449
303.99591
430.56826
544.99861
1192.0827
1187.9731
543.01459
428.99138
302.91247
156.88762
156.59091
301.98342
427.58617
541.19946
1184.0142
1180.2949
539.4252
426.17675
301.01408
156.27207
156.01209
300.19592
424.93359
537.81243
1176.739
1173.4291
536.25722
423.69535
299.34097
155.72967
155.50541
298.63539
422.61779
534.85182
1170.3398
1167.5617
533.53957
421.56819
297.90541
155.2615
155.07317
297.31466
420.65859
532.34375
1164.8881
1162.4501
531.20993
419.75073
296.68068
154.85857
154.69978
296.18995
418.98994
530.20283
1160.1859
1158.1726
529.27377
418.24082
295.66081
154.51513
154.38096
295.25736
417.60767
528.4253
1156.2508
1154.5101
527.64446
416.97309
294.80369
154.2155
154.10052
294.48094
416.46243
526.95319
1152.9729
1151.5365
526.30651
415.93383
294.09739
153.94952
153.85204
293.86443
415.56225
525.79725
1150.2149
1149.0384
525.40774
415.23133
293.60848
153.72686
153.679
293.60253
415.21034
525.35427
1148.0199
1147.2191
525.69803
415.4462
293.71516
153.64183
153.68984
294.14874
416.10169
526.50801
1146.4138
1145.5932
527.20073
416.5856
294.38923
153.65108
153.36194
294.01312
416.1497
526.70912
1144.4099
1142.7141
523.1749
413.21551
291.87873
152.51123
151.32729
288.6183
408.4134
517.08752
1141.0971
1170.2715
482.88695
379.75357
268.24466
144.36157
145.58228
271.19138
383.92764
488.31062
1171.4202
1173.5121
491.94752
386.94271
273.35211
146.30177
146.59741
273.80507
387.41841
492.42341
1174.7286
1175.6461
491.63185
386.8123
273.44565
146.57003
146.58082
273.17279
386.33406
490.96758
1176.4519
1177.3496
490.57063
386.01219
272.97031
146.57585
146.67055
273.0962
386.16145
490.72427
1178.4036
1179.5572
490.94366
386.31895
273.2063
146.73888
146.88133
273.55342
386.81489
491.55476
1180.874
1182.3401
492.06359
387.18533
273.79589
146.97613
147.12841
274.2066
387.7792
492.79999
1183.9569
1185.7145
493.44749
388.25624
274.5181
147.23714
147.4044
274.99563
388.95159
494.3137
1187.6176
1189.7062
495.11584
389.54772
275.38497
147.53276
147.71999
275.93718
390.35528
496.12531
1191.9827
1194.4655
497.09105
391.08099
276.41363
147.87324
148.08772
277.05984
392.03058
498.28367
1197.1406
1200.0363
499.43019
392.89898
277.63212
148.26976
148.5143
278.37776
393.9993
500.81844
1203.1803
1206.5212
502.13088
395.0056
279.04616
148.72717
149.00832
279.91072
396.28729
503.75618
1210.0877
1213.863
505.26722
397.45012
280.68436
149.25474
149.56998
281.65253
398.88527
507.08668
1217.8429
1222.0236
508.79486
400.20686
282.53493
149.85279
150.20356
283.61243
401.80296
510.81717
1226.3951
1230.9366
512.71551
403.27493
284.59666
150.51879
150.89812
285.76072
404.99529
514.8902
1235.6182
1240.3997
516.9422
406.59174
286.83019
151.24224
151.64282
288.06214
408.40731
519.22563
1245.2375
1250.0638
521.43772
410.11207
289.18752
151.99411
152.35246
290.29387
411.74519
523.49178
1254.7958
1259.413
525.60644
413.35938
291.35622
152.68795
1240.994
575.11631
454.3161
319.97532
162.24997
161.88759
318.8404
452.61098
572.91204
1236.3167
1231.6595
570.66782
450.82724
317.6205
161.48924
161.09625
316.37391
448.93834
568.2258
1226.6566
1221.7046
565.85018
447.04005
315.06788
160.66747
160.28055
313.8559
445.21269
563.49703
1216.9442
1212.2723
561.24947
443.41693
312.61788
159.8733
159.51519
311.49312
441.71839
559.05869
1207.7648
1203.4251
556.99671
440.0712
310.35644
159.14093
158.81854
309.34221
438.53488
555.00912
1199.3177
1195.4126
553.18803
437.07698
308.33257
158.48496
158.20244
307.4391
435.71557
551.41597
1191.7381
1188.2403
549.80518
434.42482
306.54291
157.90567
157.65961
305.76367
433.23139
548.24407
1184.9846
1181.8918
546.82375
432.09293
304.9709
157.39563
157.18268
304.29744
431.05619
545.46136
1179.0116
1176.3014
544.21087
430.05329
303.5967
156.94714
156.76618
303.03036
429.17787
543.05668
1173.83
1171.5454
542.0101
428.335
302.43647
156.56221
156.41156
301.97381
427.6134
541.05085
1169.4827
1167.5663
540.18237
426.91065
301.4736
156.23383
156.10634
301.09734
426.31782
539.38664
1165.8457
1164.2389
538.66692
425.73105
300.67357
155.94706
155.83704
300.37574
425.25777
538.0256
1162.8138
1161.4996
537.53348
424.8418
300.06031
155.70112
155.61963
299.89165
424.56386
537.13999
1160.401
1159.3115
537.0208
424.43871
299.7657
155.52427
155.52126
299.91907
424.65383
537.26405
1158.308
1157.2862
537.92009
425.13392
300.17978
155.50767
155.52702
300.43435
425.5471
538.45473
1156.0764
1154.4362
537.72897
424.83094
299.72988
155.10506
154.14503
296.17161
419.92181
532.07756
1151.2143
1150.5144
526.97137
416.24846
293.60096
151.55675
152.13113
292.79287
415.27076
526.04672
1149.4171
1151.1543
532.28036
420.13109
296.33005
154.17936
155.07663
299.5816
424.56297
537.3683
1153.9983
1155.546
538.1056
425.22806
300.1899
155.42595
155.45891
300.04023
424.89271
537.59097
1156.6751
1157.6589
536.93569
424.35883
299.70048
155.43475
155.4844
299.64304
424.21754
536.71152
1158.6854
1159.7933
536.80822
424.27082
299.67849
155.53902
155.66744
299.94808
424.63301
537.23535
1160.9737
1162.2692
537.74764
425.00417
300.18725
155.7653
155.91519
300.56673
425.53614
538.39515
1163.7035
1165.2531
539.07675
426.04015
300.89315
156.03075
156.19929
301.35584
426.69959
539.88979
1166.9899
1168.9153
540.73249
427.33145
301.76832
156.33661
156.53169
302.32996
428.14125
541.73954
1171.0163
1173.3213
542.77099
428.92121
302.84162
156.69707
156.92191
303.50521
429.88194
543.96798
1175.8219
1178.5424
545.21882
430.83303
304.1307
157.12114
157.37741
304.89739
431.94616
546.60872
1181.4912
1184.6644
548.06498
433.06325
305.63701
157.61242
157.90736
306.52953
434.36543
549.69701
1188.0513
1191.6562
551.37787
435.65546
307.38304
158.17745
158.50082
308.36387
437.08648
553.17053
1195.4174
1199.3797
555.03505
438.52433
309.31873
158.80413
159.16252
310.40639
440.11325
557.02741
1203.532
1207.8778
559.07521
441.70153
311.46634
159.50097
159.89757
312.67188
443.46439
561.28648
1212.396
1217.0942
563.52633
445.21006
313.84149
160.27246
160.70678
315.16024
447.13683
565.93991
1221.9355
1226.9161
568.3723
449.03935
316.4376
161.11688
161.57877
317.85108
451.09893
570.93911
1231.9973
1237.0371
573.5684
453.13472
319.19138
162.00156
162.34723
320.26486
454.71876
575.58666
1241.6788
1185.3512
1198.2713
1185.3488
1198.2541
1229.7201
1199.7377
1178.5481
1214.9757
1232.1594
1199.7564
1263.8303
1284.3169
1232.1627
1258.2015
1303.9176
1298.0822
1284.6191
1369.5385
1382.9337
1451.6199
1336.8895
1322.8555
1443.9626
1495.1603
1349.0402
1255.3949
1282.2346
1365.8092
1340.6222
1353.0853
1316.6865
1396.0936
1384.5329
1456.9526
1462.7641
1512.717
1377.6171
1392.3569
1380.3746
1377.968
1362.8025
1502.3509
1525.1778
1517.8688
1363.779
1362.0704
1347.9209
1332.9237
1480.7559
1488.5047
1511.1504
1503.3115
1498.1042
1469.7673
1343.596
1346.3767
1346.3675
1215.6089
1139.9175
1120.4575
1147.391
1185.1301
1139.1568
515.00291
406.70463
287.4666
151.53627
152.49688
290.9855
411.89565
521.55846
1140.8621
1142.6669
525.20833
414.89178
293.13298
153.22592
153.56779
293.8174
415.74217
526.16776
1143.9769
1145.0408
525.50522
415.25326
293.54925
153.55525
153.57268
293.34749
414.88929
525.00284
1146.0117
1147.0727
524.62043
414.58844
293.16457
153.56483
153.67814
293.37365
414.86615
524.94646
1148.2287
1149.509
525.24859
415.08458
293.52337
153.75327
153.90703
293.91441
415.64258
525.93413
1150.8929
1152.4023
526.46671
416.04055
294.18049
154.00769
154.17837
294.65445
416.73037
527.33074
1154.0443
1155.7965
527.98665
417.22719
294.98662
154.29397
154.48403
295.53869
418.03677
529.00704
1157.7367
1159.8559
529.82063
418.65845
295.955
154.62271
154.84009
296.60399
419.61408
531.02765
1162.1518
1164.6429
532.04008
420.38789
297.11969
155.00728
155.24977
297.85173
421.46508
533.39908
1167.3284
1170.2099
534.59854
422.39104
298.47241
155.4498
155.72995
299.32689
423.65109
536.19042
1173.3298
1176.6515
537.6257
424.7574
300.06594
155.9663
156.27616
301.01243
426.1503
539.37998
1180.1539
1183.8805
541.02742
427.42191
301.86195
156.54759
156.88957
302.90697
428.95911
542.96164
1187.7722
1191.8524
544.79542
430.38222
303.86131
157.19575
157.57502
305.02047
432.08768
546.94192
1196.1515
1200.6304
548.96536
433.66891
306.08564
157.91828
158.33716
307.36664
435.55422
551.33932
1205.287
1210.0931
553.57694
437.30145
308.54208
158.71578
159.16129
309.90096
439.29361
556.07159
1215.0126
1220.0108
558.50493
441.1901
311.16811
159.5668
159.99886
312.49418
443.14244
560.95421
1225.025
1229.9937
563.30698
444.94564
313.68419
160.37288
159.87789
312.14804
442.64139
560.35544
1224.0708
1219.5596
558.29542
441.03533
311.0627
159.53133
159.13514
309.81546
439.1616
555.89609
1214.7015
1209.855
553.52454
437.26365
308.5062
158.70502
158.32571
307.32768
435.49657
551.26155
1205.188
1200.6555
549.09476
433.76146
306.1293
157.93017
157.58719
305.05524
432.14083
547.00426
1196.3497
1192.139
544.99017
430.53355
303.94779
157.22289
156.91253
302.9725
429.05596
543.07706
1188.0693
1184.2485
541.27892
427.62016
301.98165
156.58621
156.31308
301.11861
426.30337
539.56257
1180.5463
1177.021
537.92844
425.00012
300.21859
156.01642
155.77359
299.45167
423.82892
536.39935
1173.7034
1170.5946
534.96635
422.68218
298.65545
155.50949
155.30152
298.00003
421.67577
533.64591
1167.73
1165.0593
532.4559
420.71577
297.32689
155.07479
154.90312
296.78912
419.88209
531.35071
1162.7407
1160.4331
530.27522
419.02065
296.18669
154.6985
154.54882
295.72646
418.30518
529.32515
1158.2763
1156.3215
528.42589
417.57835
295.21136
154.36794
154.23871
294.82799
416.97746
527.62107
1154.5175
1152.9686
526.91607
416.39691
294.40647
154.08128
153.9722
294.10541
415.91891
526.26624
1151.4947
1150.094
525.67095
415.42635
293.74254
153.82591
153.74349
293.56332
415.14222
525.28136
1148.8606
1147.7486
525.1299
414.98895
293.41828
153.64875
153.65329
293.57636
415.22405
525.41203
1146.7777
1145.8466
526.08276
415.70816
293.84082
153.6592
153.6791
294.10337
416.16527
526.69231
1144.8173
1143.3783
525.98632
415.48822
293.50595
153.38702
152.71426
291.44572
412.6105
522.47996
1141.2787
1138.3189
516.05497
407.34907
287.73424
151.77609
149.29725
279.60193
396.06554
502.9126
1132.1444
1147.1552
538.69025
426.63895
301.65751
159.74846
151.5435
293.25784
415.66058
526.11254
1148.8493
1149.0432
530.41019
418.55387
295.21843
154.06836
155.03656
299.1515
423.92068
536.54956
1152.5678
1154.4154
537.27214
424.56241
299.75417
155.39315
155.43733
299.75002
424.47056
537.08026
1155.8702
1157.0407
536.40433
423.92982
299.41333
155.40073
155.4617
299.44575
423.93757
536.37975
1158.2044
1159.3698
536.46193
423.98037
299.47727
155.50627
155.63523
299.77556
424.38977
536.94689
1160.5443
1161.8435
537.4306
424.7391
300.00402
155.72544
155.87971
300.41427
425.32268
538.14388
1163.3475
1165.0075
538.76572
425.78905
300.72452
155.9895
156.17234
301.248
426.55142
539.71912
1166.7868
1168.7206
540.49752
427.13998
301.63838
156.30269
156.50627
302.23729
428.01446
541.59402
1170.8491
1173.2232
542.55574
428.74742
302.72523
156.6651
156.90085
303.43381
429.7878
543.86534
1175.7528
1178.4849
545.0202
430.67439
304.02572
157.09137
157.36034
304.84224
431.87434
546.53152
1181.4482
1184.634
547.90379
432.93376
305.55119
157.58738
157.89288
306.48512
434.3094
549.63956
1188.0405
1191.6282
551.22615
435.53619
307.30531
158.15476
158.48997
308.33073
437.04547
553.12967
1195.4101
1199.369
554.90653
438.42463
309.25519
158.78589
159.15636
310.38823
440.09019
557.00251
1203.4842
1207.8154
559.00158
441.64243
311.42862
159.48948
159.89166
312.65808
443.44786
561.27019
1212.3439
1217.0174
563.42811
445.13494
313.79402
160.25679
160.69396
315.13043
447.09674
565.89249
1221.79
1226.637
568.23307
448.92876
316.36357
161.09068
161.55103
317.75911
450.95515
570.74661
1231.4466
1236.1113
573.37846
452.99109
319.10611
161.98066
162.32691
320.16005
454.46291
575.2018
1240.5163
159.85842
312.08329
442.54927
560.24067
1223.8354
1219.3999
558.18711
440.94035
310.99157
159.50685
159.10907
309.74766
439.0718
555.79396
1214.5908
1209.7903
553.47484
437.21684
308.46987
158.68854
158.32071
307.32003
435.48652
551.25112
1205.2021
1200.7113
549.10704
433.77469
306.14174
157.9337
157.59973
305.09221
432.18881
547.05917
1196.4055
1192.1606
545.02871
430.57642
303.98601
157.23799
156.9325
303.02089
429.11795
543.14542
1188.0809
1184.1853
541.26375
427.62012
301.98916
156.5948
156.31317
301.10987
426.29115
539.54791
1180.4591
1176.9349
537.84401
424.93653
300.17621
156.00352
155.76018
299.41482
423.77914
536.34217
1173.6033
1170.4717
534.91575
422.63976
298.62494
155.49868
155.29437
297.98039
421.6502
533.61814
1167.6969
1165.1015
532.4192
420.68768
297.3083
155.06886
154.89741
296.76966
419.85364
531.31565
1162.6747
1160.3398
530.20143
418.96626
296.15233
154.68908
154.53728
295.6855
418.24449
529.24905
1158.123
1156.1311
528.30036
417.48335
295.14977
154.35073
154.22177
294.76871
416.89158
527.51574
1154.3214
1152.7493
526.76335
416.28083
294.33052
154.06045
153.95268
294.03374
415.81459
526.13758
1151.2524
1149.8864
525.52737
415.31466
293.66806
153.80686
153.72739
293.49515
415.0426
525.15833
1148.6269
1147.5951
525.01442
414.89811
293.35749
153.63688
153.64488
293.51881
415.13771
525.30386
1146.5726
1145.6354
525.94775
415.60429
293.77373
153.65112
153.67559
294.03903
416.06468
526.56422
1144.5803
1143.0913
525.88348
415.40991
293.4611
153.39402
152.72909
291.42719
412.56571
522.41549
1141.114
1138.2476
516.10294
407.3986
287.78392
151.80372
149.52372
280.47333
397.14093
504.06921
1132.4049
1158.1021
463.01895
361.65443
254.26672
141.8105
154.61395
289.73938
410.24043
519.55084
1144.1085
1146.9673
521.05923
411.79187
291.33303
155.06844
151.38746
287.58071
406.95584
515.35474
1139.6558
1141.1058
521.65522
411.96283
291.03504
152.47048
153.2475
293.28622
415.12626
525.49392
1142.8359
1144.0943
526.16961
415.72558
293.79651
153.53539
153.58623
293.68463
415.44392
525.72338
1145.128
1146.0429
524.97365
414.85002
293.31241
153.54496
153.60016
293.29139
414.76471
524.81823
1147.0605
1148.1892
524.90106
414.8108
293.32593
153.65116
153.78249
293.61609
415.20566
525.36851
1149.4385
1150.8174
525.8603
415.56775
293.85583
153.88016
154.04049
294.27835
416.17075
526.6029
1152.3363
1153.9805
527.25775
416.6602
294.60117
154.15529
154.33227
295.09916
417.38006
528.15327
1155.7591
1157.6896
528.96523
417.98779
295.49724
154.46476
154.65642
296.05342
418.79383
529.96971
1159.7741
1162.0656
530.9329
419.52324
296.53484
154.81278
155.03498
297.19575
420.48635
532.13712
1164.5022
1167.1828
533.31033
421.37946
297.78569
155.22362
155.47554
298.54316
422.4852
534.69577
1170.067
1173.213
536.06658
423.53987
299.24531
155.69992
155.99322
300.13688
424.84775
537.71183
1176.5422
1180.095
539.30951
426.07878
300.95626
156.25428
156.57968
301.94717
427.53178
541.13528
1183.8459
1187.7806
542.94336
428.92638
302.87576
156.87569
157.23234
303.96061
430.51431
544.93323
1191.8773
1196.172
546.94363
432.06947
304.99838
157.56406
157.95519
306.1882
433.81141
549.12645
1200.6912
1205.3679
551.30293
435.50902
307.32827
158.3218
158.75484
308.64688
437.44113
553.72593
1210.2077
1215.1682
556.11107
439.30613
309.90096
159.15864
159.62321
311.31348
441.3648
558.67331
1220.2506
1225.3472
561.31117
443.41559
312.67022
160.05439
160.41233
313.79236
445.08112
563.44356
1230.3326
1261.0653
526.10981
413.74428
291.60665
152.76663
152.438
290.54898
412.12571
523.98025
1255.9768
1250.6835
521.66525
410.30822
289.32251
152.0432
151.66273
288.12392
408.49546
519.3281
1245.467
1240.3487
517.05583
406.68979
286.8882
151.2583
150.89827
285.75986
404.98532
514.85822
1235.4136
1230.6553
512.76458
403.3226
284.62105
150.52494
150.19772
283.59185
401.76188
510.74425
1226.0669
1221.7822
508.86349
400.26673
282.56572
149.86082
149.56741
281.63844
398.8531
507.02384
1217.5329
1213.4749
505.26946
397.46303
280.68645
149.25583
148.99217
279.85261
396.19032
503.61161
1209.6149
1205.9792
502.05075
394.95216
279.00213
148.71279
148.48256
278.27334
393.83518
500.59031
1202.5491
1199.3935
499.25502
392.77204
277.53883
148.23932
148.04522
276.92497
391.82473
498.00805
1196.4652
1193.6861
496.90662
390.9415
276.30909
147.83825
147.677
275.80159
390.14959
495.85175
1191.331
1189.0306
494.92872
389.40657
275.27954
147.498
147.36153
274.85763
388.74189
494.03462
1186.9529
1184.9625
493.20529
388.07749
274.39019
147.19719
147.07471
274.02765
387.50587
492.43643
1183.0698
1181.4031
491.74558
386.9457
273.6262
146.92473
146.81803
273.33775
386.48917
491.12775
1179.8699
1178.4953
490.65422
386.0912
273.03848
146.68968
146.60964
272.87208
385.82148
490.27624
1177.3314
1176.1839
490.15871
385.69722
272.74892
146.51863
146.51099
272.88224
385.89513
490.39575
1175.1559
1174.2091
491.05656
386.36841
273.13788
146.50333
146.5238
273.40254
386.81526
491.65263
1173.2055
1172.0282
491.11997
386.28105
272.88498
146.22079
145.56227
270.58586
383.02854
487.21348
1169.9601
1169.0037
481.84376
378.87234
267.57113
144.27235
1159.4003
457.66061
356.96506
250.7799
139.66591
144.74999
266.15551
376.84685
479.67289
1166.8367
1169.2008
486.8904
382.80163
270.39657
145.53007
146.26898
272.69383
385.92524
490.6475
1171.2769
1172.6731
491.2458
386.45276
273.13696
146.47509
146.51074
273.03163
386.1829
490.81313
1173.8314
1174.8611
490.16487
385.66675
272.70873
146.47463
146.52319
272.68639
385.57842
489.99823
1175.9708
1177.1503
490.06673
385.61875
272.72045
146.57108
146.69666
273.00677
386.01395
490.53838
1178.4265
1179.8206
491.0034
386.35435
273.23161
146.78755
146.93557
273.62441
386.91666
491.69514
1181.359
1183.0266
492.33636
387.38597
273.92884
147.04222
147.20009
274.37116
388.02276
493.12119
1184.8096
1186.7824
493.90001
388.59908
274.746
147.32403
147.50165
275.26415
389.35248
494.83753
1188.9539
1191.3045
495.75394
390.04296
275.71803
147.64832
147.85523
276.3389
390.954
496.89839
1193.8595
1196.5938
498.0065
391.79024
276.8875
148.02938
148.2602
277.58611
392.81413
499.2899
1199.5147
1202.6924
500.59303
393.80246
278.23642
148.46563
148.72746
279.03574
394.9791
502.07368
1206.0852
1209.6509
503.53581
396.0995
279.77799
148.96284
149.25931
280.68684
397.44083
505.22938
1213.4219
1217.3773
506.88878
398.71547
281.53203
149.52768
149.85359
282.52987
400.18653
508.74438
1221.5342
1225.9095
510.58422
401.6079
283.47672
150.15558
150.51828
284.58948
403.25082
512.65866
1230.4662
1235.2067
514.68704
404.82209
285.63777
150.85335
151.24811
286.84631
406.60287
516.93012
1240.0979
1245.1158
519.14478
408.32509
287.99802
151.61719
152.04174
289.29601
410.2279
521.52428
1250.2283
1255.3421
523.97274
412.12142
290.54052
152.43507
152.76031
291.56544
413.64719
525.93356
1260.3326
162.31562