/*--------------------------------*- C++ -*----------------------------------*\
  =========                 |
  \\      /  F ield         | OpenFOAM: The Open Source CFD Toolbox
   \\    /   O peration     | Website:  https://openfoam.org
    \\  /    A nd           | Version:  7
     \\/     M anipulation  |
\*---------------------------------------------------------------------------*/
FoamFile
{
    version     2.0;
    format      ascii;
    class       volScalarField;
    location    "140";
    object      p;
}
// * * * * * * * * * * * * * * * * * * * * * * * * * * * * * * * * * * * * * //

dimensions      [1 -1 -2 0 0 0 0];

internalField   nonuniform List<scalar> 
25201
(
101315.39
101314.75
101315.42
101314.86
101314.1
101314.04
101314.18
101314.34
101314.07
101313.78
101314.05
101313.98
101313.69
101318.14
101319.4
101312.81
101314.24
101314.55
101311.27
101317.11
101313.88
101315.16
101312.73
101317.68
101317.16
101315.22
101314.49
101314.2
101315.39
101315.27
101315.64
101313.21
101321.81
101320.28
101318.54
101319.86
101314.49
101316.31
101321.48
101322.77
101315.95
101316.79
101316.5
101322.76
101323.55
101323.03
101319.29
101317.35
101314.16
101313.84
101313.7
101313.83
101315.4
101315.11
101314.52
101313.94
101314.15
101315.8
101314.95
101317.02
101313.44
101316.53
101315.4
101315.55
101313.07
101313.07
101313.1
101313.92
101315.73
101316.4
101318.12
101314.66
101316.21
101315.19
101315.75
101318.96
101315.7
101316.22
101318.61
101316.65
101317.11
101314.96
101319.22
101317.54
101320.1
101315.69
101319.21
101318.5
101315.59
101316.48
101313.93
101321.47
101318.57
101320.65
101318.43
101312.32
101312.74
101319.08
101321.01
101321.18
101320.47
101321.67
101322.73
101322.51
101320.44
101324.39
101323.61
101318.45
101321.83
101322.49
101318.6
101318.05
101323.48
101322.96
101326.8
101327.75
101325.44
101327.09
101327.34
101323.91
101320.43
101328.24
101324.84
101326.86
101328.86
101323.09
101323.11
101321.73
101316.35
101320.98
101322.24
101323.08
101323
101322.2
101321.36
101319.8
101318.99
101318.97
101316.39
101313.98
101313.87
101315.37
101316.99
101313.31
101315.57
101314.88
101315.11
101314.47
101313.65
101313.05
101313.07
101315.52
101315.76
101313.96
101313.12
101313.24
101313.79
101313.89
101315.89
101315.07
101318.16
101314.45
101315.56
101316.83
101314.63
101316.25
101318.26
101316.12
101322.01
101319.62
101320.05
101317.5
101317.04
101316.97
101316.71
101318.52
101317.06
101318.72
101324.18
101321.12
101323.64
101317.34
101321.36
101325.63
101321.7
101327.33
101323.06
101327.49
101327.13
101328.39
101325.51
101323.99
101324.04
101318.51
101321.35
101313.73
101315.07
101327.13
101327.93
101319.96
101322.1
101320.4
101324.21
101318.27
101320.25
101322.38
101323.62
101323.43
101318.28
101324.76
101326.76
101328.83
101323.06
101325.34
101322.62
101322.41
101314.87
101315.42
101313.07
101314.25
101315.41
101316.53
101320.32
101315.74
101315.33
101315.95
101316.81
101323.54
101322.76
101321.82
101322.75
101321.48
101316.36
101314.52
101313.35
101318.61
101319.86
101318.51
101315.21
101314.33
101335.5
101335.84
101336.02
101336.92
101354.51
101400.97
101399.6
101398.71
101397.75
101396.98
101366.86
101366.92
101366.85
101366.96
101369.48
101366.27
101365.42
101365.29
101365.18
101365.11
101353.24
101353.27
101353.3
101353.38
101354.4
101348.17
101347.48
101347.42
101347.38
101347.35
101341.19
101341.22
101341.25
101341.3
101341.85
101337.26
101336.9
101336.86
101336.83
101336.81
101332.96
101332.98
101333
101333.03
101333.29
101330.09
101329.91
101329.89
101329.87
101329.86
101327.21
101327.22
101327.23
101327.25
101327.37
101325.07
101324.99
101324.98
101324.97
101324.96
101323.03
101323.03
101323.04
101323.05
101323.1
101321.37
101321.35
101321.35
101321.34
101321.34
101319.85
101319.85
101319.85
101319.86
101319.85
101318.5
101318.52
101318.52
101318.51
101318.51
101317.3
101317.31
101317.31
101317.31
101317.27
101316.14
101316.19
101316.19
101316.19
101316.19
101315.17
101315.17
101315.17
101315.17
101315.1
101314.13
101314.2
101314.2
101314.21
101314.21
101313.27
101313.27
101313.27
101313.26
101313.18
101312.28
101312.38
101312.38
101312.38
101312.38
101311.54
101311.54
101311.54
101311.53
101311.42
101310.53
101310.64
101310.65
101310.65
101310.65
101309.78
101309.78
101309.78
101309.77
101309.66
101308.79
101308.92
101308.92
101308.93
101308.93
101308.06
101308.06
101308.06
101308.05
101307.91
101306.97
101307.12
101307.13
101307.13
101307.13
101306.03
101306.04
101306.04
101306.03
101305.91
101305.02
101305.07
101305.06
101305.05
101305.04
101304.66
101304.65
101304.64
101304.62
101304.35
101302.94
101303.13
101303.14
101303.15
101303.15
101303.03
101303.36
101303.39
101303.41
101303.44
101304.79
101304.78
101304.76
101304.73
101304.4
101305.08
101305.07
101305.07
101305.05
101305.03
101305.76
101305.78
101305.78
101305.79
101305.8
101306.88
101307.03
101307.04
101307.04
101307.04
101307.98
101307.98
101307.98
101307.98
101307.84
101308.72
101308.84
101308.84
101308.84
101308.84
101309.7
101309.71
101309.7
101309.7
101309.58
101310.47
101310.6
101310.61
101310.61
101310.61
101311.49
101311.48
101311.48
101311.47
101311.35
101312.22
101312.31
101312.32
101312.32
101312.32
101313.19
101313.19
101313.19
101313.19
101313.12
101314.06
101314.13
101314.14
101314.14
101314.14
101315.08
101315.09
101315.08
101315.08
101315.03
101316.05
101316.08
101316.08
101316.08
101316.08
101317.16
101317.16
101317.16
101317.16
101317.15
101318.36
101318.34
101318.34
101318.34
101318.33
101319.63
101319.64
101319.64
101319.64
101319.69
101321.18
101321.09
101321.09
101321.08
101321.08
101322.71
101322.71
101322.72
101322.73
101322.85
101324.77
101324.6
101324.59
101324.58
101324.57
101326.71
101326.72
101326.74
101326.75
101326.99
101329.61
101329.29
101329.26
101329.25
101329.23
101332.16
101332.18
101332.2
101332.23
101332.68
101336.47
101335.85
101335.81
101335.79
101335.77
101339.83
101339.86
101339.89
101339.94
101340.83
101346.76
101345.62
101345.55
101345.52
101345.48
101350.91
101350.95
101350.98
101351.06
101352.6
101363.19
101361.48
101361.37
101361.32
101361.26
101365.44
101365.5
101365.54
101365.67
101367.67
101390.62
101384.38
101383.84
101383.45
101383.12
101364.27
101365.32
101366.11
101366.82
101371.9
101391.25
101270.21
101254.32
101239.01
101221.77
101407.58
101408.61
101409.8
101410.62
101412.17
101414.75
101409.19
101408.76
101408.49
101408.34
101382.73
101382.7
101382.72
101382.76
101383.37
101373.85
101372.9
101372.85
101372.83
101372.83
101359.02
101359.02
101359.02
101359.05
101359.98
101352.09
101351.39
101351.36
101351.34
101351.34
101344.2
101344.21
101344.22
101344.24
101344.79
101339.49
101339.14
101339.12
101339.11
101339.1
101334.75
101334.75
101334.76
101334.78
101335.02
101331.45
101331.3
101331.29
101331.28
101331.28
101328.34
101328.35
101328.35
101328.36
101328.46
101325.96
101325.9
101325.89
101325.89
101325.88
101323.78
101323.78
101323.78
101323.79
101323.82
101321.97
101321.97
101321.97
101321.97
101321.96
101320.37
101320.37
101320.37
101320.37
101320.35
101318.91
101318.95
101318.95
101318.95
101318.95
101317.68
101317.68
101317.68
101317.68
101317.62
101316.44
101316.52
101316.52
101316.52
101316.52
101315.45
101315.46
101315.45
101315.45
101315.36
101314.35
101314.44
101314.45
101314.45
101314.45
101313.51
101313.51
101313.51
101313.5
101313.39
101312.49
101312.62
101312.63
101312.64
101312.64
101311.77
101311.77
101311.76
101311.75
101311.59
101310.66
101310.82
101310.83
101310.83
101310.83
101309.88
101309.88
101309.88
101309.87
101309.74
101308.84
101308.97
101308.97
101308.98
101308.97
101308.08
101308.09
101308.08
101308.08
101307.94
101306.96
101307.12
101307.12
101307.12
101307.12
101305.81
101305.83
101305.84
101305.85
101305.86
101305.11
101305.11
101305.1
101305.09
101305.07
101304.91
101304.89
101304.88
101304.85
101304.51
101303.29
101303.73
101303.76
101303.79
101303.81
101301.93
101301.92
101301.91
101301.9
101301.7
101301.89
101301.89
101301.88
101301.87
101301.71
101303.31
101303.62
101303.64
101303.66
101303.68
101304.6
101304.6
101304.59
101304.58
101304.38
101305.14
101305.25
101305.25
101305.25
101305.24
101305.88
101305.89
101305.9
101305.91
101305.88
101306.99
101307.14
101307.14
101307.15
101307.15
101308.12
101308.12
101308.11
101308.11
101307.97
101308.87
101309
101309
101309.01
101309.01
101309.91
101309.91
101309.9
101309.9
101309.77
101310.69
101310.82
101310.83
101310.84
101310.84
101311.75
101311.75
101311.74
101311.73
101311.61
101312.51
101312.62
101312.63
101312.63
101312.63
101313.51
101313.51
101313.5
101313.5
101313.41
101314.36
101314.44
101314.45
101314.45
101314.45
101315.46
101315.46
101315.45
101315.45
101315.38
101316.46
101316.52
101316.53
101316.53
101316.53
101317.69
101317.7
101317.69
101317.69
101317.64
101318.94
101318.97
101318.98
101318.98
101318.98
101320.39
101320.39
101320.39
101320.39
101320.38
101322.01
101322
101322
101322
101322
101323.82
101323.83
101323.83
101323.83
101323.86
101326.02
101325.95
101325.95
101325.95
101325.94
101328.42
101328.42
101328.43
101328.44
101328.54
101331.56
101331.4
101331.39
101331.38
101331.38
101334.89
101334.9
101334.91
101334.93
101335.17
101339.7
101339.35
101339.33
101339.32
101339.31
101344.52
101344.53
101344.54
101344.57
101345.12
101352.64
101351.93
101351.9
101351.88
101351.87
101360.1
101360.09
101360.09
101360.12
101361.08
101376.06
101375.46
101375.44
101375.45
101375.47
101390.27
101390.04
101389.86
101389.72
101389.49
101429.87
101432.65
101433.07
101433.51
101434.08
101462.29
101461.06
101459.89
101458.72
101453.29
101355.41
101345.5
101347.05
101349.51
101352.54
101415.62
101416.56
101417.63
101418.64
101418.16
101374.15
101371.67
101371.61
101371.65
101371.65
101369.31
101369.37
101369.48
101369.6
101370.29
101356.9
101355.85
101355.78
101355.76
101355.73
101349.32
101349.35
101349.38
101349.44
101350.12
101343.31
101342.76
101342.72
101342.69
101342.67
101337.99
101338.01
101338.03
101338.06
101338.41
101334.2
101333.96
101333.93
101333.92
101333.9
101330.62
101330.63
101330.65
101330.67
101330.83
101327.98
101327.87
101327.86
101327.85
101327.84
101325.48
101325.49
101325.5
101325.51
101325.57
101323.51
101323.47
101323.46
101323.46
101323.45
101321.7
101321.7
101321.71
101321.71
101321.72
101320.15
101320.16
101320.16
101320.15
101320.15
101318.77
101318.77
101318.77
101318.77
101318.74
101317.48
101317.53
101317.53
101317.53
101317.53
101316.39
101316.39
101316.39
101316.39
101316.33
101315.26
101315.34
101315.34
101315.34
101315.34
101314.36
101314.36
101314.36
101314.35
101314.27
101313.32
101313.42
101313.42
101313.43
101313.43
101312.54
101312.54
101312.53
101312.52
101312.42
101311.54
101311.65
101311.66
101311.67
101311.67
101310.8
101310.8
101310.79
101310.78
101310.66
101309.78
101309.91
101309.92
101309.93
101309.93
101309.05
101309.05
101309.04
101309.04
101308.9
101308
101308.14
101308.15
101308.16
101308.16
101307.23
101307.23
101307.23
101307.22
101307.07
101306.08
101306.22
101306.23
101306.23
101306.23
101305.29
101305.29
101305.29
101305.28
101305.12
101304.21
101304.4
101304.41
101304.41
101304.41
101303.29
101303.29
101303.28
101303.27
101303.06
101301.65
101301.79
101301.8
101301.81
101301.81
101301.91
101301.9
101301.89
101301.88
101301.72
101303.32
101303.64
101303.67
101303.68
101303.7
101304.62
101304.61
101304.61
101304.6
101304.4
101305.14
101305.24
101305.24
101305.24
101305.23
101305.84
101305.86
101305.87
101305.87
101305.86
101306.95
101307.09
101307.09
101307.1
101307.1
101308.06
101308.06
101308.06
101308.05
101307.93
101308.83
101308.95
101308.95
101308.96
101308.95
101309.85
101309.85
101309.85
101309.84
101309.73
101310.65
101310.78
101310.79
101310.8
101310.8
101311.71
101311.71
101311.71
101311.7
101311.57
101312.48
101312.59
101312.6
101312.6
101312.6
101313.48
101313.48
101313.47
101313.47
101313.38
101314.33
101314.42
101314.42
101314.42
101314.42
101315.43
101315.43
101315.42
101315.42
101315.35
101316.43
101316.49
101316.49
101316.5
101316.5
101317.65
101317.65
101317.65
101317.65
101317.6
101318.89
101318.92
101318.92
101318.92
101318.92
101320.34
101320.34
101320.34
101320.34
101320.33
101321.95
101321.94
101321.93
101321.93
101321.93
101323.75
101323.75
101323.75
101323.76
101323.79
101325.93
101325.86
101325.86
101325.85
101325.85
101328.31
101328.31
101328.32
101328.33
101328.44
101331.44
101331.28
101331.26
101331.25
101331.25
101334.74
101334.74
101334.75
101334.77
101335.02
101339.52
101339.17
101339.15
101339.13
101339.13
101344.32
101344.33
101344.34
101344.37
101344.92
101352.42
101351.74
101351.7
101351.69
101351.68
101359.91
101359.89
101359.89
101359.92
101360.83
101375.92
101375.35
101375.34
101375.35
101375.39
101389.99
101389.76
101389.57
101389.43
101389.18
101431.24
101433.63
101434.04
101434.48
101435.07
101463.35
101462.26
101461.15
101459.95
101452.62
101404.22
101410.61
101411.97
101413.45
101415.14
101416.98
101417.18
101417.6
101418.07
101421.03
101382.17
101381.57
101381.57
101381.59
101381.68
101372.3
101372.28
101372.29
101372.33
101373.02
101358.93
101358.02
101357.99
101357.99
101358
101350.53
101350.53
101350.54
101350.57
101351.22
101344.08
101343.55
101343.53
101343.51
101343.51
101338.54
101338.55
101338.56
101338.58
101338.91
101334.56
101334.33
101334.31
101334.3
101334.3
101330.91
101330.91
101330.92
101330.93
101331.07
101328.15
101328.06
101328.05
101328.04
101328.04
101325.63
101325.64
101325.64
101325.65
101325.7
101323.6
101323.58
101323.57
101323.57
101323.57
101321.78
101321.79
101321.79
101321.79
101321.79
101320.2
101320.22
101320.22
101320.22
101320.22
101318.82
101318.82
101318.82
101318.82
101318.78
101317.51
101317.56
101317.57
101317.57
101317.57
101316.42
101316.42
101316.42
101316.42
101316.35
101315.27
101315.36
101315.36
101315.37
101315.37
101314.37
101314.37
101314.37
101314.36
101314.27
101313.32
101313.42
101313.43
101313.43
101313.43
101312.57
101312.57
101312.57
101312.56
101312.42
101311.53
101311.69
101311.7
101311.71
101311.71
101310.78
101310.78
101310.77
101310.76
101310.61
101309.69
101309.82
101309.83
101309.83
101309.83
101308.94
101308.94
101308.94
101308.93
101308.8
101307.9
101308.04
101308.05
101308.05
101308.05
101307.07
101307.07
101307.07
101307.06
101306.92
101305.81
101305.8
101305.8
101305.79
101305.77
101305.03
101305.05
101305.07
101305.07
101305.08
101304.5
101304.84
101304.86
101304.88
101304.89
101303.74
101303.72
101303.69
101303.66
101303.24
101301.64
101301.83
101301.84
101301.85
101301.86
101301.58
101301.71
101301.72
101301.72
101301.72
101303.32
101303.31
101303.3
101303.28
101303.05
101304.4
101304.65
101304.67
101304.68
101304.68
101305.02
101305.04
101305.04
101305.05
101305.01
101305.91
101306.03
101306.04
101306.04
101306.03
101307.15
101307.15
101307.14
101307.13
101306.98
101307.93
101308.07
101308.07
101308.08
101308.08
101308.96
101308.96
101308.96
101308.95
101308.82
101309.7
101309.82
101309.83
101309.83
101309.83
101310.72
101310.71
101310.71
101310.7
101310.59
101311.49
101311.6
101311.61
101311.61
101311.61
101312.46
101312.46
101312.46
101312.45
101312.37
101313.27
101313.34
101313.35
101313.35
101313.35
101314.3
101314.3
101314.29
101314.29
101314.22
101315.22
101315.28
101315.28
101315.28
101315.28
101316.33
101316.33
101316.33
101316.33
101316.29
101317.43
101317.45
101317.46
101317.46
101317.46
101318.69
101318.69
101318.69
101318.69
101318.69
101320.08
101320.06
101320.06
101320.06
101320.06
101321.59
101321.59
101321.6
101321.6
101321.65
101323.43
101323.35
101323.34
101323.34
101323.34
101325.35
101325.35
101325.35
101325.36
101325.49
101327.88
101327.7
101327.69
101327.68
101327.68
101330.45
101330.46
101330.47
101330.48
101330.73
101334.11
101333.75
101333.73
101333.72
101333.72
101337.79
101337.8
101337.81
101337.84
101338.32
101343.27
101342.55
101342.52
101342.5
101342.5
101349.15
101349.15
101349.17
101349.21
101350.12
101357.19
101355.85
101355.81
101355.81
101355.82
101369.38
101369.39
101369.44
101369.51
101370.7
101376.27
101373.48
101373.48
101373.54
101373.58
101416.41
101417.26
101418.2
101419.03
101419.5
101367.43
101360
101361.98
101365.05
101368.62
101357.54
101357.65
101357.7
101358.42
101375.76
101415.92
101414.32
101413.6
101412.94
101412.11
101375.74
101375.67
101375.61
101375.65
101378.35
101372.53
101371.38
101371.29
101371.22
101371.2
101357.45
101357.45
101357.46
101357.5
101358.75
101351.41
101350.58
101350.54
101350.52
101350.52
101343.58
101343.58
101343.6
101343.63
101344.28
101339.14
101338.71
101338.69
101338.68
101338.67
101334.43
101334.43
101334.44
101334.46
101334.76
101331.27
101331.06
101331.05
101331.04
101331.03
101328.15
101328.16
101328.16
101328.17
101328.32
101325.85
101325.75
101325.74
101325.74
101325.74
101323.67
101323.67
101323.67
101323.68
101323.73
101321.9
101321.87
101321.87
101321.87
101321.86
101320.29
101320.29
101320.29
101320.29
101320.3
101318.87
101318.89
101318.89
101318.89
101318.89
101317.63
101317.63
101317.63
101317.62
101317.59
101316.42
101316.47
101316.47
101316.48
101316.48
101315.41
101315.41
101315.41
101315.41
101315.34
101314.33
101314.41
101314.42
101314.42
101314.42
101313.48
101313.48
101313.47
101313.47
101313.38
101312.47
101312.57
101312.58
101312.58
101312.58
101311.73
101311.73
101311.72
101311.71
101311.59
101310.68
101310.81
101310.82
101310.83
101310.83
101309.93
101309.93
101309.93
101309.92
101309.79
101308.9
101309.04
101309.05
101309.05
101309.05
101308.16
101308.16
101308.15
101308.14
101307.99
101307.04
101307.2
101307.21
101307.22
101307.22
101306.12
101306.12
101306.12
101306.12
101305.98
101305.07
101305.11
101305.1
101305.1
101305.08
101304.71
101304.7
101304.68
101304.66
101304.4
101303.12
101303.34
101303.36
101303.37
101303.38
101301.8
101301.8
101301.8
101301.79
101301.66
101314.37
101313.06
101314.36
101313.02
101311.98
101312.67
101312.97
101312.52
101311.87
101312.68
101311.97
101309.87
101311.87
101310.37
101309.67
101310.88
101312.59
101312.34
101309.66
101309.9
101310.39
101312.56
101312
101312.09
101312.66
101311.96
101309.88
101308.99
101309.21
101307.39
101308.19
101305.98
101308.51
101307.64
101305.33
101304.53
101306.79
101306.66
101308.97
101310.17
101310.26
101309.71
101309.72
101312.24
101312.8
101313.39
101315.94
101315.39
101316.51
101314.38
101314.74
101317.12
101319.16
101315.49
101317.05
101315.76
101315.77
101313.89
101314.76
101315.39
101314.01
101313.73
101396.53
101399.17
101399.83
101400.51
101401.24
101403.38
101402.98
101402.69
101402.45
101400.37
101369.43
101369.19
101369.24
101369.35
101369.51
101362.35
101362.37
101362.41
101362.49
101363.35
101351.95
101350.75
101350.68
101350.65
101350.63
101345.12
101345.15
101345.19
101345.26
101346.16
101340.27
101339.55
101339.5
101339.47
101339.45
101335.47
101335.49
101335.51
101335.55
101336.04
101332.33
101331.98
101331.95
101331.93
101331.91
101329.04
101329.05
101329.07
101329.1
101329.34
101326.78
101326.6
101326.58
101326.57
101326.56
101324.45
101324.46
101324.47
101324.48
101324.61
101322.73
101322.64
101322.63
101322.62
101322.62
101321
101321.01
101321.01
101321.02
101321.07
101319.61
101319.59
101319.58
101319.58
101319.57
101318.29
101318.29
101318.29
101318.3
101318.3
101317.11
101317.13
101317.13
101317.13
101317.12
101316.05
101316.05
101316.05
101316.05
101316.02
101315
101315.05
101315.05
101315.05
101315.05
101314.11
101314.12
101314.11
101314.11
101314.05
101313.14
101313.21
101313.22
101313.22
101313.22
101312.36
101312.36
101312.36
101312.35
101312.26
101311.41
101311.51
101311.52
101311.52
101311.52
101310.69
101310.69
101310.68
101310.68
101310.56
101309.71
101309.84
101309.85
101309.85
101309.85
101309.01
101309.01
101309
101308.99
101308.85
101307.97
101308.12
101308.12
101308.13
101308.13
101307.22
101307.23
101307.22
101307.21
101307.06
101306.1
101306.26
101306.26
101306.27
101306.27
101305.28
101305.28
101305.28
101305.27
101305.11
101304.11
101304.27
101304.28
101304.29
101304.28
101303.14
101303.14
101303.14
101303.13
101302.95
101301.57
101301.69
101301.7
101301.7
101301.7
101303.29
101303.28
101303.26
101303.23
101302.99
101304.25
101304.44
101304.46
101304.46
101304.46
101305.26
101305.27
101305.27
101305.26
101305.15
101305.87
101305.89
101305.89
101305.88
101305.87
101307.06
101307.06
101307.06
101307.05
101306.91
101307.86
101307.98
101307.99
101307.99
101307.99
101308.83
101308.83
101308.83
101308.83
101308.72
101309.56
101309.66
101309.67
101309.67
101309.67
101310.53
101310.53
101310.53
101310.53
101310.42
101311.26
101311.35
101311.36
101311.36
101311.36
101312.2
101312.2
101312.2
101312.19
101312.12
101313.04
101313.11
101313.12
101313.12
101313.12
101314.05
101314.05
101314.05
101314.04
101313.98
101314.91
101314.95
101314.95
101314.95
101314.95
101315.94
101315.94
101315.94
101315.94
101315.91
101317
101317.01
101317.01
101317.01
101317
101318.16
101318.16
101318.16
101318.17
101318.17
101319.47
101319.44
101319.43
101319.43
101319.43
101320.83
101320.83
101320.84
101320.84
101320.9
101322.52
101322.43
101322.42
101322.41
101322.4
101324.19
101324.2
101324.21
101324.23
101324.36
101326.49
101326.3
101326.29
101326.27
101326.27
101328.68
101328.69
101328.71
101328.73
101328.99
101331.89
101331.54
101331.51
101331.49
101331.47
101334.88
101334.9
101334.93
101334.97
101335.46
101339.52
101338.81
101338.76
101338.73
101338.71
101344.01
101344.04
101344.08
101344.14
101345.05
101350.45
101349.21
101349.14
101349.11
101349.09
101359.2
101359.23
101359.27
101359.36
101360.44
101365.59
101364.9
101364.89
101364.94
101365.02
101390.88
101390.6
101390.4
101390.29
101389.94
101385.45
101384.8
101385.11
101385.46
101385.74
101350.82
101356.08
101361.33
101367.05
101409.24
101775.19
101896.39
101906.87
101913.67
101919.58
101320.32
101317.29
101314.79
101313.28
101325.34
101400.36
101400.78
101399.78
101398.77
101397.8
101356.15
101356.15
101356.1
101356.16
101358.68
101359.1
101358.3
101358.18
101358.08
101358.02
101346.68
101346.71
101346.73
101346.81
101348.03
101343.34
101342.53
101342.46
101342.43
101342.39
101337.17
101337.19
101337.22
101337.28
101337.94
101334.18
101333.73
101333.68
101333.66
101333.63
101330.41
101330.42
101330.44
101330.48
101330.82
101328.1
101327.86
101327.84
101327.82
101327.8
101325.53
101325.54
101325.56
101325.58
101325.75
101323.76
101323.63
101323.61
101323.6
101323.59
101321.9
101321.91
101321.91
101321.93
101322.02
101320.48
101320.42
101320.42
101320.41
101320.4
101319.07
101319.07
101319.08
101319.08
101319.11
101317.88
101317.87
101317.87
101317.87
101317.86
101316.76
101316.76
101316.77
101316.77
101316.75
101315.71
101315.75
101315.75
101315.75
101315.74
101314.8
101314.8
101314.8
101314.8
101314.74
101313.83
101313.9
101313.9
101313.9
101313.9
101313.04
101313.04
101313.03
101313.03
101312.95
101312.09
101312.19
101312.19
101312.2
101312.19
101311.37
101311.37
101311.37
101311.36
101311.25
101310.42
101310.53
101310.54
101310.54
101310.54
101309.71
101309.71
101309.71
101309.7
101309.58
101308.72
101308.86
101308.86
101308.87
101308.87
101308.01
101308.01
101308
101308
101307.86
101306.96
101307.1
101307.11
101307.12
101307.11
101306.19
101306.19
101306.18
101306.17
101306.02
101305.06
101305.22
101305.22
101305.23
101305.23
101304.23
101304.23
101304.23
101304.22
101304.05
101302.85
101303.02
101303.03
101303.04
101303.04
101301.6
101301.61
101301.6
101301.6
101301.47
101302.89
101302.9
101302.89
101302.89
101302.77
101304.06
101304.24
101304.24
101304.25
101304.24
101305.26
101305.27
101305.26
101305.26
101305.1
101306.02
101306.17
101306.18
101306.19
101306.19
101307.17
101307.17
101307.17
101307.16
101307.01
101307.91
101308.04
101308.05
101308.06
101308.06
101308.92
101308.91
101308.91
101308.9
101308.77
101309.61
101309.74
101309.75
101309.75
101309.76
101310.53
101310.53
101310.53
101310.52
101310.43
101311.05
101311
101310.99
101310.97
101310.95
101311.93
101311.94
101311.94
101311.94
101311.91
101312.91
101312.99
101312.99
101313
101313
101314.17
101314.16
101314.15
101314.14
101313.99
101314.85
101314.89
101314.89
101314.89
101314.89
101315.82
101315.83
101315.83
101315.83
101315.81
101316.87
101316.87
101316.87
101316.87
101316.87
101317.99
101317.99
101318
101318
101318.01
101319.27
101319.23
101319.23
101319.22
101319.22
101320.58
101320.58
101320.59
101320.6
101320.67
101322.23
101322.13
101322.12
101322.11
101322.1
101323.84
101323.85
101323.86
101323.87
101324.02
101326.07
101325.86
101325.84
101325.83
101325.82
101328.13
101328.14
101328.16
101328.19
101328.46
101331.23
101330.86
101330.82
101330.8
101330.78
101334.04
101334.06
101334.09
101334.13
101334.64
101338.49
101337.76
101337.71
101337.68
101337.65
101342.7
101342.73
101342.77
101342.83
101343.75
101348.8
101347.59
101347.51
101347.48
101347.45
101357.11
101357.14
101357.19
101357.28
101358.34
101362.99
101362.33
101362.32
101362.37
101362.46
101387.85
101387.56
101387.35
101387.22
101386.69
101383.3
101383.06
101383.29
101383.5
101383.55
101350.32
101355.09
101359.91
101365.19
101407.11
101392.98
101286.44
101272.29
101258.4
101242.45
101588.18
101588.84
101590.39
101590.37
101554.13
101653.3
101736.15
101742.5
101746.66
101751.11
101411.78
101411.11
101410.38
101409.54
101403.23
101406.18
101407.35
101407.57
101407.87
101408.29
101373.01
101372.85
101372.73
101372.66
101372.68
101365.87
101365.05
101364.99
101364.98
101364.97
101352.64
101352.65
101352.67
101352.72
101353.82
101347.58
101346.75
101346.7
101346.67
101346.65
101340.61
101340.63
101340.65
101340.7
101341.36
101336.89
101336.44
101336.4
101336.38
101336.37
101332.62
101332.64
101332.65
101332.68
101333.01
101329.88
101329.66
101329.64
101329.62
101329.61
101327.02
101327.03
101327.04
101327.06
101327.22
101324.97
101324.86
101324.84
101324.84
101324.83
101322.92
101322.93
101322.93
101322.94
101323.02
101321.32
101321.28
101321.27
101321.27
101321.26
101319.79
101319.79
101319.79
101319.8
101319.82
101318.47
101318.47
101318.47
101318.47
101318.47
101317.28
101317.28
101317.28
101317.28
101317.25
101316.14
101316.18
101316.18
101316.18
101316.18
101315.16
101315.16
101315.16
101315.16
101315.1
101314.13
101314.2
101314.21
101314.21
101314.21
101313.3
101313.3
101313.3
101313.29
101313.21
101312.32
101312.41
101312.42
101312.42
101312.42
101311.57
101311.57
101311.56
101311.56
101311.45
101310.59
101310.71
101310.71
101310.72
101310.71
101309.86
101309.86
101309.86
101309.85
101309.73
101308.86
101308.99
101309
101309
101309
101308.13
101308.13
101308.13
101308.12
101307.98
101307.06
101307.21
101307.21
101307.22
101307.22
101306.27
101306.27
101306.27
101306.26
101306.11
101305.14
101305.29
101305.3
101305.3
101305.3
101304.33
101304.33
101304.33
101304.32
101304.15
101303.01
101303.2
101303.21
101303.21
101303.21
101301.77
101301.77
101301.77
101301.76
101301.63
101301.63
101301.76
101301.77
101301.78
101301.78
101303.24
101303.25
101303.24
101303.23
101303.01
101304.17
101304.38
101304.39
101304.39
101304.39
101305.32
101305.32
101305.32
101305.31
101305.13
101306.1
101306.27
101306.28
101306.28
101306.28
101307.25
101307.25
101307.25
101307.24
101307.06
101307.99
101308.16
101308.17
101308.17
101308.17
101309.06
101309.06
101309.05
101309.05
101308.89
101309.76
101309.92
101309.92
101309.93
101309.93
101310.79
101310.79
101310.78
101310.77
101310.63
101311.5
101311.63
101311.64
101311.64
101311.64
101312.5
101312.5
101312.5
101312.49
101312.38
101313.28
101313.37
101313.38
101313.38
101313.38
101314.3
101314.3
101314.29
101314.29
101314.21
101315.2
101315.26
101315.26
101315.26
101315.26
101316.29
101316.29
101316.29
101316.29
101316.25
101317.39
101317.41
101317.41
101317.41
101317.41
101318.62
101318.63
101318.63
101318.63
101318.63
101320.01
101319.98
101319.98
101319.98
101319.97
101321.48
101321.49
101321.49
101321.5
101321.56
101323.31
101323.21
101323.21
101323.2
101323.2
101325.16
101325.16
101325.17
101325.18
101325.33
101327.66
101327.46
101327.44
101327.43
101327.42
101330.1
101330.11
101330.13
101330.15
101330.44
101333.7
101333.29
101333.26
101333.24
101333.23
101337.12
101337.14
101337.16
101337.2
101337.76
101342.47
101341.63
101341.58
101341.56
101341.53
101347.79
101347.82
101347.86
101347.92
101348.98
101355.46
101353.97
101353.9
101353.87
101353.84
101366.37
101366.42
101366.48
101366.58
101368.01
101373.06
101371.08
101371.01
101371.05
101371.08
101403.05
101403.44
101403.93
101404.54
101409.11
101375.2
101371.95
101372.45
101373.25
101373.94
101388.14
101275.51
101261.02
101247.16
101231.64
101366.7
101367.8
101368.94
101369.77
101371.83
101388.66
101383.85
101383.44
101383.18
101383.01
101363.37
101363.36
101363.4
101363.48
101364.27
101360.71
101359.62
101359.53
101359.48
101359.45
101349
101349.01
101349.04
101349.1
101350.19
101344.88
101344.05
101344
101343.96
101343.94
101338.53
101338.55
101338.57
101338.62
101339.28
101335.25
101334.81
101334.77
101334.75
101334.74
101331.32
101331.33
101331.35
101331.38
101331.7
101328.83
101328.61
101328.59
101328.57
101328.56
101326.17
101326.17
101326.19
101326.2
101326.36
101324.26
101324.15
101324.14
101324.13
101324.12
101322.34
101322.35
101322.35
101322.36
101322.43
101320.83
101320.79
101320.79
101320.78
101320.78
101319.39
101319.39
101319.39
101319.4
101319.41
101318.13
101318.14
101318.14
101318.14
101318.13
101316.99
101317
101317
101317
101316.96
101315.89
101315.94
101315.94
101315.94
101315.94
101314.96
101314.96
101314.96
101314.96
101314.89
101313.95
101314.03
101314.03
101314.04
101314.03
101313.15
101313.15
101313.15
101313.15
101313.05
101312.18
101312.29
101312.3
101312.3
101312.3
101311.46
101311.46
101311.46
101311.45
101311.33
101310.49
101310.62
101310.63
101310.63
101310.63
101309.8
101309.8
101309.79
101309.79
101309.64
101308.79
101308.94
101308.95
101308.96
101308.95
101308.09
101308.09
101308.09
101308.08
101307.91
101307.01
101307.18
101307.19
101307.2
101307.2
101306.26
101306.26
101306.26
101306.25
101306.07
101305.09
101305.28
101305.28
101305.29
101305.29
101304.3
101304.3
101304.29
101304.28
101304.08
101302.92
101303.14
101303.15
101303.15
101303.15
101301.71
101301.71
101301.7
101301.7
101301.55
101301.65
101301.65
101301.64