/*--------------------------------*- C++ -*----------------------------------*\
  =========                 |
  \\      /  F ield         | OpenFOAM: The Open Source CFD Toolbox
   \\    /   O peration     | Website:  https://openfoam.org
    \\  /    A nd           | Version:  7
     \\/     M anipulation  |
\*---------------------------------------------------------------------------*/
FoamFile
{
    version     2.0;
    format      ascii;
    class       volScalarField;
    location    "140";
    object      T;
}
// * * * * * * * * * * * * * * * * * * * * * * * * * * * * * * * * * * * * * //

dimensions      [0 0 0 1 0 0 0];

internalField   nonuniform List<scalar> 
25201
(
299.99493
299.99384
299.99495
299.99392
299.99514
299.99398
299.99404
299.99335
299.99293
299.99413
299.9929
299.99393
299.99431
299.99722
299.99792
299.99459
299.99486
299.99508
299.99371
299.99405
299.99387
299.99691
299.9965
299.99718
299.99374
299.99418
299.99607
299.99543
299.99594
299.9951
299.99466
299.9942
299.99622
299.99541
299.99459
299.99852
299.99748
299.99821
299.99956
300.00045
299.99875
299.99913
299.99543
299.99678
300.00103
300.00377
300.00096
299.99856
299.99532
299.99444
299.99317
299.99392
299.99901
299.9978
299.99605
299.99663
299.9958
299.99687
299.99819
300.00147
299.9993
299.99771
299.99926
299.99908
299.99845
299.99506
299.99689
300.00121
300.00178
300.00404
300.00361
300.0011
299.99783
299.99935
300.00024
300.005
300.00257
300.00194
300
299.99919
299.99847
299.99767
299.99897
300.00071
300.00176
300.00022
300.0001
299.99766
299.99736
299.99826
299.9995
300.002
299.99996
299.9978
299.99586
299.99562
299.99278
299.99291
299.99333
299.99297
299.99603
299.99641
299.99886
299.99816
300.0002
300.00082
300.00227
300.00139
300.00006
299.99508
299.99347
299.9968
299.9974
299.99404
299.99517
299.99424
299.99796
299.9988
300.00158
300.00006
299.99914
300.0004
300.00273
300.00379
300.00562
300.00414
300.00198
299.9999
299.99801
299.99879
299.99953
299.99997
300.00319
300.00267
300.00185
300.0008
299.99981
299.99876
299.99762
299.99568
299.99656
299.99922
300.00138
299.99915
299.99663
299.99807
299.99774
299.99601
299.99313
299.99504
299.99844
299.99906
300.00174
300.00119
299.99685
299.99804
299.99386
299.99509
299.99749
299.99919
300.00349
300.00085
300
299.99815
299.99744
299.99878
299.99951
300.00163
300.00381
300.00274
300.00157
300.00057
300.00237
300.00015
300.00214
300.00334
300.00246
300.00046
300.00249
300.00441
300.00626
300.00406
300.00259
300.00366
300.00506
300.00646
300.00528
300.00396
300.00529
300.00706
300.00542
300.00477
300.0024
300.0003
300.00175
299.99915
299.99694
300.00111
300.00005
299.99876
299.99775
299.99987
300.00042
299.99954
299.99727
299.99834
299.99955
300.0019
300.0011
300.00249
300.00345
300.00535
300.00396
300.00156
299.9989
299.99649
299.99394
299.99497
299.99366
299.9956
299.996
299.99549
299.99574
299.99491
299.99527
299.99887
299.99917
300.00108
299.99686
299.99645
300.0006
299.99979
299.99839
299.99771
299.99452
299.99501
299.99882
299.99799
299.99717
299.99508
300.1721
300.1835
300.18336
300.17977
300.15115
300.09937
300.08859
300.08503
300.07956
300.07205
300.0913
300.09136
300.09198
300.09248
300.09358
300.07842
300.07619
300.0757
300.07528
300.07465
300.07021
300.0701
300.07004
300.07017
300.07076
300.06332
300.06296
300.06289
300.06306
300.06334
300.05974
300.05917
300.05884
300.05879
300.05849
300.05481
300.05542
300.05555
300.05598
300.05674
300.05512
300.05417
300.05364
300.05345
300.05245
300.051
300.05237
300.05265
300.05327
300.05438
300.05441
300.05316
300.05244
300.05209
300.0503
300.05019
300.05246
300.0529
300.05372
300.05511
300.0562
300.05471
300.05382
300.05328
300.05049
300.05107
300.05444
300.05509
300.05608
300.05766
300.05921
300.05759
300.05653
300.05578
300.05179
300.05253
300.05717
300.05804
300.05918
300.06084
300.06228
300.06062
300.05944
300.05846
300.05316
300.05356
300.05954
300.06064
300.06187
300.0635
300.06431
300.06274
300.06149
300.06027
300.05363
300.05332
300.0606
300.06192
300.0632
300.06468
300.06444
300.06308
300.06182
300.06042
300.0526
300.05144
300.05967
300.06113
300.06236
300.06353
300.06172
300.06079
300.05964
300.05811
300.04952
300.04662
300.05558
300.05715
300.0582
300.05883
300.05491
300.05456
300.05363
300.05204
300.04289
300.03852
300.0476
300.04916
300.04995
300.04996
300.04398
300.04431
300.0437
300.04218
300.03332
300.02725
300.03576
300.03719
300.0376
300.03686
300.02869
300.02983
300.02965
300.02832
300.02033
300.01271
300.02014
300.02133
300.02126
300.01974
300.01025
300.01205
300.01222
300.01109
300.00433
299.99487
300.00063
300.00152
300.00102
299.99879
299.9957
300.00197
300.00286
300.00241
300.00031
300.01176
300.01346
300.01365
300.01255
300.00513
300.01339
300.02154
300.02268
300.02253
300.02097
300.02974
300.03104
300.03095
300.02967
300.0209
300.02775
300.03724
300.03864
300.03897
300.03807
300.04553
300.04591
300.0453
300.04378
300.03375
300.03887
300.04929
300.05085
300.05162
300.0516
300.05674
300.05638
300.0554
300.05377
300.04316
300.04681
300.05734
300.05895
300.06003
300.0607
300.06371
300.06268
300.06144
300.05984
300.04963
300.05145
300.06133
300.06286
300.06416
300.06546
300.06626
300.06479
300.06344
300.06197
300.05258
300.05327
300.06205
300.06342
300.06475
300.06627
300.06592
300.06422
300.06287
300.06159
300.05353
300.05339
300.0607
300.06186
300.06316
300.0649
300.06355
300.06177
300.0605
300.05946
300.05292
300.05225
300.05801
300.05893
300.06013
300.06189
300.06013
300.0584
300.05726
300.05646
300.05145
300.05068
300.05496
300.05565
300.0567
300.05837
300.05678
300.05519
300.05422
300.05363
300.05004
300.04966
300.05264
300.05312
300.054
300.05549
300.05464
300.05328
300.05249
300.05209
300.04968
300.05029
300.05217
300.05248
300.05317
300.05437
300.05489
300.05384
300.05325
300.05301
300.05156
300.0537
300.05467
300.05483
300.05531
300.05617
300.05875
300.05808
300.0577
300.0576
300.05705
300.06146
300.06124
300.06123
300.06146
300.06185
300.06758
300.06744
300.06735
300.06745
300.06812
300.07514
300.07314
300.07281
300.0726
300.07235
300.08243
300.08361
300.08442
300.08503
300.08749
300.09478
300.09213
300.09109
300.08929
300.08682
300.07665
300.07227
300.07508
300.07967
300.12146
300.10296
299.92117
299.89723
299.87498
299.85281
300.11274
300.11133
300.11503
300.1199
300.15982
300.11958
300.11931
300.11843
300.11662
300.11367
300.09798
300.09981
300.10082
300.10149
300.10354
300.08579
300.08417
300.08383
300.08356
300.08303
300.0746
300.0747
300.0747
300.07483
300.07543
300.06661
300.06639
300.06635
300.06652
300.06677
300.06211
300.06158
300.06125
300.06119
300.0607
300.05634
300.05726
300.05739
300.05784
300.0586
300.05655
300.05559
300.05503
300.05482
300.05344
300.05162
300.05347
300.05377
300.05443
300.05558
300.05544
300.05414
300.05337
300.05299
300.05063
300.05031
300.05326
300.05375
300.05462
300.05608
300.05713
300.05556
300.0546
300.05402
300.05044
300.05091
300.05519
300.05588
300.05694
300.0586
300.06017
300.05845
300.05732
300.05652
300.05152
300.0522
300.05796
300.05888
300.06009
300.06186
300.06336
300.06159
300.06033
300.05929
300.05277
300.05315
300.06046
300.06162
300.06294
300.06469
300.06559
300.06388
300.06254
300.06127
300.05321
300.0529
300.06169
300.06306
300.06441
300.06595
300.06587
300.0644
300.06305
300.06158
300.05218
300.05104
300.06093
300.06247
300.06381
300.06519
300.0633
300.06223
300.06099
300.0594
300.04917
300.04629
300.05683
300.05845
300.05957
300.06031
300.05618
300.05578
300.05481
300.05319
300.04259
300.03826
300.04864
300.05021
300.05101
300.05104
300.0448
300.04516
300.04457
300.04307
300.0331
300.02708
300.03648
300.03786
300.03822
300.03737
300.0289
300.03017
300.0301
300.02885
300.02021
300.01269
300.02065
300.02178
300.02167
300.02018
300.01081
300.01251
300.01273
300.01167
300.0045
299.99539
300.00133
300.00217
300.00162
299.99936
299.98654
299.98925
299.99012
299.98953
299.98529
299.98706
299.98967
299.99046
299.98983
299.98567
299.99582
300.00138
300.00225
300.00175
299.99956
300.01069
300.01246
300.01267
300.01157
300.00489
300.01309
300.02062
300.02182
300.02178
300.02031
300.02904
300.03021
300.03004
300.0287
300.02061
300.02751
300.03614
300.03756
300.03795
300.03714
300.04442
300.04476
300.04412
300.04258
300.03356
300.03876
300.04803
300.04959
300.05037
300.05038
300.05543
300.05505
300.05407
300.05245
300.04311
300.04682
300.056
300.05758
300.05865
300.05931
300.06222
300.06123
300.06004
300.05849
300.04971
300.05158
300.06
300.06148
300.06272
300.06394
300.06481
300.0634
300.06211
300.06069
300.05271
300.05342
300.06083
300.06215
300.06343
300.06493
300.06455
300.06295
300.06167
300.06046
300.0537
300.05361
300.05969
300.06079
300.06202
300.06366
300.06245
300.06076
300.05957
300.05858
300.0532
300.0526
300.05731
300.05817
300.05931
300.06099
300.05941
300.05776
300.05669
300.05594
300.05189
300.05126
300.05467
300.05531
300.0563
300.05789
300.05653
300.05502
300.05412
300.05358
300.05076
300.05063
300.0529
300.05333
300.05415
300.05554
300.05504
300.05377
300.05305
300.05271
300.05094
300.05193
300.05327
300.05353
300.05415
300.05525
300.05637
300.05544
300.05492
300.05473
300.05377
300.05673
300.05729
300.0574
300.05781
300.05853
300.06226
300.06174
300.06144
300.0614
300.06118
300.0673
300.06689
300.06681
300.06695
300.06714
300.07559
300.07573
300.07573
300.07587
300.07651
300.0879
300.08664
300.08635
300.08611
300.08541
300.10787
300.10923
300.10931
300.10922
300.10765
300.12974
300.13778
300.13912
300.14052
300.14076
300.19057
300.18603
300.18594
300.18545
300.17525
300.17544
300.25501
300.265
300.26924
300.25942
300.0816
300.09067
300.09623
300.09937
300.1062
300.0984
300.09818
300.09784
300.09746
300.09793
300.07721
300.078
300.07843
300.07891
300.08111
300.07279
300.07221
300.07208
300.07214
300.07224
300.06447
300.06426
300.06413
300.06422
300.06465
300.05942
300.05966
300.05971
300.06003
300.06058
300.0572
300.05648
300.05607
300.05597
300.05541
300.05282
300.05377
300.05395
300.05448
300.05541
300.05442
300.05335
300.05275
300.05249
300.05118
300.05034
300.05207
300.05242
300.05313
300.05437
300.05489
300.05353
300.05273
300.05231
300.05011
300.05031
300.05305
300.05358
300.05447
300.05594
300.05727
300.05572
300.05475
300.05412
300.05081
300.05145
300.05539
300.05614
300.05719
300.05881
300.06032
300.05868
300.05756
300.05671
300.05212
300.05269
300.05795
300.05893
300.0601
300.06175
300.06288
300.06127
300.06005
300.05896
300.05303
300.05304
300.05965
300.06086
300.06211
300.06367
300.06396
300.06249
300.06122
300.05991
300.05269
300.05196
300.05971
300.0611
300.06236
300.06371
300.06275
300.06158
300.06036
300.05891
300.05076
300.04878
300.05735
300.05887
300.06002
300.06095
300.05812
300.05744
300.05638
300.0548
300.04583
300.04209
300.05129
300.05289
300.05384
300.05422
300.04929
300.04922
300.0484
300.04682
300.03768
300.03247
300.04141
300.04294
300.04358
300.04329
300.03623
300.03689
300.03645
300.035
300.02644
300.0196
300.02761
300.02894
300.02915
300.02805
300.01889
300.02039
300.02043
300.01924
300.01198
300.0036
300.01
300.01101
300.0107
300.00874
299.99771
300.00007
300.00061
299.99975
299.99436
299.98417
299.98848
299.9891
299.98828
299.98561
299.98731
299.98989
299.99066
299.99
299.98574
299.99595
300.00156
300.00244
300.00196
299.99978
300.01088
300.01264
300.01284
300.01175
300.00507
300.01329
300.02077
300.02197
300.02191
300.02044
300.02914
300.03033
300.03017
300.02885
300.02078
300.02767
300.03626
300.03768
300.03806
300.03723
300.04453
300.04488
300.04425
300.04272
300.03372
300.03891
300.04817
300.04974
300.05052
300.05052
300.05558
300.05521
300.05423
300.05262
300.04326
300.04695
300.05616
300.05775
300.05882
300.05949
300.06242
300.06142
300.06022
300.05867
300.04983
300.05169
300.06017
300.06166
300.06292
300.06415
300.06502
300.06359
300.06229
300.06086
300.05282
300.05352
300.06098
300.0623
300.0636
300.06511
300.06471
300.06309
300.06181
300.06059
300.0538
300.05371
300.0598
300.06089
300.06213
300.06378
300.06253
300.06085
300.05965
300.05867
300.05328
300.05266
300.05737
300.05823
300.05936
300.06103
300.05945
300.0578
300.05673
300.05599
300.05194
300.05129
300.05469
300.05533
300.05632
300.0579
300.05653
300.05503
300.05413
300.0536
300.05079
300.05062
300.05289
300.05332
300.05413
300.05552
300.055
300.05374
300.05303
300.05269
300.05092
300.05189
300.05323
300.05349
300.05411
300.05521
300.05632
300.05539
300.05486
300.05468
300.0537
300.05663
300.05721
300.05733
300.05775
300.05849
300.06221
300.06168
300.06136
300.06131
300.06104
300.0671
300.06676
300.0667
300.06687
300.06709
300.07561
300.07568
300.07563
300.07575
300.07627
300.08753
300.08634
300.08607
300.08586
300.08523
300.10813
300.10936
300.10938
300.10925
300.10751
300.12888
300.136
300.13722
300.13853
300.13858
300.20159
300.19854
300.19859
300.19728
300.18057
300.17932
300.18462
300.18477
300.18374
300.18252
300.10778
300.11257
300.11516
300.11659
300.11867
300.10319
300.10328
300.10301
300.10252
300.10148
300.08174
300.08243
300.08275
300.08311
300.08474
300.07468
300.0743
300.07421
300.07427
300.07424
300.0662
300.06595
300.06577
300.06582
300.06597
300.06027
300.06085
300.06093
300.06128
300.06184
300.05833
300.05756
300.05711
300.05697
300.05601
300.05325
300.05468
300.05491
300.05548
300.05647
300.05546
300.05431
300.05365
300.05335
300.05151
300.0506
300.05297
300.05336
300.05413
300.05545
300.05605
300.0546
300.05374
300.05327
300.05033
300.05053
300.0541
300.05468
300.05564
300.05721
300.05866
300.057
300.05596
300.05527
300.05103
300.05169
300.05667
300.05747
300.0586
300.06032
300.06198
300.06023
300.05904
300.05812
300.05239
300.05301
300.05951
300.06055
300.06181
300.06357
300.06489
300.06315
300.06184
300.06069
300.05341
300.05351
300.06156
300.06283
300.06417
300.06587
300.06622
300.06468
300.06334
300.06197
300.05321
300.05251
300.06191
300.06338
300.06473
300.0662
300.06549
300.06412
300.06279
300.06125
300.05137
300.04955
300.05977
300.06136
300.0626
300.06366
300.06066
300.05993
300.05882
300.0572
300.04669
300.04302
300.05362
300.05523
300.0562
300.05658
300.05146
300.05143
300.05064
300.04906
300.03869
300.03357
300.04355
300.04504
300.04563
300.04525
300.03786
300.0387
300.03834
300.03694
300.02755
300.02069
300.02938
300.03063
300.0307
300.0294
300.02076
300.02225
300.02236
300.02121
300.01316
300.00493
300.01226
300.01331
300.01308
300.01136
300.00009
300.0023
300.00273
300.00181
299.99568
299.98546
299.99009
299.99071
299.98988
299.98721
299.98479
299.98929
299.98997
299.98922
299.98667
299.99892
300.00118
300.00166
300.00075
299.99508
300.00445
300.01115
300.01222
300.01197
300.01013
300.01978
300.02129
300.02133
300.02011
300.0127
300.02026
300.02834
300.02966
300.02981
300.02861
300.03691
300.03763
300.03719
300.03573
300.02716
300.03323
300.04218
300.04369
300.04428
300.0439
300.04999
300.04996
300.04915
300.04756
300.03843
300.04282
300.05202
300.0536
300.05452
300.05483
300.05883
300.05818
300.05711
300.05552
300.04654
300.04948
300.05808
300.05959
300.06073
300.06163
300.06348
300.06231
300.06108
300.0596
300.05141
300.05258
300.06038
300.06177
300.06301
300.06434
300.06461
300.06314
300.06187
300.06055
300.05329
300.05362
300.06025
300.06146
300.0627
300.06425
300.06348
300.06185
300.06062
300.05952
300.05357
300.05318
300.05847
300.05945
300.06062
300.06227
300.06085
300.05919
300.05806
300.05719
300.05258
300.05188
300.05584
300.05659
300.05765
300.05928
300.05774
300.05616
300.05518
300.05454
300.0512
300.05067
300.05342
300.05396
300.05486
300.05635
300.05528
300.05389
300.05308
300.05264
300.05043
300.05063
300.05236
300.0527
300.05342
300.05468
300.05472
300.0536
300.05298
300.05272
300.05143
300.05304
300.05396
300.05415
300.05467
300.05562
300.0574
300.05665
300.05623
300.05612
300.05561
300.05961
300.05977
300.05982
300.06014
300.0607
300.06469
300.06445
300.0643
300.06438
300.0649
300.07306
300.07233
300.07222
300.07228
300.07238
300.07786
300.07862
300.07905
300.07951
300.08179
300.09911
300.09881
300.09855
300.09826
300.09866
300.08195
300.09159
300.0968
300.09983
300.1085
300.17725
300.25058
300.2597
300.26338
300.25465
300.18709
300.1981
300.19799
300.19457
300.16783
300.11209
300.10159
300.09826
300.09297
300.08517
300.10083
300.10152
300.10226
300.10256
300.10152
300.08367
300.08107
300.08056
300.08011
300.07935
300.0736
300.07358
300.07356
300.0737
300.07445
300.0659
300.06534
300.06526
300.06539
300.06559
300.06133
300.0608
300.0605
300.06046
300.06031
300.05609
300.05658
300.05669
300.0571
300.05782
300.05584
300.05492
300.0544
300.05422
300.05333
300.05159
300.05286
300.05312
300.05373
300.05481
300.05465
300.05341
300.05271
300.05237
300.05067
300.05038
300.05257
300.053
300.05381
300.05518
300.05617
300.05469
300.0538
300.05327
300.05054
300.051
300.05433
300.05497
300.05595
300.05751
300.059
300.05737
300.05632
300.05557
300.05162
300.05227
300.05689
300.05776
300.05888
300.06054
300.06193
300.06027
300.05909
300.0581
300.05282
300.05316
300.05914
300.06024
300.06146
300.06309
300.06385
300.06228
300.06102
300.0598
300.05317
300.05282
300.06009
300.06141
300.06268
300.06416
300.06389
300.06253
300.06126
300.05986
300.05208
300.05089
300.0591
300.06056
300.06178
300.06295
300.06112
300.06017
300.05901
300.05749
300.04891
300.04594
300.05494
300.0565
300.05756
300.0582
300.05425
300.05388
300.05293
300.05133
300.04218
300.03777
300.04688
300.04845
300.04924
300.04926
300.04323
300.04354
300.04291
300.04139
300.03253
300.02645
300.03496
300.03639
300.03681
300.03608
300.02789
300.029
300.02881
300.02748
300.01956
300.01199
300.01932
300.02049
300.02043
300.01894
300.0094
300.01117
300.01138
300.0103
300.00377
299.99459
300.00006
300.00088
300.0003
299.99793
299.9857
299.98835
299.98917
299.98854
299.98434
299.9947
299.99277
299.99469
299.99275
299.99068
299.99134
299.99283
299.99216
299.98923
299.99134
299.99091
299.98648
299.98923
299.98711
299.98796
299.99065
299.99324
299.99647
299.99378
299.99651
299.9919
299.99483
299.99946
300.00189
299.99584
299.99063
299.98555
299.98865
299.98847
299.98402
299.98445
299.98533
299.99005
299.99219
299.9865
299.98732
299.98356
299.98322
299.98882
299.99316
299.99263
299.9988
300
300.00326
299.99657
299.99892
299.99981
299.99894
300.004
300.00356
300.00498
300.00541
300.0049
300.00224
299.99812
300.00007
300.00009
299.9951
299.99384
299.99493
299.99395
299.99433
300.12739
300.13283
300.13306
300.13361
300.14117
300.11011
300.10891
300.10709
300.10563
300.09837
300.08832
300.08964
300.08979
300.08992
300.0892
300.07214
300.07252
300.07267
300.07294
300.07436
300.06719
300.06661
300.0665
300.06658
300.06664
300.06045
300.06015
300.05998
300.06004
300.06043
300.05615
300.05643
300.05649
300.05682
300.05742
300.05477
300.054
300.05358
300.05346
300.05286
300.05081
300.05183
300.05203
300.05257
300.05353
300.05293
300.05182
300.05121
300.05095
300.04961
300.04908
300.05088
300.05122
300.05195
300.05321
300.05398
300.0526
300.05179
300.05136
300.04909
300.04951
300.05232
300.05285
300.05376
300.05525
300.05673
300.05516
300.05418
300.05355
300.05017
300.05096
300.05497
300.05572
300.05678
300.05842
300.06004
300.05839
300.05727
300.05641
300.05176
300.05244
300.05778
300.05875
300.05994
300.0616
300.06286
300.06122
300.06
300.05892
300.0529
300.05304
300.05973
300.06093
300.06219
300.06377
300.06415
300.06266
300.0614
300.06009
300.05276
300.05207
300.05996
300.06136
300.06263
300.064
300.06313
300.06193
300.0607
300.05924
300.05092
300.04905
300.05776
300.05928
300.06045
300.06142
300.05868
300.05797
300.05689
300.05531
300.04617
300.04251
300.05186
300.05347
300.05445
300.05487
300.05002
300.04991
300.04907
300.04748
300.03817
300.03302
300.04211
300.04365
300.04432
300.04408
300.03707
300.03768
300.03722
300.03575
300.02704
300.02024
300.02838
300.02972
300.02996
300.02893
300.01976
300.0212
300.02122
300.02001
300.01261
300.00421
300.01073
300.01175
300.01146
300.00955
299.99844
300.0008
300.00134
300.00049
299.99503
299.98501
299.98923
299.98983
299.98898
299.98628
300.00036
300.00232
300.00268
300.0017
299.99572
300.00522
300.01214
300.01325
300.01306
300.01137
300.02115
300.02252
300.02248
300.02122
300.01359
300.02116
300.02931
300.03061
300.03075
300.02956
300.03778
300.03854
300.03812
300.03666
300.02805
300.03409
300.0431
300.0446
300.04519
300.04479
300.05084
300.05082
300.05002
300.04845
300.03925
300.04357
300.05284
300.05442
300.05533
300.05563
300.05957
300.05892
300.05786
300.05628
300.04718
300.05
300.05873
300.06024
300.06138
300.06229
300.06411
300.06291
300.06167
300.06019
300.05181
300.05296
300.06091
300.06231
300.06357
300.06492
300.06513
300.06363
300.06234
300.06103
300.05364
300.05387
300.06063
300.06183
300.06309
300.06467
300.06378
300.06212
300.06088
300.05977
300.05367
300.05316
300.05859
300.05958
300.06077
300.06246
300.06088
300.05919
300.05804
300.05716
300.05242
300.05157
300.05565
300.05641
300.05749
300.05915
300.05743
300.05581
300.05481
300.05417
300.05072
300.05
300.05286
300.0534
300.05432
300.05585
300.05452
300.0531
300.05227
300.05183
300.04951
300.04945
300.05127
300.05163
300.05236
300.05366
300.05331
300.05216
300.05153
300.05126
300.0499
300.05101
300.05202
300.05222
300.05277
300.05376
300.05488
300.05406
300.05362
300.0535
300.0529
300.056
300.05623
300.05629
300.05663
300.05726
300.06005
300.05968
300.05949
300.05956
300.05999
300.0662
300.06536
300.06522
300.06526
300.06536
300.07023
300.07055
300.07074
300.07106
300.07275
300.08453
300.08391
300.08368
300.08338
300.08235
300.10463
300.1028
300.10117
300.09978
300.09295
300.11365
300.10318
300.09988
300.09747
300.10132
299.96193
299.98781
300.01319
300.03221
300.09724
300.05802
300.06126
300.05779
300.06185
300.08213
300.24039
300.24867
300.24439
300.23399
300.15093
300.0845
300.07713
300.07409
300.06891
300.06051
300.08487
300.08439
300.08477
300.08506
300.08519
300.06969
300.06791
300.06755
300.06727
300.06673
300.06376
300.06351
300.06342
300.06353
300.06416
300.05803
300.05759
300.05752
300.0577
300.05803
300.05555
300.05492
300.05458
300.05453
300.05427
300.05142
300.05201
300.05213
300.05257
300.05336
300.05239
300.05142
300.05089
300.05069
300.04971
300.0488
300.05012
300.05039
300.05102
300.05214
300.05253
300.05126
300.05055
300.0502
300.04844
300.04861
300.05085
300.05129
300.05211
300.0535
300.05479
300.0533
300.05241
300.05188
300.04912
300.04987
300.05321
300.05385
300.05483
300.0564
300.05805
300.05643
300.05538
300.05463
300.05068
300.0515
300.0561
300.05697
300.05809
300.05975
300.06123
300.05959
300.05841
300.05743
300.05217
300.05261
300.05856
300.05965
300.06088
300.06251
300.06334
300.06177
300.06052
300.05931
300.05269
300.0524
300.05964
300.06095
300.06223
300.06371
300.06347
300.06211
300.06085
300.05945
300.05169
300.05053
300.0587
300.06016
300.06138
300.06256
300.06074
300.0598
300.05866
300.05714
300.04859
300.04568
300.05462
300.05619
300.05726
300.05792
300.05401
300.05364
300.05269
300.0511
300.04196
300.03759
300.04666
300.04822
300.04902
300.04905
300.04308
300.04338
300.04276
300.04124
300.03242
300.02642
300.03486
300.03629
300.03672
300.03604
300.02795
300.02901
300.0288
300.02748
300.01959
300.01195
300.01913
300.0203
300.02027
300.0188
300.0087
300.01058
300.01086
300.00982
300.00346
299.99409
299.99968
300.00048
299.99987
299.99752
299.98552
299.98816
299.98895
299.98828
299.98386
299.99974
300.00182
300.00226
300.00133
299.99553
300.00506
300.01183
300.01291
300.01266
300.01085
300.02102
300.02243
300.02239
300.02113
300.01354
300.02118
300.02949
300.03085
300.03107
300.03
300.03819
300.03883
300.03835
300.03685
300.02805
300.03406
300.04319
300.04472
300.04535
300.04502
300.05098
300.05093
300.0501
300.0485
300.03921
300.04351
300.05286
300.05445
300.05539
300.05574
300.05948
300.0588
300.05774
300.05617
300.04708
300.04983
300.05838
300.05984
300.06089
300.0617
300.06345
300.06241
300.06124
300.05981
300.05166
300.05288
300.06073
300.06211
300.06334
300.0646
300.06529
300.06373
300.06239
300.06105
300.0536
300.0538
300.06066
300.06189
300.06318
300.06483
300.06382
300.06212
300.06086
300.05974
300.05358
300.05305
300.05851
300.0595
300.0607
300.0624
300.06075
300.05905
300.05791
300.05703
300.05229
300.05141
300.05549
300.05625
300.05732
300.05898
300.05723
300.05562
300.05462
300.05397
300.05052
300.04976
300.05265
300.05319
300.05411
300.05564
300.05429
300.05285
300.05202
300.05157
300.04921
300.04909
300.05097
300.05133
300.05207
300.05338
300.05293
300.05177
300.05113
300.05085
300.04943
300.05042
300.05151
300.05172
300.05227
300.05328
300.05426
300.05342
300.05296
300.05282
300.05213
300.05503
300.05537
300.05544
300.05581
300.05647
300.05901
300.0586
300.05838
300.05842
300.05871
300.06456
300.06391
300.0638
300.06389
300.06406
300.06856
300.06877
300.06889
300.06916
300.07063
300.08184
300.08157
300.08143
300.08124
300.0804
300.10092
300.09934
300.09758
300.09613
300.08953
300.11057
300.10134
300.09824
300.09555
300.09957
299.9657
299.99117
300.01626
300.03424
300.09336
300.07621
299.90897
299.8836
299.86116
299.83978
300.05406
300.0308
300.01891
300.0188
300.07675
300.07019
300.09058
300.09864
300.1107
300.13464
300.15658
300.15109
300.14975
300.14851
300.13877
300.10244
300.10832
300.10948
300.11092
300.11163
300.09184
300.0926
300.09254
300.09245
300.09144
300.07659
300.07501
300.07472
300.07456
300.07418
300.06828
300.0682
300.06813
300.06824
300.06891
300.06176
300.06131
300.06124
300.06142
300.06174
300.05832
300.05774
300.05742
300.05737
300.05717
300.05367
300.05421
300.05432
300.05474
300.05551
300.05403
300.05309
300.05257
300.05238
300.05144
300.05009
300.05139
300.05165
300.05227
300.05338
300.0535
300.05225
300.05154
300.05121
300.04946
300.0494
300.05163
300.05206
300.05287
300.05425
300.0554
300.05392
300.05304
300.05251
300.04975
300.05037
300.05373
300.05437
300.05534
300.05691
300.05854
300.05691
300.05586
300.05512
300.05112
300.05189
300.05656
300.05742
300.05855
300.06021
300.06173
300.06006
300.05888
300.0579
300.05255
300.053
300.05905
300.06014
300.06138
300.06302
300.06391
300.06231
300.06105
300.05984
300.05312
300.05283
300.06022
300.06153
300.06282
300.06433
300.06414
300.06275
300.06147
300.06007
300.05213
300.05098
300.05936
300.06083
300.06207
300.06328
300.06154
300.06056
300.05939
300.05786
300.04911
300.04623
300.05542
300.057
300.05808
300.05878
300.05494
300.05452
300.05355
300.05194
300.04256
300.03821
300.04756
300.04914
300.04997
300.05005
300.04413
300.04437
300.04371
300.04216
300.03306
300.02708
300.03582
300.03727
300.03773
300.0371
300.02901
300.03002
300.02978
300.02842
300.02027
300.01267
300.0201
300.0213
300.02129
300.01984
300.00969
300.01156
300.01184
300.01079
300.00431
299.99517
300.00066
300.00147
300.00087
299.99852
299.98646
299.9891
299.98993
299.98931
299.98514
299.98528
299.9893
299.98984
299.98893
299.98621
299.99852
300.00092
300.00155
300.00077
299.99525
300.0043
300.01114
300.0121
300.01171
300.00969
300.02016
300.02168
300.02172
300.02054
300.01256
300.02008
300.02904
300.03035
300.03051
300.02937
300.03776
300.03843
300.03797
300.03651
300.02683
300.03278
300.04301
300.04454
300.04515
300.04483
300.05102
300.05092
300.05007
300.04846
300.0379
300.04226
300.05296
300.05458
300.05554
300.05593
300.05994
300.05921
300.05809
300.05646
300.04593
300.04879
300.05897
300.06053
300.06173
300.06272
300.06463
300.0633
300.06198
300.06045
300.05066
300.05182
300.06116
300.06261
300.06394
300.06537
300.06549
300.06398
300.06264
300.06127
300.05254
300.05285
300.06089
300.06215
300.06348
300.06516
300.06426
300.0625
300.06119
300.06004
300.05278
300.05238
300.05887
300.0599
300.06115
300.0629
300.06134
300.05958
300.05838
300.05746
300.05177
300.05106
300.05599
300.05678
300.0579
300.05961
300.05794
300.05628
300.05524
300.05456
300.05036
300.04983
300.05333
300.05391
300.05486
300.05642
300.05523
300.05377
300.0529
300.05243
300.04956
300.04973
300.05204
300.05243
300.05319
300.05452
300.05441
300.05323
300.05256
300.05227
300.05049
300.05198
300.05335
300.05357
300.05414
300.05514
300.05668
300.05587
300.05541
300.05527
300.05439
300.05816
300.05863
300.05871
300.05906
300.05968
300.0632
300.06288
300.06269
300.06273
300.06306
300.07064
300.07008
300.06999
300.07008
300.07019
300.07536
300.07583
300.07611
300.07647
300.07854
300.09414
300.09352
300.09325
300.09292
300.09228
300.09295
300.09807
300.10048
300.10166
300.10367
300.1558
300.16823
300.16965
300.17005
300.17074
300.1143
299.95433
299.93145
299.90998
299.88782
300.07962
300.07499
300.0772
300.08127
300.11891
300.09181
300.09193
300.09138
300.09023
300.08853
300.08082
300.08193
300.0826
300.08308
300.08465
300.07193
300.07039
300.07011
300.06999
300.06983
300.06522
300.06506
300.06496
300.06504
300.06547
300.05916
300.05904
300.05902
300.05925
300.05966
300.05685
300.05619
300.05581
300.05572
300.05511
300.05205
300.05304
300.0532
300.05368
300.05453
300.05341
300.05239
300.05181
300.05159
300.05014
300.04905
300.05091
300.05121
300.05188
300.05307
300.05343
300.0521
300.05133
300.05094
300.04858
300.04865
300.05159
300.05207
300.05294
300.0544
300.05574
300.05417
300.05322
300.05264
300.04909
300.04978
300.054
300.05469
300.05573
300.05739
300.05913
300.05741
300.0563
300.0555
300.05057
300.05137
300.05706
300.05797
300.05916
300.06091
300.06251
300.06076
300.05951
300.05849
300.05204
300.0525
300.05972
300.06086
300.06216
300.06388
300.06483
300.06315
300.06183
300.06057
300.0526
300.05233
300.06101
300.06236
300.06368
300.06518
300.06511
300.06366
300.06234
300.06089
300.05162
300.05048
300.06023
300.06174
300.06304
300.06433
300.06251
300.06149
300.06029
300.05873
300.04861
300.04576
300.05627
300.05787
300.05897
300.05969
300.05578
300.05534
300.05436
300.05273
300.04209
300.03777
300.04829
300.04987
300.0507
300.05079
300.04474
300.04499
300.04435
300.04281
300.03266
300.02673
300.03637
300.0378
300.03824
300.03757
300.02934
300.03038
300.03018
300.02885
300.01997
300.01241
300.02039
300.02155
300.02149
300.02
300.00969
300.01161
300.01193
300.01093
300.00409
299.99498
300.00064
300.0014
300.00075
299.99835
299.98614
299.98883
299.98971
299.98914
299.98502
299.98564
299.98818
299.98895