/*--------------------------------*- C++ -*----------------------------------*\
  =========                 |
  \\      /  F ield         | OpenFOAM: The Open Source CFD Toolbox
   \\    /   O peration     | Website:  https://openfoam.org
    \\  /    A nd           | Version:  7
     \\/     M anipulation  |
\*---------------------------------------------------------------------------*/
FoamFile
{
    version     2.0;
    format      ascii;
    class       volVectorField;
    location    "140";
    object      U;
}
// * * * * * * * * * * * * * * * * * * * * * * * * * * * * * * * * * * * * * //

dimensions      [0 1 -1 0 0 0 0];

internalField   nonuniform List<vector> 
25201
(
(120.03539 0.016005912 0.011257395)
(120.0374 0.021641568 0.0054172979)
(120.03512 0.011568964 0.015761738)
(120.0365 0.0053730878 0.021235415)
(120.01924 0.017640624 0.017110284)
(120.03292 0.011963718 0.015460553)
(120.03557 0.013832634 0.013356737)
(120.03844 0.019162837 0.018932466)
(120.03727 0.013787269 0.018448854)
(120.02312 0.012467132 0.012406079)
(120.03749 0.018701785 0.013694805)
(120.03338 0.01590932 0.011448866)
(120.02638 0.022283376 0.010503232)
(119.99809 0.085232052 0.046608253)
(119.99039 0.10300384 0.045434978)
(120.02521 0.023522702 0.031770952)
(120.01897 0.024181729 0.042353317)
(120.01651 0.038225168 0.049290772)
(120.02437 0.038412928 0.063935203)
(120.01442 0.053488284 0.094133345)
(120.02067 0.038726645 0.076933579)
(120.00365 0.034006065 0.069035963)
(120.00862 0.034256684 0.057709648)
(120.00046 0.046522695 0.070509945)
(120.01845 0.052950485 0.079739453)
(120.01334 0.07124313 0.096454804)
(120.0074 0.068172891 0.066488694)
(120.01332 0.020196543 0.056522597)
(120.00722 0.0079035517 0.067253497)
(120.0062 0.02100086 0.11625544)
(120.01048 0.0306524 0.10576574)
(120.01666 0.037054361 0.09069737)
(119.98958 0.030451877 0.15245228)
(119.99791 0.044170528 0.13548403)
(120.00687 0.052300318 0.11590285)
(119.98628 0.044173447 0.099405391)
(119.99861 0.031615847 0.079970487)
(119.99208 0.025793319 0.091769068)
(119.97733 0.036653079 0.11394203)
(119.96929 0.024728945 0.12621627)
(119.98752 0.017345908 0.099461038)
(119.9841 0.0056941378 0.10461567)
(120.0026 0.0070739132 0.12316226)
(119.98445 0.010513499 0.16123376)
(119.96463 0.0083681363 0.13238051)
(119.95488 0.0063714222 0.1069425)
(119.97273 0.0047075132 0.086079636)
(119.98924 0.0058343801 0.050478874)
(120.0172 0.0044243339 0.028551922)
(120.02527 0.010635644 0.021556163)
(120.02959 0.010150007 0.020660202)
(120.0216 0.0033509802 0.02256777)
(119.99159 0.0060323959 0.021818936)
(119.99891 0.0091701902 0.019591592)
(120.0109 0.010959117 0.017305617)
(120.00937 0.013981972 0.02167486)
(120.01403 0.019499976 0.028438596)
(120.00315 0.019341806 0.035576599)
(119.99724 0.013084895 0.027429568)
(119.97713 0.019737984 0.034202819)
(119.98969 0.024204427 0.041907532)
(119.99763 0.028472835 0.038371409)
(119.99026 0.019796749 0.025824226)
(119.99107 0.012090841 0.016367346)
(119.99528 0.0066216669 0.0094907664)
(120.01548 0.007889754 0.012970696)
(120.00375 0.0060697295 0.013525375)
(119.98151 0.0053032416 0.010274623)
(119.97651 0.010321562 0.019162864)
(119.96575 0.0074922269 0.022843716)
(119.96523 0.014860656 0.043379754)
(119.97786 0.021053315 0.05590675)
(119.99576 0.014740954 0.044391629)
(119.9898 0.0092094387 0.032075838)
(119.98376 0.0034311763 0.035490417)
(119.95737 0.0055076735 0.048533647)
(119.96771 0.010849172 0.066245132)
(119.9716 0.016730721 0.062626214)
(119.98024 0.021513239 0.076815282)
(119.9866 0.026471123 0.067868952)
(119.99198 0.028951715 0.059657771)
(119.9982 0.02958706 0.0506484)
(119.98832 0.039405275 0.060572287)
(119.9798 0.032584995 0.049435809)
(119.97343 0.031343927 0.058561407)
(119.98296 0.02370273 0.049823815)
(119.98227 0.037809203 0.071018141)
(119.99493 0.046351929 0.082782975)
(119.99655 0.062405101 0.097423483)
(119.99374 0.061035883 0.082385663)
(119.98787 0.056751926 0.088680379)
(119.97213 0.051898478 0.082052764)
(119.98201 0.055374055 0.09840687)
(119.99119 0.060716498 0.10761461)
(120.00111 0.065887186 0.11608929)
(120.00604 0.067185047 0.10478362)
(120.01877 0.072489472 0.11218956)
(120.01404 0.071203405 0.12413173)
(120.00676 0.083230497 0.13887697)
(120.01198 0.084463125 0.12585587)
(119.9992 0.07807413 0.11708748)
(119.99401 0.076913564 0.12945808)
(119.98433 0.069967902 0.11853706)
(119.98923 0.072129039 0.10789159)
(119.98063 0.065965608 0.097742999)
(119.97543 0.064203205 0.10812634)
(119.96688 0.073384242 0.11616993)
(119.97364 0.073949891 0.10532871)
(119.97942 0.081966294 0.098840077)
(119.99895 0.0994704 0.11837301)
(120.00452 0.098650031 0.13787385)
(119.99109 0.090139926 0.12703238)
(119.98343 0.091920512 0.14209442)
(119.99617 0.10054226 0.15410345)
(119.98242 0.11787869 0.16914166)
(119.99233 0.11755944 0.15086404)
(119.97936 0.10643593 0.13793289)
(119.96991 0.10684174 0.15472683)
(119.96119 0.094716024 0.14003144)
(119.97381 0.082279195 0.12936748)
(119.98149 0.082291219 0.11680309)
(119.97 0.096234138 0.12617239)
(119.96344 0.085614161 0.11299104)
(119.9554 0.084521243 0.12550561)
(119.942 0.098741323 0.13287239)
(119.95381 0.098272305 0.11840897)
(119.96433 0.10766167 0.10740049)
(119.98034 0.10011378 0.081849008)
(119.99539 0.084192934 0.060717962)
(119.98238 0.11915555 0.038978324)
(119.97503 0.13366117 0.028080502)
(119.9708 0.14226823 0.012340217)
(119.95778 0.11644981 0.010661587)
(119.96164 0.10988107 0.023063849)
(119.96872 0.099047734 0.032080205)
(119.97611 0.086853109 0.03763902)
(119.98436 0.073353105 0.039039509)
(119.98985 0.062158768 0.039856349)
(119.99841 0.039330794 0.028306611)
(120.01504 0.029382892 0.019114997)
(120.00993 0.02238145 0.01418697)
(119.99059 0.026275787 0.02025326)
(119.97762 0.035393782 0.021118469)
(119.99096 0.043339856 0.024908114)
(120.00505 0.036998385 0.019616744)
(119.99813 0.028649183 0.013886872)
(119.99926 0.020472 0.010041538)
(120.01119 0.017772933 0.011335542)
(120.03001 0.021236344 0.010418623)
(120.01561 0.013270287 0.0082988928)
(119.99529 0.0095254792 0.0071731026)
(119.99119 0.01655985 0.012665101)
(119.97655 0.019838774 0.011611599)
(119.98136 0.010630629 0.006341938)
(120.00381 0.014117472 0.0068421597)
(119.99681 0.015072768 0.0049733037)
(120.02207 0.023840971 0.004117054)
(120.01907 0.030223268 0.0050700421)
(119.99832 0.046888565 0.015857914)
(119.99085 0.034202072 0.010612448)
(119.96558 0.046151246 0.017347611)
(119.97963 0.058756817 0.022879559)
(119.9845 0.05184801 0.02492998)
(119.9944 0.06183974 0.029684373)
(120.00003 0.052244467 0.029730536)
(119.9895 0.070895343 0.02780905)
(119.98357 0.08110327 0.023541739)
(119.97343 0.066660001 0.019140969)
(119.95986 0.080205812 0.026096072)
(119.9672 0.070870951 0.03047874)
(119.97467 0.060578284 0.032984034)
(119.98077 0.050738871 0.03357369)
(119.97345 0.055487341 0.042071856)
(119.98396 0.047224275 0.046811226)
(119.97476 0.028860478 0.029108398)
(119.96922 0.03246222 0.043427218)
(119.97284 0.040997565 0.054551203)
(119.98091 0.051184068 0.068598334)
(119.96788 0.064371903 0.079689792)
(119.96225 0.051815546 0.061881957)
(119.95388 0.051323409 0.073503863)
(119.9633 0.057915783 0.083883702)
(119.96758 0.066276118 0.095481397)
(119.96023 0.065214066 0.10470842)
(119.95666 0.057623183 0.092905626)
(119.94878 0.065753603 0.098869792)
(119.95507 0.066958007 0.089293326)
(119.95857 0.075708202 0.10126411)
(119.95162 0.073622565 0.11116741)
(119.94016 0.08510799 0.11686792)
(119.95044 0.086216935 0.10534373)
(119.95606 0.082935258 0.08333999)
(119.96849 0.080434591 0.065068185)
(119.98199 0.0699718 0.05173545)
(119.97366 0.084231885 0.053634979)
(119.99019 0.090966465 0.057312987)
(119.99937 0.099754561 0.062303276)
(119.96328 0.14220623 0.096477517)
(119.97152 0.12779811 0.097010966)
(119.98348 0.11880012 0.082734127)
(119.99167 0.11006722 0.072322591)
(119.98257 0.099796216 0.066799919)
(119.97778 0.11072641 0.065650389)
(119.98471 0.10113639 0.056512597)
(119.99457 0.11035473 0.061187666)
(119.98732 0.12122114 0.070816209)
(119.97635 0.13188245 0.083562571)
(119.96882 0.11852627 0.075237631)
(119.97518 0.10709431 0.075024686)
(119.96457 0.11432367 0.086974816)
(119.95691 0.12742369 0.086802896)
(119.94307 0.13412132 0.10144132)
(119.95453 0.11913658 0.099768872)
(119.96053 0.13434627 0.11238921)
(119.96944 0.14843332 0.12477983)
(119.98378 0.13310414 0.13158934)
(120.03639 -0.0054988994 0.021098767)
(120.03508 -0.011648702 0.015492353)
(120.03409 -0.01137676 0.017334073)
(120.01253 -0.020091866 0.055932309)
(120.00698 -0.0077852116 0.067029188)
(120.00242 -0.0067487141 0.12294913)
(119.99676 -0.043770442 0.13411615)
(120.00947 -0.030255951 0.10489867)
(120.00557 -0.020620821 0.11564944)
(119.98714 -0.017386433 0.098801844)
(119.98398 -0.0057969085 0.10439713)
(119.96453 -0.0087424137 0.13202653)
(119.98423 -0.010442265 0.16086486)
(119.9889 -0.030210191 0.15147618)
(119.96892 -0.024951864 0.12526095)
(119.97669 -0.036689157 0.11253422)
(119.99146 -0.025770498 0.090805216)
(119.99776 -0.031553396 0.078766708)
(120.0153 -0.036698218 0.089650729)
(120.00532 -0.051851046 0.11433557)
(119.98539 -0.044072249 0.097733482)
(119.99388 -0.046241278 0.080900671)
(120.00268 -0.033971133 0.067649749)
(120.01796 -0.024252336 0.041472009)
(99.941392 0.10707384 0.22266328)
(107.67432 0.12496121 0.24208326)
(110.41206 0.13181896 0.25217719)
(111.88585 0.13279679 0.25898343)
(117.60704 0.044430385 0.21122601)
(118.12725 -0.16581769 0.12600658)
(113.08603 -0.17424223 0.26274933)
(111.69655 -0.17089353 0.29065031)
(109.01333 -0.1706174 0.31617962)
(101.18859 -0.18291612 0.32904041)
(101.13186 -0.068067803 0.10135268)
(108.8574 -0.070976655 0.10913445)
(111.53773 -0.070054405 0.10549131)
(112.95146 -0.068677181 0.10010436)
(118.15354 -0.080546984 0.062693677)
(118.29051 -0.069164344 0.043047272)
(113.12665 -0.069921558 0.078201559)
(111.71881 -0.07070952 0.084730986)
(109.04297 -0.072540495 0.09090439)
(101.31241 -0.075140132 0.097300023)
(101.35999 -0.045957671 0.057830214)
(109.08328 -0.046434597 0.056853788)
(111.75816 -0.045852216 0.054031413)
(113.16644 -0.045493163 0.050686951)
(118.35866 -0.049780519 0.028593134)
(118.42659 -0.0390234 0.021183425)
(113.22964 -0.036127249 0.039188076)
(111.82318 -0.03632608 0.042181275)
(109.14899 -0.03686071 0.044990462)
(101.42213 -0.037557821 0.047381596)
(101.4625 -0.027626881 0.034643658)
(109.19001 -0.027583642 0.033494224)
(111.86408 -0.027341464 0.031551108)
(113.26965 -0.02728918 0.029394829)
(118.47386 -0.030142862 0.01602037)
(118.51289 -0.023855416 0.012482988)
(113.30782 -0.021628665 0.022871963)
(111.9029 -0.021595744 0.024627927)
(109.22897 -0.021742183 0.026274304)
(101.49965 -0.02191747 0.027467533)
(101.53029 -0.017226235 0.021517458)
(109.25956 -0.017140176 0.020632171)
(111.93333 -0.017058145 0.019343957)
(113.33765 -0.017113396 0.01797487)
(118.54263 -0.018875539 0.0099699242)
(118.56651 -0.015069916 0.0081055512)
(113.363 -0.013744632 0.014341064)
(111.95896 -0.013683218 0.015434567)
(109.28542 -0.013733866 0.016480898)
(101.55581 -0.013812006 0.017220418)
(101.57816 -0.011151813 0.013870237)
(109.30664 -0.011089002 0.013275342)
(111.97982 -0.011050955 0.012434865)
(113.38334 -0.011101065 0.011567886)
(118.58534 -0.012066762 0.0067062189)
(118.60044 -0.0097064119 0.0056242091)
(113.40006 -0.0090406682 0.0094115179)
(111.99673 -0.0090018292 0.010102085)
(109.324 -0.0090308745 0.010782496)
(101.59621 -0.0090853745 0.011268083)
(101.61283 -0.0074500448 0.009203961)
(109.33856 -0.0074016273 0.008806788)
(112.01068 -0.0073775848 0.0082557823)
(113.41348 -0.0074046584 0.0077077952)
(118.6124 -0.0078186709 0.0047813653)
(118.62193 -0.0063002872 0.0041286129)
(113.42442 -0.0060956516 0.006358683)
(112.02182 -0.0060792917 0.0067915648)
(109.35037 -0.0061023969 0.0072400465)
(101.62622 -0.0061528509 0.0075735957)
(101.63927 -0.005115871 0.0062792102)
(109.36053 -0.0050582055 0.0059861473)
(112.03113 -0.0050318253 0.005619004)
(113.43317 -0.0050381123 0.0052806167)
(118.6294 -0.0050628596 0.0036261315)
(118.63524 -0.0040489258 0.0032369916)
(113.44032 -0.0041856341 0.0044304634)
(112.03853 -0.0041896314 0.004693867)
(109.36886 -0.0042216643 0.0049972312)
(101.65006 -0.0042839551 0.0052561094)
(101.66127 -0.0036200114 0.0044639573)
(109.3763 -0.0035529347 0.0042327385)
(112.04484 -0.003513914 0.0039769807)
(113.44603 -0.0034978888 0.0037704454)
(118.63971 -0.0032081865 0.0029290907)
(118.64308 -0.0025034575 0.0026849137)
(113.45071 -0.0029440838 0.0032853042)
(112.04985 -0.0029743377 0.0034536179)
(109.38253 -0.0030202451 0.0036757933)
(101.67089 -0.0030946659 0.0038798174)
(101.68126 -0.0027147765 0.0034260328)
(109.38828 -0.0026456318 0.0032523582)
(112.0542 -0.0025926248 0.0030579268)
(113.45441 -0.0025447119 0.0029159559)
(118.64548 -0.0019412878 0.0024841472)
(118.64714 -0.0015077965 0.0023605044)
(113.45749 -0.0022704291 0.0026950709)
(112.05769 -0.0023350961 0.0028243498)
(109.39327 -0.0023921059 0.0030023031)
(101.69048 -0.0024579193 0.0031453999)
(101.7008 -0.0023144982 0.0029494385)
(109.39821 -0.00224397 0.0028201947)
(112.06099 -0.0021782185 0.002653216)
(113.46007 -0.0020967589 0.002533093)
(118.64819 -0.0011806424 0.0022906875)
(118.64873 -0.00091862251 0.0021465403)
(113.46233 -0.0019231534 0.0022541957)
(112.06376 -0.0020080455 0.0023541113)
(109.40278 -0.0020698514 0.0025024739)
(101.71044 -0.0021370887 0.0026291358)
(101.7212 -0.0020052835 0.0024192315)
(109.40739 -0.0019352949 0.0022737964)
(112.06645 -0.0018710902 0.002118273)
(113.46421 -0.001776979 0.0020219507)
(118.64875 -0.00066850963 0.0019707927)
(118.64849 -0.00038161287 0.0018570479)
(113.4661 -0.0015364404 0.0019477367)
(112.06896 -0.0016322626 0.0020488601)
(109.41197 -0.0016905482 0.0022149326)
(101.73152 -0.0017851149 0.0023464936)
(101.74329 -0.0017563159 0.0022849117)
(109.41688 -0.0016544091 0.0021371516)
(112.07169 -0.0015861958 0.0019598719)
(113.46791 -0.0014801327 0.0018517922)
(118.64798 -0.00021346901 0.0017420401)
(118.6472 -0.00011681961 0.0015858246)
(113.46951 -0.0014126567 0.0016162345)
(112.07398 -0.001513181 0.0017230115)
(109.42146 -0.001575826 0.0019000099)
(101.75435 -0.0016621318 0.0020524215)
(101.76659 -0.0015212943 0.0018160004)
(109.42622 -0.0014950336 0.0017001902)
(112.07635 -0.0014609185 0.001532288)
(113.47091 -0.0013728133 0.0014269507)
(118.64611 -8.6974604e-05 0.0014506592)
(118.645 -0.00010309823 0.0013276844)
(113.47256 -0.0012440551 0.0012425824)
(112.07878 -0.0012913457 0.0013460732)
(109.43114 -0.0012717764 0.0014921079)
(101.77846 -0.0012501591 0.0016167645)
(101.7922 -0.00061738891 0.00082232464)
(109.43698 -0.00068806535 0.0008729564)
(112.08199 -0.00080997861 0.00078388751)
(113.47469 -0.00085657269 0.00072797232)
(118.64405 -0.00016110241 0.0010609118)
(118.64262 -0.00051301544 0.00034062453)
(113.47629 -0.00074912473 -0.00075000516)
(112.08449 -0.0006109552 -0.00083373524)
(109.44232 -0.00033530873 -0.00086964976)
(101.80543 -0.00030967633 -0.0010981636)
(101.81662 -0.0015891699 -0.0020464774)
(109.44515 -0.0020348859 -0.002016021)
(112.08476 -0.0022496143 -0.0019314877)
(113.47569 -0.0023164709 -0.0018024361)
(118.63981 -0.0012939964 -0.0002196901)
(118.63707 -0.0003141657 0.00047631401)
(113.4758 -0.00083093515 -0.00052541989)
(112.08592 -0.00077218336 -0.00061266011)
(109.44852 -0.00061703915 -0.00067367144)
(101.82539 -0.00034816022 -0.00074253275)
(118.71589 -0.00060985745 0.00029109998)
(112.63389 -0.0024575479 -0.0012536332)
(111.21785 -0.0025952723 -0.0014360505)
(108.51915 -0.0026053712 -0.001581333)
(100.77258 -0.0021405073 -0.001532419)
(100.76502 -0.0047302982 -0.00093219528)
(108.51686 -0.0051445803 -0.001072816)
(111.21765 -0.0050555745 -0.0010332704)
(112.63468 -0.004789449 -0.00093514195)
(118.71881 -0.0015524497 0.00029583499)
(118.72189 -0.00029805037 0.0005478959)
(112.63635 -0.0021687669 -0.00051170666)
(111.2186 -0.002283336 -0.00060498043)
(108.51525 -0.0022523418 -0.00065621689)
(100.7544 -0.0025062404 -0.0008974246)
(100.73974 0.00031149257 0.00056825271)
(108.50947 0.0007070014 0.00075935928)
(111.216 0.0005174724 0.00072805368)
(112.63466 0.00043499314 0.00073460499)
(118.72346 0.00078355837 0.0011111425)
(118.72429 0.0006578635 0.001218072)
(112.6314 0.00033148764 0.0011308274)
(111.21154 0.0004235569 0.0012075004)
(108.50208 0.00057279834 0.0013223822)
(100.72368 0.000591705 0.0013259072)
(100.7099 0.00037837724 0.0015392119)
(108.49583 0.00032904808 0.0014738914)
(111.20815 0.00018743334 0.0013498918)
(112.6289 8.9082663e-05 0.001265588)
(118.72545 0.0004587819 0.0012574196)
(118.72664 0.00033469544 0.0013650073)
(112.62689 -2.2118965e-05 0.0014905054)
(111.20513 7.5365871e-05 0.0015920807)
(108.49027 0.00021193674 0.0017364273)
(100.69634 0.00024027362 0.0018164281)
(100.68352 0.00012142182 0.0021737913)
(108.4845 8.8102749e-05 0.0020783052)
(111.20198 -5.1943561e-05 0.0019269564)
(112.62456 -0.00015525971 0.0018124559)
(118.72753 0.00015746082 0.0015219951)
(118.72816 -0.00012329993 0.0016707987)
(112.62219 -0.00050128577 0.0019740564)
(111.19865 -0.00041787266 0.0020887259)
(108.47888 -0.00029584922 0.0022372075)
(100.67065 -0.00020922653 0.0023554174)
(100.65923 -0.00089600671 0.0027408962)
(108.47358 -0.00096593326 0.0025847375)
(111.19567 -0.0010222664 0.0024335544)
(112.6199 -0.0010354759 0.002319449)
(118.72855 -0.00039760594 0.0019605388)
(118.72858 -0.00057640196 0.0022931954)
(112.61794 -0.0013591873 0.002818753)
(111.19293 -0.0013983879 0.0029420477)
(108.46892 -0.0013876998 0.0030999036)
(100.64818 -0.0013844193 0.0032119895)
(100.63789 -0.001531797 0.0035381864)
(108.46403 -0.0015051658 0.0034711888)
(111.19005 -0.0015045517 0.0033110019)
(112.6156 -0.001459016 0.0031800818)
(118.72806 -0.00075048015 0.0025296589)
(118.72707 -0.0011272294 0.0026246338)
(112.61305 -0.0016401669 0.0033703065)
(111.18681 -0.0016592085 0.003517512)
(108.45913 -0.0016386022 0.0037064753)
(100.62732 -0.0016587065 0.0038320456)
(100.61755 -0.0019062742 0.0043116904)
(108.45395 -0.0018900628 0.0041421959)
(111.18335 -0.0019161225 0.0039238514)
(112.61004 -0.0019145907 0.0037565142)
(118.72555 -0.0016217189 0.0028376454)
(118.7233 -0.002216008 0.0031463022)
(112.60648 -0.0022484938 0.0042547607)
(111.17918 -0.0022282251 0.0044423753)
(108.44842 -0.002190973 0.0046842901)
(100.60719 -0.0021999869 0.0048721381)
(100.59703 -0.0025491471 0.0055789585)
(108.44195 -0.002545014 0.0053759329)
(111.17414 -0.002597474 0.0051061168)
(112.60184 -0.0026442684 0.0048898279)
(118.72013 -0.0029278384 0.0035253464)
(118.71587 -0.0037752648 0.0039911382)
(112.5963 -0.0031303335 0.0056856064)
(111.16809 -0.0030524206 0.0059406939)
(108.43491 -0.0029759873 0.0062448443)
(100.58628 -0.0029664996 0.0064601115)
(100.57524 -0.0034813192 0.0075791264)
(108.42651 -0.0035128463 0.0073537477)
(111.16079 -0.003621358 0.0070053318)
(112.58932 -0.003736955 0.0066967349)
(118.7103 -0.0048004871 0.0045694429)
(118.70315 -0.0060591446 0.0053038623)
(112.58086 -0.0045098478 0.0080181644)
(111.15185 -0.0043506109 0.0084014168)
(108.41682 -0.0042039689 0.0088099874)
(100.56263 -0.0041438099 0.0090500721)
(100.54895 -0.0049924193 0.01095542)
(108.405 -0.0050879205 0.010692557)
(111.14091 -0.0052784236 0.010201715)
(112.5702 -0.0054880447 0.0097194243)
(118.69406 -0.0076046238 0.0062359934)
(118.68263 -0.0095323897 0.0074189292)
(112.55722 -0.0067267966 0.011905238)
(111.12744 -0.0064593603 0.012517934)
(108.39097 -0.0062217842 0.01312384)
(100.53271 -0.0060934029 0.013438461)
(100.51456 -0.0074637207 0.0165068)
(108.37385 -0.0076294405 0.016135545)
(111.11099 -0.0079199525 0.015389746)
(112.54106 -0.0082558337 0.014620552)
(118.66826 -0.011927258 0.0089085361)
(118.65036 -0.014961855 0.010804482)
(112.52159 -0.010188139 0.018050217)
(111.09104 -0.0097662209 0.01901575)
(108.35356 -0.0094090722 0.019940476)
(100.49298 -0.009202372 0.020397269)
(100.46807 -0.01139851 0.025319028)
(108.32862 -0.011658846 0.024784048)
(111.06653 -0.012079425 0.023653671)
(112.49742 -0.012590325 0.022453596)
(118.62775 -0.018790189 0.013282345)
(118.59969 -0.023792157 0.016547791)
(112.46934 -0.015809463 0.028313176)
(111.03785 -0.015185877 0.02984288)
(108.29981 -0.01468176 0.03127967)
(100.43909 -0.014380784 0.032010678)
(100.40394 -0.017985783 0.040151053)
(108.26323 -0.018431144 0.03947923)
(111.00162 -0.018965113 0.03778232)
(112.43387 -0.019660408 0.035906486)
(118.56319 -0.030009442 0.020972423)
(118.5191 -0.038670031 0.027088805)
(112.39667 -0.025707391 0.046959983)
(110.96333 -0.024871409 0.049520351)
(108.22474 -0.024251235 0.05194027)
(100.36627 -0.023940057 0.053469018)
(100.31176 -0.028742614 0.064483266)
(108.16813 -0.029813014 0.064311208)
(110.90768 -0.030475104 0.061908989)
(112.34285 -0.031414813 0.059037887)
(118.45743 -0.048364968 0.035275721)
(118.39286 -0.065732763 0.048898829)
(112.294 -0.046100482 0.08591168)
(110.85712 -0.044843898 0.090933165)
(108.11546 -0.043856714 0.095847645)
(100.25479 -0.043830418 0.098136185)
(100.13685 -0.033653068 0.089385575)
(108.00893 -0.036924133 0.0938158)
(110.7543 -0.038915831 0.090864058)
(112.1921 -0.041327463 0.085901186)
(118.28295 -0.071163573 0.057261959)
(118.22541 -0.10832072 0.10908442)
(112.07856 -0.05665109 0.1768976)
(110.63567 -0.052534716 0.18445938)
(107.87872 -0.051259073 0.18957847)
(99.992385 -0.056581955 0.18732589)
(100.21095 0.051847151 -0.14955542)
(108.05468 0.064507378 -0.11943794)
(110.75617 0.055297779 -0.10025417)
(112.14881 0.045609109 -0.08352741)
(118.0528 0.0073002214 0.016818029)
(118.26301 -0.32820013 0.62955804)
(112.59161 0.50340192 1.903856)
(111.20683 0.63451845 2.1196838)
(108.35182 0.72340022 2.3376615)
(99.867156 0.35580527 2.3226543)
(99.928948 0.79602957 0.331787)
(107.7772 0.74715423 0.32985305)
(110.47488 0.69599398 0.31140115)
(111.86288 0.64699173 0.28873859)
(117.74429 0.31651882 0.20017007)
(118.01682 0.10153943 0.0015127602)
(111.84938 0.11760875 0.074400185)
(110.406 0.12105021 0.080599809)
(107.65261 0.1258675 0.082300347)
(99.781691 0.13105333 0.078836756)
(100.01975 0.12176679 0.057676038)
(107.88521 0.11543517 0.052700789)
(110.62838 0.10853602 0.049211036)
(112.06524 0.10251121 0.044452614)
(118.15393 0.072014488 0.0058887157)
(118.30713 0.040278056 -0.012881635)
(112.20551 0.036398279 0.0099324502)
(110.76875 0.036647038 0.012082449)
(108.02851 0.037046675 0.013490215)
(100.17336 0.036143857 0.014818526)
(100.25752 0.030036995 0.012543088)
(108.11029 0.029590344 0.01110138)
(110.84876 0.028710164 0.010112714)
(112.28362 0.027967486 0.0087167039)
(118.39848 0.028430581 -0.0090795876)
(118.47739 0.019932276 -0.0090997381)
(112.35448 0.017174323 0.0040148084)
(110.9212 0.017285587 0.0051652676)
(108.18319 0.017430369 0.0060255314)
(100.32707 0.017156274 0.0068172298)
(100.37562 0.012939463 0.005151183)
(108.23313 0.013042626 0.0045197759)
(110.97103 0.012880776 0.0038492463)
(112.40314 0.012766343 0.0029695577)
(118.53273 0.014748687 -0.0070942846)
(118.57694 0.011135289 -0.0058617886)
(112.4462 0.0093584377 0.0017357508)
(111.0147 0.0093652501 0.0024936084)
(108.27683 0.0094103341 0.0031012674)
(100.41706 0.0092892806 0.0036074122)
(100.45093 0.0070736361 0.0027119514)
(108.31102 0.0071584575 0.0023055084)
(111.04887 0.0071312702 0.0018127779)
(112.47976 0.0071389843 0.0012114133)
(118.6104 0.0085150229 -0.0045412111)
(118.63692 0.006584118 -0.003517798)
(112.50771 0.0055086262 0.00081153252)
(111.07702 0.0054861708 0.0012968817)
(108.33935 0.0054918082 0.0017081079)
(100.47866 0.0054227296 0.0020386255)
(100.5028 0.0042541761 0.00157242)
(108.36244 0.0043029391 0.0013070692)
(111.0998 0.0042995124 0.00097790399)
(112.52996 0.0043190914 0.00060018084)
(118.65767 0.0051205771 -0.0026330158)
(118.67419 0.0039980497 -0.0019202314)
(112.54812 0.0034145483 0.00044897565)
(111.11811 0.0033978532 0.00074071066)
(108.38121 0.0033984542 0.0010048859)
(100.52219 0.0033634256 0.0012153163)
(100.54003 0.0027042852 0.00094642822)
(108.39691 0.0027273945 0.00078110506)
(111.1332 0.0027254237 0.00057165269)
(112.56266 0.0027358421 0.00035122991)
(118.68722 0.0031256488 -0.0013262703)
(118.69756 0.0024445962 -0.00083743702)
(112.5745 0.0022384115 0.00029100481)
(111.14522 0.0022374906 0.00045571808)
(108.40968 0.002243722 0.00062377088)
(100.55449 0.0022313806 0.00075746243)
(100.56863 0.0018262665 0.00058782438)
(108.4207 0.0018340054 0.00048470729)
(111.15533 0.0018276299 0.00035209299)
(112.58402 0.0018231438 0.00023422511)
(118.70567 0.0018944653 -0.00043959801)
(118.71201 0.0014563394 -0.00011503818)
(112.5918 0.0015203351 0.00019462243)
(111.16336 0.0015326138 0.00027603319)
(108.42976 0.001541284 0.00038155043)
(100.58035 0.001537348 0.00046158791)
(100.59251 0.0012573515 0.00034597561)
(108.43786 0.0012692958 0.00028644758)
(111.17026 0.0012650722 0.00020368793)
(112.59805 0.0012496858 0.00015231513)
(118.71686 0.0010886771 0.00014982148)
(118.72053 0.00078586564 0.00036797741)
(112.60319 0.0010367309 0.00011826985)
(111.17571 0.0010557773 0.00014549862)
(108.44466 0.0010544129 0.00020979836)
(100.60293 0.0010308053 0.00025084694)
(100.61429 0.00080140442 0.0001544651)
(108.451 0.00084091646 0.00012942761)
(111.18054 0.00085350513 7.9354993e-05)
(112.60731 0.00083572907 7.1270397e-05)
(118.72319 0.00053186266 0.0005355696)
(118.72504 0.0003226347 0.00065540183)
(112.61072 0.00063715191 5.3223384e-06)
(111.18434 0.00064804635 -2.1982173e-06)
(108.45646 0.00062135989 3.8085432e-05)
(100.62437 0.00057057861 4.8063293e-05)
(100.63567 0.00033947019 -7.2334845e-05)
(108.46179 0.00040051256 -8.2116817e-05)
(111.18784 0.00044266942 -0.00011510749)
(112.61344 0.00044431569 -9.5266564e-05)
(118.72618 0.00015466458 0.00071428424)
(118.72672 -8.9250628e-06 0.00073898981)
(112.61571 0.0002097334 -0.00021007975)
(111.19059 0.00018760512 -0.00023549461)
(108.46651 0.00012917522 -0.00020565813)
(100.64591 4.0968516e-05 -0.00014823061)
(100.65753 -0.00047789527 4.5632417e-05)
(108.47154 -0.00035375936 -5.6681785e-05)
(111.19357 -0.00026629493 -9.4386613e-05)
(112.61783 -0.0002070496 -8.6302966e-05)
(118.72676 -0.00024795059 0.00083449163)
(118.72659 -0.00051805746 0.0010558705)
(112.62042 -0.00061721512 0.00034121931)
(111.19679 -0.00070389885 0.00036969709)
(108.47704 -0.0008198686 0.00044254471)
(100.66918 -0.00091497067 0.00049849304)
(100.68302 -0.0012285616 0.00071105419)
(108.48344 -0.0011659667 0.00073519571)
(111.20074 -0.0010305109 0.00064304523)
(112.6233 -0.00092364317 0.00060016875)
(118.72622 -0.00074197937 0.0012192379)
(118.72557 -0.00083345642 0.0012688159)
(112.62613 -0.00096823578 0.00062200758)
(111.20436 -0.0010708689 0.00066887703)
(108.48967 -0.0012042413 0.00076407519)
(100.69629 -0.001256554 0.00073980011)
(100.71089 -0.0011403798 0.00082585371)
(108.49613 -0.0011020509 0.00082243444)
(111.20815 -0.00099538408 0.0007187145)
(112.62878 -0.00090841893 0.00066357235)
(118.7246 -0.00087624804 0.0012855949)
(118.72363 -0.00087754801 0.0013558928)
(112.63184 -0.00083774848 0.00083952667)
(111.2121 -0.00091659567 0.000892164)
(108.50289 -0.00102104 0.0010134104)
(100.72514 -0.0010174374 0.00098959549)
(100.74213 0.00013286524 0.00075975018)
(108.5111 -9.4980232e-05 0.0011772163)
(111.21728 -0.00010391338 0.00098122938)
(112.63572 -0.00013946179 0.00089728262)
(118.72297 -0.00064672603 0.001416438)
(118.72155 0.00031289979 0.0003417413)
(112.6378 0.0018928453 -0.0015529974)
(111.22027 0.0020692102 -0.0016348049)
(108.51733 0.0022001214 -0.0015553115)
(100.7576 0.0024920753 -0.0018007882)
(100.76961 0.0028185087 -0.0040127786)
(108.51947 0.0029592438 -0.0044632165)
(111.21946 0.0028604698 -0.0044133054)
(112.63608 0.0026690549 -0.0041653592)
(118.71836 0.00086193244 -0.00091021589)
(118.71556 0.00071528535 -9.6918074e-05)
(112.63565 0.0027066147 -0.0021285418)
(111.21989 0.0028956044 -0.0021744564)
(108.52284 0.0030716347 -0.0020673863)
(100.781 0.0030552189 -0.001462392)
(100.79307 0.00046729901 -0.00016682161)
(108.52948 0.00050439703 -0.00028081323)
(111.2244 0.00049978474 -0.00033966364)
(112.63892 0.00046187834 -0.00032145522)
(118.714 -5.9602308e-05 0.00078902712)
(101.69674 3.9471664e-05 -0.00045183452)
(109.32309 6.7712405e-05 -0.00055008822)
(111.96452 7.8193907e-05 -0.00057974927)
(113.3551 7.1085436e-05 -0.00052481718)
(118.62054 -5.9956036e-05 0.00043955796)
(118.62216 6.7049493e-05 -0.00067780909)
(113.3531 0.00027529054 -0.002694061)
(111.96143 0.00028250216 -0.0027894766)
(109.3179 0.00025264983 -0.0027460281)
(101.68591 0.00014940386 -0.0024638289)
(101.67352 -0.0015158481 -0.0032735171)
(109.31367 -0.001230149 -0.003415033)
(111.96016 -0.0010213045 -0.003459611)
(113.35279 -0.00086312438 -0.003357449)
(118.62483 -0.00017572138 -0.0013135966)
(118.62784 -0.00019502112 -0.00061181916)
(113.35349 -0.00039444453 -0.0022422579)
(111.95989 -0.0004627082 -0.0023296881)
(109.31057 -0.00057329928 -0.0022590529)
(101.66134 -0.00064865387 -0.0023035601)
(101.64719 -0.00047250522 0.00021540923)
(109.305 -0.00049037738 0.00042436715)
(111.95738 -0.00044522527 0.00030903999)
(113.35195 -0.00042496507 0.00028266004)
(118.62937 -0.00041851924 0.00097556523)
(118.62999 -0.00048342337 0.0013045158)
(113.34868 -0.00042551407 0.00058541174)
(111.95292 -0.00043802006 0.00061894885)
(109.2977 -0.00046841612 0.00074378409)
(101.63145 -0.00048785994 0.00073568895)
(101.61766 -0.00049763755 0.00073073336)
(109.29125 -0.00046987023 0.00068606065)
(111.94923 -0.00044244033 0.00060320306)
(113.34597 -0.0004316704 0.00058516814)
(118.63091 -0.00052477746 0.001399021)
(118.63183 -0.00055407823 0.0014525071)
(113.34371 -0.00040564194 0.00065171368)
(111.94594 -0.00040619228 0.0006645485)
(109.28545 -0.0004326776 0.00073507407)
(101.6041 -0.00046647463 0.00075624296)
(101.5913 -0.00043407764 0.00073277578)
(109.27955 -0.00038748801 0.00070586442)
(111.9426 -0.00036498044 0.0006472249)
(113.34125 -0.00037454056 0.00063949606)
(118.63244 -0.00056361163 0.0014010789)
(118.63277 -0.00052906312 0.001193008)
(113.33897 -0.0003123821 0.00038336574)
(111.93941 -0.00029733934 0.0003731943)
(109.27416 -0.00031656669 0.00041340448)
(101.57898 -0.00037429361 0.00046488638)
(101.56787 -0.00044311745 7.7238107e-05)