/*--------------------------------*- C++ -*----------------------------------*\
  =========                 |
  \\      /  F ield         | OpenFOAM: The Open Source CFD Toolbox
   \\    /   O peration     | Website:  https://openfoam.org
    \\  /    A nd           | Version:  7
     \\/     M anipulation  |
\*---------------------------------------------------------------------------*/
FoamFile
{
    version     2.0;
    format      ascii;
    class       volScalarField;
    location    "390";
    object      omega;
}
// * * * * * * * * * * * * * * * * * * * * * * * * * * * * * * * * * * * * * //

dimensions      [0 0 -1 0 0 0 0];

internalField   nonuniform List<scalar> 
24866
(
434.20719
442.17437
443.5124
505.56771
565.84453
564.66482
560.06414
566.03451
566.72817
559.48511
562.59959
562.6378
559.58489
566.79204
565.96693
560.29261
564.13953
566.09635
564.31664
562.74008
555.39844
567.91584
581.73025
575.30954
561.73229
551.89267
563.17227
576.25423
575.04446
557.21446
565.05175
564.60969
564.60879
565.05188
557.23628
575.05178
576.31316
563.23001
551.83269
561.6632
575.2921
581.73148
567.92266
555.39971
562.80242
564.2788
566.18355
564.06175
560.34661
565.82941
566.89904
559.54703
562.60063
562.63096
559.6271
566.67694
566.10135
559.95554
564.81558
565.71432
569.42396
566.27558
569.48324
569.94375
561.60869
565.43058
572.32046
571.15237
561.83263
562.14221
562.16777
561.87948
571.17229
572.32299
565.45646
561.51731
569.49893
569.26298
565.25684
567.58815
567.18246
555.71149
557.48594
563.75532
565.82117
573.04391
565.90128
558.90123
567.05242
574.0208
565.85373
559.24786
564.18105
564.59328
563.87378
562.0127
560.41776
562.89272
562.02093
563.34168
563.04231
563.45539
562.95416
563.67615
564.13955
564.14618
563.89681
564.29899
563.60856
562.7316
557.07876
568.82916
568.1697
565.10465
561.2221
563.13202
563.39945
563.73323
564.15976
564.40813
564.35682
563.99565
564.35465
563.78899
563.14694
562.7453
560.97006
561.89412
562.28837
563.12588
563.93706
564.52581
564.84598
564.68592
564.74778
564.54368
564.16195
563.90008
563.40091
563.61161
561.22543
557.08312
568.82813
568.1679
550.79378
551.16058
510.68085
503.39788
504.3901
504.39031
503.39755
496.1925
499.75577
555.68977
555.36827
501.56539
502.18447
491.07699
500.06221
499.26482
487.55279
483.11717
493.51224
501.39162
504.11796
505.58836
502.86301
498.15935
503.98401
504.41253
495.6483
496.10192
496.04848
495.5215
504.31898
504.00665
498.02863
503.25205
511.76481
512.62923
552.01908
552.37716
510.07648
495.5065
510.97811
504.26462
498.68555
562.24364
563.28354
562.24457
563.34109
562.69046
560.91053
561.87373
562.26373
563.09447
563.89342
564.46725
564.77701
564.84909
564.91789
564.75067
564.41294
564.15186
564.18632
564.30239
565.85871
562.7336
501.68238
504.2684
542.84347
555.70229
499.7317
496.19621
439.73717
441.98275
442.57115
442.57097
441.98109
439.73172
438.55186
439.85765
439.84047
435.85592
439.07133
438.71021
433.93815
430.94179
437.82419
440.91833
442.58518
443.42007
441.95831
441.45288
442.21841
442.70416
439.62923
439.60927
439.59513
439.54409
442.59918
442.17576
441.3444
392.59121
392.81286
393.31501
393.29374
392.85633
442.23645
503.35298
497.99557
504.07359
504.27829
495.68415
496.09224
496.0531
495.59524
504.41171
503.87809
498.22407
502.81127
505.65735
504.10321
501.4421
493.52532
483.13112
539.47565
560.30053
552.86152
499.2972
500.09291
491.09047
502.16394
501.52051
555.41512
544.09755
511.05705
506.22947
492.75984
508.86635
513.24666
512.41193
555.92957
574.04006
567.06412
558.89894
559.25139
565.81919
564.60038
564.14797
564.36459
564.69169
564.36267
564.53104
564.46954
564.18173
563.67628
563.07765
563.03358
563.33084
563.67825
563.89788
563.94379
563.79836
563.46728
564.00585
563.68707
563.88388
563.7579
557.49731
562.02772
562.96788
562.90913
563.05544
563.15666
563.13324
563.10148
563.0817
563.0347
563.3419
562.69753
562.2741
562.29626
562.75402
563.35563
562.03997
565.27429
560.43767
555.73039
567.22182
567.58237
550.16314
511.07319
509.15275
549.69522
506.84733
508.91708
493.12145
432.4985
440.95764
437.84043
430.9525
433.95697
487.60548
487.14662
503.39253
503.7194
544.0171
541.10881
504.89413
490.62347
508.61083
429.59182
438.72097
439.06896
435.84996
439.85378
439.86807
438.55197
389.88394
391.19129
392.46028
392.60325
392.60315
392.45905
391.1879
389.88442
390.39581
390.48679
388.40933
390.18174
389.83714
387.28175
385.68433
390.06301
391.84426
392.71151
393.24266
392.71944
392.69068
392.91773
393.27318
391.79745
391.91527
391.87185
391.69732
393.1783
392.85719
352.33614
352.29918
352.28419
352.50971
352.49992
352.31604
352.31376
392.59823
441.33387
442.23457
442.6257
439.64639
439.6066
439.60769
439.60991
442.68276
442.14218
441.47883
441.93086
443.4643
442.58746
392.71738
391.87251
390.07814
385.69504
387.298
389.84758
390.18344
388.40719
390.49329
390.39898
350.27901
350.00295
351.11496
351.8803
351.95201
351.95209
351.87939
351.11262
350.00276
350.27642
350.3748
349.19422
350.30429
350.02745
348.41646
347.44988
350.35869
351.53821
352.10628
352.46407
352.25665
352.38941
352.40201
352.64571
351.88412
351.98779
351.95587
351.80504
352.56205
318.97393
318.82911
318.89071
318.76297
318.86068
318.85699
318.78712
318.90785
318.86818
319.01332
352.60405
393.21651
391.80333
391.9151
391.88584
391.74986
393.2428
392.85835
392.69637
392.70038
393.26791
352.4775
352.11177
351.55805
350.37129
347.45931
348.42921
350.03591
350.30625
349.19339
350.37957
317.25115
317.13599
317.00108
317.90467
318.35883
318.40981
318.40986
318.35813
317.90297
317.00056
317.13384
317.24753
316.57057
317.28681
317.03973
315.93997
315.34944
317.35393
318.16125
318.57421
318.82999
318.76688
318.97063
318.89295
319.04543
318.66239
318.74483
318.71942
318.59857
290.90349
291.06903
290.98545
291.08782
290.9134
290.9453
290.94464
290.93216
291.10496
291.01858
291.10438
290.95306
318.66127
351.88526
351.98968
351.96934
351.84637
352.61234
352.35246
352.38393
352.2412
318.75371
318.83649
318.57843
318.1752
317.3641
315.35747
315.95001
317.04664
317.28881
316.57047
289.30258
289.69112
289.57292
289.53197
290.26297
290.52934
290.56973
290.56971
290.52877
290.26168
289.53129
289.5711
289.68834
289.30229
289.76652
289.53956
288.75543
288.40517
289.83576
290.4046
290.72321
290.91868
290.92909
291.15679
291.04415
291.1299
290.95559
291.02699
291.00645
267.72635
267.6367
267.6914
267.64875
267.7616
267.5809
267.57861
267.5794
267.59575
267.77758
267.67673
267.72241
267.67641
267.74452
291.02865
318.74706
318.73121
318.6313
319.0143
318.85195
318.96
291.14448
290.91785
290.92139
290.72634
290.41463
289.84397
288.41197
288.76344
289.54524
289.76844
266.64153
266.33975
266.56055
266.45307
266.47152
267.06402
267.22369
267.25759
267.25754
267.2232
267.06301
266.4708
266.45152
266.55833
266.33923
266.63972
266.43338
265.85923
265.6623
266.71557
267.13385
267.39141
267.54984
267.59827
267.81977
267.70111
267.74324
267.67977
267.74318
247.9542
247.94007
247.86242
247.86272
247.84512
247.95271
247.78736
247.76803
247.76946
247.79934
247.96713
247.86878
247.88967
247.89479
247.95536
247.94785
267.73492
291.01632
290.92997
291.10219
291.01051
267.67355
267.80755
267.58877
267.5506
267.39378
267.1413
266.7223
265.66809
265.86573
266.4381
246.80022
246.98213
246.78756
246.9125
246.82315
246.87584
247.35683
247.45895
247.48847
247.48841
247.45854
247.35602
246.87512
246.82181
246.91068
246.78691
246.98045
246.79624
246.36872
246.26768
247.06289
247.3857
247.60116
247.73495
247.80196
248.00101
247.89098
247.907
247.89863
230.86768
230.91565
230.90373
230.83706
230.81328
230.80969
230.90496
230.76342
230.73646
230.73812
230.77325
230.91779
230.82982
230.83661
230.86373
230.91666
230.91074
230.85297
247.88102
267.65864
267.71915
247.88626
247.86832
247.98965
247.79397
247.73476
247.60304
247.39143
247.0685
246.27267
246.37409
229.57425
229.89512
230.05519
229.93103
230.0011
229.93137
230.0012
230.39209
230.46387
230.49011
230.49005
230.46352
230.39142
230.00052
229.93021
229.99959
229.93031
230.05363
229.89172
229.56974
229.5273
230.13944
230.3993
230.58354
230.69932
230.77388
230.94475
230.84948
230.85119
216.00032
216.0262
216.06712
216.05701
216.00012
215.96771
215.97118
216.05199
215.93518
215.90578
215.90747
215.94338
216.06334
215.98842
215.98792
216.02232
216.06801
216.06331
216.01384
215.9851
230.83342
230.83073
230.93451
230.76714
230.6987
230.5851
230.40387
230.14421
229.53164
214.91406
214.92165
215.16542
215.30472
215.22705
215.26565
215.21371
215.28984
215.60798
215.66344
215.68702
215.68696
215.66314
215.60742
215.28921
215.21269
215.26436
215.22631
215.30327
215.16248
214.91779
214.91024
215.38876
215.60448
215.76415
215.86577
215.94153
216.0847
216.0056
202.93918
202.93115
202.95894
202.99363
202.98497
202.93655
202.90294
202.90941
202.9762
202.88158
202.85259
202.85421
202.88852
202.98623
202.92429
202.9205
202.95523
202.9944
202.99065
202.9485
202.91808
202.92598
215.98994
216.07559
215.93582
215.86497
215.76547
215.60822
215.39287
202.4022
202.02305
202.01043
202.19715
202.31757
202.27073
202.29135
202.25413
202.3302
202.5898
202.63581
202.65717
202.65712
202.63556
202.58933
202.32962
202.25324
202.29025
202.26999
202.31623
202.19459
202.0071
202.01968
202.39864
202.58138
202.721
202.81096
202.88437
203.00311
191.3887
191.33796
191.32944
191.35577
191.38509
191.37762
191.33641
191.30489
191.31215
191.36651
191.29049
191.2634
191.26491
191.29644
191.3754
191.3251
191.3202
191.35229
191.38576
191.38275
191.34689
191.31816
191.32673
191.38158
202.99506
202.87949
202.81011
202.72214
202.58449
191.02075
190.86441
190.5606
190.53687
190.68103
190.78474
190.7584
190.76893
190.74329
190.81586
191.02855
191.06845
191.08795
191.0879
191.06822
191.02815
190.81534
190.74251
190.76798
190.75769
190.7835
190.67877
190.53397
190.55761
190.86129
191.01812
191.14106
191.22119
191.29037
180.9223
181.00403
180.96426
180.95633
180.9799
181.00464
180.99817
180.96305
180.93485
180.94183
180.9857
180.92476
180.90027
180.90166
180.92991
180.99361
180.95318
180.94827
180.97666
181.00524
181.00281
180.97231
180.94656
180.95463
180.99772
180.9186
191.28613
191.22034
191.14203
180.78734
180.67988
180.54458
180.29844
180.26909
180.38124
180.47042
180.45772
180.4628
180.44601
180.51348
180.68864
180.72407
180.74202
180.74198
180.72389
180.6883
180.51301
180.44534
180.46198
180.45705
180.4693
180.37926
180.26655
180.29579
180.54186
180.67764
180.78653
180.85824
171.53611
171.59476
171.66311
171.63223
171.6253
171.64576
171.66664
171.66099
171.63101
171.60642
171.61265
171.64794
171.59904
171.57743
171.57867
171.60354
171.655
171.62269
171.61824
171.64277
171.66718
171.6652
171.63923
171.6168
171.62389
171.65749
171.59147
171.53527
180.85741
180.91757
180.99005
180.79287
180.83997
180.94065
180.44709
180.54865
180.69155
180.75137
180.67674
180.60256
171.32591
171.17864
171.24042
171.38556
171.41746
171.43409
171.43403
171.41731
171.3853
171.24006
171.17812
171.18812
171.18581
171.18911
171.11172
171.02334
171.05488
171.25638
171.37472
171.47166
163.04761
163.10571
163.15907
163.21666
163.19287
163.18703
163.20448
163.22205
163.21706
163.19142
163.17027
163.17565
163.20402
163.16469
163.14592
163.14709
163.1687
163.21039
163.18459
163.18075
163.20168
163.22252
163.22091
163.19881
163.17957
163.18556
163.21163
163.15612
163.10489
163.04813
171.47232
171.37662
171.25875
171.0572
171.02552
171.11341
171.19006
171.18637
171.18875
162.79922
162.79407
162.85019
162.97126
163.00017
163.01565
163.01566
163.00013
162.97118
162.85007
162.79386
162.79893
162.7977
162.79513
162.72855
162.65877
162.69066
162.85729
162.96097
155.3149
155.39261
155.44511
155.49342
155.54236
155.52413
155.51929
155.53402
155.5488
155.54435
155.52234
155.50425
155.50884
155.53173
155.49997
155.48388
155.48497
155.50359
155.53753
155.5169
155.51363
155.53137
155.5492
155.54788
155.52904
155.51267
155.51763
155.53777
155.49068
155.44421
155.39286
155.31601
162.96253
162.85926
162.69256
162.66048
162.7298
162.79573
162.79794
155.17225
155.17332
155.17184
155.22262
155.32436
155.35067
155.36518
155.36527
155.35087
155.32469
155.2231
155.17237
155.17386
155.17284
155.1665
155.10911
155.0536
155.08468
155.22372
148.25483
148.33506
148.40489
148.45237
148.49595
148.53798
148.52402
148.51995
148.5324
148.54487
148.54085
148.52182
148.50629
148.51026
148.52888
148.503
148.48938
148.49039
148.50632
148.53423
148.51762
148.51478
148.52987
148.54519
148.54411
148.52797
148.51399
148.51814
148.5337
148.49327
148.45123
148.40464
148.33536
148.25512
155.22512
155.08587
155.05448
155.10949
155.16625
148.20038
148.20872
148.21
148.21111
148.25712
148.34337
148.3673
148.38106
148.38135
148.36813
148.34472
148.25906
148.21349
148.21257
148.21139
148.2027
148.153
148.10836
148.13792
141.76594
141.86472
141.93482
141.99748
142.04031
142.07941
142.11613
142.10528
142.10169
142.11246
142.12311
142.11941
142.10272
142.08906
142.09268
142.10809
142.0865
142.07512
142.07608
142.08961
142.1131
142.09951
142.09686
142.10999
142.12334
142.12246
142.10845
142.09622
142.09985
142.11198
142.07658
142.03862
141.9962
141.93349
141.86272
141.76252
148.13765
148.10745
148.1514
141.76908
141.81151
141.82119
141.82275
141.8255
141.86747
141.94143
141.96303
141.97636
141.97712
141.9653
141.94514
141.8728
141.83215
141.83003
141.82874
141.81863
141.77516
141.73846
135.87084
135.89544
135.97873
136.03847
136.09421
136.13247
136.16718
136.20023
136.19146
136.18797
136.19795
136.20737
136.20392
136.18884
136.17611
136.17968
136.1928
136.17376
136.16439
136.16533
136.17674
136.19758
136.18611
136.18336
136.19549
136.20752
136.20681
136.19426
136.18289
136.18634
136.19605
136.16389
136.12963
136.09089
136.03387
135.972
135.88539
135.85749
141.73357
141.83957
141.89452
141.95962
141.98348
141.95928
141.92871
136.03739
135.93909
135.97789
136.04234
136.06134
136.0748
136.07658
136.06677
136.05117
135.99054
135.95501
135.95324
135.95228
135.94136
135.90251
130.47225
130.44223
130.46242
130.53133
130.57901
130.6273
130.66062
130.69077
130.72212
130.71446
130.71066
130.7212
130.73017
130.72693
130.71257
130.69937
130.70323
130.71485
130.69617
130.68859
130.6895
130.69907
130.71948
130.70936
130.70622
130.71874
130.73026
130.72969
130.71779
130.70591
130.70956
130.7177
130.68655
130.65566
130.62012
130.56803
130.51534
130.43931
130.41202
130.43744
135.88682
135.92386
135.93416
135.93579
130.48174
130.48418
130.52076
130.57819
130.59387
130.60835
130.6121
130.60562
130.59721
130.54795
130.5186
130.51947
130.5198
130.50844
125.46832
125.43233
125.39967
125.41254
125.46626
125.49818
125.53738
125.56479
125.58984
125.62187
125.61446
125.61011
125.6231
125.6326
125.62947
125.61482
125.59928
125.60365
125.61441
125.5933
125.58721
125.58811
125.59614
125.61892
125.60953
125.60579
125.62062
125.63266
125.63223
125.61995
125.60568
125.60977
125.61703
125.58405
125.55615
125.52341
125.47572
125.43341
125.36554
125.33847
125.36243
125.39222
130.47025
130.4806
125.40213
125.40189
125.40157
125.43679
125.48936
125.50043
125.51719
125.52446
125.52369
125.52695
125.49046
125.46981
125.47667
125.47994
120.79507
120.78329
120.74459
120.70406
120.70454
120.73978
120.75012
120.777
120.79688
120.81601
120.85142
120.84373
120.83887
120.85661
120.86778
120.86478
120.84874
120.82865
120.83343
120.84369
120.81696
120.81198
120.81285
120.81973
120.84803
120.839
120.83479
120.85418
120.86786
120.86756
120.85376
120.83487
120.8393
120.84606
120.80803
120.78262
120.75237
120.70883
120.67885
120.61751
120.5906
120.61569
120.64368
120.65276
120.65005
120.64471
120.67896
120.72831
120.73298
120.75346
120.7664
120.77516
120.79655
120.77658
120.76935
120.78667
116.43161
116.44746
116.4356
116.39137
116.33754
116.31779
116.3278
116.30914
116.31897
116.3293
116.34186
116.38292
116.37527
116.37077
116.39518
116.40909
116.4063
116.38797
116.36159
116.36603
116.37552
116.34074
116.33626
116.33708
116.34334
116.37957
116.37114
116.36721
116.39294
116.40911
116.40892
116.39274
116.36739
116.37136
116.37728
116.33157
116.30792
116.2799
116.24062
116.22478
116.16974
116.14372
116.17202
116.19905
116.20694
116.20094
116.18878
116.22153
116.26806
116.26475
116.2899
116.31085
116.33427
116.38164
116.38524
116.39899
112.37271
112.42399
112.4482
112.4364
112.38543
112.31459
112.26265
112.23498
112.18003
112.16747
112.16694
112.17346
112.22019
112.2152
112.21351
112.24437
112.26097
112.25855
112.23828
112.20613
112.20821
112.21495
112.17278
112.16819
112.1689
112.17507
112.21848
112.21261
112.21099
112.24259
112.26091
112.2608
112.24248
112.21105
112.21237
112.21524
112.16215
112.13918
112.11309
112.07861
112.07662
112.0306
112.00834
112.03911
112.06405
112.07017
112.06138
112.04304
112.07208
112.11346
112.10238
112.13159
112.16192
112.2055
112.28639
112.3262
108.64534
108.74565
108.81503
108.8433
108.83144
108.77796
108.69125
108.58586
108.49526
108.39721
108.35943
108.3495
108.35187
108.40004
108.40556
108.41179
108.44455
108.46192
108.45994
108.44011
108.40727
108.40252
108.39998
108.35677
108.3529
108.35349
108.35857
108.40275
108.40589
108.4109
108.44349
108.46188
108.4617
108.44337
108.41078
108.40473
108.39773
108.34313
108.32094
108.29643
108.26621
108.27406
108.24801
108.2368
108.26171
108.27755
108.28037
108.27236
108.25367
108.27386
108.30193
108.28691
108.31791
108.35584
108.42257
108.54417
105.18664
105.40845
105.59937
105.67995
105.69885
105.68675
105.64434
105.54877
105.35386
105.14143
104.98507
104.9294
104.91741
104.91463
104.95153
104.98834
105.00826
105.03231
105.05774
105.05847
105.0319
105.00711
104.99055
104.9597
104.93114
104.93584
104.93618
104.93226
104.96146
104.99282
105.00933
105.03211
105.05776
105.05967
105.03404
105.00897
104.99044
104.95444
104.91385
104.89995
104.87661
104.84385
104.85139
104.87986
104.89417
104.88809
104.87769
104.88074
104.8775
104.87084
104.87111
104.86175
104.85534
104.88836
104.92615
105.00896
101.87373
102.131
102.69673
103.073
103.09375
103.0715
103.06092
103.06167
103.02632
102.64723
102.09003
101.85236
101.75033
101.74803
101.80854
101.73043
101.94153
101.94706
101.94279
102.08068
102.07976
101.94295
101.94953
101.94916
101.74813
101.83991
101.79478
101.79489
101.84029
101.74901
101.9501
101.9493
101.94305
102.08057
102.08033
101.94397
101.9496
101.94711
101.7409
101.82179
101.7583
101.73575
101.75566
101.68811
101.96388
101.88654
101.81255
101.79795
101.92078
101.81337
101.82554
101.83242
101.64987
101.75469
101.7208
101.74739
99.355377
99.393701
99.660649
100.62769
101.38248
101.19911
101.13635
101.1247
101.16964
101.34121
100.58312
99.625761
99.37123
99.363576
99.358111
99.393052
99.37334
99.465106
99.480407
99.487886
99.492797
99.493522
99.491415
99.485898
99.475727
99.3975
99.432686
99.430019
99.430664
99.431654
99.396091
99.47488
99.485789
99.487354
99.492672
99.494114
99.49117
99.487256
99.474371
99.387148
99.418529
99.390233
99.389264
99.349524
99.400987
99.915722
99.874837
99.484659
99.38969
99.381109
99.381598
99.378545
99.363751
99.302775
99.336229
99.335606
97.092315
97.078112
97.156667
97.425671
97.346699
97.205521
97.202189
97.166356
97.197888
97.295054
97.41982
97.114322
97.117253
97.088395
97.204642
97.282685
97.186343
97.164788
97.382431
97.273808
97.275893
97.388873
97.170211
97.200021
97.316779
97.243763
97.199248
97.203966
97.236841
97.318299
97.195017
97.169564
97.379837
97.272847
97.276788
97.387387
97.166461
97.206664
97.294604
97.260052
97.132517
97.231732
97.138826
97.390248
97.002551
96.925264
97.308195
97.349685
97.195096
97.299916
97.096118
97.077834
97.241541
97.11094
97.058064
97.099239
97.218892
97.114086
97.07122
97.115667
97.163167
97.113237
97.057066
97.073711
97.164615
97.26877
97.147303
97.147416
97.308589
97.15455
96.960354
96.850177
97.00312
97.199447
97.234364
97.048122
96.865459
96.953822
97.158851
97.347212
97.091169
97.108056
99.370999
99.320299
99.760512
99.836299
101.25935
99.950401
99.862537
99.488762
99.880267
101.1891
99.816003
99.298813
99.326707
99.799985
99.759404
99.363552
97.250233
97.155071
97.207325
97.194236
97.194736
97.111496
97.248243
97.375551
97.116684
97.186515
99.358613
99.322431
99.765506
101.19728
99.831433
99.914232
99.840299
99.410471
99.482656
100.23537
101.3885
100.10396
100.09492
100.23921
99.882112
99.237525
99.249835
99.854275
100.13271
100.08562
101.34951
99.816843
99.897073
99.437383
97.239567
97.306105
97.214943
97.290086
97.057737
96.980458
99.372633
99.874066
99.957619
101.35245
99.896056
99.372953
99.840332
99.468005
101.90163
102.11141
101.90269
101.69037
101.92932
101.79851
102.01388
105.05156
108.52997
108.59515
108.45791
104.95986
105.04874
105.07199
104.98447
108.5208
108.60327
108.43732
104.9919
105.02778
108.49444
108.52199
105.04184
101.9852
99.408593
99.379194
99.295432
99.437426
99.235938
99.175394
101.74073
101.90888
101.97598
101.8771
102.01715
102.03219
99.328758
99.272727
99.047546
98.859871
99.01975
99.255972
99.553905
102.03674
101.84739
102.07134
102.37851
102.75985
100.70454
99.735257
99.387759
99.322612
99.303113
99.363139
99.69316
100.6639
100.59854
100.58042
100.59209
100.62821
102.83058
102.83292
102.46891
102.45531
99.660204
97.237988
97.107094
97.01728
96.822096
97.291834
97.34905
97.339688
97.275904
96.796964
96.707264
96.348471
96.382259
96.390154
96.354492
96.729538
96.818045
97.321239
97.380562
97.379331
97.319361
96.817787
96.728442
96.36023
96.395508
96.395341
96.866639
97.101107
97.215281
97.065502
97.12649
97.35683
97.272185
97.274171
97.360873
97.126458
97.070124
97.214496
97.100352
96.867476
96.40123
96.394073
96.35932
96.731616
96.826037
97.349576
97.419166
97.444772
97.381647
96.863587
96.768709
96.375847
96.41028
96.405498
96.372887
96.735178
97.289704
97.446096
97.888172
99.207185
101.00086
102.17351
102.15478
100.95453
99.154172
97.852451
97.43193
97.27837
96.73659
97.038651
97.128611
97.250598
97.233163
97.177911
97.223321
97.308496
96.821258
97.427395
97.746024
99.117928
100.49949
101.59775
103.37791
104.50545
105.80509
106.27512
106.28591
105.8305
104.54598
103.43841
101.6661
100.56044
99.182744
101.65549
102.95626
105.00836
106.33006
107.93398
108.52195
108.51094
107.90461
106.28333
104.94472
102.87925
101.58644
103.32826
100.85609
98.814818
98.282266
98.387299
97.363345
97.359927
97.220183
97.17636
97.232061
97.248286
97.125902
97.032635
96.811631
97.300724
98.272241
98.384532
99.066545
99.070949
101.98685
105.68118
104.42243
106.20301
104.90234
106.68475
108.55144
110.35212
111.30244
111.31092
110.38809
108.60953
106.7515
104.99127
103.41009
100.93945
104.51364
106.30612
108.59346
111.27908
113.65113
114.99327
114.98605
113.61791
111.21458
108.5098
110.2765
107.78666
108.3718
106.14247
106.14761
101.98527
105.69347
107.7947
108.37835
111.21
111.2001
114.92059
113.57751
116.54665
118.29325
118.30163
116.57821
113.64059
110.36405
107.89979
105.78521
102.09288
106.24304
108.49067
111.29528
114.99378
118.30652
120.26524
120.25706
118.26977
118.28269
114.93013
113.59924
110.29667
108.5302
106.21384
104.43024
100.84417
98.802872
97.729302
97.414725
97.261719
96.723952
96.359756
96.64718
96.727658
97.413001
97.829015
99.090688
101.56138
103.32765
104.90153
106.69475
108.56736
111.24821
113.65127
116.58598
118.3322
120.27497
120.28648
118.32407
115.00115
111.3019
108.48766
106.24056
102.08083
105.78186
107.89885
110.38037
113.66919
116.619
118.34576
115.02784
115.02195
111.32169
110.37892
107.8906
106.2675
104.93042
102.85406
101.57172
100.48071
99.104049
100.88774
103.36388
104.48732
105.78559
106.25262
108.49363
108.49669
111.33159
110.39614
113.68264
111.29663
108.60311
106.30051
104.50275
100.91237
103.38504
104.97108
106.74849
108.61024
106.29862
107.90958
105.79739
106.25916
102.06504
102.05963
99.111542
98.842161
97.74156
97.420441
97.270051
96.64817
96.629295
97.634538
97.576842
98.396573
98.519107
99.603421
99.688707
99.691263
99.61043
98.530324
98.409122
97.589907
96.365581
96.66032
96.638644
96.658858
97.285985
97.446619
98.342555
98.465685
98.489749
98.375433
97.480663
97.321067
96.676657
96.654794
96.678429
96.766992
97.477326
97.814471
98.929382
99.20797
99.184138
98.894453
97.775872
97.440659
96.745272
97.528545
97.58845
98.419509
98.546536
99.665699
99.756435
99.782177
99.697288
98.578784
98.452302
97.607709
97.66322
98.516797
97.610074
97.550538
98.371424
99.567238
98.62289
99.823249
100.92002
100.03474
102.88604
101.74963
100.01371
98.715781
98.338007
98.420457
99.529238
98.54386
97.441813
97.770589
98.829742
98.28028
98.388067
99.094878
99.080338
98.377473
98.261598
98.807386
97.735526
99.133575
100.51682
101.61712
103.39968
104.50949
100.90947
99.130077
97.842398
97.411195
97.258642
97.412774
98.515752
99.583607
99.669806
99.681073
99.599875
100.81067
99.722149
98.580757
99.987198
101.35144
102.89535
104.13591
103.56255
102.28329
103.56751
102.27246
103.55979
104.2269
106.94841
106.32325
104.37726
105.27368
107.05818
108.05932
107.81208
107.02389
105.85886
107.48825
105.8399
104.34372
101.68304
106.30269
108.03385
106.93549
107.78914
107.04157
105.24124
106.99995
108.78115
106.74312
102.79829
99.923111
99.907872
100.79794
99.703617
98.548984
99.502447
98.393881
98.309363
98.67855
99.949057
101.66471
102.78816
107.11141
107.11467
109.34671
109.04498
110.83585
109.89524
110.28183
109.30317
112.11167
111.17032
109.34468
110.25499
108.36626
110.26633
109.36287
112.17634
113.28258
115.86491
112.15549
109.92168
109.07683
106.79524
107.16136
109.37909
110.87391
110.31453
109.33586
108.8173
111.19649
112.12771
113.10841
117.30554
116.03456
114.646
117.69693
114.63368
115.86092
112.13611
113.09409
117.30992
116.03632
119.49628
120.97282
119.09227
120.95853
119.49249
121.54007
123.11442
124.85439
122.58599
118.73084
114.1075
113.1388
111.18406
109.19312
110.33434
112.47209
115.82368
112.45189
111.17317
114.52142
117.22968
118.66161
114.44838
115.5086
120.23656
121.71283
116.37133
113.12827
105.46836
104.29498
102.60739
101.27268
99.806144
101.04418
102.6893
103.73728
103.71323
100.88968
100.00911
99.791123
98.586007
99.533129
98.33805
98.685133
99.966647
101.70669
102.86847
107.14931
109.36871
110.86002
109.06532
106.77159
108.78974
109.32441
110.3037
109.90761
107.76634
107.02104
105.23643
104.32235
106.27993
108.01856
106.91061
105.80348
106.98123
109.30672
111.16042
112.12099
113.10226
112.12776
115.84024
117.30493
116.0293
114.61575
112.11576
113.22659
110.22324
108.3143
107.43274
109.26876
110.18811
112.06761
115.80505
119.06006
120.95524
119.48502
117.66962
119.46207
121.53404
123.11161
120.94571
117.25308
115.97047
114.57731
111.09703
112.0281
113.02261
110.17357
109.78843
107.69663
106.85004
104.1571
103.49691
102.22027
101.29292
99.945014
102.83899
104.07758
103.49986
102.2061
103.49786
105.75708
104.26331
101.63833
106.22673
107.9531
106.9611
105.15258
106.90622
108.67741
106.64166
102.74683
108.95036
110.73669
109.26225
107.01777
109.19579
109.2016
112.04317
115.97819
119.4781
121.55282
121.56482
119.51656
116.04275
112.12036
109.29868
110.27698
109.34935
110.83837
109.05303
106.74382
108.7821
109.89816
107.79047
107.04058
105.23392
107.00033
105.83084
104.32952
106.3067
108.04415
106.94278
108.38437
110.27511
112.15513
113.1046
117.32735
115.89798
114.66886
111.19188
109.36221
112.20195
113.3198
110.29875
109.37688
107.49913
105.83225
104.97787
102.91145
101.60892
102.23062
103.5265
104.11179
104.19942
103.53292
102.2372
99.962051
101.31375
102.87569
103.53898
106.31731
106.94121
108.05534
107.80629
107.00515
105.2403
101.69708
104.34307
107.06316
109.08968
109.92883
112.19793
115.92525
119.13956
120.99704
123.14433
121.02135
119.54324
117.74541
114.6882
116.08144
117.38073
113.16525
112.16879
111.22104
108.80766
109.32498
110.31888
110.89023
109.40436
102.82911
106.76655
107.13933
107.13332
109.32194
112.15936
116.0758
119.53084
121.01902
123.13383
120.96214
119.11782
117.71607
114.60324
115.84654
117.27233
113.04228
112.09604
111.1196
109.29919
112.16083
114.65936
115.90734
117.37707
113.16461
112.18951
111.20661
109.33845
110.27217
113.28857
110.23087
108.35101
107.45552
105.76978
106.92301
108.68903
109.80994
110.19202
110.76014
109.27776
102.74766
107.02577
106.65872
108.97817
106.98223
107.72755
107.98859
106.88745
106.26133
101.63498
105.16667
104.27588
102.18925
103.48215
105.80207
106.97712
108.79152
109.92176
110.31664
110.887
109.40148
102.82503
106.75648
109.09129
107.03907
107.78165
108.03794
106.92441
106.30397
101.68064
105.22269
104.31473
102.19757
99.943012
103.49797
104.1542
104.07934
103.49506
99.928623
101.28012
102.84319
98.66996
99.765929
100.97382
102.59444
103.61816
103.61605
102.59209
100.9832
99.777696
101.00195
102.6496
104.26049
105.45144
113.11442
109.97208
111.94907
105.65991
104.26278
102.22495
101.9801
101.83357
101.87708
99.452104
99.253288
99.34068
101.76398
102.06508
102.08785
101.78112
101.678
101.71445
101.85058
101.90219
99.212459
99.26713
99.262811
99.293505
102.24806
101.97133
101.80105
101.83953
101.83896
98.886849
96.869216
97.132031
97.367398
99.759793
99.356477
99.370999
102.14889
102.18847
99.38188
97.095639
97.156669
97.14753
97.086288
97.185517
97.199826
99.633326
99.622806
102.45865
102.8215
102.79869
102.42756
99.63415
97.217622
97.087603
96.997265
96.852372
97.111134
97.336544
97.332851
97.151291
96.95183
96.859532
97.033427
97.226698
97.226123
97.03438
96.867014
96.969727
97.16123
97.317937
97.147827
97.18527
97.27921
97.161445
97.10136
97.126347
97.176649
97.175789
97.121518
97.086412
97.132983
97.233049
97.124221
97.071391
99.309794
99.366163
99.855926
99.944068
99.827526
101.24881
99.748288
102.00381
102.00789
102.34163
102.71546
105.47213
105.58237
105.63851
105.65072
105.61687
105.52053
108.79157
112.47013
116.50496
116.63209
116.54273
116.44436
112.33078
112.4242
112.27782
116.40864
116.53849
116.63405
116.47385
112.34919
112.43139
112.23634
116.35614
116.40839
112.29604
112.32609
116.43524
116.67264
116.63121
116.54583
116.67599
112.57708
112.52397
108.6741
108.72991
105.13386
105.07153
105.14436
108.69211
108.73451
105.17547
105.26305
105.20852
108.79437
108.85097
112.68235
112.56931
112.52444
112.63171
116.71676
116.75705
116.90941
116.69484
116.60164
116.67255
116.65866
112.56279
112.45476
108.67435
105.2052
105.16152
108.73362
108.82434
108.81447
105.39225
105.27634
105.3699