/*--------------------------------*- C++ -*----------------------------------*\
  =========                 |
  \\      /  F ield         | OpenFOAM: The Open Source CFD Toolbox
   \\    /   O peration     | Website:  https://openfoam.org
    \\  /    A nd           | Version:  7
     \\/     M anipulation  |
\*---------------------------------------------------------------------------*/
FoamFile
{
    version     2.0;
    format      ascii;
    class       volScalarField;
    location    "100";
    object      rho;
}
// * * * * * * * * * * * * * * * * * * * * * * * * * * * * * * * * * * * * * //

dimensions      [1 -3 0 0 0 0 0];

internalField   nonuniform List<scalar> 
25278
(
1.1739082
1.1738886
1.173908
1.1739076
1.1739146
1.173887
1.1738952
1.173908
1.1738966
1.1738524
1.173867
1.173889
1.1738968
1.1739085
1.1738142
1.1739083
1.1738891
1.1738083
1.1737765
1.1738409
1.1738537
1.1738698
1.1738791
1.1738653
1.1738169
1.1738642
1.1738782
1.1738361
1.1738841
1.1738326
1.1737787
1.1738151
1.173674
1.1737638
1.1737281
1.1738303
1.1737864
1.1737101
1.1737536
1.1736088
1.1736849
1.1736361
1.1736395
1.1736272
1.1737183
1.1737617
1.1738492
1.1738248
1.1737562
1.1737799
1.1737575
1.173815
1.1736317
1.1736724
1.1737996
1.1737262
1.173677
1.1737518
1.1735639
1.1736307
1.1736129
1.1735869
1.1735699
1.1736893
1.173781
1.1737597
1.173669
1.1735617
1.1735602
1.173583
1.1736681
1.1736295
1.1736937
1.1736547
1.17379
1.1737084
1.1737274
1.1738316
1.1738685
1.1738792
1.1738957
1.1738123
1.1738064
1.1737707
1.173853
1.1738757
1.1737801
1.1737594
1.1737642
1.1738422
1.173783
1.1736849
1.1737656
1.1736914
1.1736573
1.1736826
1.1737392
1.1738388
1.1737733
1.1736668
1.173741
1.1736508
1.1736185
1.1736641
1.1736478
1.1737285
1.1736719
1.1735786
1.1736297
1.1735848
1.1737253
1.173618
1.1735249
1.1735079
1.1735541
1.1735095
1.1734697
1.1736084
1.1736951
1.1736938
1.1737701
1.1738529
1.1739144
1.1737579
1.1736817
1.1736247
1.1735819
1.1737235
1.1737788
1.1738754
1.1738946
1.1738781
1.1738037
1.1738094
1.1737585
1.1737557
1.1736675
1.1736162
1.1735214
1.1735723
1.1735479
1.1735046
1.173467
1.1736074
1.1736443
1.1737246
1.1737329
1.173676
1.1736456
1.1736752
1.1738084
1.1738373
1.1737774
1.1738336
1.1738023
1.1737673
1.1736576
1.1736055
1.173504
1.1732807
1.1730653
1.1730644
1.1733005
1.1735234
1.1736558
1.1737343
1.1737038
1.1736215
1.1734899
1.173524
1.1735653
1.1733943
1.1732319
1.1730757
1.1730338
1.1733365
1.1732318
1.1732313
1.1733637
1.1730627
1.1730569
1.1732197
1.1733789
1.1735422
1.1736383
1.1737317
1.1736562
1.1736395
1.1734952
1.1734491
1.1734923
1.1736888
1.1737661
1.173721
1.1736013
1.173592
1.1733194
1.172806
1.1723286
1.1722958
1.1728432
1.1733689
1.1736128
1.1736332
1.1736836
1.1737743
1.1737635
1.173884
1.1738119
1.1737747
1.1738305
1.1736704
1.1736844
1.1736337
1.1737854
1.1737053
1.1737497
1.1736038
1.1736353
1.1736229
1.17363
1.1737139
1.1738175
1.173847
1.1738141
1.173713
1.1737369
1.1737494
1.1737572
1.1737833
1.1737629
1.1735927
1.1735927
1.1736855
1.1737139
1.1737308
1.1737522
1.1738193
1.1738512
1.173839
1.1737764
1.1737986
1.1736664
1.1736261
1.173607
1.1737226
1.1736686
1.1737465
1.1735533
1.1735781
1.1735587
1.1736824
1.1737516
1.1738103
1.1736214
1.1737794
1.1735734
1.1735467
1.1737552
1.1736587
1.1735486
1.1735205
1.1735352
1.1735582
1.1735941
1.1735502
1.1736928
1.173634
1.1736785
1.1736922
1.1737224
1.173702
1.1737341
1.1736714
1.1736706
1.1736881
1.1737548
1.1736191
1.1735835
1.1735722
1.1735812
1.1735328
1.1736859
1.1736404
1.1736149
1.1734768
1.1735232
1.1735342
1.1734817
1.1736425
1.1735853
1.1736424
1.1737141
1.1738158
1.1738183
1.1737145
1.1737831
1.1737644
1.1736924
1.1735983
1.1735961
1.1736314
1.1736644
1.1736766
1.1736128
1.173705
1.1737052
1.1737773
1.1735853
1.1736682
1.1734906
1.1735877
1.1734063
1.1734728
1.1733475
1.173479
1.1734898
1.1736665
1.17379
1.1736817
1.1735888
1.173401
1.1736502
1.1735817
1.1734692
1.1733444
1.1734625
1.173679
1.1735583
1.1734675
1.1731163
1.1731852
1.1732695
1.1732162
1.1735265
1.1733597
1.1736265
1.1735177
1.1734578
1.1734623
1.1735422
1.1736208
1.1734152
1.1734433
1.1733799
1.1735164
1.1734915
1.173403
1.1735249
1.1734643
1.1734176
1.1736747
1.1735026
1.1735483
1.1734277
1.1734095
1.1733256
1.1734801
1.1732097
1.1732837
1.1732668
1.1732697
1.1731874
1.17325
1.1731565
1.1733285
1.173464
1.1734918
1.1736645
1.1736111
1.1734029
1.1735264
1.1734633
1.1737065
1.1737048
1.173779
1.1735182
1.1734548
1.1734573
1.1735356
1.1736156
1.1734094
1.1734377
1.1736278
1.1735148
1.1732641
1.1733609
1.1731812
1.1732649
1.1733746
1.1733497
1.173422
1.1735422
1.1734934
1.1736736
1.173413
1.1734023
1.1733185
1.1734779
1.173206
1.1732837
1.1732103
1.1731838
1.1731746
1.1732051
1.1733789
1.1734491
1.1736086
1.1735993
1.1736511
1.1734136
1.1734107
1.1733899
1.1733931
1.1734864
1.1734634
1.1735263
1.173656
1.1734696
1.1734067
1.1734079
1.173441
1.1733761
1.173505
1.1734567
1.173468
1.1734642
1.1733072
1.1733118
1.1731862
1.1732268
1.173219
1.1733324
1.1732801
1.1732202
1.1733334
1.1732779
1.1733652
1.1735017
1.1735369
1.17335
1.1733463
1.1733598
1.1735525
1.173604
1.1735944
1.1737115
1.1735432
1.1736897
1.1736248
1.1734484
1.1734011
1.1733338
1.1734931
1.1736192
1.1732928
1.1733948
1.1735497
1.1734139
1.1732175
1.1730258
1.1732398
1.1731405
1.1728683
1.1728642
1.1730434
1.1735186
1.1733566
1.1736603
1.1736017
1.1736403
1.173459
1.1734713
1.1733067
1.1732962
1.1733149
1.1734852
1.1733455
1.1729321
1.1728165
1.1728352
1.1731144
1.1731094
1.1730605
1.1730291
1.1730862
1.1730326
1.1731372
1.173125
1.1732787
1.1732433
1.1735271
1.1733263
1.1730575
1.173219
1.172919
1.1730201
1.1731518
1.1731074
1.1733585
1.1733658
1.1733574
1.1732787
1.1730687
1.1731904
1.1732158
1.1733554
1.1733124
1.1733944
1.1736065
1.173558
1.1736984
1.1737334
1.1736857
1.1736467
1.1735209
1.1735668
1.1735997
1.1737111
1.1735492
1.173503
1.1733474
1.173409
1.1734546
1.1733114
1.173376
1.1733271
1.1734847
1.1734745
1.1736516
1.1733432
1.1733193
1.1731412
1.1731439
1.1731579
1.173249
1.1735559
1.1734292
1.1734142
1.1728901
1.173222
1.1730337
1.1728875
1.172878
1.1730821
1.1735369
1.1735126
1.1729932
1.1728607
1.1727668
1.1726363
1.1730904
1.1729731
1.1733256
1.1732724
1.1736171
1.1735334
1.173677
1.1737293
1.1737147
1.1737416
1.1737559
1.1737379
1.1737573
1.1736977
1.1736779
1.1735797
1.1735868
1.1736243
1.1735908
1.1735474
1.1736954
1.1736777
1.1736284
1.1736592
1.1735088
1.1734928
1.1735341
1.1735389
1.1734906
1.1736419
1.1735863
1.1736114
1.1736003
1.1736529
1.1734987
1.173403
1.17342
1.1734135
1.173398
1.1733154
1.1734638
1.1733787
1.1734497
1.173458
1.173412
1.1734781
1.1736592
1.1735418
1.173476
1.1734195
1.1734546
1.1733904
1.1735099
1.1733394
1.1732224
1.1732318
1.1734713
1.1733219
1.1731955
1.1731822
1.1732064
1.1732778
1.1733283
1.1733635
1.17328
1.1732931
1.1730762
1.1730603
1.1728842
1.172973
1.1729672
1.1730798
1.173058
1.1730234
1.1729239
1.172971
1.1728494
1.1730262
1.1728476
1.1729655
1.1725687
1.1726951
1.1725589
1.1727736
1.1729368
1.1731126
1.1730246
1.1731469
1.1731929
1.1733282
1.1734244
1.1735977
1.173479
1.1735952
1.1733395
1.1734531
1.1734657
1.173376
1.1732683
1.1733861
1.17334
1.1734909
1.1734303
1.1735574
1.1733688
1.1733179
1.1732803
1.1734819
1.1735444
1.173529
1.1736663
1.1735762
1.1734345
1.1733222
1.1733507
1.1733645
1.1732775
1.1733218
1.1733802
1.1732215
1.1731809
1.1730274
1.1730697
1.1731356
1.1730579
1.1732374
1.1732837
1.1730564
1.1729713
1.173138
1.1727199
1.1729997
1.1728929
1.1727957
1.1726707
1.1729064
1.1730596
1.1732349
1.1731952
1.1732701
1.1731086
1.1730266
1.1729539
1.1731437
1.1731946
1.173309
1.173267
1.1734511
1.1733786
1.1732397
1.1730882
1.1731395
1.172934
1.1730005
1.1728239
1.1728832
1.1731492
1.1730959
1.1729606
1.1730156
1.173346
1.1733096
1.1736432
1.173546
1.1736972
1.1736542
1.1736338
1.1734758
1.1734903
1.1734583
1.1736302
1.173659
1.1736474
1.1736119
1.1734423
1.1734625
1.1734766
1.1733765
1.17335
1.1734382
1.1734057
1.1735102
1.1735445
1.1734336
1.173421
1.1733063
1.1733568
1.173363
1.173315
1.173338
1.1733807
1.1734222
1.173571
1.1734947
1.173386
1.1733544
1.1735203
1.173459
1.1733232
1.1732639
1.1733014
1.1732757
1.1734757
1.1734662
1.1733681
1.1733847
1.1732356
1.1732251
1.1732669
1.1731325
1.1731859
1.1732604
1.173269
1.1731975
1.1730353
1.1731167
1.1731011
1.1730173
1.1729411
1.1729583
1.1731438
1.1730868
1.173075
1.17287
1.172887
1.1728337
1.1730532
1.1732136
1.1734231
1.1734972
1.1734785
1.1734219
1.1735879
1.1732576
1.1732869
1.1733011
1.1732479
1.1732257
1.1734413
1.1733607
1.173192
1.1731811
1.1733836
1.1734648
1.1734441
1.1734266
1.1736012
1.1732609
1.1732755
1.1732787
1.1732182
1.173213
1.1734471
1.1733649
1.1731763
1.1730038
1.1730093
1.1730236
1.1730877
1.1731164
1.1731553
1.1731358
1.1733161
1.172942
1.17297
1.1729889
1.1728969
1.1728636
1.1727988
1.172777
1.172852
1.1730801
1.1731276
1.1731244
1.1733216
1.1729615
1.1729573
1.1729587
1.1727386
1.1727504
1.1727752
1.1728247
1.1730551
1.1725693
1.172788
1.1726809
1.1726054
1.1724427
1.1727368
1.1726469
1.1727389
1.1728434
1.1729597
1.1727505
1.1728957
1.1727075
1.1729336
1.1729672
1.1732761
1.1730629
1.1728918
1.172933
1.1730812
1.1730242
1.1727713
1.1727055
1.1724955
1.1724739
1.1726941
1.1729345
1.1729744
1.1732784
1.1732898
1.1730061
1.1729031
1.1730678
1.1730533
1.1728795
1.1726916
1.1727168
1.1729521
1.1730058
1.1729085
1.1729637
1.1731224
1.1732317
1.1733453
1.173294
1.1733503
1.1732969
1.1732311
1.173086
1.1731586
1.1732343
1.1732939
1.1732004
1.1733791
1.1731695
1.1729916
1.1729919
1.172993
1.173279
1.1733745
1.1731695
1.1730597
1.173187
1.1731116
1.1729558
1.1727899
1.1729161
1.1731105
1.1729235
1.1730694
1.1729566
1.1731205
1.1730235
1.1729689
1.1729507
1.1728304
1.1728508
1.1726127
1.1727615
1.1727374
1.1725876
1.1726081
1.1724675
1.1725594
1.1722912
1.1724426
1.1726303
1.1728152
1.1726963
1.1730183
1.1727934
1.172563
1.1723304
1.1724997
1.1726767
1.1722592
1.1723588
1.1728207
1.1724138
1.1723068
1.1726528
1.1719929
1.1719813
1.1721339
1.1719205
1.1721277
1.1723679
1.1722601
1.1725286
1.1723347
1.1720082
1.1717398
1.1721372
1.171958
1.1723431
1.1722984
1.1726185
1.1727188
1.1727367
1.1726321
1.1728863
1.1729449
1.1731276
1.1731811
1.1732548
1.1732094
1.1730504
1.1731112
1.173172
1.1730288
1.1729168
1.172695
1.1728321
1.1726224
1.172795
1.1727198
1.1725038
1.1725932
1.1727476
1.1725437
1.1727776
1.1726053
1.1728366
1.172706
1.1729376
1.1728094
1.1730142
1.1727054
1.1728438
1.1725671
1.1723982
1.1725441
1.1724545
1.172435
1.1720802
1.1723003
1.1725079
1.1725329
1.1723241
1.1719762
1.1722522
1.172225
1.1719535
1.1716503
1.1716527
1.1720913
1.1718738
1.1723115
1.1721382
1.1725197
1.1728192
1.1730441
1.1732052
1.1734201
1.1734064
1.173347
1.1733649
1.1731829
1.1731733
1.173196
1.1730355
1.1730037
1.1730112
1.1727795
1.1727713
1.172809
1.1725212
1.1725655
1.1726833
1.1726389
1.1725156
1.1721553
1.1722247
1.1723643
1.1725366
1.1726771
1.1731063
1.1730624
1.1725596
1.1725027
1.1723033
1.17228
1.1726216
1.1724782
1.1724696
1.1727724
1.1728475
1.1730745
1.173081
1.1732171
1.1734448
1.1734781
1.1736337
1.1737297
1.1738256
1.173854
1.1738094
1.1737778
1.1737408
1.1738391
1.1737424
1.1737325
1.1737058
1.1736256
1.1736547
1.1735209
1.1735004
1.1735284
1.1735624
1.1736546
1.1736238
1.1736699
1.1737753
1.1738088
1.1736675
1.1736527
1.1735193
1.1732961
1.1730885
1.1732359
1.1733905
1.1732351
1.1733445
1.1730598
1.1730715
1.1734854
1.1735205
1.1735611
1.1737314
1.1737752
1.1737003
1.1737261
1.1735505
1.1733918
1.173236
1.1733611
1.1730693
1.1730706
1.1732987
1.1730631
1.1732277
1.1734987
1.1734551
1.1735057
1.1736456
1.1737675
1.1736913
1.1736038
1.1735928
1.1733199
1.1728078
1.1723533
1.1723532
1.172871
1.1733895
1.1736209
1.1736345
1.1738152
1.1737576
1.1737808
1.1738415
1.1736739
1.1737502
1.1737818
1.1737589
1.1736688
1.1736911
1.1735725
1.1735638
1.1735606
1.1735854
1.1735654
1.1735903
1.1736781
1.1737283
1.1737992
1.1736336
1.1736169
1.1736041
1.1737349
1.1737579
1.1737448
1.1737157
1.1736121
1.1736478
1.1736643
1.1736346
1.1736579
1.1736987
1.1736765
1.1735346
1.1735486
1.1734954
1.1734661
1.1734458
1.1734666
1.173486
1.1735205
1.1736642
1.1736324
1.1736498
1.1736864
1.1735703
1.1735276
1.1735653
1.1737026
1.1736826
1.1737015
1.1735595
1.1735445
1.1735028
1.1733801
1.1734192
1.1733536
1.1733762
1.1733475
1.173349
1.173367
1.1733829
1.1733674
1.1731634
1.1731679
1.1731602
1.1731554
1.1729794
1.1729853
1.1729869
1.1729801
1.1727305
1.1727377
1.1727421
1.1727373
1.1723958
1.1724085
1.1724641
1.1724564
1.1720622
1.1720768
1.1721526
1.1716345
1.171878
1.171369
1.1714892
1.1716968
1.1721303
1.1720121
1.1722151
1.1727615
1.1726779
1.172165
1.1717672
1.1718488
1.1721794
1.1719627
1.1721502
1.1717573
1.1721516
1.1724891
1.172489
1.1727379
1.1730902
1.1726244
1.1727625
1.1721496
1.1717539
1.1721251
1.1724326
1.1724657
1.1721708
1.1723851
1.172154
1.1724719
1.1724082
1.1727602
1.1726773
1.1730142
1.1729967
1.1728865
1.1730489
1.1731853
1.1733209
1.1734179
1.1734496
1.173329
1.1735885
1.1734684
1.1733767
1.1733291
1.1733873
1.1733053
1.1732609
1.1730992
1.1731392
1.1730475
1.1732234
1.1732576
1.1733659
1.1734618
1.1732332
1.1730445
1.1731249
1.173055
1.1732078
1.1733388
1.1735217
1.1736652
1.173356
1.1732605
1.1735674
1.173419
1.173307
1.1732495
1.173296
1.1735392
1.1734818
1.1734155
1.1733048
1.1731814
1.1730128
1.1729366
1.1731272
1.1732645
1.1734718
1.1735096
1.1734755
1.1736432
1.173617
1.1736687
1.1736688
1.1737222
1.1738184
1.1738865
1.173907
1.1739079
1.1738951
1.1739075
1.173877
1.1738675
1.173851
1.1738104
1.1737516
1.1737556
1.1736216
1.1735471
1.1735488
1.1736588
1.1736816
1.1737793
1.1735736
1.1735585
1.1735773
1.1736678
1.1737753
1.1738381
1.1736654
1.1737467
1.1735534
1.1736246
1.1737979
1.1737206
1.1736048
1.1735911
1.1735564
1.1735344
1.1735204
1.1734569
1.1734576
1.1734157
1.1734368
1.1736182
1.1736408
1.173447
1.1734872
1.1734228
1.1733856
1.1734137
1.1734073
1.1732912
1.1732966
1.1733162
1.1733605
1.1734038
1.1735597
1.1734692
1.1734995
1.1733218
1.173274
1.1732532
1.1734611
1.1734572
1.1732484
1.1732009
1.1733486
1.1733569
1.1734384
1.1734897
1.1734675
1.1736421
1.1732957
1.1732833
1.1732654
1.1734024
1.1735791
1.1732347
1.1732948
1.1733327
1.1733057
1.1733713
1.1730839
1.1729363
1.1730082
1.173163
1.1731205
1.173181
1.1729854
1.1729126
1.1728631
1.1730658
1.1732188
1.1731896
1.1734077
1.1733329
1.1734259
1.1732006
1.1732282
1.1730954
1.1731345
1.1729651
1.1729943
1.1729056
1.1729399
1.1731098
1.1730601
1.1729906
1.1730281
1.1728063
1.1728725
1.17283
1.1727602
1.1727326
1.1729723
1.1731465
1.1731617
1.1731377
1.173168
1.1733931
1.1733981
1.1733555
1.1732065
1.1732288
1.1733208
1.1734213
1.1732817
1.173162
1.1732183
1.1732686
1.1733307
1.1732135
1.1731417
1.1731031
1.1732557
1.1732498
1.1730902
1.1730013
1.1731701
1.1731782
1.1730158
1.1730616
1.1732077
1.1731517
1.1731204
1.1731135
1.1729211
1.1729342
1.1728538
1.1730562
1.1730493
1.1728423
1.1725964
1.1727034
1.1728168
1.1729414
1.1729514
1.1730178
1.1728097
1.1727442
1.1725984
1.1728317
1.1728955
1.1729606
1.1727864
1.1727064
1.1727807
1.1725561
1.1726919
1.1724969
1.1723256
1.1722496
1.1723482
1.1728084
1.1727757
1.1726673
1.1728685
1.1728051
1.1725861
1.1725411
1.1726279
1.1722914
1.1724036
1.1721256
1.1719674
1.1719639
1.1721471
1.1727362
1.1726508
1.1725116
1.1727511
1.1727187
1.1724672
1.17251
1.1726331
1.1721335
1.1721948
1.1718272
1.1717298
1.1718954
1.1720722
1.1727225
1.1725887
1.1724425
1.1727
1.1729225
1.173098
1.1732541
1.1734281
1.1736148
1.1732521
1.1732343
1.1735938
1.1734039
1.1732482
1.1731805
1.17319
1.1734539
1.1733608
1.1733314
1.1734296
1.1734296
1.173404
1.1735946
1.1734598
1.173641
1.1736019
1.1733165
1.173298
1.1733095
1.1734726
1.1736611
1.1733583
1.1735217
1.1734889
1.1733448
1.1729396
1.1728216
1.1731127
1.1731202
1.1728443
1.1730458
1.1728664
1.1733971
1.1732944
1.1736201
1.1736231
1.1736889
1.1735419
1.1734936
1.1733353
1.1733994
1.1734462
1.1735477
1.1734096
1.1732098
1.1730215
1.1728738
1.1731441
1.173238
1.173122
1.1731374
1.1730349
1.1730897
1.1730336
1.1730634
1.1730553
1.1730532
1.1729173
1.1729398
1.173307
1.1732986
1.1730913
1.1729173
1.1728014
1.1728132
1.1730492
1.1730383
1.1729597
1.1731361
1.1731075
1.1731195
1.1733474
1.1733222
1.1733269
1.1731407
1.1731715
1.1731927
1.1733536
1.173448
1.1732473
1.1732172
1.1733929
1.1732836
1.1731606
1.1729955
1.1730414
1.1730893
1.1729026
1.1729823
1.17307
1.1731418
1.1729984
1.1730999
1.1730076
1.172957
1.1727525
1.1727302
1.1725767
1.1726
1.1728345
1.1728941
1.1726755
1.1728193
1.172939
1.1728089
1.1725801
1.1727624
1.172613
1.1725282
1.1725043
1.1725253
1.172627
1.1723662
1.1722584
1.1720064
1.1723307
1.1724374
1.1726613
1.1725479
1.172811
1.1727247
1.1724563
1.1723243
1.172627
1.1727179
1.1724239
1.1721208
1.1722863
1.1721357
1.1717411
1.1719178
1.1721246
1.1718297
1.1721327
1.1722646
1.1720437
1.1717603
1.1720433
1.1724008
1.1728253
1.1734013
1.1731295
1.1730197
1.172588
1.172116
1.1725757
1.1730025
1.1721443
1.1724341
1.1734186
1.1726123
1.1726749
1.1732905
1.1720679
1.1720936
1.1719898
1.1713757
1.1719155
1.1725534
1.1733858
1.1728072
1.1723817
1.1719304
1.1732221
1.1726034
1.1719587
1.1709125
1.1719096
1.1731083
1.1720653
1.1710946
1.1708907
1.1708215
1.1708954
1.1720695
1.1720925
1.1733231
1.1730147
1.1735197
1.1733465
1.1736524
1.1734785
1.1734882
1.1736689
1.17338
1.1733323
1.1733282
1.1731621
1.1731517
1.1735367
1.1730839
1.1728871
1.1729064
1.1727751
1.1726299
1.1730923
1.1729614
1.1733213
1.17326
1.1735975
1.1734247
1.1734502
1.1736197
1.1732793
1.1732843
1.1732789
1.1731298
1.173136
1.1733302
1.1729858
1.1729703
1.1729668
1.1728592
1.1727888
1.173013
1.1731819
1.173363
1.1733931
1.1734703
1.1732263
1.1731914
1.1732091
1.1733672
1.1734432
1.1734247
1.1735836
1.1736439
1.1734867
1.1733124
1.1732965
1.1732618
1.1733197
1.1733518
1.173317
1.1731497
1.1731717
1.1730115
1.1729906
1.1729518
1.1730339
1.1729794
1.1733272
1.1732865
1.1735739
1.1735075
1.1736284
1.1736331
1.1736936
1.173554
1.1734163
1.1733548
1.1733163
1.17346
1.1735563
1.1734158
1.1734277
1.1729059
1.1729073
1.1731699
1.1732598
1.1730501
1.173231
1.1731328
1.1734743
1.1734145
1.1736568
1.1736125
1.1737537
1.1737801
1.1738704
1.1738504
1.1737637
1.1737592
1.1738184
1.1738194
1.17382
1.1738341
1.1738378
1.1738842
1.1738157
1.173677
1.17383
1.1737322
1.1737881
1.1737125
1.1736438
1.1736422
1.1736881
1.1737897
1.1737118
1.173673
1.1735905
1.1734807
1.1735004
1.1735921
1.1736867
1.1737763
1.1737662
1.1736856
1.1735642
1.1736808
1.1734889
1.1733591
1.1732018
1.1733577
1.1734701
1.1734114
1.1735944
1.1735007
1.1736725
1.1737912
1.1736546
1.1735892
1.1734794
1.1733748
1.1735025
1.1736824
1.1736688
1.1737747
1.1736317
1.1737201
1.1736966
1.1737676
1.1737196
1.1737841
1.1736375
1.173606
1.1736052
1.1735891
1.1736827
1.1737036
1.1737615
1.1737211
1.1737414
1.1735975
1.1736362
1.1736016
1.1734916
1.1735246
1.1734237
1.1734555
1.173367
1.173394
1.173333
1.1733476
1.1733205
1.1733205
1.1733355
1.1733219
1.1734434
1.1734799
1.1732982
1.1732345
1.1732126
1.1732798
1.1732681
1.1734537
1.1734452
1.1732678
1.1731936
1.1731968
1.1730238
1.1730521
1.1730853
1.1731744
1.173145
1.1729553
1.1729948
1.1728778
1.1728361
1.1727826
1.1729191
1.1731245
1.1731269
1.173019
1.1727817
1.1729409
1.1726006
1.1725567
1.1726679
1.1727464
1.1725879
1.1725152
1.1721368
1.1722141
1.1724173
1.172326
1.1721429
1.1718743
1.1723764
1.172365
1.1723373
1.1718651
1.1719095
1.1719915
1.1720996
1.1720891
1.172271
1.1726148
1.1726352
1.1727538
1.1727545
1.1730989
1.1726574
1.1725112
1.1725154
1.1723061
1.1721388
1.1724981
1.1725114
1.1728002
1.1730247
1.1730915
1.1728691
1.1728921
1.1731061
1.1732384
1.1732635
1.1735039
1.1734363
1.1732334
1.1730815
1.1730487
1.1728375
1.1728748
1.1729284
1.1731376
1.173163
1.173284
1.1734565
1.1734411
1.1735369
1.1736654
1.1733748
1.1733639
1.173335
1.1731991
1.17324
1.1733864
1.1731148
1.1730951
1.1730531
1.1729686
1.1729317
1.1731192
1.1732615
1.1733906
1.1734948
1.1735506
1.1733264
1.1733022
1.1733391
1.1734441
1.1734979
1.1734873
1.1735949
1.1737096
1.1736042
1.1734369
1.1733991
1.1733503
1.1734619
1.1734711
1.1733835
1.1732863
1.1733448
1.1732157
1.1731602
1.1730789
1.1732532
1.1732942
1.1731536
1.1731616
1.1730682
1.1731172
1.1730666
1.1727794
1.1728058
1.1725778
1.1725441
1.1725805
1.1727065
1.1727804
1.1726931
1.1727815
1.1721815
1.1721956
1.1718263
1.1721521
1.1721798
1.1717943
1.1713811
1.1719248
1.1723138
1.1726449
1.172679
1.1725708
1.1726214
1.1727249
1.1724227
1.1723623
1.1722373
1.1721498
1.1716247
1.1716009
1.1715086
1.1715502
1.1716541
1.1717715
1.1712123
1.171519
1.1713749
1.1719174
1.1718773
1.1718529
1.1712694
1.1713187
1.1708627
1.1710298
1.1707829
1.1714948
1.1714197
1.171564
1.1708647
1.1713532
1.1714583
1.1719666
1.1721979
1.1724243
1.1720915
1.1723571
1.1720411
1.1723532
1.1722504
1.1722232
1.1719529
1.1722964
1.1723199
1.1719775
1.1720867
1.172412
1.1721853
1.1725183
1.1727808
1.172718
1.1724411
1.1724231
1.1722771
1.1722898
1.172608
1.1726691
1.1727887
1.1728952
1.1726629
1.1725052
1.1723613
1.1719545
1.1718783
1.1720949
1.1720817
1.1716558
1.1716651
1.1713629
1.1713651
1.1718754
1.1719526
1.1714843
1.1716882
1.171513
1.1720061
1.172344
1.1726631
1.1725462
1.1722076
1.1721177
1.1724846
1.1726091
1.1722683
1.171898
1.1716445
1.1717796
1.1712223
1.1710079
1.1713488
1.1712781
1.1718524
1.1722376
1.1725878
1.1724467
1.1720602
1.1720329
1.1724298
1.1727179
1.1726711
1.1726909
1.1727254
1.1727781
1.1730071
1.1730103
1.1727841
1.1727269
1.1729668
1.1729658
1.1729435
1.1729404
1.17312
1.173351
1.1733215
1.1733192
1.1733189
1.1734141
1.1735932
1.1735936
1.1736209
1.1734253
1.1733026
1.1734073
1.1731935
1.1731372
1.1731229
1.1732738
1.1733823
1.1731794
1.1730178
1.1730376
1.1730711
1.173116
1.1729229
1.1729956
1.1731308
1.17319
1.1732456
1.1732969
1.1733474
1.1733017
1.1734626
1.1736915
1.1737324
1.1737992
1.1738355
1.1738659
1.1738838
1.173899
1.1738843
1.1738649
1.1738749
1.17385
1.1737971
1.1738449
1.1738128
1.1737307
1.1737113
1.1737527
1.1738146
1.1737484
1.1737736
1.1737143
1.173617
1.1736092
1.1736714
1.1737391
1.1736664
1.1737263
1.1737283
1.1738184
1.1738143
1.1738098
1.1737377
1.173732
1.1738076
1.1738335
1.1738716
1.1738277
1.1738323
1.1738412
1.173871
1.1738776
1.173842
1.1738013
1.1738438
1.1738774
1.1738309
1.1738308
1.1738137
1.1738571
1.1738659
1.173887
1.1738872
1.1738468
1.17387
1.173866
1.1738998
1.1738824
1.1738648
1.1738646
1.1738693
1.1738802
1.1739012
1.17388
1.1738554
1.173812
1.1738073
1.1737906
1.1737873
1.1737159
1.1738071
1.1737853
1.1738144
1.1738464
1.1738205
1.1737601
1.1737146
1.1737769
1.1737497
1.1736821
1.1736207
1.173623
1.1737203
1.1736785
1.1737379
1.1737488
1.1737531
1.1738174
1.1738181
1.1737972
1.173823
1.1737349
1.1737194
1.173702
1.1736063
1.1735756
1.1736779
1.1736127
1.1735001
1.1734881
1.1734579
1.1735714
1.1735493
1.173602
1.1735785
1.1736087
1.1737188
1.1737013
1.1736695
1.1736818
1.173558
1.173576
1.173656
1.1734638
1.173481
1.1735815
1.1735139
1.1734372
1.1733632
1.1733083
1.1735014
1.1734636
1.173554
1.1735812
1.1736645
1.1736805
1.1736773
1.1734789
1.1735112
1.1735982
1.1736544
1.1736984
1.1736029
1.1735719
1.1736736
1.1735617
1.1734495
1.173473
1.1734838
1.1735954
1.1735329
1.1735848
1.1735476
1.1736028
1.1737135
1.1736719
1.1736522
1.1736841
1.1735602
1.1735663
1.1736428
1.1737351
1.1737348
1.1736647
1.1735715
1.1735361
1.1736248
1.1737201
1.17362
1.1737112
1.1737177
1.1736438
1.1736481
1.1736427
1.1737147
1.1736921
1.1738485
1.1737736
1.1737673
1.1737714
1.1737529
1.1737656
1.1737643
1.1736992
1.1736558
1.1736612
1.1736739
1.1735689
1.1735755
1.1734765
1.1734212
1.1734962
1.1734458
1.1734932
1.17347
1.1736688
1.1736409
1.1736458
1.1735629
1.1735355
1.1735163
1.1735047
1.1735194
1.1734414
1.1733578
1.1735248
1.1734187
1.1732958
1.1731878
1.1731426
1.1734227
1.1733517
1.173493
1.1735348
1.1736615
1.1736599
1.1737397
1.1737243
1.1737161
1.1736663
1.1736507
1.1737583
1.1737806
1.1737797
1.1737799
1.1736672
1.1736701
1.1736945
1.1738502
1.1738099
1.1737239
1.1738029
1.1738466
1.1737634
1.1738229
1.1737774
1.1738581
1.17387
1.173906
1.1738514
1.1737823
1.1737704
1.1738002
1.1738321
1.173825
1.1736533
1.1736791
1.1737164
1.1738484
1.1738354
1.1738173
1.173932
1.1739588
1.1738954
1.1738518
1.1738805
1.1738426
1.1737543
1.1738059
1.1738173
1.173816
1.17384
1.1738745
1.1738761
1.1738431
1.1738371
1.1738057
1.1738435
1.1738462
1.1738619
1.1738217
1.1738387
1.1738358
1.1738799
1.1738713
1.1738488
1.1738296
1.1738741
1.1738341
1.173834
1.1737796
1.1738346
1.1738871
1.1739259
1.1739059
1.173857
1.1738957
1.1739362
1.1738596
1.1738798
1.1739386
1.1739178
1.1739126
1.1739316
1.1738596
1.1739109
1.173888
1.1739419
1.1739553
1.1739976
1.1739336
1.1740126
1.1739952
1.1739898
1.1739024
1.1739689
1.1740292
1.1739945
1.1739287
1.1739461
1.1739161
1.1738778
1.1738258
1.1738727
1.1739378
1.1739126
1.1739072
1.1738286
1.1738298
1.1737721
1.1737979
1.1738515
1.1738579
1.1738349
1.1737479
1.1738087
1.1738368
1.1737838
1.1737646
1.1738181
1.1736432
1.1737214
1.1737062
1.1737134
1.1737023
1.1736464
1.1736847
1.1736799
1.173519
1.1735653
1.1736118
1.1735061
1.1734432
1.1735116
1.1734866
1.1734103
1.1734202
1.1734401
1.173577
1.1734628
1.1733794
1.1733459
1.1733621
1.1735382
1.1734386
1.1735288
1.1735432
1.1735567
1.1735697
1.1735461
1.1734734
1.1733835
1.1733384
1.1734397
1.1733743
1.1734125
1.1735178
1.1736404
1.1736445
1.1736411
1.1736416
1.1736359
1.1736758
1.1735229
1.1734811
1.173676
1.1736312
1.1736341
1.1736375
1.173516
1.1735311
1.1735036
1.1736384
1.1736349
1.1734849
1.1733341
1.1734108
1.1732983
1.1732532
1.1733788
1.1732917
1.173465
1.1734995
1.173483
1.1735153
1.173482
1.1736011
1.1737152
1.1737093
1.1738008
1.173715
1.173721
1.1738165
1.1737948
1.173802
1.1738126
1.1738202
1.1737118
1.1737094
1.1736005
1.1736189
1.1735046
1.1734858
1.1735897
1.1737054
1.1737079
1.173614
1.1736236
1.1736292
1.1736363
1.1737837
1.1737571
1.1737747
1.1737883
1.1737093
1.1737273
1.1738254
1.1738029
1.1738436
1.1738154
1.1738805
1.1738082
1.1739269
1.1738467
1.1738936
1.1739464
1.174005
1.1739358
1.1738278
1.1738266
1.173671
1.1736822
1.1736811
1.1733969
1.1734222
1.1731429
1.1733539
1.1732801
1.1734006
1.1733377
1.1731762
1.1730812
1.1731915
1.1733826
1.1732883
1.1730905
1.1729611
1.1731999
1.1732763
1.1734658
1.17348
1.1733983
1.1736826
1.1736878
1.1736575
1.1736688
1.1736747
1.1736566
1.1736417
1.1736423
1.1737456
1.1738539
1.1739006
1.1738907
1.1736567
1.1737646
1.173816
1.1737554
1.1736597
1.1738924
1.1738309
1.1738703
1.1737638
1.1737795
1.1739142
1.1740025
1.1739463
1.1740167
1.1739389
1.1740326
1.1738844
1.1739761
1.1738809
1.1740309
1.1740773
1.1739905
1.1739318
1.173982
1.1739174
1.1738593
1.1738233
1.1737381
1.1738223
1.173877
1.1739016
1.1738653
1.1737596
1.1738442
1.1738927
1.1739605
1.1739231
1.1739897
1.1740365
1.1739608
1.173873
1.1737567
1.1737369
1.173768
1.1736459
1.1734963
1.1733591
1.1732132
1.1730929
1.17328
1.1732126
1.1733072
1.173141
1.1729999
1.1728446
1.1729735
1.1732107
1.173114
1.1728176
1.1725372
1.1722927
1.1719894
1.1723661
1.1721205
1.1716384
1.1714525
1.1717699
1.1712258
1.1716811
1.1715611
1.1719235
1.1719037
1.1719619
1.1716311
1.1718278
1.1714434
1.1712149
1.1716359
1.1712787
1.1715578
1.1717916
1.1724648
1.1719375
1.1717976
1.1719417
1.171445
1.1717949
1.1715856
1.1711545
1.1713468
1.1714803
1.1720293
1.1710564
1.1714389
1.1711441
1.1715793
1.1721344
1.1713242
1.1714722
1.1706923
1.170223
1.17069
1.1701418
1.1706841
1.1712481
1.1715529
1.1712671
1.1709149
1.1702868
1.1707469
1.1710864
1.1706412
1.1710827
1.1707439
1.1702728
1.1709273
1.171253
1.1706752
1.1701483
1.1695874
1.1701579
1.1695817
1.1688984
1.1695487
1.1690157
1.1697026
1.1703317
1.1709915
1.1714102
1.1712934
1.1707375
1.1709133
1.1716583
1.1712272
1.1717145
1.1708558
1.1713206
1.1713436
1.1710488
1.17178
1.1722814
1.1720999
1.1713645
1.171841
1.1703904
1.170149
1.1694705
1.1698441
1.1709759
1.1705895
1.1709435
1.1718185
1.1716207
1.172361
1.1713943
1.1708815
1.1706848
1.1712608
1.172118
1.171143
1.1713107
1.1701188
1.1703669
1.1698039
1.169435
1.1700429
1.1707167
1.1719618
1.1715635
1.1723907
1.1712321
1.1716909
1.1721046
1.1721037
1.1724388
1.1726962
1.1725752
1.172221
1.1718296
1.1715139
1.1715533
1.1708571
1.170782
1.1712418
1.1716913
1.1720222
1.172708
1.1725596
1.1725628
1.1724358
1.1726944
1.1729159
1.1730905
1.1732478
1.173235
1.1732522
1.1736153
1.1734267
1.1732526
1.1731873
1.1731792
1.1731342
1.1733312
1.1733565
1.1734523
1.1734242
1.1734732
1.1736403
1.1736168
1.1736912
1.1736775
1.1737507
1.1737312
1.1737012
1.17362
1.1734227
1.17344
1.1736354
1.1736146
1.1734323
1.1734698
1.1736106
1.1736307
1.1735057
1.1735446
1.1736881
1.1737286
1.1737112
1.1737548
1.1738452
1.1737455
1.1736644
1.1736657
1.1736781
1.1736339
1.1734768
1.1735204
1.1735144
1.1735625
1.173586
1.1736804
1.1737574
1.1737071
1.1737799
1.1737819
1.1737028
1.173773
1.1738106
1.1736674
1.1737486
1.1736015
1.1736319
1.1736281
1.1737223
1.1738282
1.1736804
1.1737859
1.1736479
1.1736758
1.173397
1.1734639
1.1735781
1.1736601
1.173702
1.1735821
1.1734801
1.1734673
1.1733369
1.1734567
1.1735456
1.1731043
1.1731727
1.1733322
1.1734528
1.1736709
1.1735801
1.1736739
1.1737686
1.1737594
1.1738334
1.1738822
1.1738289
1.1738141
1.1738124
1.1738095
1.1737031
1.173731
1.1737473
1.1736799
1.1735686
1.1736039
1.1735715
1.1735824
1.1736235
1.1736186
1.1736147
1.1737106
1.1735891
1.1736657
1.1735692
1.1736429
1.1735807
1.1734009
1.1732627
1.1732355
1.1732952
1.1732794
1.1734643
1.1734863
1.1733995
1.1733285
1.1731532
1.1731418
1.1729663
1.1729565
1.1730364
1.1727986
1.1727133
1.172725
1.1728089
1.1730456
1.1730964
1.173308
1.1732996
1.1729187
1.1729408
1.1729208
1.1729351
1.1731064
1.1732966
1.1729081
1.1729946
1.1733337
1.1731297
1.1729589
1.1728604
1.1728203
1.1730529
1.1731954
1.1732213
1.1731787
1.1730132
1.1729787
1.1727441
1.1727866
1.1727505
1.1727022
1.17268
1.1726644
1.172924
1.1729284
1.1729228
1.1731071
1.173103
1.1733212
1.1733435
1.1733432
1.1731129
1.1731046
1.1731113
1.1731262
1.1731178
1.1732733
1.1733815
1.173173
1.1731804
1.1733967
1.1732953
1.1732754
1.1733188
1.1733174
1.1731258
1.173125
1.1731519