/*--------------------------------*- C++ -*----------------------------------*\
  =========                 |
  \\      /  F ield         | OpenFOAM: The Open Source CFD Toolbox
   \\    /   O peration     | Website:  https://openfoam.org
    \\  /    A nd           | Version:  7
     \\/     M anipulation  |
\*---------------------------------------------------------------------------*/
FoamFile
{
    version     2.0;
    format      ascii;
    class       volScalarField;
    location    "350";
    object      k;
}
// * * * * * * * * * * * * * * * * * * * * * * * * * * * * * * * * * * * * * //

dimensions      [0 2 -2 0 0 0 0];

internalField   nonuniform List<scalar> 
24789
(
116.33583
185.58037
253.56058
318.93848
688.15215
694.78373
322.01396
255.95394
187.15138
116.85049
117.38137
188.77209
258.42107
325.18329
701.6116
708.64218
328.44849
260.96369
190.44392
117.92948
118.49651
192.17045
263.58722
331.81648
715.88534
723.35237
335.29153
266.29509
193.95412
119.0834
119.69201
195.79891
269.09315
338.88108
731.05571
739.00896
342.5911
271.98604
197.70797
120.32362
120.98041
199.68571
274.98016
346.42976
747.22717
755.72644
350.40383
278.08087
201.73587
121.66416
122.37737
203.86391
281.29609
354.52344
764.52466
773.64159
358.79743
284.63274
206.07454
123.12214
123.90144
208.374
288.09996
363.2376
783.09882
792.92026
367.85444
291.70593
210.7679
124.71795
125.57521
213.26344
295.46127
372.66152
803.13238
813.76485
377.67276
299.37659
215.86765
126.47669
127.42673
218.58868
303.46444
382.90473
824.85074
836.42735
388.37367
307.73695
221.43431
128.42997
129.49231
224.41404
312.20903
394.09957
848.53691
861.22781
400.10425
316.89646
227.53745
130.62049
131.82299
230.81558
321.81754
406.41324
874.55565
888.58487
413.05419
326.99152
234.25957
133.10986
134.49374
237.88199
332.44087
420.05986
903.39054
919.06096
427.46723
338.19
241.6958
135.99026
137.61935
245.71491
344.26738
435.32064
935.70037
953.43303
443.67135
350.70423
249.95272
139.40578
141.38119
254.42639
357.53945
452.58308
972.40875
992.80504
462.14341
364.82776
259.16085
143.59406
146.12053
264.18318
372.66549
472.4948
1014.8185
1038.6953
483.93214
381.28904
269.5341
149.05276
152.69947
276.10269
391.44453
497.15176
1064.7386
1092.3564
513.32418
404.42588
285.61302
158.05638
165.96658
295.37252
420.72802
533.52613
1119.501
1150.6518
561.78474
445.65401
314.33176
174.4775
180.50118
331.87433
467.24017
583.98564
1181.7687
1212.9622
628.23414
508.18039
363.67646
192.54489
200.01406
394.90047
552.96061
680.94681
1238.9878
1222.9901
593.73653
482.38044
346.75429
186.48194
177.72425
321.03762
449.84831
561.72904
1194.0024
1162.6554
517.06168
409.64387
289.55579
166.65716
157.04243
271.3416
384.51016
488.96765
1133.1207
1106.6886
469.69633
368.54141
260.9258
149.46324
144.50604
252.45439
356.76252
454.99513
1079.5539
1053.8339
443.13664
347.69743
246.49067
141.10201
138.34867
241.59543
340.01589
432.88512
1030.0986
1008.0737
423.57834
333.04035
237.13311
136.00136
133.95047
232.91845
326.51478
414.93201
987.56988
968.4343
406.8192
320.3454
228.90199
132.11289
130.44294
225.06917
314.49695
399.17725
950.51487
933.67756
391.96625
308.95179
221.4174
128.91511
127.51018
217.94511
303.69504
385.15315
917.80707
902.80426
378.70585
298.70904
214.64588
126.21188
125.00657
211.51076
293.97532
372.59436
888.58351
875.07108
366.79091
289.47543
208.5295
123.88279
122.83095
205.69207
285.19216
361.27052
862.2032
849.92426
356.01042
281.10929
202.98862
121.84305
120.91237
200.40972
277.21169
350.98965
838.18555
826.94466
346.19022
273.48587
197.94665
120.03315
119.20071
195.59163
269.91958
341.59567
816.16354
805.80882
337.19118
266.50149
193.33695
118.41074
117.65973
191.17578
263.22085
332.96252
795.84998
786.26052
328.89805
260.06845
189.10154
116.94425
116.26152
187.10849
257.03565
324.98656
777.01591
768.09458
321.21847
254.11498
185.1914
115.60879
114.98379
183.34519
251.29888
317.58399
759.47623
751.14252
314.07502
248.58095
181.56532
114.38425
113.808
179.84722
245.95472
310.68338
743.07743
735.26505
307.40297
243.41546
178.18762
113.25307
112.71815
176.58337
240.95823
304.22729
727.69182
720.3452
301.15118
238.57903
175.0316
112.20175
111.70269
173.52929
236.27323
298.16873
713.21355
706.28764
295.27553
234.03727
172.07391
111.21945
110.75049
170.66427
231.86906
292.46838
699.55939
706.46931
295.35841
234.10228
172.11637
111.23201
111.71596
173.57392
236.34145
298.25558
713.39837
720.53787
301.24285
238.65114
175.07887
112.21571
112.73303
176.6339
241.0353
304.32526
727.8946
735.47921
307.50715
243.49752
178.24154
113.26897
113.82518
179.90534
246.04308
310.79536
743.3043
751.38381
314.19514
248.67599
181.62806
114.40285
115.00402
183.41353
251.40203
317.71405
759.73289
768.36828
321.35883
254.22656
185.26557
115.63063
116.28519
187.18954
257.15728
325.13928
777.30843
786.57327
329.06369
260.20068
189.18993
116.9698
117.6873
191.27244
263.36505
333.14268
796.18477
806.16743
337.38731
266.65905
193.44302
118.44053
119.23293
195.70851
270.09288
341.81084
816.54823
827.35717
346.42603
273.67636
198.07551
120.068
120.95015
200.55197
277.42144
351.24843
838.62774
850.39762
356.29455
281.34052
203.14598
121.88421
122.87607
205.86681
285.44797
361.58362
862.70922
875.61058
367.13549
289.75825
208.72358
123.93238
125.06123
211.72653
294.28786
372.97296
889.15633
903.40915
379.12068
299.05361
214.88537
126.27192
127.57569
218.21014
304.07351
385.60573
918.44113
934.33564
392.45622
309.36439
221.70857
128.98549
130.51676
225.38545
314.94158
399.70151
951.18911
969.11337
407.3708
320.81631
229.23959
132.18754
134.0213
233.26889
327.00064
415.49833
988.23851
1008.7123
424.14081
333.52378
237.48398
136.06051
138.38782
241.93683
340.47872
433.42429
1030.6836
1054.3238
443.64649
348.13629
246.82718
141.12697
144.52567
252.85379
357.21839
455.5038
1079.8974
1107.0084
470.33911
369.19482
261.60274
149.44653
157.36624
274.19007
386.09571
490.26278
1133.2568
1161.6792
518.55069
410.70621
289.96698
167.52132
176.1912
321.79437
450.94797
565.08587
1192.9086
1219.4757
570.84673
463.67157
333.44529
179.51744
198.60382
392.54448
549.48848
675.89198
1235.1929
1208.5322
610.87248
487.16127
344.97203
181.7434
186.13469
350.38497
491.23537
612.56123
1178.6019
1146.0687
564.95721
451.35632
319.86678
177.82852
167.02174
301.18121
423.31919
533.33013
1116.0928
1088.7348
509.92771
403.02728
285.88362
158.00287
152.13329
274.61815
388.15815
492.11119
1060.775
1034.5709
478.01148
377.02237
267.15287
148.15792
145.0365
261.19266
367.85878
466.10164
1010.5458
988.36465
455.50211
359.74884
255.91099
142.44181
140.20859
251.04235
352.3084
445.80044
967.80775
948.68687
436.79726
345.37343
246.48105
138.22817
136.44153
242.17857
338.86474
428.38315
930.82756
914.08113
420.48726
332.73606
238.11138
134.81336
133.31812
234.26386
326.95319
413.05527
898.32222
883.44496
406.04185
321.48665
230.62128
131.93639
130.65292
227.16904
316.30971
399.40746
869.35925
855.9883
393.11769
311.39797
223.89277
129.45512
128.33285
220.77947
306.72961
387.142
843.26602
831.13544
381.45366
302.28479
217.81649
127.27752
126.28213
214.99274
298.04588
376.0289
819.54679
808.45644
370.84661
293.99679
212.29762
125.34071
124.4482
209.72183
290.12316
365.88797
797.826
787.6213
361.1364
286.41216
207.25665
123.60013
122.79287
204.89443
282.85216
356.57685
777.8121
768.37101
352.19573
279.43253
202.62781
122.02297
121.28747
200.45027
276.14351
347.98054
759.27334
750.49716
343.92083
272.97686
198.35598
120.58362
119.90914
196.33938
269.92426
340.00595
742.02221
733.83069
336.22703
266.9785
194.39517
119.26152
118.6387
192.51874
264.13255
332.57487
725.90464
718.22969
329.04314
261.38136
190.70643
118.03878
117.46041
188.95468
258.71929
325.62454
710.79195
703.5791
322.31326
256.14174
187.26003
116.90188
116.36205
185.61943
253.6439
319.10325
696.58063
689.79003
315.99155
251.22337
184.03094
115.83943
116.8681
187.21051
256.04309
322.12639
694.98617
701.81985
325.29492
258.50955
188.83079
117.39873
117.94757
190.50499
261.05591
328.56491
708.86114
716.11679
331.93826
263.68377
192.23445
118.5153
119.10353
194.02259
266.39836
335.42169
723.59759
731.31604
339.01971
269.20327
195.87201
119.71339
120.34687
197.78698
272.10489
342.74054
739.28599
747.52244
346.59036
275.10815
199.771
121.00555
121.69177
201.82902
278.22026
350.57835
756.04207
764.86276
354.71279
281.44765
203.96547
122.40747
123.15535
206.18596
284.7986
359.00426
774.00446
783.4891
363.46282
288.28106
208.49605
123.93792
124.75844
210.90276
291.9053
368.10159
793.34075
803.58635
372.93353
295.68129
213.41273
125.62013
126.52691
216.03397
299.62076
377.97368
814.25568
825.38218
383.23751
303.73549
218.77408
127.48291
128.49338
221.64279
308.0401
388.74417
837.00349
849.16208
394.51338
312.54907
224.64899
129.56386
130.70172
227.80373
317.27961
400.56823
861.90655
875.29278
406.93447
322.2504
231.11835
131.91544
133.21584
234.6064
327.48369
413.64291
889.38539
904.25965
420.72795
333.00356
238.28187
134.61593
136.13239
242.16109
338.83848
428.23049
920.00387
936.72235
436.19872
345.02089
246.2616
137.78628
139.60453
250.60362
351.58983
444.69114
954.53907
973.60342
453.78193
358.59496
255.21367
141.62189
143.89271
260.13481
366.11095
463.5768
994.09275
1016.2054
474.2523
374.27216
265.43185
146.50678
149.58406
271.21627
383.38447
486.16353
1040.1856
1066.3199
500.09273
394.29472
278.4582
153.455
159.08979
289.02851
408.46606
517.34148
1094.0215
1120.9423
539.19343
426.65498
300.63493
167.48867
177.29873
321.09196
454.06778
570.22652
1151.2678
1182.4243
599.31905
480.76534
342.29607
183.59988
192.65959
366.40521
510.99971
630.71596
1212.2912
1238.641
684.17274
556.29448
397.64319
200.98375
1232.6487
781.81055
640.82506
461.847
228.10802
206.28576
412.71627
576.20869
711.65798
1268.1458
1279.3504
631.5306
514.78542
371.2179
195.50851
185.33656
352.5895
496.32779
620.60357
1240.6395
1212.3875
622.96732
496.94514
351.82103
184.36099
182.77483
341.36494
481.39105
601.56397
1180.6147
1146.757
559.17216
445.13691
314.65244
174.69802
165.04049
297.108
418.8415
529.24467
1115.9848
1088.3877
507.23919
400.18675
283.39956
156.75128
151.32714
273.12859
386.31528
490.27852
1060.3031
1034.0612
476.70791
375.75856
266.16289
147.62034
144.65987
260.47511
366.9428
465.13332
1010.0464
987.89671
454.75891
359.06103
255.38098
142.17004
140.00802
250.64063
351.77831
445.2166
967.37792
948.29653
436.33111
344.95734
246.17062
138.07775
136.32664
241.93393
338.53233
428.00526
930.47517
913.76366
420.17628
332.46584
237.91479
134.7239
133.24763
234.10378
326.73079
412.79651
898.03654
883.18782
405.82394
321.30116
230.48901
131.88024
130.60762
227.05854
316.15342
399.22237
869.12764
855.77957
392.95927
311.26522
223.79966
129.41822
128.30251
220.70035
306.61609
387.00566
843.07782
830.96549
381.33556
302.18705
217.74877
127.25238
126.2611
214.93416
297.96087
375.9256
819.39292
808.31687
370.75571
293.92229
212.24651
125.32281
124.43287
209.67717
290.05782
365.80797
797.69935
787.50613
361.06561
286.35455
207.21742
123.58696
122.7815
204.85984
282.80113
356.51386
777.70705
768.27519
352.13945
279.38714
202.5972
122.01308
121.27891
200.42314
276.10308
347.93022
759.18581
750.4171
343.8756
272.94064
198.33178
120.57617
119.9026
196.31773
269.89176
339.96525
741.9487
733.76247
336.18984
266.94894
194.37559
119.2557
118.63348
192.50094
264.10567
332.54104
725.84159
718.17131
329.01192
261.35656
190.69003
118.03397
117.45587
188.93948
258.69635
325.59566
710.73781
703.52914
322.28632
256.12032
187.24583
116.89754
116.35785
185.60613
253.6239
319.07813
696.53434
689.74795
315.96785
251.20442
184.01826
115.83531
111.22356
172.0882
234.05856
295.30197
706.33987
713.26366
298.19418
236.29371
173.54309
111.7067
112.20582
175.04538
238.59957
301.17684
720.39497
727.74203
304.25288
240.97865
176.59698
112.72205
113.25711
178.20144
243.43623
307.42913
735.31602
743.12936
310.70975
245.97565
179.86114
113.81193
114.38827
181.57951
248.60226
314.10186
751.19566
759.52992
317.61101
251.32033
183.3595
114.98766
115.61254
185.20576
254.1365
321.24562
768.14878
777.07044
325.01355
257.05694
187.12262
116.26488
116.94721
189.11526
260.08918
328.92439
786.31468
795.90364
332.98782
263.24057
191.18863
117.66197
118.41228
193.34882
266.51987
337.21495
805.86149
816.21485
341.61738
269.93603
195.60187
119.20119
120.03252
197.95488
273.49977
346.20911
826.99371
838.23152
351.00456
277.22186
200.41489
120.91026
121.83933
202.98994
281.11462
356.02002
849.96574
862.23875
361.2727
285.19065
205.68801
122.82519
123.87462
208.51833
289.46483
366.78309
875.09898
888.60176
372.57309
293.95234
211.48988
124.99537
126.19685
214.6121
298.66953
378.66663
902.81064
917.79916
385.08942
303.63257
217.89316
127.48988
128.88758
221.34023
308.85769
391.86918
933.65287
950.47166
399.03466
314.35875
224.95624
130.40508
132.06021
228.73871
320.14634
406.6153
968.37208
987.49114
414.64655
326.23236
232.68451
133.87667
135.89829
236.80456
332.64809
423.18877
1007.9863
1030.0191
432.36841
339.48437
241.14608
138.20612
140.91291
245.89072
346.99496
442.47059
1053.7853
1079.5611
454.14338
355.84035
251.65528
144.25278
149.09147
259.95375
367.34186
468.59842
1106.8831
1133.5996
487.40318
382.85943
270.71688
156.60318
165.7582
286.50699
405.84356
513.47397
1163.0691
1194.332
553.50731
443.37276
316.45397
175.89904
187.41218
350.41161
486.56932
597.29227
1223.6134
1240.0174
699.72641
570.06226
409.93885
204.97952
196.73262
373.0531
519.90781
640.38658
1213.9586
1181.9056
580.59271
465.31732
330.89133
180.56025
176.17606
318.87184
451.69114
569.09359
1150.9036
1119.691
536.52199
423.60066
297.67325
167.08978
158.69824
287.05162
406.05514
514.86294
1092.5552
1064.8654
497.83991
392.16403
276.72552
153.04477
149.21581
269.72703
381.53894
484.18455
1038.7529
1014.8265
472.54856
372.71379
264.21805
146.19468
143.62627
259.13053
364.79653
462.11537
992.78526
972.37794
452.52781
357.48346
254.37733
141.39362
139.40884
249.90387
350.64679
443.61295
953.40062
935.67134
435.26878
344.21697
245.67262
137.61812
135.98735
241.66184
338.1493
427.42509
919.03763
903.37362
420.02718
332.40927
237.85557
134.49024
133.10638
234.23974
326.96798
413.02997
888.57418
874.55057
406.39598
321.80045
230.80089
131.81969
130.6176
227.52711
316.88476
400.09274
861.22759
848.54072
394.09261
312.2015
224.407
129.48975
128.42792
221.43012
307.73293
388.37042
836.43447
824.86046
382.90421
303.46292
218.58648
127.42508
126.47561
215.86745
299.37748
377.67481
813.77662
803.14568
372.66545
295.46388
213.26462
125.57454
124.71783
210.77036
291.71008
367.86
792.93471
783.11412
363.24429
288.10512
208.37722
123.90163
123.12275
206.07854
284.63884
358.80512
773.6575
764.54092
354.53162
281.30264
203.86823
122.37814
121.66524
201.74057
278.08784
350.41247
755.74284
747.24348
346.43864
274.98732
199.69048
120.98151
120.32489
197.71293
271.9934
342.60018
739.02529
731.07166
338.8903
269.10058
195.80383
119.69322
119.08481
193.95919
266.30256
335.30066
723.36798
715.9002
331.82574
263.5948
192.17556
118.4979
117.93116
190.44944
260.97169
328.45812
708.65617
701.62403
325.19318
258.4294
188.77785
117.38309
116.85262
187.15798
255.96344
322.02516
694.79551
694.98352
322.11342
256.03173
187.20213
116.8649
117.39684
188.82568
258.50256
325.28683
701.8154
708.85503
328.55927
261.05114
190.50157
117.94618
118.51443
192.23229
263.68063
331.93442
716.10981
723.59034
335.41826
266.39564
194.02078
119.10267
119.71271
195.8707
269.20121
339.01702
731.30884
739.27911
342.73793
272.10293
197.78579
120.34599
121.00459
199.77029
275.10673
346.58835
747.51593
756.03579
350.57634
278.21885
201.82832
121.69038
122.40578
203.96512
281.44659
354.71109
764.85665
773.9984
359.00264
284.79771
206.18583
123.15288
123.93461
208.49628
288.28046
363.46139
783.48281
793.33402
368.09994
291.90464
210.90306
124.75384
125.61401
213.4134
295.68084
372.93179
803.57887
814.24692
377.97129
299.62006
216.03467
126.5187
127.47215
218.77517
303.7348
383.23458
825.37141
836.98964
388.73961
308.03848
221.64352
128.47908
129.54525
224.64945
312.54625
394.50652
849.1437
861.88163
400.55734
317.27418
227.80296
130.6772
131.88325
231.11545
322.24076
406.91742
875.25854
889.33806
413.6156
327.46633
234.59888
133.1731
134.55893
238.26649
332.97379
420.68479
904.19417
919.91377
428.16269
338.7884
242.13188
136.05569
137.68277
246.21042
344.93978
436.09445
936.59953
954.37399
444.5345
351.46271
250.5188
139.46488
141.43524
255.08166
358.40444
453.55447
973.38556
993.81181
463.26224
365.84193
259.94497
143.64832
146.19956
265.19612
373.92516
473.84689
1015.8526
1039.7602
485.68875
382.99481
271.03529
149.22778
153.04164
278.30809
393.89463
499.58692
1065.8485
1093.6909
516.90365
408.1879
289.05502
158.62653
167.25316
302.84362
426.95541
538.98894
1120.5749
1150.4681
569.04868
453.15661
320.40957
176.90955
183.00395
344.06094
482.33493
602.16357
1181.7476
1210.2888
618.24859
499.78736
357.88473
187.8398
1329.3007
1381.7723
1355.9437
1223.483
595.2235
483.89447
347.86708
187.31494
187.79486
358.29172
505.64681
632.67997
1214.2394
220.96904
447.56943
623.95376
764.60801
1229.7516
1185.6805
737.72334
597.79574
425.52971
210.64151
213.35928
431.2549
604.67624
744.22644
1185.9753
1232.247
714.39743
576.55427
411.1967
203.17092
1313.6906
1354.2826
1412.7792
1395.6728
1257.3515
1344.4746
1328.9119
1257.3429
1242.4936
1285.36
1286.9591
1242.1226
115.84149
184.03781
251.23457
316.00678
689.819
696.60565
319.11261
253.65051
185.62334
116.36277
116.90185
187.26166
256.14478
322.31811
703.59941
710.80675
325.62454
258.71858
188.95379
117.45937
118.037
190.70336
261.37732
329.03904
718.23826
725.90651
332.56582
264.12454
192.51294
118.63585
119.25774
194.38663
266.96647
336.21302
733.82521
742.00942
339.98635
269.90762
196.32761
119.90416
120.57752
198.34087
272.95541
343.89541
750.47592
759.24325
347.94831
276.11641
200.43116
121.27989
122.014
202.60458
279.39953
352.15649
768.33147
777.76266
356.5293
282.81217
204.86625
122.78224
123.58783
207.22344
286.36495
361.08023
787.56141
797.75497
365.82185
290.06756
209.6827
124.43376
125.32394
212.2522
293.93207
370.76976
808.37369
819.45159
375.93941
297.97044
214.9398
126.26237
127.25405
217.7553
302.19747
381.3502
831.02721
843.14419
387.02228
306.62819
220.70827
128.30447
129.42049
223.81015
311.28047
392.97953
855.85239
869.20911
399.24771
316.17305
227.07249
130.61001
131.88285
230.50853
321.32791
405.8574
883.28083
898.14504
412.84241
326.76845
234.13164
133.25064
134.72792
237.95596
332.52084
420.24173
913.89262
930.63088
428.10008
338.61367
241.99537
136.33293
138.08949
246.26549
345.08125
436.47214
948.4869
967.61294
445.4303
351.97087
250.7906
140.03094
142.21478
255.62168
359.36477
455.08686
988.18696
1010.4005
465.6367
367.42238
260.85869
144.74255
147.75584
266.77815
376.51111
477.47265
1034.4956
1060.8466
491.41199
387.46899
274.1277
151.54922
157.17469
284.68772
401.80903
508.84413
1088.815
1116.1875
531.20371
420.383
296.71564
165.46162
174.09349
317.84541
448.33467
563.04901
1148.0616
1180.4845
585.9364
468.87789
332.86399
179.10252
186.86641
355.77729
502.74948
629.67457
1213.6576
639.89398
523.15078
380.38089
198.48949
191.07281
363.39547
501.02177
614.7283
1278.2334
1261.577
671.2326
538.77972
382.76492
195.93139
200.08425
402.10794
566.76582
706.82068
1232.1744
1243.5368
626.41277
500.28471
355.70461
184.27731
186.86613
355.74784
502.69062
629.58416
1213.3171
1180.1718
585.86028
468.82791
332.83985
179.10523
174.09371
317.81379
448.27655
562.96447
1147.7723
1115.9199
531.11175
420.31723
296.67792
165.45895
157.16866
284.64376
401.73797
508.74894
1088.562
1060.6079
491.31753
387.39717
274.08231
151.54199
147.74789
266.7327
376.44008
477.37987
1034.2669
1010.1801
465.5453
367.35204
260.81325
144.73399
142.20561
255.57649
359.29522
454.99684
987.974
967.40664
445.34234
351.90288
250.7464
140.02156
138.08013
246.22241
345.01489
436.38626
948.28687
930.43674
428.0167
338.54937
241.95379
136.32379
134.71922
237.91604
332.45872
420.16095
913.70419
897.96202
412.76455
326.70869
234.09344
133.24248
131.87524
230.47187
321.27019
405.78198
883.10295
869.03595
399.17442
316.11701
227.03699
130.6029
129.41379
223.7755
311.22558
392.90773
855.68359
842.97946
386.95227
306.57456
220.67434
128.29806
127.24788
217.72184
302.14466
381.2814
830.86623
819.29369
375.87137
297.91808
214.90649
126.25624
125.31767
212.21872
293.87968
370.70188
808.21848
797.60209
365.75482
290.01554
209.64928
124.42734
123.58112
207.18973
286.31272
361.01309
787.41057
777.61316
356.46211
282.7598
204.8323
122.77525
122.00662
202.56995
279.34629
352.08833
768.18292
759.09556
347.8803
276.06305
200.39622
121.27211
120.5693
198.30557
272.90155
343.82683
750.32897
741.86317
339.91819
269.85395
196.29225
119.8956
119.24886
194.35106
266.91231
336.14412
733.67934
725.76073
332.49692
264.07034
192.47721
118.62669
118.0275
190.66724
261.32241
328.96918
718.09257
710.66104
325.55464
258.66359
188.91757
117.44957
116.89169
187.22487
256.08874
322.24671
703.45357
696.45882
319.04029
253.59381
185.5861
116.35227
115.8302
183.99837
251.17392
315.92907
689.66621
683.06957
312.91221
248.82862
182.46096
115.32391
694.92
322.08505
256.01041
187.1891
116.86148
117.39121
188.80701
258.47397
325.25038
701.74535
708.77516
328.51372
261.01515
190.4779
117.93875
118.50523
192.20373
263.63767
331.88048
716.01766
723.48382
335.35426
266.34457
193.98676
119.09156
119.69953
195.83077
269.14158
338.94258
731.18596
739.13776
342.65102
272.03319
197.73894
120.33046
120.98647
199.7157
275.02593
346.48805
747.35416
755.85137
350.46007
278.12494
201.76464
121.66928
122.38142
203.89111
281.33812
354.5773
764.64732
773.76167
358.8487
284.67247
206.09999
123.12503
123.90299
208.39716
288.13671
363.28546
783.21631
793.03521
367.89861
291.73944
210.7885
124.71813
125.57405
213.28147
295.49161
372.7023
803.24477
813.87452
377.70959
299.40318
215.88256
126.47416
127.42292
218.60011
303.48665
382.93676
824.95755
836.53117
388.40092
307.75481
221.44224
128.42509
129.48658
224.4183
312.22253
394.12231
848.63769
861.32538
400.1219
316.90506
227.53767
130.6141
131.81616
230.81108
321.82032
406.42476
874.64978
888.67534
413.05869
326.98774
234.24982
133.10296
134.48716
237.86645
332.42997
420.05699
903.47725
919.14424
427.45629
338.1712
241.67365
135.98466
137.61603
245.68626
344.24092
435.30207
935.7814
953.51453
443.64871
350.67319
249.91974
139.40728
141.39263
254.39643
357.51332
452.56678
972.49598
992.9076
462.15796
364.83033
259.1533
143.62564
146.19419
264.24579
372.7526
472.59543
1014.9532
1038.8862
484.23623
381.58349
269.76123
149.21496
153.04275
276.76632
392.21502
497.89706
1065.0076
1092.7107
514.92676
406.11337
287.09808
158.69363
167.08086
297.72791
423.6649
536.59345
1119.8569
1151.0887
569.19092
451.77186
318.93305
176.16309
180.52802
330.92632
465.36463
580.65215
1182.1263
1214.2194
640.46455
519.9715
373.08583
196.68825
204.96559
410.04653
570.29152
699.99311
1240.3347
1223.8367
597.51235
486.75937
350.54773
187.39273
184.33072
352.09666
497.24768
623.26897
1212.498
1208.5177
610.68486
486.98176
344.83672
181.61099
179.46778
333.35043
463.5512
570.70831
1219.3426
1210.1014
618.08669
499.65774
357.78835
187.80851
192.64549
366.13863
510.68249
630.36299
1211.9992
1223.1438
594.91337
483.62312
347.65002
187.32736
187.77256
358.00899
505.33384
632.347
1213.8595
1180.4408
580.7355
464.33766
329.25532
178.12243
173.2639
315.42663
445.79794
560.8935
1148.1205
1116.343
530.70453
419.60757
295.9228
165.19068
157.02715
284.36868
401.53531
508.698
1088.946
1060.947
491.39912
387.3827
274.00184
151.47948
147.72626
266.74074
376.51102
477.52151
1034.5854
1010.4831
465.71177
367.46254
260.86715
144.73236
142.21639
255.65356
359.42472
455.17309
988.26157
967.67855
445.52026
352.04052
250.83515
140.04075
138.10426
246.31544
345.15333
436.56006
948.54235
930.67503
428.18198
338.68316
242.04556
136.34998
134.74542
238.00306
332.58447
420.31498
913.92492
898.16531
412.90596
326.82464
234.17396
133.2675
131.89843
230.54512
321.37567
405.91043
883.28931
869.20624
399.29027
316.21216
227.10301
130.62402
129.4328
223.8346
311.31097
393.01179
855.83886
843.12078
387.04539
306.65088
220.72709
128.31512
127.26302
217.76878
302.21278
381.36468
830.99472
819.41053
375.94595
297.97902
214.94842
126.26976
125.32977
212.25607
293.93409
370.76861
808.32458
797.6985
365.81428
290.06395
209.68239
124.43804
123.5906
207.21914
286.35583
361.06616
787.49796
777.69272
356.50948
282.79815
204.85834
122.78363
122.01397
202.59305
279.38048
352.13078
768.25537
759.16154
347.9185
276.09373
200.41688
121.27859
120.575
198.324
272.92909
343.86121
750.38947
741.91825
339.94882
269.87851
196.30871
119.90067
119.25334
194.36564
266.93426
336.17167
733.72963
725.80708
332.52169
264.09004
192.49029
118.63063
118.03096
190.67895
261.34012
328.99155
718.1352
710.70115
325.57501
258.67966
188.92814
117.45263
116.89438
187.23443
256.10333
322.26525
703.491
696.49395
319.05694
253.60693
185.59471
116.35466
115.83262
184.00633
251.18622
315.94471
689.69939
683.10002
312.92488
248.83822
182.46683
115.32681
689.84278
316.01743
251.24273
184.04299
115.84261
116.3647
185.63004
253.66078
319.12577
696.63103
703.62716
322.33286
256.15644
187.26935
116.90422
117.46256
188.96319
258.73268
325.64229
710.83759
718.27303
329.05891
261.39323
190.71403
118.04069
118.64036
192.52555
264.14332
332.58923
725.94586
733.86957
336.23933
266.98766
194.40096
119.26284
119.91013
196.34436
269.93233
340.01701
742.05946
750.53231
343.92973
272.98312
198.35968
120.58413
121.28762
200.45282
276.14823
347.9877
759.30662
768.40253
352.20073
279.43541
202.62909
122.02272
122.7922
204.89449
282.85333
356.5799
777.84211
787.65001
361.13707
286.41125
207.2553
123.59894
124.44643
209.71908
290.12015
365.88621
797.8536
808.48344
370.84211
293.99137
212.2933
125.33813
126.27831
214.98654
298.03759
376.02111
819.57348
831.16231
381.44185
302.27289
217.80789
127.27172
128.32411
220.76782
306.71334
387.12551
843.29372
856.01748
393.09494
311.37574
223.87687
129.44206
130.63367
227.14734
316.27971
399.37673
869.39093
883.48042
406.0005
321.44621
230.59164
131.90833
133.27762
234.22316
326.89872
413.00011
898.36319
914.12986
420.41366
332.66241
238.05514
134.75552
136.35978
242.10088
338.76534
428.28546
930.88724
948.76201
436.66842
345.23973
246.37391
138.11332
140.04865
250.89721
352.13157
445.6338
967.90603
988.49737
455.29207
359.52049
255.7191
142.22247
144.73609
260.93687
367.5639
465.83711
1010.7282
1034.8413
477.656
376.62072
266.81715
147.72797
151.48098
274.09573
387.50812
491.54923
1061.2168
1089.2371
508.87059
401.68207
284.47529
157.02807
165.19716
296.07145
419.79765
530.91177
1116.6415
1148.4374
561.12941
446.00676
315.59444
173.26805
178.12733
329.46751
464.59361
581.02048
1180.7837
1194.5021
542.2188
433.90975
309.52366
173.50868
164.74616
285.18439
403.6971
511.07776
1164.0599
1134.3318
487.21825
382.18834
268.9899
156.55411
149.41736
260.46628
368.27095
469.80103
1107.9767
1080.8364
455.78632
357.28916
252.67817
144.68275
141.37771
247.00553
348.48284
444.12587
1055.0674
1031.2702
433.86299
340.81953
242.15086
138.62997
136.2562
237.6504
333.78171
424.47453
1009.1735
988.59538
415.73171
327.17523
233.37873
134.17189
132.3025
229.30613
320.92736
407.52662
969.38624
951.39601
399.80224
315.00884
225.423
130.60475
129.05342
221.72795
309.40315
392.51955
934.49156
918.55839
385.64435
304.09419
218.21847
127.62873
126.31378
214.88746
299.06335
379.14338
903.49741
889.22324
372.98548
294.29095
211.72496
125.09437
123.95873
208.72037
289.75783
367.1419
875.66193
862.74943
361.58635
285.44562
205.86272
122.89685
121.90052
203.14185
281.33752
356.29536
850.42992
838.65457
351.24818
277.41822
200.54784
120.96267
120.07751
198.07193
273.6736
346.42565
827.38038
816.56926
341.81069
270.09069
195.70543
119.23993
118.44569
193.44075
266.65777
337.38783
806.18719
796.20416
333.14393
263.36464
191.27089
117.69097
116.97252
189.18929
260.20124
329.06579
786.59273
777.32842
325.14237
257.15879
187.18965
116.28716
115.63224
185.26654
254.22905
321.36296
768.38881
759.75418
317.71917
251.40545
183.41522
115.00534
114.40419
181.63056
248.68043
314.2014
751.40627
743.32744
310.80261
246.04841
179.90848
113.82644
113.27048
178.24554
243.50394
307.5156
735.50302
727.91909
304.33501
241.0429
176.63875
112.7347
112.21789
175.08506
238.66055
301.25477
720.56346
713.42522
298.27074
236.35364
173.58209
111.71866
111.23606
172.12768
234.11901
295.37891
706.49751
706.44373
295.34711
234.09293
172.10988
111.22961
111.71206
173.56344
236.32582
298.2363
713.36422
720.49404
301.21677
238.63016
175.06485
112.21061
112.72665
176.61622
241.00874
304.29201
727.83998
735.41263
307.4666
243.46513
178.21997
113.26114
113.81571
179.87927
246.00402
310.74654
743.22455
751.28947
314.13725
248.62957
181.59694
114.39155
114.99068
183.37659
251.34713
317.64571
759.62237
768.24027
321.27919
254.16237
185.22215
115.61507
116.26722
187.1387
257.08245
325.04666
777.16143
786.40572
328.95692
260.11414
189.13086
116.94929
117.66417
191.20429
263.2656
333.02039
795.99526
805.95436
337.2478
266.54519
193.36466
118.41464
119.20417
195.61874
269.96283
341.65201
816.31007
827.09229
346.2459
273.52835
197.97309
120.03622
120.91512
200.43545
277.25341
351.04461
838.3346
850.07495
356.06475
281.15036
203.01378
121.84563
122.83354
205.7171
285.23329
361.32522
862.35612
875.22659
366.84576
289.51644
208.5543
123.88546
125.00951
211.53556
294.01639
372.64942
888.74189
902.96594
378.7613
298.75032
214.67082
126.21515
127.5139
217.97046
303.73689
385.20939
917.97246
933.84693
392.02344
308.9943
221.44325
128.9193
130.44761
225.09568
314.54017
399.23528
950.6885
968.61238
406.87795
320.38921
228.92903
132.11793
133.95579
232.946
326.5591
414.99134
987.75284
1008.2621
423.63808
333.08505
237.16105
136.0068
138.35403
241.62369
340.06088
432.9452
1030.2934
1054.0364
443.19648
347.74204
246.51853
141.10693
144.50978
252.47974
356.80528
455.05374
1079.7668
1106.915
469.75394
368.58204
260.94885
149.46538
157.04203
271.36075
384.54856
489.0254
1133.3674
1162.9293
517.12027
409.68038
289.57235
166.6538
177.71586
321.04354
449.87611
561.78062
1194.3053
1223.3256
593.79868
482.41638
346.75207
186.46733