/*--------------------------------*- C++ -*----------------------------------*\
  =========                 |
  \\      /  F ield         | OpenFOAM: The Open Source CFD Toolbox
   \\    /   O peration     | Website:  https://openfoam.org
    \\  /    A nd           | Version:  7
     \\/     M anipulation  |
\*---------------------------------------------------------------------------*/
FoamFile
{
    version     2.0;
    format      ascii;
    class       volScalarField;
    location    "350";
    object      rho;
}
// * * * * * * * * * * * * * * * * * * * * * * * * * * * * * * * * * * * * * //

dimensions      [1 -3 0 0 0 0 0];

internalField   nonuniform List<scalar> 
24789
(
1.1735082
1.1735299
1.1735441
1.1735541
1.1736004
1.1735733
1.1735241
1.1735134
1.1734985
1.1734757
1.1734412
1.1734651
1.1734809
1.1734923
1.1735453
1.1735157
1.1734585
1.1734464
1.1734297
1.1734045
1.1733653
1.1733919
1.1734096
1.1734226
1.1734843
1.1734511
1.1733842
1.1733702
1.1733513
1.1733233
1.1732781
1.1733078
1.173328
1.1733431
1.1734158
1.1733782
1.1732988
1.1732825
1.1732609
1.1732292
1.1731763
1.1732102
1.1732334
1.1732511
1.1733381
1.1732951
1.1731995
1.1731801
1.1731551
1.1731187
1.173056
1.1730951
1.1731223
1.1731435
1.173249
1.1731994
1.1730826
1.1730593
1.1730297
1.1729873
1.172912
1.172958
1.1729904
1.1730161
1.1731459
1.173088
1.1729433
1.1729147
1.1728792
1.172829
1.1727374
1.1727924
1.1728316
1.1728633
1.1730253
1.1729571
1.1727753
1.1727398
1.1726963
1.1726358
1.172523
1.1725899
1.1726382
1.172678
1.1728827
1.1728012
1.17257
1.1725253
1.1724713
1.172397
1.1722562
1.172339
1.1723995
1.17245
1.1727116
1.1726128
1.1723161
1.1722589
1.1721908
1.1720981
1.1719205
1.1720245
1.1721013
1.1721661
1.1725032
1.172381
1.1719978
1.1719242
1.1718375
1.1717206
1.1714958
1.1716271
1.171725
1.1718085
1.1722439
1.172089
1.1715954
1.1715009
1.1713905
1.1712433
1.1709602
1.1711244
1.1712482
1.1713548
1.1719117
1.1717071
1.1710834
1.170964
1.1708262
1.1706445
1.170302
1.1705003
1.1706521
1.1707844
1.1714746
1.1711997
1.170452
1.1703078
1.1701435
1.1699313
1.1695011
1.169718
1.1698896
1.1700424
1.1708286
1.1704604
1.1696377
1.1694806
1.1693136
1.1691199
1.1691753
1.169296
1.1694441
1.1696019
1.1704555
1.1695809
1.1689281
1.1688036
1.1687009
1.1686579
1.1632224
1.163511
1.1637291
1.1639746
1.1660787
1.1702559
1.1697485
1.1696229
1.1694929
1.1692985
1.1712293
1.171445
1.1715475
1.1716604
1.1721374
1.1741148
1.173722
1.1736181
1.1734966
1.1732892
1.1774485
1.1778072
1.1780548
1.1782507
1.1782987
1.1734145
1.171251
1.1710162
1.1708139
1.1704297
1.1718237
1.1719752
1.172013
1.172026
1.1722211
1.1692568
1.1667535
1.1664209
1.1660892
1.1656453
1.1647885
1.1649495
1.1650678
1.1652219
1.1667303
1.1696626
1.168835
1.1687076
1.1685954
1.1685262
1.1690347
1.1691675
1.1693168
1.1694718
1.1704448
1.1704731
1.1695381
1.1693833
1.1692196
1.1690312
1.1694083
1.1696168
1.1697853
1.1699372
1.1708473
1.1712196
1.1703432
1.1701985
1.1700357
1.1698306
1.1701962
1.1703874
1.1705389
1.1706731
1.1714928
1.1717215
1.1709699
1.170847
1.1707068
1.1705258
1.1708342
1.1710015
1.1711297
1.1712413
1.1719225
1.1720972
1.1714842
1.1713837
1.1712674
1.1711149
1.1713682
1.1715065
1.1716113
1.1717014
1.1722503
1.1723861
1.1718962
1.1718157
1.1717214
1.1715964
1.1718017
1.1719145
1.1719991
1.172071
1.1725074
1.1726165
1.1722279
1.1721638
1.1720878
1.171986
1.1721516
1.1722435
1.1723118
1.172369
1.1727149
1.1728041
1.1724961
1.1724449
1.1723836
1.1723005
1.1724345
1.1725098
1.172565
1.1726108
1.1728853
1.1729596
1.1727145
1.1726735
1.1726236
1.1725553
1.1726644
1.1727266
1.1727717
1.1728085
1.1730276
1.1730902
1.1728939
1.1728608
1.1728198
1.1727631
1.1728526
1.1729046
1.1729418
1.1729717
1.1731479
1.1732013
1.1730426
1.1730156
1.1729816
1.1729338
1.1730079
1.1730518
1.173083
1.1731075
1.1732508
1.1732968
1.1731671
1.1731447
1.173116
1.1730753
1.1731371
1.1731749
1.1732013
1.1732218
1.1733397
1.1733797
1.1732722
1.1732534
1.1732288
1.1731936
1.1732457
1.1732786
1.1733014
1.1733187
1.1734172
1.1734523
1.1733619
1.1733459
1.1733246
1.1732937
1.1733382
1.1733673
1.1733872
1.1734021
1.1734854
1.1735166
1.1734395
1.1734257
1.1734069
1.1733794
1.1734179
1.173444
1.1734617
1.1734746
1.1735461
1.1735742
1.1735077
1.1734956
1.1734788
1.1734541
1.1734882
1.1735117
1.1735274
1.1735388
1.1736011
1.1735775
1.1735117
1.1734997
1.1734833
1.1734589
1.1734233
1.173449
1.1734663
1.173479
1.1735491
1.1735197
1.1734442
1.1734306
1.1734122
1.1733851
1.1733444
1.173373
1.1733926
1.1734071
1.1734887
1.1734559
1.1733674
1.1733517
1.1733308
1.1733004
1.173253
1.1732854
1.1733077
1.1733247
1.173421
1.1733838
1.1732786
1.1732603
1.1732362
1.1732016
1.1731459
1.173183
1.1732089
1.1732289
1.1733441
1.1733017
1.1731749
1.173153
1.1731249
1.173085
1.1730185
1.1730616
1.1730922
1.1731162
1.1732561
1.1732071
1.1730521
1.1730257
1.1729924
1.1729456
1.1728655
1.1729165
1.1729529
1.1729821
1.1731542
1.1730971
1.1729054
1.1728731
1.172833
1.1727774
1.1726802
1.1727411
1.1727852
1.1728212
1.1730351
1.1729677
1.1727284
1.1726884
1.1726396
1.1725726
1.1724537
1.1725273
1.1725814
1.1726261
1.1728942
1.1728137
1.1725128
1.1724629
1.1724029
1.1723215
1.1721747
1.1722647
1.1723314
1.1723873
1.1727252
1.1726277
1.172248
1.1721854
1.1721111
1.1720114
1.1718296
1.1719401
1.1720228
1.172093
1.1725195
1.172399
1.1719203
1.1718417
1.1717496
1.1716272
1.1714022
1.1715375
1.1716399
1.1717277
1.1722641
1.1721122
1.1715131
1.1714152
1.1713017
1.1711526
1.1708763
1.1710396
1.1711646
1.1712732
1.1719387
1.1717388
1.1710049
1.1708854
1.170749
1.170573
1.1702478
1.1704332
1.1705803
1.1707107
1.1715105
1.1712412
1.1703864
1.1702461
1.1700885
1.16989
1.1694841
1.1696831
1.1698452
1.169992
1.1708773
1.1704703
1.1695707
1.1694228
1.1692673
1.1690898
1.1690567
1.1691743
1.1693112
1.1694582
1.1704035
1.1699398
1.1691283
1.1690012
1.1688943
1.1688532
1.1656747
1.1658069
1.1658912
1.1660023
1.1669687
1.1673342
1.1629949
1.1625092
1.1620483
1.1614084
1.1789611
1.1788839
1.1787638
1.1785689
1.1762735
1.1725852
1.1705518
1.1702905
1.170074
1.1696752
1.1769735
1.1773915
1.1776493
1.1778512
1.1776185
1.1740292
1.173997
1.1739468
1.1738634
1.1736534
1.1776504
1.1776625
1.1775814
1.1774199
1.1759052
1.1672174
1.1637363
1.1632556
1.1627753
1.1621489
1.1650948
1.1652433
1.1653263
1.1654426
1.1664909
1.1696763
1.168963
1.1688362
1.1687316
1.1686885
1.1689939
1.1691286
1.1692761
1.1694299
1.1702824
1.1703989
1.1695819
1.1694266
1.169258
1.1690548
1.1694897
1.1697147
1.1698874
1.1700386
1.1708237
1.1711946
1.1704559
1.1703153
1.1701538
1.1699439
1.1703253
1.1705192
1.1706664
1.170794
1.1714698
1.1717043
1.1710971
1.1709828
1.1708502
1.1706743
1.1709906
1.1711484
1.1712667
1.1713683
1.1719087
1.172086
1.1716073
1.1715174
1.1714123
1.1712716
1.1715207
1.1716459
1.1717391
1.1718184
1.1722413
1.1723791
1.172006
1.1719359
1.1718533
1.1717419
1.1719381
1.1720374
1.1721108
1.1721726
1.172502
1.1726122
1.1723211
1.1722663
1.172201
1.1721122
1.1722673
1.172347
1.1724052
1.1724538
1.1727115
1.1728015
1.1725729
1.1725296
1.1724774
1.1724057
1.1725297
1.1725945
1.1726414
1.17268
1.1728834
1.1729581
1.1727767
1.1727422
1.1726998
1.1726409
1.1727411
1.1727948
1.1728332
1.1728642
1.1730264
1.1730892
1.1729438
1.1729158
1.1728809
1.1728317
1.1729139
1.1729591
1.172991
1.1730163
1.1731471
1.1732006
1.1730826
1.1730596
1.1730303
1.1729885
1.1730567
1.1730954
1.1731223
1.1731433
1.1732502
1.1732963
1.1731992
1.1731801
1.1731552
1.1731191
1.1731764
1.17321
1.1732331
1.1732507
1.1733392
1.1733793
1.1732983
1.1732821
1.1732606
1.173229
1.1732777
1.1733074
1.1733275
1.1733425
1.1734168
1.173452
1.1733836
1.1733696
1.1733508
1.1733227
1.1733647
1.1733912
1.173409
1.1734219
1.1734851
1.1735163
1.1734578
1.1734456
1.1734289
1.1734037
1.1734404
1.1734644
1.1734802
1.1734915
1.1735459
1.1735745
1.1735233
1.1735127
1.1734976
1.1734748
1.1734802
1.1735027
1.1735175
1.1735279
1.1735766
1.1735483
1.1734964
1.1734853
1.1734697
1.173446
1.1734096
1.1734345
1.173451
1.1734629
1.1735189
1.1734878
1.1734273
1.1734145
1.173397
1.1733708
1.1733292
1.173357
1.1733756
1.1733893
1.1734548
1.1734198
1.1733485
1.1733337
1.1733138
1.1732844
1.1732361
1.1732674
1.1732887
1.1733048
1.1733825
1.1733426
1.1732574
1.17324
1.1732171
1.1731836
1.1731268
1.1731627
1.1731874
1.1732064
1.1733
1.1732542
1.1731509
1.17313
1.1731033
1.1730646
1.1729966
1.1730384
1.1730676
1.1730905
1.1732049
1.1731518
1.1730247
1.1729994
1.1729675
1.1729221
1.17284
1.1728895
1.1729245
1.1729526
1.1730944
1.1730321
1.1728734
1.1728422
1.1728035
1.1727493
1.1726489
1.1727086
1.1727514
1.1727863
1.1729643
1.1728903
1.1726898
1.1726507
1.1726031
1.1725371
1.1724126
1.1724859
1.1725391
1.1725831
1.1728094
1.1727204
1.1724642
1.1724146
1.172355
1.1722733
1.172117
1.1722084
1.1722755
1.1723316
1.1726221
1.172513
1.1721831
1.1721195
1.1720439
1.1719414
1.1717438
1.171859
1.1719442
1.1720164
1.1723913
1.1722547
1.1718289
1.171747
1.1716508
1.1715214
1.1712718
1.1714167
1.171525
1.1716177
1.1721002
1.1719232
1.1713791
1.1712747
1.1711533
1.1709919
1.1706797
1.170858
1.1709929
1.1711096
1.1717186
1.1714852
1.1708121
1.1706831
1.1705349
1.1703406
1.1699749
1.1701823
1.1703422
1.1704823
1.1712098
1.1708391
1.1700772
1.1699294
1.169763
1.1695514
1.1691595
1.1693485
1.1695096
1.1696603
1.170454
1.1704171
1.1695865
1.1694376
1.1692977
1.1691821
1.1688483
1.1688803
1.1689619
1.1690652
1.169628
1.1662058
1.1644551
1.1642532
1.1640886
1.1638574
1.1666429
1.1670149
1.1672615
1.1675122
1.1693369
1.1743737
1.1753732
1.1753995
1.1753862
1.1752971
1.1714012
1.1716506
1.1717713
1.171894
1.1729369
1.1786011
1.178632
1.1784448
1.1782028
1.1778074
1.1816516
1.1836267
1.1839402
1.1841803
1.1843034
1.1841321
1.1841181
1.1841145
1.1839611
1.1808979
1.1789021
1.1790832
1.1789767
1.1788665
1.1786577
1.1769049
1.177074
1.1771896
1.1772661
1.1769929
1.1750214
1.175528
1.1755541
1.1755253
1.1754297
1.1736535
1.173883
1.1740214
1.1740904
1.1741741
1.1677379
1.1655335
1.1652214
1.1649288
1.1644508
1.1651348
1.1652606
1.1653494
1.1654828
1.1666221
1.1696699
1.1690207
1.168903
1.1688059
1.1687741
1.1691212
1.1692376
1.1693742
1.1695192
1.1703069
1.1704089
1.1696432
1.1694966
1.16934
1.1691573
1.1695755
1.1697777
1.1699383
1.1700811
1.1708227
1.1711923
1.1704885
1.1703547
1.1702023
1.1700056
1.1703734
1.1705563
1.1706964
1.1708186
1.171467
1.1717006
1.1711145
1.1710045
1.1708777
1.1707109
1.1710182
1.1711687
1.1712824
1.1713806
1.1719049
1.1720823
1.171616
1.1715287
1.1714272
1.1712921
1.1715359
1.1716567
1.1717471
1.1718245
1.1722378
1.1723758
1.1720097
1.1719411
1.1718606
1.1717525
1.1719452
1.172042
1.1721138
1.1721746
1.1724987
1.1726092
1.1723219
1.1722679
1.1722038
1.1721169
1.17227
1.1723483
1.1724057
1.1724537
1.1727087
1.172799
1.1725721
1.1725293
1.1724777
1.172407
1.1725298
1.1725939
1.1726404
1.1726787
1.1728809
1.1729558
1.1727751
1.1727407
1.1726986
1.1726402
1.17274
1.1727934
1.1728316
1.1728625
1.1730243
1.1730873
1.172942
1.172914
1.1728792
1.1728302
1.1729122
1.1729573
1.1729891
1.1730144
1.1731454
1.173199
1.1730808
1.1730577
1.1730285
1.1729868
1.173055
1.1730937
1.1731206
1.1731416
1.1732488
1.173295
1.1731975
1.1731783
1.1731534
1.1731173
1.1731746
1.1732083
1.1732315
1.1732491
1.173338
1.1733781
1.1732968
1.1732805
1.1732589
1.1732273
1.1732761
1.1733058
1.173326
1.1733411
1.1734157
1.173451
1.1733822
1.1733682
1.1733493
1.1733212
1.1733633
1.1733899
1.1734077
1.1734207
1.1734842
1.1735156
1.1734567
1.1734445
1.1734277
1.1734025
1.1734394
1.1734634
1.1734792
1.1734906
1.1735452
1.173574
1.1735226
1.1735119
1.1734968
1.1734739
1.1734551
1.1734797
1.1734964
1.1735084
1.1735751
1.1735468
1.1734756
1.1734627
1.1734452
1.1734192
1.1733808
1.1734081
1.1734268
1.1734405
1.1735173
1.1734862
1.1734031
1.1733883
1.1733685
1.1733395
1.1732952
1.1733259
1.1733471
1.1733631
1.1734531
1.173418
1.17332
1.1733027
1.17328
1.1732472
1.1731953
1.1732304
1.1732548
1.1732735
1.1733806
1.1733407
1.1732232
1.1732028
1.1731764
1.1731388
1.1730772
1.1731177
1.1731463
1.1731686
1.1732979
1.173252
1.1731091
1.1730846
1.1730535
1.1730097
1.1729358
1.1729834
1.1730173
1.1730443
1.1732025
1.1731493
1.1729734
1.1729436
1.1729064
1.1728545
1.1727651
1.1728217
1.1728626
1.1728957
1.1730917
1.1730292
1.1728103
1.1727735
1.1727284
1.1726663
1.1725572
1.1726254
1.1726753
1.1727163
1.1729612
1.1728871
1.1726125
1.1725667
1.1725115
1.1724362
1.1723021
1.1723852
1.1724466
1.1724977
1.172806
1.1727169
1.1723706
1.1723132
1.1722449
1.1721529
1.1719871
1.172089
1.1721651
1.1722293
1.1726185
1.1725097
1.1720723
1.1720003
1.1719155
1.1718025
1.1715973
1.1717224
1.1718168
1.1718975
1.1723884
1.1722528
1.1717027
1.1716125
1.1715075
1.1713692
1.1711164
1.1712688
1.1713851
1.1714858
1.1720999
1.1719257
1.1712434
1.1711318
1.1710036
1.1708368
1.1705311
1.1707106
1.1708503
1.1709732
1.171725
1.1714968
1.1706782
1.1705443
1.1703936
1.1702049
1.1698455
1.1700473
1.1702085
1.1703527
1.171225
1.1708571
1.1699572
1.1698067
1.1696411
1.1694398
1.1690643
1.1692429
1.1694021
1.1695543
1.1704666
1.1704162
1.1694743
1.1693222
1.1691798
1.1690598
1.1687326
1.1687831
1.1688865
1.1690144
1.1697748
1.1669149
1.1655069
1.165357
1.1652299
1.165063
1.1651072
1.1655482
1.1658401
1.1661542
1.1687486
1.1729079
1.1731271
1.1730937
1.1730322
1.1728121
1.1699571
1.1704152
1.1707623
1.17108
1.1736789
1.1787091
1.1824531
1.1828674
1.1832036
1.1834949
1.1730093
1.1732268
1.1733852
1.1735095
1.1742246
1.1714393
1.1705342
1.1703738
1.1702403
1.1699308
1.1706959
1.170776
1.1708037
1.1708194
1.1706729
1.1661479
1.1636474
1.1633371
1.163061
1.1627252
1.1687315
1.1687688
1.1688635
1.1689763
1.169565
1.1704333
1.1695867
1.1694297
1.169283
1.1691646
1.169108
1.1693011
1.1694681
1.1696255
1.1704511
1.170828
1.1700369
1.1698832
1.1697108
1.1694934
1.1699199
1.1701337
1.1702995
1.170445
1.1711994
1.1714747
1.1707776
1.1706438
1.1704904
1.1702899
1.1706337
1.1708176
1.170957
1.1710777
1.1717078
1.1719126
1.1713502
1.1712424
1.1711172
1.170951
1.1712358
1.1713847
1.1714963
1.1715918
1.1720898
1.1722447
1.1718057
1.1717214
1.1716225
1.1714898
1.171716
1.171834
1.1719215
1.1719957
1.1723817
1.1725039
1.1721647
1.1720994
1.172022
1.1719171
1.1720957
1.1721891
1.1722576
1.1723151
1.1726135
1.1727123
1.1724495
1.1723988
1.1723379
1.1722545
1.1723961
1.1724708
1.172525
1.1725699
1.1728019
1.1728833
1.1726781
1.1726382
1.1725896
1.1725224
1.1726358
1.1726964
1.17274
1.1727755
1.1729577
1.1730258
1.1728637
1.1728319
1.1727926
1.1727375
1.1728294
1.1728796
1.1729152
1.1729437
1.1730885
1.1731463
1.1730166
1.1729908
1.1729584
1.1729124
1.1729878
1.1730302
1.1730598
1.1730831
1.1731998
1.1732494
1.173144
1.1731229
1.1730957
1.1730565
1.1731193
1.1731556
1.1731807
1.1732
1.1732955
1.1733384
1.1732516
1.1732339
1.1732106
1.1731767
1.1732297
1.1732615
1.173283
1.1732993
1.1733786
1.1734161
1.1733435
1.1733285
1.1733083
1.1732785
1.1733238
1.1733519
1.1733707
1.1733846
1.1734514
1.1734846
1.1734231
1.1734101
1.1733923
1.1733657
1.173405
1.1734302
1.1734469
1.173459
1.1735159
1.1735455
1.1734928
1.1734814
1.1734656
1.1734417
1.173476
1.1734988
1.1735137
1.1735243
1.1735737
1.1735765
1.1735282
1.1735178
1.1735031
1.1734807
1.1734468
1.1734703
1.1734858
1.1734968
1.1735483
1.1735189
1.1734635
1.1734516
1.1734352
1.1734105
1.173372
1.173398
1.1734153
1.173428
1.1734879
1.1734549
1.1733901
1.1733765
1.1733581
1.1733306
1.1732862
1.1733153
1.1733349
1.1733496
1.17342
1.1733827
1.173306
1.1732902
1.1732692
1.1732382
1.1731865
1.1732195
1.173242
1.1732591
1.1733429
1.1733003
1.1732084
1.1731897
1.1731654
1.1731301
1.1730689
1.1731068
1.173133
1.1731534
1.1732547
1.1732056
1.1730937
1.1730714
1.1730429
1.173002
1.1729287
1.1729729
1.173004
1.1730286
1.1731526
1.1730953
1.1729574
1.1729302
1.1728962
1.1728481
1.1727593
1.1728118
1.1728491
1.1728793
1.1730332
1.1729657
1.1727934
1.1727598
1.1727185
1.172661
1.1725521
1.1726154
1.1726611
1.1726987
1.1728921
1.1728114
1.1725937
1.1725515
1.1725006
1.1724306
1.172295
1.1723728
1.1724297
1.172477
1.1727227
1.1726248
1.172347
1.1722935
1.1722298
1.1721431
1.1719725
1.1720694
1.172141
1.1722014
1.1725163
1.1723951
1.1720381
1.1719697
1.1718891
1.1717805
1.1715644
1.1716861
1.1717768
1.1718543
1.1722591
1.1721053
1.1716471
1.1715596
1.1714576
1.1713215
1.1710484
1.1711999
1.1713141
1.1714127
1.1719292
1.1717256
1.1711473
1.1710369
1.1709098
1.1707426
1.1704079
1.1705906
1.1707304
1.1708527
1.1714931
1.1712191
1.1705241
1.1703908
1.1702393
1.1700435
1.1696179
1.1698201
1.1699791
1.1701206
1.1708517
1.1704533
1.1696906
1.1695451
1.1693892
1.169203
1.169176
1.1692989
1.1694385
1.1695864
1.1704046
1.1697673
1.1691836
1.1690738
1.168984
1.1689496
1.1644493
1.1646517
1.1647863
1.1649492
1.1663629
1.1680929
1.1653092
1.1649325
1.1645909
1.1640968
1.1781434
1.1780869
1.1780017
1.1778545
1.1760631
1.1718829
1.1702371
1.1700424
1.1699002
1.1696403
1.1742426
1.1730201
1.1740386
1.1734726
1.1716423
1.171424
1.1712081
1.1708538
1.1758752
1.1759895
1.1760087
1.1759703
1.1755237
1.1804327
1.1805486
1.1805806
1.1805105
1.1800935
1.1770324
1.1778049
1.1777678
1.1777002
1.1774651
1.1725791
1.1729151
1.1731004
1.1733251
1.1744484
1.1770447
1.1771628
1.1771017
1.1769551
1.1767066
1.1772915
1.1805818
1.1765455
1.1775248
1.173833
1.1738544
1.1737994
1.1738328
1.1738009
1.1737951
1.1738067
1.1738005
1.1734741
1.1734969
1.173512
1.1735227
1.1735743
1.1735458
1.173491
1.1734795
1.1734636
1.1734397
1.173403
1.1734282
1.173445
1.1734572
1.1735162
1.173485
1.1734213
1.1734083
1.1733905
1.1733639
1.173322
1.1733501
1.173369
1.173383
1.1734519
1.1734166
1.1733418
1.1733267
1.1733066
1.1732768
1.1732282
1.1732598
1.1732813
1.1732976
1.173379
1.1733388
1.1732498
1.1732322
1.1732091
1.1731754
1.1731183
1.1731542
1.1731791
1.1731983
1.1732957
1.1732495
1.1731424
1.1731215
1.1730946
1.173056
1.172988
1.1730296
1.1730587
1.1730817
1.1731997
1.173146
1.1730154
1.1729901
1.1729584
1.1729135
1.1728319
1.1728806
1.1729153
1.1729431
1.1730878
1.1730248
1.1728638
1.1728331
1.1727951
1.1727421
1.172643
1.1727009
1.1727426
1.1727767
1.1729562
1.1728813
1.1726808
1.1726428
1.1725967
1.1725333
1.1724116
1.1724814
1.1725324
1.1725747
1.1727992
1.1727089
1.1724571
1.1724097
1.1723531
1.172276
1.1721249
1.1722102
1.1722733
1.1723264
1.1726093
1.1724989
1.1721805
1.1721208
1.1720504
1.1719556
1.1717659
1.1718714
1.1719501
1.1720172
1.1723758
1.1722379
1.1718341
1.1717586
1.1716705
1.171553
1.171314
1.1714448
1.1715434
1.1716283
1.1720824
1.171905
1.171396
1.1713008
1.1711907
1.1710454
1.1707446
1.170905
1.1710271
1.1711334
1.1717003
1.1714671
1.1708421
1.1707245
1.1705901
1.170415
1.1700542
1.1702418
1.1703873
1.1705154
1.1711897
1.1708116
1.1701046
1.1699689
1.1698169
1.1696256
1.1692473
1.1694144
1.1695609
1.1696999
1.1704304
1.1703978
1.1696645
1.169527
1.1693999
1.1693043
1.1686261
1.1686516
1.1687372
1.1688435
1.1693956
1.1661567
1.1640537
1.1638222
1.1636327
1.1633948
1.1704101
1.1705476
1.1705846
1.1706271
1.170633
1.1705137
1.1687122
1.1684684
1.1682367
1.1677858
1.1747242
1.1749874
1.1751556
1.1752346
1.1756465
1.1777092
1.1776852
1.1776901
1.17763
1.1749511
1.1751836
1.1753216
1.1755218
1.1758443
1.1760704
1.1764081
1.1762306
1.1760893
1.1757643
1.1859527
1.1856438
1.1853765
1.1849782
1.1814635
1.1803623
1.1823899
1.1825086
1.1825612
1.1826018
1.1747099
1.1749734
1.1751429
1.1752233
1.1756424
1.1705091
1.1687068
1.1684634
1.1682321
1.1677815
1.1704076
1.1705449
1.1705815
1.1706235
1.1706282
1.1661508
1.1640493
1.1638181
1.1636291
1.1633918
1.1686238
1.1686487
1.1687339
1.1688398
1.1693902
1.1703919
1.1696603
1.1695231
1.1693965
1.1693015
1.1692436
1.1694104
1.1695567
1.1696955
1.1704249
1.1708062
1.1700999
1.1699643
1.1698125
1.1696216
1.1700498
1.1702372
1.1703826
1.1705106
1.1711846
1.1714622
1.1708374
1.1707198
1.1705855
1.1704106
1.1707398
1.1709001
1.1710223
1.1711285
1.1716956
1.1719005
1.1713913
1.171296
1.1711859
1.1710406
1.1713091
1.17144
1.1715387
1.1716236
1.1720781
1.1722338
1.1718295
1.1717539
1.1716657
1.1715481
1.171761
1.1718667
1.1719455
1.1720127
1.1723719
1.1724951
1.172176
1.1721162
1.1720457
1.1719507
1.17212
1.1722055
1.1722687
1.172322
1.1726057
1.1727055
1.1724528
1.1724053
1.1723485
1.1722712
1.1724069
1.1724769
1.172528
1.1725705
1.1727958
1.172878
1.1726766
1.1726385
1.1725922
1.1725285
1.1726384
1.1726966
1.1727385
1.1727727
1.1729531
1.1730218
1.17286
1.172829
1.1727909
1.1727376
1.1728276
1.1728766
1.1729114
1.1729393
1.173085
1.1731432
1.1730118
1.1729864
1.1729545
1.1729094
1.172984
1.1730258
1.1730551
1.1730782
1.173197
1.1732469
1.1731391
1.1731179
1.1730909
1.173052
1.1731146
1.1731508
1.1731758
1.1731951
1.1732932
1.1733364
1.1732468
1.173229
1.1732058
1.1731719
1.1732249
1.1732567
1.1732783
1.1732947
1.1733767
1.1734144
1.1733391
1.1733239
1.1733036
1.1732737
1.173319
1.1733473
1.1733663
1.1733804
1.1734498
1.1734831
1.1734189
1.1734058
1.1733879
1.1733611
1.1734005
1.1734258
1.1734427
1.173455
1.1735144
1.1735441
1.1734888
1.1734773
1.1734613
1.1734372
1.173472
1.173495
1.1735101
1.1735209
1.1735722
1.1735992
1.1735512
1.173541
1.1735267
1.1735048
1.1735759
1.1735269
1.1735163
1.1735015
1.1734789
1.173445
1.1734687
1.1734843
1.1734955
1.1735478
1.1735185
1.173462
1.17345
1.1734335
1.1734085
1.1733697
1.173396
1.1734136
1.1734265
1.1734874
1.1734544
1.1733884
1.1733745
1.1733558
1.173328
1.1732832
1.1733127
1.1733326
1.1733475
1.1734194
1.173382
1.1733036
1.1732874
1.1732661
1.1732346
1.1731821
1.1732157
1.1732386
1.1732562
1.1733421
1.1732993
1.1732048
1.1731857
1.1731608
1.1731248
1.1730623
1.1731012
1.1731281
1.1731491
1.1732534
1.173204
1.1730884
1.1730653
1.173036
1.1729939
1.1729188
1.1729645
1.1729966
1.1730222
1.1731508
1.1730932
1.1729495
1.1729212
1.1728859
1.172836
1.1727445
1.1727992
1.1728382
1.1728698
1.1730307
1.1729627
1.1727818
1.1727465
1.1727032
1.1726429
1.1725299
1.1725967
1.1726449
1.1726845
1.1728884
1.1728072
1.1725765
1.1725319
1.1724779
1.1724036
1.1722624
1.1723453
1.1724059
1.1724564
1.1727178
1.1726193
1.1723223
1.172265
1.1721968
1.1721038
1.1719254
1.1720299
1.172107
1.172172
1.1725099
1.1723881
1.1720034
1.1719295
1.1718423
1.1717247
1.1714988
1.1716311
1.1717297
1.1718137
1.1722513
1.1720968
1.1716001
1.1715049
1.1713937
1.1712452
1.170961
1.1711267
1.1712516
1.171359
1.1719199
1.1717157
1.1710871
1.1709667
1.1708277
1.1706444
1.1703017
1.1705014
1.1706543
1.1707876
1.1714829
1.1712081
1.1704558
1.1703108
1.1701457
1.1699329
1.1695083
1.1697244
1.169896
1.170049
1.170837
1.1704608
1.1696389
1.1694825
1.1693167
1.1691252
1.1691845
1.1693012
1.1694465
1.1696023
1.1704435
1.1695752
1.1689941
1.1688832
1.1687905
1.1687554
1.1627608
1.1630918
1.1633645
1.1636723
1.1661605
1.1706896
1.1708506
1.1708382
1.1708148
1.1707413
1.1699734
1.1702768
1.1704055
1.1705626
1.1714525
1.1742394
1.1735423
1.1734211
1.1732666
1.1730633
1.1835653
1.1832617
1.1829174
1.1824962
1.1787246
1.1736928
1.1711361
1.1708255
1.1704871
1.1700423
1.1754995
1.1755819
1.1756008
1.1755667
1.175038
1.1740579
1.1740511
1.1740088
1.1739333
1.1737352
1.1697159
1.1701086
1.1703226
1.1705827
1.172609
1.1718833
1.1702289
1.170034
1.169893
1.1696356
1.171332
1.1715937
1.1717229
1.1718533
1.1729323
1.1734639
1.1715848
1.1713585
1.1711346
1.1707708
1.175798
1.1759255
1.1759551
1.1759252
1.175515
1.170728
1.1689939
1.1687087
1.1683987
1.1678969
1.1701588
1.1703198
1.1703868
1.1704528
1.1706489
1.1660414
1.1638853
1.1636475
1.1634498
1.163171
1.1686114
1.1686511
1.1687475
1.1688575
1.1694025
1.1703977
1.1696492
1.1695072
1.1693756
1.1692731
1.1692188
1.1693908
1.1695409
1.1696826
1.1704215
1.1708071
1.1700954
1.1699579
1.1698037
1.1696095
1.1700436
1.170233
1.1703799
1.1705091
1.1711864
1.1714633
1.1708364
1.1707181
1.1705829
1.1704066
1.1707374
1.1708985
1.1710212
1.171128
1.1716964
1.1719013
1.171391
1.1712955
1.171185
1.1710392
1.1713083
1.1714396
1.1715385
1.1716237
1.172079
1.1722349
1.1718298
1.1717541
1.1716656
1.1715477
1.171761
1.1718669
1.1719459
1.1720132
1.172373
1.1724964
1.1721767
1.1721168
1.1720461
1.171951
1.1721204
1.1722062
1.1722695
1.1723228
1.172607
1.1727069
1.1724538
1.1724062
1.1723493
1.1722719
1.1724076
1.1724777
1.1725289
1.1725715
1.1727972
1.1728795
1.1726779
1.1726397
1.1725934
1.1725296
1.1726394
1.1726976
1.1727395
1.1727739
1.1729544
1.1730231
1.1728611
1.1728301
1.1727919
1.1727386
1.1728287
1.1728777
1.1729125
1.1729405
1.1730862
1.1731444
1.173013
1.1729875
1.1729556
1.1729104
1.172985
1.1730268
1.1730561
1.1730792
1.1731982
1.173248
1.1731402
1.1731191
1.173092
1.1730531
1.1731156
1.1731519
1.1731769
1.1731962
1.1732943
1.1733375
1.173248
1.1732302
1.1732069
1.173173
1.1732259
1.1732576
1.1732793
1.1732957
1.1733777
1.1734154
1.1733401
1.1733249
1.1733046
1.1732747
1.17332
1.1733483
1.1733673
1.1733813
1.1734507
1.1734839
1.1734199
1.1734068
1.1733888
1.1733621
1.1734015
1.1734269
1.1734437
1.173456
1.1735153
1.1735448
1.1734898
1.1734783
1.1734624
1.1734382
1.173473
1.1734959
1.173511
1.1735217
1.1735729
1.1735996
1.1735515
1.1735414
1.173527
1.1735051
1.1735748
1.1735234
1.1735127
1.1734976
1.1734748
1.1734403
1.1734643
1.1734801
1.1734915
1.1735462
1.1735166
1.1734577
1.1734455
1.1734287
1.1734035
1.1733644
1.1733909
1.1734087
1.1734218
1.1734853
1.1734522
1.1733833
1.1733693
1.1733504
1.1733223
1.1732772
1.1733069
1.1733271
1.1733422
1.1734169
1.1733793
1.1732979
1.1732816
1.17326
1.1732284
1.1731758
1.1732095
1.1732326
1.1732503
1.1733391
1.1732961
1.1731987
1.1731795
1.1731546
1.1731186
1.1730563
1.1730949
1.1731218
1.1731428
1.1732498
1.1732001
1.173082
1.173059
1.1730299
1.1729883
1.172914
1.1729589
1.1729906
1.1730159
1.1731464
1.1730883
1.1729436
1.1729157
1.1728811
1.1728324
1.1727426
1.1727956
1.1728335
1.1728643
1.1730252
1.1729567
1.1727774
1.1727433
1.1727016
1.1726437
1.1725342
1.1725976
1.1726436
1.1726815
1.1728818
1.1727997
1.1725756
1.1725333
1.1724824
1.1724128
1.1722777
1.1723546
1.172411
1.1724583
1.1727095
1.1726099
1.1723278
1.1722748
1.172212
1.1721269
1.1719583
1.1720527
1.1721228
1.1721822
1.1724995
1.1723764
1.1720194
1.1719526
1.1718743
1.1717693
1.1715572
1.171674
1.1717616
1.1718367
1.1722384
1.1720829
1.1716317
1.1715473
1.1714493
1.1713193
1.1710519
1.1711962
1.1713055
1.1714001
1.1719054
1.1717011
1.1711384
1.1710328
1.1709115
1.1707523
1.1704241
1.170598
1.1707316
1.1708484
1.1714683
1.171192
1.170523
1.1703955
1.1702507
1.1700641
1.1696338
1.1698245
1.1699762
1.1701115
1.1708128
1.1704278
1.1697012
1.169562
1.1694151
1.1692473
1.169307
1.1694044
1.1695327
1.1696718
1.1704052
1.1694105
1.1688827
1.1687762
1.1686844
1.1686515
1.1632168
1.163487
1.1636794
1.1639129
1.1660486
1.1706588
1.170487
1.1704263
1.1703655
1.1702118
1.1679651
1.1684541
1.1687555
1.1690336
1.1707363
1.1721043
1.1711913
1.1710697
1.1709364
1.1706932
1.167845
1.1681347
1.1683072
1.1684963
1.1698045
1.1666729
1.164764
1.1645659
1.1644016
1.1641823
1.1685941
1.168654
1.1687614
1.1688867
1.169675
1.170455
1.1695153
1.1693637
1.1692194
1.1691023
1.1690508
1.1692315
1.1693926
1.1695456
1.1704678
1.1708495
1.169942
1.1697904
1.1696225
1.1694165
1.1698286
1.1700354
1.1701991
1.1703446
1.1712243
1.1714982
1.1706718
1.1705364
1.1703833
1.1701903
1.170518
1.1707014
1.1708434
1.1709678
1.1717272
1.1719287
1.1712389
1.1711258
1.1709955
1.1708252
1.1711062
1.1712617
1.17138
1.171482
1.1721034
1.1722565
1.1716997
1.1716082
1.1715014
1.1713603
1.1715899
1.1717174
1.1718134
1.1718953
1.1723923
1.1725136
1.1720708
1.1719977
1.1719115
1.1717964
1.1719822
1.172086
1.1721633
1.1722285
1.1726225
1.1727208
1.1723703
1.1723122
1.1722428
1.1721492
1.1722993
1.1723838
1.1724461
1.172498
1.1728098
1.1728909
1.1726133
1.1725669
1.1725108
1.1724344
1.1725562
1.1726255
1.172676
1.1727174
1.1729649
1.1730328
1.1728118
1.1727747
1.172729
1.1726661
1.1727655
1.1728228
1.1728641
1.1728975
1.1730951
1.1731526
1.1729755
1.1729454
1.1729078
1.1728554
1.1729372
1.1729852
1.1730194
1.1730466
1.1732058
1.1732551
1.1731116
1.173087
1.1730556
1.1730114
1.1730792
1.17312
1.1731487
1.1731711
1.1733008
1.1733435
1.1732258
1.1732053
1.1731788
1.173141
1.1731976
1.1732329
1.1732574
1.1732761
1.1733833
1.1734206
1.1733226
1.1733053
1.1732826
1.1732496
1.1732976
1.1733285
1.1733497
1.1733656
1.1734555
1.1734884
1.1734056
1.1733908
1.1733709
1.1733419
1.173383
1.1734105
1.1734291
1.1734428
1.1735194
1.1735488
1.1734778
1.173465
1.1734474
1.1734214
1.1734573
1.1734819
1.1734985
1.1735105
1.1735771
1.1735765
1.17351
1.173498
1.1734814
1.1734568
1.1734211
1.173447
1.1734645
1.1734773
1.1735482
1.1735188
1.1734424
1.1734286
1.17341
1.1733827
1.1733417
1.1733706
1.1733904
1.1734052
1.1734878
1.1734549
1.1733652
1.1733493
1.1733282
1.1732975
1.1732497
1.1732824
1.173305
1.1733222
1.1734198
1.1733825
1.1732758
1.1732572
1.1732328
1.1731978
1.1731415
1.173179
1.1732053
1.1732256
1.1733426
1.1732999
1.1731711
1.1731488
1.1731203
1.1730799
1.1730126
1.1730563
1.1730873
1.1731117
1.173254
1.1732046
1.173047
1.1730201
1.1729862
1.1729387
1.1728576
1.1729093
1.1729464
1.1729761
1.1731514
1.1730938
1.1728985
1.1728655
1.1728247
1.1727682
1.1726696
1.1727315
1.1727765
1.1728132
1.1730314
1.1729635
1.1727192
1.1726783
1.1726285
1.1725604
1.1724395
1.1725146
1.1725698
1.1726154
1.1728894
1.1728083
1.1725007
1.1724496
1.1723884
1.1723054
1.1721563
1.1722482
1.1723164
1.1723736
1.1727191
1.1726208
1.1722324
1.1721682
1.1720922
1.1719904
1.1718057
1.1719186
1.1720033
1.1720753
1.1725119
1.1723906
1.1719003
1.1718196
1.1717252
1.1716
1.1713714
1.1715099
1.171615
1.1717052
1.1722549
1.172102
1.1714876
1.1713869
1.1712704
1.1711175
1.1708361
1.1710039
1.1711325
1.1712444
1.1719274
1.1717265
1.1709725
1.1708492
1.1707086
1.1705268
1.1701963
1.1703884
1.1705406
1.1706753
1.1714979
1.1712248
1.1703447
1.1701993
1.1700358
1.1698298
1.1694064
1.169616
1.1697853
1.169938
1.1708527
1.1704785
1.1695381
1.1693824
1.1692177
1.169028
1.16903
1.1691642
1.1693148
1.1694707
1.1704495
1.1696665
1.1688324
1.1687038
1.1685901
1.1685188
1.1647823
1.1649451
1.1650655
1.165221
1.1667356
1.1692612
1.1667542
1.1664213
1.1660902
1.165647
1.1718073
1.1719642
1.1720046
1.1720195
1.1722237
1.173417
1.1712474
1.1710109
1.1708062
1.1704195
1.1774381
1.1778023
1.1780522
1.1782496
1.178303