/*--------------------------------*- C++ -*----------------------------------*\
  =========                 |
  \\      /  F ield         | OpenFOAM: The Open Source CFD Toolbox
   \\    /   O peration     | Website:  https://openfoam.org
    \\  /    A nd           | Version:  7
     \\/     M anipulation  |
\*---------------------------------------------------------------------------*/
FoamFile
{
    version     2.0;
    format      ascii;
    class       volScalarField;
    location    "350";
    object      T;
}
// * * * * * * * * * * * * * * * * * * * * * * * * * * * * * * * * * * * * * //

dimensions      [0 0 0 1 0 0 0];

internalField   nonuniform List<scalar> 
24789
(
300.14888
300.13955
300.13283
300.12744
300.10042
300.10405
300.13229
300.1379
300.14487
300.15452
300.16045
300.15045
300.14321
300.13734
300.10774
300.11148
300.14258
300.14873
300.15628
300.16666
300.17321
300.16239
300.1545
300.14804
300.11528
300.11911
300.15372
300.16053
300.1688
300.1801
300.18737
300.17553
300.16684
300.15964
300.12298
300.12688
300.16582
300.17345
300.18262
300.19505
300.20321
300.1901
300.18041
300.1723
300.13081
300.13476
300.17907
300.18771
300.19799
300.21184
300.22098
300.20631
300.19537
300.18614
300.1387
300.14264
300.19355
300.20343
300.2151
300.23068
300.24103
300.22441
300.21194
300.20132
300.14655
300.15042
300.20948
300.22092
300.2343
300.25208
300.26393
300.24485
300.23043
300.21809
300.15422
300.15793
300.22718
300.24055
300.25612
300.27669
300.2905
300.26823
300.25135
300.23682
300.16151
300.16489
300.24705
300.26289
300.28126
300.30547
300.32172
300.29531
300.27524
300.25791
300.168
300.17074
300.26941
300.28842
300.31041
300.33933
300.3583
300.32656
300.3024
300.28149
300.17297
300.17448
300.29403
300.31705
300.34362
300.37849
300.39962
300.36133
300.33211
300.30675
300.17505
300.17432
300.31917
300.34705
300.37912
300.42105
300.44172
300.39602
300.36098
300.33046
300.17177
300.16668
300.3393
300.37249
300.41048
300.45985
300.47291
300.42032
300.37961
300.34392
300.15815
300.14469
300.34137
300.3791
300.42189
300.47656
300.46262
300.40861
300.36541
300.32672
300.1234
300.09313
300.29801
300.33588
300.37581
300.42189
300.3434
300.3184
300.28673
300.2527
300.0588
299.9804
300.12017
300.14448
300.16502
300.16725
299.78425
299.78763
299.78591
299.78387
299.77958
299.66402
299.64532
299.64318
299.64387
299.64779
299.67536
299.66535
299.66016
299.65693
299.64241
299.60493
299.56994
299.56465
299.56275
299.5632
299.57069
299.56234
299.56665
299.57377
299.5986
299.60756
299.57591
299.57132
299.572
299.58738
299.66393
299.64279
299.63776
299.63913
299.64939
299.6801
299.66548
299.66493
299.66794
299.67545
299.9065
299.89829
299.88551
299.87308
299.80231
299.97897
300.16014
300.18731
300.21115
300.22269
300.37707
300.34864
300.3158
300.2815
300.05663
300.08983
300.32751
300.3653
300.405
300.45015
300.49078
300.43914
300.39659
300.35789
300.12024
300.14243
300.37448
300.41258
300.45532
300.50922
300.50533
300.45507
300.41433
300.37798
300.15636
300.16522
300.37371
300.40794
300.44656
300.49537
300.47966
300.43319
300.39688
300.36491
300.17069
300.17357
300.35335
300.38297
300.41673
300.46003
300.43889
300.39877
300.36755
300.34023
300.17453
300.17412
300.32646
300.35158
300.38036
300.41743
300.3964
300.3622
300.33569
300.3126
300.17267
300.17048
300.29902
300.32024
300.34464
300.37618
300.35704
300.32793
300.30544
300.28592
300.16775
300.16464
300.27341
300.29139
300.31214
300.33903
300.32222
300.29731
300.27812
300.26153
300.16125
300.15767
300.25029
300.26562
300.28339
300.30651
300.29186
300.27034
300.25383
300.23963
300.15395
300.15014
300.22954
300.24272
300.25808
300.27815
300.26532
300.24654
300.23221
300.21997
300.14626
300.14235
300.21086
300.22227
300.23566
300.25326
300.24193
300.22539
300.21284
300.20221
300.13841
300.13446
300.19397
300.20391
300.21568
300.23126
300.2212
300.2065
300.19542
300.18612
300.13051
300.12658
300.17865
300.18738
300.19782
300.21172
300.20283
300.18965
300.1798
300.17158
300.12269
300.11882
300.16486
300.17261
300.18196
300.19448
300.18661
300.17467
300.16578
300.15845
300.11499
300.1112
300.15235
300.1593
300.16777
300.1792
300.17219
300.16124
300.15315
300.14653
300.10746
300.10379
300.14098
300.14729
300.15506
300.16559
300.15939
300.14925
300.14178
300.13573
300.10018
300.10313
300.13992
300.14617
300.15385
300.16427
300.17075
300.15992
300.15191
300.14537
300.10676
300.11042
300.15106
300.15793
300.1663
300.1776
300.18487
300.17306
300.16428
300.15704
300.11413
300.11789
300.16331
300.17095
300.18018
300.19256
300.20072
300.18771
300.17798
300.16988
300.12167
300.12547
300.17678
300.18538
300.19567
300.20939
300.21863
300.20413
300.19322
300.18406
300.1293
300.13314
300.19171
300.20149
300.21309
300.22845
300.23884
300.22254
300.2102
300.19974
300.13698
300.1408
300.20817
300.21937
300.23255
300.24989
300.26165
300.24316
300.22906
300.21703
300.14459
300.14834
300.22636
300.2393
300.25441
300.27417
300.28756
300.26638
300.25015
300.2362
300.15201
300.15558
300.24659
300.26164
300.27912
300.30189
300.31725
300.29272
300.27385
300.25756
300.159
300.16222
300.26914
300.2868
300.3072
300.33369
300.35127
300.32261
300.3005
300.28133
300.16516
300.1677
300.29406
300.3149
300.33889
300.36993
300.38959
300.35594
300.32991
300.30723
300.1697
300.17095
300.32062
300.34528
300.37353
300.40996
300.43065
300.39126
300.36064
300.33385
300.17116
300.17
300.34638
300.37538
300.40847
300.45094
300.46957
300.42408
300.38856
300.3573
300.16693
300.16125
300.3654
300.39882
300.4365
300.48399
300.49287
300.44406
300.40438
300.36894
300.15214
300.13815
300.36474
300.40181
300.44333
300.49567
300.47552
300.4261
300.38502
300.3475
300.11584
300.08416
300.31544
300.35186
300.38972
300.43239
300.35685
300.33127
300.30121
300.26847
300.04866
299.97739
300.15679
300.18308
300.20479
300.20983
299.89832
299.89157
299.87807
299.86608
299.80415
299.61952
299.54092
299.53154
299.52842
299.53955
299.77099
299.74181
299.72815
299.7204
299.66829
299.6805
299.76242
299.77373
299.78844
299.81259
299.55745
299.54765
299.552
299.56238
299.62245
299.71112
299.84413
299.86756
299.89743
299.9392
299.74813
299.71099
299.69655
299.6903
299.65521
299.61379
299.5315
299.5206
299.51549
299.52178
299.85977
299.85907
299.8514
299.84416
299.81185
299.9954
300.14963
300.17546
300.19721
300.20088
300.36003
300.32986
300.29699
300.26236
300.06149
300.09339
300.30329
300.34176
300.38309
300.43266
300.47163
300.41374
300.36929
300.33029
300.12408
300.14563
300.34278
300.38012
300.42286
300.47753
300.47061
300.41867
300.37865
300.34375
300.15911
300.16794
300.3384
300.37058
300.40758
300.45592
300.43716
300.39276
300.35885
300.3294
300.17329
300.17602
300.31834
300.34516
300.37607
300.41656
300.39569
300.35883
300.33071
300.30632
300.17681
300.17621
300.29406
300.31623
300.3418
300.37533
300.35598
300.32542
300.30212
300.28193
300.17459
300.17224
300.27019
300.28861
300.30988
300.33779
300.32089
300.29531
300.27582
300.25897
300.16936
300.16612
300.24833
300.26379
300.28169
300.30521
300.29072
300.26901
300.2525
300.23826
300.16261
300.15893
300.22874
300.24188
300.25716
300.27729
300.26483
300.24609
300.2319
300.21972
300.15513
300.15125
300.21117
300.22248
300.2357
300.25321
300.24235
300.22593
300.21357
300.20304
300.14732
300.14336
300.19528
300.20512
300.2167
300.23214
300.22254
300.20797
300.19708
300.18788
300.13938
300.1354
300.18079
300.18942
300.19968
300.21346
300.20486
300.19179
300.1821
300.17398
300.13143
300.12749
300.16749
300.17514
300.18432
300.19674
300.18907
300.17723
300.16851
300.16129
300.12357
300.11969
300.15533
300.16218
300.17048
300.1818
300.1749
300.16405
300.15611
300.14961
300.11585
300.11205
300.14412
300.15031
300.15791
300.16834
300.1621
300.15206
300.14477
300.13885
300.10831
300.10461
300.13378
300.13945
300.14647
300.15617
300.15327
300.14369
300.13679
300.13122
300.10329
300.10692
300.13619
300.142
300.14918
300.1591
300.16522
300.15492
300.14744
300.14135
300.1106
300.11434
300.14672
300.15312
300.16093
300.17167
300.17846
300.16725
300.15906
300.15232
300.11812
300.12193
300.15815
300.16527
300.17388
300.18562
300.19319
300.18086
300.17178
300.16423
300.12576
300.12961
300.17058
300.1786
300.1882
300.20119
300.20968
300.19595
300.18578
300.17723
300.13349
300.13735
300.18417
300.19329
300.20411
300.21865
300.22817
300.21273
300.20119
300.19142
300.1412
300.14502
300.19902
300.20951
300.22185
300.23831
300.24914
300.23154
300.2183
300.207
300.14879
300.15249
300.2154
300.2276
300.24184
300.26073
300.27322
300.25286
300.23748
300.22427
300.15609
300.15955
300.23366
300.248
300.26467
300.2867
300.30131
300.27737
300.25923
300.24361
300.16281
300.1658
300.25415
300.27123
300.29103
300.31714
300.33428
300.30571
300.28402
300.26529
300.16841
300.17051
300.27698
300.29756
300.32137
300.3527
300.3723
300.33789
300.31172
300.28907
300.17191
300.17237
300.30131
300.32623
300.35499
300.39274
300.41341
300.3721
300.34057
300.3132
300.17156
300.169
300.32391
300.35383
300.38823
300.4332
300.45037
300.40184
300.3646
300.33213
300.16393
300.15549
300.33605
300.37089
300.41072
300.46233
300.46487
300.41128
300.36953
300.33281
300.14224
300.12137
300.31739
300.35489
300.39693
300.4498
300.40763
300.36231
300.32362
300.28718
300.09122
300.05634
300.24078
300.27314
300.30339
300.32831
300.15807
300.15637
300.13737
300.11439
299.97965
299.77664
299.78266
299.7847
299.78677
299.78422
299.55451
299.54925
299.55352
299.56285
299.63079
299.6545
299.68038
299.68517
299.69356
299.70815
299.62481
299.62078
299.6195
299.62183
299.62728
299.59432
299.5416
299.52839
299.51763
299.52603
299.62624
299.5437
299.52052
299.49858
299.47581
299.78916
299.77913
299.76054
299.74442
299.67275
299.69496
299.72328
299.72613
299.72605
299.71013
299.83426
299.81803
299.80086
299.78616
299.69797
299.70169
299.79325
299.80838
299.82897
299.86621
299.67628
299.65096
299.64462
299.64503
299.64855
299.63518
299.57113
299.56231
299.55797
299.56178
299.84809
299.85218
299.84791
299.84226
299.81406
299.99366
300.1373
300.16085
300.17961
300.17941
300.33623
300.31197
300.28223
300.25024
300.06275
300.09488
300.2921
300.32786
300.36562
300.40935
300.44752
300.3969
300.35631
300.31995
300.1253
300.14677
300.33392
300.36908
300.40892
300.4598
300.45603
300.40737
300.36966
300.33653
300.16019
300.16889
300.33262
300.36335
300.39845
300.44394
300.42749
300.38546
300.35311
300.32483
300.17417
300.17685
300.31479
300.34066
300.37032
300.4089
300.3897
300.35436
300.32724
300.3036
300.1776
300.17696
300.29201
300.31359
300.33837
300.3707
300.35245
300.32284
300.30016
300.28045
300.1753
300.17292
300.26917
300.28722
300.308
300.33516
300.31898
300.29399
300.27488
300.25832
300.17001
300.16673
300.24796
300.2632
300.28081
300.30388
300.28984
300.26847
300.25218
300.2381
300.16319
300.15948
300.22875
300.24178
300.25689
300.27676
300.26457
300.24603
300.23196
300.21987
300.15565
300.15174
300.21141
300.22266
300.23579
300.25316
300.24244
300.22613
300.21383
300.20333
300.14777
300.14379
300.19562
300.20543
300.21698
300.23234
300.22282
300.2083
300.19743
300.18824
300.13978
300.13578
300.18116
300.18978
300.20004
300.21379
300.20522
300.19217
300.18248
300.17436
300.13177
300.12781
300.16786
300.17551
300.1847
300.19711
300.18945
300.17761
300.16888
300.16165
300.12387
300.11997
300.15569
300.16254
300.17086
300.18219
300.17528
300.16442
300.15647
300.14995
300.11611
300.11229
300.14445
300.15066
300.15827
300.16871
300.16246
300.1524
300.14509
300.13917
300.10854
300.10481
300.13407
300.13975
300.14679
300.15651
300.16535
300.15486
300.14711
300.14081
300.10371
300.10738
300.14633
300.15294
300.16101
300.17193
300.17889
300.1675
300.15905
300.15212
300.11109
300.11485
300.15818
300.1655
300.17436
300.18627
300.1941
300.18161
300.17229
300.16456
300.11866
300.1225
300.17124
300.17943
300.18926
300.2024
300.21126
300.19739
300.18699
300.17828
300.12637
300.13028
300.18571
300.19499
300.20603
300.2207
300.23074
300.21519
300.20345
300.19354
300.1342
300.13812
300.20175
300.21236
300.22487
300.24138
300.25271
300.23513
300.22177
300.21039
300.14203
300.14593
300.21948
300.23171
300.24602
300.26477
300.27764
300.25758
300.24223
300.22907
300.14978
300.15358
300.23919
300.25338
300.26988
300.29139
300.30611
300.28298
300.26521
300.24988
300.15728
300.16085
300.26117
300.27776
300.29696
300.32188
300.33879
300.31187
300.2911
300.2731
300.16423
300.16733
300.28566
300.30521
300.32772
300.35686
300.37608
300.3445
300.32007
300.29881
300.17005
300.17223
300.31244
300.33557
300.3621
300.39632
300.41736
300.38029
300.35148
300.32631
300.17367
300.17408
300.34007
300.36742
300.39864
300.43873
300.4597
300.4165
300.38276
300.35313
300.17311
300.17024
300.36457
300.3965
300.4327
300.47892
300.49383
300.44565
300.40727
300.37314
300.16475
300.15589
300.37708
300.41325
300.45362
300.50297
300.5058
300.45301
300.41084
300.37305
300.14198
300.11994
300.35571
300.39385
300.43537
300.48487
300.44103
300.39865
300.36048
300.32355
300.08899
300.05468
300.27524
300.30837
300.33914
300.36435
300.21128
300.20421
300.1818
300.1556
299.97942
299.80088
299.86193
299.87263
299.88377
299.89069
299.61937
299.60864
299.60869
299.61345
299.6606
299.65073
299.63747
299.6383
299.64721
299.67432
299.64625
299.62167
299.61833
299.62098
299.63756
299.65244
299.72953
299.74144
299.75668
299.78248
299.49477
299.51068
299.52439
299.53927
299.62013
299.64292
299.63041
299.62999
299.63173
299.6378
299.64334
299.63816
299.6383
299.64146
299.66055
299.77004
299.77039
299.77117
299.77095
299.76595
300.16325
300.16156
300.14051
300.11625
299.9767
300.05778
300.25132
300.28532
300.31679
300.34149
300.42269
300.37672
300.3368
300.29889
300.09351
300.12376
300.32867
300.36764
300.41111
300.46532
300.48006
300.42486
300.38162
300.3435
300.14483
300.15816
300.34596
300.38207
300.42328
300.47653
300.46328
300.41324
300.37475
300.34116
300.16662
300.17168
300.33208
300.36296
300.39844
300.44475
300.42366
300.38118
300.34872
300.32053
300.17419
300.17491
300.30787
300.33348
300.36303
300.40177
300.38026
300.34501
300.31817
300.29492
300.17435
300.17283
300.2822
300.30328
300.32765
300.3597
300.34044
300.31127
300.2891
300.26995
300.1706
300.16786
300.25831
300.27575
300.29596
300.32257
300.30612
300.28175
300.26326
300.24733
300.16475
300.16137
300.237
300.2516
300.26856
300.29095
300.277
300.25633
300.2407
300.22728
300.15779
300.15408
300.21811
300.23049
300.24495
300.2641
300.25215
300.23433
300.22091
300.20945
300.15028
300.14642
300.20125
300.21188
300.22437
300.24102
300.23062
300.21502
300.20335
300.19345
300.14251
300.13859
300.18603
300.19526
300.2062
300.22087
300.21172
300.19787
300.18759
300.17895
300.13466
300.13072
300.17218
300.18028
300.18997
300.20307
300.19492
300.18249
300.17333
300.16571
300.1268
300.12291
300.15954
300.16673
300.17541
300.18724
300.17998
300.16869
300.16043
300.15362
300.11905
300.11523
300.14795
300.1544
300.16229
300.1731
300.16657
300.15619
300.14865
300.1425
300.11144
300.10771
300.13727
300.14314
300.15037
300.16037
300.15444
300.14479
300.13783
300.13222
300.10402
300.10328
300.13108
300.13661
300.14348
300.15301
300.15879
300.14893
300.14179
300.13601
300.10691
300.11058
300.14112
300.14717
300.1546
300.16483
300.17118
300.16054
300.15279
300.14644
300.1143
300.11805
300.15196
300.15864
300.16675
300.17785
300.18487
300.17326
300.16475
300.15771
300.12184
300.12565
300.16368
300.17113
300.18009
300.19226
300.20006
300.18727
300.17782
300.16991
300.12948
300.13332
300.17641
300.18481
300.19482
300.20829
300.21697
300.20273
300.19212
300.18317
300.13715
300.14097
300.19023
300.19979
300.21107
300.22616
300.23591
300.21987
300.20784
300.19759
300.14474
300.14847
300.20531
300.2163
300.22917
300.24627
300.25734
300.23904
300.22523
300.2134
300.15212
300.15567
300.22191
300.23469
300.24955
300.26921
300.28199
300.26079
300.24472
300.23088
300.15907
300.16227
300.24035
300.25539
300.27282
300.29577
300.31066
300.2857
300.26674
300.25034
300.16518
300.1677
300.26087
300.27879
300.2995
300.32672
300.34394
300.31418
300.29151
300.27185
300.16971
300.17099
300.28318
300.30476
300.32961
300.3622
300.38122
300.34554
300.31828
300.29458
300.17132
300.17037
300.30562
300.33161
300.36146
300.40044
300.41886
300.37646
300.34391
300.31551
300.16763
300.16239
300.32303
300.35387
300.38911
300.43486
300.4461
300.39735
300.35961
300.32647
300.15379
300.14047
300.32309
300.35811
300.39782
300.44868
300.43513
300.38425
300.34393
300.30795
300.1194
300.08868
300.27858
300.31388
300.35157
300.39673
300.3249
300.29763
300.26721
300.23498
300.05195
299.97568
300.11991
300.14514
300.16715
300.17064
299.81709
299.81528
299.80974
299.80421
299.78064
299.60692
299.53958
299.52982
299.52485
299.52968
299.75594
299.73834
299.72574
299.71622
299.66146
299.66831
299.71616
299.72327
299.73165
299.73552
299.72416
299.77038
299.72808
299.61153
299.53357
299.52341
299.51917
299.52634
299.72652
299.69049
299.67832
299.67432
299.64495
299.54551
299.54697
299.55557
299.56986
299.62744
299.66973
299.6608
299.65732
299.65258
299.64181
299.64807
299.66947
299.67526
299.67641
299.66979
299.67654
299.76046
299.78326
299.81684
299.87207
299.7203
299.7144
299.77776
299.76281
299.99353
299.99508
299.98915
299.9935
299.99324
299.98898
299.98974
299.99287
300.15615
300.14645
300.13941
300.13374
300.10448
300.10821
300.13884
300.14477
300.15208
300.16213
300.1684
300.15796
300.15035
300.14414
300.11198
300.11582
300.14967
300.15618
300.16413
300.17498
300.18192
300.17059
300.16228
300.15542
300.1197
300.12363
300.16141
300.16864
300.17736
300.18919
300.19687
300.18446
300.17528
300.16764
300.12759
300.13158
300.17413
300.18224
300.19192
300.20496
300.21352
300.19979
300.18955
300.18094
300.1356
300.13964
300.18801
300.19718
300.20802
300.22251
300.23197
300.21666
300.20515
300.19537
300.14366
300.14767
300.20303
300.21348
300.22572
300.24196
300.25252
300.23527
300.22221
300.21102
300.15164
300.15556
300.21936
300.23137
300.24533
300.26372
300.27564
300.25598
300.24101
300.2281
300.15939
300.1631
300.23724
300.25115
300.26725
300.28834
300.30194
300.27923
300.26187
300.24683
300.16662
300.16989
300.25686
300.27316
300.29193
300.31646
300.33199
300.3054
300.28503
300.26732
300.17278
300.17514
300.27812
300.29741
300.31957
300.34846
300.36579
300.33433
300.31018
300.28913
300.17676
300.17736
300.30007
300.32307
300.34941
300.38368
300.40166
300.36435
300.33563
300.31053
300.17658
300.17389
300.31973
300.34707
300.3783
300.41878
300.43359
300.38994
300.35618
300.32657
300.16863
300.16005
300.3294
300.36117
300.39728
300.44377
300.44543
300.39699
300.35903
300.32549
300.14668
300.12521
300.31011
300.34457
300.38294
300.43077
300.39111
300.35113
300.31593
300.28225
300.09581
300.06439
300.24049
300.27038
300.29736
300.31644
300.14512
300.14767
300.1314
300.11048
299.98322
299.79044
299.79427
299.79483
299.79407
299.7874
299.68272
299.67766
299.67589
299.6765
299.68209
299.64498
299.63464
299.63385
299.6388
299.65472
299.68155
299.63225
299.62334
299.62568
299.63321
299.76365
299.77475
299.78389
299.75989
299.94747
299.96879
299.93723
299.90376
299.69016
299.67427
299.70266
299.71127
299.72085
299.72117
299.98603
299.94444
299.90775
299.87435
299.72756
299.74813
299.93615
299.96619
299.99668
300.03074
299.68203
299.63299
299.62416
299.62652
299.63406
299.64597
299.63554
299.63469
299.6395
299.65506
299.68341
299.67858
299.67692
299.67758
299.68322
299.79157
299.79543
299.79596
299.79514
299.78839
300.14634
300.14893
300.13268
300.11179
299.98455
300.06578
300.24201
300.2719
300.29886
300.31788
300.39263
300.35267
300.31747
300.28375
300.0971
300.12646
300.31163
300.34612
300.38451
300.43234
300.44705
300.39858
300.36058
300.327
300.14791
300.16126
300.33089
300.3627
300.39884
300.44536
300.43515
300.39146
300.35767
300.328
300.16979
300.17501
300.32112
300.3485
300.37976
300.42029
300.4031
300.36574
300.33698
300.31183
300.17764
300.17838
300.30132
300.32435
300.35073
300.38504
300.36707
300.33557
300.31139
300.2903
300.17773
300.17606
300.27922
300.29855
300.32073
300.34966
300.33313
300.3065
300.2861
300.26836
300.17365
300.17072
300.25785
300.27418
300.29298
300.31755
300.30297
300.28023
300.26284
300.24777
300.16741
300.16385
300.23815
300.25209
300.26821
300.28934
300.27661
300.25691
300.24191
300.22897
300.16011
300.15625
300.22022
300.23225
300.24625
300.26467
300.25346
300.23617
300.22307
300.21185
300.15231
300.14831
300.20384
300.21433
300.2266
300.24288
300.23287
300.21752
300.20597
300.19616
300.14427
300.14022
300.18878
300.19799
300.20887
300.22339
300.21439
300.20062
300.19035
300.1817
300.13617
300.13213
300.17487
300.18302
300.19274
300.20582
300.19769
300.18524
300.17602
300.16834
300.12812
300.12414
300.16209
300.16935
300.17811
300.18999
300.18268
300.17132
300.16297
300.15608
300.12019
300.11629
300.1503
300.15684
300.16482
300.17573
300.1691
300.15862
300.15098
300.14474
300.11244
300.10864
300.1394
300.14536
300.1527
300.1628
300.15679
300.14704
300.13997
300.13428
300.10491
300.10124
300.12938
300.13485
300.14167
300.15111
300.10308
300.13109
300.13666
300.14358
300.15317
300.15904
300.1491
300.14191
300.13609
300.10674
300.11044
300.14128
300.14738
300.15487
300.16518
300.17166
300.16091
300.15309
300.14668
300.1142
300.118
300.15231
300.15906
300.16727
300.17849
300.18571
300.17395
300.16533
300.15819
300.12183
300.1257
300.16433
300.17189
300.18099
300.19335
300.20146
300.18843
300.1788
300.17076
300.12959
300.1335
300.17749
300.18607
300.19629
300.21006
300.21919
300.20459
300.19371
300.18454
300.1374
300.1413
300.19193
300.20176
300.21337
300.2289
300.23927
300.2227
300.21027
300.1997
300.14517
300.14901
300.20787
300.21927
300.23262
300.25037
300.26229
300.24321
300.22882
300.2165
300.15278
300.15645
300.22561
300.23897
300.25454
300.27512
300.28903
300.26672
300.24982
300.23529
300.15998
300.16331
300.24555
300.26142
300.27983
300.3041
300.32048
300.29396
300.27383
300.25646
300.16636
300.16904
300.26799
300.28707
300.30915
300.33821
300.35731
300.32539
300.30112
300.28012
300.17118
300.17261
300.29269
300.31583
300.34255
300.37764
300.39889
300.36034
300.33094
300.30544
300.17308
300.17226
300.31787
300.3459
300.37818
300.42041
300.44111
300.39509
300.35983
300.32914
300.16962
300.16445
300.33789
300.37124
300.40945
300.45911
300.47177
300.41899
300.37812
300.3423
300.15586
300.14242
300.33939
300.37714
300.41994
300.47455
300.459
300.40549
300.36255
300.32403
300.12122
300.09088
300.29361
300.33097
300.37024
300.41537
300.33311
300.30932
300.27862
300.24526
300.05477
299.97375
300.10931
300.1327
300.15273
300.15338
299.75304
299.76026
299.76179
299.76207
299.76678
299.65454
299.62948
299.62503
299.62334
299.62657
299.62335
299.61944
299.61935
299.62092
299.63865
299.6143
299.52913
299.51336
299.49852
299.47848
299.75603
299.73468
299.72244
299.71277
299.6447
299.63153
299.60278
299.59805
299.59873
299.61939
299.82797
299.79524
299.77881
299.76721
299.69206
299.70292
299.82235
299.84247
299.86887
299.90596
299.79962
299.77795
299.76444
299.75391
299.67713
299.66658
299.71189
299.71855
299.72637
299.72951
299.64372
299.63649
299.63296
299.63322
299.62959
299.61434
299.54821
299.54003
299.53765
299.54719
299.74875
299.70905
299.69403
299.68768
299.64817
299.65527
299.65389
299.65651
299.66623
299.69334
299.70091
299.68843
299.68287
299.68177
299.68388
299.78945
299.79863
299.80061
299.80243
299.80164
300.15796
300.1577
300.13954
300.11732
299.98439
300.06538
300.24609
300.27683
300.30454
300.32539
300.39765
300.35646
300.32044
300.28613
300.09671
300.12637
300.31346
300.34838
300.38732
300.43595
300.44957
300.40058
300.36223
300.32835
300.14787
300.16123
300.33183
300.36383
300.40022
300.44708
300.43633
300.39241
300.35845
300.32866
300.16975
300.17494
300.32157
300.34905
300.38044
300.42112
300.4037
300.36623
300.33738
300.31215
300.17752
300.17821
300.30152
300.32462
300.35107
300.38548
300.3674
300.33581
300.31156
300.29041
300.17751
300.1758
300.27926
300.29864
300.32088
300.34989
300.33327
300.30658
300.28612
300.26833
300.17337
300.17041
300.25776
300.27413
300.29298
300.31761
300.30298
300.28017
300.26274
300.24764
300.16709
300.16352
300.23798
300.25195
300.26811
300.28928
300.2765
300.25676
300.24173
300.22876
300.15976
300.1559
300.21998
300.23203
300.24605
300.26451
300.25326
300.23594
300.22283
300.21159
300.15195
300.14795
300.20356
300.21405
300.22635
300.24265
300.23262
300.21724
300.20569
300.19586
300.14392
300.13988
300.18848
300.19769
300.20858
300.22312
300.21411
300.20032
300.19004
300.18139
300.13584
300.1318
300.17456
300.18271
300.19243
300.20552
300.19738
300.18492
300.1757
300.16802
300.12779
300.12382
300.16177
300.16903
300.17779
300.18967
300.18236
300.171
300.16265
300.15576
300.11989
300.11599
300.14998
300.15653
300.1645
300.17541
300.16878
300.15831
300.15067
300.14444
300.11215
300.10836
300.1391
300.14505
300.15239
300.16248
300.15646
300.14671
300.13965
300.13396
300.10463
300.10095
300.12899
300.13445
300.14126
300.15069
300.10447
300.13371
300.13939
300.14643
300.15614
300.16212
300.15206
300.14475
300.13882
300.1082
300.11196
300.14412
300.15033
300.15794
300.16838
300.17497
300.16411
300.15616
300.14964
300.11578
300.11966
300.15538
300.16224
300.17056
300.18188
300.18916
300.17732
300.1686
300.16136
300.12358
300.12753
300.16758
300.17523
300.1844
300.19681
300.2049
300.19186
300.18218
300.17407
300.13151
300.13553
300.18086
300.18947
300.1997
300.21343
300.22239
300.20791
300.19708
300.18791
300.13955
300.14356
300.19524
300.20501
300.21651
300.23181
300.24177
300.22555
300.21332
300.20287
300.14756
300.15152
300.21083
300.22201
300.23505
300.25228
300.26342
300.24506
300.23112
300.21914
300.15543
300.15925
300.22782
300.24071
300.25564
300.27526
300.28789
300.26685
300.2508
300.23691
300.16294
300.16645
300.24644
300.26144
300.27874
300.30138
300.3158
300.29136
300.27265
300.25641
300.16971
300.1726
300.26679
300.28443
300.30471
300.33117
300.34748
300.31874
300.2967
300.2775
300.17495
300.17658
300.2884
300.30934
300.33334
300.36459
300.38225
300.34823
300.32206
300.29921
300.17719
300.17641
300.30952
300.33445
300.36295
300.39995
300.4168
300.37666
300.34569
300.31856
300.17373
300.16845
300.32523
300.35461
300.38808
300.43133
300.44134
300.39525
300.35945
300.32792
300.15982
300.1464
300.32394
300.35723
300.39489
300.44292
300.42827
300.38077
300.34267
300.30845
300.12478
300.09499
300.28038
300.31388
300.34886
300.38874
300.31514
300.29565
300.26883
300.23895
300.06299
299.98186
300.11
300.13123
300.14815
300.14635
299.7878
299.79124
299.79107
299.79033
299.78696
299.68137
299.67202
299.67161
299.67543
299.68611
299.675
299.65112
299.64363
299.64281
299.65281
299.66222
299.64479
299.64338
299.64539
299.65585
299.67003
299.66107
299.65831
299.65882
299.67375
299.79346
299.83945
299.84777
299.85659
299.86193
300.20145
300.19359
300.17194
300.14652
299.97569
300.05443
300.27548
300.30892
300.34029
300.36484
300.44286
300.39987
300.36115
300.32386
300.08829
300.11898
300.35588
300.39439
300.43657
300.48732
300.50865
300.45456
300.41172
300.37353
300.14113
300.15497
300.37771
300.41427
300.45527
300.50576
300.49649
300.4473
300.40833
300.37381
300.16375
300.16916
300.36521
300.39752
300.43426
300.48137
300.46192
300.41794
300.38369
300.3537
300.17197
300.17291
300.34057
300.36825
300.39993
300.4407
300.41913
300.38143
300.35221
300.32673
300.17249
300.17108
300.31278
300.33619
300.3631
300.39787
300.37744
300.34537
300.3206
300.29908
300.16893
300.16625
300.28586
300.30564
300.32845
300.35802
300.33979
300.31248
300.29143
300.27322
300.16319
300.15987
300.26123
300.27802
300.29745
300.32272
300.3068
300.28336
300.26537
300.24987
300.15634
300.15268
300.23913
300.25346
300.27015
300.29193
300.27804
300.25775
300.24223
300.22895
300.14893
300.14511
300.2193
300.23163
300.24608
300.26504
300.25285
300.2351
300.22161
300.21013
300.14125
300.13736
300.20143
300.21212
300.22474
300.2414
300.23064
300.21497
300.20314
300.19316
300.13346
300.12955
300.18528
300.19461
300.20572
300.22049
300.21096
300.19701
300.18655
300.17781
300.12568
300.12183
300.17073
300.17895
300.18883
300.20204
300.19365
300.1811
300.17175
300.164
300.118
300.11421
300.1576
300.16492
300.17381
300.18576
300.17833
300.16691
300.15845
300.15151
300.11046
300.10678
300.14572
300.15232
300.16041
300.17135
300.16474
300.15423
300.14649
300.14019
300.10312
300.10313
300.14017
300.14646
300.15419
300.16467
300.17125
300.16035
300.15228
300.1457
300.10681
300.11052
300.15147
300.1584
300.16683
300.1782
300.18559
300.17369
300.16484
300.15755
300.11429
300.1181
300.16393
300.17164
300.18095
300.19343
300.20176
300.18863
300.17881
300.17063
300.12195
300.12582
300.17768
300.18637
300.19677
300.21062
300.22008
300.20542
300.19439
300.18512
300.12973
300.13366
300.19296
300.20287
300.21461
300.23015
300.24083
300.22431
300.2118
300.2012
300.13759
300.14151
300.20986
300.22123
300.2346
300.25218
300.26426
300.2455
300.23119
300.21897
300.1454
300.14926
300.22856
300.24172
300.25706
300.27713
300.29087
300.26935
300.25285
300.23867
300.15306
300.15676
300.24933
300.26466
300.28243
300.30555
300.32129
300.29637
300.27718
300.26059
300.16032
300.16368
300.27248
300.29046
300.31122
300.33814
300.35617
300.32703
300.30453
300.285
300.16677
300.16947
300.2981
300.31934
300.34376
300.37533
300.39557
300.36133
300.33479
300.31168
300.17162
300.17303
300.32553
300.35069
300.3795
300.41662
300.43809
300.39791
300.36665
300.33929
300.17342
300.17243
300.35242
300.38208
300.41589
300.45926
300.47891
300.43237
300.396
300.36399
300.16952
300.16402
300.3728
300.40709
300.44578
300.4947
300.50471
300.45434
300.41353
300.37712
300.15514
300.14121
300.37368
300.41185
300.45468
300.50869
300.49045
300.43864
300.39597
300.35718
300.11902
300.08863
300.32694
300.36485
300.40469
300.45006
300.37727
300.34852
300.31546
300.28102
300.05544
299.97771
300.1596
300.18697
300.21118
300.22324
299.90722
299.89858
299.88526
299.87259
299.80125
299.67898
299.66539
299.66465
299.66678
299.67346
299.66699
299.6448
299.63899
299.63992
299.64832
299.6065
299.57593
299.57161
299.57268
299.5886
299.57271
299.56341
299.56696