/*--------------------------------*- C++ -*----------------------------------*\
  =========                 |
  \\      /  F ield         | OpenFOAM: The Open Source CFD Toolbox
   \\    /   O peration     | Website:  https://openfoam.org
    \\  /    A nd           | Version:  7
     \\/     M anipulation  |
\*---------------------------------------------------------------------------*/
FoamFile
{
    version     2.0;
    format      ascii;
    class       volScalarField;
    location    "370";
    object      alphat;
}
// * * * * * * * * * * * * * * * * * * * * * * * * * * * * * * * * * * * * * //

dimensions      [1 -1 -1 0 0 0 0];

internalField   nonuniform List<scalar> 
24866
(
9.3761677
9.3841774
9.3804485
9.6000786
9.793261
9.7907044
9.7859374
9.7909423
9.7900841
9.7843752
9.784681
9.784724
9.7844027
9.7901239
9.7910397
9.78592
9.7904991
9.7920184
9.7910068
9.7856934
9.7738996
9.7908181
9.8265941
9.8117928
9.7815915
9.7769551
9.7861691
9.8143611
9.8087898
9.7776551
9.7884299
9.7920312
9.7920324
9.7884397
9.7777111
9.8088457
9.8144874
9.7862776
9.7768286
9.7813883
9.8117143
9.8265414
9.7908072
9.7739029
9.7857229
9.7910659
9.7920422
9.7905877
9.7859313
9.7909501
9.7902219
9.7845163
9.7846782
9.7846953
9.7844728
9.7900824
9.7908029
9.785801
9.7906621
9.7933168
9.7978493
9.7940554
9.7978393
9.7939842
9.7866739
9.7898927
9.796736
9.7927655
9.783859
9.7838454
9.783874
9.7838635
9.7928261
9.7967936
9.7899015
9.7865205
9.7933874
9.7966225
9.7924964
9.7938178
9.7876616
9.7786489
9.7767131
9.7893358
9.7936612
9.7998353
9.7817584
9.7771393
9.7861867
9.8003901
9.7935659
9.7880562
9.7868714
9.7878067
9.7858744
9.7827916
9.7857683
9.7845454
9.7887589
9.7859212
9.7833493
9.7829624
9.783016
9.7837629
9.7846003
9.784603
9.7843902
9.7877405
9.7866448
9.7862867
9.7823158
9.7905725
9.7952652
9.7926671
9.7878408
9.7851055
9.7841058
9.7835181
9.7839341
9.7843082
9.784226
9.7836169
9.7840873
9.7831902
9.7826331
9.7833713
9.7857159
9.7828369
9.7820133
9.7822925
9.7833487
9.78438
9.7849937
9.7846931
9.7847973
9.784432
9.7839382
9.7843961
9.7841085
9.7866494
9.7878444
9.7823253
9.7905764
9.7952674
9.6715906
9.6676864
9.5850317
9.5912712
9.5991981
9.5991944
9.5912613
9.5885341
9.5517216
9.6981724
9.7013293
9.5592437
9.5884434
9.5907053
9.5837759
9.5532704
9.5047156
9.5225388
9.5763864
9.5894642
9.5978511
9.5973486
9.5963766
9.5940112
9.5930109
9.5898655
9.5873974
9.5780958
9.5780494
9.5873831
9.5897537
9.5927011
9.5944847
9.5960576
9.5879871
9.5969647
9.6735257
9.6715056
9.5881872
9.5125289
9.5983101
9.6002942
9.5907533
9.7893647
9.7854674
9.7893729
9.7859783
9.7833069
9.7856618
9.7828099
9.7819794
9.7822438
9.7832738
9.7842742
9.7848685
9.7849993
9.7851203
9.7848029
9.7843176
9.7846137
9.7868808
9.7877465
9.7935788
9.7862991
9.5910921
9.6023409
9.6283912
9.6982399
9.5516674
9.5885105
9.3922697
9.3779363
9.3799441
9.3799397
9.3779269
9.3922807
9.35198
9.3511882
9.3738346
9.398496
9.3730393
9.3461656
9.3300214
9.3493926
9.3794746
9.3773515
9.3787812
9.3774123
9.3844509
9.3978765
9.3778028
9.3748557
9.3923816
9.3819948
9.3820639
9.3924894
9.3748274
9.3775068
9.3984093
9.2051001
9.1936241
9.1863453
9.1866202
9.1933142
9.3838353
9.5957585
9.5946151
9.5925082
9.589849
9.5873755
9.5780693
9.578074
9.5875382
9.5895839
9.5931723
9.5940276
9.5966361
9.5972736
9.5980221
9.5894369
9.5764335
9.5225952
9.6616364
9.7153595
9.7003674
9.5533863
9.5839344
9.5908224
9.5882845
9.5589894
9.7013683
9.6361926
9.5593264
9.5557609
9.5107123
9.5886756
9.5835273
9.6210318
9.6665413
9.8004441
9.7862277
9.7771154
9.7880626
9.7936494
9.7878174
9.784616
9.7842411
9.7847043
9.7841034
9.78439
9.7842787
9.7837627
9.782997
9.782534
9.7834206
9.7827965
9.7830001
9.7832818
9.7833617
9.7832093
9.7829873
9.7836374
9.7837847
9.7858918
9.7893306
9.7767248
9.7828213
9.7830448
9.7845794
9.7833781
9.7826537
9.7823076
9.7822553
9.7825399
9.7834203
9.7859716
9.7833163
9.7819942
9.7820314
9.7833916
9.7859543
9.7888039
9.7925295
9.7858056
9.7786873
9.7877113
9.7938629
9.6697858
9.5936502
9.5815745
9.6652527
9.5838286
9.594441
9.5079985
9.3738823
9.3773097
9.3795302
9.3494417
9.3300563
9.5048925
9.5355162
9.5474361
9.6070268
9.6165218
9.6285296
9.5864751
9.5081425
9.5508928
9.3544328
9.3461964
9.3730586
9.3985208
9.3738151
9.3511842
9.3520017
9.1709889
9.1990447
9.1871248
9.1860045
9.1860007
9.187119
9.199057
9.1709761
9.165092
9.1815868
9.2080648
9.1810615
9.158516
9.1561852
9.178313
9.1901828
9.1862304
9.1845854
9.1836615
9.1938082
9.204592
9.1877079
9.1845007
9.2037284
9.1974589
9.1974194
9.2037505
9.184536
9.1875
9.0161824
9.0289803
9.0216742
9.0143245
9.0145347
9.0214176
9.029114
9.2052587
9.3985607
9.3773286
9.375
9.3922767
9.3820064
9.3821324
9.3925708
9.3747324
9.3780416
9.3977815
9.3847488
9.3773205
9.3789773
9.1847462
9.1861814
9.190232
9.1783658
9.1562079
9.1585465
9.1811013
9.2081038
9.1815463
9.1650626
8.9988027
9.0054687
9.0235155
9.0155555
9.0138885
9.0138849
9.0155513
9.0235258
9.0054582
8.998828
9.0101433
9.0338683
9.0090451
8.9907791
8.9946465
9.0152074
9.0175099
9.0144833
9.0123277
9.0119143
9.0216387
9.0284785
9.0162989
9.0135863
9.0296719
9.0257933
9.0258188
9.0297835
9.0136662
8.8582901
8.860171
8.8686972
8.864785
8.8583959
8.8585475
8.8645834
8.8687974
8.8600379
8.8583033
9.0137359
9.1846578
9.2035975
9.1974829
9.1974978
9.2037717
9.1844477
9.1879788
9.2044784
9.1940747
9.1835765
9.0118457
9.0124465
9.0144343
9.0175469
9.0152555
8.9946568
8.9908022
9.0090857
9.0339085
9.0101058
8.8547969
8.8471158
8.8533431
8.8641311
8.8593618
8.8578094
8.8578055
8.8593585
8.8641384
8.8533354
8.8471379
8.8548298
8.8745212
8.8529294
8.8383306
8.8449428
8.8628611
8.8603654
8.8582019
8.8562265
8.8561677
8.8645119
8.86819
8.8601944
8.8581629
8.8704387
8.868154
8.8682114
8.8706019
8.7258401
8.7168568
8.7181317
8.7234218
8.7218116
8.7167114
8.7168164
8.7216565
8.7234892
8.7180087
8.7168165
8.7255468
8.8703251
9.0295492
9.025823
9.0258932
9.0297627
9.013587
9.0165685
9.0283761
9.0218542
8.8646783
8.8561155
8.856308
8.8581559
8.8603903
8.8629015
8.8449465
8.8383482
8.8529691
8.8745604
8.7294421
8.713819
8.7086206
8.7139305
8.7197963
8.7172014
8.7160081
8.716004
8.7171982
8.7198007
8.7139252
8.70864
8.7138469
8.7294054
8.7112002
8.6997355
8.7072092
8.7222972
8.7177096
8.7160646
8.7144601
8.7146112
8.7213291
8.722898
8.7180687
8.716692
8.7256451
8.7244007
8.7244783
8.5935723
8.5943205
8.5879346
8.5887032
8.5917241
8.5915415
8.5877203
8.5877909
8.5914223
8.5917631
8.5885861
8.5878502
8.5940248
8.5934935
8.7244179
8.8681802
8.8682722
8.8705615
8.8582119
8.8604503
8.8681171
8.7228571
8.721456
8.7145726
8.7145125
8.7160228
8.7177241
8.7223292
8.7072093
8.6997493
8.7112379
8.5823872
8.5974711
8.5855467
8.5820483
8.5863036
8.5889593
8.5877316
8.5869506
8.5869466
8.5877282
8.5889612
8.5863002
8.5820652
8.5855697
8.5974375
8.5823522
8.5734826
8.5808774
8.593319
8.5880611
8.5866862
8.5854599
8.5857161
8.5908877
8.591175
8.5885616
8.5877396
8.5941062
8.5934831
8.4738093
8.4739043
8.4743209
8.469858
8.4702279
8.471731
8.4723735
8.4696721
8.4697182
8.4722805
8.4717465
8.4701133
8.4697399
8.4740307
8.473815
8.4739268
8.5936043
8.7245227
8.7257891
8.7167808
8.7183083
8.5887855
8.5911631
8.5909852
8.5856884
8.5854911
8.5866485
8.5880674
8.5933429
8.5808756
8.5734936
8.4578579
8.4646497
8.4770387
8.4681897
8.4658571
8.4690912
8.4697126
8.4692916
8.4688829
8.4688791
8.4692879
8.4697124
8.4690892
8.4658717
8.4682083
8.4770081
8.4646175
8.4578488
8.4647413
8.4748601
8.4696238
8.4683728
8.4674587
8.4677482
8.4715853
8.4711516
8.4700157
8.4696373
8.4740955
8.3638429
8.3637194
8.3638179
8.3640766
8.360994
8.3610597
8.3615848
8.3626576
8.3608707
8.3608996
8.3625831
8.3615815
8.3609451
8.3608509
8.3637948
8.3637216
8.363831
8.3640118
8.4742596
8.5942629
8.58786
8.469781
8.4702262
8.471164
8.4716625
8.4677287
8.4674752
8.4683388
8.4696238
8.4748769
8.4647385
8.3574059
8.3511906
8.3563033
8.3664371
8.3600433
8.3585079
8.3608299
8.3601997
8.3602145
8.3601017
8.360098
8.3602105
8.360198
8.3608287
8.3585204
8.360058
8.3664095
8.3562738
8.3511828
8.3574094
8.3655546
8.360649
8.3594385
8.3587498
8.3590233
8.3617693
8.360974
8.3607852
8.3607495
8.2596897
8.2618306
8.2617706
8.2618708
8.2620705
8.259956
8.2597967
8.259718
8.2609677
8.2598928
8.2599099
8.260906
8.2596996
8.2596806
8.2597949
8.2617985
8.2617704
8.2618752
8.2620019
8.2598614
8.36091
8.3609847
8.3610059
8.3618329
8.35901
8.3587562
8.3594075
8.3606441
8.3655654
8.2641259
8.2576161
8.252105
8.2558896
8.2641658
8.25968
8.2586842
8.2602309
8.2588643
8.259075
8.2591749
8.2591714
8.2590706
8.2588613
8.2602301
8.2586948
8.2596915
8.2641409
8.2558628
8.2520983
8.25762
8.2641202
8.2596626
8.2584449
8.2578995
8.2581252
8.2600091
8.2590776
8.2594681
8.1649591
8.1653672
8.166859
8.1668116
8.1669126
8.1671035
8.1656536
8.1653341
8.1649054
8.1661733
8.1656312
8.16564
8.1661203
8.1648749
8.1652155
8.1654802
8.1668419
8.1668101
8.166909
8.1670309
8.1655461
8.1651425
8.2596588
8.2591249
8.260064
8.2581166
8.2578992
8.2584163
8.259654
8.1654978
8.1694959
8.1643439
8.1595163
8.1622596
8.1690176
8.1659851
8.1653478
8.166259
8.1644929
8.1647489
8.164986
8.1649827
8.1647443
8.1644889
8.1662585
8.1653567
8.1659938
8.1689951
8.1622352
8.1595104
8.1643481
8.1694944
8.1655093
8.1642589
8.1637894
8.1639488
8.1651693
8.1642388
8.0755211
8.0764056
8.0769431
8.0780037
8.0779469
8.0780478
8.0782515
8.0772478
8.0768197
8.0762096
8.0774011
8.0772424
8.0772455
8.0773536
8.0761693
8.0766985
8.0770665
8.0780006
8.0779448
8.0780372
8.0781744
8.0771259
8.0765829
8.0755892
8.1642979
8.1652187
8.1639437
8.1637847
8.164232
8.0759835
8.0772898
8.0808336
8.0767877
8.0725951
8.0745289
8.0800512
8.0781062
8.0777007
8.0781074
8.0761596
8.0763712
8.0766833
8.0766802
8.0763665
8.076155
8.0781069
8.0777081
8.0781126
8.0800309
8.0745068
8.07259
8.0767925
8.0808356
8.0773037
8.0760092
8.0755656
8.07565
8.0763714
7.992927
7.9921993
7.9931403
7.9937623
7.9945464
7.9944757
7.9945761
7.9947969
7.9940838
7.9935874
7.9929056
7.9939671
7.9940727
7.9940718
7.993923
7.9928574
7.9934637
7.9938979
7.9945565
7.9944737
7.9945592
7.9947149
7.9939467
7.9933123
7.9922742
7.9929714
8.0764176
8.0756475
8.0755578
7.9925559
7.992993
7.9943439
7.997471
7.9943193
7.9907028
7.9920138
7.9965319
7.9953857
7.9951227
7.9951403
7.9931501
7.9932669
7.9936064
7.9936034
7.9932622
7.9931453
7.9951398
7.9951288
7.9953903
7.9965137
7.9919941
7.9906986
7.9943247
7.9974761
7.9943598
7.9930179
7.9925657
7.9925732
7.914187
7.9142756
7.9136891
7.9146188
7.9152911
7.9159056
7.9158251
7.9159247
7.916158
7.9156274
7.9150934
7.9144091
7.9153138
7.9155924
7.9155886
7.9152718
7.9143543
7.9149674
7.9154395
7.915928
7.9158238
7.9159021
7.9160706
7.915475
7.9147861
7.9137689
7.9143189
7.9141879
7.9925727
7.9967259
8.0003623
7.9968281
7.9978057
7.9997938
7.9985955
7.9992202
7.9997472
8.0005848
8.0006714
7.9990804
7.9203886
7.9171098
7.9168364
7.9148904
7.9148878
7.9152208
7.915218
7.9148832
7.9148857
7.9168362
7.9171154
7.9172955
7.9178476
7.9141444
7.9133212
7.9164329
7.918868
7.9161239
7.9147358
7.9142537
7.8401733
7.8400378
7.8399385
7.8394968
7.8403743
7.84107
7.8415874
7.8415037
7.8416022
7.841841
7.841419
7.840871
7.8402262
7.8409655
7.8413491
7.8413434
7.8409248
7.8401662
7.8407435
7.8412312
7.841621
7.8415033
7.8415747
7.8417482
7.8412519
7.840537
7.8395801
7.8399812
7.8400395
7.8401607
7.9142424
7.9147112
7.916106
7.9188598
7.9164263
7.9133239
7.9141613
7.9178632
7.9172917
7.8433711
7.8432287
7.8427458
7.8408959
7.8407664
7.8410709
7.8410687
7.8407627
7.8408925
7.8427473
7.8432357
7.8433763
7.8435272
7.8404884
7.8400206
7.8426782
7.8445415
7.8421262
7.8406964
7.7704952
7.7699267
7.7697289
7.7694995
7.7691974
7.7699998
7.7706997
7.7711669
7.7710871
7.7711843
7.7714211
7.771059
7.7705138
7.7699319
7.7705078
7.7709471
7.77094
7.7704678
7.7698679
7.7703854
7.7708729
7.7712109
7.7710879
7.7711524
7.7713227
7.770878
7.7701575
7.7692823
7.7695411
7.7697303
7.7699117
7.7704674
7.8406712
7.8421057
7.8445293
7.8426685
7.84002
7.8405007
7.8435384
7.7731223
7.7732309
7.7731016
7.7724743
7.7707493
7.7704956
7.770759
7.7707575
7.7704945
7.7707498
7.772481
7.7731147
7.773243
7.7731206
7.7706238
7.77042
7.7726802
7.7740883
7.7719611
7.7052691
7.7037716
7.7031572
7.7029039
7.7025865
7.7024142
7.7031302
7.7038201
7.7042684
7.7041991
7.7042949
7.7045223
7.7041874
7.7036571
7.7031497
7.7035696
7.7040301
7.7040219
7.70353
7.7030828
7.7035285
7.7040044
7.7043218
7.7042012
7.704259
7.7044182
7.7039933
7.7032824
7.702499
7.7026256
7.7029028
7.7031371
7.7037367
7.7052328
7.7719356
7.7740691
7.7726632
7.7704112
7.7706264
7.7041788
7.7062312
7.70652
7.7063859
7.7056661
7.7040805
7.7037111
7.7039278
7.7039283
7.7037163
7.7040913
7.7056869
7.7064167
7.7065518
7.7062523
7.7041987
7.7041872
7.7060998
7.7071458
7.64338
7.6417191
7.6401898
7.6395308
7.6392276
7.6388514
7.6387996
7.6394241
7.6400933
7.6405445
7.6404929
7.6405871
7.6407976
7.6404666
7.6399594
7.6395317
7.6398031
7.6402613
7.6402524
7.6397638
7.6394627
7.6398315
7.6402874
7.6406063
7.640496
7.6405473
7.6406875
7.6402602
7.6395697
7.638882
7.6388858
7.6392199
7.6394996
7.6401386
7.6416588
7.6433121
7.7071114
7.7060648
7.7041581
7.6409422
7.6408241
7.6425119
7.6429089
7.6427569
7.6419858
7.6405464
7.6400709
7.6402413
7.6402467
7.640091
7.6405816
7.6420411
7.6428312
7.6429889
7.6425854
7.6408956
7.6410184
7.6426236
7.5819493
7.5824689
7.5809892
7.5794197
7.5787154
7.5783653
7.5779491
7.5780109
7.5785418
7.5791818
7.5796527
7.5796254
7.5797179
7.5799041
7.5795587
7.5790812
7.5787347
7.5788625
7.579303
7.5792937
7.5788235
7.5786645
7.5789547
7.5793843
7.5797216
7.5796294
7.5796744
7.5797883
7.5793414
7.57868
7.5780885
7.5779751
7.578344
7.5786618
7.5793336
7.5808783
7.5823296
7.5817811
7.6425467
7.6454199
7.6461734
7.6465578
7.6471551
7.6469055
7.6451557
7.5843505
7.5818865
7.5810977
7.579808
7.5792347
7.5793652
7.5793811
7.5792878
7.579897
7.5812298
7.5820583
7.5822553
7.5818039
7.5804134
7.5806225
7.5227283
7.5237902
7.5241043
7.5227666
7.521134
7.520377
7.5199779
7.5195323
7.5197056
7.5201417
7.5207456
7.5212527
7.5212573
7.521348
7.5215019
7.5211244
7.5206815
7.5204159
7.5203988
7.5208114
7.5208018
7.5203603
7.5203451
7.5205571
7.5209553
7.5213282
7.5212626
7.5213016
7.5213811
7.520898
7.5202722
7.5197762
7.5195445
7.5199316
7.5202805
7.5209789
7.5225545
7.5238216
7.5234367
7.5223395
7.5804432
7.5802301
7.5816163
7.5820675
7.5236645
7.5234414
7.5226624
7.5215254
7.5208592
7.5209607
7.5209981
7.5209795
7.5217244
7.522952
7.5238133
7.5240729
7.5236203
7.5224766
7.4668621
7.4671122
7.4679023
7.4680155
7.4667682
7.4650277
7.4641981
7.4637402
7.4632682
7.4635587
7.4638985
7.464462
7.4650263
7.4650726
7.4651611
7.4652727
7.4648415
7.464436
7.4642507
7.4640781
7.4644543
7.4644445
7.46404
7.4641797
7.464314
7.4646783
7.465108
7.46508
7.4651133
7.4651481
7.4646077
7.4640216
7.4636198
7.463259
7.4636506
7.4640247
7.4647453
7.4663678
7.4674639
7.4671991
7.4663282
7.4660255
7.5220664
7.523201
7.4669479
7.4673879
7.467104
7.4663562
7.4653758
7.464615
7.4647028
7.4647806
7.4648611
7.4657808
7.4669424
7.4678535
7.4682124
7.4678022
7.4142176
7.4134454
7.4136467
7.4141357
7.4140199
7.4127889
7.4108684
7.4099274
7.4093906
7.4088904
7.4093107
7.4095534
7.4100762
7.4107237
7.4108248
7.410912
7.4109689
7.4104577
7.4100889
7.4099826
7.409635
7.4099662
7.4099562
7.4095968
7.4099109
7.4099689
7.4102998
7.4108124
7.410835
7.410863
7.4108403
7.4102165
7.4096702
7.4093607
7.4088508
7.4092337
7.4096284
7.4103714
7.4120663
7.4130035
7.412825
7.4121766
7.4118713
7.4126124
7.4129976
7.4126276
7.4119248
7.4111038
7.4102396
7.4103311
7.4104778
7.4106992
7.4118611
7.4130221
7.4140295
7.4145411
7.3631213
7.3629284
7.3622946
7.3623996
7.362542
7.3621291
7.3608007
7.3586036
7.3574928
7.3568464
7.3563151
7.3568774
7.3570295
7.3575194
7.3582754
7.3584451
7.3585323
7.3585233
7.3579077
7.3575689
7.3575343
7.3569945
7.3572707
7.3572603
7.3569552
7.3574608
7.3574495
7.3577537
7.3583728
7.3584572
7.35848
7.3583887
7.3576571
7.3571433
7.3569178
7.3562397
7.3565997
7.3570124
7.3577831
7.3595779
7.3603768
7.3602651
7.3598374
7.3595488
7.3601325
7.3604381
7.359958
7.3593018
7.3586333
7.3576562
7.357765
7.3580169
7.3584386
7.3599348
7.3612034
7.3623914
7.3133522
7.3143629
7.3143289
7.3138087
7.3137861
7.3135384
7.3126996
7.3110892
7.3085092
7.307157
7.3063713
7.3058116
7.3065076
7.3066043
7.3070857
7.3079559
7.3081981
7.3082878
7.3082132
7.3074907
7.3071618
7.3071689
7.3064481
7.3066616
7.3066503
7.3064064
7.3070916
7.3070406
7.3073376
7.3080655
7.3082127
7.3082302
7.3080685
7.3072258
7.3067229
7.3065484
7.3057098
7.3060329
7.3064606
7.3072703
7.3091743
7.3098896
7.3098538
7.309621
7.3093415
7.3097832
7.3100007
7.3094094
7.3087807
7.3082254
7.3071408
7.307269
7.307657
7.3083483
7.3102817
7.3118396
7.2657182
7.2678226
7.2691546
7.2692591
7.2688287
7.2686971
7.2680424
7.2665272
7.2642913
7.2612235
7.259572
7.2586421
7.2580609
7.2588225
7.2589795
7.2595061
7.260443
7.2607549
7.2608519
7.2607205
7.2599427
7.2595777
7.2595229
7.2587079
7.2588702
7.2588575
7.2586622
7.2594395
7.2594518
7.2597853
7.2605697
7.2607746
7.2607884
7.2605615
7.2596575
7.259117
7.2588866
7.2579691
7.2582603
7.2587004
7.2595506
7.2615209
7.2623255
7.2624272
7.2622817
7.2619267
7.262234
7.2623856
7.261746
7.2610862
7.2605105
7.2593761
7.2595147
7.2600401
7.2610539
7.2635292
7.2203216
7.2239209
7.2271079
7.2287232
7.2288531
7.2284956
7.2283691
7.2273601
7.2246974
7.2210664
7.2174013
7.2154623
7.2144311
7.2138127
7.214374
7.2149878
7.2156271
7.2164381
7.2169404
7.2170641
7.2167629
7.2161084
7.2156457
7.2151525
7.2145408
7.2147179
7.2147032
7.2144895
7.215061
7.2155134
7.2159416
7.2165862
7.2169671
7.2169944
7.2165871
7.2158002
7.2151601
7.2144968
7.2137985
7.2141233
7.2145752
7.2154309
7.2172642
7.2187206
7.2190542
7.21869
7.2180271
7.2183061
7.2183754
7.2178913
7.2170756
7.2160416
7.2151096
7.2152676
7.2158808
7.2171969
7.176992
7.1806317
7.1876859
7.1930806
7.1943982
7.1942413
7.1939611
7.1941607
7.1933846
7.1884424
7.1813816
7.1772268
7.1752673
7.1742315
7.1734754
7.1731264
7.1753035
7.176079
7.1763171
7.1774772
7.1775808
7.1766475
7.176605
7.176019
7.1740007
7.1743057
7.1746706
7.1746548
7.1742493
7.1738999
7.1758778
7.1764293
7.1764879
7.1775098
7.1775065
7.1764517
7.1762765
7.175521
7.1733433
7.1736052
7.1741421
7.1746343
7.1753435
7.176594
7.1803978
7.1806848
7.1791666
7.1780316
7.1788544
7.1783226
7.178302
7.1773104
7.1747991
7.1747444
7.1750336
7.1756235
7.1447777
7.1450223
7.147792
7.1584017
7.1675969
7.1674573
7.1670605
7.1668047
7.1673289
7.1679742
7.1591575
7.1486063
7.145329
7.1445719
7.1435006
7.1421593
7.141853
7.1429977
7.1438027
7.1436862
7.1432959
7.1434251
7.1440588
7.1443662
7.1437513
7.142799
7.1430671
7.1440492
7.1440341
7.142998
7.1426761
7.143588
7.144199
7.1438624
7.1433373
7.1433544
7.1438488
7.1440511
7.1432654
7.1421263
7.1424295
7.1435927
7.1443512
7.1444143
7.1464057
7.1529215
7.1543535
7.1489663
7.14612
7.1452348
7.1458114
7.1460527
7.1449821
7.1435453
7.1433436
7.144271
7.1192456
7.1195584
7.120342
7.1224172
7.1205375
7.1208014
7.1212047
7.1209697
7.1211006
7.1210784
7.1233095
7.1207065
7.1194624
7.1184964
7.1178036
7.1190059
7.1178298
7.1184805
7.120101
7.119535
7.119675
7.1204848
7.119042
7.1186204
7.1199851
7.1188156
7.1191938
7.1191735
7.1187373
7.119871
7.1184471
7.1188526
7.1202849
7.1195741
7.1196002
7.1202674
7.1187079
7.1181533
7.1193422
7.1182241
7.1188635
7.1197359
7.120662
7.1231103
7.1188724
7.1184503
7.1234787
7.1232959
7.1219552
7.122392
7.1208341
7.1198145
7.1206974
7.1189473
7.1160197
7.1150629
7.1230583
7.1320148
7.1376747
7.1403929
7.136898
7.1369429
7.1395785
7.1377012
7.1328148
7.1232286
7.1149249
7.1158512
7.1231026
7.1324859
7.1415056
7.1456052
7.1334919
7.1055393
7.1047597
7.1331257
7.1454476
7.1408763
7.1322463
7.1249322
7.1179027
7.1153892
7.1291878
7.1306546
7.1435485
7.1441935
7.1582378
7.1429357
7.1419661
7.148707
7.1425447
7.1572263
7.1422948
7.1287436
7.1288614
7.1415708
7.1414923
7.1471453
7.1233787
7.1261732
7.1314902
7.1314855
7.1317472
7.1289861
7.1269366
7.1251888
7.1176764
7.1158872
7.1292663
7.1297098
7.1424115
7.1573059
7.1419058
7.1426976
7.1429673
7.1484693
7.1521393
7.1499788
7.1635196
7.1535515
7.1539989
7.1496906
7.1435908
7.1371765
7.1365376
7.143621
7.1499069
7.1478823
7.1639814
7.1506194
7.1474403
7.1373655
7.1206607
7.1252197
7.1251594
7.1240471
7.1171482
7.1167814
7.1302048
7.1432828
7.1445889
7.1606194
7.1442193
7.130554
7.1437621
7.1487536
7.1823237
7.1824109
7.1858928
7.1794891
7.1784229
7.1820597
7.1796775
7.22029
7.2649154
7.2707916
7.2640113
7.2190963
7.2249994
7.2353781
7.2223093
7.2678498
7.2738939
7.2661515
7.2217937
7.2236541
7.2684486
7.2691795
7.2243303
7.1836802
7.1492792
7.1567523
7.1553397
7.1515583
7.1638516
7.155045
7.1904356
7.2020424
7.2075884
7.1906322
7.1932215
7.2054304
7.1648649
7.1677566
7.1574953
7.1724617
7.1665704
7.1558559
7.1498776
7.1835908
7.1916718
7.2036304
7.1918851
7.1917201
7.1617888
7.1435712
7.1423421
7.1422392
7.141993
7.1424495
7.1440995
7.1622867
7.1627361
7.1625489
7.1626901
7.1626904
7.1941641
7.1946115
7.1983675
7.1971713
7.1573544
7.1294581
7.1385121
7.1332053
7.0672189
6.9973277
6.9857221
6.9861051
6.9980799
7.0681038
7.0848104
7.1286399
7.136032
7.1367575
7.1297746
7.0871004
7.0709876
7.0003452
6.988936
6.9889848
7.0004118
7.0711119
7.0874151
7.1304905
7.137673
7.1376826
7.1471757
7.1393362
7.1269382
7.1160977
7.1162651
7.1235616
7.1249658
7.1249705
7.1235007
7.1161094
7.1158984
7.1266822
7.1390892
7.1468683
7.1366811
7.136118
7.1285316
7.0837284
7.0662168
6.992522
6.9799028
6.9788156
6.991162
7.0652413
7.0827962
7.1277579
7.1352985
7.1349275
7.1273684
7.0839257
7.0405293
7.0040262
6.9056707
6.7140142
6.4906502
6.351843
6.3533994
6.4945072
6.7185018
6.9086006
7.0058577
7.0426167
7.0874722
7.1364448
7.1434931
7.133284
7.1344344
7.1414906
7.1100199
7.0022703
7.0715363
7.0148491
6.9484591
6.7228556
6.5461456
6.4062798
6.217039
6.089738
5.9615039
5.910432
5.9096431
5.9595603
6.0865985
6.2122442
6.4005416
6.5410956
6.7166832
6.4018068
6.239304
6.0235424
5.8789797
5.7257736
5.6656763
5.6664595
5.7278892
5.882517
6.0285997
6.245833
6.4076006
6.2217946
6.5051493
6.8002969
6.895455
6.8766435
6.9912595
6.9914822
7.1101093
7.1415052
7.1344437
7.1333633
7.1435655
7.1365747
7.0720045
7.0027522
6.8961652
6.8767824
6.7613104
6.7610202
6.3703477
5.9722864
6.0975089
5.8896469
6.0324894
5.831748
5.6418573
5.4754554
5.3894498
5.3888149
5.4730179
5.6376935
5.8263729
6.0251257
6.2151364
6.4972089
6.0900372
5.8812476
5.6389054
5.390393
5.1883523
5.0786292
5.0792525
5.190688
5.3949391
5.6453689
5.4815454
5.7378674
5.6779304
5.9221162
5.9216924
6.3704892
5.9712768
5.7369552
5.6773623
5.3963594
5.3971616
5.0833941
5.1934475
4.9569649
4.8252281
4.8245599
4.954705
5.1889153
5.4747461
5.7287187
5.9638752
6.3601405
5.9137319
5.6683286
5.3899015
5.0783658
4.8240078
4.6821945
4.6828334
4.8265157
4.8254887
5.0825926
5.1914525
5.4797498
5.6434752
5.8885141
6.096727
6.506119
6.8012287
6.9495418
7.0154112
7.0434006
7.0880018
7.1305944
7.1189281
7.0961487
7.0069601
6.9107402
6.7253671
6.4097615
6.2217829
6.0323771
5.8307815
5.6405322
5.3922241
5.187906
4.9540791
4.822357
4.6816088
4.6808367
4.8228203
5.0777148
5.3892901
5.6682536
5.9137048
6.3608753
5.9637281
5.7283064
5.4732796
5.1867309
4.951817
4.8214969
5.0758736
5.0763389
5.3879701
5.4735483
5.7291417
5.8838556
6.0298427
6.2480331
6.408592
6.547804
6.7238175
6.5014943
6.2182968
6.09139
5.9632348
5.9124954
5.6679916
5.6677177
5.3873224
5.4722137
5.1858078
5.3886603
5.6377307
5.8810974
6.0903512
6.4990892
6.2166147
6.026241
5.8263502
5.6373968
5.8814664
5.727776
5.962328
5.9120608
6.3626783
6.3630827
6.7562237
6.7967737
6.9479875
7.0060621
7.0424138
7.1187829
7.1304072
7.1363909
7.1277446
7.0334254
7.0118151
6.8635028
6.8490329
6.8489849
6.8631574
7.011639
7.0333062
7.1261325
7.129553
7.1172685
7.1289668
7.1169504
7.0397045
7.0102556
6.8863187
6.8655285
6.8638718
6.8839676
7.008525
7.0378705
7.1155245
7.1275822
7.1155487
7.0919757
7.0009456
6.9403245
6.786598
6.7446281
6.7465423
6.7894736
6.9429639
7.0032626
7.0938887
7.1085383
7.1260908
7.0306885
7.0082836
6.8558918
6.8406839
6.8387597
6.8534931
7.0065764
7.0290199
7.1245628
7.133774
7.1523171
7.1247011
7.1067837
7.0103898
7.0336106
6.9624405
6.7974569
6.8435624
6.7656974
6.3803215
6.5149837
6.7314134
6.9227256
7.0136105
7.0321986
7.0371177
7.010285
7.0121178
6.945137
6.7975042
6.8933699
6.8740482
6.757019
6.7579026
6.874563
6.8944114
6.798975
6.9472122
6.7206026
6.5444298
6.4044751
6.2153219
6.0896456
6.4997288
6.7213396
6.9092524
7.005852
7.0417419
7.0133318
7.0111568
6.8645013
6.8499483
6.8494599
6.8637476
6.8547693
6.8083365
6.9669288
6.7344845
6.5303422
6.4432213
6.3864977
6.3542544
6.4080284
6.2442841
6.4092834
6.3546805
6.2602414
5.986659
6.0764096
6.1883471
6.0848022
5.9917241
5.9809753
5.8878329
5.8788237
6.0077481
5.8184438
6.009477
6.1916081
6.5221721
6.0784401
5.9833705
5.9880694
5.8899887
5.9937074
6.0882635
5.8811045
5.7136044
5.9412961
6.3894168
6.7776972
6.7785328
6.8552352
6.8093303
6.968366
7.0375786
7.0327573
7.0144539
6.924717
6.7368167
6.5229715
6.3898819
5.8999621
5.8999898
5.7718847
5.8053107
5.7126155
5.6942142
5.653385
5.659853
5.380296
5.4650755
5.631918
5.6283346
5.8152555
5.6273413
5.6305763
5.3746197
5.3581303
5.1455397
5.4575762
5.691652
5.8023519
5.9365347
5.8956077
5.7689693
5.709237
5.6505862
5.6570716
5.7105075
5.4632132
5.3791681
5.3726794
5.0316868
5.0562939
5.1679258
4.9286212
5.1685828
5.1457888
5.4591005
5.3737103
5.031231
5.0559722
4.7950426
4.7605204
4.8975301
4.761495
4.7955285
4.6498718
4.6113768
4.5695758
4.7242481
5.0040134
5.3691419
5.45486
5.6279241
5.8195537
5.8072374
5.6053143
5.3192853
5.6068594
5.6289489
5.3396502
5.1206255
5.0943479
5.4341659
5.3420642
4.974288
4.9487122
5.3537235
5.6892121
6.4496466
6.5851867
6.7862274
6.9664974
6.9482417
6.7758958
6.5744987
6.4495993
6.4513833
6.8458446
6.7677021
6.7999822
6.9647008
7.0352215
7.012082
6.9245872
6.7350616
6.5183805
6.3817544
5.8964751
5.7696869
5.7102071
5.8032752
5.9382803
5.7124283
5.6578739
5.6513431
5.692713
5.8908544
5.9942626
6.0876195
6.1924365
6.0793834
5.9836808
5.9893116
6.0118806
5.8819062
5.6343686
5.4655553
5.3796997
5.3731372
5.4593604
5.147215
5.0319384
5.0568337
5.1700233
5.3786724
5.3616323
5.6301783
5.8188605
5.8227453
5.637416
5.6327931
5.4637029
5.1492856
4.8995465
4.7618693
4.796157
4.9305732
4.7973159
4.6504094
4.6117501
4.7623478
5.0347761
5.0603135
5.1724465
5.4705564
5.3863134
5.3784726
5.6610377
5.701726
5.8966684
5.9942209
6.2654813
6.3591677
6.4131065
6.5350159
6.7374027
6.4473412
6.3907198
6.3590227
6.4146747
6.2499026
6.0159202
6.1979039
6.5251721
6.0837835
5.988929
5.9993331
6.095256
5.8883472
5.7215227
5.9491994
6.3930835
5.8118885
5.7193341
5.7779534
5.9077609
5.6680808
5.6674944
5.3852462
5.0595733
4.7961406
4.6491403
4.6483723
4.7937346
5.0553445
5.3795558
5.6597835
5.6531947
5.7713609
5.7118937
5.8042645
5.9408429
5.712967
5.6933253
5.8888102
5.9927323
6.0881647
5.880313
6.0094133
6.1920035
6.0771046
5.9815343
5.9864881
5.8129052
5.6259427
5.4571639
5.3728254
5.0300119
5.1428746
5.1659682
5.4632361
5.6300301
5.3721601
5.3547033
5.6241272
5.6290117
5.8171382
6.0093045
6.0260009
6.2428303
6.4053411
6.4121612
6.3564562
6.3875126
6.2616516
6.2466491
6.4115387
6.7352105
6.5330582
6.4439788
6.3552403
6.0758501
5.9864527
5.9802379
5.8875846
5.8799438
6.087354
6.5191592
6.1908455
5.9905104
5.800562
5.6905568
5.4537169
5.140882
4.8940932
4.7590123
4.6096355
4.757351
4.792076
4.9252801
5.1645298
5.0526353
5.0262967
5.3680331
5.3760261
5.4609408
5.7109889
5.6576264
5.6496557
5.707268
5.7664662
6.3850111
5.9387242
5.8974408
5.8978415
5.6578824
5.3766317
5.0530859
4.792875
4.7576626
4.6102919
4.7610811
4.8955619
4.9272925
5.1701513
5.1460771
5.0334241
5.377147
5.4612203
5.4685082
5.6347065
5.375095
5.1664243
5.1421419
5.026635
5.3681823
5.454426
5.4620615
5.631655
5.6259363
5.3568711
5.6291163
5.8153136
5.8205481
6.0145192
5.8865974
5.7203246
5.6998761
5.659687
5.717493
5.7767652
6.3929348
5.9071377
5.9478308
5.8097839
5.9970922
5.8938009
5.9855797
5.990834
6.0806384
6.5250826
6.0938956
6.1966571
6.4159587
6.2510066
6.0117477
5.8819469
5.7121208
5.6910825
5.6498403
5.7074889
5.7666842
6.3852661
5.9394567
5.800575
5.9920438
5.8891998
5.9813257
5.9876985
6.0768301
6.5203039
6.0887127
6.1930091
6.4149655
6.7367464
6.3585004
6.2653267
6.3900078
6.3590516
6.7383977
6.5360499
6.4465668
6.9252045
6.9501115
6.7813234
6.5826294
6.4603517
6.4606512
6.5833736
6.7812759
6.9498096
6.7789056
6.5774922
6.587711
6.4509668
5.6902053
5.9810699
5.9862677
6.6257987
6.874851
7.1680563
7.204847
7.1912253
7.182581
7.1492997
7.1556284
7.1535167
7.1888011
7.1844628
7.183718
7.1852741
7.1800294
7.1903424
7.2013874
7.2064792
7.1667258
7.1644702
7.1236621
7.1229305
7.1675169
7.203652
7.2172717
7.2070383
7.2174447
7.1722224
7.1448186
7.1371732
7.1280597
7.1555373
7.1643644
7.1673949
7.208976
7.2068645
7.1646211
7.1353642
7.1078253
7.1079369
7.1353558
7.1292922
7.1293827
7.1575638
7.1574866
7.1982814
7.1944661
7.1941404
7.1971913
7.1574405
7.1296512
7.1385662
7.1333645
7.1450206
7.1373984
7.1284855
7.1254361
7.1324809
7.141116
7.1465076
7.1359514
7.1090004
7.1090844
7.1362485
7.1471334
7.142099
7.1329034
7.1235944
7.1163764
7.115259
7.1233599
7.1329313
7.1393671
7.143522
7.1412625
7.1411652
7.1432033
7.1387808
7.132094
7.1228661
7.115495
7.118177
7.1306841
7.1292014
7.1419567
7.1429168
7.1441843
7.1581683
7.1436052
7.1796087
7.1839738
7.1922432
7.1921879
7.2288831
7.2311894
7.2319154
7.2320863
7.2312631
7.2284376
7.2705528
7.3165615
7.3655577
7.3726184
7.3663495
7.3622175
7.3123669
7.3186822
7.3117315
7.361806
7.368535
7.3813894
7.3655454
7.3156461
7.3217786
7.3137417
7.3638184
7.3660583
7.3160836
7.3168069
7.3667018
7.3818672
7.3791003
7.371585
7.3963907
7.3455578
7.3313557
7.2827312
7.2958516
7.2473027
7.2282395
7.2344029
7.2808642
7.2831931
7.2363987
7.2533105
7.2544764
7.304636
7.3048077
7.3576179
7.3317663
7.3291602
7.3559681
7.4082858
7.4113837
7.4105763
7.4330797
7.4294223
7.4057046
7.3816903
7.3318486
7.3169286
7.2697925
7.2251972
7.2365091
7.283502
7.2970987
7.276589
7.2323788
7.2490552
7.2563946