/*--------------------------------*- C++ -*----------------------------------*\
  =========                 |
  \\      /  F ield         | OpenFOAM: The Open Source CFD Toolbox
   \\    /   O peration     | Website:  https://openfoam.org
    \\  /    A nd           | Version:  7
     \\/     M anipulation  |
\*---------------------------------------------------------------------------*/
FoamFile
{
    version     2.0;
    format      ascii;
    class       surfaceScalarField;
    location    "370";
    object      phi;
}
// * * * * * * * * * * * * * * * * * * * * * * * * * * * * * * * * * * * * * //

dimensions      [1 0 -1 0 0 0 0];

internalField   nonuniform List<scalar> 
74922
(
-0.16876548
0.32441486
-16.373957
21.540947
-2.5335978
-2.7890412
0.10482226
-16.28213
-1.2115792
17.02292
-17.608234
17.97456
-0.0031960587
-18.152086
0.22769913
0.29987132
-0.00033954642
0.62098872
0.024481872
-0.42242115
0.68731426
-0.63339478
16.347059
-1.9076432
-2.0910383
29.523097
-0.32731972
-0.83788502
21.547483
1.7765801
-0.62124779
17.640889
-0.4926454
-2.145734
24.773322
-0.083305941
-1.6720131
27.796356
0.35614581
-1.6743413
27.85452
-1.8441718
-2.1531485
24.915288
0.33653252
-0.61020305
17.773007
1.8325532
-0.8297433
21.696072
-0.46547679
-2.0874119
29.812128
-0.74561528
-0.65226701
16.493555
0.46973023
-0.48618048
18.422836
0.40252497
-0.51026117
18.294213
0.26306295
-0.7701256
16.692794
-6.5417638
-0.69843368
29.908399
-7.25973
1.6402905
27.550356
3.6773152
-0.13930523
28.55296
7.1013517
1.5483735
19.842906
4.5901821
-1.958134
25.434702
-2.6569821
-3.9657755
26.015379
-3.397814
-1.3276836
22.479735
0.85304002
1.3414434
17.491072
7.644886
2.1682815
24.75933
-0.74003804
-0.22296877
28.386418
0.042649074
-0.68466211
16.41785
0.00042632937
-0.62352203
17.93249
-0.042349779
-0.6237165
17.932517
0.73956468
-0.68541688
16.418502
-7.6300688
-0.22540964
28.378142
-0.85281577
2.1626396
24.751593
3.4072234
17.464058
1.3369452
2.660207
22.44013
-1.3322108
-4.6054021
26.056007
-3.9593634
-7.0968402
25.496125
-1.9438985
-3.6747857
19.859345
1.5667046
7.2699086
28.578297
-0.11172432
6.5568383
27.576106
1.6594214
-0.27134082
29.925987
-0.68726393
-0.37628988
16.706076
-0.76449587
-0.4937643
18.292809
-0.5080188
0.78758832
18.424434
-0.48366196
0.41953081
16.462277
-0.65220439
-1.7985392
29.796068
-2.0810139
-0.41583212
21.628153
-0.83393536
1.7883276
17.68745
-0.60185385
-0.50469737
24.847277
-2.1444386
-0.094062399
27.81981
-1.6635588
0.35358757
27.846151
-1.6709007
-1.804043
24.900725
-2.1662694
0.25814187
17.67966
-0.61637538
1.9774332
21.628928
-0.80906516
-0.73625717
29.6158
-2.0748668
-0.55142745
16.3805
-0.62592543
-0.42364705
18.147524
-0.39764252
0.80849931
7.5350458
0.3997083
31.277744
-0.18857388
-0.16751233
0.83376776
7.5329353
1.4032973
5.8000711
-3.8802359
-1.1922114
33.054567
-0.51145031
-3.4945876
1.5315077
35.998781
1.3807159
7.9749318
2.5994301
5.9189653
-0.18843527
-1.6743298
25.935242
-0.051173018
-3.1562087
29.025199
0.10603351
-3.1558542
29.067991
-2.6457993
-1.6888643
26.041651
-1.3989372
5.9494731
0.52601654
8.0248928
3.9653743
-3.5101321
1.5484773
36.143866
-1.2444699
-1.2742033
33.178588
-0.80323671
5.8261945
-0.37210583
7.5758539
0.66137893
-0.73790687
-0.38744643
30.997422
0.6892797
7.4408065
0.80098542
5.7527582
-5.9261308
-1.061965
31.555398
-7.1495909
-3.5011877
38.342952
-1.346436
-5.1812421
40.89102
1.3771087
4.4509647
-6.0318556
44.685848
7.0936815
8.4627685
4.9150544
8.989054
-3.4711402
-0.56723807
25.330194
-4.6543292
8.2505965
0.55358865
7.8795661
2.8205516
-4.9123861
3.2237219
42.345702
-5.7927385
47.731188
0.020373226
-6.9505953
1.3099413
42.819586
2.0452705
-7.0334161
42.418126
3.9926932
-6.4068183
40.545446
3.9005636
-5.1106657
38.070095
-3.5994548
38.400246
3.6415885
-3.8635214
-4.2657564
38.118376
-2.6700878
38.874008
-4.8271469
-1.9686179
37.5975
-5.0851522
-3.0635126
39.687706
5.0979947
-4.2077445
-3.8839584
41.552571
-3.8276088
40.037283
-2.300123
-5.9552328
41.793697
-0.28920132
-6.3813283
43.064442
1.703607
-6.3663387
43.263458
6.2877505
3.3789919
-5.9376321
42.280028
2.8771011
41.253866
3.3713693
3.6985061
-5.0756007
38.644483
6.8873829
38.195276
-0.80495969
-0.78584012
32.883016
-0.42560739
5.704135
-0.49241918
7.371529
-0.75179826
-0.75189985
0.49388723
30.685545
-3.6577454
38.720238
-4.1356233
-4.1385347
3.6571273
38.422221
-5.1476136
40.568509
-3.9445957
-3.9568363
5.1391621
42.298368
-1.9783974
-4.4090881
43.724622
0.29374966
-4.6472705
44.432059
2.4825885
-4.6538648
44.244175
-4.4095745
43.204878
4.5446201
-2.2429826
-2.6236794
44.209355
5.676835
-2.0033687
42.600702
5.6797644
-1.5764382
40.477654
4.4141028
-0.90254637
38.126227
-0.34025434
37.38209
-4.9343614
0.044270808
33.539849
-6.0774179
0.053894385
37.833877
-5.9598212
0.075644281
40.788431
-4.7009277
0.10517391
43.049287
-2.6794115
0.13864734
44.643938
2.3396953
0.17389668
-0.25202389
45.552589
-0.2731799
45.164105
2.1795062
-2.3230691
45.381185
4.3867656
-2.205788
44.863269
5.9209526
-1.9929678
43.730465
3.3840379
-1.7101688
6.2770136
42.288739
5.0710115
40.571925
3.6981698
-2.8778416
3.3716455
38.648459
0.78871241
38.721887
-0.8043601
-6.8833775
32.883603
-0.42616668
5.7043304
7.3716782
0.40007464
4.3915972
2.5800064
2.2012372
3.9031679
0.13705068
2.4271072
-0.30315276
-0.059767956
-0.13563969
0.52837127
16.270652
-8.972004e-05
17.656308
0.14032919
0.13513958
17.656621
0.14017776
0.52684267
16.26996
-0.13701263
0.83544842
30.987446
-2.686459
-16.823562
0.12822054
19.125361
-1.5552647
1.5310551
6.3718109
14.351742
4.619104
-0.55790377
16.014392
-1.1441563
0.11022355
23.825752
-1.9869897
-1.3181564
30.994396
-3.4518209
-0.36995296
27.869533
-2.5637992
2.5540394
23.613231
-22.904253
-2.5093117
-0.24170464
16.020016
-11.401512
-1.7454171
-3.9935134
19.393035
-14.045669
-1.7534638
-1.0245287
30.121202
-2.7583317
-0.43707268
16.481888
-0.20608276
-0.23828361
17.877522
0.23383808
0.1418477
17.7955
0.21510273
0.34057168
16.429813
-0.048603685
-0.26647033
32.043153
-1.4830583
0.18652314
20.945511
0.24073159
0.63103052
17.271184
-0.030603937
0.015502689
26.823083
-1.3789247
0.057880292
29.011203
-1.2232935
0.076019735
28.985911
-1.222487
-0.586292
26.738865
-1.3775089
-0.17978911
17.186336
-0.033574933
0.25013335
20.820035
0.2405101
-0.43914894
31.807777
-1.466556
-0.04577234
-0.081067636
-2.2015935
-0.21242396
2.4493128
-2.5672985
3.0832889
-0.29718676
0.43552494
4.5301119
4.0340025
4.8221414
-0.17014965
-0.83041318
-6.0192141
-1.9564386
-2.4892208
32.336102
-2.4756153
1.9500391
-38.981696
37.992655
-1.9150934
-2.6786497
3.0935635
-3.3902159
-2.5675679
1.174801
3.4175728
-3.6876805
-3.7281238
38.163663
-2.5402604
38.963558
-1.9516659
-4.7304317
37.513268
4.4071823
-0.97730198
-5.6435976
38.025336
-0.40812845
37.273332
-4.932599
33.501898
-6.067865
37.792932
-5.9353914
1.6783232
40.728686
-4.6638498
2.145956
42.946916
-2.6427454
2.4347923
44.482672
-0.23027421
2.5893381
45.341073
-0.21004355
2.285823
2.6398285
45.56126
2.2828736
45.789422
4.6126475
0.24591347
45.389155
6.3394658
0.27861395
44.445408
6.931708
0.28246501
43.278934
1.3120109
5.7802325
0.018201382
42.834708
4.9070634
41.262418
3.2223501
-0.55118365
2.8207285
42.350145
38.19528
4.894993
3.06874
-3.5502322
38.837648
-5.0558687
-2.7170586
1.0377277
6.2129876
0.36133629
-6.3701468
0.49355426
3.159534
16.805715
1.5331434
-0.83680076
0.12804396
-1.5512792
19.135436
30.992071
-2.684615
1.0298927
2.2136066
29.788606
-2.1755166
0.049160479
17.035693
0.029048563
-0.00051485856
18.060065
-0.41811044
-0.049940309
18.060533
-0.41846731
-1.0311422
17.035822
0.0291328
2.2113225
29.789032
-2.1768568
0.039245894
21.753935
-0.57137022
-0.98948089
17.362831
-0.38762124
-1.7505809
25.613038
-0.96808833
1.2537487
29.468375
-1.4935145
1.2094516
29.118968
-1.3232201
0.39608083
25.267622
-1.1332689
-0.16160959
17.342377
-1.0613805
-1.317013
21.757946
-1.3286468
0.47174581
29.844956
-1.6453147
-0.25019551
17.020773
-0.041958574
-0.28956358
18.103794
-0.27797489
-0.23165996
18.096665
-0.41508633
-1.3229892
17.133232
0.2012042
1.6659215
30.200136
-1.2819273
0.03729347
22.414749
0.15825405
-0.9991623
18.148111
0.19286729
-0.075799063
26.498991
-0.54904942
0.037617584
29.996535
-1.081207
0.14051648
29.938162
-1.0824604
1.0232008
26.416121
-0.55393861
-0.037498382
18.092904
0.18755735
-1.7082905
22.328784
0.16099619
30.052721
-1.3006345
0.13417359
0.117904
30.799457
-0.97800141
0.067821625
17.513374
-0.39479905
-0.0022776972
18.693722
-0.62885017
-0.068810585
18.695456
-17.978702
-0.62989318
-17.033402
17.51829
-0.1304996
-0.39382089
-16.298659
-1.2093199
0.10738334
0.1713356
0.44512449
-0.21761565
-0.042847381
-0.23798833
31.851559
-1.4618044
0.20859035
20.864352
0.25383396
0.63977267
17.234425
-0.033093253
0.021344758
26.790172
-1.3820739
0.075498683
29.00799
-1.2216354
0.10127311
29.009963
-1.2158093
-0.57382699
26.789412
-1.3701548
-0.14618021
17.243561
-0.023600715
0.28025459
20.908724
0.23240066
-0.33158216
31.992978
-1.4766598
-0.14539353
16.415749
-0.047630245
0.23856581
17.791315
0.21734384
0.43195995
0.2355633
17.879629
1.023331
-0.2027403
16.48807
3.991915
30.131557
-2.7533922
-14.049329
19.394724
0.24151792
-1.7541834
-12.005968
11.417142
14.233575
9.7695465
6.8439164
22.946927
6.3552461
0.36950508
2.5507406
-2.5132334
23.604521
1.3139034
27.843545
-2.5656621
-0.11444791
30.970675
-3.4525906
0.54912093
23.850218
-1.9844575
-14.317356
-1.1403044
16.037536
4.6185718
2.7621857
2.3499404
-0.090564961
1.9736187
-0.26117245
2.5554175
-4.5992843
15.341308
-2.14918
-3.1646093
-3.5386087
3.9642006
0.58983727
-4.2171943
6.8407129
0.69342448
-6.4815523
-7.8789858
0.1231828
4.6589288
3.472031
8.2517901
-0.55842917
25.337536
-4.9193092
-4.4527963
47.746486
-6.0119326
1.3455607
44.710696
1.3516986
-7.0061758
2.0438928
42.439375
-6.3440916
2.2941662
43.086367
-4.6068645
2.4685638
44.264838
2.5980661
45.180205
-2.179094
4.5224228
4.3534096
44.231123
0.20519631
4.6668012
44.659584
2.4984836
4.6176338
44.490673
4.4133324
4.3578598
43.711018
5.5881388
3.8423252
42.307694
3.0353351
40.325646
-4.866477
39.540734
-3.9005202
4.8212322
41.120752
-2.2121866
5.5454192
42.31563
-0.17352986
5.8996744
42.961053
1.9375146
5.9326683
43.068155
3.8254891
5.6580421
42.623079
-4.19542
5.0507951
5.073557
41.577067
5.9102539
43.230124
6.3734003
3.8221463
41.819487
5.157092
3.9917602
40.570205
7.1529034
40.919522
-3.4791418
5.9283024
38.370052
-5.0757416
3.8981974
38.09479
4.260092
40.062412
-3.8220102
3.6340263
3.5694516
38.136162
-3.0130204
4.8142445
39.703979
-1.5207956
5.6623647
40.493632
0.13259565
6.056601
40.805747
1.7350866
6.0441938
40.747235
3.0864678
5.6163358
40.342358
4.7009527
39.551422
-1.9836333
3.4800075
37.539507
-1.0095679
4.3959318
38.054418
-0.083342508
4.9208778
37.81593
0.87287232
4.9178933
37.844988
1.9391566
4.3951023
38.127644
2.6437865
3.4933836
37.596664
0.37083518
1.260746
38.876406
-0.73679928
0.65400819
31.005644
0.36296932
1.0421978
38.421211
-0.80314393
31.576736
-0.67666346
5.7560516
7.4429057
2.5915495
0.44727263
4.4040836
0.10378659
-0.34027486
3.063601
-2.2355546
-0.27718566
2.4137866
3.9677696
-0.16291681
4.8014223
-0.94792156
6.0490674
-2.1481754
16.327877
0.038896291
0.27723796
-2.7247863
21.509479
-2.7729495
-0.47443038
-0.24797297
17.02382
1.3147564
29.850955
-1.6408002
0.16063904
21.761677
-1.3287053
-16.007298
-0.40226522
17.344899
-1.062379
-1.7492168
-3.175241
20.109214
-6.2037983
-3.4264357
-4.046219
3.8919836
0.40543012
-2.3609602
0.92447181
6.9936061
-8.9835534
0.43673726
2.5240186
4.2679647
5.2919649
0.37942929
-2.2229038
-2.5395908
18.717145
1.1365582
27.340449
-1.4562935
-8.2228571
-0.080710883
-1.2103341
25.270269
-1.2538868
29.122
-1.3268747
1.7477654
29.469454
-1.4951544
0.99254125
25.60961
-0.96651132
-0.040680579
17.359309
-0.38562374
21.752458
-0.56875127
-0.35672808
0.032117265
22.831928
-0.75176262
0.0044592996
30.723876
-1.2884491
0.011048042
17.535033
-0.47525394
-0.0006068436
18.752368
-0.65877501
-0.011826699
18.752751
-0.65912128
-0.0056311134
17.535195
-0.47493057
0.35515355
30.724138
-1.2880816
0.031054655
22.832154
-0.75177515
-0.34783498
18.467602
-0.69324314
-0.34610197
26.818212
-1.1639139
0.18338924
30.324424
-1.3479248
0.47202662
30.293723
-1.4116551
0.2555152
26.788331
-1.2337495
-0.13286761
18.469269
-0.69435372
-0.59776633
22.841249
-0.61866879
-0.24866836
30.712796
-1.20207
-0.19166996
17.512236
-0.50976986
-0.24298064
18.746755
-0.56496065
-0.17708812
18.748675
-0.69491113
-0.2276116
17.572993
-0.35886371
0.064547955
30.883612
-0.95428506
0.0020239729
23.043176
-0.60038161
-0.17446327
18.668136
-0.41484008
-0.12936769
27.03876
-0.62722163
0.019984842
30.489743
-0.64776695
0.15607462
30.482639
-0.64711661
0.18595288
27.010409
-0.62746693
-0.0099653009
18.632206
-0.41823781
22.989324
-0.59187362
-0.042392125
0.01401021
23.23559
-0.21789393
0.020930308
31.089973
-0.35068261
0.0033562589
17.685071
-0.15321573
-0.0012816594
18.910166
-0.21231339
-0.0043203356
18.910851
-0.21284124
-0.018564428
17.686371
-0.15279917
-30.813031
31.094065
-0.35036574
0.054321522
-30.081282
-0.97684501
0.13536419
1.7288747
-1.2975023
0.063583639
0.17507378
22.355081
-0.97503837
18.114287
0.18528088
-0.054711515
26.471605
-0.5543821
0.06105605
29.990046
-1.0810036
0.16697698
29.953777
-1.0775288
1.0553494
26.449324
-0.54379722
-0.0048977966
18.129753
0.20057185
-1.633965
22.392814
0.1445477
1.3302841
30.176738
-1.2793233
0.23312792
17.124626
0.20172377
0.28738724
18.09318
-0.41325706
18.104606
0.19026963
-0.24209177
18.747883
-0.5647315
0.24670518
17.514234
-0.50811342
0.59565547
30.716315
-1.1994758
0.13189487
22.843468
-0.61856563
-0.25665827
18.470425
-0.69353238
-0.4732159
26.789161
-1.2330185
-0.18444358
30.293999
-1.4107789
0.34510978
30.32438
-1.3474324
0.34655992
26.817985
-1.1646955
18.467346
-0.6944963
-0.0092698513
-0.095865815
18.802033
-0.22708986
-0.11691323
23.204276
-0.26278407
-0.0404421
31.086373
-0.43540585
-0.026557742
17.703198
-0.1807641
-0.00062814029
18.943639
-0.21619274
0.025933704
18.943692
-0.21647949
0.039624073
17.703304
-0.18051097
0.11592257
31.086544
-0.43513941
0.0086908545
23.204391
-0.26307207
-0.096504844
18.80218
-0.22690406
-0.09924515
27.218454
-0.39476717
0.01955547
30.672586
-0.46063811
0.108631
30.682089
-0.46832738
0.059700112
27.240061
-0.398365
-0.06595286
18.817806
-0.22281951
-0.2518622
23.212761
-0.18677686
-0.17585424
31.06424
-0.42418771
-0.13355814
17.67883
-0.20769311
-0.14780502
18.928822
-0.16651475
-0.076902969
18.928755
-0.2500586
-0.087622724
17.712568
-0.12677591
-0.0022138574
31.133878
-0.33171981
0.0020781607
23.266541
-0.22650286
-0.033741927
18.857651
-0.15168149
-0.028441467
27.274114
-0.23472511
0.0066767361
30.701616
-0.23978393
0.038003629
30.69393
-0.23910944
0.032199344
27.253947
-0.23518341
18.8358
-0.15553416
-0.025922226
0.018212909
18.878729
-0.036602923
-0.044358763
23.286687
-0.033561428
-0.018072713
31.142276
-0.078496323
-0.0094641039
17.710864
-0.034454627
-0.0014588503
18.941455
-0.039461035
0.0079726642
18.941297
-0.040020171
0.018180965
17.710201
-0.034009376
0.049575012
31.141161
-0.078224994
0.032833273
23.286913
-23.241294
-0.029587389
-18.838806
18.877886
0.031477679
-0.038200277
-18.643753
-0.006145257
-0.02822863
-0.15930142
-0.14625356
-0.42341637
-0.031056708
-0.10211528
27.017954
-0.63292125
0.048055417
30.483081
-0.64907788
0.18603724
30.492937
-0.64400527
0.21810565
27.034827
-0.61986701
0.022817848
18.658749
-0.40797148
-0.040390547
23.029993
-0.61239005
0.23608287
30.872696
-0.95160489
0.17904105
17.569412
-0.35761544
18.747393
-0.69430665
0.14703869
-0.078126209
18.929395
-0.25006557
0.13241214
18.930366
-0.16657987
0.1742651
17.680412
-0.2068339
0.2501866
31.066596
-0.42293616
0.065295382
23.214145
-0.18694032
-0.060305704
18.818588
-0.22247583
-0.109207
27.240664
-0.39813439
-0.02014065
30.682326
-0.46825067
0.098627546
30.672575
-0.46064228
27.218316
-0.39486887
0.014136101
-0.032685077
27.316071
-0.080811095
-0.017339131
18.87879
-0.047265169
-0.060125797
23.290635
-0.04533965
-0.038193789
31.158532
-0.0941996
-0.020179998
17.726295
-0.040957174
-0.00035638646
18.962468
-0.038293556
0.019776436
18.962404
-0.038479812
0.037703503
17.726329
-0.040800112
0.059571887
31.158614
-0.094051983
0.01702767
23.290676
-0.045508579
-0.014473902
18.878852
-0.047159361
-0.033013899
27.316132
-0.080744953
-0.025114741
30.757876
-0.093816082
-0.013448519
30.76365
-0.093144372
-0.024123549
27.328668
-0.078774912
-0.047303137
18.887062
-0.047777936
-0.11493922
23.292606
-0.014671599
-0.093630224
31.137875
-0.095147762
-0.066665482
17.706898
-0.055113426
-0.069893213
18.947364
-0.015036079
-0.030157573
18.947687
-0.058372153
-0.022174512
17.724494
-0.019504577
0.011259479
31.168231
-0.06746739
0.012398907
23.307394
-0.042275366
0.0075964696
18.895039
-0.032522632
0.0026832902
27.33088
-0.051359097
-0.0028062698
30.76106
-0.054293918
-0.0096726046
30.7539
-0.055112339
27.313984
-0.053964308
-0.029738805
0.022343472
27.345242
-0.026853855
-0.029482955
18.896926
-0.020348817
-0.046426109
23.304395
-0.0022122738
-0.024493292
31.15271
-0.032903049
-0.011052248
17.713132
-0.016370486
-0.0015703716
18.942498
-0.011112696
0.0090681702
18.941979
-0.011903656
0.022649916
17.711736
-0.015747737
0.046196287
31.149577
-0.032440322
0.030860647
23.302222
-0.0012881602
0.033406511
18.894653
-0.020561943
-27.312563
27.342752
0.028320726
-0.026759086
-27.255965
0.02910007
-0.055044087
7.4176783e-05
-0.23970489
0.036185776
30.693215
-0.24132729
0.067898273
30.701011
-0.23730239
0.062046886
27.273954
-0.22948737
0.014428703
18.855849
-0.14699397
0.018374214
23.262119
-0.23523831
0.09331141
31.131767
-0.33045768
17.712571
-0.12603485
0.030270097
-0.024496574
17.726414
-0.019287189
0.068814975
18.949469
-0.058353895
0.065633678
18.949123
-0.015302826
0.092345634
17.708276
-0.054643494
0.11372423
31.139626
-0.094596507
0.046819061
23.2935
-0.014885877
0.023731265
18.887561
-0.047576219
0.01313332
27.329056
-0.078630153
0.024813526
30.763812
-0.093081092
30.757897
-0.093817014
0.012510445
-0.027547274
30.799519
-0.028706298
-0.0059928797
27.358783
-0.026365083
-0.018967034
18.908394
-0.018602243
-0.04170795
23.320312
-0.0087652117
-0.026684355
31.177
-0.034256083
-0.012739461
17.728952
-0.017257174
-0.00015975692
18.960454
-0.011032146
0.012517867
18.960397
-0.011136485
0.02641393
17.72895
-0.017172046
0.041425701
31.17702
-0.034184537
0.018810784
23.320332
-0.0088652915
0.0058264368
18.908423
-0.018559814
-0.012662483
27.358802
-0.026342364
-0.027702682
30.799501
-0.028713272
-0.035262987
30.797448
-0.027796666
-0.03755127
27.354398
-0.025001256
-0.036079699
18.903497
-0.019341169
-0.062678432
23.310836
0.0066141967
-0.045075297
31.153123
-0.033536216
-0.028910333
17.712099
-0.022149171
-0.026426379
18.945928
-0.0016402672
-0.0075230058
18.947808
-0.019585848
0.0019488026
17.723529
-0.0091039434
0.022322589
31.174596
-0.027325919
0.01604389
23.322994
-0.010453941
0.014314514
18.912606
-0.016664022
0.0058669157
27.362925
-0.02429215
-0.0084580515
30.799516
-0.027102341
30.791556
-0.027956221
-0.022158743
0.010488775
30.834202
-0.034762187
-0.026945696
27.37974
-0.032674429
-0.026305979
18.91842
-0.024247938
-0.040900811
23.325163
-0.0080414073
-0.020066932
31.16915
-0.038378086
-0.0093266882
17.721425
-0.020264161
-0.0015583309
18.949248
-0.015662593
0.0072001409
18.948654
-0.016579966
0.017217548
17.720038
-0.019549539
0.037600912
31.165885
-0.037809505
0.024543303
23.322461
-0.0089889094
0.025083469
18.916078
-0.023779
0.020409614
27.377453
-0.032167448
-30.790002
30.833471
0.008899846
-0.034298777
-30.751536
0.015564145
-0.027593225
0.025064652
-0.055375738
0.017509445
30.76084
-0.053823124
0.0069029863
27.333256
-0.049957944
-0.004170455
18.896581
-0.030497827
-0.0035099252
23.307989
-0.046968296
31.170934
-0.067027863
-0.0023059012
0.021034973
31.178949
-0.027378186
0.0067560903
17.726005
-0.0092648784
0.025051326
18.949887
-0.019271037
0.027986746
18.94758
-0.001972347
0.044046896
17.713241
-0.021796772
0.06179221
31.154423
-0.033222848
0.035730919
23.311411
0.0064178332
0.037283553
18.903807
-0.019216772
0.035075122
27.354632
-0.02491582
30.797544
-0.027757649
0.018517914
-0.027504515
30.836514
-0.032168916
0.0042225274
30.843884
-0.032621963
-0.0084737403
27.399279
-0.030204813
-0.016185088
18.935634
-0.021669105
-0.03107226
23.347072
-0.013869559
-0.01639911
31.199061
-0.038024
-0.0079474414
17.73913
-0.01991872
-8.2067036e-05
18.967844
-0.016416914
0.0078373966
18.967781
-0.016466406
0.016255715
17.739117
-0.019876941
0.030925668
31.19905
-0.037995183
0.016107515
23.347069
-0.013921438
0.0083935601
18.93564
-0.021649542
-0.0042997438
27.399283
-0.030198531
-0.018600327
30.843871
-0.032629104
-0.027618798
30.836463
-0.032191765
-0.028602457
27.382973
-0.029614634
-0.025637139
18.920851
-0.022074663
-0.039227233
23.327907
-0.005319681
-0.021445616
31.170216
-0.036081875
-0.012355909
17.722431
-0.020759476
-0.0082008666
18.953529
-0.012989074
0.00092112098
18.956743
-0.019284686
0.0071900305
17.732828
-0.016872083
0.023068598
31.193016
-0.035562702
0.014201569
23.345394
-0.01528781
0.010587213
18.935739
-0.021173802
0.0025256258
27.399913
-0.030540904
30.843575
-0.03406079
-0.0099059891
0.00046649704
30.882764
-0.032772858
-0.017867971
30.872589
-0.033262268
-0.02037572
27.410726
-0.031173138
-0.020018535
18.938419
-0.022803759
-0.030942535
23.344486
-0.01078403
-0.013997828
31.186903
-0.036516992
-0.0067847148
17.73177
-0.019485849
-0.0013480137
18.958353
-0.016379374
0.0048600131
18.957838
-0.017235268
0.011066435
17.730697
-0.018804629
0.026726008
31.184331
-0.035961483
0.017105009
23.342164
-0.012447584
0.016312905
18.936528
-0.022120346
0.012935535
27.408792
-0.030662949
0.004705925
30.871836
-0.032991358
-30.844755
30.883636
-0.0043267555
-0.032772691
-30.800473
-0.0039824719
-0.033871077
0.00060161118
-0.026785768
-0.0099494138
27.365967
-0.023986584
-0.01391417
18.915282
-0.016188611
23.325691
-0.01182206
-0.025437134
0.015525378
23.348416
-0.014611042
-0.0090325885
31.197138
-0.035834878
-0.0021198761
17.73503
-0.017225725
0.0067433094
18.958573
-0.018759277
0.011572001
18.954835
-0.013303239
0.02066074
17.723287
-0.020451321
0.038606028
31.171131
-0.035839642
0.025398809
23.328264
-0.005465506
0.028425305
18.921031
-0.021996228
27.383104
-0.029564112
0.016614965
-0.017569509
27.410891
-0.029444896
0.009867884
30.872565
-0.032078658
0.00025812277
30.882788
-0.032254695
-0.0071191048
27.433533
-0.029692409
-0.012049715
18.958898
-0.0209374
-0.022033922
23.370104
-0.015484382
-0.0096976764
31.220887
-0.036116503
-0.0049417449
17.751338
-0.018946806
-4.3324019e-05
18.978325
-0.017251092
0.0048821089
18.978263
-0.017279416
0.009635731
17.751303
-0.018925624
0.021974022
31.220853
-0.036098944
0.012019343
23.37009
-0.015507003
0.0070853394
18.958894
-0.020932522
-0.00029103275
27.433536
-0.029695364
-0.0099085964
30.88279
-0.032266575
-0.016679189
30.872546
-0.032095062
-0.017676779
27.410826
-0.029478804
-0.016703535
18.938601
-0.021130185
-0.025126272
23.345085
-0.011093026
-0.010710218
31.188426
-0.03452689
-0.0057375367
17.734151
-0.018698131
-0.0021263751
18.964076
-0.01608024
0.0026523097
18.968084
-0.018043085
0.0061227302
17.745127
-0.01778906
0.017818457
31.2143
-0.034963984
0.010071759
23.367424
-0.016666837
0.0058250245
18.95784
-0.020417765
27.432969
-0.029590238
-0.0019725585
-0.002251671
27.456886
-0.023163278
-0.0079030976
30.910648
-0.025562029
-0.012543601
30.899659
-0.025904784
-0.013527098
27.432658
-0.024300833
-0.013452748
18.952853
-0.017695335
-0.020723592
23.358227
-0.0095170203
-0.0086481647
31.200363
-0.028171274
-0.0043813842
17.739955
-0.015174184
-0.0010379355
18.965621
-0.013228487
0.0028714952
18.965227
-0.013922241
0.0062071639
17.739243
-0.01462026
0.016920024
31.19863
-0.027691906
0.010621933
23.356569
-0.011151585
0.0093872405
18.951583
-0.017046328
0.0073346514
27.43133
-0.023872337
0.0022975802
30.899111
-0.025754089
-0.0031768661
30.911212
-0.025649513
-27.435017
27.458247
-0.0062858481
-0.023529302
-27.402496
-0.0096736859
-0.029922674
-0.012051451
-0.030696487
18.938295
-0.021468556
-0.012743382
18.95983
-0.0209912
-0.021479349
23.369924
-0.015150741
-0.0083764125
31.217414
-0.035309145
-0.0038887325
17.746743
-0.018189561
0.00083213937
18.969441
-0.017482349
0.0051233148
18.964991
-0.016343604
0.010142444
17.734732
-0.018450481
0.024712162
31.189015
-0.034342579
0.016555008
23.345291
-0.011187228
18.938703
-0.021076394
0.0095720794
-0.0099560039
18.952495
-0.016595573
0.0087151445
27.431931
-0.023518443
0.004470147
30.898973
-0.025631631
-0.0010947891
30.910508
-0.02570687
-0.0049184399
27.457562
-0.023631148
-0.0080670111
18.975331
-0.016567815
-0.014454905
23.386256
-0.012834059
-0.0054244266
31.237038
-0.02790557
-0.0029419719
17.760844
-0.014748759
-2.0733282e-05
18.9867
-0.013937747
0.0029215171
18.986626
-0.013947195
0.0054002883
17.760807
-0.014746143
0.014435456
31.236999
-0.027909774
0.0080571603
23.386241
-0.012843936
0.0049101671
18.975327
-0.016573782
0.0010862489
27.457565
-0.023641663
-0.0044841171
30.910514
-0.025717638
-0.0087441922
30.898969
-0.025648375
-0.0096286566
27.431901
-0.023544834
-0.010044156
18.952447
-0.016631496
-0.015472034
23.358321
-0.010835074
-0.0054194716
31.202647
-0.026985456
-0.0029154047
17.743301
-0.014431526
-0.00051705728
18.972548
-0.013540299
0.0020640505
18.976972
-0.01414475
0.0036130455
17.755006
-0.014222817
0.011454367
31.230914
-0.027225721
0.0060069544
23.383684
-0.013887871
18.974221
-0.01594723
9.7550839e-05
-0.0030842289
18.984519
-0.011453821
-0.002354162
27.471741
-0.016639202
-0.0055198945
30.927784
-0.018327554
-0.0077497801
30.916181
-0.018563237
-0.0078678551
27.446038
-0.017425526
-0.0081362591
18.961729
-0.012657319
-0.01256627
23.366437
-0.0075946118
-0.0046093041
31.208699
-0.019796364
-0.0025187484
17.74513
-0.010830892
-0.00071481553
18.970175
-0.0097957505
0.0014649794
18.969892
-0.010288229
0.0028594023
17.744699
-0.010426271
0.0097254301
31.207677
-0.01944352
0.0059530122
23.36539
-0.0088630224
0.0046155049
18.960984
-0.012140662
0.0036006991
27.445254
-0.01709062
0.0010237567
30.915847
-0.018455909
-0.0017709415
30.9281
-0.018405145
-0.00330201
27.472523
-0.016938708
-18.975531
18.985268
-0.0052006843
-0.011932578
-0.0087037466
-0.016540066
-0.014928796
23.385428
-0.012333805
-0.0056229189
31.23294
-0.027545803
-0.0030983272
17.756036
-0.014577681
-0.00049142514
18.977854
-0.013665646
0.002476636
18.97311
-0.013731841
0.0050403113
17.743659
-0.014242629
0.015213202
31.202995
-0.026844841
23.358428
-0.010891446
0.0055341976
-0.008798231
23.36682
-0.008918647
0.0045112188
18.961485
-0.012024851
0.0039858395
27.445418
-0.017121369
0.001758389
30.915576
-0.018648817
-0.0010079881
30.927654
-0.018685988
-0.0027393114
27.472286
-0.01718732
-0.0048807461
18.985421
-0.01204411
-0.0087304504
23.395971
-0.0096860728
-0.0025896648
31.247018
-0.01966672
-0.001592407
17.766828
-0.010560716
-3.9823803e-06
18.99195
-0.010282869
0.0015876671
18.991874
-0.01028203
0.0025913686
17.766785
-0.010560478
0.008741773
31.246976
-0.019673557
0.0048891073
23.395956
-0.0096882826
0.0027459101
18.985418
-0.012056615
0.0010145546
27.472289
-0.017199773
-0.0017548371
30.927663
-0.018699433
-0.0039913881
30.915587
-0.018669313
-0.0045340799
27.445416
-0.01714616
-0.0055778214
18.961466
-0.012049987
-0.0089487681
23.366778
-0.0088979966
-0.0024249721
31.211801
-0.019225929
-0.0014785223
17.749132
-0.010372708
-0.00018486273
18.977923
-0.01013957
0.0011206241
18.982566
-0.01037408
0.0014241776
17.761347
-0.010260192
0.0064479372
31.2415
-0.019202523
23.393753
-0.01054416
0.0013818797
-0.0033452602
23.399183
-0.0080680008
-0.00095129516
18.990177
-0.0082783865
-0.0021197573
27.479872
-0.011969268
-0.0034153457
30.937106
-0.01314535
-0.0041219215
30.925118
-0.01329882
-0.0038283327
27.453248
-0.012472213
-0.0044718879
18.966506
-0.0090331499
-0.0070228008
23.37067
-0.0062697837
-0.001883239
31.213148
-0.013890854
-0.0012521593
17.747903
-0.0077581123
-0.00043907457
18.972595
-0.007441672
0.00059866823
18.972394
-0.0077528552
0.00077004763
17.747667
-0.0074979455
0.0051904848
31.212588
-0.013649945
0.0030340546
23.370069
-0.0071031207
0.0016709237
18.966118
-0.008682039
0.0013509117
27.452837
-0.012238638
0.00040244897
30.924934
-0.013216678
-0.00064354873
30.937259
-0.013196792
-0.0011884142
27.480268
-0.01217568
-0.0027845601
18.990554
-0.0086032575
-23.39482
23.399772
-0.0050717101
-0.0072448921
-0.009100686
-0.0093105339
-0.0029139767
31.24266
-0.019443112
-0.0018606969
17.761926
-0.010520575
-0.00050634706
18.983078
-0.010022796
0.0011921652
18.978229
-0.010265095
0.0021914439
17.749326
-0.010241376
31.211986
-0.019128186
0.0047833065
-0.0004756823
31.216932
-0.013562368
0.0028258658
23.371409
-0.0071975392
0.0015615605
18.966536
-0.0086829644
0.0014144641
27.452962
-0.012356585
0.00059583214
30.924767
-0.013438094
-0.00041964457
30.937049
-0.013453513
-0.0010025109
27.480296
-0.012397521
-0.0026703876
18.990898
-0.0087207698
-0.0048938723
23.401079
-0.0074596434
-0.00074266749
31.252374
-0.01382188
-0.00071566119
17.770049
-0.0076006204
3.0143036e-06
18.994756
-0.0077312795
0.00072789898
18.994669
-0.0077245043
0.00076028292
17.770005
-0.0076086287
0.0049204787
31.252329
-0.013835967
0.0026827113
23.401065
-0.0074551353
0.001019331
18.990896
-0.0087326707
0.0004379314
27.480308
-0.012418339
-0.00057989544
30.937067
-0.013476115
-0.0014049728
30.924787
-0.013458495
-0.0015633081
27.452977
-0.012378743
-0.0028463948
18.966544
-0.008705918
-0.0048602625
23.371405
-0.0071955275
-0.00060621519
31.216851
-0.013634249
-0.00064988583
17.752321
-0.0075158634
-0.00011483953
18.980832
-0.0076736833
0.00042840084
18.985588
-0.0077998995
-1.1641666e-05
17.764823
-0.0074207132
31.247303
-0.013517528
0.0017381775
0.00078458219
31.249985
-0.010146448
0.00056306731
23.401665
-0.0065150057
-0.0013131113
18.992838
-0.0063658318
-0.0016594843
27.483695
-0.0090734018
-0.0018446786
30.941465
-0.0098587496
-0.0017100265
30.929276
-0.00994564
-0.001263611
27.456584
-0.0093537421
-0.0022251522
18.9687
-0.0067818743
-0.0036993541
23.372494
-0.0055409283